                         Program Version 4.2.1 -  RELEASE  -
|  1> ! wB97X-D3 SP def2-SVP
|  2> %pal
|  3> nprocs 16
|  4> end
|  5>
|  6> * xyz 0 1
|  7> S 	 -0.720629 	 76.1626 	 53.7584
|  8> C 	 0.230855 	 74.8561 	 54.4773
|  9> C 	 -0.47446 	 73.6513 	 54.484
| 10> C 	 -1.86403 	 73.8813 	 54.1903
| 11> C 	 -2.13591 	 75.153 	 53.8054
| 12> H 	 -2.67206 	 73.1701 	 54.268
| 13> C 	 0.158982 	 72.3381 	 54.8477
| 14> H 	 0.250629 	 72.336 	 55.9548
| 15> H 	 1.14742 	 72.3212 	 54.3859
| 16> C 	 -0.613982 	 71.1343 	 54.2752
| 17> H 	 -1.52507 	 71.0577 	 54.8709
| 18> H 	 -0.929447 	 71.4225 	 53.299
| 19> C 	 0.193086 	 69.898 	 54.1475
| 20> H 	 1.19343 	 70.0305 	 53.682
| 21> H 	 0.238517 	 69.5196 	 55.1656
| 22> H 	 -0.381919 	 69.0619 	 53.6496
| 23> S 	 -4.6965 	 76.0791 	 54.1338
| 24> C 	 -5.72853 	 76.3772 	 52.8122
| 25> C 	 -4.95861 	 76.2824 	 51.6294
| 26> C 	 -3.62306 	 75.8714 	 51.8327
| 27> C 	 -3.37792 	 75.6062 	 53.1669
| 28> H 	 -5.35806 	 76.5698 	 50.6497
| 29> C 	 -2.58729 	 75.7484 	 50.6581
| 30> H 	 -2.93134 	 74.9297 	 50.0071
| 31> H 	 -1.67071 	 75.3245 	 51.136
| 32> C 	 -2.21635 	 76.9823 	 49.8225
| 33> H 	 -3.02255 	 77.1765 	 49.1856
| 34> H 	 -1.29081 	 76.8549 	 49.1816
| 35> C 	 -2.00334 	 78.1899 	 50.6769
| 36> H 	 -2.94731 	 78.6216 	 50.9362
| 37> H 	 -1.33204 	 78.9415 	 50.1577
| 38> H 	 -1.55514 	 77.9102 	 51.6221
| 39> H 	 1.22558 	 74.9338 	 54.706
| 40> H 	 -6.76967 	 76.6637 	 52.7708
| 41> *
| 42>
| 43>                          ****END OF INPUT****

CARTESIAN COORDINATES (ANGSTROEM)
---------------------------------
  S     -0.720629   76.162600   53.758400
  C      0.230855   74.856100   54.477300
  C     -0.474460   73.651300   54.484000
  C     -1.864030   73.881300   54.190300
  C     -2.135910   75.153000   53.805400
  H     -2.672060   73.170100   54.268000
  C      0.158982   72.338100   54.847700
  H      0.250629   72.336000   55.954800
  H      1.147420   72.321200   54.385900
  C     -0.613982   71.134300   54.275200
  H     -1.525070   71.057700   54.870900
  H     -0.929447   71.422500   53.299000
  C      0.193086   69.898000   54.147500
  H      1.193430   70.030500   53.682000
  H      0.238517   69.519600   55.165600
  H     -0.381919   69.061900   53.649600
  S     -4.696500   76.079100   54.133800
  C     -5.728530   76.377200   52.812200
  C     -4.958610   76.282400   51.629400
  C     -3.623060   75.871400   51.832700
  C     -3.377920   75.606200   53.166900
  H     -5.358060   76.569800   50.649700
  C     -2.587290   75.748400   50.658100
  H     -2.931340   74.929700   50.007100
  H     -1.670710   75.324500   51.136000
  C     -2.216350   76.982300   49.822500
  H     -3.022550   77.176500   49.185600
  H     -1.290810   76.854900   49.181600
  C     -2.003340   78.189900   50.676900
  H     -2.947310   78.621600   50.936200
  H     -1.332040   78.941500   50.157700
  H     -1.555140   77.910200   51.622100
  H      1.225580   74.933800   54.706000
  H     -6.769670   76.663700   52.770800

 Total Charge           Charge          ....    0
 Multiplicity           Mult            ....    1
 Number of Electrons    NEL             ....  134
 Basis Dimension        Dim             ....  322

ORBITAL ENERGIES
----------------

  NO   OCC          E(Eh)            E(eV)
   0   2.0000     -88.967248     -2420.9219
   1   2.0000     -88.967092     -2420.9177
   2   2.0000     -10.324241      -280.9369
   3   2.0000     -10.320087      -280.8238
   4   2.0000     -10.314820      -280.6805
   5   2.0000     -10.308888      -280.5191
   6   2.0000     -10.303149      -280.3629
   7   2.0000     -10.300995      -280.3043
   8   2.0000     -10.293979      -280.1134
   9   2.0000     -10.293637      -280.1041
  10   2.0000     -10.292503      -280.0732
  11   2.0000     -10.292295      -280.0676
  12   2.0000     -10.282989      -279.8143
  13   2.0000     -10.282211      -279.7932
  14   2.0000     -10.279784      -279.7272
  15   2.0000     -10.266833      -279.3747
  16   2.0000      -8.083125      -219.9530
  17   2.0000      -8.081033      -219.8961
  18   2.0000      -6.041484      -164.3971
  19   2.0000      -6.039540      -164.3442
  20   2.0000      -6.037285      -164.2829
  21   2.0000      -6.035699      -164.2397
  22   2.0000      -6.034163      -164.1979
  23   2.0000      -6.031814      -164.1340
  24   2.0000      -1.012563       -27.5532
  25   2.0000      -0.988118       -26.8881
  26   2.0000      -0.919127       -25.0107
  27   2.0000      -0.906498       -24.6671
  28   2.0000      -0.870727       -23.6937
  29   2.0000      -0.849767       -23.1233
  30   2.0000      -0.847886       -23.0722
  31   2.0000      -0.816408       -22.2156
  32   2.0000      -0.780154       -21.2291
  33   2.0000      -0.770524       -20.9670
  34   2.0000      -0.709937       -19.3184
  35   2.0000      -0.694012       -18.8850
  36   2.0000      -0.686649       -18.6847
  37   2.0000      -0.660224       -17.9656
  38   2.0000      -0.641570       -17.4580
  39   2.0000      -0.619133       -16.8475
  40   2.0000      -0.589887       -16.0516
  41   2.0000      -0.581275       -15.8173
  42   2.0000      -0.566630       -15.4188
  43   2.0000      -0.551131       -14.9970
  44   2.0000      -0.546610       -14.8740
  45   2.0000      -0.524830       -14.2813
  46   2.0000      -0.518141       -14.0993
  47   2.0000      -0.512304       -13.9405
  48   2.0000      -0.505252       -13.7486
  49   2.0000      -0.501802       -13.6547
  50   2.0000      -0.486470       -13.2375
  51   2.0000      -0.479180       -13.0391
  52   2.0000      -0.477112       -12.9829
  53   2.0000      -0.459379       -12.5003
  54   2.0000      -0.458538       -12.4775
  55   2.0000      -0.456674       -12.4267
  56   2.0000      -0.440245       -11.9797
  57   2.0000      -0.434833       -11.8324
  58   2.0000      -0.429820       -11.6960
  59   2.0000      -0.421750       -11.4764
  60   2.0000      -0.417354       -11.3568
  61   2.0000      -0.416195       -11.3252
  62   2.0000      -0.405642       -11.0381
  63   2.0000      -0.336761        -9.1637
  64   2.0000      -0.330648        -8.9974
  65   2.0000      -0.323384        -8.7997
  66   2.0000      -0.304624        -8.2892
  67   0.0000       0.042209         1.1486
  68   0.0000       0.060089         1.6351
  69   0.0000       0.105763         2.8780
  70   0.0000       0.125349         3.4109
  71   0.0000       0.132482         3.6050

MULLIKEN ATOMIC CHARGES
-----------------------
   0 S :    0.105852
   1 C :   -0.075827
   2 C :   -0.115741
   3 C :    0.041999
   4 C :   -0.149120
   5 H :    0.011927
   6 C :    0.066111
   7 H :    0.054591
   8 H :    0.021942
   9 C :   -0.092402
  10 H :    0.034575
  11 H :    0.021857
  12 C :   -0.035984
  13 H :    0.049430
  14 H :    0.023250
  15 H :    0.039399
  16 S :    0.140369
  17 C :   -0.096723
  18 C :   -0.059034
  19 C :   -0.035760
  20 C :   -0.203225
  21 H :    0.019036
  22 C :    0.050462
  23 H :    0.036909
  24 H :    0.031706
  25 C :   -0.053864
  26 H :    0.013497
  27 H :    0.042444
  28 C :   -0.036649
  29 H :    0.024842
  30 H :    0.040672
  31 H :    0.015598
  32 H :    0.009516
  33 H :    0.058345
Sum of atomic charges:   -0.0000000

LOEWDIN ATOMIC CHARGES
----------------------
   0 S :    0.413751
   1 C :   -0.177073
   2 C :   -0.056165
   3 C :   -0.056931
   4 C :   -0.198858
   5 H :    0.032603
   6 C :   -0.031825
   7 H :    0.039041
   8 H :    0.030413
   9 C :   -0.046130
  10 H :    0.025915
  11 H :    0.019016
  12 C :   -0.070151
  13 H :    0.031601
  14 H :    0.026490
  15 H :    0.034754
  16 S :    0.460319
  17 C :   -0.213675
  18 C :   -0.075865
  19 C :   -0.063106
  20 C :   -0.224977
  21 H :    0.029638
  22 C :   -0.034748
  23 H :    0.032752
  24 H :    0.028229
  25 C :   -0.044035
  26 H :    0.013005
  27 H :    0.035540
  28 C :   -0.066865
  29 H :    0.022170
  30 H :    0.032314
  31 H :    0.012306
  32 H :    0.006977
  33 H :    0.033570

  Mayer bond orders larger than 0.100000
B(  0-S ,  1-C ) :   1.1341 B(  0-S ,  4-C ) :   1.1510 B(  1-C ,  2-C ) :   1.6245
B(  1-C , 32-H ) :   0.9819 B(  2-C ,  3-C ) :   1.2216 B(  2-C ,  6-C ) :   1.0161
B(  3-C ,  4-C ) :   1.6105 B(  3-C ,  5-H ) :   0.9923 B(  4-C , 20-C ) :   0.9815
B(  6-C ,  7-H ) :   0.9323 B(  6-C ,  8-H ) :   0.9401 B(  6-C ,  9-C ) :   1.0746
B(  9-C , 10-H ) :   0.9435 B(  9-C , 11-H ) :   0.9593 B(  9-C , 12-C ) :   1.0944
B( 12-C , 13-H ) :   0.9715 B( 12-C , 14-H ) :   0.9694 B( 12-C , 15-H ) :   0.9694
B( 16-S , 17-C ) :   1.1806 B( 16-S , 20-C ) :   1.1897 B( 17-C , 18-C ) :   1.5489
B( 17-C , 20-C ) :   0.1087 B( 17-C , 33-H ) :   0.9723 B( 18-C , 19-C ) :   1.2972
B( 18-C , 21-H ) :   0.9871 B( 19-C , 20-C ) :   1.5587 B( 19-C , 22-C ) :   1.0222
B( 22-C , 23-H ) :   0.9424 B( 22-C , 24-H ) :   0.9319 B( 22-C , 25-C ) :   1.0695
B( 25-C , 26-H ) :   0.9534 B( 25-C , 27-H ) :   0.9589 B( 25-C , 28-C ) :   1.0870
B( 28-C , 29-H ) :   0.9640 B( 28-C , 30-H ) :   0.9736 B( 28-C , 31-H ) :   0.9745

Dispersion correction           -0.015040736
FINAL SINGLE POINT ENERGY     -1339.877203397964

DIPOLE MOMENT
-------------
                                X             Y             Z
Electronic contribution:    -10.41008      12.64555      10.23304
Nuclear contribution   :     10.57775     -13.09170     -10.47087
                        -----------------------------------------
Total Dipole Moment    :      0.16767      -0.44615      -0.23783
                        -----------------------------------------
Magnitude (a.u.)       :      0.53266
Magnitude (Debye)      :      1.35391

Rotational constants in cm-1:     0.020746     0.008031     0.007261
Rotational constants in MHz :   621.948536   240.753957   217.680562

                             ****ORCA TERMINATED NORMALLY****
TOTAL RUN TIME: 0 days 0 hours 0 minutes 33 seconds 843 msec
