                         Program Version 4.2.1 -  RELEASE  -
|  1> ! wB97X-D3 SP def2-SVP
|  2> %pal
|  3> nprocs 16
|  4> end
|  5>
|  6> * xyz 0 1
|  7> S 	 -4.18239 	 44.5448 	 34.031
|  8> C 	 -3.07676 	 43.812 	 35.0828
|  9> C 	 -1.96488 	 44.6641 	 35.1984
| 10> C 	 -1.93263 	 45.7808 	 34.3289
| 11> C 	 -3.08409 	 45.9201 	 33.5737
| 12> H 	 -1.10369 	 46.453 	 34.129
| 13> C 	 -0.844235 	 44.3137 	 36.1899
| 14> H 	 -0.159828 	 43.6479 	 35.6713
| 15> H 	 -1.28556 	 43.825 	 37.051
| 16> C 	 0.0111023 	 45.4227 	 36.6657
| 17> H 	 0.861793 	 45.0686 	 37.2413
| 18> H 	 0.562383 	 45.853 	 35.7644
| 19> C 	 -0.741204 	 46.5879 	 37.4354
| 20> H 	 -1.12887 	 47.3327 	 36.7759
| 21> H 	 -1.56129 	 46.101 	 38.0768
| 22> H 	 -0.120495 	 47.167 	 38.0996
| 23> S 	 -3.15083 	 46.4474 	 30.9207
| 24> C 	 -3.8463 	 47.9271 	 30.3316
| 25> C 	 -4.09172 	 48.7897 	 31.341
| 26> C 	 -3.88684 	 48.237 	 32.5912
| 27> C 	 -3.4386 	 46.9314 	 32.5847
| 28> H 	 -4.46508 	 49.7972 	 31.233
| 29> C 	 -4.12181 	 49.0363 	 33.8358
| 30> H 	 -4.86788 	 48.6536 	 34.4637
| 31> H 	 -4.67043 	 49.8953 	 33.4984
| 32> C 	 -2.8797 	 49.4539 	 34.6755
| 33> H 	 -2.58245 	 48.513 	 35.1717
| 34> H 	 -3.13498 	 50.0835 	 35.466
| 35> C 	 -1.73335 	 50.1128 	 33.8953
| 36> H 	 -2.07969 	 51.0832 	 33.6406
| 37> H 	 -1.52665 	 49.5715 	 32.9504
| 38> H 	 -0.894485 	 50.4066 	 34.5781
| 39> H 	 -3.16607 	 42.8927 	 35.6288
| 40> H 	 -4.28192 	 48.1999 	 29.3536
| 41> *
| 42>
| 43>                          ****END OF INPUT****

CARTESIAN COORDINATES (ANGSTROEM)
---------------------------------
  S     -4.182390   44.544800   34.031000
  C     -3.076760   43.812000   35.082800
  C     -1.964880   44.664100   35.198400
  C     -1.932630   45.780800   34.328900
  C     -3.084090   45.920100   33.573700
  H     -1.103690   46.453000   34.129000
  C     -0.844235   44.313700   36.189900
  H     -0.159828   43.647900   35.671300
  H     -1.285560   43.825000   37.051000
  C      0.011102   45.422700   36.665700
  H      0.861793   45.068600   37.241300
  H      0.562383   45.853000   35.764400
  C     -0.741204   46.587900   37.435400
  H     -1.128870   47.332700   36.775900
  H     -1.561290   46.101000   38.076800
  H     -0.120495   47.167000   38.099600
  S     -3.150830   46.447400   30.920700
  C     -3.846300   47.927100   30.331600
  C     -4.091720   48.789700   31.341000
  C     -3.886840   48.237000   32.591200
  C     -3.438600   46.931400   32.584700
  H     -4.465080   49.797200   31.233000
  C     -4.121810   49.036300   33.835800
  H     -4.867880   48.653600   34.463700
  H     -4.670430   49.895300   33.498400
  C     -2.879700   49.453900   34.675500
  H     -2.582450   48.513000   35.171700
  H     -3.134980   50.083500   35.466000
  C     -1.733350   50.112800   33.895300
  H     -2.079690   51.083200   33.640600
  H     -1.526650   49.571500   32.950400
  H     -0.894485   50.406600   34.578100
  H     -3.166070   42.892700   35.628800
  H     -4.281920   48.199900   29.353600

 Total Charge           Charge          ....    0
 Multiplicity           Mult            ....    1
 Number of Electrons    NEL             ....  134
 Basis Dimension        Dim             ....  322

ORBITAL ENERGIES
----------------

  NO   OCC          E(Eh)            E(eV)
   0   2.0000     -88.964978     -2420.8601
   1   2.0000     -88.964257     -2420.8405
   2   2.0000     -10.333583      -281.1911
   3   2.0000     -10.324658      -280.9482
   4   2.0000     -10.315580      -280.7012
   5   2.0000     -10.313679      -280.6495
   6   2.0000     -10.300182      -280.2822
   7   2.0000     -10.297553      -280.2107
   8   2.0000     -10.297275      -280.2031
   9   2.0000     -10.289628      -279.9950
  10   2.0000     -10.286629      -279.9134
  11   2.0000     -10.284865      -279.8654
  12   2.0000     -10.280776      -279.7541
  13   2.0000     -10.280697      -279.7520
  14   2.0000     -10.280525      -279.7473
  15   2.0000     -10.276731      -279.6441
  16   2.0000      -8.079946      -219.8665
  17   2.0000      -8.078762      -219.8343
  18   2.0000      -6.038446      -164.3145
  19   2.0000      -6.037154      -164.2793
  20   2.0000      -6.034317      -164.2021
  21   2.0000      -6.033107      -164.1692
  22   2.0000      -6.030781      -164.1059
  23   2.0000      -6.029814      -164.0796
  24   2.0000      -1.009998       -27.4834
  25   2.0000      -0.989004       -26.9122
  26   2.0000      -0.910120       -24.7656
  27   2.0000      -0.907447       -24.6929
  28   2.0000      -0.875285       -23.8177
  29   2.0000      -0.850108       -23.1326
  30   2.0000      -0.839441       -22.8424
  31   2.0000      -0.818473       -22.2718
  32   2.0000      -0.784986       -21.3606
  33   2.0000      -0.772765       -21.0280
  34   2.0000      -0.715574       -19.4718
  35   2.0000      -0.696558       -18.9543
  36   2.0000      -0.685840       -18.6627
  37   2.0000      -0.665250       -18.1024
  38   2.0000      -0.642582       -17.4855
  39   2.0000      -0.620888       -16.8952
  40   2.0000      -0.594113       -16.1666
  41   2.0000      -0.568147       -15.4601
  42   2.0000      -0.560577       -15.2541
  43   2.0000      -0.557409       -15.1679
  44   2.0000      -0.540889       -14.7183
  45   2.0000      -0.532450       -14.4887
  46   2.0000      -0.519145       -14.1267
  47   2.0000      -0.511567       -13.9204
  48   2.0000      -0.505743       -13.7620
  49   2.0000      -0.491945       -13.3865
  50   2.0000      -0.485690       -13.2163
  51   2.0000      -0.481838       -13.1115
  52   2.0000      -0.472617       -12.8606
  53   2.0000      -0.467922       -12.7328
  54   2.0000      -0.462548       -12.5866
  55   2.0000      -0.449938       -12.2434
  56   2.0000      -0.443567       -12.0701
  57   2.0000      -0.431756       -11.7487
  58   2.0000      -0.428022       -11.6471
  59   2.0000      -0.425726       -11.5846
  60   2.0000      -0.419103       -11.4044
  61   2.0000      -0.407440       -11.0870
  62   2.0000      -0.403125       -10.9696
  63   2.0000      -0.341856        -9.3024
  64   2.0000      -0.333694        -9.0803
  65   2.0000      -0.316347        -8.6082
  66   2.0000      -0.306451        -8.3389
  67   0.0000       0.032347         0.8802
  68   0.0000       0.053807         1.4642
  69   0.0000       0.118306         3.2193
  70   0.0000       0.122713         3.3392
  71   0.0000       0.132931         3.6172

MULLIKEN ATOMIC CHARGES
-----------------------
   0 S :    0.119062
   1 C :   -0.100399
   2 C :   -0.122875
   3 C :    0.068812
   4 C :   -0.175906
   5 H :    0.024648
   6 C :    0.093412
   7 H :    0.039592
   8 H :    0.023177
   9 C :   -0.113441
  10 H :    0.028088
  11 H :    0.024974
  12 C :   -0.047906
  13 H :    0.029478
  14 H :    0.041446
  15 H :    0.025088
  16 S :    0.117797
  17 C :   -0.070062
  18 C :   -0.052356
  19 C :   -0.038180
  20 C :   -0.203285
  21 H :    0.013729
  22 C :    0.119856
  23 H :    0.017654
  24 H :   -0.016116
  25 C :   -0.065166
  26 H :    0.038548
  27 H :    0.010967
  28 C :   -0.046631
  29 H :    0.007152
  30 H :    0.058136
  31 H :    0.038453
  32 H :    0.048130
  33 H :    0.064125
Sum of atomic charges:   -0.0000000

LOEWDIN ATOMIC CHARGES
----------------------
   0 S :    0.410998
   1 C :   -0.209138
   2 C :   -0.070329
   3 C :   -0.056419
   4 C :   -0.188566
   5 H :    0.037420
   6 C :   -0.035822
   7 H :    0.036831
   8 H :    0.026393
   9 C :   -0.051193
  10 H :    0.025167
  11 H :    0.025892
  12 C :   -0.069571
  13 H :    0.019774
  14 H :    0.034840
  15 H :    0.022613
  16 S :    0.419584
  17 C :   -0.190568
  18 C :   -0.078849
  19 C :   -0.055545
  20 C :   -0.202738
  21 H :    0.032600
  22 C :   -0.027847
  23 H :    0.029380
  24 H :    0.022014
  25 C :   -0.034927
  26 H :    0.022456
  27 H :    0.016228
  28 C :   -0.070539
  29 H :    0.018010
  30 H :    0.032392
  31 H :    0.034840
  32 H :    0.032481
  33 H :    0.042139

  Mayer bond orders larger than 0.100000
B(  0-S ,  1-C ) :   1.1666 B(  0-S ,  4-C ) :   1.1491 B(  1-C ,  2-C ) :   1.5714
B(  1-C ,  4-C ) :   0.1106 B(  1-C , 32-H ) :   0.9749 B(  2-C ,  3-C ) :   1.2642
B(  2-C ,  6-C ) :   1.0048 B(  3-C ,  4-C ) :   1.5622 B(  3-C ,  5-H ) :   0.9893
B(  4-C , 20-C ) :   1.0265 B(  6-C ,  7-H ) :   0.9305 B(  6-C ,  8-H ) :   0.9443
B(  6-C ,  9-C ) :   1.1081 B(  9-C , 10-H ) :   0.9539 B(  9-C , 11-H ) :   0.9437
B(  9-C , 12-C ) :   1.0574 B( 12-C , 13-H ) :   0.9760 B( 12-C , 14-H ) :   0.9782
B( 12-C , 15-H ) :   0.9735 B( 16-S , 17-C ) :   1.1663 B( 16-S , 20-C ) :   1.1522
B( 17-C , 18-C ) :   1.5883 B( 17-C , 20-C ) :   0.1043 B( 17-C , 33-H ) :   0.9559
B( 18-C , 19-C ) :   1.2881 B( 18-C , 21-H ) :   0.9842 B( 19-C , 20-C ) :   1.5739
B( 19-C , 22-C ) :   1.0417 B( 22-C , 23-H ) :   0.9262 B( 22-C , 24-H ) :   0.9202
B( 22-C , 25-C ) :   1.0682 B( 25-C , 26-H ) :   0.9504 B( 25-C , 27-H ) :   0.9507
B( 25-C , 28-C ) :   1.0782 B( 28-C , 29-H ) :   0.9705 B( 28-C , 30-H ) :   0.9735
B( 28-C , 31-H ) :   0.9708

Dispersion correction           -0.016051985
FINAL SINGLE POINT ENERGY     -1339.864196371122

DIPOLE MOMENT
-------------
                                X             Y             Z
Electronic contribution:    -13.58288     -14.45393     -19.50585
Nuclear contribution   :     13.78158      14.82090      19.87742
                        -----------------------------------------
Total Dipole Moment    :      0.19870       0.36697       0.37157
                        -----------------------------------------
Magnitude (a.u.)       :      0.55876
Magnitude (Debye)      :      1.42025

Rotational constants in cm-1:     0.018920     0.010185     0.007719
Rotational constants in MHz :   567.209228   305.326960   231.406392

                             ****ORCA TERMINATED NORMALLY****
TOTAL RUN TIME: 0 days 0 hours 0 minutes 36 seconds 545 msec
