                         Program Version 4.2.1 -  RELEASE  -
|  1> ! wB97X-D3 SP def2-SVP
|  2> %pal
|  3> nprocs 16
|  4> end
|  5>
|  6> * xyz 0 1
|  7> S 	 -11.6332 	 45.6392 	 40.2336
|  8> C 	 -11.8251 	 44.648 	 38.8266
|  9> C 	 -10.6384 	 44.0207 	 38.3928
| 10> C 	 -9.58661 	 44.2494 	 39.3716
| 11> C 	 -9.95465 	 45.1882 	 40.3545
| 12> H 	 -8.5548 	 43.8564 	 39.3173
| 13> C 	 -10.525 	 43.0355 	 37.2908
| 14> H 	 -9.54258 	 42.6505 	 37.3776
| 15> H 	 -10.4975 	 43.5843 	 36.3443
| 16> C 	 -11.6028 	 41.9743 	 37.1334
| 17> H 	 -11.4844 	 41.2679 	 38.0151
| 18> H 	 -12.5994 	 42.487 	 37.0831
| 19> C 	 -11.3477 	 41.2585 	 35.8267
| 20> H 	 -11.8313 	 40.3224 	 35.858
| 21> H 	 -11.764 	 41.8487 	 34.9422
| 22> H 	 -10.2596 	 41.1299 	 35.7179
| 23> S 	 -10.0393 	 45.9728 	 42.9416
| 24> C 	 -8.66412 	 46.7974 	 43.5748
| 25> C 	 -7.63 	 46.9016 	 42.684
| 26> C 	 -7.88476 	 46.2012 	 41.4542
| 27> C 	 -9.14298 	 45.619 	 41.4312
| 28> H 	 -6.72301 	 47.4497 	 42.9687
| 29> C 	 -6.93057 	 46.2385 	 40.3195
| 30> H 	 -6.29148 	 47.0683 	 40.3728
| 31> H 	 -7.68434 	 46.3162 	 39.4556
| 32> C 	 -5.99982 	 44.9767 	 40.2338
| 33> H 	 -6.50611 	 44.104 	 40.405
| 34> H 	 -5.37637 	 44.8686 	 41.1488
| 35> C 	 -4.98822 	 44.7906 	 39.0732
| 36> H 	 -4.24389 	 45.5602 	 39.1124
| 37> H 	 -5.52062 	 44.7368 	 38.1331
| 38> H 	 -4.58814 	 43.8087 	 39.2671
| 39> H 	 -12.7001 	 44.6052 	 38.2218
| 40> H 	 -8.5488 	 47.3573 	 44.4741
| 41> *
| 42>
| 43>                          ****END OF INPUT****

CARTESIAN COORDINATES (ANGSTROEM)
---------------------------------
  S    -11.633200   45.639200   40.233600
  C    -11.825100   44.648000   38.826600
  C    -10.638400   44.020700   38.392800
  C     -9.586610   44.249400   39.371600
  C     -9.954650   45.188200   40.354500
  H     -8.554800   43.856400   39.317300
  C    -10.525000   43.035500   37.290800
  H     -9.542580   42.650500   37.377600
  H    -10.497500   43.584300   36.344300
  C    -11.602800   41.974300   37.133400
  H    -11.484400   41.267900   38.015100
  H    -12.599400   42.487000   37.083100
  C    -11.347700   41.258500   35.826700
  H    -11.831300   40.322400   35.858000
  H    -11.764000   41.848700   34.942200
  H    -10.259600   41.129900   35.717900
  S    -10.039300   45.972800   42.941600
  C     -8.664120   46.797400   43.574800
  C     -7.630000   46.901600   42.684000
  C     -7.884760   46.201200   41.454200
  C     -9.142980   45.619000   41.431200
  H     -6.723010   47.449700   42.968700
  C     -6.930570   46.238500   40.319500
  H     -6.291480   47.068300   40.372800
  H     -7.684340   46.316200   39.455600
  C     -5.999820   44.976700   40.233800
  H     -6.506110   44.104000   40.405000
  H     -5.376370   44.868600   41.148800
  C     -4.988220   44.790600   39.073200
  H     -4.243890   45.560200   39.112400
  H     -5.520620   44.736800   38.133100
  H     -4.588140   43.808700   39.267100
  H    -12.700100   44.605200   38.221800
  H     -8.548800   47.357300   44.474100

 Total Charge           Charge          ....    0
 Multiplicity           Mult            ....    1
 Number of Electrons    NEL             ....  134
 Basis Dimension        Dim             ....  322

ORBITAL ENERGIES
----------------

  NO   OCC          E(Eh)            E(eV)
   0   2.0000     -88.970192     -2421.0020
   1   2.0000     -88.964877     -2420.8574
   2   2.0000     -10.326301      -280.9929
   3   2.0000     -10.322771      -280.8969
   4   2.0000     -10.310629      -280.5665
   5   2.0000     -10.309365      -280.5321
   6   2.0000     -10.302420      -280.3431
   7   2.0000     -10.301389      -280.3150
   8   2.0000     -10.298171      -280.2275
   9   2.0000     -10.293423      -280.0983
  10   2.0000     -10.293039      -280.0878
  11   2.0000     -10.291203      -280.0379
  12   2.0000     -10.284548      -279.8568
  13   2.0000     -10.282939      -279.8130
  14   2.0000     -10.280482      -279.7461
  15   2.0000     -10.277863      -279.6749
  16   2.0000      -8.084880      -220.0008
  17   2.0000      -8.079563      -219.8561
  18   2.0000      -6.043342      -164.4477
  19   2.0000      -6.039389      -164.3401
  20   2.0000      -6.038144      -164.3062
  21   2.0000      -6.035692      -164.2395
  22   2.0000      -6.034160      -164.1978
  23   2.0000      -6.030170      -164.0893
  24   2.0000      -1.007772       -27.4229
  25   2.0000      -0.980807       -26.6891
  26   2.0000      -0.920705       -25.0537
  27   2.0000      -0.907817       -24.7030
  28   2.0000      -0.872579       -23.7441
  29   2.0000      -0.857894       -23.3445
  30   2.0000      -0.849304       -23.1107
  31   2.0000      -0.812249       -22.1024
  32   2.0000      -0.783429       -21.3182
  33   2.0000      -0.769418       -20.9369
  34   2.0000      -0.711271       -19.3547
  35   2.0000      -0.702726       -19.1221
  36   2.0000      -0.693329       -18.8664
  37   2.0000      -0.665265       -18.1028
  38   2.0000      -0.636294       -17.3144
  39   2.0000      -0.613530       -16.6950
  40   2.0000      -0.592024       -16.1098
  41   2.0000      -0.576825       -15.6962
  42   2.0000      -0.565506       -15.3882
  43   2.0000      -0.557080       -15.1589
  44   2.0000      -0.531570       -14.4647
  45   2.0000      -0.525651       -14.3037
  46   2.0000      -0.519396       -14.1335
  47   2.0000      -0.513193       -13.9647
  48   2.0000      -0.504949       -13.7404
  49   2.0000      -0.500689       -13.6244
  50   2.0000      -0.498795       -13.5729
  51   2.0000      -0.480122       -13.0648
  52   2.0000      -0.466763       -12.7013
  53   2.0000      -0.464836       -12.6488
  54   2.0000      -0.456362       -12.4183
  55   2.0000      -0.452228       -12.3058
  56   2.0000      -0.442732       -12.0474
  57   2.0000      -0.437575       -11.9070
  58   2.0000      -0.434773       -11.8308
  59   2.0000      -0.428401       -11.6574
  60   2.0000      -0.427096       -11.6219
  61   2.0000      -0.418711       -11.3937
  62   2.0000      -0.408982       -11.1290
  63   2.0000      -0.351902        -9.5757
  64   2.0000      -0.330591        -8.9958
  65   2.0000      -0.328657        -8.9432
  66   2.0000      -0.280676        -7.6376
  67   0.0000       0.023685         0.6445
  68   0.0000       0.071830         1.9546
  69   0.0000       0.106451         2.8967
  70   0.0000       0.126389         3.4392
  71   0.0000       0.131654         3.5825

MULLIKEN ATOMIC CHARGES
-----------------------
   0 S :    0.131072
   1 C :   -0.120680
   2 C :   -0.084124
   3 C :   -0.014317
   4 C :   -0.139694
   5 H :    0.024052
   6 C :    0.074245
   7 H :    0.000732
   8 H :    0.026423
   9 C :   -0.096107
  10 H :    0.049298
  11 H :    0.040127
  12 C :   -0.041894
  13 H :    0.027724
  14 H :    0.045257
  15 H :    0.032815
  16 S :    0.092047
  17 C :   -0.060253
  18 C :   -0.054569
  19 C :   -0.049827
  20 C :   -0.145294
  21 H :    0.024270
  22 C :    0.096913
  23 H :    0.005320
  24 H :    0.051596
  25 C :   -0.095336
  26 H :   -0.004251
  27 H :    0.011344
  28 C :    0.001183
  29 H :    0.035938
  30 H :    0.029023
  31 H :    0.029231
  32 H :    0.035890
  33 H :    0.041844
Sum of atomic charges:    0.0000000

LOEWDIN ATOMIC CHARGES
----------------------
   0 S :    0.424181
   1 C :   -0.207377
   2 C :   -0.057121
   3 C :   -0.067690
   4 C :   -0.201521
   5 H :    0.034199
   6 C :   -0.042474
   7 H :    0.023420
   8 H :    0.035066
   9 C :   -0.041798
  10 H :    0.033782
  11 H :    0.029072
  12 C :   -0.064923
  13 H :    0.019715
  14 H :    0.034781
  15 H :    0.026772
  16 S :    0.392802
  17 C :   -0.188918
  18 C :   -0.075425
  19 C :   -0.048275
  20 C :   -0.188428
  21 H :    0.034975
  22 C :   -0.029858
  23 H :    0.021608
  24 H :    0.045026
  25 C :   -0.045203
  26 H :    0.006173
  27 H :    0.029536
  28 C :   -0.052883
  29 H :    0.022013
  30 H :    0.022483
  31 H :    0.029710
  32 H :    0.018706
  33 H :    0.027875

  Mayer bond orders larger than 0.100000
B(  0-S ,  1-C ) :   1.1420 B(  0-S ,  4-C ) :   1.1514 B(  1-C ,  2-C ) :   1.5891
B(  1-C , 32-H ) :   0.9684 B(  2-C ,  3-C ) :   1.2554 B(  2-C ,  6-C ) :   1.0328
B(  3-C ,  4-C ) :   1.5358 B(  3-C ,  5-H ) :   0.9830 B(  4-C , 20-C ) :   1.1019
B(  6-C ,  7-H ) :   0.9324 B(  6-C ,  8-H ) :   0.9207 B(  6-C ,  9-C ) :   1.0728
B(  9-C , 10-H ) :   0.9558 B(  9-C , 11-H ) :   0.9496 B(  9-C , 12-C ) :   1.0822
B( 12-C , 13-H ) :   0.9719 B( 12-C , 14-H ) :   0.9719 B( 12-C , 15-H ) :   0.9736
B( 16-S , 17-C ) :   1.1471 B( 16-S , 20-C ) :   1.1073 B( 17-C , 18-C ) :   1.6403
B( 17-C , 33-H ) :   0.9618 B( 18-C , 19-C ) :   1.2356 B( 18-C , 21-H ) :   0.9861
B( 19-C , 20-C ) :   1.5804 B( 19-C , 22-C ) :   1.0487 B( 22-C , 23-H ) :   0.9307
B( 22-C , 24-H ) :   0.9263 B( 22-C , 25-C ) :   1.0481 B( 25-C , 26-H ) :   0.9533
B( 25-C , 27-H ) :   0.9450 B( 25-C , 28-C ) :   1.0831 B( 28-C , 29-H ) :   0.9779
B( 28-C , 30-H ) :   0.9762 B( 28-C , 31-H ) :   0.9714

Dispersion correction           -0.013811690
FINAL SINGLE POINT ENERGY     -1339.866256635712

DIPOLE MOMENT
-------------
                                X             Y             Z
Electronic contribution:    -14.49405      14.85036      22.21688
Nuclear contribution   :     14.94065     -14.98817     -22.64031
                        -----------------------------------------
Total Dipole Moment    :      0.44661      -0.13782      -0.42343
                        -----------------------------------------
Magnitude (a.u.)       :      0.63067
Magnitude (Debye)      :      1.60304

Rotational constants in cm-1:     0.018820     0.008442     0.006129
Rotational constants in MHz :   564.210356   253.077351   183.748120

                             ****ORCA TERMINATED NORMALLY****
TOTAL RUN TIME: 0 days 0 hours 0 minutes 31 seconds 974 msec
