                         Program Version 4.2.1 -  RELEASE  -
|  1> ! wB97X-D3 SP def2-SVP
|  2> %pal
|  3> nprocs 16
|  4> end
|  5>
|  6> * xyz 0 1
|  7> S 	 46.1742 	 15.5313 	 79.9889
|  8> C 	 46.1853 	 17.2355 	 79.9376
|  9> C 	 46.8603 	 17.7206 	 81.0699
| 10> C 	 47.5982 	 16.6956 	 81.7857
| 11> C 	 47.331 	 15.4373 	 81.3306
| 12> H 	 48.2421 	 16.7808 	 82.658
| 13> C 	 46.7441 	 19.0961 	 81.6515
| 14> H 	 46.4587 	 19.7351 	 80.8306
| 15> H 	 47.744 	 19.3576 	 81.9569
| 16> C 	 45.8797 	 19.3103 	 82.959
| 17> H 	 46.4707 	 19.0975 	 83.8819
| 18> H 	 45.6485 	 20.3753 	 83.0125
| 19> C 	 44.5586 	 18.522 	 82.9599
| 20> H 	 43.9617 	 19.0472 	 82.1651
| 21> H 	 44.6664 	 17.4855 	 82.7962
| 22> H 	 44.0286 	 18.7056 	 83.9796
| 23> S 	 46.7285 	 13.141 	 82.7136
| 24> C 	 48.0202 	 12.1307 	 83.312
| 25> C 	 49.1974 	 12.4872 	 82.7037
| 26> C 	 49.1365 	 13.6622 	 81.9085
| 27> C 	 47.8727 	 14.1861 	 81.8682
| 28> H 	 50.1004 	 11.9455 	 82.7754
| 29> C 	 50.2314 	 14.1457 	 81.0375
| 30> H 	 49.8508 	 14.8202 	 80.3227
| 31> H 	 50.5672 	 13.2452 	 80.4521
| 32> C 	 51.4656 	 14.7241 	 81.8159
| 33> H 	 52.2816 	 14.7319 	 81.1309
| 34> H 	 51.8809 	 13.9238 	 82.484
| 35> C 	 51.1397 	 16.0265 	 82.477
| 36> H 	 52.0625 	 16.389 	 83.0499
| 37> H 	 50.283 	 15.986 	 83.1041
| 38> H 	 51.0458 	 16.8033 	 81.7451
| 39> H 	 45.5266 	 17.7406 	 79.211
| 40> H 	 47.8876 	 11.2969 	 83.9733
| 41> *
| 42>
| 43>                          ****END OF INPUT****

CARTESIAN COORDINATES (ANGSTROEM)
---------------------------------
  S     46.174200   15.531300   79.988900
  C     46.185300   17.235500   79.937600
  C     46.860300   17.720600   81.069900
  C     47.598200   16.695600   81.785700
  C     47.331000   15.437300   81.330600
  H     48.242100   16.780800   82.658000
  C     46.744100   19.096100   81.651500
  H     46.458700   19.735100   80.830600
  H     47.744000   19.357600   81.956900
  C     45.879700   19.310300   82.959000
  H     46.470700   19.097500   83.881900
  H     45.648500   20.375300   83.012500
  C     44.558600   18.522000   82.959900
  H     43.961700   19.047200   82.165100
  H     44.666400   17.485500   82.796200
  H     44.028600   18.705600   83.979600
  S     46.728500   13.141000   82.713600
  C     48.020200   12.130700   83.312000
  C     49.197400   12.487200   82.703700
  C     49.136500   13.662200   81.908500
  C     47.872700   14.186100   81.868200
  H     50.100400   11.945500   82.775400
  C     50.231400   14.145700   81.037500
  H     49.850800   14.820200   80.322700
  H     50.567200   13.245200   80.452100
  C     51.465600   14.724100   81.815900
  H     52.281600   14.731900   81.130900
  H     51.880900   13.923800   82.484000
  C     51.139700   16.026500   82.477000
  H     52.062500   16.389000   83.049900
  H     50.283000   15.986000   83.104100
  H     51.045800   16.803300   81.745100
  H     45.526600   17.740600   79.211000
  H     47.887600   11.296900   83.973300

 Total Charge           Charge          ....    0
 Multiplicity           Mult            ....    1
 Number of Electrons    NEL             ....  134
 Basis Dimension        Dim             ....  322

ORBITAL ENERGIES
----------------

  NO   OCC          E(Eh)            E(eV)
   0   2.0000     -88.962357     -2420.7888
   1   2.0000     -88.961733     -2420.7718
   2   2.0000     -10.328716      -281.0586
   3   2.0000     -10.323297      -280.9112
   4   2.0000     -10.317998      -280.7670
   5   2.0000     -10.317189      -280.7450
   6   2.0000     -10.304741      -280.4063
   7   2.0000     -10.296493      -280.1818
   8   2.0000     -10.294577      -280.1297
   9   2.0000     -10.291304      -280.0406
  10   2.0000     -10.288739      -279.9708
  11   2.0000     -10.287852      -279.9467
  12   2.0000     -10.287782      -279.9448
  13   2.0000     -10.286525      -279.9106
  14   2.0000     -10.280131      -279.7366
  15   2.0000     -10.277417      -279.6627
  16   2.0000      -8.077731      -219.8062
  17   2.0000      -8.076698      -219.7781
  18   2.0000      -6.036197      -164.2533
  19   2.0000      -6.035180      -164.2256
  20   2.0000      -6.032063      -164.1408
  21   2.0000      -6.031216      -164.1177
  22   2.0000      -6.028587      -164.0462
  23   2.0000      -6.027429      -164.0147
  24   2.0000      -1.007777       -27.4230
  25   2.0000      -0.986947       -26.8562
  26   2.0000      -0.911178       -24.7944
  27   2.0000      -0.904075       -24.6011
  28   2.0000      -0.871169       -23.7057
  29   2.0000      -0.851845       -23.1799
  30   2.0000      -0.844409       -22.9775
  31   2.0000      -0.816524       -22.2188
  32   2.0000      -0.780487       -21.2381
  33   2.0000      -0.769014       -20.9259
  34   2.0000      -0.708510       -19.2795
  35   2.0000      -0.698942       -19.0192
  36   2.0000      -0.691936       -18.8285
  37   2.0000      -0.661452       -17.9990
  38   2.0000      -0.647107       -17.6087
  39   2.0000      -0.614033       -16.7087
  40   2.0000      -0.598531       -16.2868
  41   2.0000      -0.557494       -15.1702
  42   2.0000      -0.556667       -15.1477
  43   2.0000      -0.552562       -15.0360
  44   2.0000      -0.539718       -14.6865
  45   2.0000      -0.537957       -14.6386
  46   2.0000      -0.520628       -14.1670
  47   2.0000      -0.517976       -14.0948
  48   2.0000      -0.503857       -13.7107
  49   2.0000      -0.497115       -13.5272
  50   2.0000      -0.493096       -13.4178
  51   2.0000      -0.476665       -12.9707
  52   2.0000      -0.472695       -12.8627
  53   2.0000      -0.468299       -12.7431
  54   2.0000      -0.461931       -12.5698
  55   2.0000      -0.448728       -12.2105
  56   2.0000      -0.441632       -12.0174
  57   2.0000      -0.428798       -11.6682
  58   2.0000      -0.425680       -11.5833
  59   2.0000      -0.421049       -11.4573
  60   2.0000      -0.417969       -11.3735
  61   2.0000      -0.415549       -11.3077
  62   2.0000      -0.413381       -11.2487
  63   2.0000      -0.344622        -9.3777
  64   2.0000      -0.326939        -8.8965
  65   2.0000      -0.322805        -8.7840
  66   2.0000      -0.298176        -8.1138
  67   0.0000       0.041287         1.1235
  68   0.0000       0.057552         1.5661
  69   0.0000       0.111565         3.0358
  70   0.0000       0.117689         3.2025
  71   0.0000       0.129414         3.5215

MULLIKEN ATOMIC CHARGES
-----------------------
   0 S :    0.103012
   1 C :   -0.127804
   2 C :   -0.123008
   3 C :    0.046935
   4 C :   -0.163290
   5 H :    0.012784
   6 C :    0.090729
   7 H :    0.017790
   8 H :    0.019998
   9 C :   -0.084931
  10 H :    0.032092
  11 H :    0.033373
  12 C :   -0.072830
  13 H :    0.034705
  14 H :    0.051720
  15 H :    0.045492
  16 S :    0.099618
  17 C :   -0.078347
  18 C :   -0.008598
  19 C :   -0.015924
  20 C :   -0.190336
  21 H :   -0.002251
  22 C :    0.044197
  23 H :    0.022545
  24 H :    0.036999
  25 C :   -0.062782
  26 H :    0.011803
  27 H :    0.021463
  28 C :   -0.025052
  29 H :    0.036959
  30 H :    0.042458
  31 H :    0.026571
  32 H :    0.068929
  33 H :    0.054981
Sum of atomic charges:   -0.0000000

LOEWDIN ATOMIC CHARGES
----------------------
   0 S :    0.407721
   1 C :   -0.213847
   2 C :   -0.067205
   3 C :   -0.058719
   4 C :   -0.193042
   5 H :    0.034214
   6 C :   -0.035954
   7 H :    0.026963
   8 H :    0.030309
   9 C :   -0.041577
  10 H :    0.023209
  11 H :    0.026767
  12 C :   -0.069498
  13 H :    0.029911
  14 H :    0.019292
  15 H :    0.036270
  16 S :    0.396644
  17 C :   -0.176746
  18 C :   -0.065855
  19 C :   -0.059960
  20 C :   -0.195277
  21 H :    0.022838
  22 C :   -0.026286
  23 H :    0.024747
  24 H :    0.041213
  25 C :   -0.043181
  26 H :    0.019129
  27 H :    0.025274
  28 C :   -0.062434
  29 H :    0.037092
  30 H :    0.018761
  31 H :    0.025059
  32 H :    0.035626
  33 H :    0.028542

  Mayer bond orders larger than 0.100000
B(  0-S ,  1-C ) :   1.1545 B(  0-S ,  4-C ) :   1.1442 B(  1-C ,  2-C ) :   1.5774
B(  1-C , 32-H ) :   0.9698 B(  2-C ,  3-C ) :   1.2140 B(  2-C ,  6-C ) :   1.0489
B(  3-C ,  4-C ) :   1.6045 B(  3-C ,  5-H ) :   0.9941 B(  4-C , 20-C ) :   1.0008
B(  6-C ,  7-H ) :   0.9398 B(  6-C ,  8-H ) :   0.9340 B(  6-C ,  9-C ) :   1.0542
B(  9-C , 10-H ) :   0.9564 B(  9-C , 11-H ) :   0.9588 B(  9-C , 12-C ) :   1.0776
B( 12-C , 13-H ) :   0.9784 B( 12-C , 14-H ) :   0.9733 B( 12-C , 15-H ) :   0.9737
B( 16-S , 17-C ) :   1.1536 B( 16-S , 20-C ) :   1.1391 B( 17-C , 18-C ) :   1.5933
B( 17-C , 33-H ) :   0.9737 B( 18-C , 19-C ) :   1.2383 B( 18-C , 21-H ) :   0.9935
B( 19-C , 20-C ) :   1.6054 B( 19-C , 22-C ) :   1.0500 B( 22-C , 23-H ) :   0.9388
B( 22-C , 24-H ) :   0.9332 B( 22-C , 25-C ) :   1.0671 B( 25-C , 26-H ) :   0.9521
B( 25-C , 27-H ) :   0.9558 B( 25-C , 28-C ) :   1.0716 B( 28-C , 29-H ) :   0.9663
B( 28-C , 30-H ) :   0.9725 B( 28-C , 31-H ) :   0.9711

Dispersion correction           -0.015788586
FINAL SINGLE POINT ENERGY     -1339.878650354980

DIPOLE MOMENT
-------------
                                X             Y             Z
Electronic contribution:    -10.23873     -17.34582      -6.72403
Nuclear contribution   :     10.68213      17.62148       6.86007
                        -----------------------------------------
Total Dipole Moment    :      0.44340       0.27566       0.13604
                        -----------------------------------------
Magnitude (a.u.)       :      0.53954
Magnitude (Debye)      :      1.37139

Rotational constants in cm-1:     0.019499     0.009195     0.007926
Rotational constants in MHz :   584.562315   275.645630   237.609873

                             ****ORCA TERMINATED NORMALLY****
TOTAL RUN TIME: 0 days 0 hours 0 minutes 30 seconds 149 msec
