                         Program Version 4.2.1 -  RELEASE  -
|  1> ! wB97X-D3 SP def2-SVP
|  2> %pal
|  3> nprocs 16
|  4> end
|  5>
|  6> * xyz 0 1
|  7> S 	 -42.2884 	 24.5322 	 78.2575
|  8> C 	 -43.2532 	 24.1299 	 79.629
|  9> C 	 -42.6449 	 23.0987 	 80.2995
| 10> C 	 -41.7521 	 22.4176 	 79.4432
| 11> C 	 -41.4888 	 22.9976 	 78.2368
| 12> H 	 -41.1946 	 21.5497 	 79.6315
| 13> C 	 -42.8976 	 22.5574 	 81.7022
| 14> H 	 -42.9523 	 21.5447 	 81.5866
| 15> H 	 -43.9686 	 22.8603 	 81.9534
| 16> C 	 -41.8853 	 22.9596 	 82.7492
| 17> H 	 -42.1039 	 22.5588 	 83.6962
| 18> H 	 -41.0197 	 22.5 	 82.3339
| 19> C 	 -41.7303 	 24.4947 	 82.8508
| 20> H 	 -41.6305 	 25.0998 	 81.9531
| 21> H 	 -42.735 	 24.6619 	 83.3061
| 22> H 	 -40.8702 	 24.8489 	 83.404
| 23> S 	 -40.86 	 20.7838 	 76.698
| 24> C 	 -40.007 	 20.9974 	 75.1831
| 25> C 	 -39.4465 	 22.2526 	 75.2047
| 26> C 	 -39.8271 	 23.0693 	 76.2583
| 27> C 	 -40.774 	 22.499 	 77.0889
| 28> H 	 -38.7572 	 22.4264 	 74.4046
| 29> C 	 -39.2882 	 24.4994 	 76.3779
| 30> H 	 -39.9904 	 25.1502 	 76.9925
| 31> H 	 -39.3799 	 25.017 	 75.3819
| 32> C 	 -37.8195 	 24.4739 	 76.8703
| 33> H 	 -37.0684 	 24.2414 	 76.1334
| 34> H 	 -37.6868 	 23.6194 	 77.6108
| 35> C 	 -37.3638 	 25.6955 	 77.6708
| 36> H 	 -38.0061 	 25.9064 	 78.537
| 37> H 	 -37.2002 	 26.5133 	 76.953
| 38> H 	 -36.4385 	 25.4735 	 78.1861
| 39> H 	 -43.8828 	 24.831 	 80.0195
| 40> H 	 -39.6613 	 20.2393 	 74.5421
| 41> *
| 42>
| 43>                          ****END OF INPUT****

CARTESIAN COORDINATES (ANGSTROEM)
---------------------------------
  S    -42.288400   24.532200   78.257500
  C    -43.253200   24.129900   79.629000
  C    -42.644900   23.098700   80.299500
  C    -41.752100   22.417600   79.443200
  C    -41.488800   22.997600   78.236800
  H    -41.194600   21.549700   79.631500
  C    -42.897600   22.557400   81.702200
  H    -42.952300   21.544700   81.586600
  H    -43.968600   22.860300   81.953400
  C    -41.885300   22.959600   82.749200
  H    -42.103900   22.558800   83.696200
  H    -41.019700   22.500000   82.333900
  C    -41.730300   24.494700   82.850800
  H    -41.630500   25.099800   81.953100
  H    -42.735000   24.661900   83.306100
  H    -40.870200   24.848900   83.404000
  S    -40.860000   20.783800   76.698000
  C    -40.007000   20.997400   75.183100
  C    -39.446500   22.252600   75.204700
  C    -39.827100   23.069300   76.258300
  C    -40.774000   22.499000   77.088900
  H    -38.757200   22.426400   74.404600
  C    -39.288200   24.499400   76.377900
  H    -39.990400   25.150200   76.992500
  H    -39.379900   25.017000   75.381900
  C    -37.819500   24.473900   76.870300
  H    -37.068400   24.241400   76.133400
  H    -37.686800   23.619400   77.610800
  C    -37.363800   25.695500   77.670800
  H    -38.006100   25.906400   78.537000
  H    -37.200200   26.513300   76.953000
  H    -36.438500   25.473500   78.186100
  H    -43.882800   24.831000   80.019500
  H    -39.661300   20.239300   74.542100

 Total Charge           Charge          ....    0
 Multiplicity           Mult            ....    1
 Number of Electrons    NEL             ....  134
 Basis Dimension        Dim             ....  322

ORBITAL ENERGIES
----------------

  NO   OCC          E(Eh)            E(eV)
   0   2.0000     -88.964393     -2420.8442
   1   2.0000     -88.960930     -2420.7500
   2   2.0000     -10.328867      -281.0628
   3   2.0000     -10.325660      -280.9755
   4   2.0000     -10.312751      -280.6242
   5   2.0000     -10.306232      -280.4468
   6   2.0000     -10.301289      -280.3123
   7   2.0000     -10.301172      -280.3091
   8   2.0000     -10.300705      -280.2964
   9   2.0000     -10.288877      -279.9746
  10   2.0000     -10.288862      -279.9742
  11   2.0000     -10.288020      -279.9512
  12   2.0000     -10.284844      -279.8648
  13   2.0000     -10.282864      -279.8110
  14   2.0000     -10.277846      -279.6744
  15   2.0000     -10.276468      -279.6369
  16   2.0000      -8.078895      -219.8379
  17   2.0000      -8.076619      -219.7760
  18   2.0000      -6.037446      -164.2873
  19   2.0000      -6.035086      -164.2230
  20   2.0000      -6.033543      -164.1810
  21   2.0000      -6.031149      -164.1159
  22   2.0000      -6.029511      -164.0713
  23   2.0000      -6.027203      -164.0085
  24   2.0000      -1.016152       -27.6509
  25   2.0000      -0.994221       -27.0541
  26   2.0000      -0.919182       -25.0122
  27   2.0000      -0.903080       -24.5741
  28   2.0000      -0.877315       -23.8730
  29   2.0000      -0.852543       -23.1989
  30   2.0000      -0.845487       -23.0069
  31   2.0000      -0.818657       -22.2768
  32   2.0000      -0.786042       -21.3893
  33   2.0000      -0.774162       -21.0660
  34   2.0000      -0.713668       -19.4199
  35   2.0000      -0.703240       -19.1361
  36   2.0000      -0.692626       -18.8473
  37   2.0000      -0.668744       -18.1974
  38   2.0000      -0.646164       -17.5830
  39   2.0000      -0.619651       -16.8616
  40   2.0000      -0.596204       -16.2235
  41   2.0000      -0.577970       -15.7274
  42   2.0000      -0.566174       -15.4064
  43   2.0000      -0.561115       -15.2687
  44   2.0000      -0.553025       -15.0486
  45   2.0000      -0.526938       -14.3387
  46   2.0000      -0.523832       -14.2542
  47   2.0000      -0.517577       -14.0840
  48   2.0000      -0.508198       -13.8288
  49   2.0000      -0.498960       -13.5774
  50   2.0000      -0.489871       -13.3301
  51   2.0000      -0.478863       -13.0305
  52   2.0000      -0.474267       -12.9055
  53   2.0000      -0.469629       -12.7792
  54   2.0000      -0.461706       -12.5637
  55   2.0000      -0.442589       -12.0435
  56   2.0000      -0.437559       -11.9066
  57   2.0000      -0.436851       -11.8873
  58   2.0000      -0.433756       -11.8031
  59   2.0000      -0.419339       -11.4108
  60   2.0000      -0.417649       -11.3648
  61   2.0000      -0.409715       -11.1489
  62   2.0000      -0.404356       -11.0031
  63   2.0000      -0.357489        -9.7278
  64   2.0000      -0.330697        -8.9987
  65   2.0000      -0.327484        -8.9113
  66   2.0000      -0.288317        -7.8455
  67   0.0000       0.021745         0.5917
  68   0.0000       0.067317         1.8318
  69   0.0000       0.100764         2.7419
  70   0.0000       0.128628         3.5001
  71   0.0000       0.134355         3.6560

MULLIKEN ATOMIC CHARGES
-----------------------
   0 S :    0.084412
   1 C :   -0.077589
   2 C :   -0.096216
   3 C :   -0.001258
   4 C :   -0.127142
   5 H :   -0.012805
   6 C :    0.074549
   7 H :    0.007682
   8 H :    0.020113
   9 C :    0.001286
  10 H :    0.029499
  11 H :    0.011774
  12 C :   -0.076959
  13 H :    0.039198
  14 H :    0.030481
  15 H :    0.037426
  16 S :    0.093015
  17 C :   -0.071154
  18 C :   -0.043675
  19 C :   -0.017354
  20 C :   -0.128489
  21 H :    0.011477
  22 C :    0.054676
  23 H :    0.028790
  24 H :    0.040909
  25 C :   -0.100851
  26 H :    0.031854
  27 H :    0.037620
  28 C :   -0.049718
  29 H :    0.038535
  30 H :    0.039781
  31 H :    0.024098
  32 H :    0.020238
  33 H :    0.045797
Sum of atomic charges:   -0.0000000

LOEWDIN ATOMIC CHARGES
----------------------
   0 S :    0.422250
   1 C :   -0.181476
   2 C :   -0.056084
   3 C :   -0.068444
   4 C :   -0.190668
   5 H :    0.018913
   6 C :   -0.023366
   7 H :    0.018378
   8 H :    0.030305
   9 C :   -0.028279
  10 H :    0.021919
  11 H :    0.017730
  12 C :   -0.070673
  13 H :    0.025564
  14 H :    0.032620
  15 H :    0.025494
  16 S :    0.402335
  17 C :   -0.178270
  18 C :   -0.067727
  19 C :   -0.062401
  20 C :   -0.188982
  21 H :    0.029826
  22 C :   -0.038835
  23 H :    0.025364
  24 H :    0.036350
  25 C :   -0.047991
  26 H :    0.022180
  27 H :    0.031578
  28 C :   -0.068427
  29 H :    0.028649
  30 H :    0.025880
  31 H :    0.025137
  32 H :    0.007345
  33 H :    0.023807

  Mayer bond orders larger than 0.100000
B(  0-S ,  1-C ) :   1.1535 B(  0-S ,  4-C ) :   1.1442 B(  1-C ,  2-C ) :   1.5833
B(  1-C ,  4-C ) :   0.1002 B(  1-C , 32-H ) :   0.9812 B(  2-C ,  3-C ) :   1.2327
B(  2-C ,  6-C ) :   1.0103 B(  3-C ,  4-C ) :   1.5726 B(  3-C ,  5-H ) :   1.0041
B(  4-C , 20-C ) :   1.0666 B(  6-C ,  7-H ) :   0.9397 B(  6-C ,  8-H ) :   0.9417
B(  6-C ,  9-C ) :   1.0693 B(  9-C , 10-H ) :   0.9605 B(  9-C , 11-H ) :   0.9498
B(  9-C , 12-C ) :   1.0581 B( 12-C , 13-H ) :   0.9756 B( 12-C , 14-H ) :   0.9812
B( 12-C , 15-H ) :   0.9760 B( 16-S , 17-C ) :   1.1510 B( 16-S , 20-C ) :   1.1413
B( 17-C , 18-C ) :   1.5972 B( 17-C , 20-C ) :   0.1082 B( 17-C , 33-H ) :   0.9712
B( 18-C , 19-C ) :   1.2603 B( 18-C , 21-H ) :   0.9960 B( 19-C , 20-C ) :   1.5431
B( 19-C , 22-C ) :   1.0449 B( 22-C , 23-H ) :   0.9416 B( 22-C , 24-H ) :   0.9379
B( 22-C , 25-C ) :   1.0238 B( 25-C , 26-H ) :   0.9553 B( 25-C , 27-H ) :   0.9637
B( 25-C , 28-C ) :   1.0969 B( 28-C , 29-H ) :   0.9742 B( 28-C , 30-H ) :   0.9744
B( 28-C , 31-H ) :   0.9731

Dispersion correction           -0.014455327
FINAL SINGLE POINT ENERGY     -1339.844553660884

DIPOLE MOMENT
-------------
                                X             Y             Z
Electronic contribution:    -10.65668     -11.20878     -15.58416
Nuclear contribution   :     11.13318      11.24271      15.86868
                        -----------------------------------------
Total Dipole Moment    :      0.47650       0.03393       0.28452
                        -----------------------------------------
Magnitude (a.u.)       :      0.55602
Magnitude (Debye)      :      1.41328

Rotational constants in cm-1:     0.019257     0.008707     0.007149
Rotational constants in MHz :   577.298472   261.025259   214.333562

                             ****ORCA TERMINATED NORMALLY****
TOTAL RUN TIME: 0 days 0 hours 0 minutes 28 seconds 983 msec
