                         Program Version 4.2.1 -  RELEASE  -
|  1> ! wB97X-D3 SP def2-SVP
|  2> %pal
|  3> nprocs 16
|  4> end
|  5>
|  6> * xyz 0 1
|  7> S 	 -14.8315 	 70.3953 	 49.8501
|  8> C 	 -15.3114 	 69.2742 	 48.5867
|  9> C 	 -15.7455 	 70.0116 	 47.4943
| 10> C 	 -15.5539 	 71.3601 	 47.6333
| 11> C 	 -15.1167 	 71.7791 	 48.8666
| 12> H 	 -15.9329 	 72.0513 	 46.8757
| 13> C 	 -16.0934 	 69.4179 	 46.1337
| 14> H 	 -16.7154 	 70.1171 	 45.537
| 15> H 	 -16.7702 	 68.5906 	 46.3314
| 16> C 	 -15.0026 	 68.797 	 45.2757
| 17> H 	 -14.2594 	 69.5903 	 45.2402
| 18> H 	 -14.6081 	 68.0034 	 45.8009
| 19> C 	 -15.4805 	 68.3071 	 43.8782
| 20> H 	 -16.3222 	 67.5275 	 44.004
| 21> H 	 -15.8479 	 69.1684 	 43.3966
| 22> H 	 -14.6148 	 67.9306 	 43.2906
| 23> S 	 -15.3446 	 73.3107 	 51.0822
| 24> C 	 -14.8319 	 74.9959 	 50.9634
| 25> C 	 -14.6162 	 75.424 	 49.6534
| 26> C 	 -14.646 	 74.3146 	 48.7823
| 27> C 	 -15.0054 	 73.1231 	 49.4215
| 28> H 	 -14.4082 	 76.4738 	 49.4618
| 29> C 	 -14.2518 	 74.4784 	 47.2887
| 30> H 	 -14.0555 	 73.5018 	 46.8403
| 31> H 	 -13.3842 	 75.1 	 47.2401
| 32> C 	 -15.3357 	 74.9721 	 46.3513
| 33> H 	 -15.6066 	 76.0415 	 46.6203
| 34> H 	 -16.2557 	 74.4186 	 46.4296
| 35> C 	 -14.8438 	 75.1713 	 44.8629
| 36> H 	 -14.7126 	 74.2425 	 44.3114
| 37> H 	 -13.8377 	 75.5653 	 44.8369
| 38> H 	 -15.5957 	 75.7046 	 44.3091
| 39> H 	 -15.2811 	 68.1323 	 48.6891
| 40> H 	 -14.766 	 75.69 	 51.7608
| 41> *
| 42>
| 43>                          ****END OF INPUT****

CARTESIAN COORDINATES (ANGSTROEM)
---------------------------------
  S    -14.831500   70.395300   49.850100
  C    -15.311400   69.274200   48.586700
  C    -15.745500   70.011600   47.494300
  C    -15.553900   71.360100   47.633300
  C    -15.116700   71.779100   48.866600
  H    -15.932900   72.051300   46.875700
  C    -16.093400   69.417900   46.133700
  H    -16.715400   70.117100   45.537000
  H    -16.770200   68.590600   46.331400
  C    -15.002600   68.797000   45.275700
  H    -14.259400   69.590300   45.240200
  H    -14.608100   68.003400   45.800900
  C    -15.480500   68.307100   43.878200
  H    -16.322200   67.527500   44.004000
  H    -15.847900   69.168400   43.396600
  H    -14.614800   67.930600   43.290600
  S    -15.344600   73.310700   51.082200
  C    -14.831900   74.995900   50.963400
  C    -14.616200   75.424000   49.653400
  C    -14.646000   74.314600   48.782300
  C    -15.005400   73.123100   49.421500
  H    -14.408200   76.473800   49.461800
  C    -14.251800   74.478400   47.288700
  H    -14.055500   73.501800   46.840300
  H    -13.384200   75.100000   47.240100
  C    -15.335700   74.972100   46.351300
  H    -15.606600   76.041500   46.620300
  H    -16.255700   74.418600   46.429600
  C    -14.843800   75.171300   44.862900
  H    -14.712600   74.242500   44.311400
  H    -13.837700   75.565300   44.836900
  H    -15.595700   75.704600   44.309100
  H    -15.281100   68.132300   48.689100
  H    -14.766000   75.690000   51.760800

 Total Charge           Charge          ....    0
 Multiplicity           Mult            ....    1
 Number of Electrons    NEL             ....  134
 Basis Dimension        Dim             ....  322

ORBITAL ENERGIES
----------------

  NO   OCC          E(Eh)            E(eV)
   0   2.0000     -88.972237     -2421.0576
   1   2.0000     -88.967969     -2420.9415
   2   2.0000     -10.327582      -281.0278
   3   2.0000     -10.326060      -280.9864
   4   2.0000     -10.320918      -280.8465
   5   2.0000     -10.315649      -280.7031
   6   2.0000     -10.304633      -280.4033
   7   2.0000     -10.296644      -280.1859
   8   2.0000     -10.296334      -280.1775
   9   2.0000     -10.291286      -280.0401
  10   2.0000     -10.290351      -280.0147
  11   2.0000     -10.288770      -279.9717
  12   2.0000     -10.287346      -279.9329
  13   2.0000     -10.286144      -279.9002
  14   2.0000     -10.279524      -279.7201
  15   2.0000     -10.278903      -279.7032
  16   2.0000      -8.087235      -220.0648
  17   2.0000      -8.083007      -219.9498
  18   2.0000      -6.045593      -164.5090
  19   2.0000      -6.041856      -164.4072
  20   2.0000      -6.041451      -164.3962
  21   2.0000      -6.037986      -164.3019
  22   2.0000      -6.037306      -164.2834
  23   2.0000      -6.033973      -164.1927
  24   2.0000      -1.015831       -27.6422
  25   2.0000      -0.990680       -26.9578
  26   2.0000      -0.913705       -24.8632
  27   2.0000      -0.907222       -24.6868
  28   2.0000      -0.872083       -23.7306
  29   2.0000      -0.852335       -23.1932
  30   2.0000      -0.848909       -23.1000
  31   2.0000      -0.813187       -22.1279
  32   2.0000      -0.783666       -21.3246
  33   2.0000      -0.771560       -20.9952
  34   2.0000      -0.704066       -19.1586
  35   2.0000      -0.702890       -19.1266
  36   2.0000      -0.693757       -18.8781
  37   2.0000      -0.667098       -18.1527
  38   2.0000      -0.636461       -17.3190
  39   2.0000      -0.626938       -17.0598
  40   2.0000      -0.596743       -16.2382
  41   2.0000      -0.572816       -15.5871
  42   2.0000      -0.568541       -15.4708
  43   2.0000      -0.561303       -15.2738
  44   2.0000      -0.529868       -14.4184
  45   2.0000      -0.523990       -14.2585
  46   2.0000      -0.517964       -14.0945
  47   2.0000      -0.507610       -13.8128
  48   2.0000      -0.498975       -13.5778
  49   2.0000      -0.497613       -13.5407
  50   2.0000      -0.490821       -13.3559
  51   2.0000      -0.482158       -13.1202
  52   2.0000      -0.472309       -12.8522
  53   2.0000      -0.467074       -12.7097
  54   2.0000      -0.464523       -12.6403
  55   2.0000      -0.456428       -12.4200
  56   2.0000      -0.449754       -12.2384
  57   2.0000      -0.442063       -12.0291
  58   2.0000      -0.436395       -11.8749
  59   2.0000      -0.424776       -11.5587
  60   2.0000      -0.417997       -11.3743
  61   2.0000      -0.417033       -11.3480
  62   2.0000      -0.406342       -11.0571
  63   2.0000      -0.353989        -9.6325
  64   2.0000      -0.337343        -9.1796
  65   2.0000      -0.336076        -9.1451
  66   2.0000      -0.283138        -7.7046
  67   0.0000       0.022158         0.6029
  68   0.0000       0.077728         2.1151
  69   0.0000       0.101852         2.7715
  70   0.0000       0.125668         3.4196
  71   0.0000       0.128576         3.4987

MULLIKEN ATOMIC CHARGES
-----------------------
   0 S :    0.105097
   1 C :   -0.167272
   2 C :   -0.054108
   3 C :   -0.003113
   4 C :   -0.116530
   5 H :    0.005584
   6 C :    0.020514
   7 H :    0.016767
   8 H :    0.010494
   9 C :   -0.022349
  10 H :    0.021408
  11 H :    0.005069
  12 C :   -0.058269
  13 H :    0.047353
  14 H :    0.023752
  15 H :    0.050599
  16 S :    0.124389
  17 C :   -0.086526
  18 C :   -0.036450
  19 C :   -0.041303
  20 C :   -0.123268
  21 H :    0.027329
  22 C :    0.087212
  23 H :    0.018913
  24 H :    0.021068
  25 C :   -0.107261
  26 H :    0.023982
  27 H :    0.035961
  28 C :   -0.035000
  29 H :    0.018761
  30 H :    0.028647
  31 H :    0.039699
  32 H :    0.081339
  33 H :    0.037512
Sum of atomic charges:   -0.0000000

LOEWDIN ATOMIC CHARGES
----------------------
   0 S :    0.421412
   1 C :   -0.209187
   2 C :   -0.069853
   3 C :   -0.078575
   4 C :   -0.195152
   5 H :    0.032957
   6 C :   -0.035712
   7 H :    0.026500
   8 H :    0.025421
   9 C :   -0.033907
  10 H :    0.022586
  11 H :    0.010208
  12 C :   -0.063145
  13 H :    0.036159
  14 H :    0.016811
  15 H :    0.034142
  16 S :    0.424993
  17 C :   -0.176954
  18 C :   -0.062644
  19 C :   -0.054808
  20 C :   -0.211176
  21 H :    0.037278
  22 C :   -0.029307
  23 H :    0.029408
  24 H :    0.026574
  25 C :   -0.041497
  26 H :    0.024238
  27 H :    0.019179
  28 C :   -0.064983
  29 H :    0.020461
  30 H :    0.025815
  31 H :    0.026839
  32 H :    0.047300
  33 H :    0.018622

  Mayer bond orders larger than 0.100000
B(  0-S ,  1-C ) :   1.1481 B(  0-S ,  4-C ) :   1.1738 B(  1-C ,  2-C ) :   1.5481
B(  1-C ,  4-C ) :   0.1101 B(  1-C , 32-H ) :   0.9641 B(  2-C ,  3-C ) :   1.3212
B(  2-C ,  6-C ) :   1.0322 B(  3-C ,  4-C ) :   1.5065 B(  3-C ,  5-H ) :   0.9893
B(  4-C , 20-C ) :   1.0532 B(  6-C ,  7-H ) :   0.9453 B(  6-C ,  8-H ) :   0.9307
B(  6-C ,  9-C ) :   1.0625 B(  9-C , 10-H ) :   0.9554 B(  9-C , 11-H ) :   0.9513
B(  9-C , 12-C ) :   1.0747 B( 12-C , 13-H ) :   0.9742 B( 12-C , 14-H ) :   0.9770
B( 12-C , 15-H ) :   0.9735 B( 16-S , 17-C ) :   1.1531 B( 16-S , 20-C ) :   1.1496
B( 17-C , 18-C ) :   1.6054 B( 17-C , 33-H ) :   0.9709 B( 18-C , 19-C ) :   1.2520
B( 18-C , 21-H ) :   0.9906 B( 19-C , 20-C ) :   1.5765 B( 19-C , 22-C ) :   1.0404
B( 22-C , 23-H ) :   0.9314 B( 22-C , 24-H ) :   0.9333 B( 22-C , 25-C ) :   1.0694
B( 25-C , 26-H ) :   0.9546 B( 25-C , 27-H ) :   0.9536 B( 25-C , 28-C ) :   1.0705
B( 28-C , 29-H ) :   0.9744 B( 28-C , 30-H ) :   0.9730 B( 28-C , 31-H ) :   0.9765

Dispersion correction           -0.013804649
FINAL SINGLE POINT ENERGY     -1339.873712615625

DIPOLE MOMENT
-------------
                                X             Y             Z
Electronic contribution:      0.71833       0.68011      33.45546
Nuclear contribution   :     -0.72328      -0.51386     -34.01984
                        -----------------------------------------
Total Dipole Moment    :     -0.00495       0.16624      -0.56438
                        -----------------------------------------
Magnitude (a.u.)       :      0.58838
Magnitude (Debye)      :      1.49553

Rotational constants in cm-1:     0.017738     0.009091     0.006216
Rotational constants in MHz :   531.781494   272.541481   186.353394

                             ****ORCA TERMINATED NORMALLY****
TOTAL RUN TIME: 0 days 0 hours 0 minutes 31 seconds 597 msec
