                         Program Version 4.2.1 -  RELEASE  -
|  1> ! wB97X-D3 SP def2-SVP
|  2> %pal
|  3> nprocs 16
|  4> end
|  5>
|  6> * xyz 0 1
|  7> S 	 11.268 	 -7.64367 	 63.6659
|  8> C 	 9.54747 	 -7.31545 	 64.0292
|  9> C 	 9.08246 	 -8.13912 	 65.0713
| 10> C 	 10.0701 	 -9.08592 	 65.4471
| 11> C 	 11.253 	 -9.0184 	 64.7401
| 12> H 	 10.0093 	 -9.87016 	 66.2085
| 13> C 	 7.73034 	 -8.01549 	 65.7715
| 14> H 	 6.99703 	 -8.72143 	 65.3234
| 15> H 	 7.17908 	 -7.07983 	 65.5669
| 16> C 	 7.60858 	 -8.42791 	 67.2163
| 17> H 	 7.97342 	 -9.47397 	 67.3235
| 18> H 	 8.28476 	 -7.75503 	 67.811
| 19> C 	 6.11142 	 -8.31855 	 67.5106
| 20> H 	 5.99355 	 -8.50653 	 68.5535
| 21> H 	 5.63254 	 -7.38173 	 67.2676
| 22> H 	 5.66409 	 -9.19801 	 67.1738
| 23> S 	 13.9396 	 -8.88503 	 64.7983
| 24> C 	 14.8295 	 -10.298 	 64.7333
| 25> C 	 14.084 	 -11.431 	 64.8006
| 26> C 	 12.686 	 -11.1968 	 64.886
| 27> C 	 12.4628 	 -9.8423 	 64.8284
| 28> H 	 14.621 	 -12.409 	 64.7613
| 29> C 	 11.6289 	 -12.2918 	 64.926
| 30> H 	 11.5201 	 -12.4419 	 63.8839
| 31> H 	 10.7227 	 -11.854 	 65.3416
| 32> C 	 12.0267 	 -13.575 	 65.7237
| 33> H 	 11.9088 	 -13.4657 	 66.7688
| 34> H 	 13.0731 	 -13.8925 	 65.6006
| 35> C 	 11.256 	 -14.816 	 65.301
| 36> H 	 10.214 	 -14.6583 	 65.5118
| 37> H 	 11.6119 	 -15.6129 	 65.926
| 38> H 	 11.556 	 -14.9546 	 64.261
| 39> H 	 8.9571 	 -6.51322 	 63.603
| 40> H 	 15.8892 	 -10.4034 	 64.6691
| 41> *
| 42>
| 43>                          ****END OF INPUT****

CARTESIAN COORDINATES (ANGSTROEM)
---------------------------------
  S     11.268000   -7.643670   63.665900
  C      9.547470   -7.315450   64.029200
  C      9.082460   -8.139120   65.071300
  C     10.070100   -9.085920   65.447100
  C     11.253000   -9.018400   64.740100
  H     10.009300   -9.870160   66.208500
  C      7.730340   -8.015490   65.771500
  H      6.997030   -8.721430   65.323400
  H      7.179080   -7.079830   65.566900
  C      7.608580   -8.427910   67.216300
  H      7.973420   -9.473970   67.323500
  H      8.284760   -7.755030   67.811000
  C      6.111420   -8.318550   67.510600
  H      5.993550   -8.506530   68.553500
  H      5.632540   -7.381730   67.267600
  H      5.664090   -9.198010   67.173800
  S     13.939600   -8.885030   64.798300
  C     14.829500  -10.298000   64.733300
  C     14.084000  -11.431000   64.800600
  C     12.686000  -11.196800   64.886000
  C     12.462800   -9.842300   64.828400
  H     14.621000  -12.409000   64.761300
  C     11.628900  -12.291800   64.926000
  H     11.520100  -12.441900   63.883900
  H     10.722700  -11.854000   65.341600
  C     12.026700  -13.575000   65.723700
  H     11.908800  -13.465700   66.768800
  H     13.073100  -13.892500   65.600600
  C     11.256000  -14.816000   65.301000
  H     10.214000  -14.658300   65.511800
  H     11.611900  -15.612900   65.926000
  H     11.556000  -14.954600   64.261000
  H      8.957100   -6.513220   63.603000
  H     15.889200  -10.403400   64.669100

 Total Charge           Charge          ....    0
 Multiplicity           Mult            ....    1
 Number of Electrons    NEL             ....  134
 Basis Dimension        Dim             ....  322

ORBITAL ENERGIES
----------------

  NO   OCC          E(Eh)            E(eV)
   0   2.0000     -88.964675     -2420.8519
   1   2.0000     -88.963727     -2420.8261
   2   2.0000     -10.326209      -280.9904
   3   2.0000     -10.321363      -280.8586
   4   2.0000     -10.314689      -280.6769
   5   2.0000     -10.304340      -280.3953
   6   2.0000     -10.303933      -280.3843
   7   2.0000     -10.301797      -280.3262
   8   2.0000     -10.294116      -280.1171
   9   2.0000     -10.292143      -280.0634
  10   2.0000     -10.291496      -280.0458
  11   2.0000     -10.291339      -280.0416
  12   2.0000     -10.288257      -279.9577
  13   2.0000     -10.285325      -279.8779
  14   2.0000     -10.274945      -279.5955
  15   2.0000     -10.273311      -279.5510
  16   2.0000      -8.080060      -219.8696
  17   2.0000      -8.078757      -219.8342
  18   2.0000      -6.038378      -164.3126
  19   2.0000      -6.037287      -164.2829
  20   2.0000      -6.034498      -164.2070
  21   2.0000      -6.033384      -164.1767
  22   2.0000      -6.030761      -164.1053
  23   2.0000      -6.029498      -164.0710
  24   2.0000      -1.012230       -27.5442
  25   2.0000      -0.982926       -26.7468
  26   2.0000      -0.918971       -25.0065
  27   2.0000      -0.913460       -24.8565
  28   2.0000      -0.869653       -23.6645
  29   2.0000      -0.862423       -23.4677
  30   2.0000      -0.841875       -22.9086
  31   2.0000      -0.812851       -22.1188
  32   2.0000      -0.787046       -21.4166
  33   2.0000      -0.773621       -21.0513
  34   2.0000      -0.707839       -19.2613
  35   2.0000      -0.700940       -19.0736
  36   2.0000      -0.688939       -18.7470
  37   2.0000      -0.654572       -17.8118
  38   2.0000      -0.641569       -17.4580
  39   2.0000      -0.618578       -16.8324
  40   2.0000      -0.598753       -16.2929
  41   2.0000      -0.575509       -15.6604
  42   2.0000      -0.573736       -15.6122
  43   2.0000      -0.564726       -15.3670
  44   2.0000      -0.533894       -14.5280
  45   2.0000      -0.528515       -14.3816
  46   2.0000      -0.515291       -14.0218
  47   2.0000      -0.508652       -13.8411
  48   2.0000      -0.503093       -13.6898
  49   2.0000      -0.495979       -13.4963
  50   2.0000      -0.489721       -13.3260
  51   2.0000      -0.482434       -13.1277
  52   2.0000      -0.471342       -12.8259
  53   2.0000      -0.466150       -12.6846
  54   2.0000      -0.459295       -12.4981
  55   2.0000      -0.452625       -12.3165
  56   2.0000      -0.449014       -12.2183
  57   2.0000      -0.439352       -11.9554
  58   2.0000      -0.436168       -11.8687
  59   2.0000      -0.424753       -11.5581
  60   2.0000      -0.420741       -11.4490
  61   2.0000      -0.420266       -11.4360
  62   2.0000      -0.412198       -11.2165
  63   2.0000      -0.346442        -9.4272
  64   2.0000      -0.332505        -9.0479
  65   2.0000      -0.329104        -8.9554
  66   2.0000      -0.283795        -7.7224
  67   0.0000       0.032350         0.8803
  68   0.0000       0.072658         1.9771
  69   0.0000       0.110473         3.0061
  70   0.0000       0.127723         3.4755
  71   0.0000       0.134321         3.6551

MULLIKEN ATOMIC CHARGES
-----------------------
   0 S :    0.101815
   1 C :   -0.131974
   2 C :   -0.015051
   3 C :    0.000652
   4 C :   -0.147387
   5 H :    0.014540
   6 C :    0.019405
   7 H :    0.025155
   8 H :    0.017629
   9 C :   -0.116211
  10 H :    0.038228
  11 H :    0.043732
  12 C :    0.005644
  13 H :    0.011228
  14 H :    0.045076
  15 H :    0.018115
  16 S :    0.117782
  17 C :   -0.055376
  18 C :   -0.087047
  19 C :   -0.038264
  20 C :   -0.179927
  21 H :    0.026898
  22 C :    0.143005
  23 H :    0.035592
  24 H :    0.014119
  25 C :   -0.105936
  26 H :    0.023251
  27 H :    0.026885
  28 C :   -0.030611
  29 H :    0.032383
  30 H :    0.027788
  31 H :    0.037824
  32 H :    0.044360
  33 H :    0.036679
Sum of atomic charges:   -0.0000000

LOEWDIN ATOMIC CHARGES
----------------------
   0 S :    0.391340
   1 C :   -0.192866
   2 C :   -0.057082
   3 C :   -0.077022
   4 C :   -0.190552
   5 H :    0.029375
   6 C :   -0.046993
   7 H :    0.035576
   8 H :    0.029262
   9 C :   -0.040625
  10 H :    0.027406
  11 H :    0.025393
  12 C :   -0.057039
  13 H :    0.025799
  14 H :    0.028830
  15 H :    0.023347
  16 S :    0.429688
  17 C :   -0.205827
  18 C :   -0.083045
  19 C :   -0.052813
  20 C :   -0.198160
  21 H :    0.036153
  22 C :   -0.019810
  23 H :    0.035817
  24 H :    0.030419
  25 C :   -0.038214
  26 H :    0.018081
  27 H :    0.023362
  28 C :   -0.055481
  29 H :    0.021241
  30 H :    0.024638
  31 H :    0.027463
  32 H :    0.026552
  33 H :    0.025786

  Mayer bond orders larger than 0.100000
B(  0-S ,  1-C ) :   1.1254 B(  0-S ,  4-C ) :   1.1533 B(  1-C ,  2-C ) :   1.6046
B(  1-C ,  4-C ) :   0.1047 B(  1-C , 32-H ) :   0.9715 B(  2-C ,  3-C ) :   1.2367
B(  2-C ,  6-C ) :   1.0044 B(  3-C ,  4-C ) :   1.5897 B(  3-C ,  5-H ) :   0.9816
B(  4-C , 20-C ) :   1.0279 B(  6-C ,  7-H ) :   0.9322 B(  6-C ,  8-H ) :   0.9490
B(  6-C ,  9-C ) :   1.0650 B(  9-C , 10-H ) :   0.9427 B(  9-C , 11-H ) :   0.9599
B(  9-C , 12-C ) :   1.0856 B( 12-C , 13-H ) :   0.9631 B( 12-C , 14-H ) :   0.9751
B( 12-C , 15-H ) :   0.9659 B( 16-S , 17-C ) :   1.1567 B( 16-S , 20-C ) :   1.1453
B( 17-C , 18-C ) :   1.6393 B( 17-C , 33-H ) :   0.9624 B( 18-C , 19-C ) :   1.2274
B( 18-C , 21-H ) :   0.9812 B( 19-C , 20-C ) :   1.6174 B( 19-C , 22-C ) :   1.0166
B( 22-C , 23-H ) :   0.9319 B( 22-C , 24-H ) :   0.9295 B( 22-C , 25-C ) :   1.0507
B( 25-C , 26-H ) :   0.9573 B( 25-C , 27-H ) :   0.9625 B( 25-C , 28-C ) :   1.0845
B( 28-C , 29-H ) :   0.9758 B( 28-C , 30-H ) :   0.9733 B( 28-C , 31-H ) :   0.9810

Dispersion correction           -0.013065890
FINAL SINGLE POINT ENERGY     -1339.866001523390

DIPOLE MOMENT
-------------
                                X             Y             Z
Electronic contribution:     21.27209      17.94323     -12.52655
Nuclear contribution   :    -21.65574     -18.50294      12.86938
                        -----------------------------------------
Total Dipole Moment    :     -0.38365      -0.55971       0.34283
                        -----------------------------------------
Magnitude (a.u.)       :      0.76026
Magnitude (Debye)      :      1.93242

Rotational constants in cm-1:     0.016321     0.008573     0.006120
Rotational constants in MHz :   489.295059   257.013201   183.483355

                             ****ORCA TERMINATED NORMALLY****
TOTAL RUN TIME: 0 days 0 hours 0 minutes 33 seconds 611 msec
