                         Program Version 4.2.1 -  RELEASE  -
|  1> ! wB97X-D3 SP def2-SVP
|  2> %pal
|  3> nprocs 16
|  4> end
|  5>
|  6> * xyz 0 1
|  7> S 	 -56.4433 	 27.5061 	 97.7867
|  8> C 	 -56.6242 	 28.0402 	 99.4236
|  9> C 	 -57.11 	 26.9703 	 100.215
| 10> C 	 -57.3415 	 25.7371 	 99.4842
| 11> C 	 -57.1551 	 25.9363 	 98.1217
| 12> H 	 -57.5785 	 24.8311 	 99.9206
| 13> C 	 -57.1268 	 27.0002 	 101.741
| 14> H 	 -57.261 	 28.0286 	 102.071
| 15> H 	 -56.1901 	 26.5907 	 102.027
| 16> C 	 -58.2357 	 26.2889 	 102.391
| 17> H 	 -59.2646 	 26.6021 	 102.028
| 18> H 	 -58.1306 	 25.2661 	 102.123
| 19> C 	 -58.2819 	 26.4203 	 103.892
| 20> H 	 -59.1022 	 25.7538 	 104.234
| 21> H 	 -57.3028 	 26.0953 	 104.268
| 22> H 	 -58.4079 	 27.4727 	 104.278
| 23> S 	 -58.963 	 24.146 	 97.1517
| 24> C 	 -58.5649 	 23.166 	 95.8085
| 25> C 	 -57.276 	 23.3523 	 95.3759
| 26> C 	 -56.5823 	 24.3249 	 96.0987
| 27> C 	 -57.3802 	 24.9267 	 97.0865
| 28> H 	 -56.808 	 22.7817 	 94.5831
| 29> C 	 -55.155 	 24.6954 	 95.7599
| 30> H 	 -54.9255 	 25.6915 	 96.0925
| 31> H 	 -55.1979 	 24.668 	 94.6427
| 32> C 	 -54.0885 	 23.7431 	 96.2127
| 33> H 	 -54.0683 	 22.8846 	 95.5593
| 34> H 	 -54.2564 	 23.4389 	 97.2162
| 35> C 	 -52.6726 	 24.3303 	 96.2998
| 36> H 	 -52.3236 	 24.5438 	 95.2544
| 37> H 	 -51.9588 	 23.5679 	 96.6848
| 38> H 	 -52.6672 	 25.2852 	 96.858
| 39> H 	 -56.0953 	 28.8703 	 99.7669
| 40> H 	 -59.1856 	 22.3004 	 95.5923
| 41> *
| 42>
| 43>                          ****END OF INPUT****

CARTESIAN COORDINATES (ANGSTROEM)
---------------------------------
  S    -56.443300   27.506100   97.786700
  C    -56.624200   28.040200   99.423600
  C    -57.110000   26.970300  100.215000
  C    -57.341500   25.737100   99.484200
  C    -57.155100   25.936300   98.121700
  H    -57.578500   24.831100   99.920600
  C    -57.126800   27.000200  101.741000
  H    -57.261000   28.028600  102.071000
  H    -56.190100   26.590700  102.027000
  C    -58.235700   26.288900  102.391000
  H    -59.264600   26.602100  102.028000
  H    -58.130600   25.266100  102.123000
  C    -58.281900   26.420300  103.892000
  H    -59.102200   25.753800  104.234000
  H    -57.302800   26.095300  104.268000
  H    -58.407900   27.472700  104.278000
  S    -58.963000   24.146000   97.151700
  C    -58.564900   23.166000   95.808500
  C    -57.276000   23.352300   95.375900
  C    -56.582300   24.324900   96.098700
  C    -57.380200   24.926700   97.086500
  H    -56.808000   22.781700   94.583100
  C    -55.155000   24.695400   95.759900
  H    -54.925500   25.691500   96.092500
  H    -55.197900   24.668000   94.642700
  C    -54.088500   23.743100   96.212700
  H    -54.068300   22.884600   95.559300
  H    -54.256400   23.438900   97.216200
  C    -52.672600   24.330300   96.299800
  H    -52.323600   24.543800   95.254400
  H    -51.958800   23.567900   96.684800
  H    -52.667200   25.285200   96.858000
  H    -56.095300   28.870300   99.766900
  H    -59.185600   22.300400   95.592300

 Total Charge           Charge          ....    0
 Multiplicity           Mult            ....    1
 Number of Electrons    NEL             ....  134
 Basis Dimension        Dim             ....  322

ORBITAL ENERGIES
----------------

  NO   OCC          E(Eh)            E(eV)
   0   2.0000     -88.966284     -2420.8957
   1   2.0000     -88.965729     -2420.8806
   2   2.0000     -10.332684      -281.1666
   3   2.0000     -10.326613      -281.0014
   4   2.0000     -10.313397      -280.6418
   5   2.0000     -10.310347      -280.5588
   6   2.0000     -10.306576      -280.4562
   7   2.0000     -10.301753      -280.3250
   8   2.0000     -10.293412      -280.0980
   9   2.0000     -10.290476      -280.0181
  10   2.0000     -10.289339      -279.9872
  11   2.0000     -10.283703      -279.8338
  12   2.0000     -10.283285      -279.8224
  13   2.0000     -10.283084      -279.8169
  14   2.0000     -10.279673      -279.7241
  15   2.0000     -10.277780      -279.6726
  16   2.0000      -8.080984      -219.8948
  17   2.0000      -8.080872      -219.8917
  18   2.0000      -6.039386      -164.3401
  19   2.0000      -6.039215      -164.3354
  20   2.0000      -6.035425      -164.2323
  21   2.0000      -6.035293      -164.2287
  22   2.0000      -6.031998      -164.1390
  23   2.0000      -6.031775      -164.1330
  24   2.0000      -1.007414       -27.4131
  25   2.0000      -0.985330       -26.8122
  26   2.0000      -0.921922       -25.0868
  27   2.0000      -0.914850       -24.8943
  28   2.0000      -0.870868       -23.6975
  29   2.0000      -0.855864       -23.2892
  30   2.0000      -0.848271       -23.0826
  31   2.0000      -0.812959       -22.1217
  32   2.0000      -0.782648       -21.2969
  33   2.0000      -0.768998       -20.9255
  34   2.0000      -0.705783       -19.2053
  35   2.0000      -0.695065       -18.9137
  36   2.0000      -0.684190       -18.6177
  37   2.0000      -0.667668       -18.1682
  38   2.0000      -0.646393       -17.5892
  39   2.0000      -0.620311       -16.8795
  40   2.0000      -0.602627       -16.3983
  41   2.0000      -0.580180       -15.7875
  42   2.0000      -0.572713       -15.5843
  43   2.0000      -0.563915       -15.3449
  44   2.0000      -0.530764       -14.4428
  45   2.0000      -0.524659       -14.2767
  46   2.0000      -0.520273       -14.1574
  47   2.0000      -0.515445       -14.0260
  48   2.0000      -0.503478       -13.7003
  49   2.0000      -0.498951       -13.5772
  50   2.0000      -0.487310       -13.2604
  51   2.0000      -0.481626       -13.1057
  52   2.0000      -0.473852       -12.8942
  53   2.0000      -0.472367       -12.8538
  54   2.0000      -0.460484       -12.5304
  55   2.0000      -0.451146       -12.2763
  56   2.0000      -0.448801       -12.2125
  57   2.0000      -0.434493       -11.8231
  58   2.0000      -0.431227       -11.7343
  59   2.0000      -0.427861       -11.6427
  60   2.0000      -0.420578       -11.4445
  61   2.0000      -0.409067       -11.1313
  62   2.0000      -0.407298       -11.0831
  63   2.0000      -0.343218        -9.3394
  64   2.0000      -0.335452        -9.1281
  65   2.0000      -0.327186        -8.9032
  66   2.0000      -0.291488        -7.9318
  67   0.0000       0.026204         0.7130
  68   0.0000       0.071926         1.9572
  69   0.0000       0.104722         2.8496
  70   0.0000       0.118442         3.2230
  71   0.0000       0.133396         3.6299

MULLIKEN ATOMIC CHARGES
-----------------------
   0 S :    0.105368
   1 C :   -0.096554
   2 C :   -0.101542
   3 C :    0.036633
   4 C :   -0.132879
   5 H :   -0.006399
   6 C :    0.095829
   7 H :    0.015090
   8 H :    0.032200
   9 C :   -0.114620
  10 H :    0.035343
  11 H :    0.016200
  12 C :   -0.043855
  13 H :    0.046348
  14 H :    0.019632
  15 H :    0.040407
  16 S :    0.111279
  17 C :   -0.087498
  18 C :   -0.036826
  19 C :   -0.026984
  20 C :   -0.181112
  21 H :    0.014931
  22 C :    0.086576
  23 H :    0.001493
  24 H :    0.031706
  25 C :   -0.043568
  26 H :    0.021093
  27 H :    0.023772
  28 C :   -0.083025
  29 H :    0.025604
  30 H :    0.045725
  31 H :    0.045712
  32 H :    0.038921
  33 H :    0.065002
Sum of atomic charges:   -0.0000000

LOEWDIN ATOMIC CHARGES
----------------------
   0 S :    0.416865
   1 C :   -0.206609
   2 C :   -0.046945
   3 C :   -0.059208
   4 C :   -0.189246
   5 H :    0.017994
   6 C :   -0.032489
   7 H :    0.029929
   8 H :    0.030347
   9 C :   -0.051826
  10 H :    0.030972
  11 H :    0.014971
  12 C :   -0.065447
  13 H :    0.033755
  14 H :    0.021483
  15 H :    0.029110
  16 S :    0.428011
  17 C :   -0.197490
  18 C :   -0.073408
  19 C :   -0.053616
  20 C :   -0.198078
  21 H :    0.031968
  22 C :   -0.030203
  23 H :    0.017200
  24 H :    0.038662
  25 C :   -0.040590
  26 H :    0.021345
  27 H :    0.021313
  28 C :   -0.068210
  29 H :    0.023773
  30 H :    0.031387
  31 H :    0.027876
  32 H :    0.016789
  33 H :    0.029613

  Mayer bond orders larger than 0.100000
B(  0-S ,  1-C ) :   1.1394 B(  0-S ,  4-C ) :   1.1677 B(  1-C ,  2-C ) :   1.5907
B(  1-C , 32-H ) :   0.9776 B(  2-C ,  3-C ) :   1.2459 B(  2-C ,  6-C ) :   1.0255
B(  3-C ,  4-C ) :   1.5427 B(  3-C ,  5-H ) :   1.0038 B(  4-C , 20-C ) :   1.0344
B(  6-C ,  7-H ) :   0.9424 B(  6-C ,  8-H ) :   0.9307 B(  6-C ,  9-C ) :   1.0781
B(  9-C , 10-H ) :   0.9551 B(  9-C , 11-H ) :   0.9442 B(  9-C , 12-C ) :   1.0954
B( 12-C , 13-H ) :   0.9721 B( 12-C , 14-H ) :   0.9697 B( 12-C , 15-H ) :   0.9733
B( 16-S , 17-C ) :   1.1815 B( 16-S , 20-C ) :   1.1563 B( 17-C , 18-C ) :   1.5623
B( 17-C , 20-C ) :   0.1019 B( 17-C , 33-H ) :   0.9633 B( 18-C , 19-C ) :   1.2918
B( 18-C , 21-H ) :   0.9908 B( 19-C , 20-C ) :   1.5484 B( 19-C , 22-C ) :   1.0369
B( 22-C , 23-H ) :   0.9334 B( 22-C , 24-H ) :   0.9304 B( 22-C , 25-C ) :   1.0685
B( 25-C , 26-H ) :   0.9493 B( 25-C , 27-H ) :   0.9567 B( 25-C , 28-C ) :   1.0930
B( 28-C , 29-H ) :   0.9745 B( 28-C , 30-H ) :   0.9742 B( 28-C , 31-H ) :   0.9740

Dispersion correction           -0.013582777
FINAL SINGLE POINT ENERGY     -1339.880160984284

DIPOLE MOMENT
-------------
                                X             Y             Z
Electronic contribution:    -12.40965       3.13065     -13.95915
Nuclear contribution   :     12.81125      -3.52123      14.25927
                        -----------------------------------------
Total Dipole Moment    :      0.40160      -0.39058       0.30012
                        -----------------------------------------
Magnitude (a.u.)       :      0.63553
Magnitude (Debye)      :      1.61540

Rotational constants in cm-1:     0.018801     0.007876     0.006611
Rotational constants in MHz :   563.651572   236.131245   198.191019

                             ****ORCA TERMINATED NORMALLY****
TOTAL RUN TIME: 0 days 0 hours 0 minutes 28 seconds 120 msec
