                         Program Version 4.2.1 -  RELEASE  -
|  1> ! wB97X-D3 SP def2-SVP
|  2> %pal
|  3> nprocs 16
|  4> end
|  5>
|  6> * xyz 0 1
|  7> S 	 -48.7688 	 9.59198 	 80.89
|  8> C 	 -47.9117 	 9.86271 	 82.3528
|  9> C 	 -48.3291 	 10.9792 	 83.0563
| 10> C 	 -49.2969 	 11.6914 	 82.3172
| 11> C 	 -49.6961 	 11.0788 	 81.1463
| 12> H 	 -49.8686 	 12.5268 	 82.7034
| 13> C 	 -47.849 	 11.3566 	 84.437
| 14> H 	 -47.7365 	 12.3795 	 84.4913
| 15> H 	 -46.9066 	 10.8195 	 84.7745
| 16> C 	 -48.8182 	 11.0078 	 85.6527
| 17> H 	 -48.492 	 11.676 	 86.482
| 18> H 	 -49.8218 	 11.2941 	 85.4186
| 19> C 	 -48.9638 	 9.51635 	 86.0967
| 20> H 	 -47.9777 	 9.11813 	 86.2389
| 21> H 	 -49.5722 	 9.40919 	 87.0657
| 22> H 	 -49.3818 	 8.9168 	 85.2906
| 23> S 	 -50.6011 	 11.7984 	 78.5818
| 24> C 	 -52.2707 	 11.8313 	 78.2739
| 25> C 	 -53.0714 	 11.4247 	 79.3317
| 26> C 	 -52.2285 	 11.2943 	 80.4859
| 27> C 	 -50.8337 	 11.3742 	 80.2703
| 28> H 	 -54.1065 	 11.3206 	 79.2431
| 29> C 	 -52.8282 	 10.9311 	 81.8412
| 30> H 	 -53.7669 	 11.4019 	 81.9387
| 31> H 	 -52.146 	 11.2773 	 82.5895
| 32> C 	 -53.0684 	 9.40892 	 82.0128
| 33> H 	 -53.6419 	 9.17092 	 82.9549
| 34> H 	 -52.0366 	 8.9951 	 82.086
| 35> C 	 -53.8116 	 8.52146 	 80.9279
| 36> H 	 -53.7385 	 7.5387 	 81.2412
| 37> H 	 -53.308 	 8.56342 	 79.8937
| 38> H 	 -54.8512 	 8.88878 	 80.8453
| 39> H 	 -47.0488 	 9.24585 	 82.6971
| 40> H 	 -52.7791 	 12.2076 	 77.3388
| 41> *
| 42>
| 43>                          ****END OF INPUT****

CARTESIAN COORDINATES (ANGSTROEM)
---------------------------------
  S    -48.768800    9.591980   80.890000
  C    -47.911700    9.862710   82.352800
  C    -48.329100   10.979200   83.056300
  C    -49.296900   11.691400   82.317200
  C    -49.696100   11.078800   81.146300
  H    -49.868600   12.526800   82.703400
  C    -47.849000   11.356600   84.437000
  H    -47.736500   12.379500   84.491300
  H    -46.906600   10.819500   84.774500
  C    -48.818200   11.007800   85.652700
  H    -48.492000   11.676000   86.482000
  H    -49.821800   11.294100   85.418600
  C    -48.963800    9.516350   86.096700
  H    -47.977700    9.118130   86.238900
  H    -49.572200    9.409190   87.065700
  H    -49.381800    8.916800   85.290600
  S    -50.601100   11.798400   78.581800
  C    -52.270700   11.831300   78.273900
  C    -53.071400   11.424700   79.331700
  C    -52.228500   11.294300   80.485900
  C    -50.833700   11.374200   80.270300
  H    -54.106500   11.320600   79.243100
  C    -52.828200   10.931100   81.841200
  H    -53.766900   11.401900   81.938700
  H    -52.146000   11.277300   82.589500
  C    -53.068400    9.408920   82.012800
  H    -53.641900    9.170920   82.954900
  H    -52.036600    8.995100   82.086000
  C    -53.811600    8.521460   80.927900
  H    -53.738500    7.538700   81.241200
  H    -53.308000    8.563420   79.893700
  H    -54.851200    8.888780   80.845300
  H    -47.048800    9.245850   82.697100
  H    -52.779100   12.207600   77.338800

 Total Charge           Charge          ....    0
 Multiplicity           Mult            ....    1
 Number of Electrons    NEL             ....  134
 Basis Dimension        Dim             ....  322

ORBITAL ENERGIES
----------------

  NO   OCC          E(Eh)            E(eV)
   0   2.0000     -88.969094     -2420.9721
   1   2.0000     -88.966884     -2420.9120
   2   2.0000     -10.332695      -281.1669
   3   2.0000     -10.326751      -281.0052
   4   2.0000     -10.319809      -280.8163
   5   2.0000     -10.315495      -280.6989
   6   2.0000     -10.306959      -280.4666
   7   2.0000     -10.300746      -280.2975
   8   2.0000     -10.297013      -280.1960
   9   2.0000     -10.296013      -280.1688
  10   2.0000     -10.291777      -280.0535
  11   2.0000     -10.291214      -280.0382
  12   2.0000     -10.289923      -280.0030
  13   2.0000     -10.283430      -279.8263
  14   2.0000     -10.282966      -279.8137
  15   2.0000     -10.279232      -279.7121
  16   2.0000      -8.083921      -219.9747
  17   2.0000      -8.082274      -219.9299
  18   2.0000      -6.042248      -164.4179
  19   2.0000      -6.040668      -164.3749
  20   2.0000      -6.038442      -164.3144
  21   2.0000      -6.036549      -164.2628
  22   2.0000      -6.034838      -164.2163
  23   2.0000      -6.033256      -164.1732
  24   2.0000      -1.008204       -27.4346
  25   2.0000      -0.988928       -26.9101
  26   2.0000      -0.905227       -24.6325
  27   2.0000      -0.900706       -24.5094
  28   2.0000      -0.866995       -23.5921
  29   2.0000      -0.850404       -23.1407
  30   2.0000      -0.841419       -22.8962
  31   2.0000      -0.815117       -22.1805
  32   2.0000      -0.787218       -21.4213
  33   2.0000      -0.772004       -21.0073
  34   2.0000      -0.705660       -19.2020
  35   2.0000      -0.692018       -18.8308
  36   2.0000      -0.679940       -18.5021
  37   2.0000      -0.661275       -17.9942
  38   2.0000      -0.642099       -17.4724
  39   2.0000      -0.624248       -16.9866
  40   2.0000      -0.587964       -15.9993
  41   2.0000      -0.575561       -15.6618
  42   2.0000      -0.556115       -15.1327
  43   2.0000      -0.547414       -14.8959
  44   2.0000      -0.541347       -14.7308
  45   2.0000      -0.532557       -14.4916
  46   2.0000      -0.519099       -14.1254
  47   2.0000      -0.511732       -13.9249
  48   2.0000      -0.498992       -13.5783
  49   2.0000      -0.488810       -13.3012
  50   2.0000      -0.486858       -13.2481
  51   2.0000      -0.477351       -12.9894
  52   2.0000      -0.474304       -12.9065
  53   2.0000      -0.466145       -12.6844
  54   2.0000      -0.463271       -12.6062
  55   2.0000      -0.448131       -12.1943
  56   2.0000      -0.443316       -12.0632
  57   2.0000      -0.440788       -11.9944
  58   2.0000      -0.432939       -11.7809
  59   2.0000      -0.423619       -11.5272
  60   2.0000      -0.418852       -11.3975
  61   2.0000      -0.411492       -11.1973
  62   2.0000      -0.406442       -11.0598
  63   2.0000      -0.341313        -9.2876
  64   2.0000      -0.331017        -9.0074
  65   2.0000      -0.329260        -8.9596
  66   2.0000      -0.298128        -8.1125
  67   0.0000       0.037867         1.0304
  68   0.0000       0.058112         1.5813
  69   0.0000       0.116631         3.1737
  70   0.0000       0.120227         3.2715
  71   0.0000       0.126040         3.4297

MULLIKEN ATOMIC CHARGES
-----------------------
   0 S :    0.126390
   1 C :   -0.132050
   2 C :   -0.095359
   3 C :    0.059183
   4 C :   -0.174698
   5 H :    0.015949
   6 C :    0.090608
   7 H :    0.011443
   8 H :    0.031735
   9 C :   -0.102464
  10 H :    0.035964
  11 H :    0.017588
  12 C :   -0.060721
  13 H :    0.015781
  14 H :    0.055234
  15 H :    0.041775
  16 S :    0.125770
  17 C :   -0.105907
  18 C :   -0.019231
  19 C :   -0.071174
  20 C :   -0.173899
  21 H :    0.002908
  22 C :    0.158762
  23 H :    0.006080
  24 H :    0.012031
  25 C :   -0.133503
  26 H :    0.038882
  27 H :    0.032766
  28 C :   -0.061071
  29 H :    0.030348
  30 H :    0.050656
  31 H :    0.034363
  32 H :    0.060627
  33 H :    0.075235
Sum of atomic charges:    0.0000000

LOEWDIN ATOMIC CHARGES
----------------------
   0 S :    0.417762
   1 C :   -0.209252
   2 C :   -0.073208
   3 C :   -0.055670
   4 C :   -0.191208
   5 H :    0.032938
   6 C :   -0.023922
   7 H :    0.020988
   8 H :    0.037787
   9 C :   -0.040466
  10 H :    0.026901
  11 H :    0.014206
  12 C :   -0.071073
  13 H :    0.015348
  14 H :    0.039669
  15 H :    0.027232
  16 S :    0.430951
  17 C :   -0.202574
  18 C :   -0.070750
  19 C :   -0.039088
  20 C :   -0.224236
  21 H :    0.024833
  22 C :   -0.027840
  23 H :    0.020460
  24 H :    0.027840
  25 C :   -0.044144
  26 H :    0.027433
  27 H :    0.024532
  28 C :   -0.068545
  29 H :    0.017138
  30 H :    0.034366
  31 H :    0.022900
  32 H :    0.035900
  33 H :    0.042790

  Mayer bond orders larger than 0.100000
B(  0-S ,  1-C ) :   1.1567 B(  0-S ,  4-C ) :   1.1541 B(  1-C ,  2-C ) :   1.5997
B(  1-C , 32-H ) :   0.9580 B(  2-C ,  3-C ) :   1.2542 B(  2-C ,  6-C ) :   1.0380
B(  3-C ,  4-C ) :   1.5799 B(  3-C ,  5-H ) :   0.9915 B(  4-C , 20-C ) :   1.0270
B(  6-C ,  7-H ) :   0.9317 B(  6-C ,  8-H ) :   0.9463 B(  6-C ,  9-C ) :   1.0608
B(  9-C , 10-H ) :   0.9597 B(  9-C , 11-H ) :   0.9594 B(  9-C , 12-C ) :   1.0668
B( 12-C , 13-H ) :   0.9763 B( 12-C , 14-H ) :   0.9737 B( 12-C , 15-H ) :   0.9758
B( 16-S , 17-C ) :   1.1977 B( 16-S , 20-C ) :   1.1342 B( 17-C , 18-C ) :   1.5711
B( 17-C , 33-H ) :   0.9553 B( 18-C , 19-C ) :   1.2598 B( 18-C , 21-H ) :   1.0034
B( 19-C , 20-C ) :   1.5645 B( 19-C , 22-C ) :   1.0483 B( 22-C , 23-H ) :   0.9272
B( 22-C , 24-H ) :   0.9297 B( 22-C , 25-C ) :   1.0625 B( 25-C , 26-H ) :   0.9586
B( 25-C , 27-H ) :   0.9566 B( 25-C , 28-C ) :   1.0796 B( 28-C , 29-H ) :   0.9744
B( 28-C , 30-H ) :   0.9692 B( 28-C , 31-H ) :   0.9763

Dispersion correction           -0.015470904
FINAL SINGLE POINT ENERGY     -1339.873922215588

DIPOLE MOMENT
-------------
                                X             Y             Z
Electronic contribution:      8.76237       7.22210     -24.27017
Nuclear contribution   :     -9.08407      -7.19825      24.77653
                        -----------------------------------------
Total Dipole Moment    :     -0.32170       0.02385       0.50636
                        -----------------------------------------
Magnitude (a.u.)       :      0.60039
Magnitude (Debye)      :      1.52606

Rotational constants in cm-1:     0.020759     0.008777     0.007323
Rotational constants in MHz :   622.332158   263.120317   219.533152

                             ****ORCA TERMINATED NORMALLY****
TOTAL RUN TIME: 0 days 0 hours 0 minutes 31 seconds 264 msec
