                         Program Version 4.2.1 -  RELEASE  -
|  1> ! wB97X-D3 SP def2-SVP
|  2> %pal
|  3> nprocs 16
|  4> end
|  5>
|  6> * xyz 0 1
|  7> S 	 -15.3509 	 43.5167 	 31.5144
|  8> C 	 -13.5908 	 43.7528 	 31.7372
|  9> C 	 -12.9438 	 42.6656 	 31.1893
| 10> C 	 -13.7663 	 41.7309 	 30.4947
| 11> C 	 -15.1226 	 41.9969 	 30.6151
| 12> H 	 -13.2985 	 40.7495 	 30.1383
| 13> C 	 -11.445 	 42.4425 	 31.2429
| 14> H 	 -11.0215 	 43.4268 	 31.0685
| 15> H 	 -11.0768 	 41.8751 	 30.3605
| 16> C 	 -10.8828 	 41.8868 	 32.5567
| 17> H 	 -11.3127 	 40.8915 	 32.64
| 18> H 	 -9.75915 	 41.8982 	 32.4399
| 19> C 	 -11.055 	 42.6999 	 33.8232
| 20> H 	 -10.4595 	 43.6151 	 33.8201
| 21> H 	 -12.1234 	 42.9332 	 33.9133
| 22> H 	 -10.9144 	 42.1492 	 34.7459
| 23> S 	 -17.6808 	 41.1827 	 30.9779
| 24> C 	 -18.6404 	 40.501 	 29.6358
| 25> C 	 -17.872 	 40.4564 	 28.5292
| 26> C 	 -16.5189 	 40.9028 	 28.7242
| 27> C 	 -16.2596 	 41.2612 	 30.0247
| 28> H 	 -18.4055 	 40.2235 	 27.6135
| 29> C 	 -15.5892 	 41.066 	 27.5438
| 30> H 	 -15.4411 	 40.0593 	 27.0956
| 31> H 	 -14.5742 	 41.4725 	 27.8967
| 32> C 	 -16.0892 	 41.9441 	 26.4264
| 33> H 	 -16.3387 	 42.9784 	 26.7066
| 34> H 	 -17.0986 	 41.4833 	 26.131
| 35> C 	 -15.1484 	 42.0871 	 25.2342
| 36> H 	 -15.0905 	 41.1751 	 24.6277
| 37> H 	 -14.1755 	 42.4259 	 25.4979
| 38> H 	 -15.5365 	 42.8252 	 24.5279
| 39> H 	 -12.953 	 44.5308 	 32.2037
| 40> H 	 -19.6369 	 40.1057 	 29.739
| 41> *
| 42>
| 43>                          ****END OF INPUT****

CARTESIAN COORDINATES (ANGSTROEM)
---------------------------------
  S    -15.350900   43.516700   31.514400
  C    -13.590800   43.752800   31.737200
  C    -12.943800   42.665600   31.189300
  C    -13.766300   41.730900   30.494700
  C    -15.122600   41.996900   30.615100
  H    -13.298500   40.749500   30.138300
  C    -11.445000   42.442500   31.242900
  H    -11.021500   43.426800   31.068500
  H    -11.076800   41.875100   30.360500
  C    -10.882800   41.886800   32.556700
  H    -11.312700   40.891500   32.640000
  H     -9.759150   41.898200   32.439900
  C    -11.055000   42.699900   33.823200
  H    -10.459500   43.615100   33.820100
  H    -12.123400   42.933200   33.913300
  H    -10.914400   42.149200   34.745900
  S    -17.680800   41.182700   30.977900
  C    -18.640400   40.501000   29.635800
  C    -17.872000   40.456400   28.529200
  C    -16.518900   40.902800   28.724200
  C    -16.259600   41.261200   30.024700
  H    -18.405500   40.223500   27.613500
  C    -15.589200   41.066000   27.543800
  H    -15.441100   40.059300   27.095600
  H    -14.574200   41.472500   27.896700
  C    -16.089200   41.944100   26.426400
  H    -16.338700   42.978400   26.706600
  H    -17.098600   41.483300   26.131000
  C    -15.148400   42.087100   25.234200
  H    -15.090500   41.175100   24.627700
  H    -14.175500   42.425900   25.497900
  H    -15.536500   42.825200   24.527900
  H    -12.953000   44.530800   32.203700
  H    -19.636900   40.105700   29.739000

 Total Charge           Charge          ....    0
 Multiplicity           Mult            ....    1
 Number of Electrons    NEL             ....  134
 Basis Dimension        Dim             ....  322

ORBITAL ENERGIES
----------------

  NO   OCC          E(Eh)            E(eV)
   0   2.0000     -88.971284     -2421.0317
   1   2.0000     -88.962128     -2420.7826
   2   2.0000     -10.338851      -281.3344
   3   2.0000     -10.328065      -281.0409
   4   2.0000     -10.318995      -280.7941
   5   2.0000     -10.318353      -280.7767
   6   2.0000     -10.305489      -280.4266
   7   2.0000     -10.299363      -280.2599
   8   2.0000     -10.297184      -280.2006
   9   2.0000     -10.295362      -280.1510
  10   2.0000     -10.294476      -280.1269
  11   2.0000     -10.291533      -280.0469
  12   2.0000     -10.289348      -279.9874
  13   2.0000     -10.289291      -279.9858
  14   2.0000     -10.275583      -279.6128
  15   2.0000     -10.275034      -279.5979
  16   2.0000      -8.084322      -219.9856
  17   2.0000      -8.077509      -219.8002
  18   2.0000      -6.043125      -164.4418
  19   2.0000      -6.039045      -164.3308
  20   2.0000      -6.036130      -164.2515
  21   2.0000      -6.034842      -164.2164
  22   2.0000      -6.031890      -164.1361
  23   2.0000      -6.028128      -164.0337
  24   2.0000      -1.009207       -27.4619
  25   2.0000      -0.983499       -26.7624
  26   2.0000      -0.912102       -24.8196
  27   2.0000      -0.909334       -24.7442
  28   2.0000      -0.872094       -23.7309
  29   2.0000      -0.850345       -23.1391
  30   2.0000      -0.843485       -22.9524
  31   2.0000      -0.818942       -22.2845
  32   2.0000      -0.782694       -21.2982
  33   2.0000      -0.774637       -21.0789
  34   2.0000      -0.708531       -19.2801
  35   2.0000      -0.694067       -18.8865
  36   2.0000      -0.690776       -18.7970
  37   2.0000      -0.660117       -17.9627
  38   2.0000      -0.629563       -17.1313
  39   2.0000      -0.618019       -16.8172
  40   2.0000      -0.597769       -16.2661
  41   2.0000      -0.575462       -15.6591
  42   2.0000      -0.564719       -15.3668
  43   2.0000      -0.552339       -15.0299
  44   2.0000      -0.540241       -14.7007
  45   2.0000      -0.524029       -14.2595
  46   2.0000      -0.519775       -14.1438
  47   2.0000      -0.513988       -13.9863
  48   2.0000      -0.506284       -13.7767
  49   2.0000      -0.498491       -13.5646
  50   2.0000      -0.483996       -13.1702
  51   2.0000      -0.482051       -13.1173
  52   2.0000      -0.472229       -12.8500
  53   2.0000      -0.464671       -12.6443
  54   2.0000      -0.461468       -12.5572
  55   2.0000      -0.448025       -12.1914
  56   2.0000      -0.444268       -12.0892
  57   2.0000      -0.435102       -11.8397
  58   2.0000      -0.427537       -11.6339
  59   2.0000      -0.423698       -11.5294
  60   2.0000      -0.416935       -11.3454
  61   2.0000      -0.409609       -11.1460
  62   2.0000      -0.401774       -10.9328
  63   2.0000      -0.356130        -9.6908
  64   2.0000      -0.332188        -9.0393
  65   2.0000      -0.329656        -8.9704
  66   2.0000      -0.293475        -7.9859
  67   0.0000       0.027902         0.7593
  68   0.0000       0.069140         1.8814
  69   0.0000       0.104794         2.8516
  70   0.0000       0.119891         3.2624
  71   0.0000       0.127825         3.4783

MULLIKEN ATOMIC CHARGES
-----------------------
   0 S :    0.110448
   1 C :   -0.113677
   2 C :   -0.133804
   3 C :    0.003610
   4 C :   -0.122545
   5 H :    0.047604
   6 C :    0.047816
   7 H :    0.010840
   8 H :    0.030450
   9 C :   -0.062317
  10 H :    0.031438
  11 H :    0.038645
  12 C :   -0.056560
  13 H :    0.033706
  14 H :    0.027296
  15 H :    0.034924
  16 S :    0.079091
  17 C :   -0.096888
  18 C :   -0.033722
  19 C :   -0.017797
  20 C :   -0.139285
  21 H :    0.029211
  22 C :    0.061947
  23 H :    0.033512
  24 H :    0.033473
  25 C :   -0.117134
  26 H :    0.035207
  27 H :    0.025250
  28 C :   -0.021733
  29 H :    0.026293
  30 H :    0.026633
  31 H :    0.029453
  32 H :    0.059189
  33 H :    0.059427
Sum of atomic charges:    0.0000000

LOEWDIN ATOMIC CHARGES
----------------------
   0 S :    0.386696
   1 C :   -0.201730
   2 C :   -0.070590
   3 C :   -0.081299
   4 C :   -0.176262
   5 H :    0.046307
   6 C :   -0.039102
   7 H :    0.026189
   8 H :    0.034950
   9 C :   -0.042342
  10 H :    0.024643
  11 H :    0.032180
  12 C :   -0.073229
  13 H :    0.024645
  14 H :    0.024887
  15 H :    0.030189
  16 S :    0.397239
  17 C :   -0.166484
  18 C :   -0.071898
  19 C :   -0.055989
  20 C :   -0.206219
  21 H :    0.035402
  22 C :   -0.040196
  23 H :    0.035825
  24 H :    0.035916
  25 C :   -0.048389
  26 H :    0.026489
  27 H :    0.025997
  28 C :   -0.063429
  29 H :    0.024544
  30 H :    0.020710
  31 H :    0.029849
  32 H :    0.043349
  33 H :    0.031153

  Mayer bond orders larger than 0.100000
B(  0-S ,  1-C ) :   1.1082 B(  0-S ,  4-C ) :   1.1444 B(  1-C ,  2-C ) :   1.6309
B(  1-C , 32-H ) :   0.9571 B(  2-C ,  3-C ) :   1.2585 B(  2-C ,  6-C ) :   1.0158
B(  3-C ,  4-C ) :   1.5742 B(  3-C ,  5-H ) :   0.9761 B(  4-C , 20-C ) :   1.0291
B(  6-C ,  7-H ) :   0.9348 B(  6-C ,  8-H ) :   0.9462 B(  6-C ,  9-C ) :   1.0679
B(  9-C , 10-H ) :   0.9539 B(  9-C , 11-H ) :   0.9550 B(  9-C , 12-C ) :   1.0875
B( 12-C , 13-H ) :   0.9744 B( 12-C , 14-H ) :   0.9668 B( 12-C , 15-H ) :   0.9695
B( 16-S , 17-C ) :   1.1359 B( 16-S , 20-C ) :   1.1370 B( 17-C , 18-C ) :   1.6432
B( 17-C , 33-H ) :   0.9685 B( 18-C , 19-C ) :   1.2112 B( 18-C , 21-H ) :   0.9871
B( 19-C , 20-C ) :   1.6060 B( 19-C , 22-C ) :   1.0450 B( 22-C , 23-H ) :   0.9290
B( 22-C , 24-H ) :   0.9311 B( 22-C , 25-C ) :   1.0658 B( 25-C , 26-H ) :   0.9560
B( 25-C , 27-H ) :   0.9484 B( 25-C , 28-C ) :   1.0915 B( 28-C , 29-H ) :   0.9729
B( 28-C , 30-H ) :   0.9728 B( 28-C , 31-H ) :   0.9727

Dispersion correction           -0.013884987
FINAL SINGLE POINT ENERGY     -1339.878670184485

DIPOLE MOMENT
-------------
                                X             Y             Z
Electronic contribution:    -20.28264       0.32487      10.88045
Nuclear contribution   :     20.61320      -0.45220     -11.33727
                        -----------------------------------------
Total Dipole Moment    :      0.33056      -0.12733      -0.45683
                        -----------------------------------------
Magnitude (a.u.)       :      0.57808
Magnitude (Debye)      :      1.46935

Rotational constants in cm-1:     0.020213     0.007931     0.006416
Rotational constants in MHz :   605.956693   237.767362   192.340326

                             ****ORCA TERMINATED NORMALLY****
TOTAL RUN TIME: 0 days 0 hours 0 minutes 33 seconds 420 msec
