                         Program Version 4.2.1 -  RELEASE  -
|  1> ! wB97X-D3 SP def2-SVP
|  2> %pal
|  3> nprocs 16
|  4> end
|  5>
|  6> * xyz 0 1
|  7> S 	 12.2179 	 1.18546 	 66.3121
|  8> C 	 10.9886 	 0.794713 	 65.1459
|  9> C 	 11.0765 	 -0.487488 	 64.6456
| 10> C 	 12.0524 	 -1.23828 	 65.3414
| 11> C 	 12.8957 	 -0.456548 	 66.1127
| 12> H 	 12.2985 	 -2.36683 	 65.2954
| 13> C 	 10.1689 	 -1.06689 	 63.6441
| 14> H 	 9.30519 	 -0.373235 	 63.6247
| 15> H 	 9.69051 	 -1.99713 	 63.9694
| 16> C 	 10.8075 	 -1.18165 	 62.2823
| 17> H 	 11.3638 	 -0.327853 	 61.9501
| 18> H 	 11.6022 	 -1.95622 	 62.383
| 19> C 	 9.82132 	 -1.40767 	 61.1714
| 20> H 	 9.10649 	 -0.576049 	 61.0092
| 21> H 	 10.3739 	 -1.6482 	 60.2373
| 22> H 	 9.10143 	 -2.1956 	 61.4192
| 23> S 	 13.6672 	 -0.920692 	 68.6944
| 24> C 	 15.2331 	 -1.5096 	 69.0234
| 25> C 	 15.8892 	 -1.92694 	 67.833
| 26> C 	 15.1412 	 -1.65135 	 66.6773
| 27> C 	 13.9516 	 -0.923354 	 66.9715
| 28> H 	 16.8922 	 -2.39528 	 67.8184
| 29> C 	 15.7058 	 -1.99905 	 65.354
| 30> H 	 14.8461 	 -2.20497 	 64.799
| 31> H 	 16.3162 	 -2.82348 	 65.4826
| 32> C 	 16.373 	 -0.836306 	 64.6513
| 33> H 	 15.6357 	 -0.0384218 	 64.6141
| 34> H 	 16.6323 	 -1.07359 	 63.5615
| 35> C 	 17.6107 	 -0.294582 	 65.328
| 36> H 	 18.074 	 0.479487 	 64.6749
| 37> H 	 18.3382 	 -1.12196 	 65.3411
| 38> H 	 17.4176 	 0.15032 	 66.3023
| 39> H 	 10.2369 	 1.54398 	 64.8135
| 40> H 	 15.6732 	 -1.65173 	 69.9958
| 41> *
| 42>
| 43>                          ****END OF INPUT****

CARTESIAN COORDINATES (ANGSTROEM)
---------------------------------
  S     12.217900    1.185460   66.312100
  C     10.988600    0.794713   65.145900
  C     11.076500   -0.487488   64.645600
  C     12.052400   -1.238280   65.341400
  C     12.895700   -0.456548   66.112700
  H     12.298500   -2.366830   65.295400
  C     10.168900   -1.066890   63.644100
  H      9.305190   -0.373235   63.624700
  H      9.690510   -1.997130   63.969400
  C     10.807500   -1.181650   62.282300
  H     11.363800   -0.327853   61.950100
  H     11.602200   -1.956220   62.383000
  C      9.821320   -1.407670   61.171400
  H      9.106490   -0.576049   61.009200
  H     10.373900   -1.648200   60.237300
  H      9.101430   -2.195600   61.419200
  S     13.667200   -0.920692   68.694400
  C     15.233100   -1.509600   69.023400
  C     15.889200   -1.926940   67.833000
  C     15.141200   -1.651350   66.677300
  C     13.951600   -0.923354   66.971500
  H     16.892200   -2.395280   67.818400
  C     15.705800   -1.999050   65.354000
  H     14.846100   -2.204970   64.799000
  H     16.316200   -2.823480   65.482600
  C     16.373000   -0.836306   64.651300
  H     15.635700   -0.038422   64.614100
  H     16.632300   -1.073590   63.561500
  C     17.610700   -0.294582   65.328000
  H     18.074000    0.479487   64.674900
  H     18.338200   -1.121960   65.341100
  H     17.417600    0.150320   66.302300
  H     10.236900    1.543980   64.813500
  H     15.673200   -1.651730   69.995800

 Total Charge           Charge          ....    0
 Multiplicity           Mult            ....    1
 Number of Electrons    NEL             ....  134
 Basis Dimension        Dim             ....  322

ORBITAL ENERGIES
----------------

  NO   OCC          E(Eh)            E(eV)
   0   2.0000     -88.968112     -2420.9454
   1   2.0000     -88.966706     -2420.9071
   2   2.0000     -10.327291      -281.0199
   3   2.0000     -10.322117      -280.8791
   4   2.0000     -10.316902      -280.7372
   5   2.0000     -10.315357      -280.6951
   6   2.0000     -10.300907      -280.3019
   7   2.0000     -10.298841      -280.2457
   8   2.0000     -10.298210      -280.2285
   9   2.0000     -10.293126      -280.0902
  10   2.0000     -10.290061      -280.0068
  11   2.0000     -10.284059      -279.8435
  12   2.0000     -10.283118      -279.8179
  13   2.0000     -10.281117      -279.7634
  14   2.0000     -10.274528      -279.5841
  15   2.0000     -10.273626      -279.5596
  16   2.0000      -8.083217      -219.9555
  17   2.0000      -8.081206      -219.9008
  18   2.0000      -6.041467      -164.3967
  19   2.0000      -6.039576      -164.3452
  20   2.0000      -6.037577      -164.2908
  21   2.0000      -6.035893      -164.2450
  22   2.0000      -6.034328      -164.2024
  23   2.0000      -6.031980      -164.1385
  24   2.0000      -1.007437       -27.4138
  25   2.0000      -0.986032       -26.8313
  26   2.0000      -0.920303       -25.0427
  27   2.0000      -0.917984       -24.9796
  28   2.0000      -0.869172       -23.6514
  29   2.0000      -0.852714       -23.2035
  30   2.0000      -0.848881       -23.0992
  31   2.0000      -0.810621       -22.0581
  32   2.0000      -0.786706       -21.4074
  33   2.0000      -0.767971       -20.8975
  34   2.0000      -0.707716       -19.2579
  35   2.0000      -0.698982       -19.0203
  36   2.0000      -0.684441       -18.6246
  37   2.0000      -0.661637       -18.0040
  38   2.0000      -0.641618       -17.4593
  39   2.0000      -0.615096       -16.7376
  40   2.0000      -0.592176       -16.1139
  41   2.0000      -0.573679       -15.6106
  42   2.0000      -0.561951       -15.2915
  43   2.0000      -0.549441       -14.9511
  44   2.0000      -0.545793       -14.8518
  45   2.0000      -0.537172       -14.6172
  46   2.0000      -0.518501       -14.1091
  47   2.0000      -0.508596       -13.8396
  48   2.0000      -0.503887       -13.7115
  49   2.0000      -0.497928       -13.5493
  50   2.0000      -0.489524       -13.3206
  51   2.0000      -0.476910       -12.9774
  52   2.0000      -0.473698       -12.8900
  53   2.0000      -0.466009       -12.6807
  54   2.0000      -0.460354       -12.5269
  55   2.0000      -0.444393       -12.0926
  56   2.0000      -0.441439       -12.0122
  57   2.0000      -0.436237       -11.8706
  58   2.0000      -0.432827       -11.7778
  59   2.0000      -0.430950       -11.7267
  60   2.0000      -0.419512       -11.4155
  61   2.0000      -0.415005       -11.2929
  62   2.0000      -0.407694       -11.0939
  63   2.0000      -0.341500        -9.2927
  64   2.0000      -0.330506        -8.9935
  65   2.0000      -0.326413        -8.8821
  66   2.0000      -0.290437        -7.9032
  67   0.0000       0.027074         0.7367
  68   0.0000       0.063593         1.7305
  69   0.0000       0.111651         3.0382
  70   0.0000       0.119305         3.2465
  71   0.0000       0.129813         3.5324

MULLIKEN ATOMIC CHARGES
-----------------------
   0 S :    0.107580
   1 C :   -0.131272
   2 C :   -0.078876
   3 C :    0.010050
   4 C :   -0.192918
   5 H :    0.057599
   6 C :    0.067104
   7 H :    0.005420
   8 H :    0.033133
   9 C :   -0.060252
  10 H :    0.025614
  11 H :    0.025686
  12 C :   -0.046365
  13 H :    0.032673
  14 H :    0.045675
  15 H :    0.018122
  16 S :    0.136463
  17 C :   -0.087100
  18 C :   -0.065120
  19 C :   -0.082476
  20 C :   -0.174745
  21 H :    0.028696
  22 C :    0.199719
  23 H :   -0.008252
  24 H :    0.000148
  25 C :   -0.093294
  26 H :    0.027336
  27 H :    0.035432
  28 C :   -0.057548
  29 H :    0.034231
  30 H :    0.020370
  31 H :    0.051556
  32 H :    0.062465
  33 H :    0.053146
Sum of atomic charges:    0.0000000

LOEWDIN ATOMIC CHARGES
----------------------
   0 S :    0.393938
   1 C :   -0.198104
   2 C :   -0.070194
   3 C :   -0.062305
   4 C :   -0.195925
   5 H :    0.050037
   6 C :   -0.035524
   7 H :    0.028859
   8 H :    0.034286
   9 C :   -0.045063
  10 H :    0.025471
  11 H :    0.026976
  12 C :   -0.069817
  13 H :    0.028322
  14 H :    0.032641
  15 H :    0.021468
  16 S :    0.443910
  17 C :   -0.203731
  18 C :   -0.078400
  19 C :   -0.048973
  20 C :   -0.221013
  21 H :    0.035587
  22 C :   -0.023041
  23 H :    0.026303
  24 H :    0.019727
  25 C :   -0.039593
  26 H :    0.023732
  27 H :    0.029514
  28 C :   -0.069685
  29 H :    0.030531
  30 H :    0.021841
  31 H :    0.026993
  32 H :    0.034327
  33 H :    0.026905

  Mayer bond orders larger than 0.100000
B(  0-S ,  1-C ) :   1.1449 B(  0-S ,  4-C ) :   1.1370 B(  1-C ,  2-C ) :   1.6156
B(  1-C , 32-H ) :   0.9571 B(  2-C ,  3-C ) :   1.2312 B(  2-C ,  6-C ) :   1.0357
B(  3-C ,  4-C ) :   1.5944 B(  3-C ,  5-H ) :   0.9706 B(  4-C , 20-C ) :   1.0452
B(  6-C ,  7-H ) :   0.9380 B(  6-C ,  8-H ) :   0.9337 B(  6-C ,  9-C ) :   1.0520
B(  9-C , 10-H ) :   0.9549 B(  9-C , 11-H ) :   0.9516 B(  9-C , 12-C ) :   1.0870
B( 12-C , 13-H ) :   0.9725 B( 12-C , 14-H ) :   0.9726 B( 12-C , 15-H ) :   0.9703
B( 16-S , 17-C ) :   1.1924 B( 16-S , 20-C ) :   1.1729 B( 17-C , 18-C ) :   1.5320
B( 17-C , 20-C ) :   0.1177 B( 17-C , 33-H ) :   0.9707 B( 18-C , 19-C ) :   1.3091
B( 18-C , 21-H ) :   0.9842 B( 19-C , 20-C ) :   1.5148 B( 19-C , 22-C ) :   1.0436
B( 22-C , 23-H ) :   0.9001 B( 22-C , 24-H ) :   0.9288 B( 22-C , 25-C ) :   1.0845
B( 25-C , 26-H ) :   0.9514 B( 25-C , 27-H ) :   0.9547 B( 25-C , 28-C ) :   1.0859
B( 28-C , 29-H ) :   0.9713 B( 28-C , 30-H ) :   0.9737 B( 28-C , 31-H ) :   0.9710

Dispersion correction           -0.014554912
FINAL SINGLE POINT ENERGY     -1339.877631392683

DIPOLE MOMENT
-------------
                                X             Y             Z
Electronic contribution:     -3.41671       6.69359      24.93742
Nuclear contribution   :      3.38805      -7.03877     -25.36938
                        -----------------------------------------
Total Dipole Moment    :     -0.02865      -0.34518      -0.43197
                        -----------------------------------------
Magnitude (a.u.)       :      0.55369
Magnitude (Debye)      :      1.40736

Rotational constants in cm-1:     0.020493     0.008184     0.006831
Rotational constants in MHz :   614.359357   245.354258   204.777986

                             ****ORCA TERMINATED NORMALLY****
TOTAL RUN TIME: 0 days 0 hours 0 minutes 35 seconds 631 msec
