                         Program Version 4.2.1 -  RELEASE  -
|  1> ! wB97X-D3 SP def2-SVP
|  2> %pal
|  3> nprocs 16
|  4> end
|  5>
|  6> * xyz 0 1
|  7> S 	 33.6337 	 27.7177 	 55.1552
|  8> C 	 34.43 	 29.0858 	 54.4617
|  9> C 	 34.0623 	 29.1609 	 53.1543
| 10> C 	 33.3804 	 27.9971 	 52.6164
| 11> C 	 32.9697 	 27.1281 	 53.5839
| 12> H 	 32.9995 	 27.9301 	 51.6139
| 13> C 	 34.3666 	 30.4106 	 52.2757
| 14> H 	 34.6895 	 31.2226 	 52.9389
| 15> H 	 33.4465 	 30.8056 	 51.8344
| 16> C 	 35.214 	 30.1754 	 51.0485
| 17> H 	 34.796 	 29.4098 	 50.4066
| 18> H 	 35.0728 	 31.0829 	 50.4104
| 19> C 	 36.7107 	 29.9928 	 51.2874
| 20> H 	 37.2558 	 29.5888 	 50.4743
| 21> H 	 37.1223 	 31.0079 	 51.5061
| 22> H 	 36.924 	 29.4612 	 52.2118
| 23> S 	 32.7189 	 24.5659 	 54.483
| 24> C 	 31.4491 	 23.51 	 53.7891
| 25> C 	 30.8812 	 24.0964 	 52.7311
| 26> C 	 31.3059 	 25.4437 	 52.4243
| 27> C 	 32.2306 	 25.8641 	 53.391
| 28> H 	 30.1027 	 23.5683 	 52.2276
| 29> C 	 30.8576 	 26.1463 	 51.1749
| 30> H 	 30.9784 	 27.2075 	 51.2681
| 31> H 	 29.722 	 26.1176 	 51.0958
| 32> C 	 31.2783 	 25.4835 	 49.8369
| 33> H 	 31.0428 	 24.466 	 49.8053
| 34> H 	 32.3704 	 25.5265 	 49.7297
| 35> C 	 30.6332 	 26.174 	 48.6144
| 36> H 	 30.7992 	 27.2991 	 48.6367
| 37> H 	 29.5805 	 25.9077 	 48.7317
| 38> H 	 31.0282 	 25.8319 	 47.7188
| 39> H 	 34.8631 	 29.8526 	 55.1326
| 40> H 	 31.2895 	 22.5267 	 54.1657
| 41> *
| 42>
| 43>                          ****END OF INPUT****

CARTESIAN COORDINATES (ANGSTROEM)
---------------------------------
  S     33.633700   27.717700   55.155200
  C     34.430000   29.085800   54.461700
  C     34.062300   29.160900   53.154300
  C     33.380400   27.997100   52.616400
  C     32.969700   27.128100   53.583900
  H     32.999500   27.930100   51.613900
  C     34.366600   30.410600   52.275700
  H     34.689500   31.222600   52.938900
  H     33.446500   30.805600   51.834400
  C     35.214000   30.175400   51.048500
  H     34.796000   29.409800   50.406600
  H     35.072800   31.082900   50.410400
  C     36.710700   29.992800   51.287400
  H     37.255800   29.588800   50.474300
  H     37.122300   31.007900   51.506100
  H     36.924000   29.461200   52.211800
  S     32.718900   24.565900   54.483000
  C     31.449100   23.510000   53.789100
  C     30.881200   24.096400   52.731100
  C     31.305900   25.443700   52.424300
  C     32.230600   25.864100   53.391000
  H     30.102700   23.568300   52.227600
  C     30.857600   26.146300   51.174900
  H     30.978400   27.207500   51.268100
  H     29.722000   26.117600   51.095800
  C     31.278300   25.483500   49.836900
  H     31.042800   24.466000   49.805300
  H     32.370400   25.526500   49.729700
  C     30.633200   26.174000   48.614400
  H     30.799200   27.299100   48.636700
  H     29.580500   25.907700   48.731700
  H     31.028200   25.831900   47.718800
  H     34.863100   29.852600   55.132600
  H     31.289500   22.526700   54.165700

 Total Charge           Charge          ....    0
 Multiplicity           Mult            ....    1
 Number of Electrons    NEL             ....  134
 Basis Dimension        Dim             ....  322

ORBITAL ENERGIES
----------------

  NO   OCC          E(Eh)            E(eV)
   0   2.0000     -88.962488     -2420.7924
   1   2.0000     -88.960570     -2420.7402
   2   2.0000     -10.335362      -281.2395
   3   2.0000     -10.335192      -281.2349
   4   2.0000     -10.315671      -280.7037
   5   2.0000     -10.315259      -280.6925
   6   2.0000     -10.310296      -280.5574
   7   2.0000     -10.303461      -280.3714
   8   2.0000     -10.300835      -280.3000
   9   2.0000     -10.293759      -280.1074
  10   2.0000     -10.293018      -280.0873
  11   2.0000     -10.291884      -280.0564
  12   2.0000     -10.288973      -279.9772
  13   2.0000     -10.285803      -279.8909
  14   2.0000     -10.282968      -279.8138
  15   2.0000     -10.271690      -279.5069
  16   2.0000      -8.076811      -219.7812
  17   2.0000      -8.075228      -219.7381
  18   2.0000      -6.035471      -164.2335
  19   2.0000      -6.033930      -164.1916
  20   2.0000      -6.031496      -164.1254
  21   2.0000      -6.029715      -164.0769
  22   2.0000      -6.027303      -164.0112
  23   2.0000      -6.025773      -163.9696
  24   2.0000      -1.003815       -27.3152
  25   2.0000      -0.983446       -26.7609
  26   2.0000      -0.912049       -24.8181
  27   2.0000      -0.908080       -24.7101
  28   2.0000      -0.874340       -23.7920
  29   2.0000      -0.853116       -23.2145
  30   2.0000      -0.839270       -22.8377
  31   2.0000      -0.820689       -22.3321
  32   2.0000      -0.782029       -21.2801
  33   2.0000      -0.774012       -21.0619
  34   2.0000      -0.710661       -19.3381
  35   2.0000      -0.702723       -19.1221
  36   2.0000      -0.690284       -18.7836
  37   2.0000      -0.662307       -18.0223
  38   2.0000      -0.641638       -17.4599
  39   2.0000      -0.623740       -16.9728
  40   2.0000      -0.603902       -16.4330
  41   2.0000      -0.570814       -15.5326
  42   2.0000      -0.562618       -15.3096
  43   2.0000      -0.550771       -14.9872
  44   2.0000      -0.535342       -14.5674
  45   2.0000      -0.531864       -14.4728
  46   2.0000      -0.523520       -14.2457
  47   2.0000      -0.518913       -14.1203
  48   2.0000      -0.504479       -13.7276
  49   2.0000      -0.502052       -13.6615
  50   2.0000      -0.487875       -13.2757
  51   2.0000      -0.481240       -13.0952
  52   2.0000      -0.473212       -12.8768
  53   2.0000      -0.465311       -12.6618
  54   2.0000      -0.451742       -12.2925
  55   2.0000      -0.449587       -12.2339
  56   2.0000      -0.447054       -12.1650
  57   2.0000      -0.442950       -12.0533
  58   2.0000      -0.430706       -11.7201
  59   2.0000      -0.428388       -11.6570
  60   2.0000      -0.421448       -11.4682
  61   2.0000      -0.416789       -11.3414
  62   2.0000      -0.398727       -10.8499
  63   2.0000      -0.363078        -9.8799
  64   2.0000      -0.330533        -8.9943
  65   2.0000      -0.323347        -8.7987
  66   2.0000      -0.291702        -7.9376
  67   0.0000       0.023085         0.6282
  68   0.0000       0.083922         2.2836
  69   0.0000       0.102536         2.7902
  70   0.0000       0.114149         3.1062
  71   0.0000       0.123890         3.3712

MULLIKEN ATOMIC CHARGES
-----------------------
   0 S :    0.084683
   1 C :   -0.137735
   2 C :   -0.083331
   3 C :    0.015825
   4 C :   -0.108938
   5 H :    0.010701
   6 C :    0.063912
   7 H :    0.015494
   8 H :    0.025686
   9 C :   -0.086717
  10 H :    0.023899
  11 H :    0.024857
  12 C :   -0.026987
  13 H :    0.032972
  14 H :    0.020304
  15 H :    0.032332
  16 S :    0.082951
  17 C :   -0.077981
  18 C :   -0.014724
  19 C :   -0.008228
  20 C :   -0.145360
  21 H :    0.009785
  22 C :    0.023528
  23 H :    0.019156
  24 H :    0.022319
  25 C :   -0.053840
  26 H :    0.019088
  27 H :    0.028992
  28 C :   -0.036756
  29 H :    0.039889
  30 H :    0.034636
  31 H :    0.025472
  32 H :    0.075026
  33 H :    0.049088
Sum of atomic charges:   -0.0000000

LOEWDIN ATOMIC CHARGES
----------------------
   0 S :    0.379248
   1 C :   -0.206075
   2 C :   -0.063762
   3 C :   -0.066162
   4 C :   -0.170140
   5 H :    0.027698
   6 C :   -0.031855
   7 H :    0.028096
   8 H :    0.033727
   9 C :   -0.048092
  10 H :    0.020267
  11 H :    0.027764
  12 C :   -0.066537
  13 H :    0.021067
  14 H :    0.028681
  15 H :    0.025735
  16 S :    0.374312
  17 C :   -0.160344
  18 C :   -0.064328
  19 C :   -0.054962
  20 C :   -0.178157
  21 H :    0.028807
  22 C :   -0.039445
  23 H :    0.025494
  24 H :    0.037698
  25 C :   -0.031959
  26 H :    0.017084
  27 H :    0.022338
  28 C :   -0.057417
  29 H :    0.032537
  30 H :    0.026736
  31 H :    0.016234
  32 H :    0.040597
  33 H :    0.025116

  Mayer bond orders larger than 0.100000
B(  0-S ,  1-C ) :   1.1248 B(  0-S ,  4-C ) :   1.1345 B(  1-C ,  2-C ) :   1.6238
B(  1-C , 32-H ) :   0.9648 B(  2-C ,  3-C ) :   1.2158 B(  2-C ,  6-C ) :   1.0243
B(  3-C ,  4-C ) :   1.6015 B(  3-C ,  5-H ) :   0.9861 B(  4-C , 20-C ) :   1.0512
B(  6-C ,  7-H ) :   0.9482 B(  6-C ,  8-H ) :   0.9362 B(  6-C ,  9-C ) :   1.0740
B(  9-C , 10-H ) :   0.9551 B(  9-C , 11-H ) :   0.9553 B(  9-C , 12-C ) :   1.0676
B( 12-C , 13-H ) :   0.9760 B( 12-C , 14-H ) :   0.9738 B( 12-C , 15-H ) :   0.9790
B( 16-S , 17-C ) :   1.1136 B( 16-S , 20-C ) :   1.1412 B( 17-C , 18-C ) :   1.6539
B( 17-C , 33-H ) :   0.9742 B( 18-C , 19-C ) :   1.1961 B( 18-C , 21-H ) :   0.9920
B( 19-C , 20-C ) :   1.6092 B( 19-C , 22-C ) :   1.0580 B( 22-C , 23-H ) :   0.9322
B( 22-C , 24-H ) :   0.9284 B( 22-C , 25-C ) :   1.0493 B( 25-C , 26-H ) :   0.9543
B( 25-C , 27-H ) :   0.9551 B( 25-C , 28-C ) :   1.0788 B( 28-C , 29-H ) :   0.9766
B( 28-C , 30-H ) :   0.9768 B( 28-C , 31-H ) :   0.9742

Dispersion correction           -0.013749852
FINAL SINGLE POINT ENERGY     -1339.875811045342

DIPOLE MOMENT
-------------
                                X             Y             Z
Electronic contribution:     -1.38950     -12.56340      27.48701
Nuclear contribution   :      1.10288      12.74635     -28.24675
                        -----------------------------------------
Total Dipole Moment    :     -0.28662       0.18295      -0.75974
                        -----------------------------------------
Magnitude (a.u.)       :      0.83236
Magnitude (Debye)      :      2.11570

Rotational constants in cm-1:     0.016486     0.009296     0.006445
Rotational constants in MHz :   494.243890   278.679598   193.210277

                             ****ORCA TERMINATED NORMALLY****
TOTAL RUN TIME: 0 days 0 hours 0 minutes 34 seconds 777 msec
