                         Program Version 4.2.1 -  RELEASE  -
|  1> ! wB97X-D3 SP def2-SVP
|  2> %pal
|  3> nprocs 16
|  4> end
|  5>
|  6> * xyz 0 1
|  7> S 	 4.56881 	 -21.7128 	 61.5139
|  8> C 	 4.65677 	 -19.9884 	 61.3749
|  9> C 	 3.4288 	 -19.443 	 61.2984
| 10> C 	 2.39346 	 -20.3652 	 61.7225
| 11> C 	 2.85231 	 -21.6425 	 61.9079
| 12> H 	 1.3066 	 -20.2383 	 61.8465
| 13> C 	 3.25186 	 -18.1149 	 60.764
| 14> H 	 2.29495 	 -18.0611 	 60.238
| 15> H 	 3.9011 	 -18.0466 	 59.9211
| 16> C 	 3.33953 	 -16.9009 	 61.7573
| 17> H 	 3.20257 	 -15.973 	 61.3041
| 18> H 	 2.28428 	 -16.7319 	 62.2238
| 19> C 	 4.65851 	 -16.6974 	 62.553
| 20> H 	 5.4454 	 -16.7362 	 61.8106
| 21> H 	 4.63954 	 -15.7646 	 63.0377
| 22> H 	 4.82376 	 -17.4872 	 63.3099
| 23> S 	 1.41643 	 -23.7491 	 60.8713
| 24> C 	 0.667339 	 -24.9142 	 61.8369
| 25> C 	 0.617721 	 -24.4521 	 63.1282
| 26> C 	 1.31479 	 -23.2048 	 63.3978
| 27> C 	 2.01103 	 -22.7789 	 62.2364
| 28> H 	 0.182202 	 -25.1366 	 63.8471
| 29> C 	 1.37423 	 -22.515 	 64.7939
| 30> H 	 0.412707 	 -22.8137 	 65.2257
| 31> H 	 1.42481 	 -21.4605 	 64.7553
| 32> C 	 2.63749 	 -22.9139 	 65.5383
| 33> H 	 2.54622 	 -24.0182 	 65.5266
| 34> H 	 2.64191 	 -22.6326 	 66.5407
| 35> C 	 4.01166 	 -22.4476 	 65.1742
| 36> H 	 4.05658 	 -21.3099 	 65.0975
| 37> H 	 4.3284 	 -22.8425 	 64.2285
| 38> H 	 4.73209 	 -22.8048 	 65.9485
| 39> H 	 5.54258 	 -19.5055 	 61.0644
| 40> H 	 0.198293 	 -25.8982 	 61.5555
| 41> *
| 42>
| 43>                          ****END OF INPUT****

CARTESIAN COORDINATES (ANGSTROEM)
---------------------------------
  S      4.568810  -21.712800   61.513900
  C      4.656770  -19.988400   61.374900
  C      3.428800  -19.443000   61.298400
  C      2.393460  -20.365200   61.722500
  C      2.852310  -21.642500   61.907900
  H      1.306600  -20.238300   61.846500
  C      3.251860  -18.114900   60.764000
  H      2.294950  -18.061100   60.238000
  H      3.901100  -18.046600   59.921100
  C      3.339530  -16.900900   61.757300
  H      3.202570  -15.973000   61.304100
  H      2.284280  -16.731900   62.223800
  C      4.658510  -16.697400   62.553000
  H      5.445400  -16.736200   61.810600
  H      4.639540  -15.764600   63.037700
  H      4.823760  -17.487200   63.309900
  S      1.416430  -23.749100   60.871300
  C      0.667339  -24.914200   61.836900
  C      0.617721  -24.452100   63.128200
  C      1.314790  -23.204800   63.397800
  C      2.011030  -22.778900   62.236400
  H      0.182202  -25.136600   63.847100
  C      1.374230  -22.515000   64.793900
  H      0.412707  -22.813700   65.225700
  H      1.424810  -21.460500   64.755300
  C      2.637490  -22.913900   65.538300
  H      2.546220  -24.018200   65.526600
  H      2.641910  -22.632600   66.540700
  C      4.011660  -22.447600   65.174200
  H      4.056580  -21.309900   65.097500
  H      4.328400  -22.842500   64.228500
  H      4.732090  -22.804800   65.948500
  H      5.542580  -19.505500   61.064400
  H      0.198293  -25.898200   61.555500

 Total Charge           Charge          ....    0
 Multiplicity           Mult            ....    1
 Number of Electrons    NEL             ....  134
 Basis Dimension        Dim             ....  322

ORBITAL ENERGIES
----------------

  NO   OCC          E(Eh)            E(eV)
   0   2.0000     -88.962872     -2420.8028
   1   2.0000     -88.959835     -2420.7202
   2   2.0000     -10.328170      -281.0438
   3   2.0000     -10.326690      -281.0035
   4   2.0000     -10.315385      -280.6959
   5   2.0000     -10.312579      -280.6195
   6   2.0000     -10.306730      -280.4604
   7   2.0000     -10.296952      -280.1943
   8   2.0000     -10.295659      -280.1591
   9   2.0000     -10.292072      -280.0615
  10   2.0000     -10.291875      -280.0562
  11   2.0000     -10.290920      -280.0302
  12   2.0000     -10.287901      -279.9480
  13   2.0000     -10.280693      -279.7519
  14   2.0000     -10.273305      -279.5509
  15   2.0000     -10.272489      -279.5286
  16   2.0000      -8.077696      -219.8053
  17   2.0000      -8.075399      -219.7428
  18   2.0000      -6.036242      -164.2545
  19   2.0000      -6.033848      -164.1893
  20   2.0000      -6.032305      -164.1474
  21   2.0000      -6.029685      -164.0761
  22   2.0000      -6.028276      -164.0377
  23   2.0000      -6.026256      -163.9828
  24   2.0000      -1.008078       -27.4312
  25   2.0000      -0.988142       -26.8887
  26   2.0000      -0.913428       -24.8556
  27   2.0000      -0.909116       -24.7383
  28   2.0000      -0.871692       -23.7200
  29   2.0000      -0.849957       -23.1285
  30   2.0000      -0.843555       -22.9543
  31   2.0000      -0.816051       -22.2059
  32   2.0000      -0.787084       -21.4177
  33   2.0000      -0.775512       -21.1028
  34   2.0000      -0.713963       -19.4279
  35   2.0000      -0.701434       -19.0870
  36   2.0000      -0.684527       -18.6269
  37   2.0000      -0.648710       -17.6523
  38   2.0000      -0.647394       -17.6165
  39   2.0000      -0.614242       -16.7144
  40   2.0000      -0.595098       -16.1935
  41   2.0000      -0.571780       -15.5589
  42   2.0000      -0.555179       -15.1072
  43   2.0000      -0.553966       -15.0742
  44   2.0000      -0.542128       -14.7521
  45   2.0000      -0.541666       -14.7395
  46   2.0000      -0.519042       -14.1239
  47   2.0000      -0.509910       -13.8754
  48   2.0000      -0.501419       -13.6443
  49   2.0000      -0.494395       -13.4532
  50   2.0000      -0.488583       -13.2950
  51   2.0000      -0.480110       -13.0644
  52   2.0000      -0.470471       -12.8022
  53   2.0000      -0.469792       -12.7837
  54   2.0000      -0.467966       -12.7340
  55   2.0000      -0.450788       -12.2666
  56   2.0000      -0.443701       -12.0737
  57   2.0000      -0.439750       -11.9662
  58   2.0000      -0.424990       -11.5646
  59   2.0000      -0.420701       -11.4479
  60   2.0000      -0.406961       -11.0740
  61   2.0000      -0.402446       -10.9511
  62   2.0000      -0.398840       -10.8530
  63   2.0000      -0.334633        -9.1058
  64   2.0000      -0.325197        -8.8490
  65   2.0000      -0.321231        -8.7411
  66   2.0000      -0.308461        -8.3937
  67   0.0000       0.038819         1.0563
  68   0.0000       0.057208         1.5567
  69   0.0000       0.105619         2.8740
  70   0.0000       0.117435         3.1956
  71   0.0000       0.140304         3.8179

MULLIKEN ATOMIC CHARGES
-----------------------
   0 S :    0.112562
   1 C :   -0.099778
   2 C :   -0.071726
   3 C :    0.049382
   4 C :   -0.175118
   5 H :    0.024867
   6 C :    0.071454
   7 H :    0.016312
   8 H :    0.017018
   9 C :   -0.079732
  10 H :    0.001733
  11 H :    0.022641
  12 C :   -0.018104
  13 H :    0.026422
  14 H :    0.030598
  15 H :    0.048420
  16 S :    0.107738
  17 C :   -0.097169
  18 C :   -0.070935
  19 C :   -0.031288
  20 C :   -0.200107
  21 H :    0.018191
  22 C :    0.135779
  23 H :    0.027596
  24 H :    0.008187
  25 C :   -0.074550
  26 H :    0.017257
  27 H :    0.011763
  28 C :   -0.040550
  29 H :    0.037873
  30 H :    0.020744
  31 H :    0.040598
  32 H :    0.034959
  33 H :    0.076965
Sum of atomic charges:    0.0000000

LOEWDIN ATOMIC CHARGES
----------------------
   0 S :    0.410290
   1 C :   -0.183460
   2 C :   -0.067861
   3 C :   -0.050674
   4 C :   -0.202635
   5 H :    0.039360
   6 C :   -0.037703
   7 H :    0.037631
   8 H :    0.027949
   9 C :   -0.054614
  10 H :    0.016066
  11 H :    0.036208
  12 C :   -0.055413
  13 H :    0.025305
  14 H :    0.023323
  15 H :    0.028354
  16 S :    0.418750
  17 C :   -0.215379
  18 C :   -0.088533
  19 C :   -0.043935
  20 C :   -0.199443
  21 H :    0.028675
  22 C :   -0.021997
  23 H :    0.035793
  24 H :    0.021843
  25 C :   -0.048655
  26 H :    0.025078
  27 H :    0.016254
  28 C :   -0.063555
  29 H :    0.031993
  30 H :    0.008220
  31 H :    0.034349
  32 H :    0.020000
  33 H :    0.048416

  Mayer bond orders larger than 0.100000
B(  0-S ,  1-C ) :   1.1377 B(  0-S ,  4-C ) :   1.1347 B(  1-C ,  2-C ) :   1.6288
B(  1-C , 32-H ) :   0.9740 B(  2-C ,  3-C ) :   1.1891 B(  2-C ,  6-C ) :   1.0315
B(  3-C ,  4-C ) :   1.6163 B(  3-C ,  5-H ) :   0.9947 B(  4-C , 20-C ) :   1.0345
B(  6-C ,  7-H ) :   0.9305 B(  6-C ,  8-H ) :   0.9420 B(  6-C ,  9-C ) :   1.0755
B(  9-C , 10-H ) :   0.9462 B(  9-C , 11-H ) :   0.9497 B(  9-C , 12-C ) :   1.0622
B( 12-C , 13-H ) :   0.9719 B( 12-C , 14-H ) :   0.9741 B( 12-C , 15-H ) :   0.9769
B( 16-S , 17-C ) :   1.1652 B( 16-S , 20-C ) :   1.1562 B( 17-C , 18-C ) :   1.6137
B( 17-C , 20-C ) :   0.1030 B( 17-C , 33-H ) :   0.9588 B( 18-C , 19-C ) :   1.2369
B( 18-C , 21-H ) :   0.9850 B( 19-C , 20-C ) :   1.5685 B( 19-C , 22-C ) :   1.0321
B( 22-C , 23-H ) :   0.9327 B( 22-C , 24-H ) :   0.9336 B( 22-C , 25-C ) :   1.0731
B( 25-C , 26-H ) :   0.9490 B( 25-C , 27-H ) :   0.9550 B( 25-C , 28-C ) :   1.0882
B( 28-C , 29-H ) :   0.9687 B( 28-C , 30-H ) :   0.9678 B( 28-C , 31-H ) :   0.9692

Dispersion correction           -0.015531121
FINAL SINGLE POINT ENERGY     -1339.839231470207

DIPOLE MOMENT
-------------
                                X             Y             Z
Electronic contribution:     -4.06823     -18.15923     -14.42372
Nuclear contribution   :      3.86292      18.65249      14.56899
                        -----------------------------------------
Total Dipole Moment    :     -0.20531       0.49326       0.14527
                        -----------------------------------------
Magnitude (a.u.)       :      0.55368
Magnitude (Debye)      :      1.40735

Rotational constants in cm-1:     0.022017     0.008399     0.007360
Rotational constants in MHz :   660.043631   251.791901   220.640103

                             ****ORCA TERMINATED NORMALLY****
TOTAL RUN TIME: 0 days 0 hours 0 minutes 36 seconds 926 msec
