                         Program Version 4.2.1 -  RELEASE  -
|  1> ! wB97X-D3 SP def2-SVP
|  2> %pal
|  3> nprocs 16
|  4> end
|  5>
|  6> * xyz 0 1
|  7> S 	 -75.1978 	 47.3178 	 124.198
|  8> C 	 -74.9455 	 45.593 	 123.992
|  9> C 	 -73.7073 	 45.1463 	 124.354
| 10> C 	 -72.9298 	 46.235 	 124.815
| 11> C 	 -73.6004 	 47.4378 	 124.84
| 12> H 	 -71.8968 	 46.1673 	 125.131
| 13> C 	 -73.1491 	 43.7822 	 124.086
| 14> H 	 -73.9344 	 43.1019 	 123.973
| 15> H 	 -72.6924 	 43.4812 	 124.979
| 16> C 	 -71.9487 	 43.5333 	 123.096
| 17> H 	 -71.0315 	 43.8602 	 123.583
| 18> H 	 -71.7981 	 42.4487 	 123.208
| 19> C 	 -72.1612 	 43.9582 	 121.629
| 20> H 	 -71.3838 	 43.6876 	 121.026
| 21> H 	 -73.1314 	 43.627 	 121.269
| 22> H 	 -72.2521 	 45.0898 	 121.674
| 23> S 	 -74.2195 	 49.6472 	 126.194
| 24> C 	 -72.9202 	 50.6702 	 126.841
| 25> C 	 -71.688 	 50.3553 	 126.327
| 26> C 	 -71.8032 	 49.1863 	 125.503
| 27> C 	 -73.0746 	 48.6457 	 125.415
| 28> H 	 -70.9057 	 51.0481 	 126.502
| 29> C 	 -70.5747 	 48.7243 	 124.728
| 30> H 	 -70.9097 	 47.907 	 124.082
| 31> H 	 -69.7229 	 48.4329 	 125.365
| 32> C 	 -69.9469 	 49.8112 	 123.774
| 33> H 	 -69.3826 	 50.6451 	 124.254
| 34> H 	 -70.7571 	 50.2763 	 123.18
| 35> C 	 -69.0641 	 49.2176 	 122.68
| 36> H 	 -68.6907 	 49.9228 	 122.022
| 37> H 	 -69.6979 	 48.5252 	 122.08
| 38> H 	 -68.3051 	 48.6104 	 123.08
| 39> H 	 -75.7321 	 44.9728 	 123.582
| 40> H 	 -73.1778 	 51.6081 	 127.314
| 41> *
| 42>
| 43>                          ****END OF INPUT****

CARTESIAN COORDINATES (ANGSTROEM)
---------------------------------
  S    -75.197800   47.317800  124.198000
  C    -74.945500   45.593000  123.992000
  C    -73.707300   45.146300  124.354000
  C    -72.929800   46.235000  124.815000
  C    -73.600400   47.437800  124.840000
  H    -71.896800   46.167300  125.131000
  C    -73.149100   43.782200  124.086000
  H    -73.934400   43.101900  123.973000
  H    -72.692400   43.481200  124.979000
  C    -71.948700   43.533300  123.096000
  H    -71.031500   43.860200  123.583000
  H    -71.798100   42.448700  123.208000
  C    -72.161200   43.958200  121.629000
  H    -71.383800   43.687600  121.026000
  H    -73.131400   43.627000  121.269000
  H    -72.252100   45.089800  121.674000
  S    -74.219500   49.647200  126.194000
  C    -72.920200   50.670200  126.841000
  C    -71.688000   50.355300  126.327000
  C    -71.803200   49.186300  125.503000
  C    -73.074600   48.645700  125.415000
  H    -70.905700   51.048100  126.502000
  C    -70.574700   48.724300  124.728000
  H    -70.909700   47.907000  124.082000
  H    -69.722900   48.432900  125.365000
  C    -69.946900   49.811200  123.774000
  H    -69.382600   50.645100  124.254000
  H    -70.757100   50.276300  123.180000
  C    -69.064100   49.217600  122.680000
  H    -68.690700   49.922800  122.022000
  H    -69.697900   48.525200  122.080000
  H    -68.305100   48.610400  123.080000
  H    -75.732100   44.972800  123.582000
  H    -73.177800   51.608100  127.314000

 Total Charge           Charge          ....    0
 Multiplicity           Mult            ....    1
 Number of Electrons    NEL             ....  134
 Basis Dimension        Dim             ....  322

ORBITAL ENERGIES
----------------

  NO   OCC          E(Eh)            E(eV)
   0   2.0000     -88.968972     -2420.9688
   1   2.0000     -88.961052     -2420.7533
   2   2.0000     -10.325519      -280.9717
   3   2.0000     -10.322179      -280.8808
   4   2.0000     -10.314776      -280.6793
   5   2.0000     -10.311658      -280.5945
   6   2.0000     -10.302914      -280.3565
   7   2.0000     -10.297353      -280.2052
   8   2.0000     -10.294398      -280.1248
   9   2.0000     -10.293544      -280.1016
  10   2.0000     -10.293022      -280.0874
  11   2.0000     -10.289108      -279.9809
  12   2.0000     -10.288522      -279.9649
  13   2.0000     -10.284895      -279.8662
  14   2.0000     -10.277063      -279.6531
  15   2.0000     -10.268322      -279.4152
  16   2.0000      -8.084210      -219.9825
  17   2.0000      -8.076739      -219.7792
  18   2.0000      -6.042624      -164.4282
  19   2.0000      -6.038846      -164.3253
  20   2.0000      -6.035130      -164.2242
  21   2.0000      -6.034845      -164.2165
  22   2.0000      -6.031271      -164.1192
  23   2.0000      -6.027404      -164.0140
  24   2.0000      -1.014256       -27.5993
  25   2.0000      -0.987582       -26.8735
  26   2.0000      -0.912759       -24.8374
  27   2.0000      -0.902996       -24.5718
  28   2.0000      -0.874019       -23.7833
  29   2.0000      -0.854763       -23.2593
  30   2.0000      -0.847702       -23.0671
  31   2.0000      -0.817361       -22.2415
  32   2.0000      -0.790659       -21.5149
  33   2.0000      -0.770805       -20.9747
  34   2.0000      -0.712371       -19.3846
  35   2.0000      -0.698437       -19.0054
  36   2.0000      -0.693236       -18.8639
  37   2.0000      -0.664109       -18.0713
  38   2.0000      -0.638291       -17.3688
  39   2.0000      -0.625322       -17.0159
  40   2.0000      -0.594797       -16.1852
  41   2.0000      -0.570250       -15.5173
  42   2.0000      -0.563483       -15.3332
  43   2.0000      -0.555741       -15.1225
  44   2.0000      -0.540466       -14.7068
  45   2.0000      -0.528461       -14.3802
  46   2.0000      -0.526819       -14.3355
  47   2.0000      -0.512134       -13.9359
  48   2.0000      -0.499700       -13.5975
  49   2.0000      -0.493475       -13.4281
  50   2.0000      -0.490516       -13.3476
  51   2.0000      -0.487303       -13.2602
  52   2.0000      -0.471170       -12.8212
  53   2.0000      -0.463924       -12.6240
  54   2.0000      -0.458830       -12.4854
  55   2.0000      -0.454163       -12.3584
  56   2.0000      -0.446787       -12.1577
  57   2.0000      -0.440758       -11.9936
  58   2.0000      -0.432733       -11.7753
  59   2.0000      -0.425825       -11.5873
  60   2.0000      -0.420978       -11.4554
  61   2.0000      -0.414432       -11.2773
  62   2.0000      -0.412939       -11.2366
  63   2.0000      -0.357402        -9.7254
  64   2.0000      -0.335061        -9.1175
  65   2.0000      -0.326816        -8.8931
  66   2.0000      -0.284261        -7.7351
  67   0.0000       0.026868         0.7311
  68   0.0000       0.077830         2.1179
  69   0.0000       0.102526         2.7899
  70   0.0000       0.119767         3.2590
  71   0.0000       0.132059         3.5935

MULLIKEN ATOMIC CHARGES
-----------------------
   0 S :    0.116199
   1 C :   -0.138041
   2 C :   -0.055273
   3 C :   -0.015770
   4 C :   -0.123214
   5 H :    0.010559
   6 C :    0.110750
   7 H :    0.000617
   8 H :    0.006272
   9 C :   -0.086924
  10 H :    0.018947
  11 H :    0.022613
  12 C :   -0.003477
  13 H :    0.027230
  14 H :    0.028351
  15 H :    0.043367
  16 S :    0.084305
  17 C :   -0.099000
  18 C :   -0.007149
  19 C :   -0.052480
  20 C :   -0.119354
  21 H :    0.016059
  22 C :    0.058913
  23 H :    0.020836
  24 H :    0.038482
  25 C :   -0.120369
  26 H :    0.036527
  27 H :    0.033516
  28 C :   -0.010537
  29 H :    0.023588
  30 H :    0.022204
  31 H :    0.014085
  32 H :    0.041479
  33 H :    0.056688
Sum of atomic charges:   -0.0000000

LOEWDIN ATOMIC CHARGES
----------------------
   0 S :    0.408139
   1 C :   -0.189786
   2 C :   -0.064188
   3 C :   -0.061288
   4 C :   -0.197856
   5 H :    0.030204
   6 C :   -0.026413
   7 H :    0.021479
   8 H :    0.030569
   9 C :   -0.037275
  10 H :    0.021031
  11 H :    0.026321
  12 C :   -0.057699
  13 H :    0.013176
  14 H :    0.026874
  15 H :    0.037716
  16 S :    0.402526
  17 C :   -0.172018
  18 C :   -0.058762
  19 C :   -0.062350
  20 C :   -0.205035
  21 H :    0.032329
  22 C :   -0.033838
  23 H :    0.028449
  24 H :    0.032772
  25 C :   -0.045156
  26 H :    0.022195
  27 H :    0.026897
  28 C :   -0.056230
  29 H :    0.017514
  30 H :    0.027930
  31 H :    0.014312
  32 H :    0.023565
  33 H :    0.023896

  Mayer bond orders larger than 0.100000
B(  0-S ,  1-C ) :   1.1281 B(  0-S ,  4-C ) :   1.1475 B(  1-C ,  2-C ) :   1.6131
B(  1-C , 32-H ) :   0.9665 B(  2-C ,  3-C ) :   1.2293 B(  2-C ,  6-C ) :   1.0399
B(  3-C ,  4-C ) :   1.5658 B(  3-C ,  5-H ) :   0.9978 B(  4-C , 20-C ) :   1.0595
B(  6-C ,  7-H ) :   0.9357 B(  6-C ,  8-H ) :   0.9194 B(  6-C ,  9-C ) :   1.0752
B(  9-C , 10-H ) :   0.9547 B(  9-C , 11-H ) :   0.9499 B(  9-C , 12-C ) :   1.0648
B( 12-C , 13-H ) :   0.9760 B( 12-C , 14-H ) :   0.9754 B( 12-C , 15-H ) :   0.9739
B( 16-S , 17-C ) :   1.1491 B( 16-S , 20-C ) :   1.1358 B( 17-C , 18-C ) :   1.6233
B( 17-C , 33-H ) :   0.9652 B( 18-C , 19-C ) :   1.2118 B( 18-C , 21-H ) :   1.0011
B( 19-C , 20-C ) :   1.5992 B( 19-C , 22-C ) :   1.0561 B( 22-C , 23-H ) :   0.9361
B( 22-C , 24-H ) :   0.9315 B( 22-C , 25-C ) :   1.0541 B( 25-C , 26-H ) :   0.9542
B( 25-C , 27-H ) :   0.9585 B( 25-C , 28-C ) :   1.0914 B( 28-C , 29-H ) :   0.9734
B( 28-C , 30-H ) :   0.9734 B( 28-C , 31-H ) :   0.9738

Dispersion correction           -0.014097886
FINAL SINGLE POINT ENERGY     -1339.870482152341

DIPOLE MOMENT
-------------
                                X             Y             Z
Electronic contribution:    -23.31058      11.95100      14.84258
Nuclear contribution   :     23.88987     -12.19455     -15.08876
                        -----------------------------------------
Total Dipole Moment    :      0.57929      -0.24355      -0.24618
                        -----------------------------------------
Magnitude (a.u.)       :      0.67491
Magnitude (Debye)      :      1.71547

Rotational constants in cm-1:     0.016985     0.009742     0.006838
Rotational constants in MHz :   509.191964   292.048800   204.987877

                             ****ORCA TERMINATED NORMALLY****
TOTAL RUN TIME: 0 days 0 hours 0 minutes 33 seconds 671 msec
