                         Program Version 4.2.1 -  RELEASE  -
|  1> ! wB97X-D3 SP def2-SVP
|  2> %pal
|  3> nprocs 16
|  4> end
|  5>
|  6> * xyz 0 1
|  7> S 	 -112.98 	 54.6013 	 110.788
|  8> C 	 -111.81 	 55.2796 	 109.611
|  9> C 	 -110.738 	 54.4123 	 109.432
| 10> C 	 -110.806 	 53.2856 	 110.336
| 11> C 	 -111.931 	 53.2279 	 111.108
| 12> H 	 -110.159 	 52.398 	 110.481
| 13> C 	 -109.504 	 54.6542 	 108.644
| 14> H 	 -109.685 	 54.9599 	 107.599
| 15> H 	 -108.96 	 53.6644 	 108.559
| 16> C 	 -108.362 	 55.4682 	 109.39
| 17> H 	 -107.639 	 55.7002 	 108.667
| 18> H 	 -108.734 	 56.4182 	 109.767
| 19> C 	 -107.777 	 54.7602 	 110.572
| 20> H 	 -107.283 	 55.5122 	 111.134
| 21> H 	 -108.595 	 54.3835 	 111.204
| 22> H 	 -107.091 	 53.8971 	 110.358
| 23> S 	 -112.177 	 53.2462 	 113.908
| 24> C 	 -112.158 	 51.7231 	 114.787
| 25> C 	 -112.316 	 50.6606 	 113.917
| 26> C 	 -112.238 	 51.0491 	 112.565
| 27> C 	 -112.247 	 52.4408 	 112.329
| 28> H 	 -112.476 	 49.6874 	 114.436
| 29> C 	 -112.19 	 49.9931 	 111.467
| 30> H 	 -111.645 	 49.1519 	 111.996
| 31> H 	 -111.487 	 50.2494 	 110.631
| 32> C 	 -113.511 	 49.3319 	 110.964
| 33> H 	 -114.128 	 49.1195 	 111.768
| 34> H 	 -113.321 	 48.3137 	 110.519
| 35> C 	 -114.221 	 50.3331 	 110.058
| 36> H 	 -115.182 	 49.9553 	 109.749
| 37> H 	 -113.814 	 50.516 	 109.055
| 38> H 	 -114.438 	 51.312 	 110.573
| 39> H 	 -111.926 	 56.2044 	 109.056
| 40> H 	 -112.255 	 51.4644 	 115.793
| 41> *
| 42>
| 43>                          ****END OF INPUT****

CARTESIAN COORDINATES (ANGSTROEM)
---------------------------------
  S    -112.980000   54.601300  110.788000
  C    -111.810000   55.279600  109.611000
  C    -110.738000   54.412300  109.432000
  C    -110.806000   53.285600  110.336000
  C    -111.931000   53.227900  111.108000
  H    -110.159000   52.398000  110.481000
  C    -109.504000   54.654200  108.644000
  H    -109.685000   54.959900  107.599000
  H    -108.960000   53.664400  108.559000
  C    -108.362000   55.468200  109.390000
  H    -107.639000   55.700200  108.667000
  H    -108.734000   56.418200  109.767000
  C    -107.777000   54.760200  110.572000
  H    -107.283000   55.512200  111.134000
  H    -108.595000   54.383500  111.204000
  H    -107.091000   53.897100  110.358000
  S    -112.177000   53.246200  113.908000
  C    -112.158000   51.723100  114.787000
  C    -112.316000   50.660600  113.917000
  C    -112.238000   51.049100  112.565000
  C    -112.247000   52.440800  112.329000
  H    -112.476000   49.687400  114.436000
  C    -112.190000   49.993100  111.467000
  H    -111.645000   49.151900  111.996000
  H    -111.487000   50.249400  110.631000
  C    -113.511000   49.331900  110.964000
  H    -114.128000   49.119500  111.768000
  H    -113.321000   48.313700  110.519000
  C    -114.221000   50.333100  110.058000
  H    -115.182000   49.955300  109.749000
  H    -113.814000   50.516000  109.055000
  H    -114.438000   51.312000  110.573000
  H    -111.926000   56.204400  109.056000
  H    -112.255000   51.464400  115.793000

 Total Charge           Charge          ....    0
 Multiplicity           Mult            ....    1
 Number of Electrons    NEL             ....  134
 Basis Dimension        Dim             ....  322

ORBITAL ENERGIES
----------------

  NO   OCC          E(Eh)            E(eV)
   0   2.0000     -88.969118     -2420.9728
   1   2.0000     -88.965290     -2420.8686
   2   2.0000     -10.334044      -281.2036
   3   2.0000     -10.331913      -281.1456
   4   2.0000     -10.320423      -280.8330
   5   2.0000     -10.315549      -280.7004
   6   2.0000     -10.309005      -280.5223
   7   2.0000     -10.306491      -280.4539
   8   2.0000     -10.298638      -280.2402
   9   2.0000     -10.297026      -280.1963
  10   2.0000     -10.296223      -280.1745
  11   2.0000     -10.296126      -280.1718
  12   2.0000     -10.286616      -279.9130
  13   2.0000     -10.282609      -279.8040
  14   2.0000     -10.273069      -279.5444
  15   2.0000     -10.271271      -279.4955
  16   2.0000      -8.082879      -219.9463
  17   2.0000      -8.079280      -219.8484
  18   2.0000      -6.041588      -164.4000
  19   2.0000      -6.037890      -164.2994
  20   2.0000      -6.037381      -164.2855
  21   2.0000      -6.033809      -164.1883
  22   2.0000      -6.033568      -164.1817
  23   2.0000      -6.030057      -164.0862
  24   2.0000      -1.003141       -27.2969
  25   2.0000      -0.981836       -26.7171
  26   2.0000      -0.911747       -24.8099
  27   2.0000      -0.902238       -24.5511
  28   2.0000      -0.869674       -23.6650
  29   2.0000      -0.846494       -23.0343
  30   2.0000      -0.843761       -22.9599
  31   2.0000      -0.818837       -22.2817
  32   2.0000      -0.779958       -21.2237
  33   2.0000      -0.768040       -20.8994
  34   2.0000      -0.706942       -19.2369
  35   2.0000      -0.702262       -19.1095
  36   2.0000      -0.695341       -18.9212
  37   2.0000      -0.653970       -17.7954
  38   2.0000      -0.644458       -17.5366
  39   2.0000      -0.611506       -16.6399
  40   2.0000      -0.590526       -16.0690
  41   2.0000      -0.576966       -15.7000
  42   2.0000      -0.552912       -15.0455
  43   2.0000      -0.546804       -14.8793
  44   2.0000      -0.544247       -14.8097
  45   2.0000      -0.526096       -14.3158
  46   2.0000      -0.516308       -14.0495
  47   2.0000      -0.510796       -13.8995
  48   2.0000      -0.502091       -13.6626
  49   2.0000      -0.496468       -13.5096
  50   2.0000      -0.486147       -13.2287
  51   2.0000      -0.480343       -13.0708
  52   2.0000      -0.468260       -12.7420
  53   2.0000      -0.460504       -12.5309
  54   2.0000      -0.455649       -12.3988
  55   2.0000      -0.443747       -12.0750
  56   2.0000      -0.439229       -11.9520
  57   2.0000      -0.433321       -11.7913
  58   2.0000      -0.426332       -11.6011
  59   2.0000      -0.423303       -11.5187
  60   2.0000      -0.419696       -11.4205
  61   2.0000      -0.413360       -11.2481
  62   2.0000      -0.407236       -11.0815
  63   2.0000      -0.345145        -9.3919
  64   2.0000      -0.329141        -8.9564
  65   2.0000      -0.328334        -8.9344
  66   2.0000      -0.299802        -8.1580
  67   0.0000       0.030085         0.8187
  68   0.0000       0.058296         1.5863
  69   0.0000       0.106340         2.8937
  70   0.0000       0.117802         3.2056
  71   0.0000       0.124797         3.3959

MULLIKEN ATOMIC CHARGES
-----------------------
   0 S :    0.091271
   1 C :   -0.114100
   2 C :   -0.062690
   3 C :    0.029635
   4 C :   -0.181226
   5 H :    0.029540
   6 C :    0.008042
   7 H :    0.039794
   8 H :    0.026674
   9 C :   -0.029752
  10 H :    0.019693
  11 H :    0.021010
  12 C :   -0.065955
  13 H :    0.026913
  14 H :    0.045196
  15 H :    0.039416
  16 S :    0.113514
  17 C :   -0.060499
  18 C :   -0.073411
  19 C :   -0.040796
  20 C :   -0.113463
  21 H :    0.039757
  22 C :    0.007256
  23 H :    0.022436
  24 H :    0.035347
  25 C :   -0.007713
  26 H :    0.005903
  27 H :    0.036502
  28 C :   -0.061929
  29 H :    0.011577
  30 H :    0.030824
  31 H :    0.046810
  32 H :    0.051932
  33 H :    0.032489
Sum of atomic charges:   -0.0000000

LOEWDIN ATOMIC CHARGES
----------------------
   0 S :    0.383366
   1 C :   -0.179185
   2 C :   -0.065695
   3 C :   -0.065791
   4 C :   -0.189740
   5 H :    0.039786
   6 C :   -0.042736
   7 H :    0.032341
   8 H :    0.037431
   9 C :   -0.030025
  10 H :    0.017139
  11 H :    0.022042
  12 C :   -0.068762
  13 H :    0.024905
  14 H :    0.031697
  15 H :    0.028042
  16 S :    0.404959
  17 C :   -0.177422
  18 C :   -0.078195
  19 C :   -0.058354
  20 C :   -0.205507
  21 H :    0.042963
  22 C :   -0.041015
  23 H :    0.033675
  24 H :    0.031992
  25 C :   -0.034283
  26 H :    0.015053
  27 H :    0.032402
  28 C :   -0.075018
  29 H :    0.019132
  30 H :    0.026576
  31 H :    0.034295
  32 H :    0.030892
  33 H :    0.023035

  Mayer bond orders larger than 0.100000
B(  0-S ,  1-C ) :   1.1281 B(  0-S ,  4-C ) :   1.1394 B(  1-C ,  2-C ) :   1.6182
B(  1-C , 32-H ) :   0.9710 B(  2-C ,  3-C ) :   1.2004 B(  2-C ,  6-C ) :   1.0448
B(  3-C ,  4-C ) :   1.6308 B(  3-C ,  5-H ) :   0.9765 B(  4-C , 20-C ) :   0.9952
B(  6-C ,  7-H ) :   0.9427 B(  6-C ,  8-H ) :   0.9419 B(  6-C ,  9-C ) :   1.0526
B(  9-C , 10-H ) :   0.9544 B(  9-C , 11-H ) :   0.9586 B(  9-C , 12-C ) :   1.0854
B( 12-C , 13-H ) :   0.9694 B( 12-C , 14-H ) :   0.9689 B( 12-C , 15-H ) :   0.9724
B( 16-S , 17-C ) :   1.1596 B( 16-S , 20-C ) :   1.1268 B( 17-C , 18-C ) :   1.6272
B( 17-C , 20-C ) :   0.1007 B( 17-C , 33-H ) :   0.9644 B( 18-C , 19-C ) :   1.2503
B( 18-C , 21-H ) :   0.9818 B( 19-C , 20-C ) :   1.5800 B( 19-C , 22-C ) :   1.0397
B( 22-C , 23-H ) :   0.9331 B( 22-C , 24-H ) :   0.9421 B( 22-C , 25-C ) :   1.0698
B( 25-C , 26-H ) :   0.9500 B( 25-C , 27-H ) :   0.9534 B( 25-C , 28-C ) :   1.0795
B( 28-C , 29-H ) :   0.9704 B( 28-C , 30-H ) :   0.9763 B( 28-C , 31-H ) :   0.9715

Dispersion correction           -0.015183115
FINAL SINGLE POINT ENERGY     -1339.860241379218

DIPOLE MOMENT
-------------
                                X             Y             Z
Electronic contribution:    -10.48957       8.97108      12.50054
Nuclear contribution   :     10.87040      -9.34641     -12.63204
                        -----------------------------------------
Total Dipole Moment    :      0.38083      -0.37533      -0.13150
                        -----------------------------------------
Magnitude (a.u.)       :      0.55064
Magnitude (Debye)      :      1.39960

Rotational constants in cm-1:     0.019107     0.008802     0.007940
Rotational constants in MHz :   572.823223   263.891615   238.028074

                             ****ORCA TERMINATED NORMALLY****
TOTAL RUN TIME: 0 days 0 hours 0 minutes 34 seconds 787 msec
