                         Program Version 4.2.1 -  RELEASE  -
|  1> ! wB97X-D3 SP def2-SVP
|  2> %pal
|  3> nprocs 16
|  4> end
|  5>
|  6> * xyz 0 1
|  7> S 	 4.22415 	 -7.7918 	 80.4832
|  8> C 	 4.88361 	 -7.8872 	 82.1305
|  9> C 	 4.97706 	 -6.64586 	 82.7102
| 10> C 	 4.25677 	 -5.66349 	 82.0223
| 11> C 	 3.80187 	 -6.11634 	 80.7725
| 12> H 	 4.13119 	 -4.62583 	 82.2687
| 13> C 	 5.83843 	 -6.40628 	 83.9895
| 14> H 	 6.69863 	 -5.79365 	 83.791
| 15> H 	 6.33552 	 -7.40897 	 84.0955
| 16> C 	 5.03516 	 -6.12656 	 85.3009
| 17> H 	 5.75039 	 -6.19442 	 86.0708
| 18> H 	 4.60523 	 -5.20602 	 85.2829
| 19> C 	 3.97849 	 -7.18523 	 85.5762
| 20> H 	 3.54395 	 -7.09509 	 86.5606
| 21> H 	 3.17184 	 -7.15779 	 84.8405
| 22> H 	 4.38403 	 -8.19502 	 85.5681
| 23> S 	 4.27515 	 -4.32463 	 78.7692
| 24> C 	 2.9396 	 -3.64543 	 77.9035
| 25> C 	 1.70759 	 -4.17167 	 78.2782
| 26> C 	 1.88144 	 -5.02271 	 79.4115
| 27> C 	 3.20489 	 -5.32596 	 79.7698
| 28> H 	 0.836346 	 -3.86034 	 77.7985
| 29> C 	 0.666463 	 -5.4936 	 80.279
| 30> H 	 0.403117 	 -4.66806 	 80.89
| 31> H 	 1.02109 	 -6.24545 	 81.0873
| 32> C 	 -0.534446 	 -5.84523 	 79.4497
| 33> H 	 -0.713188 	 -5.09641 	 78.7707
| 34> H 	 -1.35644 	 -5.94407 	 80.106
| 35> C 	 -0.232814 	 -7.07705 	 78.6532
| 36> H 	 -0.182205 	 -7.93999 	 79.2954
| 37> H 	 0.664024 	 -7.06965 	 78.0977
| 38> H 	 -0.954305 	 -7.32891 	 77.9418
| 39> H 	 5.41781 	 -8.79776 	 82.4962
| 40> H 	 3.07958 	 -2.79234 	 77.2342
| 41> *
| 42>
| 43>                          ****END OF INPUT****

CARTESIAN COORDINATES (ANGSTROEM)
---------------------------------
  S      4.224150   -7.791800   80.483200
  C      4.883610   -7.887200   82.130500
  C      4.977060   -6.645860   82.710200
  C      4.256770   -5.663490   82.022300
  C      3.801870   -6.116340   80.772500
  H      4.131190   -4.625830   82.268700
  C      5.838430   -6.406280   83.989500
  H      6.698630   -5.793650   83.791000
  H      6.335520   -7.408970   84.095500
  C      5.035160   -6.126560   85.300900
  H      5.750390   -6.194420   86.070800
  H      4.605230   -5.206020   85.282900
  C      3.978490   -7.185230   85.576200
  H      3.543950   -7.095090   86.560600
  H      3.171840   -7.157790   84.840500
  H      4.384030   -8.195020   85.568100
  S      4.275150   -4.324630   78.769200
  C      2.939600   -3.645430   77.903500
  C      1.707590   -4.171670   78.278200
  C      1.881440   -5.022710   79.411500
  C      3.204890   -5.325960   79.769800
  H      0.836346   -3.860340   77.798500
  C      0.666463   -5.493600   80.279000
  H      0.403117   -4.668060   80.890000
  H      1.021090   -6.245450   81.087300
  C     -0.534446   -5.845230   79.449700
  H     -0.713188   -5.096410   78.770700
  H     -1.356440   -5.944070   80.106000
  C     -0.232814   -7.077050   78.653200
  H     -0.182205   -7.939990   79.295400
  H      0.664024   -7.069650   78.097700
  H     -0.954305   -7.328910   77.941800
  H      5.417810   -8.797760   82.496200
  H      3.079580   -2.792340   77.234200

 Total Charge           Charge          ....    0
 Multiplicity           Mult            ....    1
 Number of Electrons    NEL             ....  134
 Basis Dimension        Dim             ....  322

ORBITAL ENERGIES
----------------

  NO   OCC          E(Eh)            E(eV)
   0   2.0000     -88.966436     -2420.8998
   1   2.0000     -88.961362     -2420.7617
   2   2.0000     -10.325453      -280.9699
   3   2.0000     -10.319415      -280.8056
   4   2.0000     -10.319072      -280.7962
   5   2.0000     -10.316087      -280.7150
   6   2.0000     -10.307174      -280.4725
   7   2.0000     -10.299794      -280.2716
   8   2.0000     -10.296765      -280.1892
   9   2.0000     -10.292926      -280.0848
  10   2.0000     -10.292509      -280.0734
  11   2.0000     -10.288738      -279.9708
  12   2.0000     -10.278013      -279.6789
  13   2.0000     -10.271781      -279.5094
  14   2.0000     -10.270366      -279.4709
  15   2.0000     -10.255547      -279.0676
  16   2.0000      -8.080710      -219.8873
  17   2.0000      -8.076372      -219.7693
  18   2.0000      -6.039063      -164.3313
  19   2.0000      -6.035387      -164.2312
  20   2.0000      -6.034719      -164.2131
  21   2.0000      -6.031548      -164.1268
  22   2.0000      -6.030749      -164.1050
  23   2.0000      -6.027365      -164.0130
  24   2.0000      -1.004411       -27.3314
  25   2.0000      -0.981071       -26.6963
  26   2.0000      -0.915151       -24.9025
  27   2.0000      -0.908666       -24.7261
  28   2.0000      -0.871704       -23.7203
  29   2.0000      -0.846882       -23.0448
  30   2.0000      -0.843452       -22.9515
  31   2.0000      -0.810781       -22.0625
  32   2.0000      -0.784870       -21.3574
  33   2.0000      -0.771429       -20.9917
  34   2.0000      -0.714672       -19.4472
  35   2.0000      -0.701735       -19.0952
  36   2.0000      -0.692778       -18.8514
  37   2.0000      -0.656661       -17.8687
  38   2.0000      -0.640665       -17.4334
  39   2.0000      -0.617177       -16.7942
  40   2.0000      -0.602173       -16.3860
  41   2.0000      -0.569877       -15.5071
  42   2.0000      -0.555418       -15.1137
  43   2.0000      -0.553541       -15.0626
  44   2.0000      -0.547385       -14.8951
  45   2.0000      -0.538911       -14.6645
  46   2.0000      -0.520923       -14.1750
  47   2.0000      -0.511409       -13.9162
  48   2.0000      -0.497721       -13.5437
  49   2.0000      -0.493263       -13.4224
  50   2.0000      -0.484129       -13.1738
  51   2.0000      -0.472789       -12.8652
  52   2.0000      -0.465978       -12.6799
  53   2.0000      -0.461633       -12.5617
  54   2.0000      -0.455553       -12.3962
  55   2.0000      -0.449940       -12.2435
  56   2.0000      -0.447875       -12.1873
  57   2.0000      -0.438619       -11.9354
  58   2.0000      -0.431727       -11.7479
  59   2.0000      -0.426217       -11.5979
  60   2.0000      -0.422429       -11.4949
  61   2.0000      -0.417580       -11.3629
  62   2.0000      -0.410896       -11.1810
  63   2.0000      -0.337032        -9.1711
  64   2.0000      -0.328433        -8.9371
  65   2.0000      -0.312338        -8.4991
  66   2.0000      -0.309069        -8.4102
  67   0.0000       0.039756         1.0818
  68   0.0000       0.051382         1.3982
  69   0.0000       0.108381         2.9492
  70   0.0000       0.120729         3.2852
  71   0.0000       0.132940         3.6175

MULLIKEN ATOMIC CHARGES
-----------------------
   0 S :    0.122399
   1 C :   -0.140439
   2 C :   -0.092062
   3 C :    0.055624
   4 C :   -0.193916
   5 H :    0.010100
   6 C :    0.047958
   7 H :    0.040497
   8 H :    0.006524
   9 C :    0.007412
  10 H :    0.019043
  11 H :    0.015169
  12 C :   -0.060332
  13 H :    0.028000
  14 H :    0.041720
  15 H :    0.017533
  16 S :    0.109716
  17 C :   -0.102250
  18 C :   -0.017218
  19 C :   -0.029217
  20 C :   -0.189681
  21 H :    0.004148
  22 C :    0.048808
  23 H :    0.022753
  24 H :    0.044582
  25 C :   -0.002653
  26 H :    0.002646
  27 H :    0.018038
  28 C :   -0.013347
  29 H :    0.014704
  30 H :    0.025076
  31 H :    0.007113
  32 H :    0.065585
  33 H :    0.065966
Sum of atomic charges:   -0.0000000

LOEWDIN ATOMIC CHARGES
----------------------
   0 S :    0.403082
   1 C :   -0.197193
   2 C :   -0.067101
   3 C :   -0.053474
   4 C :   -0.201655
   5 H :    0.031889
   6 C :   -0.026296
   7 H :    0.029354
   8 H :    0.031209
   9 C :   -0.024289
  10 H :    0.021970
  11 H :    0.010432
  12 C :   -0.061940
  13 H :    0.024605
  14 H :    0.026310
  15 H :    0.022608
  16 S :    0.406225
  17 C :   -0.180037
  18 C :   -0.074914
  19 C :   -0.039326
  20 C :   -0.217340
  21 H :    0.023319
  22 C :   -0.028911
  23 H :    0.025328
  24 H :    0.040284
  25 C :   -0.031063
  26 H :    0.012384
  27 H :    0.023418
  28 C :   -0.056525
  29 H :    0.024656
  30 H :    0.022688
  31 H :    0.015731
  32 H :    0.033962
  33 H :    0.030610

  Mayer bond orders larger than 0.100000
B(  0-S ,  1-C ) :   1.1405 B(  0-S ,  4-C ) :   1.1575 B(  1-C ,  2-C ) :   1.6151
B(  1-C ,  4-C ) :   0.1069 B(  1-C , 32-H ) :   0.9559 B(  2-C ,  3-C ) :   1.2373
B(  2-C ,  6-C ) :   1.0073 B(  3-C ,  4-C ) :   1.5640 B(  3-C ,  5-H ) :   1.0014
B(  4-C , 20-C ) :   1.0610 B(  6-C ,  7-H ) :   0.9487 B(  6-C ,  8-H ) :   0.9385
B(  6-C ,  9-C ) :   1.0600 B(  9-C , 10-H ) :   0.9546 B(  9-C , 11-H ) :   0.9601
B(  9-C , 12-C ) :   1.0827 B( 12-C , 13-H ) :   0.9732 B( 12-C , 14-H ) :   0.9721
B( 12-C , 15-H ) :   0.9756 B( 16-S , 17-C ) :   1.1902 B( 16-S , 20-C ) :   1.1248
B( 17-C , 18-C ) :   1.5831 B( 17-C , 20-C ) :   0.1061 B( 17-C , 33-H ) :   0.9622
B( 18-C , 19-C ) :   1.2378 B( 18-C , 21-H ) :   1.0039 B( 19-C , 20-C ) :   1.5893
B( 19-C , 22-C ) :   1.0223 B( 22-C , 23-H ) :   0.9335 B( 22-C , 24-H ) :   0.9395
B( 22-C , 25-C ) :   1.0783 B( 25-C , 26-H ) :   0.9465 B( 25-C , 27-H ) :   0.9487
B( 25-C , 28-C ) :   1.0882 B( 28-C , 29-H ) :   0.9717 B( 28-C , 30-H ) :   0.9707
B( 28-C , 31-H ) :   0.9705

Dispersion correction           -0.014860383
FINAL SINGLE POINT ENERGY     -1339.862193456014

DIPOLE MOMENT
-------------
                                X             Y             Z
Electronic contribution:     11.84474       4.12702     -16.14693
Nuclear contribution   :    -12.01876      -3.84235      16.54230
                        -----------------------------------------
Total Dipole Moment    :     -0.17402       0.28467       0.39537
                        -----------------------------------------
Magnitude (a.u.)       :      0.51734
Magnitude (Debye)      :      1.31497

Rotational constants in cm-1:     0.021174     0.007992     0.007100
Rotational constants in MHz :   634.783055   239.601206   212.846288

                             ****ORCA TERMINATED NORMALLY****
TOTAL RUN TIME: 0 days 0 hours 0 minutes 34 seconds 795 msec
