                         Program Version 4.2.1 -  RELEASE  -
|  1> ! wB97X-D3 SP def2-SVP
|  2> %pal
|  3> nprocs 16
|  4> end
|  5>
|  6> * xyz 0 1
|  7> S 	 -76.3152 	 48.908 	 137.995
|  8> C 	 -77.5868 	 48.2518 	 139.058
|  9> C 	 -78.3168 	 49.2949 	 139.658
| 10> C 	 -78.0167 	 50.5565 	 139.052
| 11> C 	 -76.9736 	 50.4717 	 138.136
| 12> H 	 -78.5402 	 51.4615 	 139.125
| 13> C 	 -79.3872 	 49.1186 	 140.745
| 14> H 	 -79.3015 	 49.9689 	 141.352
| 15> H 	 -79.176 	 48.2309 	 141.409
| 16> C 	 -80.872 	 49.1906 	 140.241
| 17> H 	 -80.9388 	 50.0495 	 139.641
| 18> H 	 -81.2374 	 48.3759 	 139.612
| 19> C 	 -81.9936 	 49.3169 	 141.303
| 20> H 	 -82.9469 	 49.1769 	 140.811
| 21> H 	 -81.9377 	 48.5639 	 142.086
| 22> H 	 -81.8957 	 50.3283 	 141.705
| 23> S 	 -76.0283 	 51.2732 	 135.566
| 24> C 	 -75.5907 	 52.8733 	 135.283
| 25> C 	 -75.8872 	 53.6543 	 136.392
| 26> C 	 -76.2956 	 52.9103 	 137.489
| 27> C 	 -76.4831 	 51.5736 	 137.282
| 28> H 	 -75.8195 	 54.7615 	 136.287
| 29> C 	 -76.7538 	 53.701 	 138.712
| 30> H 	 -75.7909 	 54.1392 	 138.95
| 31> H 	 -76.976 	 52.9371 	 139.43
| 32> C 	 -77.8584 	 54.7624 	 138.537
| 33> H 	 -77.529 	 55.4745 	 137.745
| 34> H 	 -77.825 	 55.3363 	 139.431
| 35> C 	 -79.3196 	 54.1962 	 138.271
| 36> H 	 -80.0359 	 54.961 	 138.183
| 37> H 	 -79.7971 	 53.5798 	 139.033
| 38> H 	 -79.3012 	 53.6367 	 137.324
| 39> H 	 -77.7005 	 47.2098 	 139.232
| 40> H 	 -75.1906 	 53.2858 	 134.387
| 41> *
| 42>
| 43>                          ****END OF INPUT****

CARTESIAN COORDINATES (ANGSTROEM)
---------------------------------
  S    -76.315200   48.908000  137.995000
  C    -77.586800   48.251800  139.058000
  C    -78.316800   49.294900  139.658000
  C    -78.016700   50.556500  139.052000
  C    -76.973600   50.471700  138.136000
  H    -78.540200   51.461500  139.125000
  C    -79.387200   49.118600  140.745000
  H    -79.301500   49.968900  141.352000
  H    -79.176000   48.230900  141.409000
  C    -80.872000   49.190600  140.241000
  H    -80.938800   50.049500  139.641000
  H    -81.237400   48.375900  139.612000
  C    -81.993600   49.316900  141.303000
  H    -82.946900   49.176900  140.811000
  H    -81.937700   48.563900  142.086000
  H    -81.895700   50.328300  141.705000
  S    -76.028300   51.273200  135.566000
  C    -75.590700   52.873300  135.283000
  C    -75.887200   53.654300  136.392000
  C    -76.295600   52.910300  137.489000
  C    -76.483100   51.573600  137.282000
  H    -75.819500   54.761500  136.287000
  C    -76.753800   53.701000  138.712000
  H    -75.790900   54.139200  138.950000
  H    -76.976000   52.937100  139.430000
  C    -77.858400   54.762400  138.537000
  H    -77.529000   55.474500  137.745000
  H    -77.825000   55.336300  139.431000
  C    -79.319600   54.196200  138.271000
  H    -80.035900   54.961000  138.183000
  H    -79.797100   53.579800  139.033000
  H    -79.301200   53.636700  137.324000
  H    -77.700500   47.209800  139.232000
  H    -75.190600   53.285800  134.387000

 Total Charge           Charge          ....    0
 Multiplicity           Mult            ....    1
 Number of Electrons    NEL             ....  134
 Basis Dimension        Dim             ....  322

ORBITAL ENERGIES
----------------

  NO   OCC          E(Eh)            E(eV)
   0   2.0000     -88.968268     -2420.9496
   1   2.0000     -88.962870     -2420.8028
   2   2.0000     -10.329972      -281.0928
   3   2.0000     -10.326768      -281.0056
   4   2.0000     -10.315696      -280.7044
   5   2.0000     -10.312197      -280.6091
   6   2.0000     -10.309303      -280.5304
   7   2.0000     -10.298078      -280.2250
   8   2.0000     -10.296481      -280.1815
   9   2.0000     -10.294027      -280.1147
  10   2.0000     -10.291402      -280.0433
  11   2.0000     -10.288601      -279.9671
  12   2.0000     -10.285649      -279.8867
  13   2.0000     -10.284201      -279.8473
  14   2.0000     -10.281833      -279.7829
  15   2.0000     -10.278924      -279.7038
  16   2.0000      -8.083205      -219.9552
  17   2.0000      -8.078105      -219.8164
  18   2.0000      -6.041631      -164.4011
  19   2.0000      -6.037675      -164.2935
  20   2.0000      -6.036481      -164.2610
  21   2.0000      -6.034055      -164.1950
  22   2.0000      -6.032437      -164.1510
  23   2.0000      -6.029065      -164.0592
  24   2.0000      -1.009628       -27.4734
  25   2.0000      -0.987794       -26.8792
  26   2.0000      -0.907665       -24.6988
  27   2.0000      -0.907119       -24.6840
  28   2.0000      -0.866748       -23.5854
  29   2.0000      -0.852779       -23.2053
  30   2.0000      -0.844607       -22.9829
  31   2.0000      -0.812415       -22.1069
  32   2.0000      -0.787263       -21.4225
  33   2.0000      -0.777673       -21.1616
  34   2.0000      -0.713406       -19.4128
  35   2.0000      -0.700342       -19.0573
  36   2.0000      -0.698253       -19.0004
  37   2.0000      -0.658682       -17.9237
  38   2.0000      -0.645823       -17.5737
  39   2.0000      -0.619964       -16.8701
  40   2.0000      -0.591522       -16.0961
  41   2.0000      -0.571147       -15.5417
  42   2.0000      -0.563151       -15.3241
  43   2.0000      -0.554093       -15.0776
  44   2.0000      -0.533774       -14.5247
  45   2.0000      -0.525506       -14.2997
  46   2.0000      -0.517715       -14.0877
  47   2.0000      -0.513294       -13.9675
  48   2.0000      -0.506601       -13.7853
  49   2.0000      -0.502606       -13.6766
  50   2.0000      -0.491873       -13.3845
  51   2.0000      -0.483149       -13.1471
  52   2.0000      -0.472679       -12.8623
  53   2.0000      -0.468101       -12.7377
  54   2.0000      -0.460152       -12.5214
  55   2.0000      -0.450755       -12.2657
  56   2.0000      -0.445480       -12.1221
  57   2.0000      -0.439313       -11.9543
  58   2.0000      -0.436800       -11.8859
  59   2.0000      -0.431198       -11.7335
  60   2.0000      -0.425499       -11.5784
  61   2.0000      -0.414623       -11.2825
  62   2.0000      -0.405157       -11.0249
  63   2.0000      -0.347447        -9.4545
  64   2.0000      -0.332976        -9.0607
  65   2.0000      -0.328884        -8.9494
  66   2.0000      -0.288043        -7.8381
  67   0.0000       0.026646         0.7251
  68   0.0000       0.079034         2.1506
  69   0.0000       0.104877         2.8538
  70   0.0000       0.117908         3.2084
  71   0.0000       0.131374         3.5749

MULLIKEN ATOMIC CHARGES
-----------------------
   0 S :    0.117912
   1 C :   -0.129494
   2 C :   -0.066836
   3 C :    0.038173
   4 C :   -0.140450
   5 H :   -0.029306
   6 C :    0.099630
   7 H :    0.005338
   8 H :    0.037834
   9 C :   -0.081117
  10 H :    0.012671
  11 H :    0.028475
  12 C :   -0.049229
  13 H :    0.034809
  14 H :    0.032521
  15 H :    0.031441
  16 S :    0.104018
  17 C :   -0.074029
  18 C :   -0.082751
  19 C :   -0.044295
  20 C :   -0.145941
  21 H :    0.032581
  22 C :    0.064443
  23 H :    0.028792
  24 H :    0.008147
  25 C :   -0.033381
  26 H :    0.029589
  27 H :    0.026113
  28 C :   -0.052697
  29 H :    0.020822
  30 H :    0.038403
  31 H :    0.050412
  32 H :    0.040441
  33 H :    0.046960
Sum of atomic charges:   -0.0000000

LOEWDIN ATOMIC CHARGES
----------------------
   0 S :    0.418425
   1 C :   -0.185467
   2 C :   -0.050642
   3 C :   -0.065023
   4 C :   -0.197742
   5 H :    0.019866
   6 C :   -0.027828
   7 H :    0.024304
   8 H :    0.036344
   9 C :   -0.038815
  10 H :    0.016356
  11 H :    0.023150
  12 C :   -0.061708
  13 H :    0.027818
  14 H :    0.022385
  15 H :    0.023352
  16 S :    0.412361
  17 C :   -0.194425
  18 C :   -0.087284
  19 C :   -0.065869
  20 C :   -0.193445
  21 H :    0.036785
  22 C :   -0.030427
  23 H :    0.035818
  24 H :    0.022184
  25 C :   -0.029934
  26 H :    0.028422
  27 H :    0.021904
  28 C :   -0.068665
  29 H :    0.021372
  30 H :    0.025114
  31 H :    0.033619
  32 H :    0.020402
  33 H :    0.027296

  Mayer bond orders larger than 0.100000
B(  0-S ,  1-C ) :   1.1338 B(  0-S ,  4-C ) :   1.1731 B(  1-C ,  2-C ) :   1.5890
B(  1-C , 32-H ) :   0.9794 B(  2-C ,  3-C ) :   1.2336 B(  2-C ,  6-C ) :   1.0327
B(  3-C ,  4-C ) :   1.5603 B(  3-C ,  5-H ) :   0.9929 B(  4-C , 20-C ) :   1.0414
B(  6-C ,  7-H ) :   0.9310 B(  6-C ,  8-H ) :   0.9456 B(  6-C ,  9-C ) :   1.0509
B(  9-C , 10-H ) :   0.9573 B(  9-C , 11-H ) :   0.9624 B(  9-C , 12-C ) :   1.0822
B( 12-C , 13-H ) :   0.9756 B( 12-C , 14-H ) :   0.9779 B( 12-C , 15-H ) :   0.9780
B( 16-S , 17-C ) :   1.1914 B( 16-S , 20-C ) :   1.1244 B( 17-C , 18-C ) :   1.5672
B( 17-C , 20-C ) :   0.1010 B( 17-C , 33-H ) :   0.9698 B( 18-C , 19-C ) :   1.2672
B( 18-C , 21-H ) :   0.9879 B( 19-C , 20-C ) :   1.5827 B( 19-C , 22-C ) :   1.0189
B( 22-C , 23-H ) :   0.9256 B( 22-C , 24-H ) :   0.9358 B( 22-C , 25-C ) :   1.0781
B( 25-C , 26-H ) :   0.9506 B( 25-C , 27-H ) :   0.9530 B( 25-C , 28-C ) :   1.0669
B( 28-C , 29-H ) :   0.9709 B( 28-C , 30-H ) :   0.9684 B( 28-C , 31-H ) :   0.9771

Dispersion correction           -0.014514037
FINAL SINGLE POINT ENERGY     -1339.869866700575

DIPOLE MOMENT
-------------
                                X             Y             Z
Electronic contribution:     23.63798     -10.49535     -17.37029
Nuclear contribution   :    -24.13629      10.96275      17.66557
                        -----------------------------------------
Total Dipole Moment    :     -0.49831       0.46740       0.29528
                        -----------------------------------------
Magnitude (a.u.)       :      0.74429
Magnitude (Debye)      :      1.89183

Rotational constants in cm-1:     0.018751     0.008913     0.006592
Rotational constants in MHz :   562.133285   267.218829   197.633512

                             ****ORCA TERMINATED NORMALLY****
TOTAL RUN TIME: 0 days 0 hours 0 minutes 33 seconds 255 msec
