                         Program Version 4.2.1 -  RELEASE  -
|  1> ! wB97X-D3 SP def2-SVP
|  2> %pal
|  3> nprocs 16
|  4> end
|  5>
|  6> * xyz 0 1
|  7> S 	 -14.7667 	 35.1631 	 36.643
|  8> C 	 -14.0509 	 36.0019 	 38.0346
|  9> C 	 -12.8552 	 35.4321 	 38.4053
| 10> C 	 -12.4685 	 34.3907 	 37.5194
| 11> C 	 -13.5719 	 33.9853 	 36.6919
| 12> H 	 -11.6249 	 33.7924 	 37.5345
| 13> C 	 -12.0538 	 35.8417 	 39.6171
| 14> H 	 -12.351 	 36.7778 	 39.9481
| 15> H 	 -11.0512 	 36.001 	 39.3268
| 16> C 	 -12.1919 	 34.8606 	 40.8006
| 17> H 	 -11.5867 	 33.9816 	 40.629
| 18> H 	 -11.9244 	 35.214 	 41.7956
| 19> C 	 -13.7179 	 34.4719 	 41.01
| 20> H 	 -13.7568 	 33.7973 	 41.8784
| 21> H 	 -14.227 	 35.3736 	 41.3636
| 22> H 	 -14.144 	 33.9385 	 40.1359
| 23> S 	 -13.6167 	 33.1457 	 34.0861
| 24> C 	 -13.6763 	 31.4254 	 33.7888
| 25> C 	 -13.2213 	 30.7461 	 34.8673
| 26> C 	 -13.0235 	 31.5628 	 36.0205
| 27> C 	 -13.5476 	 32.845 	 35.8344
| 28> H 	 -13.0001 	 29.6448 	 34.6755
| 29> C 	 -12.5872 	 30.8701 	 37.2988
| 30> H 	 -13.2984 	 30.0839 	 37.5339
| 31> H 	 -12.7649 	 31.5431 	 38.1577
| 32> C 	 -11.1694 	 30.3263 	 37.4048
| 33> H 	 -10.5393 	 31.1128 	 37.6785
| 34> H 	 -10.6851 	 30.0067 	 36.4454
| 35> C 	 -10.8956 	 29.2392 	 38.4614
| 36> H 	 -11.1982 	 28.1238 	 38.3316
| 37> H 	 -11.2336 	 29.5502 	 39.4816
| 38> H 	 -9.84166 	 29.2205 	 38.5238
| 39> H 	 -14.4908 	 36.8482 	 38.5049
| 40> H 	 -13.6574 	 30.9321 	 32.8303
| 41> *
| 42>
| 43>                          ****END OF INPUT****

CARTESIAN COORDINATES (ANGSTROEM)
---------------------------------
  S    -14.766700   35.163100   36.643000
  C    -14.050900   36.001900   38.034600
  C    -12.855200   35.432100   38.405300
  C    -12.468500   34.390700   37.519400
  C    -13.571900   33.985300   36.691900
  H    -11.624900   33.792400   37.534500
  C    -12.053800   35.841700   39.617100
  H    -12.351000   36.777800   39.948100
  H    -11.051200   36.001000   39.326800
  C    -12.191900   34.860600   40.800600
  H    -11.586700   33.981600   40.629000
  H    -11.924400   35.214000   41.795600
  C    -13.717900   34.471900   41.010000
  H    -13.756800   33.797300   41.878400
  H    -14.227000   35.373600   41.363600
  H    -14.144000   33.938500   40.135900
  S    -13.616700   33.145700   34.086100
  C    -13.676300   31.425400   33.788800
  C    -13.221300   30.746100   34.867300
  C    -13.023500   31.562800   36.020500
  C    -13.547600   32.845000   35.834400
  H    -13.000100   29.644800   34.675500
  C    -12.587200   30.870100   37.298800
  H    -13.298400   30.083900   37.533900
  H    -12.764900   31.543100   38.157700
  C    -11.169400   30.326300   37.404800
  H    -10.539300   31.112800   37.678500
  H    -10.685100   30.006700   36.445400
  C    -10.895600   29.239200   38.461400
  H    -11.198200   28.123800   38.331600
  H    -11.233600   29.550200   39.481600
  H     -9.841660   29.220500   38.523800
  H    -14.490800   36.848200   38.504900
  H    -13.657400   30.932100   32.830300

 Total Charge           Charge          ....    0
 Multiplicity           Mult            ....    1
 Number of Electrons    NEL             ....  134
 Basis Dimension        Dim             ....  322

ORBITAL ENERGIES
----------------

  NO   OCC          E(Eh)            E(eV)
   0   2.0000     -88.968980     -2420.9690
   1   2.0000     -88.961031     -2420.7527
   2   2.0000     -10.327534      -281.0265
   3   2.0000     -10.326486      -280.9980
   4   2.0000     -10.311134      -280.5802
   5   2.0000     -10.310122      -280.5527
   6   2.0000     -10.307697      -280.4867
   7   2.0000     -10.301300      -280.3126
   8   2.0000     -10.293339      -280.0960
   9   2.0000     -10.292049      -280.0609
  10   2.0000     -10.290981      -280.0318
  11   2.0000     -10.289646      -279.9955
  12   2.0000     -10.288757      -279.9713
  13   2.0000     -10.287291      -279.9314
  14   2.0000     -10.284417      -279.8532
  15   2.0000     -10.279144      -279.7097
  16   2.0000      -8.084435      -219.9886
  17   2.0000      -8.075875      -219.7557
  18   2.0000      -6.042704      -164.4303
  19   2.0000      -6.038758      -164.3230
  20   2.0000      -6.035480      -164.2338
  21   2.0000      -6.034453      -164.2058
  22   2.0000      -6.030784      -164.1060
  23   2.0000      -6.026106      -163.9787
  24   2.0000      -1.011928       -27.5360
  25   2.0000      -0.987311       -26.8661
  26   2.0000      -0.915162       -24.9028
  27   2.0000      -0.908722       -24.7276
  28   2.0000      -0.869816       -23.6689
  29   2.0000      -0.851982       -23.1836
  30   2.0000      -0.843585       -22.9551
  31   2.0000      -0.810654       -22.0590
  32   2.0000      -0.787175       -21.4201
  33   2.0000      -0.776224       -21.1221
  34   2.0000      -0.712767       -19.3954
  35   2.0000      -0.699085       -19.0231
  36   2.0000      -0.695121       -18.9152
  37   2.0000      -0.656018       -17.8512
  38   2.0000      -0.641146       -17.4465
  39   2.0000      -0.619861       -16.8673
  40   2.0000      -0.597778       -16.2664
  41   2.0000      -0.569405       -15.4943
  42   2.0000      -0.555687       -15.1210
  43   2.0000      -0.554601       -15.0915
  44   2.0000      -0.547980       -14.9113
  45   2.0000      -0.528040       -14.3687
  46   2.0000      -0.517049       -14.0696
  47   2.0000      -0.511044       -13.9062
  48   2.0000      -0.505844       -13.7647
  49   2.0000      -0.499250       -13.5853
  50   2.0000      -0.493704       -13.4344
  51   2.0000      -0.477251       -12.9867
  52   2.0000      -0.466975       -12.7070
  53   2.0000      -0.462475       -12.5846
  54   2.0000      -0.454854       -12.3772
  55   2.0000      -0.446825       -12.1587
  56   2.0000      -0.444093       -12.0844
  57   2.0000      -0.441207       -12.0059
  58   2.0000      -0.437460       -11.9039
  59   2.0000      -0.425561       -11.5801
  60   2.0000      -0.423426       -11.5220
  61   2.0000      -0.415207       -11.2984
  62   2.0000      -0.410242       -11.1633
  63   2.0000      -0.341919        -9.3041
  64   2.0000      -0.334227        -9.0948
  65   2.0000      -0.324020        -8.8170
  66   2.0000      -0.290604        -7.9077
  67   0.0000       0.019406         0.5281
  68   0.0000       0.068445         1.8625
  69   0.0000       0.102352         2.7852
  70   0.0000       0.119936         3.2636
  71   0.0000       0.124150         3.3783

MULLIKEN ATOMIC CHARGES
-----------------------
   0 S :    0.130038
   1 C :   -0.106597
   2 C :   -0.118684
   3 C :    0.068879
   4 C :   -0.197068
   5 H :   -0.018796
   6 C :    0.167705
   7 H :   -0.011615
   8 H :    0.017535
   9 C :   -0.087497
  10 H :    0.025663
  11 H :    0.029150
  12 C :   -0.084178
  13 H :    0.026499
  14 H :    0.031703
  15 H :    0.070515
  16 S :    0.086461
  17 C :   -0.063576
  18 C :   -0.078630
  19 C :   -0.006698
  20 C :   -0.130226
  21 H :    0.047169
  22 C :    0.053619
  23 H :    0.033266
  24 H :    0.017175
  25 C :   -0.056633
  26 H :    0.010022
  27 H :    0.032698
  28 C :   -0.075729
  29 H :    0.052257
  30 H :    0.030367
  31 H :    0.020772
  32 H :    0.033745
  33 H :    0.050687
Sum of atomic charges:    0.0000000

LOEWDIN ATOMIC CHARGES
----------------------
   0 S :    0.438829
   1 C :   -0.187924
   2 C :   -0.054828
   3 C :   -0.049129
   4 C :   -0.221068
   5 H :    0.015276
   6 C :   -0.022401
   7 H :    0.019041
   8 H :    0.027835
   9 C :   -0.035386
  10 H :    0.016994
  11 H :    0.024691
  12 C :   -0.067276
  13 H :    0.023485
  14 H :    0.024369
  15 H :    0.031499
  16 S :    0.385592
  17 C :   -0.185753
  18 C :   -0.079151
  19 C :   -0.051827
  20 C :   -0.188487
  21 H :    0.046290
  22 C :   -0.040189
  23 H :    0.033220
  24 H :    0.030142
  25 C :   -0.041798
  26 H :    0.018398
  27 H :    0.029854
  28 C :   -0.073621
  29 H :    0.034897
  30 H :    0.026618
  31 H :    0.021444
  32 H :    0.020781
  33 H :    0.029584

  Mayer bond orders larger than 0.100000
B(  0-S ,  1-C ) :   1.1363 B(  0-S ,  4-C ) :   1.1921 B(  1-C ,  2-C ) :   1.5857
B(  1-C ,  4-C ) :   0.1015 B(  1-C , 32-H ) :   0.9742 B(  2-C ,  3-C ) :   1.2540
B(  2-C ,  6-C ) :   1.0309 B(  3-C ,  4-C ) :   1.4972 B(  3-C ,  5-H ) :   1.0046
B(  4-C , 20-C ) :   1.0767 B(  6-C ,  7-H ) :   0.9303 B(  6-C ,  8-H ) :   0.9365
B(  6-C ,  9-C ) :   1.0555 B(  9-C , 10-H ) :   0.9607 B(  9-C , 11-H ) :   0.9629
B(  9-C , 12-C ) :   1.0740 B( 12-C , 13-H ) :   0.9757 B( 12-C , 14-H ) :   0.9776
B( 12-C , 15-H ) :   0.9691 B( 16-S , 17-C ) :   1.1315 B( 16-S , 20-C ) :   1.1386
B( 17-C , 18-C ) :   1.6565 B( 17-C , 33-H ) :   0.9637 B( 18-C , 19-C ) :   1.2087
B( 18-C , 21-H ) :   0.9782 B( 19-C , 20-C ) :   1.5805 B( 19-C , 22-C ) :   1.0507
B( 22-C , 23-H ) :   0.9504 B( 22-C , 24-H ) :   0.9295 B( 22-C , 25-C ) :   1.0456
B( 25-C , 26-H ) :   0.9478 B( 25-C , 27-H ) :   0.9598 B( 25-C , 28-C ) :   1.0839
B( 28-C , 29-H ) :   0.9749 B( 28-C , 30-H ) :   0.9728 B( 28-C , 31-H ) :   0.9730

Dispersion correction           -0.014940701
FINAL SINGLE POINT ENERGY     -1339.845704156384

DIPOLE MOMENT
-------------
                                X             Y             Z
Electronic contribution:    -13.23034      11.78037     -25.40592
Nuclear contribution   :     13.79650     -12.05431      25.92922
                        -----------------------------------------
Total Dipole Moment    :      0.56616      -0.27394       0.52330
                        -----------------------------------------
Magnitude (a.u.)       :      0.81818
Magnitude (Debye)      :      2.07965

Rotational constants in cm-1:     0.016429     0.010548     0.006948
Rotational constants in MHz :   492.522550   316.211998   208.301605

                             ****ORCA TERMINATED NORMALLY****
TOTAL RUN TIME: 0 days 0 hours 0 minutes 35 seconds 652 msec
