                         Program Version 4.2.1 -  RELEASE  -
|  1> ! wB97X-D3 SP def2-SVP
|  2> %pal
|  3> nprocs 16
|  4> end
|  5>
|  6> * xyz 0 1
|  7> S 	 -17.9211 	 54.3411 	 60.5267
|  8> C 	 -16.9568 	 53.1826 	 59.6808
|  9> C 	 -15.6094 	 53.1931 	 60.1024
| 10> C 	 -15.4599 	 54.3675 	 60.9714
| 11> C 	 -16.5978 	 55.0885 	 61.2996
| 12> H 	 -14.5464 	 54.8647 	 61.3387
| 13> C 	 -14.5275 	 52.2549 	 59.6256
| 14> H 	 -14.9421 	 51.2598 	 59.4503
| 15> H 	 -13.6988 	 52.0927 	 60.3866
| 16> C 	 -13.7851 	 52.6976 	 58.2796
| 17> H 	 -14.491 	 53.0427 	 57.5548
| 18> H 	 -13.1609 	 53.5702 	 58.4056
| 19> C 	 -12.903 	 51.5548 	 57.6102
| 20> H 	 -13.3776 	 50.6462 	 57.794
| 21> H 	 -12.784 	 51.6488 	 56.481
| 22> H 	 -11.9478 	 51.5928 	 58.1275
| 23> S 	 -16.0864 	 57.754 	 61.0765
| 24> C 	 -16.4377 	 58.8674 	 62.3858
| 25> C 	 -17.0555 	 58.1682 	 63.4118
| 26> C 	 -17.1312 	 56.7955 	 63.2057
| 27> C 	 -16.7037 	 56.379 	 61.9722
| 28> H 	 -17.4709 	 58.701 	 64.3194
| 29> C 	 -17.5398 	 55.8844 	 64.3183
| 30> H 	 -18.1801 	 55.0801 	 63.9391
| 31> H 	 -18.1027 	 56.4824 	 65.0639
| 32> C 	 -16.3924 	 55.1318 	 65.0097
| 33> H 	 -15.8818 	 54.5496 	 64.2563
| 34> H 	 -16.8568 	 54.4527 	 65.7935
| 35> C 	 -15.3247 	 56.0403 	 65.6365
| 36> H 	 -14.5265 	 55.3969 	 66.0352
| 37> H 	 -15.8348 	 56.4366 	 66.5425
| 38> H 	 -14.8477 	 56.8627 	 65.0911
| 39> H 	 -17.3018 	 52.5304 	 58.9683
| 40> H 	 -16.337 	 59.9414 	 62.4749
| 41> *
| 42>
| 43>                          ****END OF INPUT****

CARTESIAN COORDINATES (ANGSTROEM)
---------------------------------
  S    -17.921100   54.341100   60.526700
  C    -16.956800   53.182600   59.680800
  C    -15.609400   53.193100   60.102400
  C    -15.459900   54.367500   60.971400
  C    -16.597800   55.088500   61.299600
  H    -14.546400   54.864700   61.338700
  C    -14.527500   52.254900   59.625600
  H    -14.942100   51.259800   59.450300
  H    -13.698800   52.092700   60.386600
  C    -13.785100   52.697600   58.279600
  H    -14.491000   53.042700   57.554800
  H    -13.160900   53.570200   58.405600
  C    -12.903000   51.554800   57.610200
  H    -13.377600   50.646200   57.794000
  H    -12.784000   51.648800   56.481000
  H    -11.947800   51.592800   58.127500
  S    -16.086400   57.754000   61.076500
  C    -16.437700   58.867400   62.385800
  C    -17.055500   58.168200   63.411800
  C    -17.131200   56.795500   63.205700
  C    -16.703700   56.379000   61.972200
  H    -17.470900   58.701000   64.319400
  C    -17.539800   55.884400   64.318300
  H    -18.180100   55.080100   63.939100
  H    -18.102700   56.482400   65.063900
  C    -16.392400   55.131800   65.009700
  H    -15.881800   54.549600   64.256300
  H    -16.856800   54.452700   65.793500
  C    -15.324700   56.040300   65.636500
  H    -14.526500   55.396900   66.035200
  H    -15.834800   56.436600   66.542500
  H    -14.847700   56.862700   65.091100
  H    -17.301800   52.530400   58.968300
  H    -16.337000   59.941400   62.474900

 Total Charge           Charge          ....    0
 Multiplicity           Mult            ....    1
 Number of Electrons    NEL             ....  134
 Basis Dimension        Dim             ....  322

ORBITAL ENERGIES
----------------

  NO   OCC          E(Eh)            E(eV)
   0   2.0000     -88.967502     -2420.9288
   1   2.0000     -88.965950     -2420.8866
   2   2.0000     -10.325964      -280.9838
   3   2.0000     -10.325336      -280.9667
   4   2.0000     -10.319113      -280.7973
   5   2.0000     -10.314166      -280.6627
   6   2.0000     -10.313657      -280.6489
   7   2.0000     -10.307106      -280.4706
   8   2.0000     -10.300210      -280.2830
   9   2.0000     -10.295621      -280.1581
  10   2.0000     -10.293560      -280.1020
  11   2.0000     -10.289161      -279.9823
  12   2.0000     -10.287465      -279.9361
  13   2.0000     -10.286705      -279.9155
  14   2.0000     -10.282364      -279.7973
  15   2.0000     -10.274810      -279.5918
  16   2.0000      -8.081813      -219.9173
  17   2.0000      -8.081685      -219.9138
  18   2.0000      -6.040358      -164.3665
  19   2.0000      -6.040074      -164.3588
  20   2.0000      -6.036241      -164.2545
  21   2.0000      -6.035823      -164.2431
  22   2.0000      -6.032722      -164.1587
  23   2.0000      -6.032667      -164.1572
  24   2.0000      -1.011614       -27.5274
  25   2.0000      -0.988986       -26.9117
  26   2.0000      -0.907400       -24.6916
  27   2.0000      -0.903546       -24.5867
  28   2.0000      -0.869649       -23.6644
  29   2.0000      -0.847134       -23.0517
  30   2.0000      -0.843228       -22.9454
  31   2.0000      -0.814641       -22.1675
  32   2.0000      -0.781443       -21.2641
  33   2.0000      -0.772425       -21.0187
  34   2.0000      -0.709211       -19.2986
  35   2.0000      -0.704034       -19.1577
  36   2.0000      -0.683497       -18.5989
  37   2.0000      -0.666103       -18.1256
  38   2.0000      -0.648538       -17.6476
  39   2.0000      -0.611013       -16.6265
  40   2.0000      -0.589062       -16.0292
  41   2.0000      -0.574130       -15.6229
  42   2.0000      -0.557417       -15.1681
  43   2.0000      -0.552650       -15.0384
  44   2.0000      -0.542568       -14.7640
  45   2.0000      -0.521584       -14.1930
  46   2.0000      -0.513070       -13.9613
  47   2.0000      -0.510445       -13.8899
  48   2.0000      -0.507029       -13.7970
  49   2.0000      -0.499387       -13.5890
  50   2.0000      -0.486657       -13.2426
  51   2.0000      -0.482386       -13.1264
  52   2.0000      -0.474716       -12.9177
  53   2.0000      -0.464157       -12.6303
  54   2.0000      -0.463693       -12.6177
  55   2.0000      -0.441080       -12.0024
  56   2.0000      -0.437151       -11.8955
  57   2.0000      -0.434539       -11.8244
  58   2.0000      -0.428000       -11.6465
  59   2.0000      -0.426530       -11.6065
  60   2.0000      -0.422099       -11.4859
  61   2.0000      -0.418251       -11.3812
  62   2.0000      -0.409283       -11.1371
  63   2.0000      -0.335750        -9.1362
  64   2.0000      -0.330804        -9.0016
  65   2.0000      -0.326433        -8.8827
  66   2.0000      -0.306043        -8.3279
  67   0.0000       0.042245         1.1495
  68   0.0000       0.052754         1.4355
  69   0.0000       0.103737         2.8228
  70   0.0000       0.122031         3.3206
  71   0.0000       0.132770         3.6129

MULLIKEN ATOMIC CHARGES
-----------------------
   0 S :    0.131309
   1 C :   -0.086948
   2 C :   -0.069957
   3 C :    0.030849
   4 C :   -0.183484
   5 H :    0.016468
   6 C :    0.038554
   7 H :    0.027800
   8 H :    0.045022
   9 C :   -0.082068
  10 H :    0.020285
  11 H :    0.029162
  12 C :   -0.055518
  13 H :    0.016807
  14 H :    0.052243
  15 H :    0.039850
  16 S :    0.122889
  17 C :   -0.084857
  18 C :   -0.080780
  19 C :   -0.005108
  20 C :   -0.185097
  21 H :    0.039104
  22 C :    0.078833
  23 H :    0.027403
  24 H :    0.016244
  25 C :   -0.078456
  26 H :    0.029743
  27 H :    0.045128
  28 C :   -0.076408
  29 H :    0.031758
  30 H :    0.020266
  31 H :    0.056364
  32 H :    0.017529
  33 H :    0.055070
Sum of atomic charges:    0.0000000

LOEWDIN ATOMIC CHARGES
----------------------
   0 S :    0.440186
   1 C :   -0.182909
   2 C :   -0.060331
   3 C :   -0.062987
   4 C :   -0.229523
   5 H :    0.031780
   6 C :   -0.036329
   7 H :    0.030608
   8 H :    0.040814
   9 C :   -0.037681
  10 H :    0.016969
  11 H :    0.021279
  12 C :   -0.064565
  13 H :    0.011946
  14 H :    0.037941
  15 H :    0.026633
  16 S :    0.418403
  17 C :   -0.188906
  18 C :   -0.080930
  19 C :   -0.063598
  20 C :   -0.202698
  21 H :    0.041517
  22 C :   -0.033442
  23 H :    0.032704
  24 H :    0.027567
  25 C :   -0.038470
  26 H :    0.019883
  27 H :    0.034471
  28 C :   -0.077054
  29 H :    0.027471
  30 H :    0.024829
  31 H :    0.029242
  32 H :    0.010703
  33 H :    0.034478

  Mayer bond orders larger than 0.100000
B(  0-S ,  1-C ) :   1.1775 B(  0-S ,  4-C ) :   1.1550 B(  1-C ,  2-C ) :   1.5712
B(  1-C , 32-H ) :   0.9807 B(  2-C ,  3-C ) :   1.2263 B(  2-C ,  6-C ) :   1.0454
B(  3-C ,  4-C ) :   1.5924 B(  3-C ,  5-H ) :   0.9891 B(  4-C , 20-C ) :   1.0073
B(  6-C ,  7-H ) :   0.9396 B(  6-C ,  8-H ) :   0.9452 B(  6-C ,  9-C ) :   1.0449
B(  9-C , 10-H ) :   0.9632 B(  9-C , 11-H ) :   0.9628 B(  9-C , 12-C ) :   1.0620
B( 12-C , 13-H ) :   0.9790 B( 12-C , 14-H ) :   0.9777 B( 12-C , 15-H ) :   0.9806
B( 16-S , 17-C ) :   1.1632 B( 16-S , 20-C ) :   1.1454 B( 17-C , 18-C ) :   1.5916
B( 17-C , 20-C ) :   0.1087 B( 17-C , 33-H ) :   0.9654 B( 18-C , 19-C ) :   1.2770
B( 18-C , 21-H ) :   0.9748 B( 19-C , 20-C ) :   1.5826 B( 19-C , 22-C ) :   1.0553
B( 22-C , 23-H ) :   0.9233 B( 22-C , 24-H ) :   0.9341 B( 22-C , 25-C ) :   1.0756
B( 25-C , 26-H ) :   0.9556 B( 25-C , 27-H ) :   0.9556 B( 25-C , 28-C ) :   1.0695
B( 28-C , 29-H ) :   0.9735 B( 28-C , 30-H ) :   0.9761 B( 28-C , 31-H ) :   0.9751

Dispersion correction           -0.014531126
FINAL SINGLE POINT ENERGY     -1339.873234432403

DIPOLE MOMENT
-------------
                                X             Y             Z
Electronic contribution:    -14.77842      13.49757      -5.27847
Nuclear contribution   :     15.04649     -13.69909       5.39615
                        -----------------------------------------
Total Dipole Moment    :      0.26807      -0.20152       0.11768
                        -----------------------------------------
Magnitude (a.u.)       :      0.35541
Magnitude (Debye)      :      0.90339

Rotational constants in cm-1:     0.022158     0.007127     0.006780
Rotational constants in MHz :   664.276639   213.647666   203.269474

                             ****ORCA TERMINATED NORMALLY****
TOTAL RUN TIME: 0 days 0 hours 0 minutes 32 seconds 752 msec
