                         Program Version 4.2.1 -  RELEASE  -
|  1> ! wB97X-D3 SP def2-SVP
|  2> %pal
|  3> nprocs 16
|  4> end
|  5>
|  6> * xyz 0 1
|  7> S 	 -66.6285 	 38.8931 	 135.779
|  8> C 	 -65.0563 	 39.4111 	 135.206
|  9> C 	 -63.9913 	 38.6867 	 135.747
| 10> C 	 -64.507 	 37.4642 	 136.286
| 11> C 	 -65.8832 	 37.413 	 136.484
| 12> H 	 -63.8149 	 36.6942 	 136.681
| 13> C 	 -62.4855 	 39.0179 	 135.57
| 14> H 	 -61.8876 	 38.1006 	 135.579
| 15> H 	 -62.1976 	 39.6697 	 136.352
| 16> C 	 -62.0356 	 39.675 	 134.285
| 17> H 	 -62.3713 	 39.2641 	 133.312
| 18> H 	 -62.4284 	 40.7444 	 134.332
| 19> C 	 -60.5053 	 39.9594 	 134.242
| 20> H 	 -60.0825 	 39.054 	 134.548
| 21> H 	 -60.1309 	 40.1722 	 133.223
| 22> H 	 -60.2174 	 40.7682 	 134.873
| 23> S 	 -67.5573 	 36.981 	 138.543
| 24> C 	 -68.0421 	 35.3314 	 138.897
| 25> C 	 -67.2989 	 34.4293 	 138.216
| 26> C 	 -66.5746 	 34.9927 	 137.151
| 27> C 	 -66.6348 	 36.4017 	 137.199
| 28> H 	 -67.4524 	 33.3909 	 138.472
| 29> C 	 -65.7585 	 34.1447 	 136.22
| 30> H 	 -64.9216 	 33.7207 	 136.874
| 31> H 	 -65.214 	 34.9072 	 135.561
| 32> C 	 -66.5685 	 33.1063 	 135.368
| 33> H 	 -66.04 	 32.8311 	 134.47
| 34> H 	 -67.3774 	 33.5807 	 134.871
| 35> C 	 -67.0345 	 31.8278 	 136.084
| 36> H 	 -67.7589 	 31.9551 	 136.874
| 37> H 	 -66.185 	 31.3455 	 136.589
| 38> H 	 -67.5332 	 31.2139 	 135.447
| 39> H 	 -64.9572 	 40.4119 	 134.917
| 40> H 	 -68.7873 	 35.04 	 139.635
| 41> *
| 42>
| 43>                          ****END OF INPUT****

CARTESIAN COORDINATES (ANGSTROEM)
---------------------------------
  S    -66.628500   38.893100  135.779000
  C    -65.056300   39.411100  135.206000
  C    -63.991300   38.686700  135.747000
  C    -64.507000   37.464200  136.286000
  C    -65.883200   37.413000  136.484000
  H    -63.814900   36.694200  136.681000
  C    -62.485500   39.017900  135.570000
  H    -61.887600   38.100600  135.579000
  H    -62.197600   39.669700  136.352000
  C    -62.035600   39.675000  134.285000
  H    -62.371300   39.264100  133.312000
  H    -62.428400   40.744400  134.332000
  C    -60.505300   39.959400  134.242000
  H    -60.082500   39.054000  134.548000
  H    -60.130900   40.172200  133.223000
  H    -60.217400   40.768200  134.873000
  S    -67.557300   36.981000  138.543000
  C    -68.042100   35.331400  138.897000
  C    -67.298900   34.429300  138.216000
  C    -66.574600   34.992700  137.151000
  C    -66.634800   36.401700  137.199000
  H    -67.452400   33.390900  138.472000
  C    -65.758500   34.144700  136.220000
  H    -64.921600   33.720700  136.874000
  H    -65.214000   34.907200  135.561000
  C    -66.568500   33.106300  135.368000
  H    -66.040000   32.831100  134.470000
  H    -67.377400   33.580700  134.871000
  C    -67.034500   31.827800  136.084000
  H    -67.758900   31.955100  136.874000
  H    -66.185000   31.345500  136.589000
  H    -67.533200   31.213900  135.447000
  H    -64.957200   40.411900  134.917000
  H    -68.787300   35.040000  139.635000

 Total Charge           Charge          ....    0
 Multiplicity           Mult            ....    1
 Number of Electrons    NEL             ....  134
 Basis Dimension        Dim             ....  322

ORBITAL ENERGIES
----------------

  NO   OCC          E(Eh)            E(eV)
   0   2.0000     -88.965884     -2420.8848
   1   2.0000     -88.963713     -2420.8257
   2   2.0000     -10.332277      -281.1556
   3   2.0000     -10.323270      -280.9104
   4   2.0000     -10.311241      -280.5831
   5   2.0000     -10.310396      -280.5601
   6   2.0000     -10.307447      -280.4799
   7   2.0000     -10.301741      -280.3246
   8   2.0000     -10.300664      -280.2953
   9   2.0000     -10.298903      -280.2474
  10   2.0000     -10.297217      -280.2015
  11   2.0000     -10.292657      -280.0774
  12   2.0000     -10.285614      -279.8858
  13   2.0000     -10.285143      -279.8730
  14   2.0000     -10.276027      -279.6249
  15   2.0000     -10.271317      -279.4967
  16   2.0000      -8.079872      -219.8645
  17   2.0000      -8.078908      -219.8383
  18   2.0000      -6.038352      -164.3119
  19   2.0000      -6.037294      -164.2831
  20   2.0000      -6.034570      -164.2090
  21   2.0000      -6.033491      -164.1796
  22   2.0000      -6.030618      -164.1015
  23   2.0000      -6.029628      -164.0745
  24   2.0000      -1.005608       -27.3640
  25   2.0000      -0.981196       -26.6997
  26   2.0000      -0.913119       -24.8472
  27   2.0000      -0.903540       -24.5866
  28   2.0000      -0.870771       -23.6949
  29   2.0000      -0.852542       -23.1989
  30   2.0000      -0.846328       -23.0297
  31   2.0000      -0.814473       -22.1629
  32   2.0000      -0.785592       -21.3770
  33   2.0000      -0.770774       -20.9738
  34   2.0000      -0.713186       -19.4068
  35   2.0000      -0.701543       -19.0900
  36   2.0000      -0.691180       -18.8080
  37   2.0000      -0.659462       -17.9449
  38   2.0000      -0.638564       -17.3762
  39   2.0000      -0.617258       -16.7965
  40   2.0000      -0.588377       -16.0106
  41   2.0000      -0.579308       -15.7638
  42   2.0000      -0.565411       -15.3856
  43   2.0000      -0.550105       -14.9691
  44   2.0000      -0.537394       -14.6232
  45   2.0000      -0.523729       -14.2514
  46   2.0000      -0.519765       -14.1435
  47   2.0000      -0.508769       -13.8443
  48   2.0000      -0.505501       -13.7554
  49   2.0000      -0.495158       -13.4739
  50   2.0000      -0.483192       -13.1483
  51   2.0000      -0.482197       -13.1213
  52   2.0000      -0.478365       -13.0170
  53   2.0000      -0.466609       -12.6971
  54   2.0000      -0.456672       -12.4267
  55   2.0000      -0.447949       -12.1893
  56   2.0000      -0.443119       -12.0579
  57   2.0000      -0.440681       -11.9915
  58   2.0000      -0.436166       -11.8687
  59   2.0000      -0.428737       -11.6665
  60   2.0000      -0.422229       -11.4894
  61   2.0000      -0.410949       -11.1825
  62   2.0000      -0.405835       -11.0433
  63   2.0000      -0.345705        -9.4071
  64   2.0000      -0.330899        -9.0042
  65   2.0000      -0.328318        -8.9340
  66   2.0000      -0.288642        -7.8544
  67   0.0000       0.026706         0.7267
  68   0.0000       0.067491         1.8365
  69   0.0000       0.106972         2.9109
  70   0.0000       0.122661         3.3378
  71   0.0000       0.128541         3.4978

MULLIKEN ATOMIC CHARGES
-----------------------
   0 S :    0.103809
   1 C :   -0.091326
   2 C :   -0.101876
   3 C :    0.019748
   4 C :   -0.159717
   5 H :    0.026517
   6 C :    0.090271
   7 H :    0.025582
   8 H :    0.034598
   9 C :   -0.145463
  10 H :    0.047600
  11 H :    0.027836
  12 C :   -0.019951
  13 H :    0.009099
  14 H :    0.037835
  15 H :    0.031514
  16 S :    0.109649
  17 C :   -0.094357
  18 C :   -0.038094
  19 C :   -0.026117
  20 C :   -0.153687
  21 H :    0.016605
  22 C :    0.012820
  23 H :    0.051302
  24 H :    0.034737
  25 C :   -0.025026
  26 H :    0.019832
  27 H :    0.016340
  28 C :   -0.007976
  29 H :    0.016731
  30 H :    0.028365
  31 H :    0.010620
  32 H :    0.039159
  33 H :    0.053020
Sum of atomic charges:   -0.0000000

LOEWDIN ATOMIC CHARGES
----------------------
   0 S :    0.386247
   1 C :   -0.188731
   2 C :   -0.056063
   3 C :   -0.063225
   4 C :   -0.186413
   5 H :    0.035105
   6 C :   -0.028237
   7 H :    0.030095
   8 H :    0.033165
   9 C :   -0.049065
  10 H :    0.027722
  11 H :    0.025296
  12 C :   -0.056816
  13 H :    0.012268
  14 H :    0.032616
  15 H :    0.021588
  16 S :    0.411241
  17 C :   -0.180534
  18 C :   -0.071865
  19 C :   -0.058608
  20 C :   -0.209077
  21 H :    0.031817
  22 C :   -0.041868
  23 H :    0.040855
  24 H :    0.039137
  25 C :   -0.036826
  26 H :    0.026696
  27 H :    0.025210
  28 C :   -0.057797
  29 H :    0.020735
  30 H :    0.028279
  31 H :    0.014796
  32 H :    0.012674
  33 H :    0.029585

  Mayer bond orders larger than 0.100000
B(  0-S ,  1-C ) :   1.1462 B(  0-S ,  4-C ) :   1.1361 B(  1-C ,  2-C ) :   1.6191
B(  1-C ,  4-C ) :   0.1040 B(  1-C , 32-H ) :   0.9611 B(  2-C ,  3-C ) :   1.2625
B(  2-C ,  6-C ) :   1.0105 B(  3-C ,  4-C ) :   1.5695 B(  3-C ,  5-H ) :   0.9797
B(  4-C , 20-C ) :   1.0489 B(  6-C ,  7-H ) :   0.9516 B(  6-C ,  8-H ) :   0.9280
B(  6-C ,  9-C ) :   1.0725 B(  9-C , 10-H ) :   0.9642 B(  9-C , 11-H ) :   0.9508
B(  9-C , 12-C ) :   1.0709 B( 12-C , 13-H ) :   0.9768 B( 12-C , 14-H ) :   0.9744
B( 12-C , 15-H ) :   0.9784 B( 16-S , 17-C ) :   1.1435 B( 16-S , 20-C ) :   1.1607
B( 17-C , 18-C ) :   1.6271 B( 17-C , 20-C ) :   0.1004 B( 17-C , 33-H ) :   0.9656
B( 18-C , 19-C ) :   1.2345 B( 18-C , 21-H ) :   0.9872 B( 19-C , 20-C ) :   1.5702
B( 19-C , 22-C ) :   1.0406 B( 22-C , 23-H ) :   0.9420 B( 22-C , 24-H ) :   0.9275
B( 22-C , 25-C ) :   1.0576 B( 25-C , 26-H ) :   0.9550 B( 25-C , 27-H ) :   0.9499
B( 25-C , 28-C ) :   1.0811 B( 28-C , 29-H ) :   0.9700 B( 28-C , 30-H ) :   0.9756
B( 28-C , 31-H ) :   0.9661

Dispersion correction           -0.013580381
FINAL SINGLE POINT ENERGY     -1339.856553341739

DIPOLE MOMENT
-------------
                                X             Y             Z
Electronic contribution:    -19.78881      10.25038      12.10797
Nuclear contribution   :     20.32132     -10.57062     -12.14707
                        -----------------------------------------
Total Dipole Moment    :      0.53251      -0.32024      -0.03910
                        -----------------------------------------
Magnitude (a.u.)       :      0.62262
Magnitude (Debye)      :      1.58256

Rotational constants in cm-1:     0.021560     0.006910     0.005780
Rotational constants in MHz :   646.342547   207.169629   173.274240

                             ****ORCA TERMINATED NORMALLY****
TOTAL RUN TIME: 0 days 0 hours 0 minutes 33 seconds 477 msec
