                         Program Version 4.2.1 -  RELEASE  -
|  1> ! wB97X-D3 SP def2-SVP
|  2> %pal
|  3> nprocs 16
|  4> end
|  5>
|  6> * xyz 0 1
|  7> S 	 -32.8838 	 30.0438 	 42.1711
|  8> C 	 -31.2179 	 30.5616 	 42.0893
|  9> C 	 -30.7473 	 30.8018 	 43.3587
| 10> C 	 -31.7831 	 30.8033 	 44.3813
| 11> C 	 -33.0331 	 30.4932 	 43.8673
| 12> H 	 -31.8047 	 31.1372 	 45.4471
| 13> C 	 -29.3426 	 31.1455 	 43.7619
| 14> H 	 -28.9886 	 30.127 	 43.9973
| 15> H 	 -29.4612 	 31.653 	 44.7491
| 16> C 	 -28.3484 	 31.9027 	 42.868
| 17> H 	 -28.9036 	 32.5735 	 42.1939
| 18> H 	 -27.6658 	 32.5907 	 43.4403
| 19> C 	 -27.3964 	 30.9803 	 42.2011
| 20> H 	 -26.4332 	 30.953 	 42.6796
| 21> H 	 -27.736 	 29.9968 	 42.0616
| 22> H 	 -27.2577 	 31.2838 	 41.1936
| 23> S 	 -34.9925 	 28.9435 	 45.1408
| 24> C 	 -36.1699 	 29.8948 	 46.1234
| 25> C 	 -36.2068 	 31.2145 	 45.8737
| 26> C 	 -35.0192 	 31.5897 	 45.1314
| 27> C 	 -34.2956 	 30.4866 	 44.6505
| 28> H 	 -36.9042 	 31.7878 	 46.3825
| 29> C 	 -34.9046 	 33.0695 	 44.7092
| 30> H 	 -35.827 	 33.4546 	 44.3499
| 31> H 	 -34.2721 	 33.0896 	 43.8046
| 32> C 	 -34.3548 	 34.0995 	 45.7725
| 33> H 	 -34.8283 	 33.9384 	 46.6861
| 34> H 	 -34.6705 	 35.0498 	 45.4217
| 35> C 	 -32.8349 	 33.9934 	 45.9839
| 36> H 	 -32.2587 	 34.0849 	 45.0927
| 37> H 	 -32.6867 	 33.0774 	 46.4621
| 38> H 	 -32.5196 	 34.7247 	 46.6906
| 39> H 	 -30.5921 	 30.4309 	 41.1918
| 40> H 	 -36.9111 	 29.4281 	 46.8571
| 41> *
| 42>
| 43>                          ****END OF INPUT****

CARTESIAN COORDINATES (ANGSTROEM)
---------------------------------
  S    -32.883800   30.043800   42.171100
  C    -31.217900   30.561600   42.089300
  C    -30.747300   30.801800   43.358700
  C    -31.783100   30.803300   44.381300
  C    -33.033100   30.493200   43.867300
  H    -31.804700   31.137200   45.447100
  C    -29.342600   31.145500   43.761900
  H    -28.988600   30.127000   43.997300
  H    -29.461200   31.653000   44.749100
  C    -28.348400   31.902700   42.868000
  H    -28.903600   32.573500   42.193900
  H    -27.665800   32.590700   43.440300
  C    -27.396400   30.980300   42.201100
  H    -26.433200   30.953000   42.679600
  H    -27.736000   29.996800   42.061600
  H    -27.257700   31.283800   41.193600
  S    -34.992500   28.943500   45.140800
  C    -36.169900   29.894800   46.123400
  C    -36.206800   31.214500   45.873700
  C    -35.019200   31.589700   45.131400
  C    -34.295600   30.486600   44.650500
  H    -36.904200   31.787800   46.382500
  C    -34.904600   33.069500   44.709200
  H    -35.827000   33.454600   44.349900
  H    -34.272100   33.089600   43.804600
  C    -34.354800   34.099500   45.772500
  H    -34.828300   33.938400   46.686100
  H    -34.670500   35.049800   45.421700
  C    -32.834900   33.993400   45.983900
  H    -32.258700   34.084900   45.092700
  H    -32.686700   33.077400   46.462100
  H    -32.519600   34.724700   46.690600
  H    -30.592100   30.430900   41.191800
  H    -36.911100   29.428100   46.857100

 Total Charge           Charge          ....    0
 Multiplicity           Mult            ....    1
 Number of Electrons    NEL             ....  134
 Basis Dimension        Dim             ....  322

ORBITAL ENERGIES
----------------

  NO   OCC          E(Eh)            E(eV)
   0   2.0000     -88.967769     -2420.9361
   1   2.0000     -88.961399     -2420.7627
   2   2.0000     -10.331682      -281.1394
   3   2.0000     -10.329116      -281.0695
   4   2.0000     -10.322939      -280.9015
   5   2.0000     -10.313190      -280.6362
   6   2.0000     -10.309636      -280.5394
   7   2.0000     -10.304308      -280.3945
   8   2.0000     -10.297173      -280.2003
   9   2.0000     -10.291164      -280.0368
  10   2.0000     -10.289453      -279.9903
  11   2.0000     -10.288888      -279.9749
  12   2.0000     -10.288658      -279.9686
  13   2.0000     -10.279281      -279.7135
  14   2.0000     -10.265460      -279.3374
  15   2.0000     -10.265023      -279.3255
  16   2.0000      -8.081661      -219.9132
  17   2.0000      -8.076084      -219.7614
  18   2.0000      -6.040260      -164.3638
  19   2.0000      -6.036566      -164.2633
  20   2.0000      -6.034645      -164.2110
  21   2.0000      -6.032090      -164.1415
  22   2.0000      -6.030635      -164.1019
  23   2.0000      -6.026753      -163.9963
  24   2.0000      -0.999905       -27.2088
  25   2.0000      -0.980328       -26.6761
  26   2.0000      -0.913820       -24.8663
  27   2.0000      -0.900997       -24.5174
  28   2.0000      -0.870981       -23.7006
  29   2.0000      -0.851596       -23.1731
  30   2.0000      -0.846315       -23.0294
  31   2.0000      -0.816799       -22.2262
  32   2.0000      -0.780889       -21.2491
  33   2.0000      -0.770728       -20.9726
  34   2.0000      -0.708209       -19.2713
  35   2.0000      -0.706845       -19.2342
  36   2.0000      -0.687674       -18.7126
  37   2.0000      -0.656808       -17.8727
  38   2.0000      -0.639870       -17.4117
  39   2.0000      -0.606882       -16.5141
  40   2.0000      -0.592414       -16.1204
  41   2.0000      -0.573815       -15.6143
  42   2.0000      -0.553834       -15.0706
  43   2.0000      -0.547569       -14.9001
  44   2.0000      -0.541266       -14.7286
  45   2.0000      -0.535884       -14.5822
  46   2.0000      -0.519169       -14.1273
  47   2.0000      -0.515656       -14.0317
  48   2.0000      -0.504150       -13.7186
  49   2.0000      -0.493506       -13.4290
  50   2.0000      -0.489561       -13.3216
  51   2.0000      -0.479650       -13.0519
  52   2.0000      -0.467190       -12.7129
  53   2.0000      -0.465320       -12.6620
  54   2.0000      -0.463148       -12.6029
  55   2.0000      -0.451656       -12.2902
  56   2.0000      -0.442729       -12.0473
  57   2.0000      -0.434522       -11.8239
  58   2.0000      -0.431138       -11.7319
  59   2.0000      -0.424077       -11.5397
  60   2.0000      -0.420485       -11.4420
  61   2.0000      -0.414925       -11.2907
  62   2.0000      -0.402800       -10.9608
  63   2.0000      -0.342938        -9.3318
  64   2.0000      -0.326667        -8.8890
  65   2.0000      -0.320887        -8.7318
  66   2.0000      -0.302962        -8.2440
  67   0.0000       0.043964         1.1963
  68   0.0000       0.054933         1.4948
  69   0.0000       0.100581         2.7370
  70   0.0000       0.120081         3.2676
  71   0.0000       0.127926         3.4811

MULLIKEN ATOMIC CHARGES
-----------------------
   0 S :    0.099777
   1 C :   -0.134676
   2 C :   -0.095408
   3 C :    0.032409
   4 C :   -0.177068
   5 H :    0.033031
   6 C :    0.029365
   7 H :    0.047832
   8 H :    0.030645
   9 C :   -0.057984
  10 H :    0.036227
  11 H :    0.035314
  12 C :   -0.024949
  13 H :    0.036962
  14 H :    0.016579
  15 H :    0.013520
  16 S :    0.108001
  17 C :   -0.122103
  18 C :    0.017158
  19 C :   -0.026617
  20 C :   -0.168514
  21 H :    0.003085
  22 C :    0.036011
  23 H :    0.019967
  24 H :    0.027660
  25 C :   -0.035695
  26 H :    0.007203
  27 H :    0.015150
  28 C :   -0.005749
  29 H :    0.033810
  30 H :    0.014676
  31 H :    0.020652
  32 H :    0.060848
  33 H :    0.072880
Sum of atomic charges:    0.0000000

LOEWDIN ATOMIC CHARGES
----------------------
   0 S :    0.392451
   1 C :   -0.212386
   2 C :   -0.062895
   3 C :   -0.066549
   4 C :   -0.194327
   5 H :    0.042003
   6 C :   -0.040837
   7 H :    0.041176
   8 H :    0.035036
   9 C :   -0.047681
  10 H :    0.026283
  11 H :    0.036302
  12 C :   -0.064390
  13 H :    0.028084
  14 H :    0.016835
  15 H :    0.024842
  16 S :    0.374165
  17 C :   -0.164954
  18 C :   -0.064522
  19 C :   -0.047881
  20 C :   -0.198875
  21 H :    0.025151
  22 C :   -0.027982
  23 H :    0.026367
  24 H :    0.031773
  25 C :   -0.023949
  26 H :    0.013549
  27 H :    0.017035
  28 C :   -0.052129
  29 H :    0.022948
  30 H :    0.016438
  31 H :    0.023226
  32 H :    0.035129
  33 H :    0.040565

  Mayer bond orders larger than 0.100000
B(  0-S ,  1-C ) :   1.1215 B(  0-S ,  4-C ) :   1.1477 B(  1-C ,  2-C ) :   1.6294
B(  1-C , 32-H ) :   0.9668 B(  2-C ,  3-C ) :   1.2084 B(  2-C ,  6-C ) :   1.0145
B(  3-C ,  4-C ) :   1.6186 B(  3-C ,  5-H ) :   0.9798 B(  4-C , 20-C ) :   1.0095
B(  6-C ,  7-H ) :   0.9363 B(  6-C ,  8-H ) :   0.9447 B(  6-C ,  9-C ) :   1.0492
B(  9-C , 10-H ) :   0.9666 B(  9-C , 11-H ) :   0.9614 B(  9-C , 12-C ) :   1.0652
B( 12-C , 13-H ) :   0.9777 B( 12-C , 14-H ) :   0.9794 B( 12-C , 15-H ) :   0.9691
B( 16-S , 17-C ) :   1.1278 B( 16-S , 20-C ) :   1.1229 B( 17-C , 18-C ) :   1.6855
B( 17-C , 33-H ) :   0.9523 B( 18-C , 19-C ) :   1.1795 B( 18-C , 21-H ) :   0.9932
B( 19-C , 20-C ) :   1.6447 B( 19-C , 22-C ) :   1.0341 B( 22-C , 23-H ) :   0.9484
B( 22-C , 24-H ) :   0.9411 B( 22-C , 25-C ) :   1.0616 B( 25-C , 26-H ) :   0.9587
B( 25-C , 27-H ) :   0.9569 B( 25-C , 28-C ) :   1.0827 B( 28-C , 29-H ) :   0.9764
B( 28-C , 30-H ) :   0.9724 B( 28-C , 31-H ) :   0.9687

Dispersion correction           -0.015051818
FINAL SINGLE POINT ENERGY     -1339.851060563763

DIPOLE MOMENT
-------------
                                X             Y             Z
Electronic contribution:    -19.84889     -18.99339      -3.15848
Nuclear contribution   :     20.10816      19.50950       3.48369
                        -----------------------------------------
Total Dipole Moment    :      0.25927       0.51611       0.32521
                        -----------------------------------------
Magnitude (a.u.)       :      0.66283
Magnitude (Debye)      :      1.68479

Rotational constants in cm-1:     0.021495     0.008039     0.006575
Rotational constants in MHz :   644.414281   241.008049   197.122207

                             ****ORCA TERMINATED NORMALLY****
TOTAL RUN TIME: 0 days 0 hours 0 minutes 34 seconds 649 msec
