                         Program Version 4.2.1 -  RELEASE  -
|  1> ! wB97X-D3 SP def2-SVP
|  2> %pal
|  3> nprocs 16
|  4> end
|  5>
|  6> * xyz 0 1
|  7> S 	 5.65693 	 -14.4957 	 61.8183
|  8> C 	 7.38192 	 -14.5309 	 61.9318
|  9> C 	 7.7661 	 -13.9776 	 63.1345
| 10> C 	 6.66896 	 -13.4356 	 63.9312
| 11> C 	 5.39755 	 -13.6044 	 63.3036
| 12> H 	 6.67295 	 -12.9257 	 64.9055
| 13> C 	 9.18565 	 -13.742 	 63.463
| 14> H 	 9.40521 	 -12.6777 	 63.6959
| 15> H 	 9.7793 	 -13.9289 	 62.5571
| 16> C 	 9.77173 	 -14.4279 	 64.6934
| 17> H 	 9.53884 	 -15.4584 	 64.4431
| 18> H 	 10.8406 	 -14.2624 	 64.6965
| 19> C 	 9.20153 	 -13.8839 	 65.9815
| 20> H 	 9.38166 	 -12.8152 	 66.0517
| 21> H 	 8.20977 	 -14.2515 	 66.196
| 22> H 	 9.88356 	 -14.1564 	 66.7467
| 23> S 	 3.42995 	 -11.843 	 62.5783
| 24> C 	 2.18238 	 -11.4549 	 63.7255
| 25> C 	 2.32076 	 -12.1359 	 64.927
| 26> C 	 3.43118 	 -13.0164 	 64.9143
| 27> C 	 4.15197 	 -12.9541 	 63.7341
| 28> H 	 1.54752 	 -11.9342 	 65.5835
| 29> C 	 3.87399 	 -13.8492 	 66.1863
| 30> H 	 3.78987 	 -13.065 	 66.9915
| 31> H 	 4.98584 	 -14.0201 	 66.1439
| 32> C 	 3.00212 	 -15.1206 	 66.5276
| 33> H 	 1.96501 	 -14.7937 	 66.4038
| 34> H 	 3.13471 	 -15.3259 	 67.5395
| 35> C 	 3.46137 	 -16.2807 	 65.6947
| 36> H 	 3.26493 	 -16.3661 	 64.5962
| 37> H 	 3.10396 	 -17.1412 	 66.1752
| 38> H 	 4.48707 	 -16.4432 	 65.8093
| 39> H 	 8.17682 	 -14.8556 	 61.2467
| 40> H 	 1.39249 	 -10.8508 	 63.581
| 41> *
| 42>
| 43>                          ****END OF INPUT****

CARTESIAN COORDINATES (ANGSTROEM)
---------------------------------
  S      5.656930  -14.495700   61.818300
  C      7.381920  -14.530900   61.931800
  C      7.766100  -13.977600   63.134500
  C      6.668960  -13.435600   63.931200
  C      5.397550  -13.604400   63.303600
  H      6.672950  -12.925700   64.905500
  C      9.185650  -13.742000   63.463000
  H      9.405210  -12.677700   63.695900
  H      9.779300  -13.928900   62.557100
  C      9.771730  -14.427900   64.693400
  H      9.538840  -15.458400   64.443100
  H     10.840600  -14.262400   64.696500
  C      9.201530  -13.883900   65.981500
  H      9.381660  -12.815200   66.051700
  H      8.209770  -14.251500   66.196000
  H      9.883560  -14.156400   66.746700
  S      3.429950  -11.843000   62.578300
  C      2.182380  -11.454900   63.725500
  C      2.320760  -12.135900   64.927000
  C      3.431180  -13.016400   64.914300
  C      4.151970  -12.954100   63.734100
  H      1.547520  -11.934200   65.583500
  C      3.873990  -13.849200   66.186300
  H      3.789870  -13.065000   66.991500
  H      4.985840  -14.020100   66.143900
  C      3.002120  -15.120600   66.527600
  H      1.965010  -14.793700   66.403800
  H      3.134710  -15.325900   67.539500
  C      3.461370  -16.280700   65.694700
  H      3.264930  -16.366100   64.596200
  H      3.103960  -17.141200   66.175200
  H      4.487070  -16.443200   65.809300
  H      8.176820  -14.855600   61.246700
  H      1.392490  -10.850800   63.581000

 Total Charge           Charge          ....    0
 Multiplicity           Mult            ....    1
 Number of Electrons    NEL             ....  134
 Basis Dimension        Dim             ....  322

ORBITAL ENERGIES
----------------

  NO   OCC          E(Eh)            E(eV)
   0   2.0000     -88.967625     -2420.9322
   1   2.0000     -88.965975     -2420.8873
   2   2.0000     -10.334090      -281.2049
   3   2.0000     -10.327974      -281.0385
   4   2.0000     -10.314568      -280.6737
   5   2.0000     -10.308731      -280.5148
   6   2.0000     -10.308289      -280.5028
   7   2.0000     -10.301243      -280.3111
   8   2.0000     -10.300260      -280.2843
   9   2.0000     -10.299429      -280.2617
  10   2.0000     -10.289003      -279.9780
  11   2.0000     -10.285630      -279.8862
  12   2.0000     -10.284105      -279.8447
  13   2.0000     -10.280737      -279.7531
  14   2.0000     -10.273588      -279.5585
  15   2.0000     -10.264491      -279.3110
  16   2.0000      -8.082082      -219.9246
  17   2.0000      -8.080828      -219.8905
  18   2.0000      -6.040683      -164.3753
  19   2.0000      -6.039222      -164.3356
  20   2.0000      -6.036410      -164.2591
  21   2.0000      -6.035314      -164.2292
  22   2.0000      -6.032950      -164.1649
  23   2.0000      -6.031697      -164.1308
  24   2.0000      -1.004214       -27.3261
  25   2.0000      -0.984120       -26.7793
  26   2.0000      -0.917818       -24.9751
  27   2.0000      -0.902810       -24.5667
  28   2.0000      -0.872709       -23.7476
  29   2.0000      -0.852005       -23.1842
  30   2.0000      -0.844188       -22.9715
  31   2.0000      -0.816277       -22.2120
  32   2.0000      -0.783427       -21.3181
  33   2.0000      -0.773817       -21.0566
  34   2.0000      -0.710728       -19.3399
  35   2.0000      -0.700618       -19.0648
  36   2.0000      -0.695190       -18.9171
  37   2.0000      -0.662774       -18.0350
  38   2.0000      -0.637180       -17.3386
  39   2.0000      -0.615264       -16.7422
  40   2.0000      -0.591861       -16.1053
  41   2.0000      -0.585651       -15.9364
  42   2.0000      -0.552062       -15.0224
  43   2.0000      -0.550960       -14.9924
  44   2.0000      -0.545241       -14.8368
  45   2.0000      -0.535317       -14.5667
  46   2.0000      -0.517727       -14.0881
  47   2.0000      -0.508654       -13.8412
  48   2.0000      -0.504157       -13.7188
  49   2.0000      -0.497759       -13.5447
  50   2.0000      -0.495112       -13.4727
  51   2.0000      -0.486113       -13.2278
  52   2.0000      -0.471225       -12.8227
  53   2.0000      -0.466745       -12.7008
  54   2.0000      -0.459420       -12.5014
  55   2.0000      -0.449421       -12.2294
  56   2.0000      -0.438640       -11.9360
  57   2.0000      -0.431421       -11.7396
  58   2.0000      -0.425659       -11.5828
  59   2.0000      -0.419758       -11.4222
  60   2.0000      -0.418297       -11.3824
  61   2.0000      -0.415756       -11.3133
  62   2.0000      -0.412325       -11.2199
  63   2.0000      -0.343040        -9.3346
  64   2.0000      -0.333037        -9.0624
  65   2.0000      -0.322771        -8.7830
  66   2.0000      -0.295762        -8.0481
  67   0.0000       0.030988         0.8432
  68   0.0000       0.069619         1.8944
  69   0.0000       0.112444         3.0598
  70   0.0000       0.118871         3.2347
  71   0.0000       0.129604         3.5267

MULLIKEN ATOMIC CHARGES
-----------------------
   0 S :    0.120855
   1 C :   -0.117799
   2 C :   -0.084382
   3 C :    0.028593
   4 C :   -0.163295
   5 H :    0.032755
   6 C :    0.021798
   7 H :    0.023869
   8 H :    0.009182
   9 C :   -0.060330
  10 H :    0.023993
  11 H :    0.026257
  12 C :   -0.015761
  13 H :    0.018273
  14 H :    0.050019
  15 H :    0.014453
  16 S :    0.120213
  17 C :   -0.049909
  18 C :   -0.026880
  19 C :   -0.000094
  20 C :   -0.178450
  21 H :   -0.007279
  22 C :   -0.005731
  23 H :    0.031910
  24 H :    0.026210
  25 C :   -0.009001
  26 H :    0.029872
  27 H :    0.015489
  28 C :   -0.001628
  29 H :    0.053531
  30 H :    0.005179
  31 H :    0.004040
  32 H :    0.057473
  33 H :    0.006577
Sum of atomic charges:    0.0000000

LOEWDIN ATOMIC CHARGES
----------------------
   0 S :    0.416709
   1 C :   -0.213192
   2 C :   -0.069763
   3 C :   -0.062920
   4 C :   -0.201016
   5 H :    0.034160
   6 C :   -0.042883
   7 H :    0.029171
   8 H :    0.026123
   9 C :   -0.037527
  10 H :    0.022661
  11 H :    0.024387
  12 C :   -0.065345
  13 H :    0.028508
  14 H :    0.026663
  15 H :    0.025758
  16 S :    0.413403
  17 C :   -0.164821
  18 C :   -0.063853
  19 C :   -0.052804
  20 C :   -0.200737
  21 H :    0.022519
  22 C :   -0.034165
  23 H :    0.031749
  24 H :    0.028108
  25 C :   -0.027762
  26 H :    0.027459
  27 H :    0.019342
  28 C :   -0.064461
  29 H :    0.037221
  30 H :    0.020633
  31 H :    0.020510
  32 H :    0.041783
  33 H :    0.004381

  Mayer bond orders larger than 0.100000
B(  0-S ,  1-C ) :   1.1326 B(  0-S ,  4-C ) :   1.1602 B(  1-C ,  2-C ) :   1.6058
B(  1-C , 32-H ) :   0.9619 B(  2-C ,  3-C ) :   1.2311 B(  2-C ,  6-C ) :   1.0465
B(  3-C ,  4-C ) :   1.5506 B(  3-C ,  5-H ) :   0.9819 B(  4-C , 20-C ) :   1.0364
B(  6-C ,  7-H ) :   0.9414 B(  6-C ,  8-H ) :   0.9395 B(  6-C ,  9-C ) :   1.0602
B(  9-C , 10-H ) :   0.9534 B(  9-C , 11-H ) :   0.9534 B(  9-C , 12-C ) :   1.0981
B( 12-C , 13-H ) :   0.9635 B( 12-C , 14-H ) :   0.9691 B( 12-C , 15-H ) :   0.9643
B( 16-S , 17-C ) :   1.1595 B( 16-S , 20-C ) :   1.1429 B( 17-C , 18-C ) :   1.6263
B( 17-C , 33-H ) :   0.9771 B( 18-C , 19-C ) :   1.2203 B( 18-C , 21-H ) :   1.0045
B( 19-C , 20-C ) :   1.6043 B( 19-C , 22-C ) :   1.0117 B( 22-C , 23-H ) :   0.9432
B( 22-C , 24-H ) :   0.9439 B( 22-C , 25-C ) :   1.0641 B( 25-C , 26-H ) :   0.9569
B( 25-C , 27-H ) :   0.9507 B( 25-C , 28-C ) :   1.0814 B( 28-C , 29-H ) :   0.9760
B( 28-C , 30-H ) :   0.9661 B( 28-C , 31-H ) :   0.9671

Dispersion correction           -0.014773574
FINAL SINGLE POINT ENERGY     -1339.852305878479

DIPOLE MOMENT
-------------
                                X             Y             Z
Electronic contribution:    -12.48453       9.40092     -20.87165
Nuclear contribution   :     12.72574      -9.37009      21.50027
                        -----------------------------------------
Total Dipole Moment    :      0.24121       0.03083       0.62861
                        -----------------------------------------
Magnitude (a.u.)       :      0.67401
Magnitude (Debye)      :      1.71320

Rotational constants in cm-1:     0.018058     0.009227     0.007650
Rotational constants in MHz :   541.368733   276.604444   229.341465

                             ****ORCA TERMINATED NORMALLY****
TOTAL RUN TIME: 0 days 0 hours 0 minutes 36 seconds 357 msec
