                         Program Version 4.2.1 -  RELEASE  -
|  1> ! wB97X-D3 SP def2-SVP
|  2> %pal
|  3> nprocs 16
|  4> end
|  5>
|  6> * xyz 0 1
|  7> S 	 12.3533 	 -7.25853 	 67.3136
|  8> C 	 10.6984 	 -6.68158 	 67.6354
|  9> C 	 9.71354 	 -7.61968 	 67.3857
| 10> C 	 10.2472 	 -8.81572 	 66.7552
| 11> C 	 11.604 	 -8.73019 	 66.5909
| 12> H 	 9.72582 	 -9.71923 	 66.4828
| 13> C 	 8.29785 	 -7.6128 	 67.7674
| 14> H 	 7.90388 	 -8.62023 	 67.5108
| 15> H 	 7.76773 	 -6.84906 	 67.1705
| 16> C 	 8.1598 	 -7.37726 	 69.307
| 17> H 	 9.12626 	 -7.75423 	 69.7747
| 18> H 	 8.11458 	 -6.36392 	 69.652
| 19> C 	 6.95393 	 -8.00596 	 69.8677
| 20> H 	 6.9211 	 -7.78605 	 70.9756
| 21> H 	 6.05356 	 -7.68099 	 69.3973
| 22> H 	 6.889 	 -9.03468 	 69.7024
| 23> S 	 12.7587 	 -11.2564 	 66.7217
| 24> C 	 13.8504 	 -11.6107 	 65.3666
| 25> C 	 13.853 	 -10.6488 	 64.3595
| 26> C 	 13.0648 	 -9.50305 	 64.6923
| 27> C 	 12.3912 	 -9.74192 	 65.8431
| 28> H 	 14.3554 	 -10.786 	 63.4282
| 29> C 	 12.7391 	 -8.4488 	 63.6653
| 30> H 	 11.9309 	 -7.83697 	 64.0258
| 31> H 	 12.3126 	 -8.92228 	 62.8003
| 32> C 	 13.8373 	 -7.41174 	 63.326
| 33> H 	 14.7833 	 -7.84453 	 63.5954
| 34> H 	 13.7268 	 -6.5338 	 64.0234
| 35> C 	 14.0155 	 -6.80825 	 61.9205
| 36> H 	 14.9176 	 -6.18354 	 61.8551
| 37> H 	 13.0585 	 -6.29184 	 61.7219
| 38> H 	 14.2373 	 -7.61434 	 61.2386
| 39> H 	 10.6142 	 -5.9632 	 68.4413
| 40> H 	 14.3197 	 -12.5957 	 65.2905
| 41> *
| 42>
| 43>                          ****END OF INPUT****

CARTESIAN COORDINATES (ANGSTROEM)
---------------------------------
  S     12.353300   -7.258530   67.313600
  C     10.698400   -6.681580   67.635400
  C      9.713540   -7.619680   67.385700
  C     10.247200   -8.815720   66.755200
  C     11.604000   -8.730190   66.590900
  H      9.725820   -9.719230   66.482800
  C      8.297850   -7.612800   67.767400
  H      7.903880   -8.620230   67.510800
  H      7.767730   -6.849060   67.170500
  C      8.159800   -7.377260   69.307000
  H      9.126260   -7.754230   69.774700
  H      8.114580   -6.363920   69.652000
  C      6.953930   -8.005960   69.867700
  H      6.921100   -7.786050   70.975600
  H      6.053560   -7.680990   69.397300
  H      6.889000   -9.034680   69.702400
  S     12.758700  -11.256400   66.721700
  C     13.850400  -11.610700   65.366600
  C     13.853000  -10.648800   64.359500
  C     13.064800   -9.503050   64.692300
  C     12.391200   -9.741920   65.843100
  H     14.355400  -10.786000   63.428200
  C     12.739100   -8.448800   63.665300
  H     11.930900   -7.836970   64.025800
  H     12.312600   -8.922280   62.800300
  C     13.837300   -7.411740   63.326000
  H     14.783300   -7.844530   63.595400
  H     13.726800   -6.533800   64.023400
  C     14.015500   -6.808250   61.920500
  H     14.917600   -6.183540   61.855100
  H     13.058500   -6.291840   61.721900
  H     14.237300   -7.614340   61.238600
  H     10.614200   -5.963200   68.441300
  H     14.319700  -12.595700   65.290500

 Total Charge           Charge          ....    0
 Multiplicity           Mult            ....    1
 Number of Electrons    NEL             ....  134
 Basis Dimension        Dim             ....  322

ORBITAL ENERGIES
----------------

  NO   OCC          E(Eh)            E(eV)
   0   2.0000     -88.968556     -2420.9575
   1   2.0000     -88.965307     -2420.8691
   2   2.0000     -10.327952      -281.0379
   3   2.0000     -10.322789      -280.8974
   4   2.0000     -10.321025      -280.8494
   5   2.0000     -10.310246      -280.5560
   6   2.0000     -10.301228      -280.3107
   7   2.0000     -10.299005      -280.2502
   8   2.0000     -10.294965      -280.1402
   9   2.0000     -10.294372      -280.1241
  10   2.0000     -10.292408      -280.0707
  11   2.0000     -10.286848      -279.9194
  12   2.0000     -10.286380      -279.9066
  13   2.0000     -10.281486      -279.7735
  14   2.0000     -10.278935      -279.7040
  15   2.0000     -10.270706      -279.4801
  16   2.0000      -8.082478      -219.9354
  17   2.0000      -8.078718      -219.8331
  18   2.0000      -6.040893      -164.3811
  19   2.0000      -6.037444      -164.2872
  20   2.0000      -6.037262      -164.2822
  21   2.0000      -6.033679      -164.1847
  22   2.0000      -6.033055      -164.1678
  23   2.0000      -6.029245      -164.0641
  24   2.0000      -0.999731       -27.2041
  25   2.0000      -0.977238       -26.5920
  26   2.0000      -0.915763       -24.9192
  27   2.0000      -0.903290       -24.5798
  28   2.0000      -0.864711       -23.5300
  29   2.0000      -0.853498       -23.2249
  30   2.0000      -0.852014       -23.1845
  31   2.0000      -0.811504       -22.0821
  32   2.0000      -0.785415       -21.3722
  33   2.0000      -0.766082       -20.8462
  34   2.0000      -0.709451       -19.3051
  35   2.0000      -0.693235       -18.8639
  36   2.0000      -0.685841       -18.6627
  37   2.0000      -0.662459       -18.0264
  38   2.0000      -0.640177       -17.4201
  39   2.0000      -0.610657       -16.6168
  40   2.0000      -0.599720       -16.3192
  41   2.0000      -0.570657       -15.5284
  42   2.0000      -0.560198       -15.2438
  43   2.0000      -0.551989       -15.0204
  44   2.0000      -0.528678       -14.3860
  45   2.0000      -0.526458       -14.3257
  46   2.0000      -0.522658       -14.2222
  47   2.0000      -0.511017       -13.9055
  48   2.0000      -0.504208       -13.7202
  49   2.0000      -0.501143       -13.6368
  50   2.0000      -0.483275       -13.1506
  51   2.0000      -0.474187       -12.9033
  52   2.0000      -0.469823       -12.7845
  53   2.0000      -0.465180       -12.6582
  54   2.0000      -0.455786       -12.4026
  55   2.0000      -0.454369       -12.3640
  56   2.0000      -0.442082       -12.0297
  57   2.0000      -0.433870       -11.8062
  58   2.0000      -0.430163       -11.7053
  59   2.0000      -0.422777       -11.5044
  60   2.0000      -0.416126       -11.3234
  61   2.0000      -0.413566       -11.2537
  62   2.0000      -0.406980       -11.0745
  63   2.0000      -0.338720        -9.2170
  64   2.0000      -0.335915        -9.1407
  65   2.0000      -0.320989        -8.7346
  66   2.0000      -0.300450        -8.1756
  67   0.0000       0.038083         1.0363
  68   0.0000       0.053557         1.4574
  69   0.0000       0.098096         2.6693
  70   0.0000       0.102514         2.7896
  71   0.0000       0.125632         3.4186

MULLIKEN ATOMIC CHARGES
-----------------------
   0 S :    0.100822
   1 C :   -0.117933
   2 C :   -0.111933
   3 C :    0.019026
   4 C :   -0.147644
   5 H :    0.018917
   6 C :    0.087455
   7 H :    0.022973
   8 H :    0.052779
   9 C :   -0.101843
  10 H :    0.046079
  11 H :    0.026337
  12 C :   -0.026309
  13 H :    0.041268
  14 H :    0.017302
  15 H :    0.012898
  16 S :    0.104890
  17 C :   -0.103653
  18 C :   -0.009780
  19 C :   -0.009502
  20 C :   -0.196902
  21 H :    0.012973
  22 C :    0.086235
  23 H :    0.025178
  24 H :    0.028541
  25 C :   -0.113939
  26 H :    0.016250
  27 H :    0.034877
  28 C :   -0.044288
  29 H :    0.041162
  30 H :    0.045315
  31 H :    0.024296
  32 H :    0.056079
  33 H :    0.062074
Sum of atomic charges:   -0.0000000

LOEWDIN ATOMIC CHARGES
----------------------
   0 S :    0.367822
   1 C :   -0.200551
   2 C :   -0.054404
   3 C :   -0.062993
   4 C :   -0.169952
   5 H :    0.033074
   6 C :   -0.032610
   7 H :    0.033446
   8 H :    0.041242
   9 C :   -0.045157
  10 H :    0.032011
  11 H :    0.022167
  12 C :   -0.063946
  13 H :    0.036044
  14 H :    0.022334
  15 H :    0.013771
  16 S :    0.375929
  17 C :   -0.175000
  18 C :   -0.058095
  19 C :   -0.056175
  20 C :   -0.182857
  21 H :    0.028365
  22 C :   -0.029357
  23 H :    0.033199
  24 H :    0.031886
  25 C :   -0.048861
  26 H :    0.014487
  27 H :    0.028140
  28 C :   -0.064967
  29 H :    0.032319
  30 H :    0.029230
  31 H :    0.020004
  32 H :    0.022308
  33 H :    0.027147

  Mayer bond orders larger than 0.100000
B(  0-S ,  1-C ) :   1.1105 B(  0-S ,  4-C ) :   1.1379 B(  1-C ,  2-C ) :   1.6490
B(  1-C , 32-H ) :   0.9573 B(  2-C ,  3-C ) :   1.2047 B(  2-C ,  6-C ) :   1.0338
B(  3-C ,  4-C ) :   1.6179 B(  3-C ,  5-H ) :   0.9905 B(  4-C , 20-C ) :   0.9983
B(  6-C ,  7-H ) :   0.9499 B(  6-C ,  8-H ) :   0.9204 B(  6-C ,  9-C ) :   1.0379
B(  9-C , 10-H ) :   0.9638 B(  9-C , 11-H ) :   0.9478 B(  9-C , 12-C ) :   1.1005
B( 12-C , 13-H ) :   0.9712 B( 12-C , 14-H ) :   0.9659 B( 12-C , 15-H ) :   0.9736
B( 16-S , 17-C ) :   1.1343 B( 16-S , 20-C ) :   1.1308 B( 17-C , 18-C ) :   1.6409
B( 17-C , 33-H ) :   0.9648 B( 18-C , 19-C ) :   1.1893 B( 18-C , 21-H ) :   0.9915
B( 19-C , 20-C ) :   1.6494 B( 19-C , 22-C ) :   1.0477 B( 22-C , 23-H ) :   0.9306
B( 22-C , 24-H ) :   0.9485 B( 22-C , 25-C ) :   1.0265 B( 25-C , 26-H ) :   0.9696
B( 25-C , 27-H ) :   0.9544 B( 25-C , 28-C ) :   1.0823 B( 28-C , 29-H ) :   0.9722
B( 28-C , 30-H ) :   0.9774 B( 28-C , 31-H ) :   0.9759

Dispersion correction           -0.014204961
FINAL SINGLE POINT ENERGY     -1339.857664430488

DIPOLE MOMENT
-------------
                                X             Y             Z
Electronic contribution:     11.86281     -10.89297       5.47392
Nuclear contribution   :    -12.25590      10.82381      -5.62875
                        -----------------------------------------
Total Dipole Moment    :     -0.39309      -0.06916      -0.15483
                        -----------------------------------------
Magnitude (a.u.)       :      0.42811
Magnitude (Debye)      :      1.08816

Rotational constants in cm-1:     0.020730     0.007602     0.006214
Rotational constants in MHz :   621.472272   227.899867   186.288116

                             ****ORCA TERMINATED NORMALLY****
TOTAL RUN TIME: 0 days 0 hours 0 minutes 33 seconds 647 msec
