                         Program Version 4.2.1 -  RELEASE  -
|  1> ! wB97X-D3 SP def2-SVP
|  2> %pal
|  3> nprocs 16
|  4> end
|  5>
|  6> * xyz 0 1
|  7> S 	 -83.5581 	 43.6608 	 131.511
|  8> C 	 -83.1924 	 42.0086 	 131.903
|  9> C 	 -83.9952 	 41.1208 	 131.152
| 10> C 	 -84.8874 	 41.8911 	 130.345
| 11> C 	 -84.8492 	 43.248 	 130.406
| 12> H 	 -85.5192 	 41.5493 	 129.572
| 13> C 	 -83.8357 	 39.6067 	 131.013
| 14> H 	 -83.9058 	 39.2896 	 132.009
| 15> H 	 -82.841 	 39.3508 	 130.57
| 16> C 	 -84.8906 	 38.8211 	 130.183
| 17> H 	 -85.107 	 39.2863 	 129.234
| 18> H 	 -84.471 	 37.8048 	 130.033
| 19> C 	 -86.3328 	 38.836 	 130.714
| 20> H 	 -86.4601 	 37.8379 	 131.195
| 21> H 	 -86.5137 	 39.6112 	 131.453
| 22> H 	 -87.1134 	 38.9984 	 129.938
| 23> S 	 -84.6503 	 45.2932 	 128.557
| 24> C 	 -86.1859 	 45.869 	 128.031
| 25> C 	 -87.2705 	 45.4432 	 128.754
| 26> C 	 -86.9553 	 44.3393 	 129.582
| 27> C 	 -85.5995 	 44.2275 	 129.612
| 28> H 	 -88.2832 	 45.7915 	 128.517
| 29> C 	 -87.9329 	 43.4315 	 130.382
| 30> H 	 -87.3604 	 42.7434 	 130.876
| 31> H 	 -88.5195 	 43.0021 	 129.532
| 32> C 	 -88.9187 	 44.0425 	 131.409
| 33> H 	 -89.5769 	 44.7312 	 130.947
| 34> H 	 -88.2547 	 44.6053 	 132.063
| 35> C 	 -89.635 	 43.1255 	 132.4
| 36> H 	 -90.1671 	 43.7802 	 133.011
| 37> H 	 -88.9599 	 42.5782 	 132.973
| 38> H 	 -90.192 	 42.3079 	 131.889
| 39> H 	 -82.3407 	 41.7893 	 132.485
| 40> H 	 -86.2371 	 46.5713 	 127.222
| 41> *
| 42>
| 43>                          ****END OF INPUT****

CARTESIAN COORDINATES (ANGSTROEM)
---------------------------------
  S    -83.558100   43.660800  131.511000
  C    -83.192400   42.008600  131.903000
  C    -83.995200   41.120800  131.152000
  C    -84.887400   41.891100  130.345000
  C    -84.849200   43.248000  130.406000
  H    -85.519200   41.549300  129.572000
  C    -83.835700   39.606700  131.013000
  H    -83.905800   39.289600  132.009000
  H    -82.841000   39.350800  130.570000
  C    -84.890600   38.821100  130.183000
  H    -85.107000   39.286300  129.234000
  H    -84.471000   37.804800  130.033000
  C    -86.332800   38.836000  130.714000
  H    -86.460100   37.837900  131.195000
  H    -86.513700   39.611200  131.453000
  H    -87.113400   38.998400  129.938000
  S    -84.650300   45.293200  128.557000
  C    -86.185900   45.869000  128.031000
  C    -87.270500   45.443200  128.754000
  C    -86.955300   44.339300  129.582000
  C    -85.599500   44.227500  129.612000
  H    -88.283200   45.791500  128.517000
  C    -87.932900   43.431500  130.382000
  H    -87.360400   42.743400  130.876000
  H    -88.519500   43.002100  129.532000
  C    -88.918700   44.042500  131.409000
  H    -89.576900   44.731200  130.947000
  H    -88.254700   44.605300  132.063000
  C    -89.635000   43.125500  132.400000
  H    -90.167100   43.780200  133.011000
  H    -88.959900   42.578200  132.973000
  H    -90.192000   42.307900  131.889000
  H    -82.340700   41.789300  132.485000
  H    -86.237100   46.571300  127.222000

 Total Charge           Charge          ....    0
 Multiplicity           Mult            ....    1
 Number of Electrons    NEL             ....  134
 Basis Dimension        Dim             ....  322

ORBITAL ENERGIES
----------------

  NO   OCC          E(Eh)            E(eV)
   0   2.0000     -88.969555     -2420.9847
   1   2.0000     -88.959311     -2420.7059
   2   2.0000     -10.323327      -280.9120
   3   2.0000     -10.319573      -280.8099
   4   2.0000     -10.314511      -280.6721
   5   2.0000     -10.311365      -280.5865
   6   2.0000     -10.304791      -280.4076
   7   2.0000     -10.304460      -280.3986
   8   2.0000     -10.294306      -280.1223
   9   2.0000     -10.294265      -280.1212
  10   2.0000     -10.292393      -280.0703
  11   2.0000     -10.288087      -279.9531
  12   2.0000     -10.282558      -279.8026
  13   2.0000     -10.281953      -279.7862
  14   2.0000     -10.280283      -279.7407
  15   2.0000     -10.272628      -279.5324
  16   2.0000      -8.084724      -219.9965
  17   2.0000      -8.074452      -219.7170
  18   2.0000      -6.042931      -164.4365
  19   2.0000      -6.039589      -164.3456
  20   2.0000      -6.035351      -164.2302
  21   2.0000      -6.032817      -164.1613
  22   2.0000      -6.028800      -164.0520
  23   2.0000      -6.025456      -163.9610
  24   2.0000      -1.010134       -27.4871
  25   2.0000      -0.985933       -26.8286
  26   2.0000      -0.909591       -24.7512
  27   2.0000      -0.907807       -24.7027
  28   2.0000      -0.869065       -23.6485
  29   2.0000      -0.860970       -23.4282
  30   2.0000      -0.840772       -22.8786
  31   2.0000      -0.815063       -22.1790
  32   2.0000      -0.791997       -21.5513
  33   2.0000      -0.773400       -21.0453
  34   2.0000      -0.705062       -19.1857
  35   2.0000      -0.699361       -19.0306
  36   2.0000      -0.691045       -18.8043
  37   2.0000      -0.657041       -17.8790
  38   2.0000      -0.646227       -17.5847
  39   2.0000      -0.619746       -16.8641
  40   2.0000      -0.601506       -16.3678
  41   2.0000      -0.571976       -15.5642
  42   2.0000      -0.562799       -15.3146
  43   2.0000      -0.549782       -14.9603
  44   2.0000      -0.539221       -14.6730
  45   2.0000      -0.533788       -14.5251
  46   2.0000      -0.523542       -14.2463
  47   2.0000      -0.516866       -14.0646
  48   2.0000      -0.499820       -13.6008
  49   2.0000      -0.491677       -13.3792
  50   2.0000      -0.487658       -13.2699
  51   2.0000      -0.483013       -13.1435
  52   2.0000      -0.473664       -12.8891
  53   2.0000      -0.469771       -12.7831
  54   2.0000      -0.461536       -12.5590
  55   2.0000      -0.455335       -12.3903
  56   2.0000      -0.445142       -12.1129
  57   2.0000      -0.438949       -11.9444
  58   2.0000      -0.434655       -11.8276
  59   2.0000      -0.426528       -11.6064
  60   2.0000      -0.417165       -11.3516
  61   2.0000      -0.407927       -11.1002
  62   2.0000      -0.404870       -11.0171
  63   2.0000      -0.342106        -9.3092
  64   2.0000      -0.338003        -9.1975
  65   2.0000      -0.324934        -8.8419
  66   2.0000      -0.291363        -7.9284
  67   0.0000       0.038896         1.0584
  68   0.0000       0.063983         1.7411
  69   0.0000       0.112072         3.0496
  70   0.0000       0.125127         3.4049
  71   0.0000       0.129943         3.5359

MULLIKEN ATOMIC CHARGES
-----------------------
   0 S :    0.094570
   1 C :   -0.127996
   2 C :   -0.084505
   3 C :    0.032518
   4 C :   -0.182963
   5 H :   -0.013429
   6 C :    0.093641
   7 H :    0.023699
   8 H :    0.054332
   9 C :   -0.087081
  10 H :    0.028097
  11 H :    0.043212
  12 C :   -0.093169
  13 H :    0.039698
  14 H :    0.040415
  15 H :    0.040066
  16 S :    0.128819
  17 C :   -0.084073
  18 C :   -0.026710
  19 C :   -0.053864
  20 C :   -0.173483
  21 H :    0.019814
  22 C :    0.135046
  23 H :   -0.003643
  24 H :    0.037040
  25 C :   -0.088227
  26 H :    0.020807
  27 H :    0.026157
  28 C :    0.006086
  29 H :    0.031149
  30 H :    0.012476
  31 H :    0.028329
  32 H :    0.038022
  33 H :    0.045147
Sum of atomic charges:   -0.0000000

LOEWDIN ATOMIC CHARGES
----------------------
   0 S :    0.404821
   1 C :   -0.196596
   2 C :   -0.061793
   3 C :   -0.075426
   4 C :   -0.199116
   5 H :    0.021444
   6 C :   -0.028474
   7 H :    0.026319
   8 H :    0.042110
   9 C :   -0.047870
  10 H :    0.022812
  11 H :    0.031210
  12 C :   -0.075369
  13 H :    0.030895
  14 H :    0.024119
  15 H :    0.028652
  16 S :    0.405752
  17 C :   -0.178335
  18 C :   -0.071279
  19 C :   -0.044815
  20 C :   -0.192714
  21 H :    0.033284
  22 C :   -0.016979
  23 H :    0.014905
  24 H :    0.037853
  25 C :   -0.036739
  26 H :    0.014668
  27 H :    0.028404
  28 C :   -0.050334
  29 H :    0.024824
  30 H :    0.017741
  31 H :    0.028132
  32 H :    0.017763
  33 H :    0.020130

  Mayer bond orders larger than 0.100000
B(  0-S ,  1-C ) :   1.1647 B(  0-S ,  4-C ) :   1.1508 B(  1-C ,  2-C ) :   1.5711
B(  1-C ,  4-C ) :   0.1029 B(  1-C , 32-H ) :   0.9825 B(  2-C ,  3-C ) :   1.2590
B(  2-C ,  6-C ) :   0.9909 B(  3-C ,  4-C ) :   1.5867 B(  3-C ,  5-H ) :   0.9922
B(  4-C , 20-C ) :   1.0130 B(  6-C ,  7-H ) :   0.9354 B(  6-C ,  8-H ) :   0.9412
B(  6-C ,  9-C ) :   1.0948 B(  9-C , 10-H ) :   0.9592 B(  9-C , 11-H ) :   0.9621
B(  9-C , 12-C ) :   1.0434 B( 12-C , 13-H ) :   0.9773 B( 12-C , 14-H ) :   0.9802
B( 12-C , 15-H ) :   0.9832 B( 16-S , 17-C ) :   1.1504 B( 16-S , 20-C ) :   1.1345
B( 17-C , 18-C ) :   1.6349 B( 17-C , 33-H ) :   0.9688 B( 18-C , 19-C ) :   1.2120
B( 18-C , 21-H ) :   0.9861 B( 19-C , 20-C ) :   1.6406 B( 19-C , 22-C ) :   1.0283
B( 22-C , 23-H ) :   0.9236 B( 22-C , 24-H ) :   0.9251 B( 22-C , 25-C ) :   1.0676
B( 25-C , 26-H ) :   0.9575 B( 25-C , 27-H ) :   0.9549 B( 25-C , 28-C ) :   1.0899
B( 28-C , 29-H ) :   0.9729 B( 28-C , 30-H ) :   0.9711 B( 28-C , 31-H ) :   0.9747

Dispersion correction           -0.014447010
FINAL SINGLE POINT ENERGY     -1339.851805881468

DIPOLE MOMENT
-------------
                                X             Y             Z
Electronic contribution:     19.53044      20.69823      -6.98694
Nuclear contribution   :    -19.92249     -21.08844       6.86776
                        -----------------------------------------
Total Dipole Moment    :     -0.39205      -0.39021      -0.11918
                        -----------------------------------------
Magnitude (a.u.)       :      0.56584
Magnitude (Debye)      :      1.43824

Rotational constants in cm-1:     0.015265     0.010116     0.007572
Rotational constants in MHz :   457.626371   303.256251   226.994698

                             ****ORCA TERMINATED NORMALLY****
TOTAL RUN TIME: 0 days 0 hours 0 minutes 33 seconds 130 msec
