                         Program Version 4.2.1 -  RELEASE  -
|  1> ! wB97X-D3 SP def2-SVP
|  2> %pal
|  3> nprocs 16
|  4> end
|  5>
|  6> * xyz 0 1
|  7> S 	 15.9941 	 7.7807 	 86.4499
|  8> C 	 16.6288 	 6.20425 	 86.8587
|  9> C 	 15.7244 	 5.49682 	 87.6761
| 10> C 	 14.6008 	 6.28923 	 88.0527
| 11> C 	 14.6339 	 7.5802 	 87.5614
| 12> H 	 13.8207 	 5.96982 	 88.619
| 13> C 	 15.9483 	 4.08166 	 88.0254
| 14> H 	 15.386 	 3.86529 	 88.918
| 15> H 	 16.9647 	 4.03733 	 88.1759
| 16> C 	 15.5838 	 2.97399 	 86.9615
| 17> H 	 14.5711 	 3.07589 	 86.632
| 18> H 	 16.1751 	 3.15315 	 86.0744
| 19> C 	 15.9494 	 1.62111 	 87.4749
| 20> H 	 16.5002 	 1.16909 	 86.6582
| 21> H 	 16.6693 	 1.62729 	 88.3165
| 22> H 	 14.9784 	 1.03385 	 87.7145
| 23> S 	 12.9974 	 9.10824 	 85.9951
| 24> C 	 11.714 	 9.99254 	 86.8486
| 25> C 	 11.7748 	 9.90292 	 88.2123
| 26> C 	 12.8685 	 9.11383 	 88.6464
| 27> C 	 13.5669 	 8.52922 	 87.5956
| 28> H 	 11.0696 	 10.4245 	 88.8689
| 29> C 	 13.2268 	 8.99291 	 90.1397
| 30> H 	 14.2055 	 8.48789 	 90.1269
| 31> H 	 12.4843 	 8.29079 	 90.6639
| 32> C 	 13.4376 	 10.2968 	 90.8482
| 33> H 	 12.4922 	 10.774 	 90.6598
| 34> H 	 14.2001 	 10.8541 	 90.2799
| 35> C 	 13.7534 	 10.119 	 92.3596
| 36> H 	 14.5133 	 9.29244 	 92.4394
| 37> H 	 12.9237 	 10.0067 	 92.9724
| 38> H 	 14.2139 	 11.0044 	 92.7646
| 39> H 	 17.6905 	 5.93891 	 86.6733
| 40> H 	 10.8536 	 10.4016 	 86.2863
| 41> *
| 42>
| 43>                          ****END OF INPUT****

CARTESIAN COORDINATES (ANGSTROEM)
---------------------------------
  S     15.994100    7.780700   86.449900
  C     16.628800    6.204250   86.858700
  C     15.724400    5.496820   87.676100
  C     14.600800    6.289230   88.052700
  C     14.633900    7.580200   87.561400
  H     13.820700    5.969820   88.619000
  C     15.948300    4.081660   88.025400
  H     15.386000    3.865290   88.918000
  H     16.964700    4.037330   88.175900
  C     15.583800    2.973990   86.961500
  H     14.571100    3.075890   86.632000
  H     16.175100    3.153150   86.074400
  C     15.949400    1.621110   87.474900
  H     16.500200    1.169090   86.658200
  H     16.669300    1.627290   88.316500
  H     14.978400    1.033850   87.714500
  S     12.997400    9.108240   85.995100
  C     11.714000    9.992540   86.848600
  C     11.774800    9.902920   88.212300
  C     12.868500    9.113830   88.646400
  C     13.566900    8.529220   87.595600
  H     11.069600   10.424500   88.868900
  C     13.226800    8.992910   90.139700
  H     14.205500    8.487890   90.126900
  H     12.484300    8.290790   90.663900
  C     13.437600   10.296800   90.848200
  H     12.492200   10.774000   90.659800
  H     14.200100   10.854100   90.279900
  C     13.753400   10.119000   92.359600
  H     14.513300    9.292440   92.439400
  H     12.923700   10.006700   92.972400
  H     14.213900   11.004400   92.764600
  H     17.690500    5.938910   86.673300
  H     10.853600   10.401600   86.286300

 Total Charge           Charge          ....    0
 Multiplicity           Mult            ....    1
 Number of Electrons    NEL             ....  134
 Basis Dimension        Dim             ....  322

ORBITAL ENERGIES
----------------

  NO   OCC          E(Eh)            E(eV)
   0   2.0000     -88.965345     -2420.8701
   1   2.0000     -88.964882     -2420.8575
   2   2.0000     -10.327226      -281.0181
   3   2.0000     -10.326954      -281.0107
   4   2.0000     -10.318721      -280.7867
   5   2.0000     -10.316036      -280.7136
   6   2.0000     -10.302452      -280.3440
   7   2.0000     -10.299568      -280.2655
   8   2.0000     -10.293886      -280.1109
   9   2.0000     -10.292938      -280.0851
  10   2.0000     -10.287600      -279.9398
  11   2.0000     -10.283940      -279.8402
  12   2.0000     -10.282662      -279.8055
  13   2.0000     -10.281557      -279.7754
  14   2.0000     -10.280459      -279.7455
  15   2.0000     -10.277758      -279.6720
  16   2.0000      -8.079376      -219.8510
  17   2.0000      -8.079251      -219.8476
  18   2.0000      -6.037887      -164.2993
  19   2.0000      -6.037750      -164.2955
  20   2.0000      -6.034097      -164.1961
  21   2.0000      -6.033833      -164.1889
  22   2.0000      -6.030250      -164.0914
  23   2.0000      -6.029839      -164.0803
  24   2.0000      -1.004124       -27.3236
  25   2.0000      -0.979236       -26.6464
  26   2.0000      -0.915234       -24.9048
  27   2.0000      -0.909033       -24.7360
  28   2.0000      -0.871542       -23.7159
  29   2.0000      -0.854334       -23.2476
  30   2.0000      -0.845957       -23.0197
  31   2.0000      -0.815684       -22.1959
  32   2.0000      -0.782496       -21.2928
  33   2.0000      -0.765121       -20.8200
  34   2.0000      -0.704533       -19.1713
  35   2.0000      -0.698484       -19.0067
  36   2.0000      -0.694478       -18.8977
  37   2.0000      -0.658488       -17.9184
  38   2.0000      -0.644632       -17.5413
  39   2.0000      -0.621356       -16.9080
  40   2.0000      -0.594824       -16.1860
  41   2.0000      -0.575076       -15.6486
  42   2.0000      -0.568013       -15.4564
  43   2.0000      -0.555918       -15.1273
  44   2.0000      -0.525027       -14.2867
  45   2.0000      -0.523596       -14.2478
  46   2.0000      -0.519980       -14.1494
  47   2.0000      -0.513048       -13.9607
  48   2.0000      -0.505327       -13.7507
  49   2.0000      -0.500201       -13.6112
  50   2.0000      -0.493027       -13.4160
  51   2.0000      -0.473755       -12.8915
  52   2.0000      -0.469568       -12.7776
  53   2.0000      -0.463268       -12.6062
  54   2.0000      -0.459597       -12.5063
  55   2.0000      -0.454928       -12.3792
  56   2.0000      -0.444004       -12.0820
  57   2.0000      -0.434347       -11.8192
  58   2.0000      -0.431517       -11.7422
  59   2.0000      -0.423423       -11.5219
  60   2.0000      -0.418385       -11.3848
  61   2.0000      -0.415843       -11.3157
  62   2.0000      -0.411325       -11.1927
  63   2.0000      -0.350018        -9.5245
  64   2.0000      -0.333618        -9.0782
  65   2.0000      -0.326488        -8.8842
  66   2.0000      -0.282956        -7.6996
  67   0.0000       0.027031         0.7355
  68   0.0000       0.059398         1.6163
  69   0.0000       0.104289         2.8378
  70   0.0000       0.122889         3.3440
  71   0.0000       0.135149         3.6776

MULLIKEN ATOMIC CHARGES
-----------------------
   0 S :    0.097305
   1 C :   -0.143863
   2 C :   -0.101758
   3 C :    0.084061
   4 C :   -0.157668
   5 H :   -0.030176
   6 C :    0.094260
   7 H :    0.015678
   8 H :    0.002618
   9 C :   -0.052154
  10 H :    0.025619
  11 H :    0.015947
  12 C :   -0.062833
  13 H :    0.031388
  14 H :    0.036975
  15 H :    0.055829
  16 S :    0.096278
  17 C :   -0.104340
  18 C :   -0.035591
  19 C :   -0.039112
  20 C :   -0.154844
  21 H :    0.032430
  22 C :    0.032321
  23 H :    0.024025
  24 H :    0.047721
  25 C :   -0.083572
  26 H :    0.013324
  27 H :    0.041336
  28 C :   -0.005752
  29 H :    0.037522
  30 H :    0.023095
  31 H :    0.025692
  32 H :    0.069947
  33 H :    0.068291
Sum of atomic charges:    0.0000000

LOEWDIN ATOMIC CHARGES
----------------------
   0 S :    0.396265
   1 C :   -0.208164
   2 C :   -0.057641
   3 C :   -0.044820
   4 C :   -0.188093
   5 H :    0.015643
   6 C :   -0.026972
   7 H :    0.026995
   8 H :    0.021099
   9 C :   -0.035161
  10 H :    0.021555
  11 H :    0.020223
  12 C :   -0.074573
  13 H :    0.028490
  14 H :    0.027832
  15 H :    0.040187
  16 S :    0.371796
  17 C :   -0.176176
  18 C :   -0.074038
  19 C :   -0.059189
  20 C :   -0.181209
  21 H :    0.036748
  22 C :   -0.039315
  23 H :    0.027213
  24 H :    0.035997
  25 C :   -0.042278
  26 H :    0.016494
  27 H :    0.031862
  28 C :   -0.057916
  29 H :    0.033707
  30 H :    0.017896
  31 H :    0.027129
  32 H :    0.035580
  33 H :    0.032838

  Mayer bond orders larger than 0.100000
B(  0-S ,  1-C ) :   1.1427 B(  0-S ,  4-C ) :   1.1483 B(  1-C ,  2-C ) :   1.5664
B(  1-C ,  4-C ) :   0.1024 B(  1-C , 32-H ) :   0.9646 B(  2-C ,  3-C ) :   1.2598
B(  2-C ,  6-C ) :   1.0401 B(  3-C ,  4-C ) :   1.5363 B(  3-C ,  5-H ) :   1.0129
B(  4-C , 20-C ) :   1.0592 B(  6-C ,  7-H ) :   0.9391 B(  6-C ,  8-H ) :   0.9258
B(  6-C ,  9-C ) :   1.0673 B(  9-C , 10-H ) :   0.9585 B(  9-C , 11-H ) :   0.9618
B(  9-C , 12-C ) :   1.0653 B( 12-C , 13-H ) :   0.9781 B( 12-C , 14-H ) :   0.9739
B( 12-C , 15-H ) :   0.9761 B( 16-S , 17-C ) :   1.1373 B( 16-S , 20-C ) :   1.1209
B( 17-C , 18-C ) :   1.6381 B( 17-C , 33-H ) :   0.9597 B( 18-C , 19-C ) :   1.2166
B( 18-C , 21-H ) :   0.9839 B( 19-C , 20-C ) :   1.6286 B( 19-C , 22-C ) :   1.0332
B( 22-C , 23-H ) :   0.9277 B( 22-C , 24-H ) :   0.9388 B( 22-C , 25-C ) :   1.0606
B( 25-C , 26-H ) :   0.9567 B( 25-C , 27-H ) :   0.9553 B( 25-C , 28-C ) :   1.0755
B( 28-C , 29-H ) :   0.9748 B( 28-C , 30-H ) :   0.9742 B( 28-C , 31-H ) :   0.9736

Dispersion correction           -0.013288238
FINAL SINGLE POINT ENERGY     -1339.863024171574

DIPOLE MOMENT
-------------
                                X             Y             Z
Electronic contribution:     -1.91571      14.28543     -19.43170
Nuclear contribution   :      1.79432     -14.62541      19.91809
                        -----------------------------------------
Total Dipole Moment    :     -0.12139      -0.33997       0.48639
                        -----------------------------------------
Magnitude (a.u.)       :      0.60572
Magnitude (Debye)      :      1.53961

Rotational constants in cm-1:     0.019210     0.007290     0.006155
Rotational constants in MHz :   575.900714   218.548242   184.519584

                             ****ORCA TERMINATED NORMALLY****
TOTAL RUN TIME: 0 days 0 hours 0 minutes 32 seconds 310 msec
