                         Program Version 4.2.1 -  RELEASE  -
|  1> ! wB97X-D3 SP def2-SVP
|  2> %pal
|  3> nprocs 16
|  4> end
|  5>
|  6> * xyz 0 1
|  7> S 	 -9.45685 	 71.5306 	 48.8936
|  8> C 	 -9.7644 	 70.2744 	 47.7005
|  9> C 	 -11.1089 	 69.9119 	 47.7769
| 10> C 	 -11.8296 	 70.5616 	 48.8229
| 11> C 	 -11.118 	 71.5132 	 49.4935
| 12> H 	 -12.8591 	 70.3448 	 49.1564
| 13> C 	 -11.7738 	 68.9641 	 46.7714
| 14> H 	 -12.4282 	 68.2519 	 47.2463
| 15> H 	 -11.0474 	 68.4386 	 46.1989
| 16> C 	 -12.8312 	 69.6901 	 45.8019
| 17> H 	 -13.6793 	 70.0821 	 46.4698
| 18> H 	 -12.4192 	 70.5599 	 45.356
| 19> C 	 -13.3875 	 68.5909 	 44.8165
| 20> H 	 -14.2528 	 68.8562 	 44.2564
| 21> H 	 -12.5815 	 68.2183 	 44.2186
| 22> H 	 -13.8075 	 67.7059 	 45.3656
| 23> S 	 -10.8663 	 72.104 	 52.2208
| 24> C 	 -11.9889 	 73.1506 	 52.9429
| 25> C 	 -12.9415 	 73.5162 	 52.0721
| 26> C 	 -12.7666 	 73.0098 	 50.728
| 27> C 	 -11.6388 	 72.2542 	 50.6179
| 28> H 	 -13.7326 	 74.1063 	 52.5055
| 29> C 	 -13.8434 	 73.2534 	 49.6953
| 30> H 	 -14.3988 	 72.3202 	 49.5447
| 31> H 	 -13.2751 	 73.4832 	 48.7805
| 32> C 	 -14.7845 	 74.5016 	 49.9086
| 33> H 	 -14.3044 	 75.4369 	 50.0061
| 34> H 	 -15.2537 	 74.3973 	 50.899
| 35> C 	 -15.8791 	 74.6945 	 48.8828
| 36> H 	 -16.3905 	 75.6276 	 49.0466
| 37> H 	 -16.6256 	 73.9152 	 49.1197
| 38> H 	 -15.4915 	 74.7176 	 47.9073
| 39> H 	 -9.02381 	 69.9422 	 47.0148
| 40> H 	 -12.1214 	 73.3874 	 54.0014
| 41> *
| 42>
| 43>                          ****END OF INPUT****

CARTESIAN COORDINATES (ANGSTROEM)
---------------------------------
  S     -9.456850   71.530600   48.893600
  C     -9.764400   70.274400   47.700500
  C    -11.108900   69.911900   47.776900
  C    -11.829600   70.561600   48.822900
  C    -11.118000   71.513200   49.493500
  H    -12.859100   70.344800   49.156400
  C    -11.773800   68.964100   46.771400
  H    -12.428200   68.251900   47.246300
  H    -11.047400   68.438600   46.198900
  C    -12.831200   69.690100   45.801900
  H    -13.679300   70.082100   46.469800
  H    -12.419200   70.559900   45.356000
  C    -13.387500   68.590900   44.816500
  H    -14.252800   68.856200   44.256400
  H    -12.581500   68.218300   44.218600
  H    -13.807500   67.705900   45.365600
  S    -10.866300   72.104000   52.220800
  C    -11.988900   73.150600   52.942900
  C    -12.941500   73.516200   52.072100
  C    -12.766600   73.009800   50.728000
  C    -11.638800   72.254200   50.617900
  H    -13.732600   74.106300   52.505500
  C    -13.843400   73.253400   49.695300
  H    -14.398800   72.320200   49.544700
  H    -13.275100   73.483200   48.780500
  C    -14.784500   74.501600   49.908600
  H    -14.304400   75.436900   50.006100
  H    -15.253700   74.397300   50.899000
  C    -15.879100   74.694500   48.882800
  H    -16.390500   75.627600   49.046600
  H    -16.625600   73.915200   49.119700
  H    -15.491500   74.717600   47.907300
  H     -9.023810   69.942200   47.014800
  H    -12.121400   73.387400   54.001400

 Total Charge           Charge          ....    0
 Multiplicity           Mult            ....    1
 Number of Electrons    NEL             ....  134
 Basis Dimension        Dim             ....  322

ORBITAL ENERGIES
----------------

  NO   OCC          E(Eh)            E(eV)
   0   2.0000     -88.964930     -2420.8588
   1   2.0000     -88.960801     -2420.7465
   2   2.0000     -10.328001      -281.0392
   3   2.0000     -10.324617      -280.9471
   4   2.0000     -10.317055      -280.7413
   5   2.0000     -10.308177      -280.4998
   6   2.0000     -10.305032      -280.4142
   7   2.0000     -10.303822      -280.3813
   8   2.0000     -10.297217      -280.2015
   9   2.0000     -10.296732      -280.1883
  10   2.0000     -10.294597      -280.1302
  11   2.0000     -10.292635      -280.0768
  12   2.0000     -10.284434      -279.8537
  13   2.0000     -10.284170      -279.8465
  14   2.0000     -10.281908      -279.7849
  15   2.0000     -10.273930      -279.5678
  16   2.0000      -8.079230      -219.8470
  17   2.0000      -8.076236      -219.7656
  18   2.0000      -6.037773      -164.2962
  19   2.0000      -6.034791      -164.2150
  20   2.0000      -6.033737      -164.1863
  21   2.0000      -6.030675      -164.1030
  22   2.0000      -6.030022      -164.0852
  23   2.0000      -6.026855      -163.9991
  24   2.0000      -1.008859       -27.4524
  25   2.0000      -0.986269       -26.8377
  26   2.0000      -0.908317       -24.7166
  27   2.0000      -0.901663       -24.5355
  28   2.0000      -0.875327       -23.8189
  29   2.0000      -0.853158       -23.2156
  30   2.0000      -0.842321       -22.9207
  31   2.0000      -0.817684       -22.2503
  32   2.0000      -0.782248       -21.2860
  33   2.0000      -0.770367       -20.9628
  34   2.0000      -0.710560       -19.3353
  35   2.0000      -0.702764       -19.1232
  36   2.0000      -0.699528       -19.0351
  37   2.0000      -0.650777       -17.7085
  38   2.0000      -0.644374       -17.5343
  39   2.0000      -0.619717       -16.8634
  40   2.0000      -0.595647       -16.2084
  41   2.0000      -0.572310       -15.5734
  42   2.0000      -0.570714       -15.5299
  43   2.0000      -0.559711       -15.2305
  44   2.0000      -0.529582       -14.4107
  45   2.0000      -0.526328       -14.3221
  46   2.0000      -0.521289       -14.1850
  47   2.0000      -0.511895       -13.9294
  48   2.0000      -0.509445       -13.8627
  49   2.0000      -0.498307       -13.5596
  50   2.0000      -0.488042       -13.2803
  51   2.0000      -0.482586       -13.1318
  52   2.0000      -0.469320       -12.7708
  53   2.0000      -0.467441       -12.7197
  54   2.0000      -0.459065       -12.4918
  55   2.0000      -0.453952       -12.3527
  56   2.0000      -0.449719       -12.2375
  57   2.0000      -0.433611       -11.7992
  58   2.0000      -0.427761       -11.6400
  59   2.0000      -0.425467       -11.5776
  60   2.0000      -0.417854       -11.3704
  61   2.0000      -0.415345       -11.3021
  62   2.0000      -0.413375       -11.2485
  63   2.0000      -0.348600        -9.4859
  64   2.0000      -0.329553        -8.9676
  65   2.0000      -0.325471        -8.8565
  66   2.0000      -0.299096        -8.1388
  67   0.0000       0.034022         0.9258
  68   0.0000       0.071821         1.9543
  69   0.0000       0.122865         3.3433
  70   0.0000       0.125468         3.4142
  71   0.0000       0.127566         3.4713

MULLIKEN ATOMIC CHARGES
-----------------------
   0 S :    0.103587
   1 C :   -0.119566
   2 C :   -0.057439
   3 C :    0.014378
   4 C :   -0.161611
   5 H :    0.025341
   6 C :    0.071601
   7 H :    0.020880
   8 H :    0.011576
   9 C :   -0.100427
  10 H :    0.036419
  11 H :    0.033512
  12 C :   -0.042134
  13 H :    0.032833
  14 H :    0.034802
  15 H :    0.025186
  16 S :    0.107824
  17 C :   -0.072501
  18 C :   -0.068380
  19 C :   -0.016839
  20 C :   -0.164715
  21 H :    0.011398
  22 C :    0.071359
  23 H :    0.044567
  24 H :    0.037051
  25 C :   -0.105824
  26 H :    0.020013
  27 H :    0.022629
  28 C :   -0.003899
  29 H :    0.024857
  30 H :    0.032703
  31 H :    0.027477
  32 H :    0.046322
  33 H :    0.057019
Sum of atomic charges:    0.0000000

LOEWDIN ATOMIC CHARGES
----------------------
   0 S :    0.394175
   1 C :   -0.186802
   2 C :   -0.062187
   3 C :   -0.061649
   4 C :   -0.192094
   5 H :    0.036971
   6 C :   -0.024380
   7 H :    0.027647
   8 H :    0.020548
   9 C :   -0.033235
  10 H :    0.028269
  11 H :    0.015449
  12 C :   -0.068600
  13 H :    0.022135
  14 H :    0.022920
  15 H :    0.031094
  16 S :    0.406555
  17 C :   -0.199458
  18 C :   -0.083662
  19 C :   -0.050715
  20 C :   -0.192054
  21 H :    0.029251
  22 C :   -0.031751
  23 H :    0.033962
  24 H :    0.038258
  25 C :   -0.042547
  26 H :    0.018610
  27 H :    0.020502
  28 C :   -0.056584
  29 H :    0.027182
  30 H :    0.029953
  31 H :    0.018642
  32 H :    0.025267
  33 H :    0.038328

  Mayer bond orders larger than 0.100000
B(  0-S ,  1-C ) :   1.1347 B(  0-S ,  4-C ) :   1.1414 B(  1-C ,  2-C ) :   1.5920
B(  1-C , 32-H ) :   0.9792 B(  2-C ,  3-C ) :   1.2338 B(  2-C ,  6-C ) :   1.0385
B(  3-C ,  4-C ) :   1.5821 B(  3-C ,  5-H ) :   0.9884 B(  4-C , 20-C ) :   1.0555
B(  6-C ,  7-H ) :   0.9425 B(  6-C ,  8-H ) :   0.9506 B(  6-C ,  9-C ) :   1.0362
B(  9-C , 10-H ) :   0.9587 B(  9-C , 11-H ) :   0.9648 B(  9-C , 12-C ) :   1.0657
B( 12-C , 13-H ) :   0.9758 B( 12-C , 14-H ) :   0.9783 B( 12-C , 15-H ) :   0.9728
B( 16-S , 17-C ) :   1.1519 B( 16-S , 20-C ) :   1.1241 B( 17-C , 18-C ) :   1.6541
B( 17-C , 33-H ) :   0.9549 B( 18-C , 19-C ) :   1.2068 B( 18-C , 21-H ) :   0.9903
B( 19-C , 20-C ) :   1.6339 B( 19-C , 22-C ) :   1.0316 B( 22-C , 23-H ) :   0.9354
B( 22-C , 24-H ) :   0.9250 B( 22-C , 25-C ) :   1.0660 B( 25-C , 26-H ) :   0.9596
B( 25-C , 27-H ) :   0.9470 B( 25-C , 28-C ) :   1.0941 B( 28-C , 29-H ) :   0.9696
B( 28-C , 30-H ) :   0.9766 B( 28-C , 31-H ) :   0.9743

Dispersion correction           -0.013552926
FINAL SINGLE POINT ENERGY     -1339.875814016262

DIPOLE MOMENT
-------------
                                X             Y             Z
Electronic contribution:     25.19379       1.22555      19.50863
Nuclear contribution   :    -25.95289      -1.28574     -19.80062
                        -----------------------------------------
Total Dipole Moment    :     -0.75910      -0.06019      -0.29198
                        -----------------------------------------
Magnitude (a.u.)       :      0.81554
Magnitude (Debye)      :      2.07294

Rotational constants in cm-1:     0.015912     0.008837     0.006186
Rotational constants in MHz :   477.034941   264.919392   185.443181

                             ****ORCA TERMINATED NORMALLY****
TOTAL RUN TIME: 0 days 0 hours 0 minutes 31 seconds 319 msec
