                         Program Version 4.2.1 -  RELEASE  -
|  1> ! wB97X-D3 SP def2-SVP
|  2> %pal
|  3> nprocs 16
|  4> end
|  5>
|  6> * xyz 0 1
|  7> S 	 -44.9035 	 54.1126 	 108.78
|  8> C 	 -45.7276 	 55.5562 	 108.161
|  9> C 	 -44.9587 	 56.6674 	 108.223
| 10> C 	 -43.5688 	 56.3539 	 108.491
| 11> C 	 -43.3857 	 55.0143 	 108.872
| 12> H 	 -42.7631 	 57.1187 	 108.56
| 13> C 	 -45.3905 	 58.1875 	 107.948
| 14> H 	 -44.6445 	 58.6482 	 107.361
| 15> H 	 -45.4833 	 58.6724 	 108.966
| 16> C 	 -46.7699 	 58.3204 	 107.255
| 17> H 	 -46.6273 	 57.9007 	 106.279
| 18> H 	 -47.5612 	 57.6805 	 107.733
| 19> C 	 -47.2952 	 59.7797 	 107.178
| 20> H 	 -47.6499 	 60.0805 	 108.135
| 21> H 	 -46.6109 	 60.5281 	 106.783
| 22> H 	 -48.1718 	 59.8916 	 106.54
| 23> S 	 -42.1587 	 52.7257 	 110.012
| 24> C 	 -40.4252 	 52.4864 	 109.972
| 25> C 	 -39.8455 	 53.5996 	 109.391
| 26> C 	 -40.7587 	 54.6248 	 109.033
| 27> C 	 -42.092 	 54.3401 	 109.234
| 28> H 	 -38.8405 	 53.5333 	 109.202
| 29> C 	 -40.1879 	 55.8987 	 108.39
| 30> H 	 -40.9091 	 56.1445 	 107.61
| 31> H 	 -39.3038 	 55.5861 	 107.812
| 32> C 	 -40.0032 	 57.0029 	 109.404
| 33> H 	 -39.0357 	 56.8772 	 109.986
| 34> H 	 -40.7735 	 57.0411 	 110.199
| 35> C 	 -39.8516 	 58.3312 	 108.669
| 36> H 	 -39.4203 	 59.2212 	 109.245
| 37> H 	 -40.8731 	 58.6719 	 108.367
| 38> H 	 -39.2214 	 58.3662 	 107.762
| 39> H 	 -46.839 	 55.5912 	 108.013
| 40> H 	 -39.9259 	 51.6186 	 110.371
| 41> *
| 42>
| 43>                          ****END OF INPUT****

CARTESIAN COORDINATES (ANGSTROEM)
---------------------------------
  S    -44.903500   54.112600  108.780000
  C    -45.727600   55.556200  108.161000
  C    -44.958700   56.667400  108.223000
  C    -43.568800   56.353900  108.491000
  C    -43.385700   55.014300  108.872000
  H    -42.763100   57.118700  108.560000
  C    -45.390500   58.187500  107.948000
  H    -44.644500   58.648200  107.361000
  H    -45.483300   58.672400  108.966000
  C    -46.769900   58.320400  107.255000
  H    -46.627300   57.900700  106.279000
  H    -47.561200   57.680500  107.733000
  C    -47.295200   59.779700  107.178000
  H    -47.649900   60.080500  108.135000
  H    -46.610900   60.528100  106.783000
  H    -48.171800   59.891600  106.540000
  S    -42.158700   52.725700  110.012000
  C    -40.425200   52.486400  109.972000
  C    -39.845500   53.599600  109.391000
  C    -40.758700   54.624800  109.033000
  C    -42.092000   54.340100  109.234000
  H    -38.840500   53.533300  109.202000
  C    -40.187900   55.898700  108.390000
  H    -40.909100   56.144500  107.610000
  H    -39.303800   55.586100  107.812000
  C    -40.003200   57.002900  109.404000
  H    -39.035700   56.877200  109.986000
  H    -40.773500   57.041100  110.199000
  C    -39.851600   58.331200  108.669000
  H    -39.420300   59.221200  109.245000
  H    -40.873100   58.671900  108.367000
  H    -39.221400   58.366200  107.762000
  H    -46.839000   55.591200  108.013000
  H    -39.925900   51.618600  110.371000

 Total Charge           Charge          ....    0
 Multiplicity           Mult            ....    1
 Number of Electrons    NEL             ....  134
 Basis Dimension        Dim             ....  322

ORBITAL ENERGIES
----------------

  NO   OCC          E(Eh)            E(eV)
   0   2.0000     -88.968839     -2420.9652
   1   2.0000     -88.961844     -2420.7748
   2   2.0000     -10.342848      -281.4432
   3   2.0000     -10.335169      -281.2343
   4   2.0000     -10.319425      -280.8058
   5   2.0000     -10.317144      -280.7438
   6   2.0000     -10.307183      -280.4727
   7   2.0000     -10.304091      -280.3886
   8   2.0000     -10.302804      -280.3535
   9   2.0000     -10.302738      -280.3518
  10   2.0000     -10.296227      -280.1746
  11   2.0000     -10.293839      -280.1096
  12   2.0000     -10.293408      -280.0979
  13   2.0000     -10.288342      -279.9600
  14   2.0000     -10.287452      -279.9358
  15   2.0000     -10.279643      -279.7233
  16   2.0000      -8.082862      -219.9458
  17   2.0000      -8.076139      -219.7629
  18   2.0000      -6.041663      -164.4020
  19   2.0000      -6.037620      -164.2920
  20   2.0000      -6.034764      -164.2143
  21   2.0000      -6.033192      -164.1715
  22   2.0000      -6.030627      -164.1017
  23   2.0000      -6.026890      -164.0000
  24   2.0000      -1.001333       -27.2476
  25   2.0000      -0.981794       -26.7160
  26   2.0000      -0.911757       -24.8102
  27   2.0000      -0.904562       -24.6144
  28   2.0000      -0.865628       -23.5549
  29   2.0000      -0.849916       -23.1274
  30   2.0000      -0.841933       -22.9102
  31   2.0000      -0.812898       -22.1201
  32   2.0000      -0.782749       -21.2997
  33   2.0000      -0.772012       -21.0075
  34   2.0000      -0.710699       -19.3391
  35   2.0000      -0.702023       -19.1030
  36   2.0000      -0.690649       -18.7935
  37   2.0000      -0.668478       -18.1902
  38   2.0000      -0.631474       -17.1833
  39   2.0000      -0.614928       -16.7330
  40   2.0000      -0.593056       -16.1379
  41   2.0000      -0.574778       -15.6405
  42   2.0000      -0.566761       -15.4224
  43   2.0000      -0.561109       -15.2685
  44   2.0000      -0.527171       -14.3450
  45   2.0000      -0.520765       -14.1707
  46   2.0000      -0.514980       -14.0133
  47   2.0000      -0.514472       -13.9995
  48   2.0000      -0.507733       -13.8161
  49   2.0000      -0.497217       -13.5300
  50   2.0000      -0.489351       -13.3159
  51   2.0000      -0.480491       -13.0748
  52   2.0000      -0.478308       -13.0154
  53   2.0000      -0.463117       -12.6020
  54   2.0000      -0.460402       -12.5282
  55   2.0000      -0.450147       -12.2491
  56   2.0000      -0.446732       -12.1562
  57   2.0000      -0.436302       -11.8724
  58   2.0000      -0.432246       -11.7620
  59   2.0000      -0.425014       -11.5652
  60   2.0000      -0.420206       -11.4344
  61   2.0000      -0.410262       -11.1638
  62   2.0000      -0.406165       -11.0523
  63   2.0000      -0.362225        -9.8566
  64   2.0000      -0.334661        -9.1066
  65   2.0000      -0.328341        -8.9346
  66   2.0000      -0.287065        -7.8114
  67   0.0000       0.020691         0.5630
  68   0.0000       0.079436         2.1616
  69   0.0000       0.102860         2.7990
  70   0.0000       0.124909         3.3989
  71   0.0000       0.130035         3.5384

MULLIKEN ATOMIC CHARGES
-----------------------
   0 S :    0.106038
   1 C :   -0.155363
   2 C :   -0.077606
   3 C :   -0.023878
   4 C :   -0.089731
   5 H :    0.013757
   6 C :    0.072899
   7 H :    0.029709
   8 H :    0.051803
   9 C :   -0.118388
  10 H :    0.031270
  11 H :    0.040171
  12 C :   -0.026836
  13 H :    0.023365
  14 H :    0.032059
  15 H :    0.027302
  16 S :    0.068738
  17 C :   -0.089407
  18 C :    0.000540
  19 C :   -0.087968
  20 C :   -0.105064
  21 H :   -0.013028
  22 C :    0.052807
  23 H :    0.028161
  24 H :    0.029873
  25 C :   -0.053920
  26 H :    0.037578
  27 H :    0.051882
  28 C :   -0.091232
  29 H :    0.039993
  30 H :    0.028894
  31 H :    0.037901
  32 H :    0.065519
  33 H :    0.062159
Sum of atomic charges:    0.0000000

LOEWDIN ATOMIC CHARGES
----------------------
   0 S :    0.386028
   1 C :   -0.202204
   2 C :   -0.061030
   3 C :   -0.075299
   4 C :   -0.172969
   5 H :    0.034596
   6 C :   -0.019754
   7 H :    0.023743
   8 H :    0.040404
   9 C :   -0.045518
  10 H :    0.020920
  11 H :    0.027953
  12 C :   -0.064785
  13 H :    0.020847
  14 H :    0.025692
  15 H :    0.028546
  16 S :    0.377679
  17 C :   -0.173580
  18 C :   -0.067929
  19 C :   -0.058321
  20 C :   -0.181346
  21 H :    0.018089
  22 C :   -0.031523
  23 H :    0.028841
  24 H :    0.034989
  25 C :   -0.048805
  26 H :    0.034020
  27 H :    0.032335
  28 C :   -0.080672
  29 H :    0.031295
  30 H :    0.021478
  31 H :    0.027533
  32 H :    0.036865
  33 H :    0.031883

  Mayer bond orders larger than 0.100000
B(  0-S ,  1-C ) :   1.1063 B(  0-S ,  4-C ) :   1.1426 B(  1-C ,  2-C ) :   1.6786
B(  1-C , 32-H ) :   0.9516 B(  2-C ,  3-C ) :   1.2238 B(  2-C ,  6-C ) :   0.9905
B(  3-C ,  4-C ) :   1.5837 B(  3-C ,  5-H ) :   0.9811 B(  4-C , 20-C ) :   1.0616
B(  6-C ,  7-H ) :   0.9482 B(  6-C ,  8-H ) :   0.9417 B(  6-C ,  9-C ) :   1.0742
B(  9-C , 10-H ) :   0.9591 B(  9-C , 11-H ) :   0.9516 B(  9-C , 12-C ) :   1.0809
B( 12-C , 13-H ) :   0.9753 B( 12-C , 14-H ) :   0.9763 B( 12-C , 15-H ) :   0.9727
B( 16-S , 17-C ) :   1.1625 B( 16-S , 20-C ) :   1.1195 B( 17-C , 18-C ) :   1.5868
B( 17-C , 33-H ) :   0.9705 B( 18-C , 19-C ) :   1.2556 B( 18-C , 21-H ) :   1.0077
B( 19-C , 20-C ) :   1.5959 B( 19-C , 22-C ) :   1.0248 B( 22-C , 23-H ) :   0.9458
B( 22-C , 24-H ) :   0.9314 B( 22-C , 25-C ) :   1.0460 B( 25-C , 26-H ) :   0.9492
B( 25-C , 27-H ) :   0.9614 B( 25-C , 28-C ) :   1.0682 B( 28-C , 29-H ) :   0.9735
B( 28-C , 30-H ) :   0.9763 B( 28-C , 31-H ) :   0.9713

Dispersion correction           -0.013823703
FINAL SINGLE POINT ENERGY     -1339.876449387498

DIPOLE MOMENT
-------------
                                X             Y             Z
Electronic contribution:     -0.07707     -30.76520       8.25492
Nuclear contribution   :      0.34571      31.43526      -8.44637
                        -----------------------------------------
Total Dipole Moment    :      0.26863       0.67006      -0.19145
                        -----------------------------------------
Magnitude (a.u.)       :      0.74686
Magnitude (Debye)      :      1.89836

Rotational constants in cm-1:     0.020074     0.007935     0.005811
Rotational constants in MHz :   601.812049   237.884095   174.221608

                             ****ORCA TERMINATED NORMALLY****
TOTAL RUN TIME: 0 days 0 hours 0 minutes 29 seconds 99 msec
