                         Program Version 4.2.1 -  RELEASE  -
|  1> ! wB97X-D3 SP def2-SVP
|  2> %pal
|  3> nprocs 16
|  4> end
|  5>
|  6> * xyz 0 1
|  7> S 	 -16.1048 	 -10.7895 	 90.856
|  8> C 	 -16.8661 	 -10.1548 	 89.421
|  9> C 	 -16.0432 	 -9.23064 	 88.803
| 10> C 	 -14.748 	 -9.20303 	 89.3842
| 11> C 	 -14.6084 	 -9.93395 	 90.5407
| 12> H 	 -13.8945 	 -8.72207 	 88.9507
| 13> C 	 -16.5225 	 -8.4587 	 87.5596
| 14> H 	 -17.0187 	 -9.12299 	 86.8447
| 15> H 	 -15.6818 	 -8.09897 	 87.0166
| 16> C 	 -17.519 	 -7.33773 	 87.9152
| 17> H 	 -18.2574 	 -7.70697 	 88.6302
| 18> H 	 -16.9318 	 -6.59194 	 88.4758
| 19> C 	 -18.1446 	 -6.56017 	 86.7738
| 20> H 	 -18.4305 	 -7.24637 	 86.0298
| 21> H 	 -19.0268 	 -6.06648 	 87.0859
| 22> H 	 -17.551 	 -5.75976 	 86.4221
| 23> S 	 -12.4 	 -9.00394 	 91.7079
| 24> C 	 -11.1268 	 -10.1187 	 92.1346
| 25> C 	 -11.511 	 -11.4571 	 92.008
| 26> C 	 -12.8047 	 -11.5478 	 91.3776
| 27> C 	 -13.3887 	 -10.3476 	 91.1808
| 28> H 	 -10.7785 	 -12.2574 	 92.2456
| 29> C 	 -13.4456 	 -12.9123 	 90.9971
| 30> H 	 -12.6949 	 -13.5763 	 90.4494
| 31> H 	 -14.109 	 -12.6577 	 90.1571
| 32> C 	 -14.0318 	 -13.7583 	 92.1662
| 33> H 	 -14.8063 	 -13.1275 	 92.6635
| 34> H 	 -13.2515 	 -13.9745 	 92.9121
| 35> C 	 -14.5092 	 -15.0525 	 91.6121
| 36> H 	 -15.0429 	 -15.6388 	 92.3662
| 37> H 	 -13.7393 	 -15.734 	 91.3517
| 38> H 	 -15.2635 	 -14.9803 	 90.845
| 39> H 	 -17.8532 	 -10.44 	 89.0553
| 40> H 	 -10.1733 	 -9.90548 	 92.5181
| 41> *
| 42>
| 43>                          ****END OF INPUT****

CARTESIAN COORDINATES (ANGSTROEM)
---------------------------------
  S    -16.104800  -10.789500   90.856000
  C    -16.866100  -10.154800   89.421000
  C    -16.043200   -9.230640   88.803000
  C    -14.748000   -9.203030   89.384200
  C    -14.608400   -9.933950   90.540700
  H    -13.894500   -8.722070   88.950700
  C    -16.522500   -8.458700   87.559600
  H    -17.018700   -9.122990   86.844700
  H    -15.681800   -8.098970   87.016600
  C    -17.519000   -7.337730   87.915200
  H    -18.257400   -7.706970   88.630200
  H    -16.931800   -6.591940   88.475800
  C    -18.144600   -6.560170   86.773800
  H    -18.430500   -7.246370   86.029800
  H    -19.026800   -6.066480   87.085900
  H    -17.551000   -5.759760   86.422100
  S    -12.400000   -9.003940   91.707900
  C    -11.126800  -10.118700   92.134600
  C    -11.511000  -11.457100   92.008000
  C    -12.804700  -11.547800   91.377600
  C    -13.388700  -10.347600   91.180800
  H    -10.778500  -12.257400   92.245600
  C    -13.445600  -12.912300   90.997100
  H    -12.694900  -13.576300   90.449400
  H    -14.109000  -12.657700   90.157100
  C    -14.031800  -13.758300   92.166200
  H    -14.806300  -13.127500   92.663500
  H    -13.251500  -13.974500   92.912100
  C    -14.509200  -15.052500   91.612100
  H    -15.042900  -15.638800   92.366200
  H    -13.739300  -15.734000   91.351700
  H    -15.263500  -14.980300   90.845000
  H    -17.853200  -10.440000   89.055300
  H    -10.173300   -9.905480   92.518100

 Total Charge           Charge          ....    0
 Multiplicity           Mult            ....    1
 Number of Electrons    NEL             ....  134
 Basis Dimension        Dim             ....  322

ORBITAL ENERGIES
----------------

  NO   OCC          E(Eh)            E(eV)
   0   2.0000     -88.966028     -2420.8887
   1   2.0000     -88.964998     -2420.8607
   2   2.0000     -10.325326      -280.9664
   3   2.0000     -10.320347      -280.8309
   4   2.0000     -10.315570      -280.7009
   5   2.0000     -10.313123      -280.6343
   6   2.0000     -10.302253      -280.3386
   7   2.0000     -10.301275      -280.3119
   8   2.0000     -10.297298      -280.2037
   9   2.0000     -10.293991      -280.1137
  10   2.0000     -10.293772      -280.1078
  11   2.0000     -10.291751      -280.0528
  12   2.0000     -10.287957      -279.9495
  13   2.0000     -10.283155      -279.8189
  14   2.0000     -10.268607      -279.4230
  15   2.0000     -10.266235      -279.3584
  16   2.0000      -8.080404      -219.8790
  17   2.0000      -8.079862      -219.8642
  18   2.0000      -6.038903      -164.3269
  19   2.0000      -6.038416      -164.3136
  20   2.0000      -6.034783      -164.2148
  21   2.0000      -6.034402      -164.2044
  22   2.0000      -6.031375      -164.1221
  23   2.0000      -6.030515      -164.0987
  24   2.0000      -1.010275       -27.4910
  25   2.0000      -0.984648       -26.7936
  26   2.0000      -0.910464       -24.7750
  27   2.0000      -0.904328       -24.6080
  28   2.0000      -0.871922       -23.7262
  29   2.0000      -0.854127       -23.2420
  30   2.0000      -0.847399       -23.0589
  31   2.0000      -0.815896       -22.2017
  32   2.0000      -0.783465       -21.3192
  33   2.0000      -0.770203       -20.9583
  34   2.0000      -0.703735       -19.1496
  35   2.0000      -0.700124       -19.0513
  36   2.0000      -0.694559       -18.8999
  37   2.0000      -0.666409       -18.1339
  38   2.0000      -0.641697       -17.4615
  39   2.0000      -0.616757       -16.7828
  40   2.0000      -0.589796       -16.0492
  41   2.0000      -0.571291       -15.5456
  42   2.0000      -0.564023       -15.3478
  43   2.0000      -0.561225       -15.2717
  44   2.0000      -0.525837       -14.3088
  45   2.0000      -0.524607       -14.2753
  46   2.0000      -0.518086       -14.0978
  47   2.0000      -0.512964       -13.9585
  48   2.0000      -0.509849       -13.8737
  49   2.0000      -0.505492       -13.7551
  50   2.0000      -0.492166       -13.3925
  51   2.0000      -0.476382       -12.9630
  52   2.0000      -0.470873       -12.8131
  53   2.0000      -0.464143       -12.6300
  54   2.0000      -0.460332       -12.5263
  55   2.0000      -0.449300       -12.2261
  56   2.0000      -0.446713       -12.1557
  57   2.0000      -0.432360       -11.7651
  58   2.0000      -0.429985       -11.7005
  59   2.0000      -0.423150       -11.5145
  60   2.0000      -0.419688       -11.4203
  61   2.0000      -0.414259       -11.2726
  62   2.0000      -0.406797       -11.0695
  63   2.0000      -0.347322        -9.4511
  64   2.0000      -0.332270        -9.0415
  65   2.0000      -0.328040        -8.9264
  66   2.0000      -0.295021        -8.0279
  67   0.0000       0.030998         0.8435
  68   0.0000       0.075008         2.0411
  69   0.0000       0.113507         3.0887
  70   0.0000       0.117057         3.1853
  71   0.0000       0.130608         3.5540

MULLIKEN ATOMIC CHARGES
-----------------------
   0 S :    0.103925
   1 C :   -0.128696
   2 C :   -0.086861
   3 C :    0.045123
   4 C :   -0.157950
   5 H :    0.008476
   6 C :    0.090146
   7 H :    0.022007
   8 H :    0.008457
   9 C :   -0.107198
  10 H :    0.029451
  11 H :    0.023960
  12 C :    0.021517
  13 H :    0.014605
  14 H :    0.017317
  15 H :    0.026014
  16 S :    0.112405
  17 C :   -0.073151
  18 C :   -0.053862
  19 C :   -0.017241
  20 C :   -0.157317
  21 H :    0.036456
  22 C :    0.004475
  23 H :    0.023008
  24 H :    0.034811
  25 C :   -0.043594
  26 H :    0.034534
  27 H :    0.030815
  28 C :   -0.016379
  29 H :    0.017366
  30 H :    0.023763
  31 H :    0.026450
  32 H :    0.054235
  33 H :    0.032933
Sum of atomic charges:   -0.0000000

LOEWDIN ATOMIC CHARGES
----------------------
   0 S :    0.420327
   1 C :   -0.193131
   2 C :   -0.062814
   3 C :   -0.056615
   4 C :   -0.203259
   5 H :    0.028768
   6 C :   -0.027250
   7 H :    0.027513
   8 H :    0.022894
   9 C :   -0.043152
  10 H :    0.022901
  11 H :    0.026634
  12 C :   -0.057237
  13 H :    0.018031
  14 H :    0.026515
  15 H :    0.023416
  16 S :    0.410282
  17 C :   -0.180000
  18 C :   -0.070624
  19 C :   -0.059007
  20 C :   -0.200143
  21 H :    0.039587
  22 C :   -0.042083
  23 H :    0.032314
  24 H :    0.025077
  25 C :   -0.039397
  26 H :    0.025252
  27 H :    0.028267
  28 C :   -0.066810
  29 H :    0.027944
  30 H :    0.022598
  31 H :    0.024855
  32 H :    0.030526
  33 H :    0.017822

  Mayer bond orders larger than 0.100000
B(  0-S ,  1-C ) :   1.1561 B(  0-S ,  4-C ) :   1.1482 B(  1-C ,  2-C ) :   1.5861
B(  1-C , 32-H ) :   0.9684 B(  2-C ,  3-C ) :   1.2694 B(  2-C ,  6-C ) :   1.0207
B(  3-C ,  4-C ) :   1.5664 B(  3-C ,  5-H ) :   0.9920 B(  4-C , 20-C ) :   1.0026
B(  6-C ,  7-H ) :   0.9423 B(  6-C ,  8-H ) :   0.9411 B(  6-C ,  9-C ) :   1.0561
B(  9-C , 10-H ) :   0.9629 B(  9-C , 11-H ) :   0.9546 B(  9-C , 12-C ) :   1.0842
B( 12-C , 13-H ) :   0.9729 B( 12-C , 14-H ) :   0.9683 B( 12-C , 15-H ) :   0.9747
B( 16-S , 17-C ) :   1.1490 B( 16-S , 20-C ) :   1.1268 B( 17-C , 18-C ) :   1.6378
B( 17-C , 33-H ) :   0.9705 B( 18-C , 19-C ) :   1.2076 B( 18-C , 21-H ) :   0.9838
B( 19-C , 20-C ) :   1.6491 B( 19-C , 22-C ) :   1.0274 B( 22-C , 23-H ) :   0.9396
B( 22-C , 24-H ) :   0.9357 B( 22-C , 25-C ) :   1.0518 B( 25-C , 26-H ) :   0.9511
B( 25-C , 27-H ) :   0.9526 B( 25-C , 28-C ) :   1.0960 B( 28-C , 29-H ) :   0.9663
B( 28-C , 30-H ) :   0.9699 B( 28-C , 31-H ) :   0.9723

Dispersion correction           -0.014004428
FINAL SINGLE POINT ENERGY     -1339.881159693539

DIPOLE MOMENT
-------------
                                X             Y             Z
Electronic contribution:     10.98026       5.44094      11.89980
Nuclear contribution   :    -11.00440      -5.65226     -12.31634
                        -----------------------------------------
Total Dipole Moment    :     -0.02414      -0.21132      -0.41653
                        -----------------------------------------
Magnitude (a.u.)       :      0.46770
Magnitude (Debye)      :      1.18879

Rotational constants in cm-1:     0.021790     0.007607     0.005977
Rotational constants in MHz :   653.251941   228.055601   179.178995

                             ****ORCA TERMINATED NORMALLY****
TOTAL RUN TIME: 0 days 0 hours 0 minutes 30 seconds 521 msec
