                         Program Version 4.2.1 -  RELEASE  -
|  1> ! wB97X-D3 SP def2-SVP
|  2> %pal
|  3> nprocs 16
|  4> end
|  5>
|  6> * xyz 0 1
|  7> S 	 -30.3194 	 27.2609 	 48.0299
|  8> C 	 -29.4422 	 27.2315 	 49.5247
|  9> C 	 -29.7488 	 28.3187 	 50.3278
| 10> C 	 -30.6858 	 29.1749 	 49.6864
| 11> C 	 -31.0839 	 28.7856 	 48.4334
| 12> H 	 -31.0705 	 30.1135 	 50.0843
| 13> C 	 -29.3117 	 28.5151 	 51.8024
| 14> H 	 -28.2917 	 28.2041 	 51.8468
| 15> H 	 -29.6966 	 27.6879 	 52.415
| 16> C 	 -29.535 	 29.8904 	 52.4628
| 17> H 	 -30.5997 	 30.0853 	 52.5033
| 18> H 	 -29.1233 	 29.7682 	 53.5193
| 19> C 	 -28.7381 	 30.9942 	 51.7453
| 20> H 	 -29.168 	 31.3377 	 50.8489
| 21> H 	 -28.7125 	 31.8618 	 52.3355
| 22> H 	 -27.6937 	 30.7125 	 51.4116
| 23> S 	 -31.5313 	 29.4839 	 45.8663
| 24> C 	 -32.9721 	 30.4022 	 45.5318
| 25> C 	 -33.8757 	 30.4042 	 46.5822
| 26> C 	 -33.3211 	 29.8661 	 47.7659
| 27> C 	 -32.0765 	 29.3385 	 47.5261
| 28> H 	 -34.8024 	 30.9647 	 46.4748
| 29> C 	 -34.0357 	 29.9545 	 49.0782
| 30> H 	 -35.0547 	 30.4371 	 48.8441
| 31> H 	 -33.4445 	 30.623 	 49.668
| 32> C 	 -34.2658 	 28.5971 	 49.8048
| 33> H 	 -33.2841 	 28.3239 	 50.2185
| 34> H 	 -34.6067 	 27.7794 	 49.1603
| 35> C 	 -35.3611 	 28.6975 	 50.9202
| 36> H 	 -35.1593 	 29.4049 	 51.7231
| 37> H 	 -35.5402 	 27.7121 	 51.2807
| 38> H 	 -36.2624 	 29.0976 	 50.3933
| 39> H 	 -28.8533 	 26.4089 	 49.8426
| 40> H 	 -33.2339 	 30.7472 	 44.6004
| 41> *
| 42>
| 43>                          ****END OF INPUT****

CARTESIAN COORDINATES (ANGSTROEM)
---------------------------------
  S    -30.319400   27.260900   48.029900
  C    -29.442200   27.231500   49.524700
  C    -29.748800   28.318700   50.327800
  C    -30.685800   29.174900   49.686400
  C    -31.083900   28.785600   48.433400
  H    -31.070500   30.113500   50.084300
  C    -29.311700   28.515100   51.802400
  H    -28.291700   28.204100   51.846800
  H    -29.696600   27.687900   52.415000
  C    -29.535000   29.890400   52.462800
  H    -30.599700   30.085300   52.503300
  H    -29.123300   29.768200   53.519300
  C    -28.738100   30.994200   51.745300
  H    -29.168000   31.337700   50.848900
  H    -28.712500   31.861800   52.335500
  H    -27.693700   30.712500   51.411600
  S    -31.531300   29.483900   45.866300
  C    -32.972100   30.402200   45.531800
  C    -33.875700   30.404200   46.582200
  C    -33.321100   29.866100   47.765900
  C    -32.076500   29.338500   47.526100
  H    -34.802400   30.964700   46.474800
  C    -34.035700   29.954500   49.078200
  H    -35.054700   30.437100   48.844100
  H    -33.444500   30.623000   49.668000
  C    -34.265800   28.597100   49.804800
  H    -33.284100   28.323900   50.218500
  H    -34.606700   27.779400   49.160300
  C    -35.361100   28.697500   50.920200
  H    -35.159300   29.404900   51.723100
  H    -35.540200   27.712100   51.280700
  H    -36.262400   29.097600   50.393300
  H    -28.853300   26.408900   49.842600
  H    -33.233900   30.747200   44.600400

 Total Charge           Charge          ....    0
 Multiplicity           Mult            ....    1
 Number of Electrons    NEL             ....  134
 Basis Dimension        Dim             ....  322

ORBITAL ENERGIES
----------------

  NO   OCC          E(Eh)            E(eV)
   0   2.0000     -88.967267     -2420.9224
   1   2.0000     -88.963179     -2420.8112
   2   2.0000     -10.324931      -280.9557
   3   2.0000     -10.321657      -280.8666
   4   2.0000     -10.309575      -280.5378
   5   2.0000     -10.308051      -280.4963
   6   2.0000     -10.302087      -280.3340
   7   2.0000     -10.299413      -280.2613
   8   2.0000     -10.297757      -280.2162
   9   2.0000     -10.296674      -280.1867
  10   2.0000     -10.292386      -280.0701
  11   2.0000     -10.292188      -280.0647
  12   2.0000     -10.290529      -280.0195
  13   2.0000     -10.286670      -279.9145
  14   2.0000     -10.277997      -279.6785
  15   2.0000     -10.273448      -279.5547
  16   2.0000      -8.082170      -219.9270
  17   2.0000      -8.078258      -219.8206
  18   2.0000      -6.040537      -164.3714
  19   2.0000      -6.036789      -164.2694
  20   2.0000      -6.036706      -164.2671
  21   2.0000      -6.032937      -164.1646
  22   2.0000      -6.032670      -164.1573
  23   2.0000      -6.029123      -164.0608
  24   2.0000      -1.009881       -27.4803
  25   2.0000      -0.985757       -26.8238
  26   2.0000      -0.908581       -24.7237
  27   2.0000      -0.905831       -24.6489
  28   2.0000      -0.869563       -23.6620
  29   2.0000      -0.852824       -23.2065
  30   2.0000      -0.841847       -22.9078
  31   2.0000      -0.816330       -22.2135
  32   2.0000      -0.785810       -21.3830
  33   2.0000      -0.772904       -21.0318
  34   2.0000      -0.711611       -19.3639
  35   2.0000      -0.700020       -19.0485
  36   2.0000      -0.688349       -18.7309
  37   2.0000      -0.665332       -18.1046
  38   2.0000      -0.643550       -17.5119
  39   2.0000      -0.624897       -17.0043
  40   2.0000      -0.595244       -16.1974
  41   2.0000      -0.565100       -15.3772
  42   2.0000      -0.560262       -15.2455
  43   2.0000      -0.548655       -14.9297
  44   2.0000      -0.533421       -14.5151
  45   2.0000      -0.530982       -14.4487
  46   2.0000      -0.513907       -13.9841
  47   2.0000      -0.511648       -13.9226
  48   2.0000      -0.500584       -13.6216
  49   2.0000      -0.497867       -13.5476
  50   2.0000      -0.489989       -13.3333
  51   2.0000      -0.486277       -13.2323
  52   2.0000      -0.467762       -12.7285
  53   2.0000      -0.466398       -12.6913
  54   2.0000      -0.459279       -12.4976
  55   2.0000      -0.447174       -12.1682
  56   2.0000      -0.441740       -12.0203
  57   2.0000      -0.438625       -11.9356
  58   2.0000      -0.433895       -11.8069
  59   2.0000      -0.432340       -11.7646
  60   2.0000      -0.421758       -11.4766
  61   2.0000      -0.417613       -11.3638
  62   2.0000      -0.413864       -11.2618
  63   2.0000      -0.346684        -9.4338
  64   2.0000      -0.334098        -9.0913
  65   2.0000      -0.329340        -8.9618
  66   2.0000      -0.286736        -7.8025
  67   0.0000       0.031490         0.8569
  68   0.0000       0.067576         1.8388
  69   0.0000       0.109255         2.9730
  70   0.0000       0.120006         3.2655
  71   0.0000       0.137711         3.7473

MULLIKEN ATOMIC CHARGES
-----------------------
   0 S :    0.104901
   1 C :   -0.118297
   2 C :   -0.077425
   3 C :   -0.004737
   4 C :   -0.141171
   5 H :    0.007621
   6 C :    0.066292
   7 H :    0.007789
   8 H :    0.032456
   9 C :   -0.075654
  10 H :    0.039041
  11 H :    0.045538
  12 C :   -0.028785
  13 H :    0.016008
  14 H :    0.021494
  15 H :    0.039395
  16 S :    0.116947
  17 C :   -0.053192
  18 C :   -0.055076
  19 C :   -0.022230
  20 C :   -0.157415
  21 H :    0.023184
  22 C :    0.055984
  23 H :    0.023683
  24 H :    0.033586
  25 C :   -0.089806
  26 H :    0.045684
  27 H :    0.038875
  28 C :   -0.039466
  29 H :    0.030563
  30 H :    0.035201
  31 H :    0.026217
  32 H :    0.032714
  33 H :    0.020082
Sum of atomic charges:   -0.0000000

LOEWDIN ATOMIC CHARGES
----------------------
   0 S :    0.409122
   1 C :   -0.201109
   2 C :   -0.060240
   3 C :   -0.075856
   4 C :   -0.191141
   5 H :    0.028404
   6 C :   -0.038695
   7 H :    0.026384
   8 H :    0.035276
   9 C :   -0.040386
  10 H :    0.023568
  11 H :    0.038395
  12 C :   -0.065573
  13 H :    0.018134
  14 H :    0.019867
  15 H :    0.036588
  16 S :    0.412950
  17 C :   -0.171392
  18 C :   -0.068527
  19 C :   -0.055605
  20 C :   -0.201231
  21 H :    0.033981
  22 C :   -0.031018
  23 H :    0.035308
  24 H :    0.029123
  25 C :   -0.038202
  26 H :    0.025684
  27 H :    0.028800
  28 C :   -0.063144
  29 H :    0.021919
  30 H :    0.022338
  31 H :    0.026856
  32 H :    0.020717
  33 H :    0.008702

  Mayer bond orders larger than 0.100000
B(  0-S ,  1-C ) :   1.1443 B(  0-S ,  4-C ) :   1.1595 B(  1-C ,  2-C ) :   1.6083
B(  1-C ,  4-C ) :   0.1045 B(  1-C , 32-H ) :   0.9762 B(  2-C ,  3-C ) :   1.2509
B(  2-C ,  6-C ) :   0.9956 B(  3-C ,  4-C ) :   1.5847 B(  3-C ,  5-H ) :   0.9906
B(  4-C , 20-C ) :   1.0195 B(  6-C ,  7-H ) :   0.9308 B(  6-C ,  8-H ) :   0.9367
B(  6-C ,  9-C ) :   1.0843 B(  9-C , 10-H ) :   0.9494 B(  9-C , 11-H ) :   0.9524
B(  9-C , 12-C ) :   1.0735 B( 12-C , 13-H ) :   0.9720 B( 12-C , 14-H ) :   0.9728
B( 12-C , 15-H ) :   0.9744 B( 16-S , 17-C ) :   1.1591 B( 16-S , 20-C ) :   1.1398
B( 17-C , 18-C ) :   1.6187 B( 17-C , 20-C ) :   0.1048 B( 17-C , 33-H ) :   0.9725
B( 18-C , 19-C ) :   1.2414 B( 18-C , 21-H ) :   0.9856 B( 19-C , 20-C ) :   1.6026
B( 19-C , 22-C ) :   1.0375 B( 22-C , 23-H ) :   0.9360 B( 22-C , 24-H ) :   0.9258
B( 22-C , 25-C ) :   1.0583 B( 25-C , 26-H ) :   0.9491 B( 25-C , 27-H ) :   0.9617
B( 25-C , 28-C ) :   1.0815 B( 28-C , 29-H ) :   0.9766 B( 28-C , 30-H ) :   0.9770
B( 28-C , 31-H ) :   0.9754

Dispersion correction           -0.014918602
FINAL SINGLE POINT ENERGY     -1339.882772236119

DIPOLE MOMENT
-------------
                                X             Y             Z
Electronic contribution:      6.08405      -7.20802     -26.09812
Nuclear contribution   :     -6.33501       7.44311      26.67908
                        -----------------------------------------
Total Dipole Moment    :     -0.25096       0.23509       0.58096
                        -----------------------------------------
Magnitude (a.u.)       :      0.67510
Magnitude (Debye)      :      1.71597

Rotational constants in cm-1:     0.016747     0.009818     0.007910
Rotational constants in MHz :   502.070433   294.347863   237.122716

                             ****ORCA TERMINATED NORMALLY****
TOTAL RUN TIME: 0 days 0 hours 0 minutes 33 seconds 870 msec
