                         Program Version 4.2.1 -  RELEASE  -
|  1> ! wB97X-D3 SP def2-SVP
|  2> %pal
|  3> nprocs 16
|  4> end
|  5>
|  6> * xyz 0 1
|  7> S 	 -32.278 	 54.5771 	 102.347
|  8> C 	 -33.5171 	 53.9682 	 101.257
|  9> C 	 -34.6133 	 54.8108 	 101.201
| 10> C 	 -34.5256 	 55.8855 	 102.112
| 11> C 	 -33.293 	 55.909 	 102.827
| 12> H 	 -35.1146 	 56.7544 	 102.213
| 13> C 	 -35.75 	 54.628 	 100.174
| 14> H 	 -36.7427 	 54.7498 	 100.558
| 15> H 	 -35.6289 	 53.6084 	 99.8467
| 16> C 	 -35.4562 	 55.5458 	 98.9727
| 17> H 	 -35.3815 	 56.5038 	 99.3818
| 18> H 	 -34.5478 	 55.3256 	 98.5358
| 19> C 	 -36.4936 	 55.562 	 97.8388
| 20> H 	 -36.67 	 54.5039 	 97.5523
| 21> H 	 -37.4527 	 56.0165 	 98.1571
| 22> H 	 -36.1879 	 56.0927 	 96.9461
| 23> S 	 -33.0413 	 57.1128 	 105.38
| 24> C 	 -32.1596 	 58.5722 	 105.57
| 25> C 	 -31.4222 	 58.7932 	 104.447
| 26> C 	 -31.7205 	 57.982 	 103.285
| 27> C 	 -32.7287 	 57.0421 	 103.618
| 28> H 	 -30.7445 	 59.5845 	 104.492
| 29> C 	 -31.188 	 58.3416 	 101.929
| 30> H 	 -30.5135 	 57.5452 	 101.684
| 31> H 	 -30.6732 	 59.2939 	 101.95
| 32> C 	 -32.2692 	 58.372 	 100.868
| 33> H 	 -32.4836 	 59.4335 	 100.552
| 34> H 	 -33.1441 	 57.9429 	 101.283
| 35> C 	 -31.8735 	 57.4754 	 99.7389
| 36> H 	 -32.6658 	 57.2199 	 99.0419
| 37> H 	 -31.6578 	 56.4667 	 99.9847
| 38> H 	 -31.0244 	 57.8597 	 99.1452
| 39> H 	 -33.3542 	 53.2012 	 100.503
| 40> H 	 -31.9633 	 59.1214 	 106.469
| 41> *
| 42>
| 43>                          ****END OF INPUT****

CARTESIAN COORDINATES (ANGSTROEM)
---------------------------------
  S    -32.278000   54.577100  102.347000
  C    -33.517100   53.968200  101.257000
  C    -34.613300   54.810800  101.201000
  C    -34.525600   55.885500  102.112000
  C    -33.293000   55.909000  102.827000
  H    -35.114600   56.754400  102.213000
  C    -35.750000   54.628000  100.174000
  H    -36.742700   54.749800  100.558000
  H    -35.628900   53.608400   99.846700
  C    -35.456200   55.545800   98.972700
  H    -35.381500   56.503800   99.381800
  H    -34.547800   55.325600   98.535800
  C    -36.493600   55.562000   97.838800
  H    -36.670000   54.503900   97.552300
  H    -37.452700   56.016500   98.157100
  H    -36.187900   56.092700   96.946100
  S    -33.041300   57.112800  105.380000
  C    -32.159600   58.572200  105.570000
  C    -31.422200   58.793200  104.447000
  C    -31.720500   57.982000  103.285000
  C    -32.728700   57.042100  103.618000
  H    -30.744500   59.584500  104.492000
  C    -31.188000   58.341600  101.929000
  H    -30.513500   57.545200  101.684000
  H    -30.673200   59.293900  101.950000
  C    -32.269200   58.372000  100.868000
  H    -32.483600   59.433500  100.552000
  H    -33.144100   57.942900  101.283000
  C    -31.873500   57.475400   99.738900
  H    -32.665800   57.219900   99.041900
  H    -31.657800   56.466700   99.984700
  H    -31.024400   57.859700   99.145200
  H    -33.354200   53.201200  100.503000
  H    -31.963300   59.121400  106.469000

 Total Charge           Charge          ....    0
 Multiplicity           Mult            ....    1
 Number of Electrons    NEL             ....  134
 Basis Dimension        Dim             ....  322

ORBITAL ENERGIES
----------------

  NO   OCC          E(Eh)            E(eV)
   0   2.0000     -88.973147     -2421.0824
   1   2.0000     -88.962009     -2420.7793
   2   2.0000     -10.335841      -281.2525
   3   2.0000     -10.332204      -281.1536
   4   2.0000     -10.318011      -280.7674
   5   2.0000     -10.311001      -280.5766
   6   2.0000     -10.308369      -280.5050
   7   2.0000     -10.306530      -280.4549
   8   2.0000     -10.298036      -280.2238
   9   2.0000     -10.294141      -280.1178
  10   2.0000     -10.285005      -279.8692
  11   2.0000     -10.283619      -279.8315
  12   2.0000     -10.281824      -279.7827
  13   2.0000     -10.277404      -279.6624
  14   2.0000     -10.276748      -279.6445
  15   2.0000     -10.265562      -279.3401
  16   2.0000      -8.087094      -220.0610
  17   2.0000      -8.076732      -219.7790
  18   2.0000      -6.045462      -164.5054
  19   2.0000      -6.041566      -164.3994
  20   2.0000      -6.038178      -164.3072
  21   2.0000      -6.035253      -164.2276
  22   2.0000      -6.031243      -164.1185
  23   2.0000      -6.027458      -164.0155
  24   2.0000      -1.003358       -27.3028
  25   2.0000      -0.984551       -26.7910
  26   2.0000      -0.917957       -24.9789
  27   2.0000      -0.914632       -24.8884
  28   2.0000      -0.866037       -23.5661
  29   2.0000      -0.849696       -23.1214
  30   2.0000      -0.847613       -23.0647
  31   2.0000      -0.815703       -22.1964
  32   2.0000      -0.785034       -21.3619
  33   2.0000      -0.771090       -20.9824
  34   2.0000      -0.711929       -19.3726
  35   2.0000      -0.703739       -19.1497
  36   2.0000      -0.689966       -18.7749
  37   2.0000      -0.658391       -17.9157
  38   2.0000      -0.648097       -17.6356
  39   2.0000      -0.618022       -16.8172
  40   2.0000      -0.596518       -16.2321
  41   2.0000      -0.579266       -15.7626
  42   2.0000      -0.568942       -15.4817
  43   2.0000      -0.563312       -15.3285
  44   2.0000      -0.534261       -14.5380
  45   2.0000      -0.522809       -14.2264
  46   2.0000      -0.516692       -14.0599
  47   2.0000      -0.509688       -13.8693
  48   2.0000      -0.504382       -13.7249
  49   2.0000      -0.497542       -13.5388
  50   2.0000      -0.494687       -13.4611
  51   2.0000      -0.489975       -13.3329
  52   2.0000      -0.471430       -12.8283
  53   2.0000      -0.467376       -12.7179
  54   2.0000      -0.461122       -12.5478
  55   2.0000      -0.449852       -12.2411
  56   2.0000      -0.438880       -11.9425
  57   2.0000      -0.437133       -11.8950
  58   2.0000      -0.428644       -11.6640
  59   2.0000      -0.428342       -11.6558
  60   2.0000      -0.424210       -11.5433
  61   2.0000      -0.417327       -11.3560
  62   2.0000      -0.411127       -11.1873
  63   2.0000      -0.337815        -9.1924
  64   2.0000      -0.325939        -8.8692
  65   2.0000      -0.321091        -8.7373
  66   2.0000      -0.310181        -8.4405
  67   0.0000       0.031056         0.8451
  68   0.0000       0.054539         1.4841
  69   0.0000       0.114909         3.1268
  70   0.0000       0.118424         3.2225
  71   0.0000       0.128440         3.4950

MULLIKEN ATOMIC CHARGES
-----------------------
   0 S :    0.127692
   1 C :   -0.121392
   2 C :   -0.114736
   3 C :    0.080043
   4 C :   -0.194527
   5 H :    0.009313
   6 C :    0.105530
   7 H :    0.030576
   8 H :    0.007887
   9 C :   -0.052208
  10 H :    0.014704
  11 H :    0.012190
  12 C :   -0.041328
  13 H :    0.026585
  14 H :    0.031648
  15 H :    0.036901
  16 S :    0.108282
  17 C :   -0.072512
  18 C :   -0.038265
  19 C :   -0.027824
  20 C :   -0.212434
  21 H :   -0.009492
  22 C :    0.121721
  23 H :    0.029184
  24 H :    0.023409
  25 C :   -0.026447
  26 H :    0.038689
  27 H :    0.007857
  28 C :   -0.057032
  29 H :    0.009848
  30 H :    0.008114
  31 H :    0.032523
  32 H :    0.053133
  33 H :    0.052369
Sum of atomic charges:    0.0000000

LOEWDIN ATOMIC CHARGES
----------------------
   0 S :    0.425323
   1 C :   -0.201223
   2 C :   -0.058327
   3 C :   -0.051448
   4 C :   -0.203396
   5 H :    0.026300
   6 C :   -0.015643
   7 H :    0.027943
   8 H :    0.025318
   9 C :   -0.032030
  10 H :    0.015183
  11 H :    0.014324
  12 C :   -0.064854
  13 H :    0.025918
  14 H :    0.025353
  15 H :    0.026050
  16 S :    0.404496
  17 C :   -0.192160
  18 C :   -0.072067
  19 C :   -0.042382
  20 C :   -0.208600
  21 H :    0.017465
  22 C :   -0.025554
  23 H :    0.034521
  24 H :    0.031837
  25 C :   -0.036107
  26 H :    0.031732
  27 H :    0.018861
  28 C :   -0.071464
  29 H :    0.022724
  30 H :    0.015253
  31 H :    0.025079
  32 H :    0.029838
  33 H :    0.031738

  Mayer bond orders larger than 0.100000
B(  0-S ,  1-C ) :   1.1480 B(  0-S ,  4-C ) :   1.1764 B(  1-C ,  2-C ) :   1.6020
B(  1-C , 32-H ) :   0.9608 B(  2-C ,  3-C ) :   1.2653 B(  2-C ,  6-C ) :   1.0224
B(  3-C ,  4-C ) :   1.5478 B(  3-C ,  5-H ) :   0.9905 B(  4-C , 20-C ) :   1.0146
B(  6-C ,  7-H ) :   0.9478 B(  6-C ,  8-H ) :   0.9323 B(  6-C ,  9-C ) :   1.0591
B(  9-C , 10-H ) :   0.9583 B(  9-C , 11-H ) :   0.9509 B(  9-C , 12-C ) :   1.0855
B( 12-C , 13-H ) :   0.9738 B( 12-C , 14-H ) :   0.9755 B( 12-C , 15-H ) :   0.9755
B( 16-S , 17-C ) :   1.1563 B( 16-S , 20-C ) :   1.1471 B( 17-C , 18-C ) :   1.6226
B( 17-C , 33-H ) :   0.9669 B( 18-C , 19-C ) :   1.2419 B( 18-C , 21-H ) :   0.9951
B( 19-C , 20-C ) :   1.5612 B( 19-C , 22-C ) :   1.0410 B( 22-C , 23-H ) :   0.9246
B( 22-C , 24-H ) :   0.9358 B( 22-C , 25-C ) :   1.0557 B( 25-C , 26-H ) :   0.9516
B( 25-C , 27-H ) :   0.9604 B( 25-C , 28-C ) :   1.0833 B( 28-C , 29-H ) :   0.9657
B( 28-C , 30-H ) :   0.9654 B( 28-C , 31-H ) :   0.9736

Dispersion correction           -0.016863832
FINAL SINGLE POINT ENERGY     -1339.865255496163

DIPOLE MOMENT
-------------
                                X             Y             Z
Electronic contribution:      7.85452      -4.71739      28.29545
Nuclear contribution   :     -7.84400       5.01354     -28.89365
                        -----------------------------------------
Total Dipole Moment    :      0.01052       0.29615      -0.59821
                        -----------------------------------------
Magnitude (a.u.)       :      0.66758
Magnitude (Debye)      :      1.69686

Rotational constants in cm-1:     0.023153     0.008552     0.007612
Rotational constants in MHz :   694.115429   256.383368   228.209112

                             ****ORCA TERMINATED NORMALLY****
TOTAL RUN TIME: 0 days 0 hours 0 minutes 33 seconds 117 msec
