                         Program Version 4.2.1 -  RELEASE  -
|  1> ! wB97X-D3 SP def2-SVP
|  2> %pal
|  3> nprocs 16
|  4> end
|  5>
|  6> * xyz 0 1
|  7> S 	 54.1894 	 15.2305 	 77.2859
|  8> C 	 55.7601 	 15.9751 	 77.4073
|  9> C 	 56.6698 	 15.1119 	 77.9733
| 10> C 	 56.0568 	 13.9519 	 78.5051
| 11> C 	 54.6851 	 13.7899 	 78.1998
| 12> H 	 56.5675 	 13.2679 	 79.1782
| 13> C 	 58.165 	 15.302 	 77.8964
| 14> H 	 58.3868 	 16.1835 	 77.2933
| 15> H 	 58.5055 	 14.5397 	 77.2444
| 16> C 	 59.0776 	 15.165 	 79.1743
| 17> H 	 58.883 	 14.2111 	 79.7002
| 18> H 	 60.118 	 15.018 	 79.0017
| 19> C 	 58.8922 	 16.316 	 80.0725
| 20> H 	 59.1388 	 17.246 	 79.4834
| 21> H 	 57.8812 	 16.3134 	 80.3316
| 22> H 	 59.4809 	 16.3072 	 80.9376
| 23> S 	 52.2111 	 13.6284 	 79.4027
| 24> C 	 51.585 	 11.9427 	 79.7123
| 25> C 	 52.4217 	 10.9915 	 79.1811
| 26> C 	 53.578 	 11.5041 	 78.5773
| 27> C 	 53.6911 	 12.8553 	 78.6734
| 28> H 	 52.1411 	 10.0053 	 79.3921
| 29> C 	 54.6738 	 10.6574 	 77.8203
| 30> H 	 54.2254 	 9.6799 	 77.8885
| 31> H 	 55.4735 	 10.6669 	 78.5021
| 32> C 	 55.0827 	 11.0363 	 76.3799
| 33> H 	 55.7377 	 11.8876 	 76.4306
| 34> H 	 54.252 	 11.3333 	 75.8193
| 35> C 	 55.8444 	 9.88672 	 75.7736
| 36> H 	 55.5381 	 9.73145 	 74.6826
| 37> H 	 55.6624 	 8.87734 	 76.1425
| 38> H 	 56.9045 	 10.0612 	 75.8812
| 39> H 	 55.8979 	 16.9397 	 77.0103
| 40> H 	 50.6412 	 11.7376 	 80.1191
| 41> *
| 42>
| 43>                          ****END OF INPUT****

CARTESIAN COORDINATES (ANGSTROEM)
---------------------------------
  S     54.189400   15.230500   77.285900
  C     55.760100   15.975100   77.407300
  C     56.669800   15.111900   77.973300
  C     56.056800   13.951900   78.505100
  C     54.685100   13.789900   78.199800
  H     56.567500   13.267900   79.178200
  C     58.165000   15.302000   77.896400
  H     58.386800   16.183500   77.293300
  H     58.505500   14.539700   77.244400
  C     59.077600   15.165000   79.174300
  H     58.883000   14.211100   79.700200
  H     60.118000   15.018000   79.001700
  C     58.892200   16.316000   80.072500
  H     59.138800   17.246000   79.483400
  H     57.881200   16.313400   80.331600
  H     59.480900   16.307200   80.937600
  S     52.211100   13.628400   79.402700
  C     51.585000   11.942700   79.712300
  C     52.421700   10.991500   79.181100
  C     53.578000   11.504100   78.577300
  C     53.691100   12.855300   78.673400
  H     52.141100   10.005300   79.392100
  C     54.673800   10.657400   77.820300
  H     54.225400    9.679900   77.888500
  H     55.473500   10.666900   78.502100
  C     55.082700   11.036300   76.379900
  H     55.737700   11.887600   76.430600
  H     54.252000   11.333300   75.819300
  C     55.844400    9.886720   75.773600
  H     55.538100    9.731450   74.682600
  H     55.662400    8.877340   76.142500
  H     56.904500   10.061200   75.881200
  H     55.897900   16.939700   77.010300
  H     50.641200   11.737600   80.119100

 Total Charge           Charge          ....    0
 Multiplicity           Mult            ....    1
 Number of Electrons    NEL             ....  134
 Basis Dimension        Dim             ....  322

ORBITAL ENERGIES
----------------

  NO   OCC          E(Eh)            E(eV)
   0   2.0000     -88.962928     -2420.8044
   1   2.0000     -88.962740     -2420.7992
   2   2.0000     -10.333688      -281.1940
   3   2.0000     -10.326088      -280.9871
   4   2.0000     -10.319206      -280.7999
   5   2.0000     -10.312014      -280.6042
   6   2.0000     -10.303046      -280.3601
   7   2.0000     -10.302234      -280.3380
   8   2.0000     -10.297683      -280.2142
   9   2.0000     -10.292528      -280.0739
  10   2.0000     -10.291241      -280.0389
  11   2.0000     -10.289602      -279.9943
  12   2.0000     -10.284635      -279.8591
  13   2.0000     -10.277726      -279.6711
  14   2.0000     -10.277578      -279.6671
  15   2.0000     -10.264041      -279.2988
  16   2.0000      -8.077606      -219.8028
  17   2.0000      -8.075532      -219.7464
  18   2.0000      -6.036057      -164.2495
  19   2.0000      -6.034121      -164.1968
  20   2.0000      -6.032024      -164.1397
  21   2.0000      -6.030543      -164.0994
  22   2.0000      -6.028513      -164.0442
  23   2.0000      -6.026061      -163.9775
  24   2.0000      -1.001699       -27.2576
  25   2.0000      -0.979081       -26.6422
  26   2.0000      -0.913837       -24.8668
  27   2.0000      -0.905708       -24.6456
  28   2.0000      -0.873989       -23.7824
  29   2.0000      -0.850970       -23.1561
  30   2.0000      -0.845721       -23.0132
  31   2.0000      -0.817036       -22.2327
  32   2.0000      -0.782483       -21.2924
  33   2.0000      -0.771289       -20.9878
  34   2.0000      -0.716409       -19.4945
  35   2.0000      -0.704046       -19.1581
  36   2.0000      -0.695631       -18.9291
  37   2.0000      -0.664774       -18.0894
  38   2.0000      -0.645617       -17.5681
  39   2.0000      -0.622248       -16.9322
  40   2.0000      -0.589522       -16.0417
  41   2.0000      -0.572807       -15.5869
  42   2.0000      -0.566288       -15.4095
  43   2.0000      -0.560521       -15.2525
  44   2.0000      -0.543923       -14.8009
  45   2.0000      -0.527044       -14.3416
  46   2.0000      -0.520098       -14.1526
  47   2.0000      -0.517120       -14.0715
  48   2.0000      -0.502579       -13.6759
  49   2.0000      -0.495862       -13.4931
  50   2.0000      -0.486712       -13.2441
  51   2.0000      -0.481743       -13.1089
  52   2.0000      -0.473996       -12.8981
  53   2.0000      -0.466667       -12.6987
  54   2.0000      -0.458050       -12.4642
  55   2.0000      -0.449181       -12.2228
  56   2.0000      -0.441795       -12.0218
  57   2.0000      -0.433530       -11.7969
  58   2.0000      -0.429532       -11.6882
  59   2.0000      -0.425721       -11.5845
  60   2.0000      -0.421907       -11.4807
  61   2.0000      -0.412801       -11.2329
  62   2.0000      -0.407868       -11.0987
  63   2.0000      -0.344429        -9.3724
  64   2.0000      -0.333403        -9.0724
  65   2.0000      -0.325920        -8.8687
  66   2.0000      -0.291865        -7.9421
  67   0.0000       0.023245         0.6325
  68   0.0000       0.063776         1.7354
  69   0.0000       0.103637         2.8201
  70   0.0000       0.115458         3.1418
  71   0.0000       0.140830         3.8322

MULLIKEN ATOMIC CHARGES
-----------------------
   0 S :    0.095446
   1 C :   -0.123529
   2 C :   -0.060326
   3 C :    0.031477
   4 C :   -0.170423
   5 H :    0.016160
   6 C :    0.066357
   7 H :    0.012428
   8 H :    0.028095
   9 C :   -0.070136
  10 H :    0.016277
  11 H :    0.014261
  12 C :    0.002185
  13 H :    0.024077
  14 H :    0.023087
  15 H :    0.020693
  16 S :    0.080195
  17 C :   -0.074754
  18 C :   -0.026160
  19 C :   -0.033460
  20 C :   -0.155358
  21 H :    0.000683
  22 C :    0.093649
  23 H :    0.004790
  24 H :    0.022697
  25 C :   -0.006485
  26 H :    0.037073
  27 H :    0.022724
  28 C :   -0.067613
  29 H :    0.038893
  30 H :    0.023771
  31 H :    0.036221
  32 H :    0.038516
  33 H :    0.038491
Sum of atomic charges:    0.0000000

LOEWDIN ATOMIC CHARGES
----------------------
   0 S :    0.397191
   1 C :   -0.185264
   2 C :   -0.067565
   3 C :   -0.062608
   4 C :   -0.185128
   5 H :    0.029833
   6 C :   -0.027239
   7 H :    0.030292
   8 H :    0.032945
   9 C :   -0.043049
  10 H :    0.022938
  11 H :    0.019681
  12 C :   -0.056959
  13 H :    0.030461
  14 H :    0.019810
  15 H :    0.016978
  16 S :    0.340441
  17 C :   -0.141708
  18 C :   -0.067083
  19 C :   -0.053785
  20 C :   -0.176886
  21 H :    0.026292
  22 C :   -0.016128
  23 H :    0.024455
  24 H :    0.025209
  25 C :   -0.032537
  26 H :    0.028118
  27 H :    0.020311
  28 C :   -0.070420
  29 H :    0.036638
  30 H :    0.021941
  31 H :    0.025722
  32 H :    0.018951
  33 H :    0.018152

  Mayer bond orders larger than 0.100000
B(  0-S ,  1-C ) :   1.1468 B(  0-S ,  4-C ) :   1.1512 B(  1-C ,  2-C ) :   1.5731
B(  1-C ,  4-C ) :   0.1019 B(  1-C , 32-H ) :   0.9787 B(  2-C ,  3-C ) :   1.2539
B(  2-C ,  6-C ) :   1.0220 B(  3-C ,  4-C ) :   1.5525 B(  3-C ,  5-H ) :   0.9911
B(  4-C , 20-C ) :   1.0690 B(  6-C ,  7-H ) :   0.9439 B(  6-C ,  8-H ) :   0.9325
B(  6-C ,  9-C ) :   1.0659 B(  9-C , 10-H ) :   0.9492 B(  9-C , 11-H ) :   0.9526
B(  9-C , 12-C ) :   1.0844 B( 12-C , 13-H ) :   0.9713 B( 12-C , 14-H ) :   0.9766
B( 12-C , 15-H ) :   0.9708 B( 16-S , 17-C ) :   1.1281 B( 16-S , 20-C ) :   1.1040
B( 17-C , 18-C ) :   1.6478 B( 17-C , 20-C ) :   0.1014 B( 17-C , 33-H ) :   0.9700
B( 18-C , 19-C ) :   1.2141 B( 18-C , 21-H ) :   0.9973 B( 19-C , 20-C ) :   1.6383
B( 19-C , 22-C ) :   1.0011 B( 22-C , 23-H ) :   0.9381 B( 22-C , 24-H ) :   0.9302
B( 22-C , 25-C ) :   1.0621 B( 25-C , 26-H ) :   0.9485 B( 25-C , 27-H ) :   0.9645
B( 25-C , 28-C ) :   1.0730 B( 28-C , 29-H ) :   0.9752 B( 28-C , 30-H ) :   0.9768
B( 28-C , 31-H ) :   0.9795

Dispersion correction           -0.014482613
FINAL SINGLE POINT ENERGY     -1339.855799187753

DIPOLE MOMENT
-------------
                                X             Y             Z
Electronic contribution:    -24.47285       7.79406       3.24938
Nuclear contribution   :     25.00842      -8.24288      -3.30082
                        -----------------------------------------
Total Dipole Moment    :      0.53556      -0.44882      -0.05144
                        -----------------------------------------
Magnitude (a.u.)       :      0.70065
Magnitude (Debye)      :      1.78092

Rotational constants in cm-1:     0.017793     0.008805     0.007197
Rotational constants in MHz :   533.425462   263.982061   215.764370

                             ****ORCA TERMINATED NORMALLY****
TOTAL RUN TIME: 0 days 0 hours 0 minutes 30 seconds 47 msec
