                         Program Version 4.2.1 -  RELEASE  -
|  1> ! wB97X-D3 SP def2-SVP
|  2> %pal
|  3> nprocs 16
|  4> end
|  5>
|  6> * xyz 0 1
|  7> S 	 7.45714 	 -22.5146 	 86.8179
|  8> C 	 5.84815 	 -23.278 	 86.9769
|  9> C 	 4.83234 	 -22.3449 	 86.6943
| 10> C 	 5.38999 	 -21.0193 	 86.5727
| 11> C 	 6.76606 	 -20.9633 	 86.4934
| 12> H 	 4.95304 	 -20.0649 	 86.4662
| 13> C 	 3.34572 	 -22.6152 	 86.6236
| 14> H 	 2.81504 	 -22.4601 	 87.5441
| 15> H 	 3.34063 	 -23.7325 	 86.7197
| 16> C 	 2.66417 	 -22.1176 	 85.3721
| 17> H 	 2.73171 	 -21.0308 	 85.3052
| 18> H 	 3.26297 	 -22.5345 	 84.4923
| 19> C 	 1.27266 	 -22.5501 	 85.1979
| 20> H 	 0.991436 	 -22.3385 	 84.2495
| 21> H 	 1.19035 	 -23.6406 	 85.3034
| 22> H 	 0.580488 	 -22.1002 	 85.8702
| 23> S 	 8.9442 	 -20.0783 	 85.0587
| 24> C 	 9.2676 	 -18.3909 	 84.9498
| 25> C 	 8.22599 	 -17.6244 	 85.4431
| 26> C 	 7.25386 	 -18.4472 	 86.1526
| 27> C 	 7.52539 	 -19.804 	 86.1423
| 28> H 	 8.16431 	 -16.5492 	 85.3807
| 29> C 	 6.06268 	 -17.6937 	 86.7035
| 30> H 	 6.41931 	 -16.8283 	 87.2772
| 31> H 	 5.59744 	 -18.4225 	 87.334
| 32> C 	 4.93233 	 -17.309 	 85.671
| 33> H 	 4.59408 	 -18.1234 	 84.9958
| 34> H 	 5.38574 	 -16.5871 	 85.0487
| 35> C 	 3.64674 	 -16.8076 	 86.3441
| 36> H 	 3.15457 	 -17.6273 	 86.8383
| 37> H 	 2.98911 	 -16.4759 	 85.5077
| 38> H 	 3.70862 	 -15.8891 	 86.9312
| 39> H 	 5.68793 	 -24.2886 	 87.2144
| 40> H 	 10.1282 	 -17.9577 	 84.4293
| 41> *
| 42>
| 43>                          ****END OF INPUT****

CARTESIAN COORDINATES (ANGSTROEM)
---------------------------------
  S      7.457140  -22.514600   86.817900
  C      5.848150  -23.278000   86.976900
  C      4.832340  -22.344900   86.694300
  C      5.389990  -21.019300   86.572700
  C      6.766060  -20.963300   86.493400
  H      4.953040  -20.064900   86.466200
  C      3.345720  -22.615200   86.623600
  H      2.815040  -22.460100   87.544100
  H      3.340630  -23.732500   86.719700
  C      2.664170  -22.117600   85.372100
  H      2.731710  -21.030800   85.305200
  H      3.262970  -22.534500   84.492300
  C      1.272660  -22.550100   85.197900
  H      0.991436  -22.338500   84.249500
  H      1.190350  -23.640600   85.303400
  H      0.580488  -22.100200   85.870200
  S      8.944200  -20.078300   85.058700
  C      9.267600  -18.390900   84.949800
  C      8.225990  -17.624400   85.443100
  C      7.253860  -18.447200   86.152600
  C      7.525390  -19.804000   86.142300
  H      8.164310  -16.549200   85.380700
  C      6.062680  -17.693700   86.703500
  H      6.419310  -16.828300   87.277200
  H      5.597440  -18.422500   87.334000
  C      4.932330  -17.309000   85.671000
  H      4.594080  -18.123400   84.995800
  H      5.385740  -16.587100   85.048700
  C      3.646740  -16.807600   86.344100
  H      3.154570  -17.627300   86.838300
  H      2.989110  -16.475900   85.507700
  H      3.708620  -15.889100   86.931200
  H      5.687930  -24.288600   87.214400
  H     10.128200  -17.957700   84.429300

 Total Charge           Charge          ....    0
 Multiplicity           Mult            ....    1
 Number of Electrons    NEL             ....  134
 Basis Dimension        Dim             ....  322

ORBITAL ENERGIES
----------------

  NO   OCC          E(Eh)            E(eV)
   0   2.0000     -88.967240     -2420.9217
   1   2.0000     -88.963222     -2420.8123
   2   2.0000     -10.329538      -281.0810
   3   2.0000     -10.325947      -280.9833
   4   2.0000     -10.317823      -280.7622
   5   2.0000     -10.317763      -280.7606
   6   2.0000     -10.309190      -280.5273
   7   2.0000     -10.304262      -280.3932
   8   2.0000     -10.293905      -280.1114
   9   2.0000     -10.292806      -280.0815
  10   2.0000     -10.292470      -280.0724
  11   2.0000     -10.292108      -280.0625
  12   2.0000     -10.288788      -279.9722
  13   2.0000     -10.288318      -279.9594
  14   2.0000     -10.283335      -279.8238
  15   2.0000     -10.265924      -279.3500
  16   2.0000      -8.081485      -219.9084
  17   2.0000      -8.077888      -219.8105
  18   2.0000      -6.040065      -164.3585
  19   2.0000      -6.036505      -164.2616
  20   2.0000      -6.036056      -164.2494
  21   2.0000      -6.032522      -164.1533
  22   2.0000      -6.032203      -164.1446
  23   2.0000      -6.028407      -164.0413
  24   2.0000      -1.005355       -27.3571
  25   2.0000      -0.979555       -26.6551
  26   2.0000      -0.920845       -25.0575
  27   2.0000      -0.907959       -24.7068
  28   2.0000      -0.875829       -23.8325
  29   2.0000      -0.856331       -23.3019
  30   2.0000      -0.846592       -23.0369
  31   2.0000      -0.814814       -22.1722
  32   2.0000      -0.785916       -21.3859
  33   2.0000      -0.774850       -21.0847
  34   2.0000      -0.711283       -19.3550
  35   2.0000      -0.701130       -19.0787
  36   2.0000      -0.694338       -18.8939
  37   2.0000      -0.666474       -18.1357
  38   2.0000      -0.646955       -17.6045
  39   2.0000      -0.617666       -16.8076
  40   2.0000      -0.592078       -16.1113
  41   2.0000      -0.574711       -15.6387
  42   2.0000      -0.571934       -15.5631
  43   2.0000      -0.562999       -15.3200
  44   2.0000      -0.539155       -14.6712
  45   2.0000      -0.523933       -14.2569
  46   2.0000      -0.518946       -14.1212
  47   2.0000      -0.515587       -14.0298
  48   2.0000      -0.510344       -13.8872
  49   2.0000      -0.507313       -13.8047
  50   2.0000      -0.502358       -13.6698
  51   2.0000      -0.476255       -12.9596
  52   2.0000      -0.474682       -12.9167
  53   2.0000      -0.464542       -12.6408
  54   2.0000      -0.455886       -12.4053
  55   2.0000      -0.452142       -12.3034
  56   2.0000      -0.443014       -12.0550
  57   2.0000      -0.438405       -11.9296
  58   2.0000      -0.435329       -11.8459
  59   2.0000      -0.426631       -11.6092
  60   2.0000      -0.418729       -11.3942
  61   2.0000      -0.413652       -11.2560
  62   2.0000      -0.410603       -11.1731
  63   2.0000      -0.356753        -9.7077
  64   2.0000      -0.330051        -8.9811
  65   2.0000      -0.326372        -8.8810
  66   2.0000      -0.283969        -7.7272
  67   0.0000       0.021881         0.5954
  68   0.0000       0.077950         2.1211
  69   0.0000       0.102424         2.7871
  70   0.0000       0.118003         3.2110
  71   0.0000       0.123449         3.3592

MULLIKEN ATOMIC CHARGES
-----------------------
   0 S :    0.109719
   1 C :   -0.102700
   2 C :   -0.076192
   3 C :    0.044251
   4 C :   -0.151271
   5 H :   -0.042991
   6 C :    0.077898
   7 H :    0.029591
   8 H :    0.000126
   9 C :   -0.110124
  10 H :    0.033151
  11 H :    0.041058
  12 C :    0.037553
  13 H :    0.005860
  14 H :    0.020150
  15 H :    0.021112
  16 S :    0.086158
  17 C :   -0.081984
  18 C :   -0.027889
  19 C :   -0.081151
  20 C :   -0.088523
  21 H :    0.018567
  22 C :    0.048811
  23 H :    0.039962
  24 H :    0.007756
  25 C :   -0.073459
  26 H :    0.043350
  27 H :    0.012782
  28 C :   -0.046362
  29 H :    0.035904
  30 H :    0.033025
  31 H :    0.037240
  32 H :    0.033039
  33 H :    0.065582
Sum of atomic charges:   -0.0000000

LOEWDIN ATOMIC CHARGES
----------------------
   0 S :    0.400487
   1 C :   -0.181202
   2 C :   -0.049869
   3 C :   -0.062922
   4 C :   -0.198422
   5 H :    0.019338
   6 C :   -0.043191
   7 H :    0.029826
   8 H :    0.033547
   9 C :   -0.043753
  10 H :    0.023324
  11 H :    0.037811
  12 C :   -0.052374
  13 H :    0.015274
  14 H :    0.028853
  15 H :    0.021854
  16 S :    0.389365
  17 C :   -0.188936
  18 C :   -0.072511
  19 C :   -0.054939
  20 C :   -0.179751
  21 H :    0.029272
  22 C :   -0.033587
  23 H :    0.035796
  24 H :    0.019706
  25 C :   -0.036790
  26 H :    0.031733
  27 H :    0.014387
  28 C :   -0.067103
  29 H :    0.023209
  30 H :    0.033717
  31 H :    0.025754
  32 H :    0.018236
  33 H :    0.033859

  Mayer bond orders larger than 0.100000
B(  0-S ,  1-C ) :   1.1276 B(  0-S ,  4-C ) :   1.1384 B(  1-C ,  2-C ) :   1.6059
B(  1-C , 32-H ) :   0.9740 B(  2-C ,  3-C ) :   1.2173 B(  2-C ,  6-C ) :   1.0306
B(  3-C ,  4-C ) :   1.5882 B(  3-C ,  5-H ) :   0.9883 B(  4-C , 20-C ) :   1.0751
B(  6-C ,  7-H ) :   0.9331 B(  6-C ,  8-H ) :   0.9271 B(  6-C ,  9-C ) :   1.0570
B(  9-C , 10-H ) :   0.9510 B(  9-C , 11-H ) :   0.9517 B(  9-C , 12-C ) :   1.1072
B( 12-C , 13-H ) :   0.9660 B( 12-C , 14-H ) :   0.9682 B( 12-C , 15-H ) :   0.9674
B( 16-S , 17-C ) :   1.1579 B( 16-S , 20-C ) :   1.1064 B( 17-C , 18-C ) :   1.6037
B( 17-C , 33-H ) :   0.9644 B( 18-C , 19-C ) :   1.2267 B( 18-C , 21-H ) :   0.9916
B( 19-C , 20-C ) :   1.6143 B( 19-C , 22-C ) :   1.0511 B( 22-C , 23-H ) :   0.9342
B( 22-C , 24-H ) :   0.9366 B( 22-C , 25-C ) :   1.0500 B( 25-C , 26-H ) :   0.9532
B( 25-C , 27-H ) :   0.9529 B( 25-C , 28-C ) :   1.0892 B( 28-C , 29-H ) :   0.9747
B( 28-C , 30-H ) :   0.9711 B( 28-C , 31-H ) :   0.9745

Dispersion correction           -0.014094395
FINAL SINGLE POINT ENERGY     -1339.864530820861

DIPOLE MOMENT
-------------
                                X             Y             Z
Electronic contribution:     31.33237      -8.95104       1.60628
Nuclear contribution   :    -32.10668       9.35570      -1.76062
                        -----------------------------------------
Total Dipole Moment    :     -0.77431       0.40466      -0.15433
                        -----------------------------------------
Magnitude (a.u.)       :      0.88720
Magnitude (Debye)      :      2.25507

Rotational constants in cm-1:     0.016247     0.009849     0.006734
Rotational constants in MHz :   487.071834   295.251187   201.882787

                             ****ORCA TERMINATED NORMALLY****
TOTAL RUN TIME: 0 days 0 hours 0 minutes 33 seconds 329 msec
