                         Program Version 4.2.1 -  RELEASE  -
|  1> ! wB97X-D3 SP def2-SVP
|  2> %pal
|  3> nprocs 16
|  4> end
|  5>
|  6> * xyz 0 1
|  7> S 	 11.4201 	 32.6451 	 58.8809
|  8> C 	 13.1279 	 32.2585 	 58.6358
|  9> C 	 13.9501 	 33.2792 	 59.1061
| 10> C 	 13.1662 	 34.4336 	 59.5347
| 11> C 	 11.8091 	 34.2871 	 59.3024
| 12> H 	 13.6685 	 35.3391 	 59.9349
| 13> C 	 15.4686 	 33.1321 	 59.4026
| 14> H 	 16.003 	 33.9407 	 58.964
| 15> H 	 15.812 	 32.2218 	 58.9955
| 16> C 	 15.7971 	 33.1406 	 60.9546
| 17> H 	 15.2645 	 33.8767 	 61.4837
| 18> H 	 15.4352 	 32.2454 	 61.3105
| 19> C 	 17.2849 	 33.4511 	 61.3012
| 20> H 	 17.705 	 34.4261 	 61.0196
| 21> H 	 17.4895 	 33.3105 	 62.3745
| 22> H 	 17.9824 	 32.7911 	 60.8293
| 23> S 	 10.3163 	 35.2852 	 61.4045
| 24> C 	 9.08682 	 36.4994 	 60.9622
| 25> C 	 9.07906 	 36.8 	 59.6241
| 26> C 	 10.1252 	 36.1483 	 58.9302
| 27> C 	 10.8698 	 35.3491 	 59.7412
| 28> H 	 8.29299 	 37.3883 	 59.2382
| 29> C 	 10.2553 	 36.3305 	 57.4061
| 30> H 	 11.1689 	 35.8349 	 57.0634
| 31> H 	 10.5106 	 37.3383 	 57.2676
| 32> C 	 8.97457 	 36.0134 	 56.5621
| 33> H 	 9.20219 	 36.1121 	 55.4871
| 34> H 	 8.17058 	 36.7043 	 56.7188
| 35> C 	 8.52045 	 34.5508 	 56.5295
| 36> H 	 9.16326 	 33.8364 	 56.0897
| 37> H 	 7.61134 	 34.4415 	 55.9882
| 38> H 	 8.51578 	 34.1797 	 57.566
| 39> H 	 13.4443 	 31.2071 	 58.423
| 40> H 	 8.37177 	 36.9034 	 61.6008
| 41> *
| 42>
| 43>                          ****END OF INPUT****

CARTESIAN COORDINATES (ANGSTROEM)
---------------------------------
  S     11.420100   32.645100   58.880900
  C     13.127900   32.258500   58.635800
  C     13.950100   33.279200   59.106100
  C     13.166200   34.433600   59.534700
  C     11.809100   34.287100   59.302400
  H     13.668500   35.339100   59.934900
  C     15.468600   33.132100   59.402600
  H     16.003000   33.940700   58.964000
  H     15.812000   32.221800   58.995500
  C     15.797100   33.140600   60.954600
  H     15.264500   33.876700   61.483700
  H     15.435200   32.245400   61.310500
  C     17.284900   33.451100   61.301200
  H     17.705000   34.426100   61.019600
  H     17.489500   33.310500   62.374500
  H     17.982400   32.791100   60.829300
  S     10.316300   35.285200   61.404500
  C      9.086820   36.499400   60.962200
  C      9.079060   36.800000   59.624100
  C     10.125200   36.148300   58.930200
  C     10.869800   35.349100   59.741200
  H      8.292990   37.388300   59.238200
  C     10.255300   36.330500   57.406100
  H     11.168900   35.834900   57.063400
  H     10.510600   37.338300   57.267600
  C      8.974570   36.013400   56.562100
  H      9.202190   36.112100   55.487100
  H      8.170580   36.704300   56.718800
  C      8.520450   34.550800   56.529500
  H      9.163260   33.836400   56.089700
  H      7.611340   34.441500   55.988200
  H      8.515780   34.179700   57.566000
  H     13.444300   31.207100   58.423000
  H      8.371770   36.903400   61.600800

 Total Charge           Charge          ....    0
 Multiplicity           Mult            ....    1
 Number of Electrons    NEL             ....  134
 Basis Dimension        Dim             ....  322

ORBITAL ENERGIES
----------------

  NO   OCC          E(Eh)            E(eV)
   0   2.0000     -88.967229     -2420.9214
   1   2.0000     -88.966501     -2420.9016
   2   2.0000     -10.327456      -281.0244
   3   2.0000     -10.320846      -280.8445
   4   2.0000     -10.319422      -280.8057
   5   2.0000     -10.313028      -280.6318
   6   2.0000     -10.306011      -280.4408
   7   2.0000     -10.298734      -280.2428
   8   2.0000     -10.296816      -280.1906
   9   2.0000     -10.292133      -280.0632
  10   2.0000     -10.289197      -279.9833
  11   2.0000     -10.287205      -279.9291
  12   2.0000     -10.286968      -279.9226
  13   2.0000     -10.282293      -279.7954
  14   2.0000     -10.280028      -279.7338
  15   2.0000     -10.264765      -279.3185
  16   2.0000      -8.081567      -219.9106
  17   2.0000      -8.080675      -219.8863
  18   2.0000      -6.040138      -164.3605
  19   2.0000      -6.039158      -164.3338
  20   2.0000      -6.036246      -164.2546
  21   2.0000      -6.035503      -164.2344
  22   2.0000      -6.032166      -164.1436
  23   2.0000      -6.031255      -164.1188
  24   2.0000      -1.003424       -27.3045
  25   2.0000      -0.980321       -26.6759
  26   2.0000      -0.903159       -24.5762
  27   2.0000      -0.901110       -24.5204
  28   2.0000      -0.865704       -23.5570
  29   2.0000      -0.848554       -23.0903
  30   2.0000      -0.842913       -22.9368
  31   2.0000      -0.812679       -22.1141
  32   2.0000      -0.784539       -21.3484
  33   2.0000      -0.772832       -21.0298
  34   2.0000      -0.712555       -19.3896
  35   2.0000      -0.701553       -19.0902
  36   2.0000      -0.694027       -18.8854
  37   2.0000      -0.661981       -18.0134
  38   2.0000      -0.636035       -17.3074
  39   2.0000      -0.615944       -16.7607
  40   2.0000      -0.594420       -16.1750
  41   2.0000      -0.565689       -15.3932
  42   2.0000      -0.558774       -15.2050
  43   2.0000      -0.552288       -15.0285
  44   2.0000      -0.537419       -14.6239
  45   2.0000      -0.518127       -14.0989
  46   2.0000      -0.515519       -14.0280
  47   2.0000      -0.506941       -13.7946
  48   2.0000      -0.499810       -13.6005
  49   2.0000      -0.494257       -13.4494
  50   2.0000      -0.492135       -13.3917
  51   2.0000      -0.480170       -13.0661
  52   2.0000      -0.464818       -12.6483
  53   2.0000      -0.459876       -12.5139
  54   2.0000      -0.455643       -12.3987
  55   2.0000      -0.454543       -12.3687
  56   2.0000      -0.446736       -12.1563
  57   2.0000      -0.439069       -11.9477
  58   2.0000      -0.434621       -11.8266
  59   2.0000      -0.433080       -11.7847
  60   2.0000      -0.427603       -11.6357
  61   2.0000      -0.417203       -11.3527
  62   2.0000      -0.397208       -10.8086
  63   2.0000      -0.336904        -9.1676
  64   2.0000      -0.327077        -8.9002
  65   2.0000      -0.317235        -8.6324
  66   2.0000      -0.314594        -8.5605
  67   0.0000       0.047959         1.3050
  68   0.0000       0.050981         1.3873
  69   0.0000       0.106452         2.8967
  70   0.0000       0.116472         3.1694
  71   0.0000       0.125498         3.4150

MULLIKEN ATOMIC CHARGES
-----------------------
   0 S :    0.113977
   1 C :   -0.150930
   2 C :   -0.090124
   3 C :   -0.008755
   4 C :   -0.139825
   5 H :    0.035773
   6 C :    0.105423
   7 H :    0.020567
   8 H :    0.009418
   9 C :   -0.032781
  10 H :    0.022061
  11 H :    0.010959
  12 C :   -0.062743
  13 H :    0.032180
  14 H :    0.036608
  15 H :    0.015793
  16 S :    0.111869
  17 C :   -0.068365
  18 C :   -0.020206
  19 C :   -0.035302
  20 C :   -0.189389
  21 H :    0.006091
  22 C :    0.127909
  23 H :    0.023181
  24 H :    0.015877
  25 C :   -0.087447
  26 H :    0.028938
  27 H :    0.029662
  28 C :   -0.027887
  29 H :    0.016405
  30 H :    0.027963
  31 H :    0.026309
  32 H :    0.068241
  33 H :    0.028553
Sum of atomic charges:   -0.0000000

LOEWDIN ATOMIC CHARGES
----------------------
   0 S :    0.402256
   1 C :   -0.203795
   2 C :   -0.061022
   3 C :   -0.063129
   4 C :   -0.204105
   5 H :    0.037875
   6 C :   -0.015567
   7 H :    0.024075
   8 H :    0.021910
   9 C :   -0.023754
  10 H :    0.019515
  11 H :    0.015449
  12 C :   -0.070426
  13 H :    0.026945
  14 H :    0.031133
  15 H :    0.017952
  16 S :    0.389716
  17 C :   -0.157147
  18 C :   -0.062057
  19 C :   -0.052793
  20 C :   -0.202594
  21 H :    0.027150
  22 C :   -0.022785
  23 H :    0.033501
  24 H :    0.028232
  25 C :   -0.040859
  26 H :    0.031855
  27 H :    0.019873
  28 C :   -0.065469
  29 H :    0.019925
  30 H :    0.023726
  31 H :    0.023876
  32 H :    0.035750
  33 H :    0.014786

  Mayer bond orders larger than 0.100000
B(  0-S ,  1-C ) :   1.1340 B(  0-S ,  4-C ) :   1.1501 B(  1-C ,  2-C ) :   1.6214
B(  1-C , 32-H ) :   0.9603 B(  2-C ,  3-C ) :   1.2332 B(  2-C ,  6-C ) :   1.0336
B(  3-C ,  4-C ) :   1.5756 B(  3-C ,  5-H ) :   0.9890 B(  4-C , 20-C ) :   1.0128
B(  6-C ,  7-H ) :   0.9421 B(  6-C ,  8-H ) :   0.9439 B(  6-C ,  9-C ) :   1.0498
B(  9-C , 10-H ) :   0.9617 B(  9-C , 11-H ) :   0.9576 B(  9-C , 12-C ) :   1.0723
B( 12-C , 13-H ) :   0.9763 B( 12-C , 14-H ) :   0.9749 B( 12-C , 15-H ) :   0.9762
B( 16-S , 17-C ) :   1.1391 B( 16-S , 20-C ) :   1.1331 B( 17-C , 18-C ) :   1.6482
B( 17-C , 33-H ) :   0.9708 B( 18-C , 19-C ) :   1.2116 B( 18-C , 21-H ) :   0.9975
B( 19-C , 20-C ) :   1.6427 B( 19-C , 22-C ) :   1.0310 B( 22-C , 23-H ) :   0.9329
B( 22-C , 24-H ) :   0.9288 B( 22-C , 25-C ) :   1.0725 B( 25-C , 26-H ) :   0.9551
B( 25-C , 27-H ) :   0.9581 B( 25-C , 28-C ) :   1.0692 B( 28-C , 29-H ) :   0.9734
B( 28-C , 30-H ) :   0.9726 B( 28-C , 31-H ) :   0.9757

Dispersion correction           -0.014772180
FINAL SINGLE POINT ENERGY     -1339.861817403619

DIPOLE MOMENT
-------------
                                X             Y             Z
Electronic contribution:    -11.92598      -0.99426       7.91035
Nuclear contribution   :     12.13372       1.13274      -8.03087
                        -----------------------------------------
Total Dipole Moment    :      0.20774       0.13848      -0.12052
                        -----------------------------------------
Magnitude (a.u.)       :      0.27723
Magnitude (Debye)      :      0.70466

Rotational constants in cm-1:     0.022394     0.007691     0.006617
Rotational constants in MHz :   671.353965   230.556637   198.382274

                             ****ORCA TERMINATED NORMALLY****
TOTAL RUN TIME: 0 days 0 hours 0 minutes 33 seconds 80 msec
