                         Program Version 4.2.1 -  RELEASE  -
|  1> ! wB97X-D3 SP def2-SVP
|  2> %pal
|  3> nprocs 16
|  4> end
|  5>
|  6> * xyz 0 1
|  7> S 	 1.66876 	 -20.2314 	 85.6675
|  8> C 	 1.2749 	 -20.8633 	 87.2308
|  9> C 	 2.0938 	 -21.9452 	 87.6041
| 10> C 	 3.11536 	 -22.1024 	 86.6804
| 11> C 	 3.11546 	 -21.2577 	 85.5898
| 12> H 	 3.89375 	 -22.817 	 86.6851
| 13> C 	 2.0151 	 -22.645 	 88.9079
| 14> H 	 2.25044 	 -23.7663 	 88.721
| 15> H 	 0.920616 	 -22.7317 	 89.2227
| 16> C 	 2.93346 	 -22.261 	 90.0626
| 17> H 	 2.57129 	 -22.7952 	 90.9309
| 18> H 	 3.92787 	 -22.5699 	 89.8099
| 19> C 	 3.00561 	 -20.7696 	 90.5438
| 20> H 	 3.47616 	 -20.7318 	 91.5797
| 21> H 	 3.49042 	 -20.1604 	 89.7203
| 22> H 	 1.91795 	 -20.4136 	 90.4613
| 23> S 	 4.77223 	 -22.81 	 83.9439
| 24> C 	 5.81708 	 -22.0367 	 82.772
| 25> C 	 5.46827 	 -20.6939 	 82.6954
| 26> C 	 4.49753 	 -20.2534 	 83.6462
| 27> C 	 4.07036 	 -21.3119 	 84.4532
| 28> H 	 5.96939 	 -19.9534 	 82.0746
| 29> C 	 4.08945 	 -18.7832 	 83.8745
| 30> H 	 4.86761 	 -18.2239 	 83.496
| 31> H 	 4.19416 	 -18.4445 	 84.9176
| 32> C 	 2.87063 	 -18.3675 	 83.0696
| 33> H 	 2.15446 	 -19.1782 	 83.075
| 34> H 	 3.11617 	 -18.1256 	 82.0549
| 35> C 	 2.14359 	 -17.1246 	 83.5914
| 36> H 	 1.23446 	 -16.8882 	 83.0487
| 37> H 	 2.79804 	 -16.236 	 83.5555
| 38> H 	 1.87332 	 -17.3747 	 84.598
| 39> H 	 0.530834 	 -20.3787 	 87.9482
| 40> H 	 6.70394 	 -22.4523 	 82.2784
| 41> *
| 42>
| 43>                          ****END OF INPUT****

CARTESIAN COORDINATES (ANGSTROEM)
---------------------------------
  S      1.668760  -20.231400   85.667500
  C      1.274900  -20.863300   87.230800
  C      2.093800  -21.945200   87.604100
  C      3.115360  -22.102400   86.680400
  C      3.115460  -21.257700   85.589800
  H      3.893750  -22.817000   86.685100
  C      2.015100  -22.645000   88.907900
  H      2.250440  -23.766300   88.721000
  H      0.920616  -22.731700   89.222700
  C      2.933460  -22.261000   90.062600
  H      2.571290  -22.795200   90.930900
  H      3.927870  -22.569900   89.809900
  C      3.005610  -20.769600   90.543800
  H      3.476160  -20.731800   91.579700
  H      3.490420  -20.160400   89.720300
  H      1.917950  -20.413600   90.461300
  S      4.772230  -22.810000   83.943900
  C      5.817080  -22.036700   82.772000
  C      5.468270  -20.693900   82.695400
  C      4.497530  -20.253400   83.646200
  C      4.070360  -21.311900   84.453200
  H      5.969390  -19.953400   82.074600
  C      4.089450  -18.783200   83.874500
  H      4.867610  -18.223900   83.496000
  H      4.194160  -18.444500   84.917600
  C      2.870630  -18.367500   83.069600
  H      2.154460  -19.178200   83.075000
  H      3.116170  -18.125600   82.054900
  C      2.143590  -17.124600   83.591400
  H      1.234460  -16.888200   83.048700
  H      2.798040  -16.236000   83.555500
  H      1.873320  -17.374700   84.598000
  H      0.530834  -20.378700   87.948200
  H      6.703940  -22.452300   82.278400

 Total Charge           Charge          ....    0
 Multiplicity           Mult            ....    1
 Number of Electrons    NEL             ....  134
 Basis Dimension        Dim             ....  322

ORBITAL ENERGIES
----------------

  NO   OCC          E(Eh)            E(eV)
   0   2.0000     -88.972866     -2421.0748
   1   2.0000     -88.969614     -2420.9863
   2   2.0000     -10.332378      -281.1583
   3   2.0000     -10.329494      -281.0798
   4   2.0000     -10.322070      -280.8778
   5   2.0000     -10.321978      -280.8753
   6   2.0000     -10.303355      -280.3685
   7   2.0000     -10.302029      -280.3325
   8   2.0000     -10.300664      -280.2953
   9   2.0000     -10.297356      -280.2053
  10   2.0000     -10.292694      -280.0784
  11   2.0000     -10.288695      -279.9696
  12   2.0000     -10.286407      -279.9074
  13   2.0000     -10.285807      -279.8910
  14   2.0000     -10.278812      -279.7007
  15   2.0000     -10.270970      -279.4873
  16   2.0000      -8.086367      -220.0412
  17   2.0000      -8.084229      -219.9830
  18   2.0000      -6.044828      -164.4881
  19   2.0000      -6.042801      -164.4330
  20   2.0000      -6.040979      -164.3834
  21   2.0000      -6.038621      -164.3192
  22   2.0000      -6.037336      -164.2843
  23   2.0000      -6.035074      -164.2227
  24   2.0000      -1.008324       -27.4379
  25   2.0000      -0.988045       -26.8861
  26   2.0000      -0.912226       -24.8229
  27   2.0000      -0.908401       -24.7189
  28   2.0000      -0.866490       -23.5784
  29   2.0000      -0.853135       -23.2150
  30   2.0000      -0.848198       -23.0806
  31   2.0000      -0.812162       -22.1001
  32   2.0000      -0.783662       -21.3245
  33   2.0000      -0.770478       -20.9658
  34   2.0000      -0.703340       -19.1389
  35   2.0000      -0.695034       -18.9128
  36   2.0000      -0.688174       -18.7262
  37   2.0000      -0.667755       -18.1705
  38   2.0000      -0.636400       -17.3173
  39   2.0000      -0.616297       -16.7703
  40   2.0000      -0.598812       -16.2945
  41   2.0000      -0.569949       -15.5091
  42   2.0000      -0.567483       -15.4420
  43   2.0000      -0.548137       -14.9156
  44   2.0000      -0.540907       -14.7188
  45   2.0000      -0.523611       -14.2482
  46   2.0000      -0.519376       -14.1329
  47   2.0000      -0.516882       -14.0651
  48   2.0000      -0.501332       -13.6419
  49   2.0000      -0.494176       -13.4472
  50   2.0000      -0.492522       -13.4022
  51   2.0000      -0.474897       -12.9226
  52   2.0000      -0.471401       -12.8275
  53   2.0000      -0.466175       -12.6853
  54   2.0000      -0.455610       -12.3978
  55   2.0000      -0.448153       -12.1949
  56   2.0000      -0.444624       -12.0988
  57   2.0000      -0.441318       -12.0089
  58   2.0000      -0.428032       -11.6473
  59   2.0000      -0.421175       -11.4607
  60   2.0000      -0.419205       -11.4072
  61   2.0000      -0.411639       -11.2013
  62   2.0000      -0.404459       -11.0059
  63   2.0000      -0.352197        -9.5838
  64   2.0000      -0.336249        -9.1498
  65   2.0000      -0.333500        -9.0750
  66   2.0000      -0.287719        -7.8292
  67   0.0000       0.018360         0.4996
  68   0.0000       0.079140         2.1535
  69   0.0000       0.106537         2.8990
  70   0.0000       0.116904         3.1811
  71   0.0000       0.123721         3.3666

MULLIKEN ATOMIC CHARGES
-----------------------
   0 S :    0.111785
   1 C :   -0.148487
   2 C :   -0.038854
   3 C :    0.000611
   4 C :   -0.123642
   5 H :   -0.009778
   6 C :   -0.013120
   7 H :    0.041612
   8 H :    0.036674
   9 C :   -0.042022
  10 H :    0.030887
  11 H :    0.026478
  12 C :   -0.107300
  13 H :    0.066485
  14 H :    0.053833
  15 H :    0.029440
  16 S :    0.110912
  17 C :   -0.104461
  18 C :   -0.018683
  19 C :   -0.088866
  20 C :   -0.134997
  21 H :    0.017517
  22 C :    0.094886
  23 H :   -0.016789
  24 H :    0.043189
  25 C :   -0.064170
  26 H :    0.028655
  27 H :    0.024587
  28 C :   -0.035786
  29 H :    0.033154
  30 H :    0.028384
  31 H :    0.017639
  32 H :    0.077816
  33 H :    0.072411
Sum of atomic charges:    0.0000000

LOEWDIN ATOMIC CHARGES
----------------------
   0 S :    0.427482
   1 C :   -0.210332
   2 C :   -0.074294
   3 C :   -0.061422
   4 C :   -0.180376
   5 H :    0.020082
   6 C :   -0.048810
   7 H :    0.045780
   8 H :    0.036432
   9 C :   -0.043017
  10 H :    0.026612
  11 H :    0.018562
  12 C :   -0.083205
  13 H :    0.039426
  14 H :    0.032577
  15 H :    0.027953
  16 S :    0.419715
  17 C :   -0.197946
  18 C :   -0.067285
  19 C :   -0.057971
  20 C :   -0.200224
  21 H :    0.030476
  22 C :   -0.039454
  23 H :    0.021345
  24 H :    0.038527
  25 C :   -0.039103
  26 H :    0.012906
  27 H :    0.021598
  28 C :   -0.060813
  29 H :    0.025516
  30 H :    0.023467
  31 H :    0.013059
  32 H :    0.042888
  33 H :    0.039847

  Mayer bond orders larger than 0.100000
B(  0-S ,  1-C ) :   1.1660 B(  0-S ,  4-C ) :   1.1407 B(  1-C ,  2-C ) :   1.5548
B(  1-C ,  4-C ) :   0.1005 B(  1-C , 32-H ) :   0.9556 B(  2-C ,  3-C ) :   1.2647
B(  2-C ,  6-C ) :   1.0410 B(  3-C ,  4-C ) :   1.5472 B(  3-C ,  5-H ) :   1.0043
B(  4-C , 20-C ) :   1.0584 B(  6-C ,  7-H ) :   0.9337 B(  6-C ,  8-H ) :   0.9397
B(  6-C ,  9-C ) :   1.0762 B(  9-C , 10-H ) :   0.9527 B(  9-C , 11-H ) :   0.9554
B(  9-C , 12-C ) :   1.0689 B( 12-C , 13-H ) :   0.9720 B( 12-C , 14-H ) :   0.9724
B( 12-C , 15-H ) :   0.9752 B( 16-S , 17-C ) :   1.1503 B( 16-S , 20-C ) :   1.1517
B( 17-C , 18-C ) :   1.5775 B( 17-C , 33-H ) :   0.9672 B( 18-C , 19-C ) :   1.2970
B( 18-C , 21-H ) :   0.9787 B( 19-C , 20-C ) :   1.5468 B( 19-C , 22-C ) :   1.0395
B( 22-C , 23-H ) :   0.9112 B( 22-C , 24-H ) :   0.9447 B( 22-C , 25-C ) :   1.0394
B( 25-C , 26-H ) :   0.9625 B( 25-C , 27-H ) :   0.9533 B( 25-C , 28-C ) :   1.0862
B( 28-C , 29-H ) :   0.9730 B( 28-C , 30-H ) :   0.9741 B( 28-C , 31-H ) :   0.9752

Dispersion correction           -0.014799387
FINAL SINGLE POINT ENERGY     -1339.871590227072

DIPOLE MOMENT
-------------
                                X             Y             Z
Electronic contribution:      3.20392     -12.05073     -12.99094
Nuclear contribution   :     -2.95797      12.22684      13.23919
                        -----------------------------------------
Total Dipole Moment    :      0.24595       0.17612       0.24825
                        -----------------------------------------
Magnitude (a.u.)       :      0.39133
Magnitude (Debye)      :      0.99467

Rotational constants in cm-1:     0.019042     0.009032     0.006870
Rotational constants in MHz :   570.870244   270.775520   205.948130

                             ****ORCA TERMINATED NORMALLY****
TOTAL RUN TIME: 0 days 0 hours 0 minutes 35 seconds 994 msec
