                         Program Version 4.2.1 -  RELEASE  -
|  1> ! wB97X-D3 SP def2-SVP
|  2> %pal
|  3> nprocs 16
|  4> end
|  5>
|  6> * xyz 0 1
|  7> S 	 29.6563 	 18.8525 	 70.1007
|  8> C 	 28.7751 	 17.6089 	 71.047
|  9> C 	 29.3842 	 16.4337 	 71.0135
| 10> C 	 30.6691 	 16.5085 	 70.3766
| 11> C 	 30.9581 	 17.7491 	 69.8667
| 12> H 	 31.2802 	 15.6375 	 70.3646
| 13> C 	 28.7234 	 15.1894 	 71.5649
| 14> H 	 29.1633 	 14.4627 	 70.9393
| 15> H 	 27.6933 	 15.2412 	 71.1486
| 16> C 	 28.874 	 14.941 	 73.1097
| 17> H 	 29.7971 	 15.5102 	 73.3948
| 18> H 	 28.1207 	 15.5186 	 73.6636
| 19> C 	 29.0324 	 13.4504 	 73.4789
| 20> H 	 29.9289 	 13.172 	 73.0162
| 21> H 	 29.0274 	 13.3641 	 74.5645
| 22> H 	 28.2539 	 12.8152 	 73.0528
| 23> S 	 32.1159 	 19.5548 	 67.9599
| 24> C 	 33.8411 	 19.6004 	 67.8782
| 25> C 	 34.4721 	 18.7501 	 68.7951
| 26> C 	 33.5132 	 17.9856 	 69.5041
| 27> C 	 32.1844 	 18.2341 	 69.1873
| 28> H 	 35.5132 	 18.8285 	 68.893
| 29> C 	 34.0304 	 16.9474 	 70.441
| 30> H 	 33.2916 	 16.6889 	 71.1964
| 31> H 	 34.8191 	 17.3132 	 71.0434
| 32> C 	 34.4243 	 15.5953 	 69.7933
| 33> H 	 33.5743 	 15.1483 	 69.2405
| 34> H 	 34.6332 	 14.8283 	 70.6175
| 35> C 	 35.599 	 15.5801 	 68.8839
| 36> H 	 36.483 	 16.0006 	 69.2918
| 37> H 	 35.2881 	 16.333 	 68.1415
| 38> H 	 35.7082 	 14.635 	 68.3095
| 39> H 	 27.888 	 17.8154 	 71.5215
| 40> H 	 34.3991 	 20.3038 	 67.1693
| 41> *
| 42>
| 43>                          ****END OF INPUT****

CARTESIAN COORDINATES (ANGSTROEM)
---------------------------------
  S     29.656300   18.852500   70.100700
  C     28.775100   17.608900   71.047000
  C     29.384200   16.433700   71.013500
  C     30.669100   16.508500   70.376600
  C     30.958100   17.749100   69.866700
  H     31.280200   15.637500   70.364600
  C     28.723400   15.189400   71.564900
  H     29.163300   14.462700   70.939300
  H     27.693300   15.241200   71.148600
  C     28.874000   14.941000   73.109700
  H     29.797100   15.510200   73.394800
  H     28.120700   15.518600   73.663600
  C     29.032400   13.450400   73.478900
  H     29.928900   13.172000   73.016200
  H     29.027400   13.364100   74.564500
  H     28.253900   12.815200   73.052800
  S     32.115900   19.554800   67.959900
  C     33.841100   19.600400   67.878200
  C     34.472100   18.750100   68.795100
  C     33.513200   17.985600   69.504100
  C     32.184400   18.234100   69.187300
  H     35.513200   18.828500   68.893000
  C     34.030400   16.947400   70.441000
  H     33.291600   16.688900   71.196400
  H     34.819100   17.313200   71.043400
  C     34.424300   15.595300   69.793300
  H     33.574300   15.148300   69.240500
  H     34.633200   14.828300   70.617500
  C     35.599000   15.580100   68.883900
  H     36.483000   16.000600   69.291800
  H     35.288100   16.333000   68.141500
  H     35.708200   14.635000   68.309500
  H     27.888000   17.815400   71.521500
  H     34.399100   20.303800   67.169300

 Total Charge           Charge          ....    0
 Multiplicity           Mult            ....    1
 Number of Electrons    NEL             ....  134
 Basis Dimension        Dim             ....  322

ORBITAL ENERGIES
----------------

  NO   OCC          E(Eh)            E(eV)
   0   2.0000     -88.969749     -2420.9899
   1   2.0000     -88.961184     -2420.7569
   2   2.0000     -10.333239      -281.1817
   3   2.0000     -10.332291      -281.1559
   4   2.0000     -10.325967      -280.9838
   5   2.0000     -10.303769      -280.3798
   6   2.0000     -10.300882      -280.3013
   7   2.0000     -10.296160      -280.1727
   8   2.0000     -10.293342      -280.0961
   9   2.0000     -10.291532      -280.0468
  10   2.0000     -10.291294      -280.0404
  11   2.0000     -10.290822      -280.0275
  12   2.0000     -10.289986      -280.0048
  13   2.0000     -10.286028      -279.8971
  14   2.0000     -10.279618      -279.7226
  15   2.0000     -10.270953      -279.4868
  16   2.0000      -8.083914      -219.9745
  17   2.0000      -8.076355      -219.7688
  18   2.0000      -6.042429      -164.4228
  19   2.0000      -6.038487      -164.3156
  20   2.0000      -6.034930      -164.2188
  21   2.0000      -6.034737      -164.2135
  22   2.0000      -6.030941      -164.1102
  23   2.0000      -6.026887      -163.9999
  24   2.0000      -1.007045       -27.4031
  25   2.0000      -0.986049       -26.8318
  26   2.0000      -0.913248       -24.8507
  27   2.0000      -0.910228       -24.7686
  28   2.0000      -0.869386       -23.6572
  29   2.0000      -0.855451       -23.2780
  30   2.0000      -0.843488       -22.9525
  31   2.0000      -0.817518       -22.2458
  32   2.0000      -0.789289       -21.4776
  33   2.0000      -0.775291       -21.0967
  34   2.0000      -0.709797       -19.3145
  35   2.0000      -0.705207       -19.1897
  36   2.0000      -0.686215       -18.6729
  37   2.0000      -0.663700       -18.0602
  38   2.0000      -0.640899       -17.4398
  39   2.0000      -0.624668       -16.9981
  40   2.0000      -0.597460       -16.2577
  41   2.0000      -0.569921       -15.5083
  42   2.0000      -0.560716       -15.2579
  43   2.0000      -0.549603       -14.9555
  44   2.0000      -0.544352       -14.8126
  45   2.0000      -0.530562       -14.4373
  46   2.0000      -0.526302       -14.3214
  47   2.0000      -0.510215       -13.8837
  48   2.0000      -0.503204       -13.6929
  49   2.0000      -0.498694       -13.5701
  50   2.0000      -0.493040       -13.4163
  51   2.0000      -0.477676       -12.9982
  52   2.0000      -0.473638       -12.8883
  53   2.0000      -0.467553       -12.7228
  54   2.0000      -0.462171       -12.5763
  55   2.0000      -0.451862       -12.2958
  56   2.0000      -0.446346       -12.1457
  57   2.0000      -0.440287       -11.9808
  58   2.0000      -0.434910       -11.8345
  59   2.0000      -0.423282       -11.5181
  60   2.0000      -0.417340       -11.3564
  61   2.0000      -0.415266       -11.3000
  62   2.0000      -0.401027       -10.9125
  63   2.0000      -0.354877        -9.6567
  64   2.0000      -0.335208        -9.1215
  65   2.0000      -0.330383        -8.9902
  66   2.0000      -0.287513        -7.8236
  67   0.0000       0.026986         0.7343
  68   0.0000       0.073134         1.9901
  69   0.0000       0.105011         2.8575
  70   0.0000       0.124343         3.3835
  71   0.0000       0.132006         3.5921

MULLIKEN ATOMIC CHARGES
-----------------------
   0 S :    0.084226
   1 C :   -0.100688
   2 C :   -0.115188
   3 C :    0.015179
   4 C :   -0.101287
   5 H :   -0.012263
   6 C :    0.085091
   7 H :   -0.000142
   8 H :    0.037194
   9 C :   -0.076276
  10 H :    0.038381
  11 H :    0.031432
  12 C :   -0.022824
  13 H :    0.025382
  14 H :    0.042424
  15 H :    0.036777
  16 S :    0.104494
  17 C :   -0.124037
  18 C :   -0.013077
  19 C :   -0.042066
  20 C :   -0.119673
  21 H :    0.007375
  22 C :    0.087080
  23 H :    0.015575
  24 H :    0.014206
  25 C :   -0.110772
  26 H :    0.031241
  27 H :    0.028955
  28 C :   -0.024366
  29 H :    0.018015
  30 H :    0.023016
  31 H :    0.044801
  32 H :    0.007454
  33 H :    0.084363
Sum of atomic charges:   -0.0000000

LOEWDIN ATOMIC CHARGES
----------------------
   0 S :    0.385335
   1 C :   -0.163372
   2 C :   -0.065226
   3 C :   -0.070807
   4 C :   -0.182057
   5 H :    0.023279
   6 C :   -0.032059
   7 H :    0.022493
   8 H :    0.038512
   9 C :   -0.041640
  10 H :    0.030732
  11 H :    0.023388
  12 C :   -0.056248
  13 H :    0.019919
  14 H :    0.029932
  15 H :    0.027074
  16 S :    0.393145
  17 C :   -0.193414
  18 C :   -0.070271
  19 C :   -0.051768
  20 C :   -0.184923
  21 H :    0.026804
  22 C :   -0.032278
  23 H :    0.031925
  24 H :    0.026446
  25 C :   -0.044632
  26 H :    0.024931
  27 H :    0.024407
  28 C :   -0.073179
  29 H :    0.016445
  30 H :    0.029150
  31 H :    0.034590
  32 H :    0.009107
  33 H :    0.044261

  Mayer bond orders larger than 0.100000
B(  0-S ,  1-C ) :   1.1055 B(  0-S ,  4-C ) :   1.1533 B(  1-C ,  2-C ) :   1.6582
B(  1-C , 32-H ) :   0.9830 B(  2-C ,  3-C ) :   1.2236 B(  2-C ,  6-C ) :   1.0000
B(  3-C ,  4-C ) :   1.5616 B(  3-C ,  5-H ) :   1.0055 B(  4-C , 20-C ) :   1.0458
B(  6-C ,  7-H ) :   0.9413 B(  6-C ,  8-H ) :   0.9400 B(  6-C ,  9-C ) :   1.0258
B(  9-C , 10-H ) :   0.9647 B(  9-C , 11-H ) :   0.9567 B(  9-C , 12-C ) :   1.0674
B( 12-C , 13-H ) :   0.9776 B( 12-C , 14-H ) :   0.9751 B( 12-C , 15-H ) :   0.9788
B( 16-S , 17-C ) :   1.1770 B( 16-S , 20-C ) :   1.1194 B( 17-C , 18-C ) :   1.5852
B( 17-C , 33-H ) :   0.9539 B( 18-C , 19-C ) :   1.2378 B( 18-C , 21-H ) :   1.0033
B( 19-C , 20-C ) :   1.5895 B( 19-C , 22-C ) :   1.0583 B( 22-C , 23-H ) :   0.9190
B( 22-C , 24-H ) :   0.9320 B( 22-C , 25-C ) :   1.0714 B( 25-C , 26-H ) :   0.9506
B( 25-C , 27-H ) :   0.9529 B( 25-C , 28-C ) :   1.0912 B( 28-C , 29-H ) :   0.9712
B( 28-C , 30-H ) :   0.9642 B( 28-C , 31-H ) :   0.9676

Dispersion correction           -0.014319278
FINAL SINGLE POINT ENERGY     -1339.868992172606

DIPOLE MOMENT
-------------
                                X             Y             Z
Electronic contribution:     -6.47251      25.86594     -13.46172
Nuclear contribution   :      6.71513     -26.34139      13.79865
                        -----------------------------------------
Total Dipole Moment    :      0.24262      -0.47546       0.33693
                        -----------------------------------------
Magnitude (a.u.)       :      0.63122
Magnitude (Debye)      :      1.60444

Rotational constants in cm-1:     0.019527     0.008477     0.006165
Rotational constants in MHz :   585.413034   254.148359   184.831993

                             ****ORCA TERMINATED NORMALLY****
TOTAL RUN TIME: 0 days 0 hours 0 minutes 30 seconds 240 msec
