                         Program Version 4.2.1 -  RELEASE  -
|  1> ! wB97X-D3 SP def2-SVP
|  2> %pal
|  3> nprocs 16
|  4> end
|  5>
|  6> * xyz 0 1
|  7> S 	 37.03 	 11.8297 	 81.2179
|  8> C 	 38.6636 	 11.9423 	 81.8171
|  9> C 	 39.5568 	 12.1685 	 80.7598
| 10> C 	 38.9515 	 12.3545 	 79.5096
| 11> C 	 37.5712 	 12.4569 	 79.69
| 12> H 	 39.4995 	 12.3521 	 78.5348
| 13> C 	 41.0849 	 12.148 	 80.9143
| 14> H 	 41.5788 	 11.479 	 80.2081
| 15> H 	 41.2303 	 11.6683 	 81.8896
| 16> C 	 41.6294 	 13.5859 	 80.7825
| 17> H 	 41.1296 	 14.1681 	 81.6216
| 18> H 	 42.722 	 13.7787 	 80.9199
| 19> C 	 41.266 	 14.3139 	 79.4468
| 20> H 	 41.4527 	 13.783 	 78.5006
| 21> H 	 40.2118 	 14.5598 	 79.4571
| 22> H 	 41.794 	 15.2186 	 79.4363
| 23> S 	 35.1272 	 11.6866 	 78.5654
| 24> C 	 34.5983 	 12.4197 	 77.1443
| 25> C 	 35.4374 	 13.4175 	 76.7584
| 26> C 	 36.6518 	 13.404 	 77.4487
| 27> C 	 36.6143 	 12.5796 	 78.5836
| 28> H 	 35.2317 	 13.9571 	 75.8375
| 29> C 	 37.7417 	 14.3199 	 77.0721
| 30> H 	 38.4787 	 14.5199 	 77.8801
| 31> H 	 37.2461 	 15.2659 	 76.8498
| 32> C 	 38.6145 	 13.7786 	 75.9055
| 33> H 	 38.0202 	 13.6839 	 74.9772
| 34> H 	 38.7017 	 12.7187 	 76.0762
| 35> C 	 39.9815 	 14.4331 	 75.5654
| 36> H 	 40.3521 	 13.7703 	 74.8181
| 37> H 	 40.6685 	 14.5502 	 76.3821
| 38> H 	 39.7995 	 15.3358 	 75.0143
| 39> H 	 39.001 	 11.7918 	 82.8382
| 40> H 	 33.5852 	 12.3236 	 76.7563
| 41> *
| 42>
| 43>                          ****END OF INPUT****

CARTESIAN COORDINATES (ANGSTROEM)
---------------------------------
  S     37.030000   11.829700   81.217900
  C     38.663600   11.942300   81.817100
  C     39.556800   12.168500   80.759800
  C     38.951500   12.354500   79.509600
  C     37.571200   12.456900   79.690000
  H     39.499500   12.352100   78.534800
  C     41.084900   12.148000   80.914300
  H     41.578800   11.479000   80.208100
  H     41.230300   11.668300   81.889600
  C     41.629400   13.585900   80.782500
  H     41.129600   14.168100   81.621600
  H     42.722000   13.778700   80.919900
  C     41.266000   14.313900   79.446800
  H     41.452700   13.783000   78.500600
  H     40.211800   14.559800   79.457100
  H     41.794000   15.218600   79.436300
  S     35.127200   11.686600   78.565400
  C     34.598300   12.419700   77.144300
  C     35.437400   13.417500   76.758400
  C     36.651800   13.404000   77.448700
  C     36.614300   12.579600   78.583600
  H     35.231700   13.957100   75.837500
  C     37.741700   14.319900   77.072100
  H     38.478700   14.519900   77.880100
  H     37.246100   15.265900   76.849800
  C     38.614500   13.778600   75.905500
  H     38.020200   13.683900   74.977200
  H     38.701700   12.718700   76.076200
  C     39.981500   14.433100   75.565400
  H     40.352100   13.770300   74.818100
  H     40.668500   14.550200   76.382100
  H     39.799500   15.335800   75.014300
  H     39.001000   11.791800   82.838200
  H     33.585200   12.323600   76.756300

 Total Charge           Charge          ....    0
 Multiplicity           Mult            ....    1
 Number of Electrons    NEL             ....  134
 Basis Dimension        Dim             ....  322

ORBITAL ENERGIES
----------------

  NO   OCC          E(Eh)            E(eV)
   0   2.0000     -88.971901     -2421.0485
   1   2.0000     -88.963235     -2420.8127
   2   2.0000     -10.331591      -281.1369
   3   2.0000     -10.323040      -280.9042
   4   2.0000     -10.315034      -280.6864
   5   2.0000     -10.307858      -280.4911
   6   2.0000     -10.300305      -280.2855
   7   2.0000     -10.296992      -280.1954
   8   2.0000     -10.296983      -280.1952
   9   2.0000     -10.295259      -280.1482
  10   2.0000     -10.294869      -280.1376
  11   2.0000     -10.287121      -279.9268
  12   2.0000     -10.286627      -279.9133
  13   2.0000     -10.285270      -279.8764
  14   2.0000     -10.277150      -279.6555
  15   2.0000     -10.275195      -279.6023
  16   2.0000      -8.086641      -220.0487
  17   2.0000      -8.079590      -219.8568
  18   2.0000      -6.045137      -164.4965
  19   2.0000      -6.041407      -164.3950
  20   2.0000      -6.037888      -164.2993
  21   2.0000      -6.037176      -164.2799
  22   2.0000      -6.033824      -164.1887
  23   2.0000      -6.030543      -164.0994
  24   2.0000      -1.015407       -27.6306
  25   2.0000      -0.993058       -27.0225
  26   2.0000      -0.910666       -24.7805
  27   2.0000      -0.908487       -24.7212
  28   2.0000      -0.866886       -23.5892
  29   2.0000      -0.856873       -23.3167
  30   2.0000      -0.845422       -23.0051
  31   2.0000      -0.816950       -22.2303
  32   2.0000      -0.787777       -21.4365
  33   2.0000      -0.772370       -21.0172
  34   2.0000      -0.705482       -19.1971
  35   2.0000      -0.696789       -18.9606
  36   2.0000      -0.696428       -18.9508
  37   2.0000      -0.661128       -17.9902
  38   2.0000      -0.633783       -17.2461
  39   2.0000      -0.621894       -16.9226
  40   2.0000      -0.599293       -16.3076
  41   2.0000      -0.571459       -15.5502
  42   2.0000      -0.559960       -15.2373
  43   2.0000      -0.549416       -14.9504
  44   2.0000      -0.541751       -14.7418
  45   2.0000      -0.524055       -14.2603
  46   2.0000      -0.514010       -13.9869
  47   2.0000      -0.510578       -13.8935
  48   2.0000      -0.507643       -13.8137
  49   2.0000      -0.499521       -13.5927
  50   2.0000      -0.491538       -13.3754
  51   2.0000      -0.489378       -13.3166
  52   2.0000      -0.471693       -12.8354
  53   2.0000      -0.464919       -12.6511
  54   2.0000      -0.464768       -12.6470
  55   2.0000      -0.453886       -12.3509
  56   2.0000      -0.445725       -12.1288
  57   2.0000      -0.439441       -11.9578
  58   2.0000      -0.433839       -11.8054
  59   2.0000      -0.426571       -11.6076
  60   2.0000      -0.418212       -11.3801
  61   2.0000      -0.413236       -11.2447
  62   2.0000      -0.406790       -11.0693
  63   2.0000      -0.354553        -9.6479
  64   2.0000      -0.335051        -9.1172
  65   2.0000      -0.329564        -8.9679
  66   2.0000      -0.280281        -7.6268
  67   0.0000       0.021219         0.5774
  68   0.0000       0.077178         2.1001
  69   0.0000       0.102766         2.7964
  70   0.0000       0.122898         3.3442
  71   0.0000       0.136199         3.7062

MULLIKEN ATOMIC CHARGES
-----------------------
   0 S :    0.112637
   1 C :   -0.106715
   2 C :   -0.126014
   3 C :   -0.021764
   4 C :   -0.107296
   5 H :    0.044571
   6 C :    0.099174
   7 H :    0.034535
   8 H :    0.015340
   9 C :   -0.096791
  10 H :    0.034421
  11 H :    0.041533
  12 C :   -0.077659
  13 H :    0.037558
  14 H :    0.061410
  15 H :    0.023204
  16 S :    0.105299
  17 C :   -0.090402
  18 C :   -0.035370
  19 C :   -0.069134
  20 C :   -0.133439
  21 H :    0.021864
  22 C :    0.084678
  23 H :    0.006566
  24 H :    0.027103
  25 C :   -0.125104
  26 H :    0.015256
  27 H :    0.017885
  28 C :    0.011832
  29 H :    0.024338
  30 H :    0.034188
  31 H :    0.029363
  32 H :    0.045210
  33 H :    0.061723
Sum of atomic charges:    0.0000000

LOEWDIN ATOMIC CHARGES
----------------------
   0 S :    0.418384
   1 C :   -0.207770
   2 C :   -0.059950
   3 C :   -0.062484
   4 C :   -0.185986
   5 H :    0.045011
   6 C :   -0.032388
   7 H :    0.029631
   8 H :    0.029097
   9 C :   -0.044826
  10 H :    0.032855
  11 H :    0.025872
  12 C :   -0.068791
  13 H :    0.021275
  14 H :    0.024646
  15 H :    0.020717
  16 S :    0.431714
  17 C :   -0.208195
  18 C :   -0.075058
  19 C :   -0.062696
  20 C :   -0.205239
  21 H :    0.033493
  22 C :   -0.037338
  23 H :    0.029168
  24 H :    0.030780
  25 C :   -0.047157
  26 H :    0.024825
  27 H :    0.018535
  28 C :   -0.057120
  29 H :    0.029735
  30 H :    0.020911
  31 H :    0.026514
  32 H :    0.028734
  33 H :    0.033100

  Mayer bond orders larger than 0.100000
B(  0-S ,  1-C ) :   1.1349 B(  0-S ,  4-C ) :   1.1688 B(  1-C ,  2-C ) :   1.5955
B(  1-C ,  4-C ) :   0.1025 B(  1-C , 32-H ) :   0.9663 B(  2-C ,  3-C ) :   1.2757
B(  2-C ,  6-C ) :   1.0164 B(  3-C ,  4-C ) :   1.5045 B(  3-C ,  5-H ) :   0.9823
B(  4-C , 20-C ) :   1.0726 B(  6-C ,  7-H ) :   0.9486 B(  6-C ,  8-H ) :   0.9409
B(  6-C ,  9-C ) :   1.0491 B(  9-C , 10-H ) :   0.9518 B(  9-C , 11-H ) :   0.9635
B(  9-C , 12-C ) :   1.0864 B( 12-C , 13-H ) :   0.9686 B( 12-C , 14-H ) :   0.9619
B( 12-C , 15-H ) :   0.9657 B( 16-S , 17-C ) :   1.1790 B( 16-S , 20-C ) :   1.1493
B( 17-C , 18-C ) :   1.5846 B( 17-C , 33-H ) :   0.9611 B( 18-C , 19-C ) :   1.2894
B( 18-C , 21-H ) :   0.9855 B( 19-C , 20-C ) :   1.5441 B( 19-C , 22-C ) :   1.0675
B( 22-C , 23-H ) :   0.9287 B( 22-C , 24-H ) :   0.9303 B( 22-C , 25-C ) :   1.0416
B( 25-C , 26-H ) :   0.9489 B( 25-C , 27-H ) :   0.9547 B( 25-C , 28-C ) :   1.0800
B( 28-C , 29-H ) :   0.9688 B( 28-C , 30-H ) :   0.9730 B( 28-C , 31-H ) :   0.9721

Dispersion correction           -0.016076096
FINAL SINGLE POINT ENERGY     -1339.870510643224

DIPOLE MOMENT
-------------
                                X             Y             Z
Electronic contribution:    -26.01055     -13.65811      12.03178
Nuclear contribution   :     26.49832      13.86512     -12.36725
                        -----------------------------------------
Total Dipole Moment    :      0.48777       0.20702      -0.33547
                        -----------------------------------------
Magnitude (a.u.)       :      0.62715
Magnitude (Debye)      :      1.59409

Rotational constants in cm-1:     0.017007     0.011635     0.007224
Rotational constants in MHz :   509.871889   348.812809   216.575851

                             ****ORCA TERMINATED NORMALLY****
TOTAL RUN TIME: 0 days 0 hours 0 minutes 31 seconds 472 msec
