                         Program Version 4.2.1 -  RELEASE  -
|  1> ! wB97X-D3 SP def2-SVP
|  2> %pal
|  3> nprocs 16
|  4> end
|  5>
|  6> * xyz 0 1
|  7> S 	 -23.7791 	 -3.9137 	 87.3918
|  8> C 	 -25.2204 	 -3.60987 	 88.2777
|  9> C 	 -26.0009 	 -2.63728 	 87.6845
| 10> C 	 -25.3254 	 -2.11747 	 86.5638
| 11> C 	 -24.1277 	 -2.6478 	 86.2445
| 12> H 	 -25.6053 	 -1.35857 	 85.8672
| 13> C 	 -27.434 	 -2.28283 	 88.0489
| 14> H 	 -27.609 	 -1.24236 	 87.8127
| 15> H 	 -27.508 	 -2.28568 	 89.1232
| 16> C 	 -28.417 	 -3.30021 	 87.3739
| 17> H 	 -28.2631 	 -4.2985 	 87.7797
| 18> H 	 -29.3944 	 -3.02855 	 87.6558
| 19> C 	 -28.3183 	 -3.43274 	 85.8981
| 20> H 	 -27.6896 	 -4.26668 	 85.7422
| 21> H 	 -29.2673 	 -3.61196 	 85.3361
| 22> H 	 -27.8364 	 -2.50336 	 85.5138
| 23> S 	 -21.5723 	 -1.92461 	 85.6996
| 24> C 	 -21.1783 	 -1.16041 	 84.1225
| 25> C 	 -22.3157 	 -1.02281 	 83.3505
| 26> C 	 -23.4574 	 -1.61245 	 83.9141
| 27> C 	 -23.2343 	 -2.19455 	 85.2194
| 28> H 	 -22.1321 	 -0.553203 	 82.411
| 29> C 	 -24.769 	 -1.73285 	 83.1034
| 30> H 	 -25.3081 	 -2.64612 	 83.4644
| 31> H 	 -24.49 	 -2.0796 	 82.0931
| 32> C 	 -25.5576 	 -0.430697 	 83.2458
| 33> H 	 -24.9685 	 0.432117 	 83.3363
| 34> H 	 -26.0807 	 -0.590779 	 84.1819
| 35> C 	 -26.7352 	 -0.185767 	 82.1957
| 36> H 	 -27.1125 	 -1.0891 	 81.676
| 37> H 	 -26.3404 	 0.482521 	 81.4194
| 38> H 	 -27.496 	 0.365226 	 82.6881
| 39> H 	 -25.5474 	 -4.27159 	 89.0016
| 40> H 	 -20.2027 	 -0.721696 	 83.9035
| 41> *
| 42>
| 43>                          ****END OF INPUT****

CARTESIAN COORDINATES (ANGSTROEM)
---------------------------------
  S    -23.779100   -3.913700   87.391800
  C    -25.220400   -3.609870   88.277700
  C    -26.000900   -2.637280   87.684500
  C    -25.325400   -2.117470   86.563800
  C    -24.127700   -2.647800   86.244500
  H    -25.605300   -1.358570   85.867200
  C    -27.434000   -2.282830   88.048900
  H    -27.609000   -1.242360   87.812700
  H    -27.508000   -2.285680   89.123200
  C    -28.417000   -3.300210   87.373900
  H    -28.263100   -4.298500   87.779700
  H    -29.394400   -3.028550   87.655800
  C    -28.318300   -3.432740   85.898100
  H    -27.689600   -4.266680   85.742200
  H    -29.267300   -3.611960   85.336100
  H    -27.836400   -2.503360   85.513800
  S    -21.572300   -1.924610   85.699600
  C    -21.178300   -1.160410   84.122500
  C    -22.315700   -1.022810   83.350500
  C    -23.457400   -1.612450   83.914100
  C    -23.234300   -2.194550   85.219400
  H    -22.132100   -0.553203   82.411000
  C    -24.769000   -1.732850   83.103400
  H    -25.308100   -2.646120   83.464400
  H    -24.490000   -2.079600   82.093100
  C    -25.557600   -0.430697   83.245800
  H    -24.968500    0.432117   83.336300
  H    -26.080700   -0.590779   84.181900
  C    -26.735200   -0.185767   82.195700
  H    -27.112500   -1.089100   81.676000
  H    -26.340400    0.482521   81.419400
  H    -27.496000    0.365226   82.688100
  H    -25.547400   -4.271590   89.001600
  H    -20.202700   -0.721696   83.903500

 Total Charge           Charge          ....    0
 Multiplicity           Mult            ....    1
 Number of Electrons    NEL             ....  134
 Basis Dimension        Dim             ....  322

ORBITAL ENERGIES
----------------

  NO   OCC          E(Eh)            E(eV)
   0   2.0000     -88.964951     -2420.8594
   1   2.0000     -88.963342     -2420.8156
   2   2.0000     -10.331501      -281.1344
   3   2.0000     -10.321912      -280.8735
   4   2.0000     -10.320288      -280.8293
   5   2.0000     -10.309213      -280.5279
   6   2.0000     -10.306926      -280.4657
   7   2.0000     -10.299137      -280.2538
   8   2.0000     -10.297318      -280.2043
   9   2.0000     -10.294307      -280.1223
  10   2.0000     -10.293305      -280.0951
  11   2.0000     -10.287834      -279.9462
  12   2.0000     -10.283083      -279.8169
  13   2.0000     -10.281471      -279.7731
  14   2.0000     -10.281016      -279.7607
  15   2.0000     -10.273807      -279.5645
  16   2.0000      -8.078977      -219.8401
  17   2.0000      -8.078913      -219.8384
  18   2.0000      -6.037380      -164.2855
  19   2.0000      -6.037288      -164.2830
  20   2.0000      -6.033526      -164.1806
  21   2.0000      -6.033291      -164.1742
  22   2.0000      -6.029932      -164.0828
  23   2.0000      -6.029784      -164.0788
  24   2.0000      -1.011544       -27.5255
  25   2.0000      -0.982558       -26.7368
  26   2.0000      -0.915939       -24.9240
  27   2.0000      -0.903404       -24.5829
  28   2.0000      -0.876650       -23.8549
  29   2.0000      -0.851364       -23.1668
  30   2.0000      -0.843536       -22.9538
  31   2.0000      -0.818885       -22.2830
  32   2.0000      -0.785342       -21.3702
  33   2.0000      -0.769878       -20.9495
  34   2.0000      -0.709661       -19.3109
  35   2.0000      -0.702157       -19.1067
  36   2.0000      -0.697003       -18.9664
  37   2.0000      -0.665403       -18.1065
  38   2.0000      -0.646602       -17.5949
  39   2.0000      -0.617330       -16.7984
  40   2.0000      -0.592766       -16.1300
  41   2.0000      -0.579068       -15.7572
  42   2.0000      -0.559660       -15.2291
  43   2.0000      -0.553056       -15.0494
  44   2.0000      -0.546326       -14.8663
  45   2.0000      -0.530879       -14.4459
  46   2.0000      -0.518728       -14.1153
  47   2.0000      -0.512564       -13.9476
  48   2.0000      -0.508536       -13.8380
  49   2.0000      -0.499287       -13.5863
  50   2.0000      -0.491917       -13.3857
  51   2.0000      -0.482131       -13.1195
  52   2.0000      -0.468368       -12.7449
  53   2.0000      -0.465471       -12.6661
  54   2.0000      -0.458536       -12.4774
  55   2.0000      -0.452788       -12.3210
  56   2.0000      -0.444558       -12.0970
  57   2.0000      -0.441106       -12.0031
  58   2.0000      -0.430539       -11.7156
  59   2.0000      -0.423559       -11.5256
  60   2.0000      -0.416151       -11.3240
  61   2.0000      -0.414344       -11.2749
  62   2.0000      -0.407763       -11.0958
  63   2.0000      -0.356306        -9.6956
  64   2.0000      -0.332849        -9.0573
  65   2.0000      -0.329364        -8.9624
  66   2.0000      -0.284391        -7.7387
  67   0.0000       0.023945         0.6516
  68   0.0000       0.073988         2.0133
  69   0.0000       0.113435         3.0867
  70   0.0000       0.123141         3.3508
  71   0.0000       0.127714         3.4753

MULLIKEN ATOMIC CHARGES
-----------------------
   0 S :    0.106832
   1 C :   -0.096385
   2 C :   -0.090191
   3 C :    0.041564
   4 C :   -0.149143
   5 H :   -0.051980
   6 C :    0.093695
   7 H :    0.023928
   8 H :    0.020332
   9 C :   -0.041604
  10 H :    0.020554
  11 H :    0.014957
  12 C :   -0.048233
  13 H :    0.032210
  14 H :    0.043982
  15 H :    0.027687
  16 S :    0.092495
  17 C :   -0.111426
  18 C :   -0.023682
  19 C :   -0.053468
  20 C :   -0.125661
  21 H :    0.015649
  22 C :    0.039104
  23 H :    0.038588
  24 H :    0.031578
  25 C :   -0.083571
  26 H :    0.032048
  27 H :    0.046655
  28 C :   -0.034770
  29 H :    0.042901
  30 H :    0.029972
  31 H :    0.027086
  32 H :    0.024494
  33 H :    0.063802
Sum of atomic charges:   -0.0000000

LOEWDIN ATOMIC CHARGES
----------------------
   0 S :    0.416230
   1 C :   -0.189977
   2 C :   -0.062736
   3 C :   -0.065003
   4 C :   -0.202731
   5 H :    0.021996
   6 C :   -0.023798
   7 H :    0.029278
   8 H :    0.030788
   9 C :   -0.034982
  10 H :    0.024193
  11 H :    0.015127
  12 C :   -0.067122
  13 H :    0.024216
  14 H :    0.033382
  15 H :    0.027157
  16 S :    0.393377
  17 C :   -0.174241
  18 C :   -0.070430
  19 C :   -0.055539
  20 C :   -0.195961
  21 H :    0.033468
  22 C :   -0.035185
  23 H :    0.036106
  24 H :    0.028786
  25 C :   -0.034761
  26 H :    0.019427
  27 H :    0.023523
  28 C :   -0.065083
  29 H :    0.029987
  30 H :    0.026079
  31 H :    0.020826
  32 H :    0.012504
  33 H :    0.031101

  Mayer bond orders larger than 0.100000
B(  0-S ,  1-C ) :   1.1609 B(  0-S ,  4-C ) :   1.1380 B(  1-C ,  2-C ) :   1.5852
B(  1-C , 32-H ) :   0.9760 B(  2-C ,  3-C ) :   1.2401 B(  2-C ,  6-C ) :   1.0243
B(  3-C ,  4-C ) :   1.5933 B(  3-C ,  5-H ) :   0.9964 B(  4-C , 20-C ) :   1.0542
B(  6-C ,  7-H ) :   0.9397 B(  6-C ,  8-H ) :   0.9366 B(  6-C ,  9-C ) :   1.0709
B(  9-C , 10-H ) :   0.9619 B(  9-C , 11-H ) :   0.9572 B(  9-C , 12-C ) :   1.0691
B( 12-C , 13-H ) :   0.9747 B( 12-C , 14-H ) :   0.9721 B( 12-C , 15-H ) :   0.9753
B( 16-S , 17-C ) :   1.1513 B( 16-S , 20-C ) :   1.1567 B( 17-C , 18-C ) :   1.5969
B( 17-C , 20-C ) :   0.1130 B( 17-C , 33-H ) :   0.9663 B( 18-C , 19-C ) :   1.2586
B( 18-C , 21-H ) :   0.9978 B( 19-C , 20-C ) :   1.5403 B( 19-C , 22-C ) :   1.0252
B( 22-C , 23-H ) :   0.9445 B( 22-C , 24-H ) :   0.9514 B( 22-C , 25-C ) :   1.0313
B( 25-C , 26-H ) :   0.9675 B( 25-C , 27-H ) :   0.9490 B( 25-C , 28-C ) :   1.0672
B( 28-C , 29-H ) :   0.9768 B( 28-C , 30-H ) :   0.9789 B( 28-C , 31-H ) :   0.9794

Dispersion correction           -0.015531116
FINAL SINGLE POINT ENERGY     -1339.864770138333

DIPOLE MOMENT
-------------
                                X             Y             Z
Electronic contribution:     27.73006      -6.41057      11.52576
Nuclear contribution   :    -28.35309       6.68897     -11.84735
                        -----------------------------------------
Total Dipole Moment    :     -0.62302       0.27840      -0.32160
                        -----------------------------------------
Magnitude (a.u.)       :      0.75438
Magnitude (Debye)      :      1.91748

Rotational constants in cm-1:     0.016944     0.010899     0.007092
Rotational constants in MHz :   507.971239   326.729584   212.626305

                             ****ORCA TERMINATED NORMALLY****
TOTAL RUN TIME: 0 days 0 hours 0 minutes 35 seconds 879 msec
