                         Program Version 4.2.1 -  RELEASE  -
|  1> ! wB97X-D3 SP def2-SVP
|  2> %pal
|  3> nprocs 16
|  4> end
|  5>
|  6> * xyz 0 1
|  7> S 	 -23.5418 	 47.3272 	 62.8729
|  8> C 	 -23.0799 	 48.9088 	 62.3206
|  9> C 	 -23.0506 	 49.8301 	 63.4314
| 10> C 	 -23.4712 	 49.2006 	 64.6832
| 11> C 	 -23.5968 	 47.8003 	 64.589
| 12> H 	 -23.6418 	 49.6798 	 65.6487
| 13> C 	 -22.6537 	 51.3153 	 63.2852
| 14> H 	 -23.3262 	 52.0016 	 63.7184
| 15> H 	 -22.7544 	 51.6532 	 62.2894
| 16> C 	 -21.244 	 51.6238 	 63.8227
| 17> H 	 -21.149 	 52.7107 	 63.7738
| 18> H 	 -21.2351 	 51.3826 	 64.8347
| 19> C 	 -20.1257 	 50.9785 	 63.0088
| 20> H 	 -20.3135 	 51.1599 	 61.9525
| 21> H 	 -19.2513 	 51.4803 	 63.2932
| 22> H 	 -19.9491 	 49.8659 	 63.2572
| 23> S 	 -25.8161 	 46.9436 	 65.9117
| 24> C 	 -25.7019 	 46.0177 	 67.4251
| 25> C 	 -24.3542 	 45.9966 	 67.8391
| 26> C 	 -23.4977 	 46.644 	 66.8988
| 27> C 	 -24.1367 	 47.0556 	 65.7351
| 28> H 	 -23.9416 	 45.7741 	 68.852
| 29> C 	 -22.0037 	 46.7078 	 67.0973
| 30> H 	 -21.6609 	 47.6141 	 66.5132
| 31> H 	 -21.5517 	 45.937 	 66.5895
| 32> C 	 -21.3099 	 46.7945 	 68.4696
| 33> H 	 -20.2753 	 46.7921 	 68.2525
| 34> H 	 -21.5921 	 45.8051 	 68.8801
| 35> C 	 -21.7205 	 47.8216 	 69.5381
| 36> H 	 -22.766 	 47.7105 	 69.8635
| 37> H 	 -21.7571 	 48.8648 	 69.1896
| 38> H 	 -20.9529 	 47.813 	 70.3734
| 39> H 	 -22.7314 	 49.1668 	 61.3333
| 40> H 	 -26.4887 	 45.9695 	 68.141
| 41> *
| 42>
| 43>                          ****END OF INPUT****

CARTESIAN COORDINATES (ANGSTROEM)
---------------------------------
  S    -23.541800   47.327200   62.872900
  C    -23.079900   48.908800   62.320600
  C    -23.050600   49.830100   63.431400
  C    -23.471200   49.200600   64.683200
  C    -23.596800   47.800300   64.589000
  H    -23.641800   49.679800   65.648700
  C    -22.653700   51.315300   63.285200
  H    -23.326200   52.001600   63.718400
  H    -22.754400   51.653200   62.289400
  C    -21.244000   51.623800   63.822700
  H    -21.149000   52.710700   63.773800
  H    -21.235100   51.382600   64.834700
  C    -20.125700   50.978500   63.008800
  H    -20.313500   51.159900   61.952500
  H    -19.251300   51.480300   63.293200
  H    -19.949100   49.865900   63.257200
  S    -25.816100   46.943600   65.911700
  C    -25.701900   46.017700   67.425100
  C    -24.354200   45.996600   67.839100
  C    -23.497700   46.644000   66.898800
  C    -24.136700   47.055600   65.735100
  H    -23.941600   45.774100   68.852000
  C    -22.003700   46.707800   67.097300
  H    -21.660900   47.614100   66.513200
  H    -21.551700   45.937000   66.589500
  C    -21.309900   46.794500   68.469600
  H    -20.275300   46.792100   68.252500
  H    -21.592100   45.805100   68.880100
  C    -21.720500   47.821600   69.538100
  H    -22.766000   47.710500   69.863500
  H    -21.757100   48.864800   69.189600
  H    -20.952900   47.813000   70.373400
  H    -22.731400   49.166800   61.333300
  H    -26.488700   45.969500   68.141000

 Total Charge           Charge          ....    0
 Multiplicity           Mult            ....    1
 Number of Electrons    NEL             ....  134
 Basis Dimension        Dim             ....  322

ORBITAL ENERGIES
----------------

  NO   OCC          E(Eh)            E(eV)
   0   2.0000     -88.972191     -2421.0564
   1   2.0000     -88.966970     -2420.9143
   2   2.0000     -10.334499      -281.2160
   3   2.0000     -10.323854      -280.9263
   4   2.0000     -10.322958      -280.9020
   5   2.0000     -10.319458      -280.8067
   6   2.0000     -10.313897      -280.6554
   7   2.0000     -10.303704      -280.3780
   8   2.0000     -10.300788      -280.2987
   9   2.0000     -10.300384      -280.2877
  10   2.0000     -10.288321      -279.9594
  11   2.0000     -10.287031      -279.9244
  12   2.0000     -10.285317      -279.8777
  13   2.0000     -10.282983      -279.8142
  14   2.0000     -10.280471      -279.7458
  15   2.0000     -10.276932      -279.6495
  16   2.0000      -8.085856      -220.0273
  17   2.0000      -8.082090      -219.9249
  18   2.0000      -6.044461      -164.4781
  19   2.0000      -6.040516      -164.3708
  20   2.0000      -6.040321      -164.3655
  21   2.0000      -6.036765      -164.2687
  22   2.0000      -6.036463      -164.2605
  23   2.0000      -6.032966      -164.1654
  24   2.0000      -1.005960       -27.3736
  25   2.0000      -0.977912       -26.6103
  26   2.0000      -0.910718       -24.7819
  27   2.0000      -0.907234       -24.6871
  28   2.0000      -0.869338       -23.6559
  29   2.0000      -0.847270       -23.0554
  30   2.0000      -0.842510       -22.9259
  31   2.0000      -0.812894       -22.1200
  32   2.0000      -0.785271       -21.3683
  33   2.0000      -0.775476       -21.1018
  34   2.0000      -0.705643       -19.2015
  35   2.0000      -0.698274       -19.0010
  36   2.0000      -0.693647       -18.8751
  37   2.0000      -0.658584       -17.9210
  38   2.0000      -0.644429       -17.5358
  39   2.0000      -0.612702       -16.6725
  40   2.0000      -0.595661       -16.2088
  41   2.0000      -0.571403       -15.5487
  42   2.0000      -0.551380       -15.0038
  43   2.0000      -0.549238       -14.9455
  44   2.0000      -0.543432       -14.7875
  45   2.0000      -0.539026       -14.6676
  46   2.0000      -0.516268       -14.0484
  47   2.0000      -0.513807       -13.9814
  48   2.0000      -0.504421       -13.7260
  49   2.0000      -0.500486       -13.6189
  50   2.0000      -0.488625       -13.2962
  51   2.0000      -0.480575       -13.0771
  52   2.0000      -0.465776       -12.6744
  53   2.0000      -0.462950       -12.5975
  54   2.0000      -0.455404       -12.3922
  55   2.0000      -0.448539       -12.2054
  56   2.0000      -0.443898       -12.0791
  57   2.0000      -0.441401       -12.0111
  58   2.0000      -0.437113       -11.8944
  59   2.0000      -0.425141       -11.5687
  60   2.0000      -0.422744       -11.5034
  61   2.0000      -0.414734       -11.2855
  62   2.0000      -0.398569       -10.8456
  63   2.0000      -0.340413        -9.2631
  64   2.0000      -0.328533        -8.9398
  65   2.0000      -0.319307        -8.6888
  66   2.0000      -0.304819        -8.2946
  67   0.0000       0.036410         0.9908
  68   0.0000       0.044912         1.2221
  69   0.0000       0.110807         3.0152
  70   0.0000       0.112785         3.0690
  71   0.0000       0.130655         3.5553

MULLIKEN ATOMIC CHARGES
-----------------------
   0 S :    0.122406
   1 C :   -0.106272
   2 C :   -0.100949
   3 C :    0.031601
   4 C :   -0.177118
   5 H :    0.032142
   6 C :    0.091499
   7 H :    0.010785
   8 H :   -0.003181
   9 C :   -0.065446
  10 H :    0.023438
  11 H :    0.014685
  12 C :   -0.038895
  13 H :    0.026521
  14 H :    0.020102
  15 H :    0.057335
  16 S :    0.120697
  17 C :   -0.082919
  18 C :   -0.050750
  19 C :   -0.062288
  20 C :   -0.159078
  21 H :    0.038878
  22 C :    0.063073
  23 H :    0.022528
  24 H :    0.024727
  25 C :   -0.070244
  26 H :    0.028413
  27 H :    0.023752
  28 C :   -0.057517
  29 H :    0.031603
  30 H :    0.024469
  31 H :    0.050472
  32 H :    0.054683
  33 H :    0.060848
Sum of atomic charges:    0.0000000

LOEWDIN ATOMIC CHARGES
----------------------
   0 S :    0.411337
   1 C :   -0.202788
   2 C :   -0.054399
   3 C :   -0.052364
   4 C :   -0.203452
   5 H :    0.035376
   6 C :   -0.032333
   7 H :    0.026077
   8 H :    0.021340
   9 C :   -0.032802
  10 H :    0.024821
  11 H :    0.013636
  12 C :   -0.064751
  13 H :    0.023749
  14 H :    0.018471
  15 H :    0.039454
  16 S :    0.437071
  17 C :   -0.188284
  18 C :   -0.071908
  19 C :   -0.062096
  20 C :   -0.221332
  21 H :    0.038160
  22 C :   -0.036155
  23 H :    0.033031
  24 H :    0.026264
  25 C :   -0.041477
  26 H :    0.025151
  27 H :    0.023817
  28 C :   -0.075879
  29 H :    0.026432
  30 H :    0.023528
  31 H :    0.037651
  32 H :    0.029660
  33 H :    0.024995

  Mayer bond orders larger than 0.100000
B(  0-S ,  1-C ) :   1.1601 B(  0-S ,  4-C ) :   1.1474 B(  1-C ,  2-C ) :   1.5707
B(  1-C ,  4-C ) :   0.1041 B(  1-C , 32-H ) :   0.9694 B(  2-C ,  3-C ) :   1.2522
B(  2-C ,  6-C ) :   1.0277 B(  3-C ,  4-C ) :   1.5539 B(  3-C ,  5-H ) :   0.9886
B(  4-C , 20-C ) :   1.0161 B(  6-C ,  7-H ) :   0.9392 B(  6-C ,  8-H ) :   0.9385
B(  6-C ,  9-C ) :   1.0777 B(  9-C , 10-H ) :   0.9542 B(  9-C , 11-H ) :   0.9572
B(  9-C , 12-C ) :   1.0762 B( 12-C , 13-H ) :   0.9752 B( 12-C , 14-H ) :   0.9732
B( 12-C , 15-H ) :   0.9726 B( 16-S , 17-C ) :   1.1695 B( 16-S , 20-C ) :   1.1758
B( 17-C , 18-C ) :   1.5566 B( 17-C , 20-C ) :   0.1035 B( 17-C , 33-H ) :   0.9656
B( 18-C , 19-C ) :   1.3105 B( 18-C , 21-H ) :   0.9693 B( 19-C , 20-C ) :   1.5593
B( 19-C , 22-C ) :   1.0331 B( 22-C , 23-H ) :   0.9218 B( 22-C , 24-H ) :   0.9358
B( 22-C , 25-C ) :   1.0790 B( 25-C , 26-H ) :   0.9523 B( 25-C , 27-H ) :   0.9499
B( 25-C , 28-C ) :   1.0754 B( 28-C , 29-H ) :   0.9694 B( 28-C , 30-H ) :   0.9742
B( 28-C , 31-H ) :   0.9733

Dispersion correction           -0.014582093
FINAL SINGLE POINT ENERGY     -1339.851443987326

DIPOLE MOMENT
-------------
                                X             Y             Z
Electronic contribution:    -21.46250     -14.45369     -10.34641
Nuclear contribution   :     21.91846      15.11483      10.66505
                        -----------------------------------------
Total Dipole Moment    :      0.45596       0.66114       0.31865
                        -----------------------------------------
Magnitude (a.u.)       :      0.86403
Magnitude (Debye)      :      2.19618

Rotational constants in cm-1:     0.018082     0.008875     0.006853
Rotational constants in MHz :   542.094011   266.076443   205.459875

                             ****ORCA TERMINATED NORMALLY****
TOTAL RUN TIME: 0 days 0 hours 0 minutes 33 seconds 894 msec
