                         Program Version 4.2.1 -  RELEASE  -
|  1> ! wB97X-D3 SP def2-SVP
|  2> %pal
|  3> nprocs 16
|  4> end
|  5>
|  6> * xyz 0 1
|  7> S 	 -60.4544 	 37.2212 	 92.7061
|  8> C 	 -60.9473 	 35.5564 	 92.749
|  9> C 	 -59.858 	 34.732 	 92.8658
| 10> C 	 -58.6138 	 35.4656 	 92.8597
| 11> C 	 -58.7223 	 36.8409 	 92.5421
| 12> H 	 -57.6419 	 34.9891 	 93.058
| 13> C 	 -59.8515 	 33.3137 	 93.1545
| 14> H 	 -60.865 	 32.9286 	 93.4435
| 15> H 	 -59.1761 	 33.2307 	 94.0687
| 16> C 	 -59.396 	 32.3122 	 92.0671
| 17> H 	 -58.4849 	 32.6159 	 91.5021
| 18> H 	 -59.2431 	 31.3721 	 92.6132
| 19> C 	 -60.4296 	 32.1175 	 90.9709
| 20> H 	 -60.1757 	 31.142 	 90.47
| 21> H 	 -61.4201 	 32.0474 	 91.3732
| 22> H 	 -60.3122 	 32.9099 	 90.2004
| 23> S 	 -57.7093 	 39.3981 	 93.1661
| 24> C 	 -56.1563 	 39.8725 	 92.5378
| 25> C 	 -55.6802 	 38.8743 	 91.6397
| 26> C 	 -56.5796 	 37.7973 	 91.448
| 27> C 	 -57.6497 	 37.8245 	 92.3331
| 28> H 	 -54.7997 	 39.0574 	 91.068
| 29> C 	 -56.2414 	 36.7358 	 90.4264
| 30> H 	 -55.8601 	 37.2003 	 89.4764
| 31> H 	 -57.2492 	 36.3236 	 90.0911
| 32> C 	 -55.2962 	 35.6305 	 90.7562
| 33> H 	 -55.2651 	 35.0645 	 89.8188
| 34> H 	 -55.7194 	 34.9545 	 91.491
| 35> C 	 -53.946 	 36.1185 	 91.0172
| 36> H 	 -53.2346 	 35.3099 	 91.0169
| 37> H 	 -53.9001 	 36.5373 	 92.0293
| 38> H 	 -53.6717 	 36.8573 	 90.2693
| 39> H 	 -61.9575 	 35.3103 	 92.8305
| 40> H 	 -55.7854 	 40.9012 	 92.6967
| 41> *
| 42>
| 43>                          ****END OF INPUT****

CARTESIAN COORDINATES (ANGSTROEM)
---------------------------------
  S    -60.454400   37.221200   92.706100
  C    -60.947300   35.556400   92.749000
  C    -59.858000   34.732000   92.865800
  C    -58.613800   35.465600   92.859700
  C    -58.722300   36.840900   92.542100
  H    -57.641900   34.989100   93.058000
  C    -59.851500   33.313700   93.154500
  H    -60.865000   32.928600   93.443500
  H    -59.176100   33.230700   94.068700
  C    -59.396000   32.312200   92.067100
  H    -58.484900   32.615900   91.502100
  H    -59.243100   31.372100   92.613200
  C    -60.429600   32.117500   90.970900
  H    -60.175700   31.142000   90.470000
  H    -61.420100   32.047400   91.373200
  H    -60.312200   32.909900   90.200400
  S    -57.709300   39.398100   93.166100
  C    -56.156300   39.872500   92.537800
  C    -55.680200   38.874300   91.639700
  C    -56.579600   37.797300   91.448000
  C    -57.649700   37.824500   92.333100
  H    -54.799700   39.057400   91.068000
  C    -56.241400   36.735800   90.426400
  H    -55.860100   37.200300   89.476400
  H    -57.249200   36.323600   90.091100
  C    -55.296200   35.630500   90.756200
  H    -55.265100   35.064500   89.818800
  H    -55.719400   34.954500   91.491000
  C    -53.946000   36.118500   91.017200
  H    -53.234600   35.309900   91.016900
  H    -53.900100   36.537300   92.029300
  H    -53.671700   36.857300   90.269300
  H    -61.957500   35.310300   92.830500
  H    -55.785400   40.901200   92.696700

 Total Charge           Charge          ....    0
 Multiplicity           Mult            ....    1
 Number of Electrons    NEL             ....  134
 Basis Dimension        Dim             ....  322

ORBITAL ENERGIES
----------------

  NO   OCC          E(Eh)            E(eV)
   0   2.0000     -88.967047     -2420.9164
   1   2.0000     -88.962452     -2420.7914
   2   2.0000     -10.338023      -281.3119
   3   2.0000     -10.333031      -281.1761
   4   2.0000     -10.326046      -280.9860
   5   2.0000     -10.311249      -280.5834
   6   2.0000     -10.304409      -280.3972
   7   2.0000     -10.300761      -280.2979
   8   2.0000     -10.298178      -280.2277
   9   2.0000     -10.296164      -280.1729
  10   2.0000     -10.295978      -280.1678
  11   2.0000     -10.293537      -280.1014
  12   2.0000     -10.289364      -279.9878
  13   2.0000     -10.279420      -279.7172
  14   2.0000     -10.278726      -279.6983
  15   2.0000     -10.271573      -279.5037
  16   2.0000      -8.081472      -219.9080
  17   2.0000      -8.077173      -219.7910
  18   2.0000      -6.039913      -164.3544
  19   2.0000      -6.035964      -164.2469
  20   2.0000      -6.035799      -164.2424
  21   2.0000      -6.032382      -164.1495
  22   2.0000      -6.031693      -164.1307
  23   2.0000      -6.027794      -164.0246
  24   2.0000      -1.002220       -27.2718
  25   2.0000      -0.983851       -26.7719
  26   2.0000      -0.922916       -25.1138
  27   2.0000      -0.914299       -24.8793
  28   2.0000      -0.868297       -23.6276
  29   2.0000      -0.855650       -23.2834
  30   2.0000      -0.846379       -23.0311
  31   2.0000      -0.810757       -22.0618
  32   2.0000      -0.784188       -21.3388
  33   2.0000      -0.771798       -21.0017
  34   2.0000      -0.707912       -19.2633
  35   2.0000      -0.694194       -18.8900
  36   2.0000      -0.688844       -18.7444
  37   2.0000      -0.663712       -18.0605
  38   2.0000      -0.642279       -17.4773
  39   2.0000      -0.621305       -16.9066
  40   2.0000      -0.597602       -16.2616
  41   2.0000      -0.573618       -15.6089
  42   2.0000      -0.562113       -15.2959
  43   2.0000      -0.551971       -15.0199
  44   2.0000      -0.548472       -14.9247
  45   2.0000      -0.538823       -14.6621
  46   2.0000      -0.520314       -14.1585
  47   2.0000      -0.512386       -13.9427
  48   2.0000      -0.506899       -13.7934
  49   2.0000      -0.494948       -13.4682
  50   2.0000      -0.489057       -13.3079
  51   2.0000      -0.484242       -13.1769
  52   2.0000      -0.471409       -12.8277
  53   2.0000      -0.468228       -12.7411
  54   2.0000      -0.461708       -12.5637
  55   2.0000      -0.442632       -12.0446
  56   2.0000      -0.441005       -12.0003
  57   2.0000      -0.435538       -11.8516
  58   2.0000      -0.429911       -11.6985
  59   2.0000      -0.423167       -11.5150
  60   2.0000      -0.420731       -11.4487
  61   2.0000      -0.412480       -11.2242
  62   2.0000      -0.408700       -11.1213
  63   2.0000      -0.346522        -9.4293
  64   2.0000      -0.332989        -9.0611
  65   2.0000      -0.322612        -8.7787
  66   2.0000      -0.290459        -7.9038
  67   0.0000       0.021062         0.5731
  68   0.0000       0.067919         1.8482
  69   0.0000       0.104242         2.8366
  70   0.0000       0.113258         3.0819
  71   0.0000       0.127903         3.4804

MULLIKEN ATOMIC CHARGES
-----------------------
   0 S :    0.090979
   1 C :   -0.097423
   2 C :   -0.050757
   3 C :    0.009051
   4 C :   -0.144430
   5 H :    0.024695
   6 C :    0.005702
   7 H :    0.020687
   8 H :    0.047362
   9 C :   -0.075404
  10 H :    0.033298
  11 H :    0.034252
  12 C :   -0.060748
  13 H :    0.038337
  14 H :    0.022324
  15 H :    0.049229
  16 S :    0.103340
  17 C :   -0.111909
  18 C :   -0.024627
  19 C :   -0.018697
  20 C :   -0.152846
  21 H :    0.011438
  22 C :   -0.005729
  23 H :    0.028343
  24 H :    0.036326
  25 C :   -0.026907
  26 H :    0.021917
  27 H :    0.018919
  28 C :   -0.021594
  29 H :    0.025599
  30 H :    0.039599
  31 H :    0.021149
  32 H :    0.029286
  33 H :    0.079240
Sum of atomic charges:    0.0000000

LOEWDIN ATOMIC CHARGES
----------------------
   0 S :    0.391841
   1 C :   -0.182945
   2 C :   -0.075964
   3 C :   -0.057659
   4 C :   -0.184603
   5 H :    0.031064
   6 C :   -0.043207
   7 H :    0.031293
   8 H :    0.043719
   9 C :   -0.044740
  10 H :    0.026954
  11 H :    0.025517
  12 C :   -0.068041
  13 H :    0.033409
  14 H :    0.015916
  15 H :    0.031483
  16 S :    0.401213
  17 C :   -0.190050
  18 C :   -0.068689
  19 C :   -0.056179
  20 C :   -0.193274
  21 H :    0.025826
  22 C :   -0.039975
  23 H :    0.034343
  24 H :    0.038000
  25 C :   -0.044293
  26 H :    0.028809
  27 H :    0.019719
  28 C :   -0.061285
  29 H :    0.024439
  30 H :    0.029708
  31 H :    0.023756
  32 H :    0.017470
  33 H :    0.036424

  Mayer bond orders larger than 0.100000
B(  0-S ,  1-C ) :   1.1416 B(  0-S ,  4-C ) :   1.1405 B(  1-C ,  2-C ) :   1.5805
B(  1-C , 32-H ) :   0.9825 B(  2-C ,  3-C ) :   1.2418 B(  2-C ,  6-C ) :   1.0414
B(  3-C ,  4-C ) :   1.5484 B(  3-C ,  5-H ) :   0.9870 B(  4-C , 20-C ) :   1.0712
B(  6-C ,  7-H ) :   0.9426 B(  6-C ,  8-H ) :   0.9359 B(  6-C ,  9-C ) :   1.0674
B(  9-C , 10-H ) :   0.9577 B(  9-C , 11-H ) :   0.9564 B(  9-C , 12-C ) :   1.0739
B( 12-C , 13-H ) :   0.9732 B( 12-C , 14-H ) :   0.9754 B( 12-C , 15-H ) :   0.9776
B( 16-S , 17-C ) :   1.1776 B( 16-S , 20-C ) :   1.1358 B( 17-C , 18-C ) :   1.5533
B( 17-C , 20-C ) :   0.1071 B( 17-C , 33-H ) :   0.9655 B( 18-C , 19-C ) :   1.2699
B( 18-C , 21-H ) :   0.9931 B( 19-C , 20-C ) :   1.5653 B( 19-C , 22-C ) :   1.0444
B( 22-C , 23-H ) :   0.9375 B( 22-C , 24-H ) :   0.9244 B( 22-C , 25-C ) :   1.0918
B( 25-C , 26-H ) :   0.9420 B( 25-C , 27-H ) :   0.9459 B( 25-C , 28-C ) :   1.0981
B( 28-C , 29-H ) :   0.9665 B( 28-C , 30-H ) :   0.9660 B( 28-C , 31-H ) :   0.9660

Dispersion correction           -0.014592936
FINAL SINGLE POINT ENERGY     -1339.877760836424

DIPOLE MOMENT
-------------
                                X             Y             Z
Electronic contribution:    -10.28394      25.63744      10.73681
Nuclear contribution   :     10.64113     -26.18805     -10.96126
                        -----------------------------------------
Total Dipole Moment    :      0.35719      -0.55062      -0.22445
                        -----------------------------------------
Magnitude (a.u.)       :      0.69364
Magnitude (Debye)      :      1.76310

Rotational constants in cm-1:     0.018948     0.009247     0.006639
Rotational constants in MHz :   568.047479   277.219876   199.026053

                             ****ORCA TERMINATED NORMALLY****
TOTAL RUN TIME: 0 days 0 hours 0 minutes 30 seconds 454 msec
