                         Program Version 4.2.1 -  RELEASE  -
|  1> ! wB97X-D3 SP def2-SVP
|  2> %pal
|  3> nprocs 16
|  4> end
|  5>
|  6> * xyz 0 1
|  7> S 	 -12.6619 	 38.0254 	 39.8994
|  8> C 	 -11.9713 	 39.5146 	 39.4217
|  9> C 	 -11.5062 	 39.4179 	 38.1549
| 10> C 	 -11.6496 	 38.0726 	 37.6067
| 11> C 	 -12.1837 	 37.169 	 38.4647
| 12> H 	 -11.3322 	 37.6874 	 36.6114
| 13> C 	 -10.9655 	 40.6213 	 37.3295
| 14> H 	 -9.82631 	 40.5882 	 37.4498
| 15> H 	 -11.331 	 41.5716 	 37.595
| 16> C 	 -11.1949 	 40.5685 	 35.7859
| 17> H 	 -11.1007 	 39.6381 	 35.3345
| 18> H 	 -12.2634 	 40.6426 	 35.6041
| 19> C 	 -10.4109 	 41.6497 	 35.0479
| 20> H 	 -10.6245 	 42.5454 	 35.5471
| 21> H 	 -9.32271 	 41.5906 	 35.0486
| 22> H 	 -10.7265 	 41.7012 	 33.9701
| 23> S 	 -12.2971 	 34.5541 	 39.3516
| 24> C 	 -12.9555 	 33.3044 	 38.3589
| 25> C 	 -13.1969 	 33.7596 	 37.119
| 26> C 	 -13.0166 	 35.174 	 37.0092
| 27> C 	 -12.6277 	 35.8139 	 38.1595
| 28> H 	 -13.4416 	 33.0379 	 36.3304
| 29> C 	 -13.3006 	 35.8339 	 35.6442
| 30> H 	 -12.3815 	 35.8115 	 34.961
| 31> H 	 -13.4718 	 36.9094 	 35.8297
| 32> C 	 -14.6192 	 35.3162 	 34.8875
| 33> H 	 -15.4328 	 35.256 	 35.5957
| 34> H 	 -14.3945 	 34.2854 	 34.4967
| 35> C 	 -15.0975 	 36.2199 	 33.6709
| 36> H 	 -14.3877 	 36.2963 	 32.8784
| 37> H 	 -15.1976 	 37.1997 	 34.149
| 38> H 	 -16.0785 	 35.9244 	 33.2486
| 39> H 	 -11.9412 	 40.444 	 39.965
| 40> H 	 -12.7929 	 32.2333 	 38.5524
| 41> *
| 42>
| 43>                          ****END OF INPUT****

CARTESIAN COORDINATES (ANGSTROEM)
---------------------------------
  S    -12.661900   38.025400   39.899400
  C    -11.971300   39.514600   39.421700
  C    -11.506200   39.417900   38.154900
  C    -11.649600   38.072600   37.606700
  C    -12.183700   37.169000   38.464700
  H    -11.332200   37.687400   36.611400
  C    -10.965500   40.621300   37.329500
  H     -9.826310   40.588200   37.449800
  H    -11.331000   41.571600   37.595000
  C    -11.194900   40.568500   35.785900
  H    -11.100700   39.638100   35.334500
  H    -12.263400   40.642600   35.604100
  C    -10.410900   41.649700   35.047900
  H    -10.624500   42.545400   35.547100
  H     -9.322710   41.590600   35.048600
  H    -10.726500   41.701200   33.970100
  S    -12.297100   34.554100   39.351600
  C    -12.955500   33.304400   38.358900
  C    -13.196900   33.759600   37.119000
  C    -13.016600   35.174000   37.009200
  C    -12.627700   35.813900   38.159500
  H    -13.441600   33.037900   36.330400
  C    -13.300600   35.833900   35.644200
  H    -12.381500   35.811500   34.961000
  H    -13.471800   36.909400   35.829700
  C    -14.619200   35.316200   34.887500
  H    -15.432800   35.256000   35.595700
  H    -14.394500   34.285400   34.496700
  C    -15.097500   36.219900   33.670900
  H    -14.387700   36.296300   32.878400
  H    -15.197600   37.199700   34.149000
  H    -16.078500   35.924400   33.248600
  H    -11.941200   40.444000   39.965000
  H    -12.792900   32.233300   38.552400

 Total Charge           Charge          ....    0
 Multiplicity           Mult            ....    1
 Number of Electrons    NEL             ....  134
 Basis Dimension        Dim             ....  322

ORBITAL ENERGIES
----------------

  NO   OCC          E(Eh)            E(eV)
   0   2.0000     -88.962563     -2420.7944
   1   2.0000     -88.961206     -2420.7575
   2   2.0000     -10.330993      -281.1206
   3   2.0000     -10.328681      -281.0577
   4   2.0000     -10.314015      -280.6586
   5   2.0000     -10.310780      -280.5706
   6   2.0000     -10.307866      -280.4913
   7   2.0000     -10.305061      -280.4150
   8   2.0000     -10.304640      -280.4035
   9   2.0000     -10.299897      -280.2745
  10   2.0000     -10.298287      -280.2306
  11   2.0000     -10.298131      -280.2264
  12   2.0000     -10.291778      -280.0535
  13   2.0000     -10.283674      -279.8330
  14   2.0000     -10.281817      -279.7825
  15   2.0000     -10.279281      -279.7135
  16   2.0000      -8.078481      -219.8267
  17   2.0000      -8.076650      -219.7768
  18   2.0000      -6.037111      -164.2781
  19   2.0000      -6.035237      -164.2272
  20   2.0000      -6.032721      -164.1587
  21   2.0000      -6.031058      -164.1134
  22   2.0000      -6.029105      -164.0603
  23   2.0000      -6.027250      -164.0098
  24   2.0000      -1.014987       -27.6192
  25   2.0000      -0.994196       -27.0535
  26   2.0000      -0.909650       -24.7528
  27   2.0000      -0.895098       -24.3569
  28   2.0000      -0.880302       -23.9542
  29   2.0000      -0.847940       -23.0736
  30   2.0000      -0.841255       -22.8917
  31   2.0000      -0.823356       -22.4047
  32   2.0000      -0.779271       -21.2050
  33   2.0000      -0.771337       -20.9891
  34   2.0000      -0.716636       -19.5007
  35   2.0000      -0.700043       -19.0491
  36   2.0000      -0.697330       -18.9753
  37   2.0000      -0.656955       -17.8767
  38   2.0000      -0.644297       -17.5322
  39   2.0000      -0.620265       -16.8783
  40   2.0000      -0.594863       -16.1870
  41   2.0000      -0.576680       -15.6923
  42   2.0000      -0.560629       -15.2555
  43   2.0000      -0.558252       -15.1908
  44   2.0000      -0.529035       -14.3958
  45   2.0000      -0.519712       -14.1421
  46   2.0000      -0.518063       -14.0972
  47   2.0000      -0.513289       -13.9673
  48   2.0000      -0.504960       -13.7407
  49   2.0000      -0.498718       -13.5708
  50   2.0000      -0.497744       -13.5443
  51   2.0000      -0.485440       -13.2095
  52   2.0000      -0.471712       -12.8359
  53   2.0000      -0.464743       -12.6463
  54   2.0000      -0.459903       -12.5146
  55   2.0000      -0.451727       -12.2921
  56   2.0000      -0.448992       -12.2177
  57   2.0000      -0.437907       -11.9161
  58   2.0000      -0.434971       -11.8362
  59   2.0000      -0.421423       -11.4675
  60   2.0000      -0.416258       -11.3269
  61   2.0000      -0.413265       -11.2455
  62   2.0000      -0.409292       -11.1374
  63   2.0000      -0.360174        -9.8008
  64   2.0000      -0.329764        -8.9733
  65   2.0000      -0.327190        -8.9033
  66   2.0000      -0.300049        -8.1648
  67   0.0000       0.030286         0.8241
  68   0.0000       0.077904         2.1199
  69   0.0000       0.115018         3.1298
  70   0.0000       0.122148         3.3238
  71   0.0000       0.133676         3.6375

MULLIKEN ATOMIC CHARGES
-----------------------
   0 S :    0.107397
   1 C :   -0.102893
   2 C :   -0.074943
   3 C :   -0.028149
   4 C :   -0.106357
   5 H :    0.029223
   6 C :    0.052794
   7 H :    0.050607
   8 H :    0.017650
   9 C :   -0.064958
  10 H :    0.002861
  11 H :    0.018437
  12 C :   -0.038047
  13 H :    0.013215
  14 H :    0.033151
  15 H :    0.041662
  16 S :    0.085451
  17 C :   -0.073624
  18 C :   -0.052480
  19 C :   -0.045116
  20 C :   -0.128468
  21 H :    0.031006
  22 C :   -0.004580
  23 H :    0.056704
  24 H :    0.030132
  25 C :   -0.102875
  26 H :    0.042194
  27 H :    0.037864
  28 C :   -0.046825
  29 H :    0.030468
  30 H :    0.030175
  31 H :    0.045333
  32 H :    0.043666
  33 H :    0.069326
Sum of atomic charges:   -0.0000000

LOEWDIN ATOMIC CHARGES
----------------------
   0 S :    0.422371
   1 C :   -0.203037
   2 C :   -0.066854
   3 C :   -0.070189
   4 C :   -0.200296
   5 H :    0.036679
   6 C :   -0.025620
   7 H :    0.041209
   8 H :    0.020263
   9 C :   -0.044213
  10 H :    0.009598
  11 H :    0.025882
  12 C :   -0.060978
  13 H :    0.016459
  14 H :    0.025355
  15 H :    0.035314
  16 S :    0.403461
  17 C :   -0.189815
  18 C :   -0.077350
  19 C :   -0.058306
  20 C :   -0.191132
  21 H :    0.038149
  22 C :   -0.043202
  23 H :    0.037782
  24 H :    0.027365
  25 C :   -0.038441
  26 H :    0.024466
  27 H :    0.021074
  28 C :   -0.064919
  29 H :    0.018649
  30 H :    0.026202
  31 H :    0.031648
  32 H :    0.034044
  33 H :    0.038384

  Mayer bond orders larger than 0.100000
B(  0-S ,  1-C ) :   1.1351 B(  0-S ,  4-C ) :   1.1506 B(  1-C ,  2-C ) :   1.6340
B(  1-C , 32-H ) :   0.9733 B(  2-C ,  3-C ) :   1.2204 B(  2-C ,  6-C ) :   1.0050
B(  3-C ,  4-C ) :   1.6022 B(  3-C ,  5-H ) :   0.9892 B(  4-C , 20-C ) :   1.0209
B(  6-C ,  7-H ) :   0.9437 B(  6-C ,  8-H ) :   0.9545 B(  6-C ,  9-C ) :   1.0557
B(  9-C , 10-H ) :   0.9508 B(  9-C , 11-H ) :   0.9513 B(  9-C , 12-C ) :   1.0807
B( 12-C , 13-H ) :   0.9747 B( 12-C , 14-H ) :   0.9768 B( 12-C , 15-H ) :   0.9718
B( 16-S , 17-C ) :   1.1584 B( 16-S , 20-C ) :   1.1289 B( 17-C , 18-C ) :   1.6271
B( 17-C , 33-H ) :   0.9564 B( 18-C , 19-C ) :   1.2347 B( 18-C , 21-H ) :   0.9893
B( 19-C , 20-C ) :   1.6214 B( 19-C , 22-C ) :   1.0324 B( 22-C , 23-H ) :   0.9348
B( 22-C , 24-H ) :   0.9428 B( 22-C , 25-C ) :   1.0484 B( 25-C , 26-H ) :   0.9635
B( 25-C , 27-H ) :   0.9528 B( 25-C , 28-C ) :   1.0731 B( 28-C , 29-H ) :   0.9789
B( 28-C , 30-H ) :   0.9765 B( 28-C , 31-H ) :   0.9763

Dispersion correction           -0.013490867
FINAL SINGLE POINT ENERGY     -1339.870048173434

DIPOLE MOMENT
-------------
                                X             Y             Z
Electronic contribution:      1.30869     -14.43336      29.45544
Nuclear contribution   :     -1.24654      14.63474     -30.25868
                        -----------------------------------------
Total Dipole Moment    :      0.06214       0.20138      -0.80324
                        -----------------------------------------
Magnitude (a.u.)       :      0.83043
Magnitude (Debye)      :      2.11077

Rotational constants in cm-1:     0.015836     0.009078     0.006310
Rotational constants in MHz :   474.740809   272.139915   189.160800

                             ****ORCA TERMINATED NORMALLY****
TOTAL RUN TIME: 0 days 0 hours 0 minutes 32 seconds 845 msec
