                         Program Version 4.2.1 -  RELEASE  -
|  1> ! wB97X-D3 SP def2-SVP
|  2> %pal
|  3> nprocs 16
|  4> end
|  5>
|  6> * xyz 0 1
|  7> S 	 -28.9178 	 60.8732 	 105.185
|  8> C 	 -28.059 	 62.0795 	 104.258
|  9> C 	 -28.6745 	 63.2845 	 104.269
| 10> C 	 -29.8033 	 63.3563 	 105.237
| 11> C 	 -30.0087 	 62.1011 	 105.89
| 12> H 	 -30.4261 	 64.154 	 105.582
| 13> C 	 -28.2574 	 64.4583 	 103.419
| 14> H 	 -27.6834 	 63.9757 	 102.647
| 15> H 	 -27.628 	 65.1004 	 104.069
| 16> C 	 -29.3243 	 65.3505 	 102.666
| 17> H 	 -29.9344 	 64.5882 	 102.096
| 18> H 	 -29.9278 	 65.9413 	 103.33
| 19> C 	 -28.7002 	 66.4062 	 101.754
| 20> H 	 -27.8406 	 66.9051 	 102.211
| 21> H 	 -28.2855 	 66.1552 	 100.761
| 22> H 	 -29.3688 	 67.2499 	 101.502
| 23> S 	 -30.4239 	 62.6549 	 108.572
| 24> C 	 -31.9327 	 62.0263 	 109.223
| 25> C 	 -32.6161 	 61.2126 	 108.351
| 26> C 	 -31.9237 	 60.9694 	 107.114
| 27> C 	 -30.845 	 61.8651 	 107.074
| 28> H 	 -33.5155 	 60.7455 	 108.627
| 29> C 	 -32.664 	 60.2991 	 105.925
| 30> H 	 -32.6549 	 60.9327 	 105.012
| 31> H 	 -33.6668 	 60.1451 	 106.213
| 32> C 	 -32.0865 	 58.9316 	 105.402
| 33> H 	 -32.3522 	 58.0681 	 106.08
| 34> H 	 -31.0103 	 58.9616 	 105.314
| 35> C 	 -32.5575 	 58.6395 	 103.997
| 36> H 	 -31.9454 	 57.8076 	 103.511
| 37> H 	 -32.4958 	 59.4519 	 103.288
| 38> H 	 -33.6211 	 58.2522 	 103.997
| 39> H 	 -27.2498 	 61.7587 	 103.63
| 40> H 	 -32.256 	 62.3526 	 110.157
| 41> *
| 42>
| 43>                          ****END OF INPUT****

CARTESIAN COORDINATES (ANGSTROEM)
---------------------------------
  S    -28.917800   60.873200  105.185000
  C    -28.059000   62.079500  104.258000
  C    -28.674500   63.284500  104.269000
  C    -29.803300   63.356300  105.237000
  C    -30.008700   62.101100  105.890000
  H    -30.426100   64.154000  105.582000
  C    -28.257400   64.458300  103.419000
  H    -27.683400   63.975700  102.647000
  H    -27.628000   65.100400  104.069000
  C    -29.324300   65.350500  102.666000
  H    -29.934400   64.588200  102.096000
  H    -29.927800   65.941300  103.330000
  C    -28.700200   66.406200  101.754000
  H    -27.840600   66.905100  102.211000
  H    -28.285500   66.155200  100.761000
  H    -29.368800   67.249900  101.502000
  S    -30.423900   62.654900  108.572000
  C    -31.932700   62.026300  109.223000
  C    -32.616100   61.212600  108.351000
  C    -31.923700   60.969400  107.114000
  C    -30.845000   61.865100  107.074000
  H    -33.515500   60.745500  108.627000
  C    -32.664000   60.299100  105.925000
  H    -32.654900   60.932700  105.012000
  H    -33.666800   60.145100  106.213000
  C    -32.086500   58.931600  105.402000
  H    -32.352200   58.068100  106.080000
  H    -31.010300   58.961600  105.314000
  C    -32.557500   58.639500  103.997000
  H    -31.945400   57.807600  103.511000
  H    -32.495800   59.451900  103.288000
  H    -33.621100   58.252200  103.997000
  H    -27.249800   61.758700  103.630000
  H    -32.256000   62.352600  110.157000

 Total Charge           Charge          ....    0
 Multiplicity           Mult            ....    1
 Number of Electrons    NEL             ....  134
 Basis Dimension        Dim             ....  322

ORBITAL ENERGIES
----------------

  NO   OCC          E(Eh)            E(eV)
   0   2.0000     -88.970805     -2421.0187
   1   2.0000     -88.962260     -2420.7862
   2   2.0000     -10.332370      -281.1581
   3   2.0000     -10.327711      -281.0313
   4   2.0000     -10.312290      -280.6117
   5   2.0000     -10.311719      -280.5961
   6   2.0000     -10.306213      -280.4463
   7   2.0000     -10.305891      -280.4376
   8   2.0000     -10.301914      -280.3293
   9   2.0000     -10.297476      -280.2086
  10   2.0000     -10.295933      -280.1666
  11   2.0000     -10.294475      -280.1269
  12   2.0000     -10.291943      -280.0580
  13   2.0000     -10.285708      -279.8883
  14   2.0000     -10.282048      -279.7888
  15   2.0000     -10.280019      -279.7335
  16   2.0000      -8.085446      -220.0162
  17   2.0000      -8.076327      -219.7680
  18   2.0000      -6.043804      -164.4603
  19   2.0000      -6.040131      -164.3603
  20   2.0000      -6.036205      -164.2535
  21   2.0000      -6.034877      -164.2174
  22   2.0000      -6.031000      -164.1118
  23   2.0000      -6.027020      -164.0036
  24   2.0000      -1.000732       -27.2313
  25   2.0000      -0.978146       -26.6167
  26   2.0000      -0.904838       -24.6219
  27   2.0000      -0.902060       -24.5463
  28   2.0000      -0.867984       -23.6190
  29   2.0000      -0.853265       -23.2185
  30   2.0000      -0.843130       -22.9427
  31   2.0000      -0.811142       -22.0723
  32   2.0000      -0.779907       -21.2224
  33   2.0000      -0.767567       -20.8866
  34   2.0000      -0.708169       -19.2702
  35   2.0000      -0.693145       -18.8614
  36   2.0000      -0.686893       -18.6913
  37   2.0000      -0.666620       -18.1396
  38   2.0000      -0.644698       -17.5431
  39   2.0000      -0.607282       -16.5250
  40   2.0000      -0.598554       -16.2875
  41   2.0000      -0.571502       -15.5514
  42   2.0000      -0.564455       -15.3596
  43   2.0000      -0.556797       -15.1512
  44   2.0000      -0.521674       -14.1955
  45   2.0000      -0.517294       -14.0763
  46   2.0000      -0.512498       -13.9458
  47   2.0000      -0.508588       -13.8394
  48   2.0000      -0.501679       -13.6514
  49   2.0000      -0.495995       -13.4967
  50   2.0000      -0.489812       -13.3285
  51   2.0000      -0.476281       -12.9603
  52   2.0000      -0.474649       -12.9159
  53   2.0000      -0.467938       -12.7332
  54   2.0000      -0.453286       -12.3345
  55   2.0000      -0.450464       -12.2577
  56   2.0000      -0.444240       -12.0884
  57   2.0000      -0.433868       -11.8062
  58   2.0000      -0.427650       -11.6369
  59   2.0000      -0.425419       -11.5762
  60   2.0000      -0.421186       -11.4611
  61   2.0000      -0.414884       -11.2896
  62   2.0000      -0.411196       -11.1892
  63   2.0000      -0.337808        -9.1922
  64   2.0000      -0.333410        -9.0725
  65   2.0000      -0.323692        -8.8081
  66   2.0000      -0.297242        -8.0884
  67   0.0000       0.031797         0.8652
  68   0.0000       0.061297         1.6680
  69   0.0000       0.100910         2.7459
  70   0.0000       0.112022         3.0483
  71   0.0000       0.132892         3.6162

MULLIKEN ATOMIC CHARGES
-----------------------
   0 S :    0.091630
   1 C :   -0.125736
   2 C :   -0.069508
   3 C :    0.037439
   4 C :   -0.168385
   5 H :    0.011779
   6 C :    0.048886
   7 H :    0.018311
   8 H :    0.047273
   9 C :   -0.055038
  10 H :    0.047121
  11 H :    0.033371
  12 C :   -0.078655
  13 H :    0.022319
  14 H :    0.030295
  15 H :    0.034229
  16 S :    0.132644
  17 C :   -0.075300
  18 C :   -0.007910
  19 C :    0.014630
  20 C :   -0.183334
  21 H :    0.002089
  22 C :    0.046954
  23 H :    0.041893
  24 H :    0.015213
  25 C :   -0.072332
  26 H :    0.040013
  27 H :    0.028457
  28 C :   -0.093746
  29 H :    0.039434
  30 H :    0.033156
  31 H :    0.034630
  32 H :    0.047521
  33 H :    0.030659
Sum of atomic charges:   -0.0000000

LOEWDIN ATOMIC CHARGES
----------------------
   0 S :    0.389153
   1 C :   -0.192664
   2 C :   -0.064508
   3 C :   -0.058044
   4 C :   -0.183069
   5 H :    0.028517
   6 C :   -0.034901
   7 H :    0.028304
   8 H :    0.035551
   9 C :   -0.037896
  10 H :    0.034697
  11 H :    0.023258
  12 C :   -0.079877
  13 H :    0.025763
  14 H :    0.025371
  15 H :    0.030371
  16 S :    0.412983
  17 C :   -0.173126
  18 C :   -0.055625
  19 C :   -0.052553
  20 C :   -0.200162
  21 H :    0.023153
  22 C :   -0.023212
  23 H :    0.038430
  24 H :    0.023601
  25 C :   -0.047129
  26 H :    0.030122
  27 H :    0.011797
  28 C :   -0.076312
  29 H :    0.033478
  30 H :    0.020197
  31 H :    0.026820
  32 H :    0.025701
  33 H :    0.011812

  Mayer bond orders larger than 0.100000
B(  0-S ,  1-C ) :   1.1254 B(  0-S ,  4-C ) :   1.1361 B(  1-C ,  2-C ) :   1.6509
B(  1-C , 32-H ) :   0.9695 B(  2-C ,  3-C ) :   1.1674 B(  2-C ,  6-C ) :   1.0252
B(  3-C ,  4-C ) :   1.6026 B(  3-C ,  5-H ) :   0.9979 B(  4-C , 20-C ) :   1.0387
B(  6-C ,  7-H ) :   0.9479 B(  6-C ,  8-H ) :   0.9320 B(  6-C ,  9-C ) :   1.0659
B(  9-C , 10-H ) :   0.9598 B(  9-C , 11-H ) :   0.9524 B(  9-C , 12-C ) :   1.0731
B( 12-C , 13-H ) :   0.9720 B( 12-C , 14-H ) :   0.9761 B( 12-C , 15-H ) :   0.9770
B( 16-S , 17-C ) :   1.1336 B( 16-S , 20-C ) :   1.1628 B( 17-C , 18-C ) :   1.6270
B( 17-C , 33-H ) :   0.9767 B( 18-C , 19-C ) :   1.2278 B( 18-C , 21-H ) :   0.9922
B( 19-C , 20-C ) :   1.5741 B( 19-C , 22-C ) :   1.0378 B( 22-C , 23-H ) :   0.9451
B( 22-C , 24-H ) :   0.9450 B( 22-C , 25-C ) :   1.0432 B( 25-C , 26-H ) :   0.9522
B( 25-C , 27-H ) :   0.9579 B( 25-C , 28-C ) :   1.0842 B( 28-C , 29-H ) :   0.9743
B( 28-C , 30-H ) :   0.9734 B( 28-C , 31-H ) :   0.9748

Dispersion correction           -0.013969745
FINAL SINGLE POINT ENERGY     -1339.865858110126

DIPOLE MOMENT
-------------
                                X             Y             Z
Electronic contribution:      5.50923      -4.02330      22.03927
Nuclear contribution   :     -5.74690       4.32265     -22.32139
                        -----------------------------------------
Total Dipole Moment    :     -0.23767       0.29935      -0.28212
                        -----------------------------------------
Magnitude (a.u.)       :      0.47507
Magnitude (Debye)      :      1.20754

Rotational constants in cm-1:     0.017810     0.008047     0.006637
Rotational constants in MHz :   533.923018   241.242282   198.975603

                             ****ORCA TERMINATED NORMALLY****
TOTAL RUN TIME: 0 days 0 hours 0 minutes 28 seconds 261 msec
