                         Program Version 4.2.1 -  RELEASE  -
|  1> ! wB97X-D3 SP def2-SVP
|  2> %pal
|  3> nprocs 16
|  4> end
|  5>
|  6> * xyz 0 1
|  7> S 	 -5.12777 	 44.317 	 44.6935
|  8> C 	 -3.73297 	 43.4836 	 43.9871
|  9> C 	 -2.53327 	 44.0177 	 44.4122
| 10> C 	 -2.73038 	 44.9461 	 45.4428
| 11> C 	 -4.09676 	 45.1135 	 45.7988
| 12> H 	 -1.98719 	 45.3886 	 46.0361
| 13> C 	 -1.15645 	 43.5189 	 43.9973
| 14> H 	 -1.35111 	 42.6589 	 43.3919
| 15> H 	 -0.667338 	 43.326 	 44.8789
| 16> C 	 -0.34693 	 44.5945 	 43.285
| 17> H 	 -0.13453 	 45.596 	 43.8021
| 18> H 	 0.549559 	 44.0193 	 43.0411
| 19> C 	 -0.984646 	 45.0087 	 41.9377
| 20> H 	 -1.22159 	 44.1402 	 41.2806
| 21> H 	 -1.92926 	 45.6583 	 42.0183
| 22> H 	 -0.188863 	 45.4692 	 41.282
| 23> S 	 -5.76508 	 47.2717 	 46.2568
| 24> C 	 -5.90159 	 47.8241 	 47.9418
| 25> C 	 -5.18799 	 47.0316 	 48.8724
| 26> C 	 -4.42676 	 46.0254 	 48.1488
| 27> C 	 -4.55624 	 46.0763 	 46.777
| 28> H 	 -5.17816 	 47.2253 	 49.9366
| 29> C 	 -3.61551 	 45.0076 	 48.9278
| 30> H 	 -3.3031 	 45.5858 	 49.8156
| 31> H 	 -2.70459 	 44.8144 	 48.336
| 32> C 	 -4.41637 	 43.7155 	 49.385
| 33> H 	 -4.95725 	 43.2945 	 48.5568
| 34> H 	 -5.1726 	 44.1086 	 50.1012
| 35> C 	 -3.41506 	 42.6507 	 49.9288
| 36> H 	 -3.93586 	 41.7208 	 50.1731
| 37> H 	 -2.92471 	 42.89 	 50.862
| 38> H 	 -2.67764 	 42.31 	 49.316
| 39> H 	 -3.6963 	 42.8607 	 43.0537
| 40> H 	 -6.43628 	 48.7254 	 48.1453
| 41> *
| 42>
| 43>                          ****END OF INPUT****

CARTESIAN COORDINATES (ANGSTROEM)
---------------------------------
  S     -5.127770   44.317000   44.693500
  C     -3.732970   43.483600   43.987100
  C     -2.533270   44.017700   44.412200
  C     -2.730380   44.946100   45.442800
  C     -4.096760   45.113500   45.798800
  H     -1.987190   45.388600   46.036100
  C     -1.156450   43.518900   43.997300
  H     -1.351110   42.658900   43.391900
  H     -0.667338   43.326000   44.878900
  C     -0.346930   44.594500   43.285000
  H     -0.134530   45.596000   43.802100
  H      0.549559   44.019300   43.041100
  C     -0.984646   45.008700   41.937700
  H     -1.221590   44.140200   41.280600
  H     -1.929260   45.658300   42.018300
  H     -0.188863   45.469200   41.282000
  S     -5.765080   47.271700   46.256800
  C     -5.901590   47.824100   47.941800
  C     -5.187990   47.031600   48.872400
  C     -4.426760   46.025400   48.148800
  C     -4.556240   46.076300   46.777000
  H     -5.178160   47.225300   49.936600
  C     -3.615510   45.007600   48.927800
  H     -3.303100   45.585800   49.815600
  H     -2.704590   44.814400   48.336000
  C     -4.416370   43.715500   49.385000
  H     -4.957250   43.294500   48.556800
  H     -5.172600   44.108600   50.101200
  C     -3.415060   42.650700   49.928800
  H     -3.935860   41.720800   50.173100
  H     -2.924710   42.890000   50.862000
  H     -2.677640   42.310000   49.316000
  H     -3.696300   42.860700   43.053700
  H     -6.436280   48.725400   48.145300

 Total Charge           Charge          ....    0
 Multiplicity           Mult            ....    1
 Number of Electrons    NEL             ....  134
 Basis Dimension        Dim             ....  322

ORBITAL ENERGIES
----------------

  NO   OCC          E(Eh)            E(eV)
   0   2.0000     -88.970088     -2420.9992
   1   2.0000     -88.966362     -2420.8978
   2   2.0000     -10.326297      -280.9928
   3   2.0000     -10.323599      -280.9194
   4   2.0000     -10.323227      -280.9093
   5   2.0000     -10.311995      -280.6037
   6   2.0000     -10.303126      -280.3623
   7   2.0000     -10.302351      -280.3412
   8   2.0000     -10.295078      -280.1433
   9   2.0000     -10.294096      -280.1166
  10   2.0000     -10.293958      -280.1128
  11   2.0000     -10.292666      -280.0777
  12   2.0000     -10.286339      -279.9055
  13   2.0000     -10.286247      -279.9030
  14   2.0000     -10.286200      -279.9017
  15   2.0000     -10.270259      -279.4680
  16   2.0000      -8.084698      -219.9958
  17   2.0000      -8.080400      -219.8789
  18   2.0000      -6.043082      -164.4406
  19   2.0000      -6.039272      -164.3369
  20   2.0000      -6.038849      -164.3254
  21   2.0000      -6.035551      -164.2357
  22   2.0000      -6.035201      -164.2262
  23   2.0000      -6.031077      -164.1140
  24   2.0000      -1.004996       -27.3473
  25   2.0000      -0.978080       -26.6149
  26   2.0000      -0.917247       -24.9595
  27   2.0000      -0.898257       -24.4428
  28   2.0000      -0.864253       -23.5175
  29   2.0000      -0.849485       -23.1157
  30   2.0000      -0.843641       -22.9566
  31   2.0000      -0.806985       -21.9592
  32   2.0000      -0.784215       -21.3396
  33   2.0000      -0.771452       -20.9923
  34   2.0000      -0.711355       -19.3570
  35   2.0000      -0.696921       -18.9642
  36   2.0000      -0.688723       -18.7411
  37   2.0000      -0.665945       -18.1213
  38   2.0000      -0.634140       -17.2558
  39   2.0000      -0.618032       -16.8175
  40   2.0000      -0.587441       -15.9851
  41   2.0000      -0.569122       -15.4866
  42   2.0000      -0.558825       -15.2064
  43   2.0000      -0.553806       -15.0698
  44   2.0000      -0.541151       -14.7255
  45   2.0000      -0.523308       -14.2399
  46   2.0000      -0.515201       -14.0193
  47   2.0000      -0.507775       -13.8173
  48   2.0000      -0.501260       -13.6400
  49   2.0000      -0.490978       -13.3602
  50   2.0000      -0.483401       -13.1540
  51   2.0000      -0.479740       -13.0544
  52   2.0000      -0.471390       -12.8272
  53   2.0000      -0.463379       -12.6092
  54   2.0000      -0.456167       -12.4129
  55   2.0000      -0.450613       -12.2618
  56   2.0000      -0.440163       -11.9775
  57   2.0000      -0.434631       -11.8269
  58   2.0000      -0.431180       -11.7330
  59   2.0000      -0.428702       -11.6656
  60   2.0000      -0.424829       -11.5602
  61   2.0000      -0.414805       -11.2874
  62   2.0000      -0.411967       -11.2102
  63   2.0000      -0.338960        -9.2236
  64   2.0000      -0.333116        -9.0645
  65   2.0000      -0.329980        -8.9792
  66   2.0000      -0.287958        -7.8357
  67   0.0000       0.030861         0.8398
  68   0.0000       0.058984         1.6050
  69   0.0000       0.105371         2.8673
  70   0.0000       0.120503         3.2791
  71   0.0000       0.130904         3.5621

MULLIKEN ATOMIC CHARGES
-----------------------
   0 S :    0.122721
   1 C :   -0.138000
   2 C :   -0.112989
   3 C :    0.032550
   4 C :   -0.153343
   5 H :   -0.007212
   6 C :    0.155006
   7 H :    0.012905
   8 H :    0.013322
   9 C :   -0.096553
  10 H :    0.061880
  11 H :    0.032919
  12 C :   -0.115364
  13 H :    0.020706
  14 H :    0.068826
  15 H :    0.037920
  16 S :    0.092125
  17 C :   -0.097539
  18 C :   -0.013276
  19 C :   -0.075880
  20 C :   -0.149612
  21 H :    0.027295
  22 C :    0.054914
  23 H :    0.022686
  24 H :    0.019277
  25 C :   -0.045422
  26 H :    0.038331
  27 H :    0.035822
  28 C :   -0.012316
  29 H :    0.021810
  30 H :    0.020406
  31 H :    0.013344
  32 H :    0.057415
  33 H :    0.055323
Sum of atomic charges:    0.0000000

LOEWDIN ATOMIC CHARGES
----------------------
   0 S :    0.420961
   1 C :   -0.217506
   2 C :   -0.061045
   3 C :   -0.060485
   4 C :   -0.203432
   5 H :    0.018623
   6 C :   -0.014746
   7 H :    0.029379
   8 H :    0.022870
   9 C :   -0.047000
  10 H :    0.039480
  11 H :    0.028150
  12 C :   -0.087322
  13 H :    0.021362
  14 H :    0.037394
  15 H :    0.030757
  16 S :    0.378073
  17 C :   -0.163386
  18 C :   -0.067311
  19 C :   -0.053656
  20 C :   -0.198286
  21 H :    0.033819
  22 C :   -0.035181
  23 H :    0.030367
  24 H :    0.027696
  25 C :   -0.026114
  26 H :    0.025367
  27 H :    0.030539
  28 C :   -0.063384
  29 H :    0.029252
  30 H :    0.024390
  31 H :    0.013875
  32 H :    0.036488
  33 H :    0.020011

  Mayer bond orders larger than 0.100000
B(  0-S ,  1-C ) :   1.1289 B(  0-S ,  4-C ) :   1.1708 B(  1-C ,  2-C ) :   1.6072
B(  1-C , 32-H ) :   0.9511 B(  2-C ,  3-C ) :   1.2688 B(  2-C ,  6-C ) :   1.0127
B(  3-C ,  4-C ) :   1.5318 B(  3-C ,  5-H ) :   0.9973 B(  4-C , 20-C ) :   1.0529
B(  6-C ,  7-H ) :   0.9378 B(  6-C ,  8-H ) :   0.9352 B(  6-C ,  9-C ) :   1.0720
B(  9-C , 10-H ) :   0.9565 B(  9-C , 11-H ) :   0.9540 B(  9-C , 12-C ) :   1.0693
B( 12-C , 13-H ) :   0.9736 B( 12-C , 14-H ) :   0.9718 B( 12-C , 15-H ) :   0.9737
B( 16-S , 17-C ) :   1.1600 B( 16-S , 20-C ) :   1.1118 B( 17-C , 18-C ) :   1.6010
B( 17-C , 33-H ) :   0.9705 B( 18-C , 19-C ) :   1.2265 B( 18-C , 21-H ) :   0.9901
B( 19-C , 20-C ) :   1.6294 B( 19-C , 22-C ) :   1.0410 B( 22-C , 23-H ) :   0.9329
B( 22-C , 24-H ) :   0.9365 B( 22-C , 25-C ) :   1.0478 B( 25-C , 26-H ) :   0.9623
B( 25-C , 27-H ) :   0.9559 B( 25-C , 28-C ) :   1.0740 B( 28-C , 29-H ) :   0.9723
B( 28-C , 30-H ) :   0.9750 B( 28-C , 31-H ) :   0.9764

Dispersion correction           -0.014550032
FINAL SINGLE POINT ENERGY     -1339.859043859265

DIPOLE MOMENT
-------------
                                X             Y             Z
Electronic contribution:    -19.55813      11.39553      -3.36315
Nuclear contribution   :     20.09616     -11.55864       3.62957
                        -----------------------------------------
Total Dipole Moment    :      0.53803      -0.16310       0.26642
                        -----------------------------------------
Magnitude (a.u.)       :      0.62214
Magnitude (Debye)      :      1.58135

Rotational constants in cm-1:     0.018416     0.008765     0.007149
Rotational constants in MHz :   552.094970   262.774517   214.334847

                             ****ORCA TERMINATED NORMALLY****
TOTAL RUN TIME: 0 days 0 hours 0 minutes 33 seconds 697 msec
