                         Program Version 4.2.1 -  RELEASE  -
|  1> ! wB97X-D3 SP def2-SVP
|  2> %pal
|  3> nprocs 16
|  4> end
|  5>
|  6> * xyz 0 1
|  7> S 	 6.13372 	 -15.3084 	 64.0519
|  8> C 	 7.72434 	 -15.8638 	 63.8076
|  9> C 	 8.63871 	 -14.8495 	 64.0838
| 10> C 	 7.98808 	 -13.6454 	 64.5042
| 11> C 	 6.62306 	 -13.7414 	 64.6216
| 12> H 	 8.51648 	 -12.8028 	 64.8836
| 13> C 	 10.1526 	 -14.9264 	 63.8982
| 14> H 	 10.6192 	 -13.9314 	 63.762
| 15> H 	 10.2092 	 -15.5205 	 62.9674
| 16> C 	 10.8985 	 -15.5939 	 65.0978
| 17> H 	 10.3697 	 -16.4766 	 65.5525
| 18> H 	 11.8824 	 -15.9136 	 64.7152
| 19> C 	 11.1406 	 -14.6802 	 66.2859
| 20> H 	 11.7314 	 -13.8525 	 65.9372
| 21> H 	 10.2024 	 -14.2959 	 66.577
| 22> H 	 11.5296 	 -15.1602 	 67.1535
| 23> S 	 4.0271 	 -12.7807 	 64.8266
| 24> C 	 3.56753 	 -11.8354 	 66.2124
| 25> C 	 4.66942 	 -11.2989 	 66.8739
| 26> C 	 5.90801 	 -11.8959 	 66.4174
| 27> C 	 5.72444 	 -12.8348 	 65.4167
| 28> H 	 4.59533 	 -10.4936 	 67.5401
| 29> C 	 7.20673 	 -11.602 	 67.1494
| 30> H 	 7.65436 	 -12.5716 	 67.0948
| 31> H 	 7.03461 	 -11.4593 	 68.2153
| 32> C 	 8.21375 	 -10.6226 	 66.5572
| 33> H 	 8.50512 	 -10.8146 	 65.5153
| 34> H 	 9.2385 	 -10.6411 	 66.9574
| 35> C 	 7.75048 	 -9.18117 	 66.6879
| 36> H 	 6.78245 	 -8.91335 	 66.2053
| 37> H 	 8.46562 	 -8.49444 	 66.2256
| 38> H 	 7.57917 	 -8.86428 	 67.7454
| 39> H 	 7.9661 	 -16.7818 	 63.2647
| 40> H 	 2.59707 	 -11.5936 	 66.4815
| 41> *
| 42>
| 43>                          ****END OF INPUT****

CARTESIAN COORDINATES (ANGSTROEM)
---------------------------------
  S      6.133720  -15.308400   64.051900
  C      7.724340  -15.863800   63.807600
  C      8.638710  -14.849500   64.083800
  C      7.988080  -13.645400   64.504200
  C      6.623060  -13.741400   64.621600
  H      8.516480  -12.802800   64.883600
  C     10.152600  -14.926400   63.898200
  H     10.619200  -13.931400   63.762000
  H     10.209200  -15.520500   62.967400
  C     10.898500  -15.593900   65.097800
  H     10.369700  -16.476600   65.552500
  H     11.882400  -15.913600   64.715200
  C     11.140600  -14.680200   66.285900
  H     11.731400  -13.852500   65.937200
  H     10.202400  -14.295900   66.577000
  H     11.529600  -15.160200   67.153500
  S      4.027100  -12.780700   64.826600
  C      3.567530  -11.835400   66.212400
  C      4.669420  -11.298900   66.873900
  C      5.908010  -11.895900   66.417400
  C      5.724440  -12.834800   65.416700
  H      4.595330  -10.493600   67.540100
  C      7.206730  -11.602000   67.149400
  H      7.654360  -12.571600   67.094800
  H      7.034610  -11.459300   68.215300
  C      8.213750  -10.622600   66.557200
  H      8.505120  -10.814600   65.515300
  H      9.238500  -10.641100   66.957400
  C      7.750480   -9.181170   66.687900
  H      6.782450   -8.913350   66.205300
  H      8.465620   -8.494440   66.225600
  H      7.579170   -8.864280   67.745400
  H      7.966100  -16.781800   63.264700
  H      2.597070  -11.593600   66.481500

 Total Charge           Charge          ....    0
 Multiplicity           Mult            ....    1
 Number of Electrons    NEL             ....  134
 Basis Dimension        Dim             ....  322

ORBITAL ENERGIES
----------------

  NO   OCC          E(Eh)            E(eV)
   0   2.0000     -88.966465     -2420.9006
   1   2.0000     -88.964633     -2420.8507
   2   2.0000     -10.335445      -281.2418
   3   2.0000     -10.332096      -281.1506
   4   2.0000     -10.315138      -280.6892
   5   2.0000     -10.314688      -280.6769
   6   2.0000     -10.309076      -280.5242
   7   2.0000     -10.302846      -280.3547
   8   2.0000     -10.300238      -280.2837
   9   2.0000     -10.293159      -280.0911
  10   2.0000     -10.292293      -280.0675
  11   2.0000     -10.291830      -280.0549
  12   2.0000     -10.290634      -280.0224
  13   2.0000     -10.290583      -280.0210
  14   2.0000     -10.280413      -279.7443
  15   2.0000     -10.269065      -279.4355
  16   2.0000      -8.082126      -219.9258
  17   2.0000      -8.079066      -219.8426
  18   2.0000      -6.040636      -164.3741
  19   2.0000      -6.037636      -164.2924
  20   2.0000      -6.036289      -164.2558
  21   2.0000      -6.033828      -164.1888
  22   2.0000      -6.033025      -164.1670
  23   2.0000      -6.029584      -164.0733
  24   2.0000      -1.008544       -27.4439
  25   2.0000      -0.985148       -26.8072
  26   2.0000      -0.911927       -24.8148
  27   2.0000      -0.909855       -24.7584
  28   2.0000      -0.867718       -23.6118
  29   2.0000      -0.854048       -23.2398
  30   2.0000      -0.847441       -23.0600
  31   2.0000      -0.817940       -22.2573
  32   2.0000      -0.784953       -21.3596
  33   2.0000      -0.773791       -21.0559
  34   2.0000      -0.708603       -19.2821
  35   2.0000      -0.697257       -18.9733
  36   2.0000      -0.692289       -18.8381
  37   2.0000      -0.670059       -18.2332
  38   2.0000      -0.644449       -17.5364
  39   2.0000      -0.617247       -16.7962
  40   2.0000      -0.593099       -16.1390
  41   2.0000      -0.578467       -15.7409
  42   2.0000      -0.557799       -15.1785
  43   2.0000      -0.552375       -15.0309
  44   2.0000      -0.547867       -14.9082
  45   2.0000      -0.544381       -14.8134
  46   2.0000      -0.518200       -14.1009
  47   2.0000      -0.512858       -13.9556
  48   2.0000      -0.505762       -13.7625
  49   2.0000      -0.494615       -13.4592
  50   2.0000      -0.489122       -13.3097
  51   2.0000      -0.479467       -13.0470
  52   2.0000      -0.473334       -12.8801
  53   2.0000      -0.467472       -12.7206
  54   2.0000      -0.466002       -12.6806
  55   2.0000      -0.450121       -12.2484
  56   2.0000      -0.445180       -12.1140
  57   2.0000      -0.441883       -12.0243
  58   2.0000      -0.429336       -11.6828
  59   2.0000      -0.423713       -11.5298
  60   2.0000      -0.418710       -11.3937
  61   2.0000      -0.413371       -11.2484
  62   2.0000      -0.407993       -11.1021
  63   2.0000      -0.353059        -9.6072
  64   2.0000      -0.331402        -9.0179
  65   2.0000      -0.329301        -8.9607
  66   2.0000      -0.289834        -7.8868
  67   0.0000       0.021159         0.5758
  68   0.0000       0.076033         2.0690
  69   0.0000       0.096238         2.6188
  70   0.0000       0.123507         3.3608
  71   0.0000       0.127514         3.4698

MULLIKEN ATOMIC CHARGES
-----------------------
   0 S :    0.116269
   1 C :   -0.116829
   2 C :   -0.121900
   3 C :    0.021296
   4 C :   -0.084891
   5 H :   -0.030178
   6 C :    0.052599
   7 H :    0.030359
   8 H :    0.037755
   9 C :   -0.088772
  10 H :    0.037293
  11 H :    0.030852
  12 C :   -0.011169
  13 H :    0.017616
  14 H :    0.009959
  15 H :    0.034714
  16 S :    0.088790
  17 C :   -0.051301
  18 C :   -0.016314
  19 C :   -0.054574
  20 C :   -0.134949
  21 H :    0.002965
  22 C :    0.059922
  23 H :    0.024159
  24 H :    0.031276
  25 C :   -0.056907
  26 H :    0.036873
  27 H :    0.028470
  28 C :   -0.079515
  29 H :    0.036716
  30 H :    0.031085
  31 H :    0.027831
  32 H :    0.059594
  33 H :    0.030904
Sum of atomic charges:    0.0000000

LOEWDIN ATOMIC CHARGES
----------------------
   0 S :    0.435144
   1 C :   -0.215053
   2 C :   -0.066083
   3 C :   -0.068247
   4 C :   -0.201824
   5 H :    0.020800
   6 C :   -0.031970
   7 H :    0.032840
   8 H :    0.036805
   9 C :   -0.041781
  10 H :    0.029171
  11 H :    0.021738
  12 C :   -0.059238
  13 H :    0.019834
  14 H :    0.017283
  15 H :    0.025893
  16 S :    0.383996
  17 C :   -0.167295
  18 C :   -0.062167
  19 C :   -0.050719
  20 C :   -0.173117
  21 H :    0.022922
  22 C :   -0.034010
  23 H :    0.033100
  24 H :    0.034123
  25 C :   -0.048104
  26 H :    0.025743
  27 H :    0.030886
  28 C :   -0.075744
  29 H :    0.026685
  30 H :    0.025468
  31 H :    0.024907
  32 H :    0.034018
  33 H :    0.013994

  Mayer bond orders larger than 0.100000
B(  0-S ,  1-C ) :   1.1625 B(  0-S ,  4-C ) :   1.1678 B(  1-C ,  2-C ) :   1.5749
B(  1-C , 32-H ) :   0.9646 B(  2-C ,  3-C ) :   1.2829 B(  2-C ,  6-C ) :   1.0147
B(  3-C ,  4-C ) :   1.5335 B(  3-C ,  5-H ) :   1.0005 B(  4-C , 20-C ) :   1.0178
B(  6-C ,  7-H ) :   0.9477 B(  6-C ,  8-H ) :   0.9416 B(  6-C ,  9-C ) :   1.0554
B(  9-C , 10-H ) :   0.9598 B(  9-C , 11-H ) :   0.9582 B(  9-C , 12-C ) :   1.0795
B( 12-C , 13-H ) :   0.9732 B( 12-C , 14-H ) :   0.9742 B( 12-C , 15-H ) :   0.9712
B( 16-S , 17-C ) :   1.1536 B( 16-S , 20-C ) :   1.1214 B( 17-C , 18-C ) :   1.6094
B( 17-C , 33-H ) :   0.9764 B( 18-C , 19-C ) :   1.2216 B( 18-C , 21-H ) :   1.0001
B( 19-C , 20-C ) :   1.6300 B( 19-C , 22-C ) :   1.0203 B( 22-C , 23-H ) :   0.9302
B( 22-C , 24-H ) :   0.9449 B( 22-C , 25-C ) :   1.0704 B( 25-C , 26-H ) :   0.9428
B( 25-C , 27-H ) :   0.9511 B( 25-C , 28-C ) :   1.0812 B( 28-C , 29-H ) :   0.9758
B( 28-C , 30-H ) :   0.9720 B( 28-C , 31-H ) :   0.9748

Dispersion correction           -0.015037161
FINAL SINGLE POINT ENERGY     -1339.872712418198

DIPOLE MOMENT
-------------
                                X             Y             Z
Electronic contribution:    -26.81602      -9.50609     -10.63055
Nuclear contribution   :     27.41820       9.73956      10.92074
                        -----------------------------------------
Total Dipole Moment    :      0.60218       0.23347       0.29019
                        -----------------------------------------
Magnitude (a.u.)       :      0.70805
Magnitude (Debye)      :      1.79973

Rotational constants in cm-1:     0.017908     0.009993     0.006864
Rotational constants in MHz :   536.882973   299.575898   205.780125

                             ****ORCA TERMINATED NORMALLY****
TOTAL RUN TIME: 0 days 0 hours 0 minutes 36 seconds 487 msec
