                         Program Version 4.2.1 -  RELEASE  -
|  1> ! wB97X-D3 SP def2-SVP
|  2> %pal
|  3> nprocs 16
|  4> end
|  5>
|  6> * xyz 0 1
|  7> S 	 -13.3846 	 48.6846 	 34.9363
|  8> C 	 -12.0312 	 47.7733 	 35.4527
|  9> C 	 -10.8453 	 48.4533 	 35.2795
| 10> C 	 -11.0778 	 49.7716 	 34.8977
| 11> C 	 -12.4073 	 50.138 	 34.9138
| 12> H 	 -10.3932 	 50.577 	 34.5468
| 13> C 	 -9.41261 	 47.951 	 35.4258
| 14> H 	 -8.76569 	 48.5007 	 34.6837
| 15> H 	 -9.3798 	 46.9493 	 35.2014
| 16> C 	 -8.9596 	 48.0392 	 36.8579
| 17> H 	 -9.18913 	 49.0061 	 37.2874
| 18> H 	 -9.50971 	 47.3194 	 37.3272
| 19> C 	 -7.33891 	 47.995 	 36.7954
| 20> H 	 -6.88275 	 48.7437 	 36.0886
| 21> H 	 -6.93886 	 48.0666 	 37.8005
| 22> H 	 -7.08993 	 46.989 	 36.5237
| 23> S 	 -13.9528 	 51.2969 	 32.9479
| 24> C 	 -14.237 	 52.9986 	 32.9778
| 25> C 	 -13.5436 	 53.6521 	 33.9675
| 26> C 	 -12.7173 	 52.7788 	 34.7455
| 27> C 	 -12.9055 	 51.4007 	 34.3997
| 28> H 	 -13.6785 	 54.7344 	 34.1115
| 29> C 	 -11.9218 	 53.1929 	 35.9204
| 30> H 	 -12.277 	 54.2225 	 36.1736
| 31> H 	 -10.9103 	 53.2502 	 35.6968
| 32> C 	 -11.8998 	 52.4371 	 37.2256
| 33> H 	 -11.3803 	 53.0526 	 37.9673
| 34> H 	 -11.3349 	 51.5249 	 37.1262
| 35> C 	 -13.3188 	 52.1222 	 37.8054
| 36> H 	 -13.7497 	 53.0526 	 38.2802
| 37> H 	 -13.2225 	 51.4534 	 38.685
| 38> H 	 -13.9657 	 51.5553 	 37.1313
| 39> H 	 -11.9955 	 46.776 	 35.5992
| 40> H 	 -14.6799 	 53.4888 	 32.1407
| 41> *
| 42>
| 43>                          ****END OF INPUT****

CARTESIAN COORDINATES (ANGSTROEM)
---------------------------------
  S    -13.384600   48.684600   34.936300
  C    -12.031200   47.773300   35.452700
  C    -10.845300   48.453300   35.279500
  C    -11.077800   49.771600   34.897700
  C    -12.407300   50.138000   34.913800
  H    -10.393200   50.577000   34.546800
  C     -9.412610   47.951000   35.425800
  H     -8.765690   48.500700   34.683700
  H     -9.379800   46.949300   35.201400
  C     -8.959600   48.039200   36.857900
  H     -9.189130   49.006100   37.287400
  H     -9.509710   47.319400   37.327200
  C     -7.338910   47.995000   36.795400
  H     -6.882750   48.743700   36.088600
  H     -6.938860   48.066600   37.800500
  H     -7.089930   46.989000   36.523700
  S    -13.952800   51.296900   32.947900
  C    -14.237000   52.998600   32.977800
  C    -13.543600   53.652100   33.967500
  C    -12.717300   52.778800   34.745500
  C    -12.905500   51.400700   34.399700
  H    -13.678500   54.734400   34.111500
  C    -11.921800   53.192900   35.920400
  H    -12.277000   54.222500   36.173600
  H    -10.910300   53.250200   35.696800
  C    -11.899800   52.437100   37.225600
  H    -11.380300   53.052600   37.967300
  H    -11.334900   51.524900   37.126200
  C    -13.318800   52.122200   37.805400
  H    -13.749700   53.052600   38.280200
  H    -13.222500   51.453400   38.685000
  H    -13.965700   51.555300   37.131300
  H    -11.995500   46.776000   35.599200
  H    -14.679900   53.488800   32.140700

 Total Charge           Charge          ....    0
 Multiplicity           Mult            ....    1
 Number of Electrons    NEL             ....  134
 Basis Dimension        Dim             ....  322

ORBITAL ENERGIES
----------------

  NO   OCC          E(Eh)            E(eV)
   0   2.0000     -88.969537     -2420.9842
   1   2.0000     -88.963371     -2420.8164
   2   2.0000     -10.330296      -281.1016
   3   2.0000     -10.325935      -280.9830
   4   2.0000     -10.310919      -280.5744
   5   2.0000     -10.307303      -280.4760
   6   2.0000     -10.303896      -280.3833
   7   2.0000     -10.296748      -280.1888
   8   2.0000     -10.295729      -280.1610
   9   2.0000     -10.291681      -280.0509
  10   2.0000     -10.286981      -279.9230
  11   2.0000     -10.286571      -279.9118
  12   2.0000     -10.282983      -279.8142
  13   2.0000     -10.281664      -279.7783
  14   2.0000     -10.280057      -279.7346
  15   2.0000     -10.274209      -279.5754
  16   2.0000      -8.084590      -219.9929
  17   2.0000      -8.077970      -219.8127
  18   2.0000      -6.043023      -164.4390
  19   2.0000      -6.039268      -164.3368
  20   2.0000      -6.036357      -164.2576
  21   2.0000      -6.035192      -164.2259
  22   2.0000      -6.032451      -164.1513
  23   2.0000      -6.028926      -164.0554
  24   2.0000      -1.012144       -27.5418
  25   2.0000      -0.984680       -26.7945
  26   2.0000      -0.918060       -24.9817
  27   2.0000      -0.909959       -24.7613
  28   2.0000      -0.870633       -23.6911
  29   2.0000      -0.850460       -23.1422
  30   2.0000      -0.841942       -22.9104
  31   2.0000      -0.810994       -22.0683
  32   2.0000      -0.782929       -21.3046
  33   2.0000      -0.772533       -21.0217
  34   2.0000      -0.712497       -19.3880
  35   2.0000      -0.709360       -19.3027
  36   2.0000      -0.685463       -18.6524
  37   2.0000      -0.660343       -17.9688
  38   2.0000      -0.646914       -17.6034
  39   2.0000      -0.620382       -16.8815
  40   2.0000      -0.588938       -16.0258
  41   2.0000      -0.572617       -15.5817
  42   2.0000      -0.567078       -15.4310
  43   2.0000      -0.559531       -15.2256
  44   2.0000      -0.544585       -14.8189
  45   2.0000      -0.517661       -14.0863
  46   2.0000      -0.515148       -14.0179
  47   2.0000      -0.506532       -13.7834
  48   2.0000      -0.503485       -13.7005
  49   2.0000      -0.493804       -13.4371
  50   2.0000      -0.489259       -13.3134
  51   2.0000      -0.482188       -13.1210
  52   2.0000      -0.475760       -12.9461
  53   2.0000      -0.464605       -12.6425
  54   2.0000      -0.457926       -12.4608
  55   2.0000      -0.455098       -12.3838
  56   2.0000      -0.443669       -12.0728
  57   2.0000      -0.438317       -11.9272
  58   2.0000      -0.431129       -11.7316
  59   2.0000      -0.427014       -11.6196
  60   2.0000      -0.420783       -11.4501
  61   2.0000      -0.410402       -11.1676
  62   2.0000      -0.405413       -11.0318
  63   2.0000      -0.347948        -9.4682
  64   2.0000      -0.329522        -8.9668
  65   2.0000      -0.329307        -8.9609
  66   2.0000      -0.286039        -7.7835
  67   0.0000       0.023708         0.6451
  68   0.0000       0.061677         1.6783
  69   0.0000       0.107799         2.9334
  70   0.0000       0.126183         3.4336
  71   0.0000       0.131021         3.5653

MULLIKEN ATOMIC CHARGES
-----------------------
   0 S :    0.120030
   1 C :   -0.048181
   2 C :   -0.105418
   3 C :    0.005455
   4 C :   -0.155208
   5 H :    0.032571
   6 C :    0.092575
   7 H :    0.033512
   8 H :   -0.005302
   9 C :   -0.038781
  10 H :    0.031352
  11 H :    0.008805
  12 C :   -0.055983
  13 H :    0.054772
  14 H :    0.033040
  15 H :    0.021535
  16 S :    0.094423
  17 C :   -0.082720
  18 C :   -0.045378
  19 C :   -0.018805
  20 C :   -0.187638
  21 H :    0.030477
  22 C :    0.085513
  23 H :    0.014142
  24 H :    0.019512
  25 C :   -0.075064
  26 H :    0.026464
  27 H :    0.029499
  28 C :   -0.072585
  29 H :    0.034949
  30 H :    0.024956
  31 H :    0.048755
  32 H :   -0.005517
  33 H :    0.054243
Sum of atomic charges:   -0.0000000

LOEWDIN ATOMIC CHARGES
----------------------
   0 S :    0.427492
   1 C :   -0.194739
   2 C :   -0.060201
   3 C :   -0.060494
   4 C :   -0.204054
   5 H :    0.040237
   6 C :   -0.022174
   7 H :    0.034943
   8 H :    0.015424
   9 C :   -0.022077
  10 H :    0.020674
  11 H :    0.012814
  12 C :   -0.063024
  13 H :    0.035465
  14 H :    0.022868
  15 H :    0.019608
  16 S :    0.396032
  17 C :   -0.191123
  18 C :   -0.073629
  19 C :   -0.053611
  20 C :   -0.185624
  21 H :    0.038053
  22 C :   -0.038272
  23 H :    0.034601
  24 H :    0.026776
  25 C :   -0.039380
  26 H :    0.028329
  27 H :    0.018267
  28 C :   -0.074327
  29 H :    0.029163
  30 H :    0.026712
  31 H :    0.025689
  32 H :    0.004802
  33 H :    0.024781

  Mayer bond orders larger than 0.100000
B(  0-S ,  1-C ) :   1.1526 B(  0-S ,  4-C ) :   1.1535 B(  1-C ,  2-C ) :   1.5859
B(  1-C , 32-H ) :   0.9746 B(  2-C ,  3-C ) :   1.2714 B(  2-C ,  6-C ) :   1.0194
B(  3-C ,  4-C ) :   1.5438 B(  3-C ,  5-H ) :   0.9873 B(  4-C , 20-C ) :   1.0688
B(  6-C ,  7-H ) :   0.9506 B(  6-C ,  8-H ) :   0.9288 B(  6-C ,  9-C ) :   1.0486
B(  9-C , 10-H ) :   0.9647 B(  9-C , 11-H ) :   0.9605 B(  9-C , 12-C ) :   1.0589
B( 12-C , 13-H ) :   0.9778 B( 12-C , 14-H ) :   0.9771 B( 12-C , 15-H ) :   0.9760
B( 16-S , 17-C ) :   1.1625 B( 16-S , 20-C ) :   1.1441 B( 17-C , 18-C ) :   1.5998
B( 17-C , 20-C ) :   0.1012 B( 17-C , 33-H ) :   0.9653 B( 18-C , 19-C ) :   1.2603
B( 18-C , 21-H ) :   0.9858 B( 19-C , 20-C ) :   1.5530 B( 19-C , 22-C ) :   1.0474
B( 22-C , 23-H ) :   0.9334 B( 22-C , 24-H ) :   0.9161 B( 22-C , 25-C ) :   1.0915
B( 25-C , 26-H ) :   0.9495 B( 25-C , 27-H ) :   0.9440 B( 25-C , 28-C ) :   1.0853
B( 28-C , 29-H ) :   0.9758 B( 28-C , 30-H ) :   0.9741 B( 28-C , 31-H ) :   0.9726

Dispersion correction           -0.015289285
FINAL SINGLE POINT ENERGY     -1339.846702022899

DIPOLE MOMENT
-------------
                                X             Y             Z
Electronic contribution:    -20.25748      -1.03322     -18.58684
Nuclear contribution   :     20.92203       1.07712      18.71277
                        -----------------------------------------
Total Dipole Moment    :      0.66455       0.04389       0.12593
                        -----------------------------------------
Magnitude (a.u.)       :      0.67780
Magnitude (Debye)      :      1.72283

Rotational constants in cm-1:     0.021096     0.008726     0.007413
Rotational constants in MHz :   632.443792   261.596547   222.222308

                             ****ORCA TERMINATED NORMALLY****
TOTAL RUN TIME: 0 days 0 hours 0 minutes 33 seconds 554 msec
