                         Program Version 4.2.1 -  RELEASE  -
|  1> ! wB97X-D3 SP def2-SVP
|  2> %pal
|  3> nprocs 16
|  4> end
|  5>
|  6> * xyz 0 1
|  7> S 	 61.1095 	 6.08431 	 79.3787
|  8> C 	 59.3871 	 6.33576 	 79.8435
|  9> C 	 58.5373 	 5.80691 	 78.8328
| 10> C 	 59.2355 	 5.13139 	 77.7641
| 11> C 	 60.602 	 5.39135 	 77.844
| 12> H 	 58.7498 	 4.60528 	 76.9427
| 13> C 	 57.047 	 5.74683 	 78.8501
| 14> H 	 56.7697 	 6.15784 	 79.8191
| 15> H 	 56.9163 	 4.66371 	 78.9119
| 16> C 	 56.4432 	 6.38215 	 77.6059
| 17> H 	 56.5188 	 7.45686 	 77.6897
| 18> H 	 56.9907 	 6.11822 	 76.7203
| 19> C 	 55.0467 	 5.8882 	 77.3848
| 20> H 	 54.8213 	 4.83562 	 77.5778
| 21> H 	 54.4246 	 6.51524 	 78.0457
| 22> H 	 54.7386 	 6.07857 	 76.3515
| 23> S 	 62.2029 	 3.45872 	 76.7841
| 24> C 	 63.0075 	 3.71065 	 75.2671
| 25> C 	 62.914 	 5.01111 	 74.8693
| 26> C 	 62.1041 	 5.80714 	 75.7369
| 27> C 	 61.5961 	 5.09065 	 76.8238
| 28> H 	 63.3401 	 5.45281 	 73.9544
| 29> C 	 61.6148 	 7.27951 	 75.3998
| 30> H 	 61.9607 	 8.10481 	 76.2155
| 31> H 	 60.5599 	 7.24851 	 75.4691
| 32> C 	 61.8467 	 7.7095 	 73.9561
| 33> H 	 61.1586 	 7.2408 	 73.3078
| 34> H 	 62.8539 	 7.33031 	 73.631
| 35> C 	 61.9068 	 9.27775 	 73.8592
| 36> H 	 62.108 	 9.59932 	 72.7803
| 37> H 	 62.6998 	 9.72002 	 74.4664
| 38> H 	 60.992 	 9.76484 	 74.0801
| 39> H 	 59.0543 	 6.77536 	 80.8005
| 40> H 	 63.3297 	 2.85349 	 74.658
| 41> *
| 42>
| 43>                          ****END OF INPUT****

CARTESIAN COORDINATES (ANGSTROEM)
---------------------------------
  S     61.109500    6.084310   79.378700
  C     59.387100    6.335760   79.843500
  C     58.537300    5.806910   78.832800
  C     59.235500    5.131390   77.764100
  C     60.602000    5.391350   77.844000
  H     58.749800    4.605280   76.942700
  C     57.047000    5.746830   78.850100
  H     56.769700    6.157840   79.819100
  H     56.916300    4.663710   78.911900
  C     56.443200    6.382150   77.605900
  H     56.518800    7.456860   77.689700
  H     56.990700    6.118220   76.720300
  C     55.046700    5.888200   77.384800
  H     54.821300    4.835620   77.577800
  H     54.424600    6.515240   78.045700
  H     54.738600    6.078570   76.351500
  S     62.202900    3.458720   76.784100
  C     63.007500    3.710650   75.267100
  C     62.914000    5.011110   74.869300
  C     62.104100    5.807140   75.736900
  C     61.596100    5.090650   76.823800
  H     63.340100    5.452810   73.954400
  C     61.614800    7.279510   75.399800
  H     61.960700    8.104810   76.215500
  H     60.559900    7.248510   75.469100
  C     61.846700    7.709500   73.956100
  H     61.158600    7.240800   73.307800
  H     62.853900    7.330310   73.631000
  C     61.906800    9.277750   73.859200
  H     62.108000    9.599320   72.780300
  H     62.699800    9.720020   74.466400
  H     60.992000    9.764840   74.080100
  H     59.054300    6.775360   80.800500
  H     63.329700    2.853490   74.658000

 Total Charge           Charge          ....    0
 Multiplicity           Mult            ....    1
 Number of Electrons    NEL             ....  134
 Basis Dimension        Dim             ....  322

ORBITAL ENERGIES
----------------

  NO   OCC          E(Eh)            E(eV)
   0   2.0000     -88.966066     -2420.8897
   1   2.0000     -88.961666     -2420.7700
   2   2.0000     -10.331646      -281.1384
   3   2.0000     -10.321386      -280.8592
   4   2.0000     -10.321010      -280.8490
   5   2.0000     -10.315808      -280.7074
   6   2.0000     -10.306322      -280.4493
   7   2.0000     -10.303831      -280.3815
   8   2.0000     -10.299468      -280.2628
   9   2.0000     -10.298186      -280.2279
  10   2.0000     -10.294141      -280.1178
  11   2.0000     -10.289435      -279.9898
  12   2.0000     -10.289207      -279.9836
  13   2.0000     -10.283938      -279.8402
  14   2.0000     -10.282831      -279.8101
  15   2.0000     -10.277588      -279.6674
  16   2.0000      -8.079680      -219.8593
  17   2.0000      -8.077057      -219.7879
  18   2.0000      -6.038278      -164.3099
  19   2.0000      -6.035433      -164.2325
  20   2.0000      -6.034374      -164.2037
  21   2.0000      -6.031366      -164.1218
  22   2.0000      -6.030386      -164.0951
  23   2.0000      -6.028033      -164.0311
  24   2.0000      -1.002981       -27.2925
  25   2.0000      -0.977996       -26.6126
  26   2.0000      -0.920089       -25.0369
  27   2.0000      -0.902091       -24.5471
  28   2.0000      -0.867923       -23.6174
  29   2.0000      -0.848600       -23.0916
  30   2.0000      -0.841445       -22.8969
  31   2.0000      -0.811621       -22.0853
  32   2.0000      -0.778268       -21.1777
  33   2.0000      -0.765946       -20.8425
  34   2.0000      -0.708822       -19.2880
  35   2.0000      -0.701350       -19.0847
  36   2.0000      -0.693059       -18.8591
  37   2.0000      -0.650475       -17.7003
  38   2.0000      -0.636172       -17.3111
  39   2.0000      -0.618860       -16.8400
  40   2.0000      -0.599925       -16.3248
  41   2.0000      -0.567350       -15.4384
  42   2.0000      -0.562416       -15.3041
  43   2.0000      -0.559484       -15.2243
  44   2.0000      -0.531129       -14.4528
  45   2.0000      -0.520596       -14.1661
  46   2.0000      -0.516103       -14.0439
  47   2.0000      -0.507517       -13.8103
  48   2.0000      -0.506282       -13.7766
  49   2.0000      -0.495916       -13.4946
  50   2.0000      -0.486746       -13.2450
  51   2.0000      -0.478779       -13.0282
  52   2.0000      -0.465680       -12.6718
  53   2.0000      -0.463326       -12.6077
  54   2.0000      -0.455034       -12.3821
  55   2.0000      -0.453278       -12.3343
  56   2.0000      -0.451061       -12.2740
  57   2.0000      -0.442347       -12.0369
  58   2.0000      -0.440635       -11.9903
  59   2.0000      -0.422977       -11.5098
  60   2.0000      -0.412629       -11.2282
  61   2.0000      -0.410989       -11.1836
  62   2.0000      -0.407591       -11.0911
  63   2.0000      -0.334998        -9.1158
  64   2.0000      -0.327607        -8.9146
  65   2.0000      -0.313140        -8.5210
  66   2.0000      -0.308211        -8.3868
  67   0.0000       0.040823         1.1108
  68   0.0000       0.053679         1.4607
  69   0.0000       0.109789         2.9875
  70   0.0000       0.123941         3.3726
  71   0.0000       0.130036         3.5385

MULLIKEN ATOMIC CHARGES
-----------------------
   0 S :    0.110643
   1 C :   -0.137036
   2 C :   -0.133377
   3 C :    0.048609
   4 C :   -0.166847
   5 H :    0.030984
   6 C :    0.091894
   7 H :    0.012294
   8 H :    0.036482
   9 C :   -0.063084
  10 H :    0.033587
  11 H :    0.022424
  12 C :   -0.042492
  13 H :    0.036341
  14 H :    0.028379
  15 H :    0.028675
  16 S :    0.111080
  17 C :   -0.101139
  18 C :   -0.040146
  19 C :   -0.022285
  20 C :   -0.192441
  21 H :    0.025181
  22 C :    0.045545
  23 H :    0.064405
  24 H :    0.024723
  25 C :   -0.087068
  26 H :    0.029909
  27 H :    0.035260
  28 C :   -0.064460
  29 H :    0.033012
  30 H :    0.042475
  31 H :    0.027594
  32 H :    0.058462
  33 H :    0.072418
Sum of atomic charges:   -0.0000000

LOEWDIN ATOMIC CHARGES
----------------------
   0 S :    0.385755
   1 C :   -0.205056
   2 C :   -0.055690
   3 C :   -0.056960
   4 C :   -0.190489
   5 H :    0.036247
   6 C :   -0.031265
   7 H :    0.028093
   8 H :    0.037679
   9 C :   -0.038767
  10 H :    0.029940
  11 H :    0.020559
  12 C :   -0.066099
  13 H :    0.025902
  14 H :    0.027811
  15 H :    0.025268
  16 S :    0.419247
  17 C :   -0.194259
  18 C :   -0.081864
  19 C :   -0.054770
  20 C :   -0.215290
  21 H :    0.034861
  22 C :   -0.037174
  23 H :    0.048679
  24 H :    0.026028
  25 C :   -0.040542
  26 H :    0.019764
  27 H :    0.023123
  28 C :   -0.065059
  29 H :    0.031499
  30 H :    0.027767
  31 H :    0.016956
  32 H :    0.032450
  33 H :    0.035658

  Mayer bond orders larger than 0.100000
B(  0-S ,  1-C ) :   1.1121 B(  0-S ,  4-C ) :   1.1626 B(  1-C ,  2-C ) :   1.6170
B(  1-C , 32-H ) :   0.9663 B(  2-C ,  3-C ) :   1.2215 B(  2-C ,  6-C ) :   1.0210
B(  3-C ,  4-C ) :   1.5874 B(  3-C ,  5-H ) :   0.9854 B(  4-C , 20-C ) :   1.0009
B(  6-C ,  7-H ) :   0.9366 B(  6-C ,  8-H ) :   0.9404 B(  6-C ,  9-C ) :   1.0513
B(  9-C , 10-H ) :   0.9511 B(  9-C , 11-H ) :   0.9636 B(  9-C , 12-C ) :   1.0779
B( 12-C , 13-H ) :   0.9781 B( 12-C , 14-H ) :   0.9739 B( 12-C , 15-H ) :   0.9748
B( 16-S , 17-C ) :   1.1691 B( 16-S , 20-C ) :   1.1656 B( 17-C , 18-C ) :   1.5797
B( 17-C , 20-C ) :   0.1014 B( 17-C , 33-H ) :   0.9630 B( 18-C , 19-C ) :   1.2787
B( 18-C , 21-H ) :   0.9794 B( 19-C , 20-C ) :   1.5972 B( 19-C , 22-C ) :   1.0082
B( 22-C , 23-H ) :   0.9445 B( 22-C , 24-H ) :   0.9362 B( 22-C , 25-C ) :   1.0567
B( 25-C , 26-H ) :   0.9583 B( 25-C , 27-H ) :   0.9555 B( 25-C , 28-C ) :   1.0736
B( 28-C , 29-H ) :   0.9748 B( 28-C , 30-H ) :   0.9786 B( 28-C , 31-H ) :   0.9776

Dispersion correction           -0.013680739
FINAL SINGLE POINT ENERGY     -1339.862819361668

DIPOLE MOMENT
-------------
                                X             Y             Z
Electronic contribution:     18.10533     -15.60947      13.76425
Nuclear contribution   :    -18.72975      15.80490     -14.21331
                        -----------------------------------------
Total Dipole Moment    :     -0.62442       0.19543      -0.44906
                        -----------------------------------------
Magnitude (a.u.)       :      0.79357
Magnitude (Debye)      :      2.01708

Rotational constants in cm-1:     0.015782     0.008416     0.007014
Rotational constants in MHz :   473.143416   252.294229   210.288784

                             ****ORCA TERMINATED NORMALLY****
TOTAL RUN TIME: 0 days 0 hours 0 minutes 27 seconds 322 msec
