                         Program Version 4.2.1 -  RELEASE  -
|  1> ! wB97X-D3 SP def2-SVP
|  2> %pal
|  3> nprocs 16
|  4> end
|  5>
|  6> * xyz 0 1
|  7> S 	 28.0326 	 -11.9998 	 74.2654
|  8> C 	 28.0517 	 -12.1527 	 72.5455
|  9> C 	 26.8313 	 -11.7436 	 72.0068
| 10> C 	 26.0204 	 -11.2099 	 73.053
| 11> C 	 26.4693 	 -11.2966 	 74.3507
| 12> H 	 24.9209 	 -10.7938 	 72.9632
| 13> C 	 26.418 	 -11.7286 	 70.5529
| 14> H 	 26.8327 	 -10.9047 	 70.0267
| 15> H 	 25.3401 	 -11.5755 	 70.5835
| 16> C 	 26.8867 	 -12.8961 	 69.6764
| 17> H 	 27.9927 	 -12.9634 	 69.7266
| 18> H 	 26.4296 	 -13.7478 	 70.1302
| 19> C 	 26.4251 	 -12.6791 	 68.2974
| 20> H 	 25.3949 	 -12.5075 	 68.1221
| 21> H 	 26.9463 	 -11.8995 	 67.7997
| 22> H 	 26.6965 	 -13.597 	 67.7387
| 23> S 	 24.1613 	 -11.4949 	 75.722
| 24> C 	 23.8483 	 -10.7976 	 77.2717
| 25> C 	 24.976 	 -10.0546 	 77.6175
| 26> C 	 26.0793 	 -10.0421 	 76.6547
| 27> C 	 25.7933 	 -10.8374 	 75.5522
| 28> H 	 24.9926 	 -9.49935 	 78.4771
| 29> C 	 27.4582 	 -9.37558 	 76.8527
| 30> H 	 28.1746 	 -10.1956 	 76.677
| 31> H 	 27.5401 	 -9.02458 	 77.8789
| 32> C 	 27.7677 	 -8.2728 	 75.8278
| 33> H 	 27.1228 	 -7.38261 	 75.9578
| 34> H 	 27.4699 	 -8.58077 	 74.7838
| 35> C 	 29.2826 	 -7.83915 	 75.7538
| 36> H 	 29.6811 	 -7.73641 	 76.8175
| 37> H 	 29.4828 	 -6.86245 	 75.3311
| 38> H 	 29.8728 	 -8.53689 	 75.1705
| 39> H 	 28.7678 	 -12.658 	 71.8509
| 40> H 	 22.9535 	 -10.9988 	 77.8566
| 41> *
| 42>
| 43>                          ****END OF INPUT****

CARTESIAN COORDINATES (ANGSTROEM)
---------------------------------
  S     28.032600  -11.999800   74.265400
  C     28.051700  -12.152700   72.545500
  C     26.831300  -11.743600   72.006800
  C     26.020400  -11.209900   73.053000
  C     26.469300  -11.296600   74.350700
  H     24.920900  -10.793800   72.963200
  C     26.418000  -11.728600   70.552900
  H     26.832700  -10.904700   70.026700
  H     25.340100  -11.575500   70.583500
  C     26.886700  -12.896100   69.676400
  H     27.992700  -12.963400   69.726600
  H     26.429600  -13.747800   70.130200
  C     26.425100  -12.679100   68.297400
  H     25.394900  -12.507500   68.122100
  H     26.946300  -11.899500   67.799700
  H     26.696500  -13.597000   67.738700
  S     24.161300  -11.494900   75.722000
  C     23.848300  -10.797600   77.271700
  C     24.976000  -10.054600   77.617500
  C     26.079300  -10.042100   76.654700
  C     25.793300  -10.837400   75.552200
  H     24.992600   -9.499350   78.477100
  C     27.458200   -9.375580   76.852700
  H     28.174600  -10.195600   76.677000
  H     27.540100   -9.024580   77.878900
  C     27.767700   -8.272800   75.827800
  H     27.122800   -7.382610   75.957800
  H     27.469900   -8.580770   74.783800
  C     29.282600   -7.839150   75.753800
  H     29.681100   -7.736410   76.817500
  H     29.482800   -6.862450   75.331100
  H     29.872800   -8.536890   75.170500
  H     28.767800  -12.658000   71.850900
  H     22.953500  -10.998800   77.856600

 Total Charge           Charge          ....    0
 Multiplicity           Mult            ....    1
 Number of Electrons    NEL             ....  134
 Basis Dimension        Dim             ....  322

ORBITAL ENERGIES
----------------

  NO   OCC          E(Eh)            E(eV)
   0   2.0000     -88.969440     -2420.9815
   1   2.0000     -88.961753     -2420.7724
   2   2.0000     -10.330157      -281.0979
   3   2.0000     -10.328297      -281.0473
   4   2.0000     -10.321122      -280.8520
   5   2.0000     -10.317609      -280.7564
   6   2.0000     -10.310937      -280.5749
   7   2.0000     -10.301958      -280.3305
   8   2.0000     -10.298924      -280.2480
   9   2.0000     -10.297172      -280.2003
  10   2.0000     -10.294438      -280.1259
  11   2.0000     -10.290146      -280.0091
  12   2.0000     -10.287133      -279.9271
  13   2.0000     -10.285913      -279.8939
  14   2.0000     -10.279956      -279.7318
  15   2.0000     -10.272434      -279.5271
  16   2.0000      -8.084356      -219.9865
  17   2.0000      -8.076699      -219.7782
  18   2.0000      -6.042898      -164.4356
  19   2.0000      -6.038635      -164.3196
  20   2.0000      -6.035253      -164.2276
  21   2.0000      -6.035202      -164.2262
  22   2.0000      -6.030951      -164.1105
  23   2.0000      -6.027651      -164.0207
  24   2.0000      -1.011271       -27.5181
  25   2.0000      -0.986424       -26.8420
  26   2.0000      -0.923744       -25.1364
  27   2.0000      -0.900576       -24.5059
  28   2.0000      -0.874799       -23.8045
  29   2.0000      -0.852726       -23.2038
  30   2.0000      -0.841025       -22.8855
  31   2.0000      -0.811195       -22.0737
  32   2.0000      -0.783684       -21.3251
  33   2.0000      -0.772730       -21.0271
  34   2.0000      -0.711929       -19.3726
  35   2.0000      -0.701105       -19.0780
  36   2.0000      -0.688415       -18.7327
  37   2.0000      -0.669919       -18.2294
  38   2.0000      -0.633834       -17.2475
  39   2.0000      -0.613142       -16.6844
  40   2.0000      -0.592916       -16.1341
  41   2.0000      -0.579191       -15.7606
  42   2.0000      -0.575384       -15.6570
  43   2.0000      -0.559361       -15.2210
  44   2.0000      -0.525063       -14.2877
  45   2.0000      -0.520147       -14.1539
  46   2.0000      -0.517722       -14.0879
  47   2.0000      -0.514839       -14.0095
  48   2.0000      -0.508504       -13.8371
  49   2.0000      -0.503229       -13.6936
  50   2.0000      -0.490967       -13.3599
  51   2.0000      -0.485946       -13.2233
  52   2.0000      -0.476029       -12.9534
  53   2.0000      -0.464192       -12.6313
  54   2.0000      -0.459789       -12.5115
  55   2.0000      -0.449271       -12.2253
  56   2.0000      -0.442215       -12.0333
  57   2.0000      -0.434195       -11.8150
  58   2.0000      -0.428116       -11.6496
  59   2.0000      -0.420492       -11.4422
  60   2.0000      -0.416958       -11.3460
  61   2.0000      -0.416544       -11.3347
  62   2.0000      -0.408958       -11.1283
  63   2.0000      -0.348056        -9.4711
  64   2.0000      -0.329461        -8.9651
  65   2.0000      -0.326863        -8.8944
  66   2.0000      -0.296508        -8.0684
  67   0.0000       0.031246         0.8503
  68   0.0000       0.068623         1.8673
  69   0.0000       0.115058         3.1309
  70   0.0000       0.122560         3.3350
  71   0.0000       0.128005         3.4832

MULLIKEN ATOMIC CHARGES
-----------------------
   0 S :    0.123864
   1 C :   -0.131027
   2 C :   -0.086737
   3 C :   -0.024567
   4 C :   -0.141363
   5 H :    0.044579
   6 C :    0.069980
   7 H :    0.023804
   8 H :    0.022664
   9 C :   -0.088093
  10 H :    0.036227
  11 H :    0.028845
  12 C :   -0.012544
  13 H :    0.025362
  14 H :    0.018682
  15 H :    0.030450
  16 S :    0.093380
  17 C :   -0.089124
  18 C :   -0.013493
  19 C :   -0.042212
  20 C :   -0.172910
  21 H :   -0.016302
  22 C :    0.097690
  23 H :    0.034965
  24 H :    0.021479
  25 C :   -0.104213
  26 H :    0.029628
  27 H :    0.046002
  28 C :   -0.061761
  29 H :    0.032093
  30 H :    0.029880
  31 H :    0.040750
  32 H :    0.061979
  33 H :    0.072043
Sum of atomic charges:   -0.0000000

LOEWDIN ATOMIC CHARGES
----------------------
   0 S :    0.437984
   1 C :   -0.218762
   2 C :   -0.068134
   3 C :   -0.082538
   4 C :   -0.222700
   5 H :    0.041852
   6 C :   -0.031193
   7 H :    0.028478
   8 H :    0.031398
   9 C :   -0.037124
  10 H :    0.028112
  11 H :    0.022435
  12 C :   -0.060966
  13 H :    0.022629
  14 H :    0.021644
  15 H :    0.033595
  16 S :    0.416103
  17 C :   -0.192194
  18 C :   -0.065052
  19 C :   -0.052521
  20 C :   -0.189408
  21 H :    0.012698
  22 C :   -0.029234
  23 H :    0.032301
  24 H :    0.029185
  25 C :   -0.048432
  26 H :    0.024602
  27 H :    0.031019
  28 C :   -0.071947
  29 H :    0.029435
  30 H :    0.024415
  31 H :    0.024311
  32 H :    0.040981
  33 H :    0.037029

  Mayer bond orders larger than 0.100000
B(  0-S ,  1-C ) :   1.1559 B(  0-S ,  4-C ) :   1.1501 B(  1-C ,  2-C ) :   1.5796
B(  1-C , 32-H ) :   0.9595 B(  2-C ,  3-C ) :   1.2745 B(  2-C ,  6-C ) :   1.0163
B(  3-C ,  4-C ) :   1.5697 B(  3-C ,  5-H ) :   0.9683 B(  4-C , 20-C ) :   1.0243
B(  6-C ,  7-H ) :   0.9344 B(  6-C ,  8-H ) :   0.9436 B(  6-C ,  9-C ) :   1.0619
B(  9-C , 10-H ) :   0.9455 B(  9-C , 11-H ) :   0.9588 B(  9-C , 12-C ) :   1.1038
B( 12-C , 13-H ) :   0.9719 B( 12-C , 14-H ) :   0.9677 B( 12-C , 15-H ) :   0.9675
B( 16-S , 17-C ) :   1.1631 B( 16-S , 20-C ) :   1.1533 B( 17-C , 18-C ) :   1.5704
B( 17-C , 20-C ) :   0.1022 B( 17-C , 33-H ) :   0.9726 B( 18-C , 19-C ) :   1.2501
B( 18-C , 21-H ) :   1.0034 B( 19-C , 20-C ) :   1.5769 B( 19-C , 22-C ) :   1.0358
B( 22-C , 23-H ) :   0.9414 B( 22-C , 24-H ) :   0.9306 B( 22-C , 25-C ) :   1.0495
B( 25-C , 26-H ) :   0.9561 B( 25-C , 27-H ) :   0.9622 B( 25-C , 28-C ) :   1.0679
B( 28-C , 29-H ) :   0.9758 B( 28-C , 30-H ) :   0.9766 B( 28-C , 31-H ) :   0.9774

Dispersion correction           -0.014011611
FINAL SINGLE POINT ENERGY     -1339.873643519041

DIPOLE MOMENT
-------------
                                X             Y             Z
Electronic contribution:     -9.07403      -8.03386      16.32193
Nuclear contribution   :      9.07077       8.21172     -16.63030
                        -----------------------------------------
Total Dipole Moment    :     -0.00327       0.17786      -0.30837
                        -----------------------------------------
Magnitude (a.u.)       :      0.35600
Magnitude (Debye)      :      0.90487

Rotational constants in cm-1:     0.020514     0.007745     0.006254
Rotational constants in MHz :   614.984443   232.192307   187.484357

                             ****ORCA TERMINATED NORMALLY****
TOTAL RUN TIME: 0 days 0 hours 0 minutes 28 seconds 106 msec
