                         Program Version 4.2.1 -  RELEASE  -
|  1> ! wB97X-D3 SP def2-SVP
|  2> %pal
|  3> nprocs 16
|  4> end
|  5>
|  6> * xyz 0 1
|  7> S 	 -72.9497 	 45.232 	 124.416
|  8> C 	 -73.6788 	 43.8099 	 125.17
|  9> C 	 -72.9174 	 43.324 	 126.24
| 10> C 	 -71.777 	 44.194 	 126.475
| 11> C 	 -71.762 	 45.2454 	 125.636
| 12> H 	 -71.0031 	 44.135 	 127.216
| 13> C 	 -73.2974 	 42.1128 	 127.147
| 14> H 	 -74.3972 	 42.0276 	 127.111
| 15> H 	 -73.1287 	 42.3881 	 128.201
| 16> C 	 -72.5807 	 40.844 	 126.828
| 17> H 	 -71.4988 	 41.0119 	 126.85
| 18> H 	 -72.759 	 40.3428 	 127.752
| 19> C 	 -72.9803 	 40.1935 	 125.576
| 20> H 	 -72.8792 	 40.9234 	 124.762
| 21> H 	 -72.5062 	 39.2156 	 125.367
| 22> H 	 -74.0704 	 39.951 	 125.576
| 23> S 	 -69.8311 	 46.5827 	 124.072
| 24> C 	 -68.7688 	 47.6347 	 124.906
| 25> C 	 -69.0644 	 47.8366 	 126.229
| 26> C 	 -70.1215 	 46.9532 	 126.631
| 27> C 	 -70.6936 	 46.2489 	 125.589
| 28> H 	 -68.6004 	 48.6575 	 126.822
| 29> C 	 -70.5632 	 46.8712 	 128.098
| 30> H 	 -69.5904 	 46.8196 	 128.53
| 31> H 	 -71.1134 	 45.939 	 128.244
| 32> C 	 -71.3498 	 48.0076 	 128.612
| 33> H 	 -70.8178 	 48.9373 	 128.215
| 34> H 	 -71.3844 	 48.1615 	 129.699
| 35> C 	 -72.7432 	 48.0556 	 128.11
| 36> H 	 -73.2671 	 48.9746 	 128.419
| 37> H 	 -73.3745 	 47.2561 	 128.501
| 38> H 	 -72.9118 	 47.9565 	 127.026
| 39> H 	 -74.6272 	 43.3715 	 124.87
| 40> H 	 -68.043 	 48.1661 	 124.428
| 41> *
| 42>
| 43>                          ****END OF INPUT****

CARTESIAN COORDINATES (ANGSTROEM)
---------------------------------
  S    -72.949700   45.232000  124.416000
  C    -73.678800   43.809900  125.170000
  C    -72.917400   43.324000  126.240000
  C    -71.777000   44.194000  126.475000
  C    -71.762000   45.245400  125.636000
  H    -71.003100   44.135000  127.216000
  C    -73.297400   42.112800  127.147000
  H    -74.397200   42.027600  127.111000
  H    -73.128700   42.388100  128.201000
  C    -72.580700   40.844000  126.828000
  H    -71.498800   41.011900  126.850000
  H    -72.759000   40.342800  127.752000
  C    -72.980300   40.193500  125.576000
  H    -72.879200   40.923400  124.762000
  H    -72.506200   39.215600  125.367000
  H    -74.070400   39.951000  125.576000
  S    -69.831100   46.582700  124.072000
  C    -68.768800   47.634700  124.906000
  C    -69.064400   47.836600  126.229000
  C    -70.121500   46.953200  126.631000
  C    -70.693600   46.248900  125.589000
  H    -68.600400   48.657500  126.822000
  C    -70.563200   46.871200  128.098000
  H    -69.590400   46.819600  128.530000
  H    -71.113400   45.939000  128.244000
  C    -71.349800   48.007600  128.612000
  H    -70.817800   48.937300  128.215000
  H    -71.384400   48.161500  129.699000
  C    -72.743200   48.055600  128.110000
  H    -73.267100   48.974600  128.419000
  H    -73.374500   47.256100  128.501000
  H    -72.911800   47.956500  127.026000
  H    -74.627200   43.371500  124.870000
  H    -68.043000   48.166100  124.428000

 Total Charge           Charge          ....    0
 Multiplicity           Mult            ....    1
 Number of Electrons    NEL             ....  134
 Basis Dimension        Dim             ....  322

ORBITAL ENERGIES
----------------

  NO   OCC          E(Eh)            E(eV)
   0   2.0000     -88.967519     -2420.9293
   1   2.0000     -88.965151     -2420.8648
   2   2.0000     -10.323751      -280.9235
   3   2.0000     -10.322050      -280.8773
   4   2.0000     -10.316722      -280.7323
   5   2.0000     -10.308097      -280.4976
   6   2.0000     -10.307802      -280.4895
   7   2.0000     -10.301550      -280.3194
   8   2.0000     -10.296644      -280.1859
   9   2.0000     -10.295802      -280.1630
  10   2.0000     -10.290314      -280.0137
  11   2.0000     -10.284207      -279.8475
  12   2.0000     -10.283914      -279.8395
  13   2.0000     -10.278301      -279.6868
  14   2.0000     -10.277244      -279.6580
  15   2.0000     -10.268389      -279.4171
  16   2.0000      -8.082916      -219.9473
  17   2.0000      -8.080351      -219.8775
  18   2.0000      -6.041325      -164.3928
  19   2.0000      -6.038843      -164.3253
  20   2.0000      -6.037438      -164.2870
  21   2.0000      -6.034841      -164.2164
  22   2.0000      -6.033648      -164.1839
  23   2.0000      -6.031076      -164.1139
  24   2.0000      -1.010953       -27.5094
  25   2.0000      -0.986625       -26.8474
  26   2.0000      -0.921688       -25.0804
  27   2.0000      -0.918215       -24.9859
  28   2.0000      -0.869259       -23.6537
  29   2.0000      -0.854545       -23.2534
  30   2.0000      -0.845850       -23.0167
  31   2.0000      -0.813572       -22.1384
  32   2.0000      -0.788080       -21.4447
  33   2.0000      -0.777598       -21.1595
  34   2.0000      -0.705655       -19.2018
  35   2.0000      -0.694600       -18.9010
  36   2.0000      -0.693489       -18.8708
  37   2.0000      -0.656987       -17.8775
  38   2.0000      -0.644453       -17.5365
  39   2.0000      -0.620063       -16.8728
  40   2.0000      -0.598178       -16.2772
  41   2.0000      -0.573804       -15.6140
  42   2.0000      -0.562629       -15.3099
  43   2.0000      -0.554254       -15.0820
  44   2.0000      -0.542521       -14.7627
  45   2.0000      -0.537846       -14.6355
  46   2.0000      -0.517432       -14.0801
  47   2.0000      -0.509878       -13.8745
  48   2.0000      -0.506998       -13.7961
  49   2.0000      -0.495937       -13.4951
  50   2.0000      -0.487919       -13.2769
  51   2.0000      -0.481359       -13.0984
  52   2.0000      -0.470084       -12.7916
  53   2.0000      -0.461455       -12.5568
  54   2.0000      -0.458856       -12.4861
  55   2.0000      -0.449373       -12.2281
  56   2.0000      -0.447014       -12.1639
  57   2.0000      -0.441245       -12.0069
  58   2.0000      -0.436907       -11.8888
  59   2.0000      -0.426165       -11.5965
  60   2.0000      -0.420643       -11.4463
  61   2.0000      -0.407031       -11.0759
  62   2.0000      -0.400484       -10.8977
  63   2.0000      -0.350507        -9.5378
  64   2.0000      -0.332738        -9.0543
  65   2.0000      -0.331752        -9.0274
  66   2.0000      -0.291508        -7.9323
  67   0.0000       0.037666         1.0249
  68   0.0000       0.071006         1.9322
  69   0.0000       0.107024         2.9123
  70   0.0000       0.119064         3.2399
  71   0.0000       0.132871         3.6156

MULLIKEN ATOMIC CHARGES
-----------------------
   0 S :    0.110469
   1 C :   -0.121567
   2 C :   -0.090682
   3 C :    0.024784
   4 C :   -0.152648
   5 H :    0.015308
   6 C :    0.025274
   7 H :    0.023858
   8 H :    0.027908
   9 C :   -0.021100
  10 H :    0.025042
  11 H :    0.016095
  12 C :   -0.039364
  13 H :    0.039206
  14 H :    0.044286
  15 H :    0.016571
  16 S :    0.108987
  17 C :   -0.049101
  18 C :   -0.049073
  19 C :   -0.100195
  20 C :   -0.137424
  21 H :    0.041811
  22 C :    0.126939
  23 H :    0.020458
  24 H :    0.007687
  25 C :   -0.052238
  26 H :    0.019706
  27 H :    0.034589
  28 C :   -0.065075
  29 H :    0.028988
  30 H :    0.019665
  31 H :    0.037411
  32 H :    0.045840
  33 H :    0.017586
Sum of atomic charges:    0.0000000

LOEWDIN ATOMIC CHARGES
----------------------
   0 S :    0.412433
   1 C :   -0.198427
   2 C :   -0.054182
   3 C :   -0.065246
   4 C :   -0.200590
   5 H :    0.029763
   6 C :   -0.028133
   7 H :    0.030600
   8 H :    0.032899
   9 C :   -0.049919
  10 H :    0.027967
  11 H :    0.023113
  12 C :   -0.069291
  13 H :    0.030595
  14 H :    0.031497
  15 H :    0.026129
  16 S :    0.403548
  17 C :   -0.174680
  18 C :   -0.076244
  19 C :   -0.052416
  20 C :   -0.197263
  21 H :    0.042075
  22 C :   -0.030048
  23 H :    0.031028
  24 H :    0.026197
  25 C :   -0.048820
  26 H :    0.028748
  27 H :    0.028662
  28 C :   -0.072431
  29 H :    0.027604
  30 H :    0.022779
  31 H :    0.028226
  32 H :    0.025997
  33 H :    0.007831

  Mayer bond orders larger than 0.100000
B(  0-S ,  1-C ) :   1.1232 B(  0-S ,  4-C ) :   1.1491 B(  1-C ,  2-C ) :   1.6328
B(  1-C , 32-H ) :   0.9688 B(  2-C ,  3-C ) :   1.2052 B(  2-C ,  6-C ) :   1.0077
B(  3-C ,  4-C ) :   1.6177 B(  3-C ,  5-H ) :   0.9886 B(  4-C , 20-C ) :   1.0082
B(  6-C ,  7-H ) :   0.9440 B(  6-C ,  8-H ) :   0.9461 B(  6-C ,  9-C ) :   1.0718
B(  9-C , 10-H ) :   0.9484 B(  9-C , 11-H ) :   0.9487 B(  9-C , 12-C ) :   1.0803
B( 12-C , 13-H ) :   0.9698 B( 12-C , 14-H ) :   0.9710 B( 12-C , 15-H ) :   0.9697
B( 16-S , 17-C ) :   1.1648 B( 16-S , 20-C ) :   1.1202 B( 17-C , 18-C ) :   1.6233
B( 17-C , 33-H ) :   0.9738 B( 18-C , 19-C ) :   1.2275 B( 18-C , 21-H ) :   0.9821
B( 19-C , 20-C ) :   1.6342 B( 19-C , 22-C ) :   1.0230 B( 22-C , 23-H ) :   0.9204
B( 22-C , 24-H ) :   0.9282 B( 22-C , 25-C ) :   1.0860 B( 25-C , 26-H ) :   0.9487
B( 25-C , 27-H ) :   0.9503 B( 25-C , 28-C ) :   1.0861 B( 28-C , 29-H ) :   0.9706
B( 28-C , 30-H ) :   0.9690 B( 28-C , 31-H ) :   0.9734

Dispersion correction           -0.015130278
FINAL SINGLE POINT ENERGY     -1339.880494599102

DIPOLE MOMENT
-------------
                                X             Y             Z
Electronic contribution:      7.24849       9.91423     -18.27620
Nuclear contribution   :     -7.24087     -10.05512      18.86975
                        -----------------------------------------
Total Dipole Moment    :      0.00762      -0.14089       0.59355
                        -----------------------------------------
Magnitude (a.u.)       :      0.61009
Magnitude (Debye)      :      1.55072

Rotational constants in cm-1:     0.021053     0.008434     0.007349
Rotational constants in MHz :   631.150012   252.854068   220.306857

                             ****ORCA TERMINATED NORMALLY****
TOTAL RUN TIME: 0 days 0 hours 0 minutes 35 seconds 777 msec
