                         Program Version 4.2.1 -  RELEASE  -
|  1> ! wB97X-D3 SP def2-SVP
|  2> %pal
|  3> nprocs 16
|  4> end
|  5>
|  6> * xyz 0 1
|  7> S 	 17.0039 	 -8.77336 	 83.9856
|  8> C 	 16.4519 	 -9.69858 	 82.6699
|  9> C 	 16.1742 	 -10.9935 	 83.1017
| 10> C 	 16.3948 	 -11.2301 	 84.5157
| 11> C 	 16.8358 	 -10.0525 	 85.1084
| 12> H 	 16.2041 	 -12.1558 	 85.0522
| 13> C 	 15.6839 	 -12.1883 	 82.2753
| 14> H 	 15.2444 	 -11.863 	 81.3305
| 15> H 	 14.8996 	 -12.6991 	 82.8698
| 16> C 	 16.8571 	 -13.1751 	 81.9318
| 17> H 	 17.6394 	 -12.7056 	 81.2697
| 18> H 	 17.4233 	 -13.5063 	 82.7992
| 19> C 	 16.4046 	 -14.4418 	 81.1471
| 20> H 	 16.0921 	 -14.1726 	 80.1114
| 21> H 	 17.1685 	 -15.2011 	 80.9788
| 22> H 	 15.5869 	 -14.7122 	 81.742
| 23> S 	 16.216 	 -8.40639 	 87.2707
| 24> C 	 16.8835 	 -8.79932 	 88.8466
| 25> C 	 17.8809 	 -9.71835 	 88.8112
| 26> C 	 17.857 	 -10.3992 	 87.5277
| 27> C 	 17.0755 	 -9.75653 	 86.5619
| 28> H 	 18.4406 	 -9.99512 	 89.7185
| 29> C 	 18.5778 	 -11.7641 	 87.4061
| 30> H 	 18.2236 	 -12.2076 	 86.4438
| 31> H 	 18.378 	 -12.3496 	 88.3744
| 32> C 	 20.1515 	 -11.6046 	 87.2132
| 33> H 	 20.5413 	 -10.9826 	 88.0388
| 34> H 	 20.4105 	 -11.1318 	 86.2369
| 35> C 	 20.7766 	 -12.9894 	 87.1185
| 36> H 	 21.8639 	 -12.9254 	 87.2455
| 37> H 	 20.5528 	 -13.3389 	 86.0926
| 38> H 	 20.4462 	 -13.7402 	 87.8351
| 39> H 	 16.426 	 -9.43369 	 81.6446
| 40> H 	 16.7027 	 -8.19921 	 89.7354
| 41> *
| 42>
| 43>                          ****END OF INPUT****

CARTESIAN COORDINATES (ANGSTROEM)
---------------------------------
  S     17.003900   -8.773360   83.985600
  C     16.451900   -9.698580   82.669900
  C     16.174200  -10.993500   83.101700
  C     16.394800  -11.230100   84.515700
  C     16.835800  -10.052500   85.108400
  H     16.204100  -12.155800   85.052200
  C     15.683900  -12.188300   82.275300
  H     15.244400  -11.863000   81.330500
  H     14.899600  -12.699100   82.869800
  C     16.857100  -13.175100   81.931800
  H     17.639400  -12.705600   81.269700
  H     17.423300  -13.506300   82.799200
  C     16.404600  -14.441800   81.147100
  H     16.092100  -14.172600   80.111400
  H     17.168500  -15.201100   80.978800
  H     15.586900  -14.712200   81.742000
  S     16.216000   -8.406390   87.270700
  C     16.883500   -8.799320   88.846600
  C     17.880900   -9.718350   88.811200
  C     17.857000  -10.399200   87.527700
  C     17.075500   -9.756530   86.561900
  H     18.440600   -9.995120   89.718500
  C     18.577800  -11.764100   87.406100
  H     18.223600  -12.207600   86.443800
  H     18.378000  -12.349600   88.374400
  C     20.151500  -11.604600   87.213200
  H     20.541300  -10.982600   88.038800
  H     20.410500  -11.131800   86.236900
  C     20.776600  -12.989400   87.118500
  H     21.863900  -12.925400   87.245500
  H     20.552800  -13.338900   86.092600
  H     20.446200  -13.740200   87.835100
  H     16.426000   -9.433690   81.644600
  H     16.702700   -8.199210   89.735400

 Total Charge           Charge          ....    0
 Multiplicity           Mult            ....    1
 Number of Electrons    NEL             ....  134
 Basis Dimension        Dim             ....  322

ORBITAL ENERGIES
----------------

  NO   OCC          E(Eh)            E(eV)
   0   2.0000     -88.967962     -2420.9413
   1   2.0000     -88.964728     -2420.8533
   2   2.0000     -10.332629      -281.1651
   3   2.0000     -10.329384      -281.0768
   4   2.0000     -10.315613      -280.7021
   5   2.0000     -10.309534      -280.5367
   6   2.0000     -10.307249      -280.4745
   7   2.0000     -10.304765      -280.4069
   8   2.0000     -10.304051      -280.3875
   9   2.0000     -10.299641      -280.2675
  10   2.0000     -10.296969      -280.1948
  11   2.0000     -10.296119      -280.1716
  12   2.0000     -10.291284      -280.0401
  13   2.0000     -10.291253      -280.0392
  14   2.0000     -10.277977      -279.6780
  15   2.0000     -10.276746      -279.6445
  16   2.0000      -8.084019      -219.9774
  17   2.0000      -8.079497      -219.8543
  18   2.0000      -6.042437      -164.4231
  19   2.0000      -6.038181      -164.3072
  20   2.0000      -6.038109      -164.3053
  21   2.0000      -6.034952      -164.2194
  22   2.0000      -6.034082      -164.1957
  23   2.0000      -6.030056      -164.0862
  24   2.0000      -1.009683       -27.4749
  25   2.0000      -0.986547       -26.8453
  26   2.0000      -0.905529       -24.6407
  27   2.0000      -0.899681       -24.4816
  28   2.0000      -0.867349       -23.6018
  29   2.0000      -0.851336       -23.1660
  30   2.0000      -0.845549       -23.0086
  31   2.0000      -0.816222       -22.2105
  32   2.0000      -0.777155       -21.1475
  33   2.0000      -0.764200       -20.7949
  34   2.0000      -0.699147       -19.0248
  35   2.0000      -0.693943       -18.8831
  36   2.0000      -0.686647       -18.6846
  37   2.0000      -0.659511       -17.9462
  38   2.0000      -0.643832       -17.5196
  39   2.0000      -0.620774       -16.8921
  40   2.0000      -0.589011       -16.0278
  41   2.0000      -0.571857       -15.5610
  42   2.0000      -0.566446       -15.4138
  43   2.0000      -0.558720       -15.2035
  44   2.0000      -0.528353       -14.3772
  45   2.0000      -0.521404       -14.1881
  46   2.0000      -0.514709       -14.0060
  47   2.0000      -0.510440       -13.8898
  48   2.0000      -0.505992       -13.7687
  49   2.0000      -0.497640       -13.5415
  50   2.0000      -0.487146       -13.2559
  51   2.0000      -0.483346       -13.1525
  52   2.0000      -0.470940       -12.8149
  53   2.0000      -0.463717       -12.6184
  54   2.0000      -0.457357       -12.4453
  55   2.0000      -0.451943       -12.2980
  56   2.0000      -0.444690       -12.1006
  57   2.0000      -0.431926       -11.7533
  58   2.0000      -0.431270       -11.7354
  59   2.0000      -0.424353       -11.5472
  60   2.0000      -0.420573       -11.4444
  61   2.0000      -0.413640       -11.2557
  62   2.0000      -0.410829       -11.1792
  63   2.0000      -0.350915        -9.5489
  64   2.0000      -0.329323        -8.9613
  65   2.0000      -0.325989        -8.8706
  66   2.0000      -0.293787        -7.9943
  67   0.0000       0.039222         1.0673
  68   0.0000       0.069488         1.8909
  69   0.0000       0.111821         3.0428
  70   0.0000       0.119140         3.2420
  71   0.0000       0.125524         3.4157

MULLIKEN ATOMIC CHARGES
-----------------------
   0 S :    0.125976
   1 C :   -0.090563
   2 C :   -0.109185
   3 C :    0.030188
   4 C :   -0.156197
   5 H :    0.027073
   6 C :    0.055954
   7 H :    0.019884
   8 H :    0.038097
   9 C :   -0.109953
  10 H :    0.030864
  11 H :    0.027558
  12 C :   -0.033807
  13 H :    0.029852
  14 H :    0.041809
  15 H :    0.019891
  16 S :    0.106467
  17 C :   -0.092089
  18 C :   -0.033935
  19 C :   -0.038590
  20 C :   -0.145051
  21 H :    0.036160
  22 C :    0.018469
  23 H :    0.025295
  24 H :    0.054687
  25 C :   -0.103848
  26 H :    0.033717
  27 H :    0.046207
  28 C :   -0.044062
  29 H :    0.035952
  30 H :    0.033658
  31 H :    0.028491
  32 H :    0.033992
  33 H :    0.057039
Sum of atomic charges:    0.0000000

LOEWDIN ATOMIC CHARGES
----------------------
   0 S :    0.448615
   1 C :   -0.219615
   2 C :   -0.057209
   3 C :   -0.069030
   4 C :   -0.200065
   5 H :    0.034642
   6 C :   -0.030759
   7 H :    0.027734
   8 H :    0.033323
   9 C :   -0.043710
  10 H :    0.025788
  11 H :    0.019037
  12 C :   -0.065778
  13 H :    0.026354
  14 H :    0.027743
  15 H :    0.015765
  16 S :    0.397272
  17 C :   -0.178424
  18 C :   -0.073932
  19 C :   -0.054301
  20 C :   -0.209714
  21 H :    0.038870
  22 C :   -0.035370
  23 H :    0.031447
  24 H :    0.041619
  25 C :   -0.042741
  26 H :    0.019411
  27 H :    0.033309
  28 C :   -0.071381
  29 H :    0.027292
  30 H :    0.028839
  31 H :    0.020685
  32 H :    0.025772
  33 H :    0.028511

  Mayer bond orders larger than 0.100000
B(  0-S ,  1-C ) :   1.1366 B(  0-S ,  4-C ) :   1.1955 B(  1-C ,  2-C ) :   1.6039
B(  1-C , 32-H ) :   0.9758 B(  2-C ,  3-C ) :   1.2411 B(  2-C ,  6-C ) :   1.0324
B(  3-C ,  4-C ) :   1.5551 B(  3-C ,  5-H ) :   0.9915 B(  4-C , 20-C ) :   0.9926
B(  6-C ,  7-H ) :   0.9438 B(  6-C ,  8-H ) :   0.9422 B(  6-C ,  9-C ) :   1.0513
B(  9-C , 10-H ) :   0.9592 B(  9-C , 11-H ) :   0.9609 B(  9-C , 12-C ) :   1.0688
B( 12-C , 13-H ) :   0.9768 B( 12-C , 14-H ) :   0.9755 B( 12-C , 15-H ) :   0.9775
B( 16-S , 17-C ) :   1.1472 B( 16-S , 20-C ) :   1.1306 B( 17-C , 18-C ) :   1.6559
B( 17-C , 33-H ) :   0.9613 B( 18-C , 19-C ) :   1.2062 B( 18-C , 21-H ) :   0.9814
B( 19-C , 20-C ) :   1.6339 B( 19-C , 22-C ) :   1.0340 B( 22-C , 23-H ) :   0.9356
B( 22-C , 24-H ) :   0.9432 B( 22-C , 25-C ) :   1.0596 B( 25-C , 26-H ) :   0.9623
B( 25-C , 27-H ) :   0.9583 B( 25-C , 28-C ) :   1.0736 B( 28-C , 29-H ) :   0.9735
B( 28-C , 30-H ) :   0.9768 B( 28-C , 31-H ) :   0.9748

Dispersion correction           -0.013525679
FINAL SINGLE POINT ENERGY     -1339.877564475182

DIPOLE MOMENT
-------------
                                X             Y             Z
Electronic contribution:    -10.76384      28.00227       8.36804
Nuclear contribution   :     10.99532     -28.55421      -8.32110
                        -----------------------------------------
Total Dipole Moment    :      0.23148      -0.55194       0.04693
                        -----------------------------------------
Magnitude (a.u.)       :      0.60035
Magnitude (Debye)      :      1.52597

Rotational constants in cm-1:     0.017098     0.008638     0.006381
Rotational constants in MHz :   512.579178   258.968555   191.301232

                             ****ORCA TERMINATED NORMALLY****
TOTAL RUN TIME: 0 days 0 hours 0 minutes 29 seconds 9 msec
