                         Program Version 4.2.1 -  RELEASE  -
|  1> ! wB97X-D3 SP def2-SVP
|  2> %pal
|  3> nprocs 16
|  4> end
|  5>
|  6> * xyz 0 1
|  7> S 	 54.4581 	 14.2426 	 76.7102
|  8> C 	 55.6531 	 15.1874 	 75.8503
|  9> C 	 56.8888 	 14.6478 	 75.9276
| 10> C 	 56.9675 	 13.4842 	 76.7519
| 11> C 	 55.7467 	 13.0782 	 77.2086
| 12> H 	 57.8563 	 12.9105 	 77.0843
| 13> C 	 58.0512 	 15.0098 	 75.0083
| 14> H 	 57.9351 	 15.8918 	 74.3866
| 15> H 	 58.0142 	 14.3062 	 74.1595
| 16> C 	 59.439 	 14.9328 	 75.589
| 17> H 	 59.697 	 13.887 	 75.6884
| 18> H 	 60.211 	 15.4632 	 74.9896
| 19> C 	 59.482 	 15.6883 	 76.8784
| 20> H 	 59.11 	 15.1674 	 77.7138
| 21> H 	 60.5228 	 15.8912 	 77.137
| 22> H 	 59.0675 	 16.6569 	 76.9056
| 23> S 	 54.4892 	 12.1236 	 79.6444
| 24> C 	 54.5947 	 10.4847 	 80.0375
| 25> C 	 55.3417 	 9.79729 	 79.1536
| 26> C 	 55.9319 	 10.6177 	 78.1174
| 27> C 	 55.3789 	 11.936 	 78.0896
| 28> H 	 55.6024 	 8.73325 	 79.264
| 29> C 	 56.8696 	 10.0089 	 77.1595
| 30> H 	 57.3782 	 9.15435 	 77.6293
| 31> H 	 57.6364 	 10.7632 	 77.0258
| 32> C 	 56.2699 	 9.48231 	 75.8681
| 33> H 	 55.7963 	 10.3255 	 75.3635
| 34> H 	 55.5244 	 8.73289 	 76.1343
| 35> C 	 57.3041 	 8.80199 	 75.0452
| 36> H 	 57.975 	 9.48021 	 74.5201
| 37> H 	 56.882 	 8.07059 	 74.3088
| 38> H 	 57.8931 	 8.10857 	 75.6052
| 39> H 	 55.3266 	 15.86 	 75.0616
| 40> H 	 54.1559 	 10.0387 	 80.8797
| 41> *
| 42>
| 43>                          ****END OF INPUT****

CARTESIAN COORDINATES (ANGSTROEM)
---------------------------------
  S     54.458100   14.242600   76.710200
  C     55.653100   15.187400   75.850300
  C     56.888800   14.647800   75.927600
  C     56.967500   13.484200   76.751900
  C     55.746700   13.078200   77.208600
  H     57.856300   12.910500   77.084300
  C     58.051200   15.009800   75.008300
  H     57.935100   15.891800   74.386600
  H     58.014200   14.306200   74.159500
  C     59.439000   14.932800   75.589000
  H     59.697000   13.887000   75.688400
  H     60.211000   15.463200   74.989600
  C     59.482000   15.688300   76.878400
  H     59.110000   15.167400   77.713800
  H     60.522800   15.891200   77.137000
  H     59.067500   16.656900   76.905600
  S     54.489200   12.123600   79.644400
  C     54.594700   10.484700   80.037500
  C     55.341700    9.797290   79.153600
  C     55.931900   10.617700   78.117400
  C     55.378900   11.936000   78.089600
  H     55.602400    8.733250   79.264000
  C     56.869600   10.008900   77.159500
  H     57.378200    9.154350   77.629300
  H     57.636400   10.763200   77.025800
  C     56.269900    9.482310   75.868100
  H     55.796300   10.325500   75.363500
  H     55.524400    8.732890   76.134300
  C     57.304100    8.801990   75.045200
  H     57.975000    9.480210   74.520100
  H     56.882000    8.070590   74.308800
  H     57.893100    8.108570   75.605200
  H     55.326600   15.860000   75.061600
  H     54.155900   10.038700   80.879700

 Total Charge           Charge          ....    0
 Multiplicity           Mult            ....    1
 Number of Electrons    NEL             ....  134
 Basis Dimension        Dim             ....  322

ORBITAL ENERGIES
----------------

  NO   OCC          E(Eh)            E(eV)
   0   2.0000     -88.965118     -2420.8639
   1   2.0000     -88.962550     -2420.7941
   2   2.0000     -10.338231      -281.3176
   3   2.0000     -10.334705      -281.2216
   4   2.0000     -10.311058      -280.5782
   5   2.0000     -10.309401      -280.5331
   6   2.0000     -10.305444      -280.4254
   7   2.0000     -10.303215      -280.3647
   8   2.0000     -10.299742      -280.2702
   9   2.0000     -10.290548      -280.0200
  10   2.0000     -10.289491      -279.9913
  11   2.0000     -10.286341      -279.9056
  12   2.0000     -10.284790      -279.8634
  13   2.0000     -10.282305      -279.7957
  14   2.0000     -10.275418      -279.6083
  15   2.0000     -10.261627      -279.2331
  16   2.0000      -8.080129      -219.8715
  17   2.0000      -8.076933      -219.7845
  18   2.0000      -6.038729      -164.3222
  19   2.0000      -6.035475      -164.2336
  20   2.0000      -6.034528      -164.2078
  21   2.0000      -6.031639      -164.1293
  22   2.0000      -6.030824      -164.1071
  23   2.0000      -6.027516      -164.0171
  24   2.0000      -1.004146       -27.3242
  25   2.0000      -0.987732       -26.8775
  26   2.0000      -0.920847       -25.0575
  27   2.0000      -0.917527       -24.9672
  28   2.0000      -0.871441       -23.7131
  29   2.0000      -0.854722       -23.2582
  30   2.0000      -0.844780       -22.9876
  31   2.0000      -0.819001       -22.2862
  32   2.0000      -0.786848       -21.4112
  33   2.0000      -0.773538       -21.0490
  34   2.0000      -0.711075       -19.3493
  35   2.0000      -0.698581       -19.0094
  36   2.0000      -0.692538       -18.8449
  37   2.0000      -0.656696       -17.8696
  38   2.0000      -0.644044       -17.5253
  39   2.0000      -0.626558       -17.0495
  40   2.0000      -0.601250       -16.3609
  41   2.0000      -0.575061       -15.6482
  42   2.0000      -0.566943       -15.4273
  43   2.0000      -0.556514       -15.1435
  44   2.0000      -0.545008       -14.8304
  45   2.0000      -0.528383       -14.3780
  46   2.0000      -0.520547       -14.1648
  47   2.0000      -0.514117       -13.9898
  48   2.0000      -0.508435       -13.8352
  49   2.0000      -0.501864       -13.6564
  50   2.0000      -0.487992       -13.2790
  51   2.0000      -0.482033       -13.1168
  52   2.0000      -0.474054       -12.8997
  53   2.0000      -0.463013       -12.5992
  54   2.0000      -0.458554       -12.4779
  55   2.0000      -0.455607       -12.3977
  56   2.0000      -0.440365       -11.9829
  57   2.0000      -0.428639       -11.6639
  58   2.0000      -0.425720       -11.5844
  59   2.0000      -0.423225       -11.5165
  60   2.0000      -0.419402       -11.4125
  61   2.0000      -0.418490       -11.3877
  62   2.0000      -0.414514       -11.2795
  63   2.0000      -0.354867        -9.6564
  64   2.0000      -0.329047        -8.9538
  65   2.0000      -0.327288        -8.9060
  66   2.0000      -0.293181        -7.9779
  67   0.0000       0.026960         0.7336
  68   0.0000       0.068220         1.8563
  69   0.0000       0.111266         3.0277
  70   0.0000       0.114035         3.1030
  71   0.0000       0.130509         3.5513

MULLIKEN ATOMIC CHARGES
-----------------------
   0 S :    0.084562
   1 C :   -0.114064
   2 C :   -0.063863
   3 C :    0.005805
   4 C :   -0.170281
   5 H :    0.042476
   6 C :    0.059238
   7 H :    0.009158
   8 H :    0.031844
   9 C :   -0.080308
  10 H :    0.028771
  11 H :    0.037148
  12 C :   -0.014501
  13 H :    0.017600
  14 H :    0.013722
  15 H :    0.020652
  16 S :    0.106253
  17 C :   -0.051740
  18 C :   -0.033598
  19 C :   -0.079765
  20 C :   -0.110946
  21 H :    0.023268
  22 C :    0.054611
  23 H :    0.010263
  24 H :    0.001472
  25 C :   -0.031156
  26 H :    0.039254
  27 H :    0.023397
  28 C :   -0.029524
  29 H :    0.032818
  30 H :    0.030753
  31 H :    0.008057
  32 H :    0.058612
  33 H :    0.040009
Sum of atomic charges:   -0.0000000

LOEWDIN ATOMIC CHARGES
----------------------
   0 S :    0.372520
   1 C :   -0.192157
   2 C :   -0.061350
   3 C :   -0.067449
   4 C :   -0.162946
   5 H :    0.039850
   6 C :   -0.039136
   7 H :    0.027850
   8 H :    0.035329
   9 C :   -0.045276
  10 H :    0.021997
  11 H :    0.034947
  12 C :   -0.063353
  13 H :    0.018250
  14 H :    0.025145
  15 H :    0.023245
  16 S :    0.414065
  17 C :   -0.190675
  18 C :   -0.080708
  19 C :   -0.046363
  20 C :   -0.200851
  21 H :    0.034150
  22 C :   -0.038968
  23 H :    0.030249
  24 H :    0.024687
  25 C :   -0.034695
  26 H :    0.029645
  27 H :    0.027819
  28 C :   -0.068144
  29 H :    0.025133
  30 H :    0.032321
  31 H :    0.018863
  32 H :    0.031330
  33 H :    0.024674

  Mayer bond orders larger than 0.100000
B(  0-S ,  1-C ) :   1.1173 B(  0-S ,  4-C ) :   1.1380 B(  1-C ,  2-C ) :   1.6725
B(  1-C , 32-H ) :   0.9600 B(  2-C ,  3-C ) :   1.1897 B(  2-C ,  6-C ) :   1.0134
B(  3-C ,  4-C ) :   1.6354 B(  3-C ,  5-H ) :   0.9739 B(  4-C , 20-C ) :   1.0354
B(  6-C ,  7-H ) :   0.9411 B(  6-C ,  8-H ) :   0.9378 B(  6-C ,  9-C ) :   1.0795
B(  9-C , 10-H ) :   0.9473 B(  9-C , 11-H ) :   0.9572 B(  9-C , 12-C ) :   1.0934
B( 12-C , 13-H ) :   0.9662 B( 12-C , 14-H ) :   0.9723 B( 12-C , 15-H ) :   0.9715
B( 16-S , 17-C ) :   1.1726 B( 16-S , 20-C ) :   1.1257 B( 17-C , 18-C ) :   1.5906
B( 17-C , 33-H ) :   0.9701 B( 18-C , 19-C ) :   1.2631 B( 18-C , 21-H ) :   0.9852
B( 19-C , 20-C ) :   1.5554 B( 19-C , 22-C ) :   1.0657 B( 22-C , 23-H ) :   0.9257
B( 22-C , 24-H ) :   0.9206 B( 22-C , 25-C ) :   1.0758 B( 25-C , 26-H ) :   0.9521
B( 25-C , 27-H ) :   0.9492 B( 25-C , 28-C ) :   1.0922 B( 28-C , 29-H ) :   0.9737
B( 28-C , 30-H ) :   0.9713 B( 28-C , 31-H ) :   0.9673

Dispersion correction           -0.014441530
FINAL SINGLE POINT ENERGY     -1339.871284065960

DIPOLE MOMENT
-------------
                                X             Y             Z
Electronic contribution:    -22.90696       5.91891      14.32926
Nuclear contribution   :     23.53967      -6.33414     -14.64948
                        -----------------------------------------
Total Dipole Moment    :      0.63271      -0.41523      -0.32022
                        -----------------------------------------
Magnitude (a.u.)       :      0.82175
Magnitude (Debye)      :      2.08873

Rotational constants in cm-1:     0.016833     0.009364     0.007389
Rotational constants in MHz :   504.648377   280.734413   221.508446

                             ****ORCA TERMINATED NORMALLY****
TOTAL RUN TIME: 0 days 0 hours 0 minutes 31 seconds 433 msec
