                         Program Version 4.2.1 -  RELEASE  -
|  1> ! wB97X-D3 SP def2-SVP
|  2> %pal
|  3> nprocs 16
|  4> end
|  5>
|  6> * xyz 0 1
|  7> S 	 -43.9699 	 31.6446 	 82.2271
|  8> C 	 -45.0708 	 32.4734 	 81.197
|  9> C 	 -44.6796 	 32.4017 	 79.852
| 10> C 	 -43.508 	 31.6375 	 79.7445
| 11> C 	 -42.961 	 31.1257 	 80.903
| 12> H 	 -42.9409 	 31.3812 	 78.8293
| 13> C 	 -45.3358 	 32.9873 	 78.6271
| 14> H 	 -44.9667 	 33.989 	 78.6024
| 15> H 	 -46.3958 	 32.9143 	 78.9321
| 16> C 	 -45.1077 	 32.3454 	 77.237
| 17> H 	 -44.0241 	 32.1884 	 77.1015
| 18> H 	 -45.5139 	 31.3418 	 77.1865
| 19> C 	 -45.579 	 33.2136 	 76.0461
| 20> H 	 -46.6673 	 33.4253 	 76.0949
| 21> H 	 -45.007 	 34.1755 	 76.0586
| 22> H 	 -45.4251 	 32.7679 	 75.0794
| 23> S 	 -40.3179 	 30.4811 	 80.9018
| 24> C 	 -39.8613 	 28.8167 	 80.9985
| 25> C 	 -40.886 	 28.0322 	 81.4652
| 26> C 	 -42.0931 	 28.7532 	 81.521
| 27> C 	 -41.9966 	 30.0456 	 81.0508
| 28> H 	 -40.6264 	 26.9991 	 81.7179
| 29> C 	 -43.3596 	 28.1022 	 82.1786
| 30> H 	 -44.1122 	 28.8922 	 82.5755
| 31> H 	 -42.9652 	 27.7998 	 83.1588
| 32> C 	 -44.0875 	 27.0192 	 81.3434
| 33> H 	 -44.5699 	 26.2854 	 82.0438
| 34> H 	 -43.4295 	 26.346 	 80.7457
| 35> C 	 -45.1112 	 27.7555 	 80.4995
| 36> H 	 -44.6273 	 28.4236 	 79.7959
| 37> H 	 -45.7883 	 28.4597 	 81.006
| 38> H 	 -45.7 	 26.9562 	 80.028
| 39> H 	 -46.0407 	 32.8174 	 81.4731
| 40> H 	 -38.832 	 28.4786 	 80.9197
| 41> *
| 42>
| 43>                          ****END OF INPUT****

CARTESIAN COORDINATES (ANGSTROEM)
---------------------------------
  S    -43.969900   31.644600   82.227100
  C    -45.070800   32.473400   81.197000
  C    -44.679600   32.401700   79.852000
  C    -43.508000   31.637500   79.744500
  C    -42.961000   31.125700   80.903000
  H    -42.940900   31.381200   78.829300
  C    -45.335800   32.987300   78.627100
  H    -44.966700   33.989000   78.602400
  H    -46.395800   32.914300   78.932100
  C    -45.107700   32.345400   77.237000
  H    -44.024100   32.188400   77.101500
  H    -45.513900   31.341800   77.186500
  C    -45.579000   33.213600   76.046100
  H    -46.667300   33.425300   76.094900
  H    -45.007000   34.175500   76.058600
  H    -45.425100   32.767900   75.079400
  S    -40.317900   30.481100   80.901800
  C    -39.861300   28.816700   80.998500
  C    -40.886000   28.032200   81.465200
  C    -42.093100   28.753200   81.521000
  C    -41.996600   30.045600   81.050800
  H    -40.626400   26.999100   81.717900
  C    -43.359600   28.102200   82.178600
  H    -44.112200   28.892200   82.575500
  H    -42.965200   27.799800   83.158800
  C    -44.087500   27.019200   81.343400
  H    -44.569900   26.285400   82.043800
  H    -43.429500   26.346000   80.745700
  C    -45.111200   27.755500   80.499500
  H    -44.627300   28.423600   79.795900
  H    -45.788300   28.459700   81.006000
  H    -45.700000   26.956200   80.028000
  H    -46.040700   32.817400   81.473100
  H    -38.832000   28.478600   80.919700

 Total Charge           Charge          ....    0
 Multiplicity           Mult            ....    1
 Number of Electrons    NEL             ....  134
 Basis Dimension        Dim             ....  322

ORBITAL ENERGIES
----------------

  NO   OCC          E(Eh)            E(eV)
   0   2.0000     -88.966707     -2420.9072
   1   2.0000     -88.961638     -2420.7692
   2   2.0000     -10.323259      -280.9101
   3   2.0000     -10.322692      -280.8947
   4   2.0000     -10.313668      -280.6492
   5   2.0000     -10.313074      -280.6330
   6   2.0000     -10.304801      -280.4079
   7   2.0000     -10.301003      -280.3045
   8   2.0000     -10.296638      -280.1858
   9   2.0000     -10.294368      -280.1240
  10   2.0000     -10.292268      -280.0668
  11   2.0000     -10.291683      -280.0509
  12   2.0000     -10.291033      -280.0332
  13   2.0000     -10.290254      -280.0121
  14   2.0000     -10.285184      -279.8741
  15   2.0000     -10.271407      -279.4992
  16   2.0000      -8.081483      -219.9083
  17   2.0000      -8.077223      -219.7924
  18   2.0000      -6.039818      -164.3518
  19   2.0000      -6.035743      -164.2409
  20   2.0000      -6.035566      -164.2361
  21   2.0000      -6.032660      -164.1570
  22   2.0000      -6.031808      -164.1339
  23   2.0000      -6.027909      -164.0278
  24   2.0000      -1.011293       -27.5187
  25   2.0000      -0.990630       -26.9564
  26   2.0000      -0.911370       -24.7996
  27   2.0000      -0.900553       -24.5053
  28   2.0000      -0.871279       -23.7087
  29   2.0000      -0.850371       -23.1398
  30   2.0000      -0.845035       -22.9946
  31   2.0000      -0.815472       -22.1901
  32   2.0000      -0.779512       -21.2116
  33   2.0000      -0.767468       -20.8839
  34   2.0000      -0.711771       -19.3683
  35   2.0000      -0.697891       -18.9906
  36   2.0000      -0.689090       -18.7511
  37   2.0000      -0.659555       -17.9474
  38   2.0000      -0.638417       -17.3722
  39   2.0000      -0.618990       -16.8436
  40   2.0000      -0.592963       -16.1353
  41   2.0000      -0.576592       -15.6899
  42   2.0000      -0.564839       -15.3700
  43   2.0000      -0.552036       -15.0217
  44   2.0000      -0.527892       -14.3647
  45   2.0000      -0.524795       -14.2804
  46   2.0000      -0.515344       -14.0232
  47   2.0000      -0.510662       -13.8958
  48   2.0000      -0.500458       -13.6182
  49   2.0000      -0.499005       -13.5786
  50   2.0000      -0.490403       -13.3445
  51   2.0000      -0.480905       -13.0861
  52   2.0000      -0.470276       -12.7969
  53   2.0000      -0.463984       -12.6257
  54   2.0000      -0.455170       -12.3858
  55   2.0000      -0.451411       -12.2835
  56   2.0000      -0.443081       -12.0568
  57   2.0000      -0.434286       -11.8175
  58   2.0000      -0.433097       -11.7852
  59   2.0000      -0.425700       -11.5839
  60   2.0000      -0.414558       -11.2807
  61   2.0000      -0.413575       -11.2539
  62   2.0000      -0.402906       -10.9636
  63   2.0000      -0.336904        -9.1676
  64   2.0000      -0.332125        -9.0376
  65   2.0000      -0.322020        -8.7626
  66   2.0000      -0.302403        -8.2288
  67   0.0000       0.032320         0.8795
  68   0.0000       0.065441         1.7807
  69   0.0000       0.106207         2.8900
  70   0.0000       0.132366         3.6019
  71   0.0000       0.134796         3.6680

MULLIKEN ATOMIC CHARGES
-----------------------
   0 S :    0.120694
   1 C :   -0.120989
   2 C :   -0.095042
   3 C :    0.014964
   4 C :   -0.160587
   5 H :    0.019857
   6 C :    0.088135
   7 H :    0.041024
   8 H :    0.031596
   9 C :   -0.094332
  10 H :    0.035555
  11 H :    0.032902
  12 C :   -0.056163
  13 H :    0.036858
  14 H :    0.038024
  15 H :    0.034319
  16 S :    0.108477
  17 C :   -0.094224
  18 C :   -0.049198
  19 C :   -0.002048
  20 C :   -0.178646
  21 H :    0.027227
  22 C :    0.003261
  23 H :    0.034461
  24 H :    0.028822
  25 C :   -0.057262
  26 H :    0.030354
  27 H :    0.036582
  28 C :   -0.041397
  29 H :    0.032289
  30 H :    0.029640
  31 H :    0.033228
  32 H :    0.036508
  33 H :    0.055112
Sum of atomic charges:    0.0000000

LOEWDIN ATOMIC CHARGES
----------------------
   0 S :    0.438375
   1 C :   -0.207265
   2 C :   -0.067138
   3 C :   -0.064656
   4 C :   -0.212705
   5 H :    0.034923
   6 C :   -0.030295
   7 H :    0.035045
   8 H :    0.036354
   9 C :   -0.043152
  10 H :    0.025062
  11 H :    0.024247
  12 C :   -0.066320
  13 H :    0.027269
  14 H :    0.030519
  15 H :    0.024895
  16 S :    0.416994
  17 C :   -0.186779
  18 C :   -0.076514
  19 C :   -0.054068
  20 C :   -0.210349
  21 H :    0.038407
  22 C :   -0.042613
  23 H :    0.029122
  24 H :    0.029416
  25 C :   -0.045850
  26 H :    0.026706
  27 H :    0.028256
  28 C :   -0.066627
  29 H :    0.026346
  30 H :    0.026716
  31 H :    0.025538
  32 H :    0.022431
  33 H :    0.027708

  Mayer bond orders larger than 0.100000
B(  0-S ,  1-C ) :   1.1740 B(  0-S ,  4-C ) :   1.1599 B(  1-C ,  2-C ) :   1.5652
B(  1-C ,  4-C ) :   0.1015 B(  1-C , 32-H ) :   0.9713 B(  2-C ,  3-C ) :   1.2854
B(  2-C ,  6-C ) :   0.9946 B(  3-C ,  4-C ) :   1.5721 B(  3-C ,  5-H ) :   0.9800
B(  4-C , 20-C ) :   1.0027 B(  6-C ,  7-H ) :   0.9334 B(  6-C ,  8-H ) :   0.9395
B(  6-C ,  9-C ) :   1.0774 B(  9-C , 10-H ) :   0.9463 B(  9-C , 11-H ) :   0.9567
B(  9-C , 12-C ) :   1.0843 B( 12-C , 13-H ) :   0.9764 B( 12-C , 14-H ) :   0.9744
B( 12-C , 15-H ) :   0.9744 B( 16-S , 17-C ) :   1.1700 B( 16-S , 20-C ) :   1.1495
B( 17-C , 18-C ) :   1.6020 B( 17-C , 20-C ) :   0.1013 B( 17-C , 33-H ) :   0.9672
B( 18-C , 19-C ) :   1.2381 B( 18-C , 21-H ) :   0.9958 B( 19-C , 20-C ) :   1.5975
B( 19-C , 22-C ) :   1.0151 B( 22-C , 23-H ) :   0.9420 B( 22-C , 24-H ) :   0.9410
B( 22-C , 25-C ) :   1.0494 B( 25-C , 26-H ) :   0.9552 B( 25-C , 27-H ) :   0.9604
B( 25-C , 28-C ) :   1.0682 B( 28-C , 29-H ) :   0.9750 B( 28-C , 30-H ) :   0.9757
B( 28-C , 31-H ) :   0.9730

Dispersion correction           -0.015025802
FINAL SINGLE POINT ENERGY     -1339.871076852158

DIPOLE MOMENT
-------------
                                X             Y             Z
Electronic contribution:     17.86325       4.99058      16.24616
Nuclear contribution   :    -18.14429      -5.27319     -16.51222
                        -----------------------------------------
Total Dipole Moment    :     -0.28104      -0.28261      -0.26606
                        -----------------------------------------
Magnitude (a.u.)       :      0.47921
Magnitude (Debye)      :      1.21805

Rotational constants in cm-1:     0.018640     0.008317     0.007682
Rotational constants in MHz :   558.804448   249.348235   230.287041

                             ****ORCA TERMINATED NORMALLY****
TOTAL RUN TIME: 0 days 0 hours 0 minutes 30 seconds 468 msec
