                         Program Version 4.2.1 -  RELEASE  -
|  1> ! wB97X-D3 SP def2-SVP
|  2> %pal
|  3> nprocs 16
|  4> end
|  5>
|  6> * xyz 0 1
|  7> S 	 26.6004 	 30.6223 	 56.5655
|  8> C 	 25.1799 	 29.7206 	 57.1729
|  9> C 	 24.9399 	 30.0003 	 58.5308
| 10> C 	 25.7976 	 31.084 	 59.027
| 11> C 	 26.5748 	 31.6706 	 58.0318
| 12> H 	 25.8446 	 31.6014 	 60.0019
| 13> C 	 23.8461 	 29.3981 	 59.4196
| 14> H 	 23.6492 	 28.3402 	 59.0277
| 15> H 	 23.0088 	 29.9476 	 59.1647
| 16> C 	 24.1176 	 29.4479 	 60.9283
| 17> H 	 25.1749 	 29.5048 	 61.1701
| 18> H 	 23.6494 	 30.4014 	 61.346
| 19> C 	 23.5204 	 28.2972 	 61.7889
| 20> H 	 22.4215 	 28.1364 	 61.5944
| 21> H 	 24.0334 	 27.369 	 61.715
| 22> H 	 23.562 	 28.7086 	 62.7986
| 23> S 	 28.848 	 33.0435 	 58.3765
| 24> C 	 28.8469 	 34.853 	 58.3976
| 25> C 	 27.6065 	 35.3081 	 58.1031
| 26> C 	 26.6535 	 34.2393 	 57.8912
| 27> C 	 27.1599 	 32.993 	 58.1075
| 28> H 	 27.4323 	 36.3498 	 58.052
| 29> C 	 25.1933 	 34.4651 	 57.526
| 30> H 	 24.7118 	 33.5126 	 57.8744
| 31> H 	 25.1077 	 34.432 	 56.461
| 32> C 	 24.3869 	 35.7083 	 58.2004
| 33> H 	 23.4325 	 35.8286 	 57.645
| 34> H 	 24.9022 	 36.6839 	 58.1728
| 35> C 	 24.0743 	 35.4309 	 59.6006
| 36> H 	 23.618 	 34.4328 	 59.7454
| 37> H 	 23.3947 	 36.1861 	 59.9855
| 38> H 	 24.9705 	 35.3843 	 60.2751
| 39> H 	 24.661 	 29.0095 	 56.6534
| 40> H 	 29.6598 	 35.4547 	 58.7227
| 41> *
| 42>
| 43>                          ****END OF INPUT****

CARTESIAN COORDINATES (ANGSTROEM)
---------------------------------
  S     26.600400   30.622300   56.565500
  C     25.179900   29.720600   57.172900
  C     24.939900   30.000300   58.530800
  C     25.797600   31.084000   59.027000
  C     26.574800   31.670600   58.031800
  H     25.844600   31.601400   60.001900
  C     23.846100   29.398100   59.419600
  H     23.649200   28.340200   59.027700
  H     23.008800   29.947600   59.164700
  C     24.117600   29.447900   60.928300
  H     25.174900   29.504800   61.170100
  H     23.649400   30.401400   61.346000
  C     23.520400   28.297200   61.788900
  H     22.421500   28.136400   61.594400
  H     24.033400   27.369000   61.715000
  H     23.562000   28.708600   62.798600
  S     28.848000   33.043500   58.376500
  C     28.846900   34.853000   58.397600
  C     27.606500   35.308100   58.103100
  C     26.653500   34.239300   57.891200
  C     27.159900   32.993000   58.107500
  H     27.432300   36.349800   58.052000
  C     25.193300   34.465100   57.526000
  H     24.711800   33.512600   57.874400
  H     25.107700   34.432000   56.461000
  C     24.386900   35.708300   58.200400
  H     23.432500   35.828600   57.645000
  H     24.902200   36.683900   58.172800
  C     24.074300   35.430900   59.600600
  H     23.618000   34.432800   59.745400
  H     23.394700   36.186100   59.985500
  H     24.970500   35.384300   60.275100
  H     24.661000   29.009500   56.653400
  H     29.659800   35.454700   58.722700

 Total Charge           Charge          ....    0
 Multiplicity           Mult            ....    1
 Number of Electrons    NEL             ....  134
 Basis Dimension        Dim             ....  322

ORBITAL ENERGIES
----------------

  NO   OCC          E(Eh)            E(eV)
   0   2.0000     -88.964846     -2420.8565
   1   2.0000     -88.958531     -2420.6847
   2   2.0000     -10.331782      -281.1421
   3   2.0000     -10.319088      -280.7967
   4   2.0000     -10.316821      -280.7350
   5   2.0000     -10.314838      -280.6810
   6   2.0000     -10.311842      -280.5995
   7   2.0000     -10.302595      -280.3479
   8   2.0000     -10.302556      -280.3468
   9   2.0000     -10.296122      -280.1717
  10   2.0000     -10.295585      -280.1571
  11   2.0000     -10.292601      -280.0759
  12   2.0000     -10.292360      -280.0694
  13   2.0000     -10.291992      -280.0593
  14   2.0000     -10.283090      -279.8171
  15   2.0000     -10.274813      -279.5919
  16   2.0000      -8.078178      -219.8184
  17   2.0000      -8.073663      -219.6955
  18   2.0000      -6.036881      -164.2719
  19   2.0000      -6.033022      -164.1669
  20   2.0000      -6.032292      -164.1470
  21   2.0000      -6.028662      -164.0482
  22   2.0000      -6.028125      -164.0336
  23   2.0000      -6.024254      -163.9283
  24   2.0000      -1.004018       -27.3207
  25   2.0000      -0.974137       -26.5076
  26   2.0000      -0.907493       -24.6941
  27   2.0000      -0.902203       -24.5502
  28   2.0000      -0.873504       -23.7692
  29   2.0000      -0.849507       -23.1162
  30   2.0000      -0.842195       -22.9173
  31   2.0000      -0.820427       -22.3249
  32   2.0000      -0.779485       -21.2109
  33   2.0000      -0.765172       -20.8214
  34   2.0000      -0.710721       -19.3397
  35   2.0000      -0.695824       -18.9343
  36   2.0000      -0.693425       -18.8690
  37   2.0000      -0.660185       -17.9646
  38   2.0000      -0.643665       -17.5150
  39   2.0000      -0.610631       -16.6161
  40   2.0000      -0.592661       -16.1271
  41   2.0000      -0.571896       -15.5621
  42   2.0000      -0.561391       -15.2762
  43   2.0000      -0.552835       -15.0434
  44   2.0000      -0.537860       -14.6359
  45   2.0000      -0.527007       -14.3406
  46   2.0000      -0.525137       -14.2897
  47   2.0000      -0.514288       -13.9945
  48   2.0000      -0.507911       -13.8210
  49   2.0000      -0.496300       -13.5050
  50   2.0000      -0.489117       -13.3096
  51   2.0000      -0.482691       -13.1347
  52   2.0000      -0.471477       -12.8296
  53   2.0000      -0.460256       -12.5242
  54   2.0000      -0.449664       -12.2360
  55   2.0000      -0.447110       -12.1665
  56   2.0000      -0.437556       -11.9065
  57   2.0000      -0.434238       -11.8162
  58   2.0000      -0.431597       -11.7444
  59   2.0000      -0.425187       -11.5699
  60   2.0000      -0.420915       -11.4537
  61   2.0000      -0.415918       -11.3177
  62   2.0000      -0.409353       -11.1391
  63   2.0000      -0.337954        -9.1962
  64   2.0000      -0.329192        -8.9578
  65   2.0000      -0.318124        -8.6566
  66   2.0000      -0.303424        -8.2566
  67   0.0000       0.038438         1.0460
  68   0.0000       0.049994         1.3604
  69   0.0000       0.108837         2.9616
  70   0.0000       0.122117         3.3230
  71   0.0000       0.125983         3.4282

MULLIKEN ATOMIC CHARGES
-----------------------
   0 S :    0.108451
   1 C :   -0.084516
   2 C :   -0.111834
   3 C :    0.034846
   4 C :   -0.176871
   5 H :    0.035203
   6 C :    0.104236
   7 H :    0.035049
   8 H :    0.029319
   9 C :   -0.124563
  10 H :    0.044056
  11 H :    0.037150
  12 C :   -0.050042
  13 H :    0.035917
  14 H :    0.042807
  15 H :    0.034044
  16 S :    0.086063
  17 C :   -0.082109
  18 C :   -0.010054
  19 C :   -0.032844
  20 C :   -0.183632
  21 H :    0.007966
  22 C :    0.057363
  23 H :    0.034335
  24 H :    0.037668
  25 C :   -0.069852
  26 H :    0.035424
  27 H :    0.035940
  28 C :   -0.062690
  29 H :    0.023120
  30 H :    0.034441
  31 H :    0.037696
  32 H :    0.009266
  33 H :    0.048646
Sum of atomic charges:   -0.0000000

LOEWDIN ATOMIC CHARGES
----------------------
   0 S :    0.363135
   1 C :   -0.173875
   2 C :   -0.052959
   3 C :   -0.061170
   4 C :   -0.183950
   5 H :    0.040322
   6 C :   -0.034278
   7 H :    0.037941
   8 H :    0.027019
   9 C :   -0.046569
  10 H :    0.025681
  11 H :    0.032682
  12 C :   -0.063948
  13 H :    0.029390
  14 H :    0.020215
  15 H :    0.030064
  16 S :    0.390957
  17 C :   -0.156062
  18 C :   -0.064651
  19 C :   -0.055157
  20 C :   -0.217568
  21 H :    0.027725
  22 C :   -0.030790
  23 H :    0.038009
  24 H :    0.029266
  25 C :   -0.044287
  26 H :    0.030488
  27 H :    0.025029
  28 C :   -0.073805
  29 H :    0.023750
  30 H :    0.025510
  31 H :    0.028988
  32 H :    0.008172
  33 H :    0.024726

  Mayer bond orders larger than 0.100000
B(  0-S ,  1-C ) :   1.1177 B(  0-S ,  4-C ) :   1.1177 B(  1-C ,  2-C ) :   1.6466
B(  1-C , 32-H ) :   0.9823 B(  2-C ,  3-C ) :   1.1825 B(  2-C ,  6-C ) :   1.0083
B(  3-C ,  4-C ) :   1.6220 B(  3-C ,  5-H ) :   0.9832 B(  4-C , 20-C ) :   1.0141
B(  6-C ,  7-H ) :   0.9476 B(  6-C ,  8-H ) :   0.9308 B(  6-C ,  9-C ) :   1.0547
B(  9-C , 10-H ) :   0.9634 B(  9-C , 11-H ) :   0.9517 B(  9-C , 12-C ) :   1.0829
B( 12-C , 13-H ) :   0.9753 B( 12-C , 14-H ) :   0.9778 B( 12-C , 15-H ) :   0.9746
B( 16-S , 17-C ) :   1.1327 B( 16-S , 20-C ) :   1.1379 B( 17-C , 18-C ) :   1.6423
B( 17-C , 33-H ) :   0.9713 B( 18-C , 19-C ) :   1.1985 B( 18-C , 21-H ) :   0.9997
B( 19-C , 20-C ) :   1.6413 B( 19-C , 22-C ) :   1.0278 B( 22-C , 23-H ) :   0.9384
B( 22-C , 24-H ) :   0.9325 B( 22-C , 25-C ) :   1.0548 B( 25-C , 26-H ) :   0.9534
B( 25-C , 27-H ) :   0.9561 B( 25-C , 28-C ) :   1.0890 B( 28-C , 29-H ) :   0.9704
B( 28-C , 30-H ) :   0.9709 B( 28-C , 31-H ) :   0.9726

Dispersion correction           -0.014493573
FINAL SINGLE POINT ENERGY     -1339.857395272953

DIPOLE MOMENT
-------------
                                X             Y             Z
Electronic contribution:     23.47198      -1.35062     -16.22837
Nuclear contribution   :    -24.16077       1.60251      16.63685
                        -----------------------------------------
Total Dipole Moment    :     -0.68879       0.25189       0.40849
                        -----------------------------------------
Magnitude (a.u.)       :      0.83949
Magnitude (Debye)      :      2.13381

Rotational constants in cm-1:     0.017416     0.008473     0.007125
Rotational constants in MHz :   522.118601   254.020131   213.598605

                             ****ORCA TERMINATED NORMALLY****
TOTAL RUN TIME: 0 days 0 hours 0 minutes 35 seconds 324 msec
