                         Program Version 4.2.1 -  RELEASE  -
|  1> ! wB97X-D3 SP def2-SVP
|  2> %pal
|  3> nprocs 16
|  4> end
|  5>
|  6> * xyz 0 1
|  7> S 	 -14.4086 	 32.6416 	 37.3563
|  8> C 	 -14.3901 	 33.0757 	 39.072
|  9> C 	 -13.063 	 33.3805 	 39.4133
| 10> C 	 -12.1433 	 33.2678 	 38.2972
| 11> C 	 -12.6609 	 32.676 	 37.1623
| 12> H 	 -11.0924 	 33.5837 	 38.3121
| 13> C 	 -12.569 	 33.7373 	 40.7429
| 14> H 	 -11.5444 	 34.1687 	 40.6462
| 15> H 	 -12.3293 	 32.8807 	 41.33
| 16> C 	 -13.465 	 34.6931 	 41.5499
| 17> H 	 -14.4164 	 34.2171 	 41.7812
| 18> H 	 -12.9696 	 34.704 	 42.5577
| 19> C 	 -13.6639 	 36.0315 	 40.8593
| 20> H 	 -14.13 	 36.7431 	 41.5696
| 21> H 	 -12.764 	 36.4977 	 40.539
| 22> H 	 -14.3908 	 35.9191 	 40.0525
| 23> S 	 -13.0397 	 31.7576 	 34.5502
| 24> C 	 -11.7586 	 31.2994 	 33.4858
| 25> C 	 -10.54 	 31.4972 	 34.1094
| 26> C 	 -10.6789 	 31.9227 	 35.5099
| 27> C 	 -11.9691 	 32.2515 	 35.8982
| 28> H 	 -9.69559 	 31.3127 	 33.5644
| 29> C 	 -9.40552 	 31.9933 	 36.3279
| 30> H 	 -9.1427 	 32.9733 	 36.6375
| 31> H 	 -8.71733 	 31.5926 	 35.6163
| 32> C 	 -9.43513 	 31.2568 	 37.6458
| 33> H 	 -9.908 	 30.2299 	 37.5474
| 34> H 	 -10.1201 	 31.7364 	 38.3486
| 35> C 	 -7.99903 	 31.2556 	 38.3095
| 36> H 	 -7.62553 	 32.2355 	 38.359
| 37> H 	 -7.29263 	 30.5441 	 37.7503
| 38> H 	 -8.13183 	 30.9321 	 39.3392
| 39> H 	 -15.1883 	 32.9648 	 39.7569
| 40> H 	 -11.801 	 30.965 	 32.3905
| 41> *
| 42>
| 43>                          ****END OF INPUT****

CARTESIAN COORDINATES (ANGSTROEM)
---------------------------------
  S    -14.408600   32.641600   37.356300
  C    -14.390100   33.075700   39.072000
  C    -13.063000   33.380500   39.413300
  C    -12.143300   33.267800   38.297200
  C    -12.660900   32.676000   37.162300
  H    -11.092400   33.583700   38.312100
  C    -12.569000   33.737300   40.742900
  H    -11.544400   34.168700   40.646200
  H    -12.329300   32.880700   41.330000
  C    -13.465000   34.693100   41.549900
  H    -14.416400   34.217100   41.781200
  H    -12.969600   34.704000   42.557700
  C    -13.663900   36.031500   40.859300
  H    -14.130000   36.743100   41.569600
  H    -12.764000   36.497700   40.539000
  H    -14.390800   35.919100   40.052500
  S    -13.039700   31.757600   34.550200
  C    -11.758600   31.299400   33.485800
  C    -10.540000   31.497200   34.109400
  C    -10.678900   31.922700   35.509900
  C    -11.969100   32.251500   35.898200
  H     -9.695590   31.312700   33.564400
  C     -9.405520   31.993300   36.327900
  H     -9.142700   32.973300   36.637500
  H     -8.717330   31.592600   35.616300
  C     -9.435130   31.256800   37.645800
  H     -9.908000   30.229900   37.547400
  H    -10.120100   31.736400   38.348600
  C     -7.999030   31.255600   38.309500
  H     -7.625530   32.235500   38.359000
  H     -7.292630   30.544100   37.750300
  H     -8.131830   30.932100   39.339200
  H    -15.188300   32.964800   39.756900
  H    -11.801000   30.965000   32.390500

 Total Charge           Charge          ....    0
 Multiplicity           Mult            ....    1
 Number of Electrons    NEL             ....  134
 Basis Dimension        Dim             ....  322

ORBITAL ENERGIES
----------------

  NO   OCC          E(Eh)            E(eV)
   0   2.0000     -88.966098     -2420.8906
   1   2.0000     -88.963803     -2420.8282
   2   2.0000     -10.341431      -281.4046
   3   2.0000     -10.339315      -281.3471
   4   2.0000     -10.325708      -280.9768
   5   2.0000     -10.317508      -280.7537
   6   2.0000     -10.311220      -280.5826
   7   2.0000     -10.304580      -280.4019
   8   2.0000     -10.297844      -280.2186
   9   2.0000     -10.292647      -280.0772
  10   2.0000     -10.290358      -280.0149
  11   2.0000     -10.287909      -279.9482
  12   2.0000     -10.287489      -279.9368
  13   2.0000     -10.285072      -279.8710
  14   2.0000     -10.283145      -279.8186
  15   2.0000     -10.275188      -279.6021
  16   2.0000      -8.080168      -219.8726
  17   2.0000      -8.078473      -219.8264
  18   2.0000      -6.038981      -164.3290
  19   2.0000      -6.037234      -164.2815
  20   2.0000      -6.034720      -164.2131
  21   2.0000      -6.032859      -164.1624
  22   2.0000      -6.030675      -164.1030
  23   2.0000      -6.029074      -164.0594
  24   2.0000      -1.003348       -27.3025
  25   2.0000      -0.983499       -26.7624
  26   2.0000      -0.916907       -24.9503
  27   2.0000      -0.911154       -24.7938
  28   2.0000      -0.866305       -23.5734
  29   2.0000      -0.847956       -23.0740
  30   2.0000      -0.843001       -22.9392
  31   2.0000      -0.818745       -22.2792
  32   2.0000      -0.782447       -21.2915
  33   2.0000      -0.775159       -21.0931
  34   2.0000      -0.712334       -19.3836
  35   2.0000      -0.704389       -19.1674
  36   2.0000      -0.690297       -18.7839
  37   2.0000      -0.663378       -18.0514
  38   2.0000      -0.640650       -17.4330
  39   2.0000      -0.616310       -16.7706
  40   2.0000      -0.595495       -16.2042
  41   2.0000      -0.581298       -15.8179
  42   2.0000      -0.565583       -15.3903
  43   2.0000      -0.555815       -15.1245
  44   2.0000      -0.541173       -14.7261
  45   2.0000      -0.521697       -14.1961
  46   2.0000      -0.516357       -14.0508
  47   2.0000      -0.511845       -13.9280
  48   2.0000      -0.507188       -13.8013
  49   2.0000      -0.503783       -13.7086
  50   2.0000      -0.494497       -13.4560
  51   2.0000      -0.481905       -13.1133
  52   2.0000      -0.477569       -12.9953
  53   2.0000      -0.469703       -12.7813
  54   2.0000      -0.460159       -12.5216
  55   2.0000      -0.445283       -12.1168
  56   2.0000      -0.442069       -12.0293
  57   2.0000      -0.436097       -11.8668
  58   2.0000      -0.431206       -11.7337
  59   2.0000      -0.424753       -11.5581
  60   2.0000      -0.420269       -11.4361
  61   2.0000      -0.412547       -11.2260
  62   2.0000      -0.400045       -10.8858
  63   2.0000      -0.362886        -9.8746
  64   2.0000      -0.330134        -8.9834
  65   2.0000      -0.321750        -8.7553
  66   2.0000      -0.287838        -7.8325
  67   0.0000       0.015706         0.4274
  68   0.0000       0.082621         2.2482
  69   0.0000       0.094772         2.5789
  70   0.0000       0.114891         3.1263
  71   0.0000       0.129514         3.5243

MULLIKEN ATOMIC CHARGES
-----------------------
   0 S :    0.091082
   1 C :   -0.095849
   2 C :   -0.099113
   3 C :   -0.015166
   4 C :   -0.092012
   5 H :    0.025863
   6 C :    0.056960
   7 H :    0.016203
   8 H :    0.032469
   9 C :   -0.094273
  10 H :    0.022767
  11 H :    0.028379
  12 C :   -0.020584
  13 H :    0.031372
  14 H :    0.026773
  15 H :    0.042905
  16 S :    0.076704
  17 C :   -0.101403
  18 C :   -0.011884
  19 C :   -0.095451
  20 C :   -0.090594
  21 H :   -0.011171
  22 C :    0.120685
  23 H :    0.022295
  24 H :    0.006421
  25 C :   -0.135438
  26 H :    0.039283
  27 H :    0.024418
  28 C :   -0.036778
  29 H :    0.018880
  30 H :    0.050813
  31 H :    0.033055
  32 H :    0.042741
  33 H :    0.089650
Sum of atomic charges:   -0.0000000

LOEWDIN ATOMIC CHARGES
----------------------
   0 S :    0.392760
   1 C :   -0.190323
   2 C :   -0.058368
   3 C :   -0.075139
   4 C :   -0.178451
   5 H :    0.031664
   6 C :   -0.042340
   7 H :    0.033009
   8 H :    0.032138
   9 C :   -0.043488
  10 H :    0.020149
  11 H :    0.028433
  12 C :   -0.062194
  13 H :    0.030525
  14 H :    0.020828
  15 H :    0.030561
  16 S :    0.393096
  17 C :   -0.196912
  18 C :   -0.071582
  19 C :   -0.050278
  20 C :   -0.180095
  21 H :    0.016078
  22 C :   -0.030971
  23 H :    0.026256
  24 H :    0.027954
  25 C :   -0.045875
  26 H :    0.029509
  27 H :    0.019665
  28 C :   -0.062060
  29 H :    0.014882
  30 H :    0.034750
  31 H :    0.026480
  32 H :    0.024265
  33 H :    0.055074

  Mayer bond orders larger than 0.100000
B(  0-S ,  1-C ) :   1.1215 B(  0-S ,  4-C ) :   1.1516 B(  1-C ,  2-C ) :   1.5935
B(  1-C , 32-H ) :   0.9776 B(  2-C ,  3-C ) :   1.2436 B(  2-C ,  6-C ) :   1.0322
B(  3-C ,  4-C ) :   1.5718 B(  3-C ,  5-H ) :   0.9788 B(  4-C , 20-C ) :   1.0585
B(  6-C ,  7-H ) :   0.9390 B(  6-C ,  8-H ) :   0.9257 B(  6-C ,  9-C ) :   1.0856
B(  9-C , 10-H ) :   0.9515 B(  9-C , 11-H ) :   0.9542 B(  9-C , 12-C ) :   1.0742
B( 12-C , 13-H ) :   0.9723 B( 12-C , 14-H ) :   0.9779 B( 12-C , 15-H ) :   0.9695
B( 16-S , 17-C ) :   1.1651 B( 16-S , 20-C ) :   1.1093 B( 17-C , 18-C ) :   1.6216
B( 17-C , 33-H ) :   0.9523 B( 18-C , 19-C ) :   1.2282 B( 18-C , 21-H ) :   1.0001
B( 19-C , 20-C ) :   1.6009 B( 19-C , 22-C ) :   1.0423 B( 22-C , 23-H ) :   0.9282
B( 22-C , 24-H ) :   0.9333 B( 22-C , 25-C ) :   1.0607 B( 25-C , 26-H ) :   0.9557
B( 25-C , 27-H ) :   0.9472 B( 25-C , 28-C ) :   1.0767 B( 28-C , 29-H ) :   0.9717
B( 28-C , 30-H ) :   0.9780 B( 28-C , 31-H ) :   0.9750

Dispersion correction           -0.014376409
FINAL SINGLE POINT ENERGY     -1339.862034965505

DIPOLE MOMENT
-------------
                                X             Y             Z
Electronic contribution:    -16.31975      -6.58493     -21.97563
Nuclear contribution   :     16.92229       6.62555      22.38846
                        -----------------------------------------
Total Dipole Moment    :      0.60254       0.04062       0.41283
                        -----------------------------------------
Magnitude (a.u.)       :      0.73153
Magnitude (Debye)      :      1.85940

Rotational constants in cm-1:     0.019575     0.008755     0.006446
Rotational constants in MHz :   586.830402   262.469049   193.246171

                             ****ORCA TERMINATED NORMALLY****
TOTAL RUN TIME: 0 days 0 hours 0 minutes 34 seconds 29 msec
