                         Program Version 4.2.1 -  RELEASE  -
|  1> ! wB97X-D3 SP def2-SVP
|  2> %pal
|  3> nprocs 16
|  4> end
|  5>
|  6> * xyz 0 1
|  7> S 	 45.4387 	 8.54458 	 88.0433
|  8> C 	 44.5658 	 7.15575 	 88.5584
|  9> C 	 43.6016 	 7.47873 	 89.4629
| 10> C 	 43.3938 	 8.87873 	 89.6455
| 11> C 	 44.3451 	 9.61104 	 88.9166
| 12> H 	 42.7709 	 9.24813 	 90.3679
| 13> C 	 42.8036 	 6.39792 	 90.2232
| 14> H 	 42.7888 	 5.57507 	 89.5411
| 15> H 	 41.7568 	 6.71719 	 90.1059
| 16> C 	 43.1325 	 6.05597 	 91.6642
| 17> H 	 42.3312 	 5.42681 	 92.0215
| 18> H 	 44.1075 	 5.59585 	 91.6497
| 19> C 	 43.219 	 7.30876 	 92.6135
| 20> H 	 43.3857 	 7.00039 	 93.5941
| 21> H 	 44.0233 	 7.95429 	 92.3614
| 22> H 	 42.3145 	 7.81647 	 92.5872
| 23> S 	 46.2447 	 11.5687 	 88.6195
| 24> C 	 45.7623 	 13.2725 	 88.4987
| 25> C 	 44.4259 	 13.4007 	 88.6571
| 26> C 	 43.7885 	 12.1527 	 88.9027
| 27> C 	 44.6279 	 11.0717 	 88.8732
| 28> H 	 44.1614 	 14.3993 	 88.4712
| 29> C 	 42.2704 	 12.1601 	 89.089
| 30> H 	 41.873 	 11.1311 	 89.2068
| 31> H 	 41.7928 	 12.4709 	 88.0958
| 32> C 	 41.7341 	 13.1297 	 90.1116
| 33> H 	 42.2432 	 14.0543 	 90.2021
| 34> H 	 41.825 	 12.5633 	 91.1137
| 35> C 	 40.1893 	 13.335 	 90.0282
| 36> H 	 39.8479 	 13.7156 	 89.0176
| 37> H 	 39.8195 	 14.1452 	 90.7119
| 38> H 	 39.5665 	 12.5121 	 90.4002
| 39> H 	 44.8403 	 6.0941 	 88.3753
| 40> H 	 46.3318 	 14.0231 	 87.9787
| 41> *
| 42>
| 43>                          ****END OF INPUT****

CARTESIAN COORDINATES (ANGSTROEM)
---------------------------------
  S     45.438700    8.544580   88.043300
  C     44.565800    7.155750   88.558400
  C     43.601600    7.478730   89.462900
  C     43.393800    8.878730   89.645500
  C     44.345100    9.611040   88.916600
  H     42.770900    9.248130   90.367900
  C     42.803600    6.397920   90.223200
  H     42.788800    5.575070   89.541100
  H     41.756800    6.717190   90.105900
  C     43.132500    6.055970   91.664200
  H     42.331200    5.426810   92.021500
  H     44.107500    5.595850   91.649700
  C     43.219000    7.308760   92.613500
  H     43.385700    7.000390   93.594100
  H     44.023300    7.954290   92.361400
  H     42.314500    7.816470   92.587200
  S     46.244700   11.568700   88.619500
  C     45.762300   13.272500   88.498700
  C     44.425900   13.400700   88.657100
  C     43.788500   12.152700   88.902700
  C     44.627900   11.071700   88.873200
  H     44.161400   14.399300   88.471200
  C     42.270400   12.160100   89.089000
  H     41.873000   11.131100   89.206800
  H     41.792800   12.470900   88.095800
  C     41.734100   13.129700   90.111600
  H     42.243200   14.054300   90.202100
  H     41.825000   12.563300   91.113700
  C     40.189300   13.335000   90.028200
  H     39.847900   13.715600   89.017600
  H     39.819500   14.145200   90.711900
  H     39.566500   12.512100   90.400200
  H     44.840300    6.094100   88.375300
  H     46.331800   14.023100   87.978700

 Total Charge           Charge          ....    0
 Multiplicity           Mult            ....    1
 Number of Electrons    NEL             ....  134
 Basis Dimension        Dim             ....  322

ORBITAL ENERGIES
----------------

  NO   OCC          E(Eh)            E(eV)
   0   2.0000     -88.968522     -2420.9566
   1   2.0000     -88.962050     -2420.7804
   2   2.0000     -10.338506      -281.3250
   3   2.0000     -10.327932      -281.0373
   4   2.0000     -10.311648      -280.5942
   5   2.0000     -10.310313      -280.5579
   6   2.0000     -10.303594      -280.3750
   7   2.0000     -10.296792      -280.1900
   8   2.0000     -10.295832      -280.1638
   9   2.0000     -10.292643      -280.0771
  10   2.0000     -10.292044      -280.0608
  11   2.0000     -10.288894      -279.9750
  12   2.0000     -10.288148      -279.9547
  13   2.0000     -10.287846      -279.9465
  14   2.0000     -10.287772      -279.9445
  15   2.0000     -10.266459      -279.3646
  16   2.0000      -8.083483      -219.9627
  17   2.0000      -8.077515      -219.8004
  18   2.0000      -6.042007      -164.4114
  19   2.0000      -6.037953      -164.3011
  20   2.0000      -6.036088      -164.2503
  21   2.0000      -6.034214      -164.1993
  22   2.0000      -6.031959      -164.1379
  23   2.0000      -6.028118      -164.0334
  24   2.0000      -1.012336       -27.5471
  25   2.0000      -0.990145       -26.9432
  26   2.0000      -0.910898       -24.7868
  27   2.0000      -0.905946       -24.6520
  28   2.0000      -0.874067       -23.7846
  29   2.0000      -0.851432       -23.1686
  30   2.0000      -0.843236       -22.9456
  31   2.0000      -0.823749       -22.4154
  32   2.0000      -0.786802       -21.4100
  33   2.0000      -0.771521       -20.9942
  34   2.0000      -0.710448       -19.3323
  35   2.0000      -0.700784       -19.0693
  36   2.0000      -0.694769       -18.9056
  37   2.0000      -0.661855       -18.0100
  38   2.0000      -0.639420       -17.3995
  39   2.0000      -0.624642       -16.9974
  40   2.0000      -0.597027       -16.2459
  41   2.0000      -0.579826       -15.7779
  42   2.0000      -0.560996       -15.2655
  43   2.0000      -0.553505       -15.0616
  44   2.0000      -0.545112       -14.8332
  45   2.0000      -0.520427       -14.1615
  46   2.0000      -0.517173       -14.0730
  47   2.0000      -0.513732       -13.9794
  48   2.0000      -0.504418       -13.7259
  49   2.0000      -0.498894       -13.5756
  50   2.0000      -0.487459       -13.2644
  51   2.0000      -0.478801       -13.0288
  52   2.0000      -0.473542       -12.8857
  53   2.0000      -0.466256       -12.6875
  54   2.0000      -0.463820       -12.6212
  55   2.0000      -0.453370       -12.3368
  56   2.0000      -0.445157       -12.1133
  57   2.0000      -0.443069       -12.0565
  58   2.0000      -0.433013       -11.7829
  59   2.0000      -0.423513       -11.5244
  60   2.0000      -0.415626       -11.3098
  61   2.0000      -0.413826       -11.2608
  62   2.0000      -0.405831       -11.0432
  63   2.0000      -0.359572        -9.7845
  64   2.0000      -0.335910        -9.1406
  65   2.0000      -0.327607        -8.9146
  66   2.0000      -0.289013        -7.8644
  67   0.0000       0.023580         0.6416
  68   0.0000       0.078870         2.1462
  69   0.0000       0.109364         2.9759
  70   0.0000       0.120761         3.2861
  71   0.0000       0.130800         3.5593

MULLIKEN ATOMIC CHARGES
-----------------------
   0 S :    0.109218
   1 C :   -0.118359
   2 C :   -0.135819
   3 C :    0.064640
   4 C :   -0.135760
   5 H :   -0.018214
   6 C :    0.058831
   7 H :    0.005540
   8 H :    0.015327
   9 C :   -0.029182
  10 H :    0.035975
  11 H :    0.029422
  12 C :   -0.021561
  13 H :    0.017793
  14 H :    0.040349
  15 H :    0.013981
  16 S :    0.078922
  17 C :   -0.100186
  18 C :   -0.030735
  19 C :   -0.016894
  20 C :   -0.107561
  21 H :    0.007613
  22 C :    0.051572
  23 H :    0.019807
  24 H :    0.033367
  25 C :   -0.075012
  26 H :    0.037040
  27 H :    0.036060
  28 C :   -0.092063
  29 H :    0.037206
  30 H :    0.030681
  31 H :    0.040212
  32 H :    0.058013
  33 H :    0.059778
Sum of atomic charges:    0.0000000

LOEWDIN ATOMIC CHARGES
----------------------
   0 S :    0.415978
   1 C :   -0.217373
   2 C :   -0.064417
   3 C :   -0.054882
   4 C :   -0.173088
   5 H :    0.015663
   6 C :   -0.037937
   7 H :    0.025302
   8 H :    0.029207
   9 C :   -0.027450
  10 H :    0.027614
  11 H :    0.024193
  12 C :   -0.051006
  13 H :    0.020143
  14 H :    0.025303
  15 H :    0.014004
  16 S :    0.396560
  17 C :   -0.176733
  18 C :   -0.062895
  19 C :   -0.062642
  20 C :   -0.204794
  21 H :    0.031069
  22 C :   -0.040303
  23 H :    0.029734
  24 H :    0.035473
  25 C :   -0.043625
  26 H :    0.019570
  27 H :    0.036323
  28 C :   -0.080112
  29 H :    0.025898
  30 H :    0.030685
  31 H :    0.026552
  32 H :    0.038057
  33 H :    0.029927

  Mayer bond orders larger than 0.100000
B(  0-S ,  1-C ) :   1.1314 B(  0-S ,  4-C ) :   1.1691 B(  1-C ,  2-C ) :   1.6326
B(  1-C , 32-H ) :   0.9578 B(  2-C ,  3-C ) :   1.2585 B(  2-C ,  6-C ) :   1.0045
B(  3-C ,  4-C ) :   1.5350 B(  3-C ,  5-H ) :   1.0038 B(  4-C , 20-C ) :   1.0388
B(  6-C ,  7-H ) :   0.9395 B(  6-C ,  8-H ) :   0.9375 B(  6-C ,  9-C ) :   1.0678
B(  9-C , 10-H ) :   0.9535 B(  9-C , 11-H ) :   0.9549 B(  9-C , 12-C ) :   1.0892
B( 12-C , 13-H ) :   0.9712 B( 12-C , 14-H ) :   0.9710 B( 12-C , 15-H ) :   0.9753
B( 16-S , 17-C ) :   1.1326 B( 16-S , 20-C ) :   1.1370 B( 17-C , 18-C ) :   1.6651
B( 17-C , 33-H ) :   0.9598 B( 18-C , 19-C ) :   1.1942 B( 18-C , 21-H ) :   0.9989
B( 19-C , 20-C ) :   1.6188 B( 19-C , 22-C ) :   1.0383 B( 22-C , 23-H ) :   0.9368
B( 22-C , 24-H ) :   0.9375 B( 22-C , 25-C ) :   1.0505 B( 25-C , 26-H ) :   0.9612
B( 25-C , 27-H ) :   0.9517 B( 25-C , 28-C ) :   1.0767 B( 28-C , 29-H ) :   0.9736
B( 28-C , 30-H ) :   0.9739 B( 28-C , 31-H ) :   0.9774

Dispersion correction           -0.013916306
FINAL SINGLE POINT ENERGY     -1339.861274513502

DIPOLE MOMENT
-------------
                                X             Y             Z
Electronic contribution:     23.76751       1.01146     -15.90805
Nuclear contribution   :    -24.29478      -0.99916      16.17561
                        -----------------------------------------
Total Dipole Moment    :     -0.52727       0.01230       0.26756
                        -----------------------------------------
Magnitude (a.u.)       :      0.59140
Magnitude (Debye)      :      1.50321

Rotational constants in cm-1:     0.016836     0.009197     0.006662
Rotational constants in MHz :   504.741874   275.715424   199.733841

                             ****ORCA TERMINATED NORMALLY****
TOTAL RUN TIME: 0 days 0 hours 0 minutes 29 seconds 987 msec
