                         Program Version 4.2.1 -  RELEASE  -
|  1> ! wB97X-D3 SP def2-SVP
|  2> %pal
|  3> nprocs 16
|  4> end
|  5>
|  6> * xyz 0 1
|  7> S 	 14.8908 	 33.6551 	 56.3334
|  8> C 	 15.0704 	 32.1679 	 57.2638
|  9> C 	 15.0531 	 32.3761 	 58.6548
| 10> C 	 14.7192 	 33.7158 	 58.9696
| 11> C 	 14.7679 	 34.5897 	 57.9209
| 12> H 	 14.5467 	 34.1566 	 59.9148
| 13> C 	 15.1422 	 31.3929 	 59.702
| 14> H 	 15.7258 	 31.681 	 60.4536
| 15> H 	 15.7708 	 30.568 	 59.3259
| 16> C 	 13.7989 	 31.0395 	 60.3813
| 17> H 	 13.2703 	 31.9666 	 60.4795
| 18> H 	 13.2559 	 30.379 	 59.7123
| 19> C 	 14.037 	 30.4822 	 61.7364
| 20> H 	 14.3806 	 31.2467 	 62.4474
| 21> H 	 13.1907 	 30.0512 	 62.2238
| 22> H 	 14.8668 	 29.777 	 61.7443
| 23> S 	 13.845 	 36.7702 	 56.6476
| 24> C 	 13.916 	 38.3521 	 57.2952
| 25> C 	 14.7502 	 38.2944 	 58.3884
| 26> C 	 15.1537 	 37.0116 	 58.8656
| 27> C 	 14.7269 	 36.0314 	 57.9651
| 28> H 	 15.0637 	 39.1229 	 59.0149
| 29> C 	 15.9717 	 36.806 	 60.0914
| 30> H 	 16.0493 	 35.7169 	 60.2058
| 31> H 	 15.3569 	 37.201 	 60.9997
| 32> C 	 17.4208 	 37.333 	 60.2107
| 33> H 	 17.7985 	 37.0826 	 61.2564
| 34> H 	 17.3206 	 38.4276 	 60.1392
| 35> C 	 18.3318 	 36.7113 	 59.2558
| 36> H 	 18.3073 	 35.6782 	 59.4927
| 37> H 	 19.4215 	 36.9406 	 59.3883
| 38> H 	 18.0644 	 36.9687 	 58.1867
| 39> H 	 15.028 	 31.2397 	 56.8303
| 40> H 	 13.5415 	 39.3286 	 56.9218
| 41> *
| 42>
| 43>                          ****END OF INPUT****

CARTESIAN COORDINATES (ANGSTROEM)
---------------------------------
  S     14.890800   33.655100   56.333400
  C     15.070400   32.167900   57.263800
  C     15.053100   32.376100   58.654800
  C     14.719200   33.715800   58.969600
  C     14.767900   34.589700   57.920900
  H     14.546700   34.156600   59.914800
  C     15.142200   31.392900   59.702000
  H     15.725800   31.681000   60.453600
  H     15.770800   30.568000   59.325900
  C     13.798900   31.039500   60.381300
  H     13.270300   31.966600   60.479500
  H     13.255900   30.379000   59.712300
  C     14.037000   30.482200   61.736400
  H     14.380600   31.246700   62.447400
  H     13.190700   30.051200   62.223800
  H     14.866800   29.777000   61.744300
  S     13.845000   36.770200   56.647600
  C     13.916000   38.352100   57.295200
  C     14.750200   38.294400   58.388400
  C     15.153700   37.011600   58.865600
  C     14.726900   36.031400   57.965100
  H     15.063700   39.122900   59.014900
  C     15.971700   36.806000   60.091400
  H     16.049300   35.716900   60.205800
  H     15.356900   37.201000   60.999700
  C     17.420800   37.333000   60.210700
  H     17.798500   37.082600   61.256400
  H     17.320600   38.427600   60.139200
  C     18.331800   36.711300   59.255800
  H     18.307300   35.678200   59.492700
  H     19.421500   36.940600   59.388300
  H     18.064400   36.968700   58.186700
  H     15.028000   31.239700   56.830300
  H     13.541500   39.328600   56.921800

 Total Charge           Charge          ....    0
 Multiplicity           Mult            ....    1
 Number of Electrons    NEL             ....  134
 Basis Dimension        Dim             ....  322

ORBITAL ENERGIES
----------------

  NO   OCC          E(Eh)            E(eV)
   0   2.0000     -88.965383     -2420.8711
   1   2.0000     -88.965269     -2420.8680
   2   2.0000     -10.333427      -281.1868
   3   2.0000     -10.328937      -281.0647
   4   2.0000     -10.320214      -280.8273
   5   2.0000     -10.311686      -280.5952
   6   2.0000     -10.304262      -280.3932
   7   2.0000     -10.299049      -280.2514
   8   2.0000     -10.298385      -280.2333
   9   2.0000     -10.291218      -280.0383
  10   2.0000     -10.291024      -280.0330
  11   2.0000     -10.288557      -279.9659
  12   2.0000     -10.283593      -279.8308
  13   2.0000     -10.276361      -279.6340
  14   2.0000     -10.275165      -279.6014
  15   2.0000     -10.274848      -279.5928
  16   2.0000      -8.080755      -219.8885
  17   2.0000      -8.078569      -219.8290
  18   2.0000      -6.039361      -164.3394
  19   2.0000      -6.037288      -164.2830
  20   2.0000      -6.034981      -164.2202
  21   2.0000      -6.033495      -164.1798
  22   2.0000      -6.031514      -164.1258
  23   2.0000      -6.029006      -164.0576
  24   2.0000      -1.009242       -27.4629
  25   2.0000      -0.983139       -26.7526
  26   2.0000      -0.923030       -25.1169
  27   2.0000      -0.917568       -24.9683
  28   2.0000      -0.874183       -23.7877
  29   2.0000      -0.859433       -23.3864
  30   2.0000      -0.850685       -23.1483
  31   2.0000      -0.818940       -22.2845
  32   2.0000      -0.781892       -21.2764
  33   2.0000      -0.770647       -20.9704
  34   2.0000      -0.712873       -19.3983
  35   2.0000      -0.706294       -19.2192
  36   2.0000      -0.695218       -18.9178
  37   2.0000      -0.661179       -17.9916
  38   2.0000      -0.649665       -17.6783
  39   2.0000      -0.624762       -17.0006
  40   2.0000      -0.598527       -16.2868
  41   2.0000      -0.577397       -15.7118
  42   2.0000      -0.559624       -15.2281
  43   2.0000      -0.553865       -15.0714
  44   2.0000      -0.551483       -15.0066
  45   2.0000      -0.530402       -14.4330
  46   2.0000      -0.517889       -14.0925
  47   2.0000      -0.516615       -14.0578
  48   2.0000      -0.506484       -13.7821
  49   2.0000      -0.501506       -13.6467
  50   2.0000      -0.499472       -13.5913
  51   2.0000      -0.481929       -13.1140
  52   2.0000      -0.468737       -12.7550
  53   2.0000      -0.464447       -12.6383
  54   2.0000      -0.452882       -12.3236
  55   2.0000      -0.451978       -12.2989
  56   2.0000      -0.442917       -12.0524
  57   2.0000      -0.437903       -11.9160
  58   2.0000      -0.436143       -11.8680
  59   2.0000      -0.427417       -11.6306
  60   2.0000      -0.420386       -11.4393
  61   2.0000      -0.413722       -11.2579
  62   2.0000      -0.410236       -11.1631
  63   2.0000      -0.356328        -9.6962
  64   2.0000      -0.331317        -9.0156
  65   2.0000      -0.326496        -8.8844
  66   2.0000      -0.282802        -7.6954
  67   0.0000       0.019877         0.5409
  68   0.0000       0.074183         2.0186
  69   0.0000       0.102144         2.7795
  70   0.0000       0.112936         3.0732
  71   0.0000       0.134701         3.6654

MULLIKEN ATOMIC CHARGES
-----------------------
   0 S :    0.089765
   1 C :   -0.074753
   2 C :   -0.098641
   3 C :    0.005051
   4 C :   -0.114288
   5 H :    0.008563
   6 C :    0.127267
   7 H :   -0.030027
   8 H :    0.015086
   9 C :   -0.043247
  10 H :    0.026383
  11 H :    0.030671
  12 C :   -0.038408
  13 H :    0.024310
  14 H :    0.031257
  15 H :    0.025113
  16 S :    0.102092
  17 C :   -0.074258
  18 C :   -0.040305
  19 C :   -0.052128
  20 C :   -0.152869
  21 H :    0.007996
  22 C :    0.007170
  23 H :    0.006478
  24 H :    0.051626
  25 C :   -0.060877
  26 H :    0.034883
  27 H :    0.026277
  28 C :   -0.044909
  29 H :    0.019817
  30 H :    0.036353
  31 H :    0.057510
  32 H :    0.016640
  33 H :    0.074401
Sum of atomic charges:    0.0000000

LOEWDIN ATOMIC CHARGES
----------------------
   0 S :    0.352370
   1 C :   -0.174244
   2 C :   -0.056529
   3 C :   -0.058946
   4 C :   -0.156831
   5 H :    0.026059
   6 C :   -0.033488
   7 H :    0.011953
   8 H :    0.036041
   9 C :   -0.027091
  10 H :    0.024811
  11 H :    0.025172
  12 C :   -0.066401
  13 H :    0.027790
  14 H :    0.024031
  15 H :    0.024303
  16 S :    0.426476
  17 C :   -0.206366
  18 C :   -0.075223
  19 C :   -0.065136
  20 C :   -0.193305
  21 H :    0.025617
  22 C :   -0.044027
  23 H :    0.025697
  24 H :    0.044742
  25 C :   -0.045112
  26 H :    0.033574
  27 H :    0.018576
  28 C :   -0.072438
  29 H :    0.023217
  30 H :    0.031777
  31 H :    0.037060
  32 H :    0.009523
  33 H :    0.046347

  Mayer bond orders larger than 0.100000
B(  0-S ,  1-C ) :   1.1244 B(  0-S ,  4-C ) :   1.1046 B(  1-C ,  2-C ) :   1.6107
B(  1-C ,  4-C ) :   0.1005 B(  1-C , 32-H ) :   0.9773 B(  2-C ,  3-C ) :   1.2046
B(  2-C ,  6-C ) :   1.0644 B(  3-C ,  4-C ) :   1.6184 B(  3-C ,  5-H ) :   0.9871
B(  4-C , 20-C ) :   1.0689 B(  6-C ,  7-H ) :   0.9160 B(  6-C ,  8-H ) :   0.9162
B(  6-C ,  9-C ) :   1.0433 B(  9-C , 10-H ) :   0.9582 B(  9-C , 11-H ) :   0.9547
B(  9-C , 12-C ) :   1.0870 B( 12-C , 13-H ) :   0.9687 B( 12-C , 14-H ) :   0.9711
B( 12-C , 15-H ) :   0.9725 B( 16-S , 17-C ) :   1.1561 B( 16-S , 20-C ) :   1.1514
B( 17-C , 18-C ) :   1.5739 B( 17-C , 33-H ) :   0.9660 B( 18-C , 19-C ) :   1.2741
B( 18-C , 21-H ) :   0.9815 B( 19-C , 20-C ) :   1.5460 B( 19-C , 22-C ) :   1.0529
B( 22-C , 23-H ) :   0.9293 B( 22-C , 24-H ) :   0.9255 B( 22-C , 25-C ) :   1.0734
B( 25-C , 26-H ) :   0.9495 B( 25-C , 27-H ) :   0.9535 B( 25-C , 28-C ) :   1.0821
B( 28-C , 29-H ) :   0.9682 B( 28-C , 30-H ) :   0.9692 B( 28-C , 31-H ) :   0.9718

Dispersion correction           -0.014126039
FINAL SINGLE POINT ENERGY     -1339.855579124081

DIPOLE MOMENT
-------------
                                X             Y             Z
Electronic contribution:     -9.81145       8.77671     -24.19140
Nuclear contribution   :      9.99135      -8.79697      24.96211
                        -----------------------------------------
Total Dipole Moment    :      0.17990      -0.02026       0.77071
                        -----------------------------------------
Magnitude (a.u.)       :      0.79169
Magnitude (Debye)      :      2.01230

Rotational constants in cm-1:     0.018433     0.008575     0.007055
Rotational constants in MHz :   552.619568   257.080761   211.489534

                             ****ORCA TERMINATED NORMALLY****
TOTAL RUN TIME: 0 days 0 hours 0 minutes 33 seconds 555 msec
