                         Program Version 4.2.1 -  RELEASE  -
|  1> ! wB97X-D3 SP def2-SVP
|  2> %pal
|  3> nprocs 16
|  4> end
|  5>
|  6> * xyz 0 1
|  7> S 	 -106.922 	 51.6855 	 115.738
|  8> C 	 -108.017 	 52.544 	 116.812
|  9> C 	 -107.255 	 53.1138 	 117.829
| 10> C 	 -105.861 	 52.7564 	 117.89
| 11> C 	 -105.525 	 52.0163 	 116.806
| 12> H 	 -105.12 	 53.1283 	 118.564
| 13> C 	 -107.858 	 54.0245 	 118.924
| 14> H 	 -107.382 	 55.039 	 118.689
| 15> H 	 -107.452 	 53.8517 	 119.864
| 16> C 	 -109.366 	 54.2626 	 119.145
| 17> H 	 -109.763 	 53.284 	 119.129
| 18> H 	 -109.603 	 54.7416 	 120.081
| 19> C 	 -110.138 	 55.1286 	 118.108
| 20> H 	 -111.215 	 55.0994 	 118.305
| 21> H 	 -109.818 	 56.2338 	 118.146
| 22> H 	 -109.903 	 54.6579 	 117.115
| 23> S 	 -103.955 	 49.7266 	 116.74
| 24> C 	 -102.261 	 49.8395 	 116.402
| 25> C 	 -101.878 	 51.1774 	 116.202
| 26> C 	 -102.929 	 52.1073 	 116.431
| 27> C 	 -104.221 	 51.4595 	 116.49
| 28> H 	 -100.845 	 51.4936 	 116.029
| 29> C 	 -102.742 	 53.6184 	 116.32
| 30> H 	 -101.879 	 53.9149 	 116.888
| 31> H 	 -103.664 	 54.052 	 116.732
| 32> C 	 -102.365 	 54.1051 	 114.952
| 33> H 	 -101.381 	 53.648 	 114.625
| 34> H 	 -102.12 	 55.1835 	 114.816
| 35> C 	 -103.572 	 53.9078 	 113.936
| 36> H 	 -104.456 	 54.3169 	 114.251
| 37> H 	 -103.789 	 52.8529 	 113.866
| 38> H 	 -103.234 	 54.2419 	 112.98
| 39> H 	 -109.05 	 52.7894 	 116.655
| 40> H 	 -101.588 	 49.0004 	 116.306
| 41> *
| 42>
| 43>                          ****END OF INPUT****

CARTESIAN COORDINATES (ANGSTROEM)
---------------------------------
  S    -106.922000   51.685500  115.738000
  C    -108.017000   52.544000  116.812000
  C    -107.255000   53.113800  117.829000
  C    -105.861000   52.756400  117.890000
  C    -105.525000   52.016300  116.806000
  H    -105.120000   53.128300  118.564000
  C    -107.858000   54.024500  118.924000
  H    -107.382000   55.039000  118.689000
  H    -107.452000   53.851700  119.864000
  C    -109.366000   54.262600  119.145000
  H    -109.763000   53.284000  119.129000
  H    -109.603000   54.741600  120.081000
  C    -110.138000   55.128600  118.108000
  H    -111.215000   55.099400  118.305000
  H    -109.818000   56.233800  118.146000
  H    -109.903000   54.657900  117.115000
  S    -103.955000   49.726600  116.740000
  C    -102.261000   49.839500  116.402000
  C    -101.878000   51.177400  116.202000
  C    -102.929000   52.107300  116.431000
  C    -104.221000   51.459500  116.490000
  H    -100.845000   51.493600  116.029000
  C    -102.742000   53.618400  116.320000
  H    -101.879000   53.914900  116.888000
  H    -103.664000   54.052000  116.732000
  C    -102.365000   54.105100  114.952000
  H    -101.381000   53.648000  114.625000
  H    -102.120000   55.183500  114.816000
  C    -103.572000   53.907800  113.936000
  H    -104.456000   54.316900  114.251000
  H    -103.789000   52.852900  113.866000
  H    -103.234000   54.241900  112.980000
  H    -109.050000   52.789400  116.655000
  H    -101.588000   49.000400  116.306000

 Total Charge           Charge          ....    0
 Multiplicity           Mult            ....    1
 Number of Electrons    NEL             ....  134
 Basis Dimension        Dim             ....  322

ORBITAL ENERGIES
----------------

  NO   OCC          E(Eh)            E(eV)
   0   2.0000     -88.969119     -2420.9728
   1   2.0000     -88.966243     -2420.8945
   2   2.0000     -10.333196      -281.1806
   3   2.0000     -10.331076      -281.1229
   4   2.0000     -10.322293      -280.8839
   5   2.0000     -10.316963      -280.7388
   6   2.0000     -10.311053      -280.5780
   7   2.0000     -10.309922      -280.5472
   8   2.0000     -10.298449      -280.2350
   9   2.0000     -10.297121      -280.1989
  10   2.0000     -10.293339      -280.0960
  11   2.0000     -10.291601      -280.0487
  12   2.0000     -10.290343      -280.0145
  13   2.0000     -10.290278      -280.0127
  14   2.0000     -10.285831      -279.8917
  15   2.0000     -10.260306      -279.1971
  16   2.0000      -8.083545      -219.9644
  17   2.0000      -8.080250      -219.8748
  18   2.0000      -6.041993      -164.4110
  19   2.0000      -6.038970      -164.3287
  20   2.0000      -6.037951      -164.3010
  21   2.0000      -6.034811      -164.2156
  22   2.0000      -6.034512      -164.2074
  23   2.0000      -6.030856      -164.1079
  24   2.0000      -1.003978       -27.3196
  25   2.0000      -0.981434       -26.7062
  26   2.0000      -0.909523       -24.7494
  27   2.0000      -0.906483       -24.6666
  28   2.0000      -0.869007       -23.6469
  29   2.0000      -0.850617       -23.1465
  30   2.0000      -0.841437       -22.8967
  31   2.0000      -0.811103       -22.0712
  32   2.0000      -0.785214       -21.3668
  33   2.0000      -0.773686       -21.0531
  34   2.0000      -0.706739       -19.2313
  35   2.0000      -0.701107       -19.0781
  36   2.0000      -0.694628       -18.9018
  37   2.0000      -0.655014       -17.8238
  38   2.0000      -0.645065       -17.5531
  39   2.0000      -0.611969       -16.6525
  40   2.0000      -0.593538       -16.1510
  41   2.0000      -0.577729       -15.7208
  42   2.0000      -0.551652       -15.0112
  43   2.0000      -0.547661       -14.9026
  44   2.0000      -0.545509       -14.8441
  45   2.0000      -0.538315       -14.6483
  46   2.0000      -0.519615       -14.1394
  47   2.0000      -0.517035       -14.0692
  48   2.0000      -0.506444       -13.7811
  49   2.0000      -0.497246       -13.5308
  50   2.0000      -0.489743       -13.3266
  51   2.0000      -0.485887       -13.2216
  52   2.0000      -0.468927       -12.7601
  53   2.0000      -0.463922       -12.6240
  54   2.0000      -0.461109       -12.5474
  55   2.0000      -0.449817       -12.2401
  56   2.0000      -0.443977       -12.0812
  57   2.0000      -0.434709       -11.8290
  58   2.0000      -0.432771       -11.7763
  59   2.0000      -0.422088       -11.4856
  60   2.0000      -0.419679       -11.4200
  61   2.0000      -0.409946       -11.1552
  62   2.0000      -0.398397       -10.8409
  63   2.0000      -0.346331        -9.4241
  64   2.0000      -0.330465        -8.9924
  65   2.0000      -0.324464        -8.8291
  66   2.0000      -0.298679        -8.1275
  67   0.0000       0.028648         0.7795
  68   0.0000       0.059592         1.6216
  69   0.0000       0.110392         3.0039
  70   0.0000       0.111934         3.0459
  71   0.0000       0.129884         3.5343

MULLIKEN ATOMIC CHARGES
-----------------------
   0 S :    0.105335
   1 C :   -0.112634
   2 C :   -0.092441
   3 C :    0.059575
   4 C :   -0.170892
   5 H :    0.020659
   6 C :    0.044071
   7 H :    0.029178
   8 H :    0.014647
   9 C :   -0.051449
  10 H :    0.023637
  11 H :    0.027819
  12 C :   -0.095916
  13 H :    0.045307
  14 H :    0.047536
  15 H :    0.029938
  16 S :    0.122863
  17 C :   -0.089238
  18 C :   -0.035471
  19 C :   -0.062406
  20 C :   -0.149727
  21 H :    0.025393
  22 C :    0.104351
  23 H :    0.021799
  24 H :    0.024601
  25 C :   -0.121474
  26 H :    0.028336
  27 H :    0.034563
  28 C :   -0.005767
  29 H :    0.014819
  30 H :    0.028623
  31 H :    0.023428
  32 H :    0.049213
  33 H :    0.061724
Sum of atomic charges:   -0.0000000

LOEWDIN ATOMIC CHARGES
----------------------
   0 S :    0.386110
   1 C :   -0.204335
   2 C :   -0.052476
   3 C :   -0.054438
   4 C :   -0.179590
   5 H :    0.035491
   6 C :   -0.038267
   7 H :    0.038701
   8 H :    0.022011
   9 C :   -0.042466
  10 H :    0.018946
  11 H :    0.026898
  12 C :   -0.073364
  13 H :    0.027031
  14 H :    0.033188
  15 H :    0.023242
  16 S :    0.423607
  17 C :   -0.188836
  18 C :   -0.075323
  19 C :   -0.042845
  20 C :   -0.212572
  21 H :    0.032613
  22 C :   -0.035977
  23 H :    0.032087
  24 H :    0.030624
  25 C :   -0.044286
  26 H :    0.026032
  27 H :    0.026415
  28 C :   -0.053214
  29 H :    0.013113
  30 H :    0.024103
  31 H :    0.020729
  32 H :    0.026623
  33 H :    0.030426

  Mayer bond orders larger than 0.100000
B(  0-S ,  1-C ) :   1.1104 B(  0-S ,  4-C ) :   1.1432 B(  1-C ,  2-C ) :   1.6418
B(  1-C , 32-H ) :   0.9624 B(  2-C ,  3-C ) :   1.2061 B(  2-C ,  6-C ) :   1.0043
B(  3-C ,  4-C ) :   1.6040 B(  3-C ,  5-H ) :   0.9969 B(  4-C , 20-C ) :   1.0222
B(  6-C ,  7-H ) :   0.9319 B(  6-C ,  8-H ) :   0.9472 B(  6-C ,  9-C ) :   1.0716
B(  9-C , 10-H ) :   0.9523 B(  9-C , 11-H ) :   0.9543 B(  9-C , 12-C ) :   1.0779
B( 12-C , 13-H ) :   0.9745 B( 12-C , 14-H ) :   0.9724 B( 12-C , 15-H ) :   0.9769
B( 16-S , 17-C ) :   1.1842 B( 16-S , 20-C ) :   1.1593 B( 17-C , 18-C ) :   1.5576
B( 17-C , 20-C ) :   0.1157 B( 17-C , 33-H ) :   0.9693 B( 18-C , 19-C ) :   1.2818
B( 18-C , 21-H ) :   0.9853 B( 19-C , 20-C ) :   1.5203 B( 19-C , 22-C ) :   1.0560
B( 22-C , 23-H ) :   0.9231 B( 22-C , 24-H ) :   0.9353 B( 22-C , 25-C ) :   1.0755
B( 25-C , 26-H ) :   0.9521 B( 25-C , 27-H ) :   0.9582 B( 25-C , 28-C ) :   1.0628
B( 28-C , 29-H ) :   0.9760 B( 28-C , 30-H ) :   0.9764 B( 28-C , 31-H ) :   0.9761

Dispersion correction           -0.015032635
FINAL SINGLE POINT ENERGY     -1339.860746789075

DIPOLE MOMENT
-------------
                                X             Y             Z
Electronic contribution:      5.78376     -22.82821      -1.78969
Nuclear contribution   :     -5.53921      23.35910       2.16274
                        -----------------------------------------
Total Dipole Moment    :      0.24455       0.53089       0.37305
                        -----------------------------------------
Magnitude (a.u.)       :      0.69341
Magnitude (Debye)      :      1.76251

Rotational constants in cm-1:     0.023191     0.007590     0.006743
Rotational constants in MHz :   695.244280   227.535905   202.164659

                             ****ORCA TERMINATED NORMALLY****
TOTAL RUN TIME: 0 days 0 hours 0 minutes 33 seconds 41 msec
