                         Program Version 4.2.1 -  RELEASE  -
|  1> ! wB97X-D3 SP def2-SVP
|  2> %pal
|  3> nprocs 16
|  4> end
|  5>
|  6> * xyz 0 1
|  7> S 	 20.8002 	 4.87889 	 74.1796
|  8> C 	 21.3234 	 4.68603 	 72.4848
|  9> C 	 21.1535 	 5.82097 	 71.7774
| 10> C 	 20.3073 	 6.78635 	 72.4917
| 11> C 	 20.041 	 6.42748 	 73.7795
| 12> H 	 20.1045 	 7.77611 	 72.2117
| 13> C 	 21.7096 	 6.10678 	 70.4507
| 14> H 	 21.0736 	 5.63137 	 69.84
| 15> H 	 22.6899 	 5.65087 	 70.3331
| 16> C 	 21.9165 	 7.62862 	 70.0038
| 17> H 	 22.3069 	 7.63512 	 68.9773
| 18> H 	 20.9401 	 7.98851 	 69.9208
| 19> C 	 22.8495 	 8.55472 	 70.7874
| 20> H 	 23.4252 	 9.30052 	 70.1049
| 21> H 	 22.234 	 9.22388 	 71.429
| 22> H 	 23.5953 	 8.00405 	 71.4399
| 23> S 	 17.6441 	 7.57082 	 74.4389
| 24> C 	 17.5832 	 8.53724 	 75.9469
| 25> C 	 18.8529 	 8.80314 	 76.5113
| 26> C 	 19.8584 	 8.04763 	 75.7649
| 27> C 	 19.3641 	 7.27734 	 74.732
| 28> H 	 19.0541 	 9.29081 	 77.452
| 29> C 	 21.2284 	 7.82308 	 76.405
| 30> H 	 21.4093 	 6.69556 	 76.3867
| 31> H 	 21.1056 	 7.99937 	 77.5058
| 32> C 	 22.4766 	 8.61801 	 75.8869
| 33> H 	 22.7645 	 8.16921 	 74.9353
| 34> H 	 23.3173 	 8.27893 	 76.4903
| 35> C 	 22.2624 	 10.1065 	 75.9391
| 36> H 	 21.6119 	 10.6362 	 75.1776
| 37> H 	 23.165 	 10.6171 	 75.6873
| 38> H 	 21.9009 	 10.5898 	 76.8785
| 39> H 	 21.9951 	 3.96509 	 72.0769
| 40> H 	 16.7106 	 9.03351 	 76.3948
| 41> *
| 42>
| 43>                          ****END OF INPUT****

CARTESIAN COORDINATES (ANGSTROEM)
---------------------------------
  S     20.800200    4.878890   74.179600
  C     21.323400    4.686030   72.484800
  C     21.153500    5.820970   71.777400
  C     20.307300    6.786350   72.491700
  C     20.041000    6.427480   73.779500
  H     20.104500    7.776110   72.211700
  C     21.709600    6.106780   70.450700
  H     21.073600    5.631370   69.840000
  H     22.689900    5.650870   70.333100
  C     21.916500    7.628620   70.003800
  H     22.306900    7.635120   68.977300
  H     20.940100    7.988510   69.920800
  C     22.849500    8.554720   70.787400
  H     23.425200    9.300520   70.104900
  H     22.234000    9.223880   71.429000
  H     23.595300    8.004050   71.439900
  S     17.644100    7.570820   74.438900
  C     17.583200    8.537240   75.946900
  C     18.852900    8.803140   76.511300
  C     19.858400    8.047630   75.764900
  C     19.364100    7.277340   74.732000
  H     19.054100    9.290810   77.452000
  C     21.228400    7.823080   76.405000
  H     21.409300    6.695560   76.386700
  H     21.105600    7.999370   77.505800
  C     22.476600    8.618010   75.886900
  H     22.764500    8.169210   74.935300
  H     23.317300    8.278930   76.490300
  C     22.262400   10.106500   75.939100
  H     21.611900   10.636200   75.177600
  H     23.165000   10.617100   75.687300
  H     21.900900   10.589800   76.878500
  H     21.995100    3.965090   72.076900
  H     16.710600    9.033510   76.394800

 Total Charge           Charge          ....    0
 Multiplicity           Mult            ....    1
 Number of Electrons    NEL             ....  134
 Basis Dimension        Dim             ....  322

ORBITAL ENERGIES
----------------

  NO   OCC          E(Eh)            E(eV)
   0   2.0000     -88.969503     -2420.9833
   1   2.0000     -88.965578     -2420.8765
   2   2.0000     -10.327563      -281.0273
   3   2.0000     -10.325409      -280.9687
   4   2.0000     -10.324116      -280.9335
   5   2.0000     -10.307196      -280.4731
   6   2.0000     -10.303684      -280.3775
   7   2.0000     -10.300504      -280.2910
   8   2.0000     -10.298089      -280.2253
   9   2.0000     -10.296111      -280.1714
  10   2.0000     -10.294164      -280.1184
  11   2.0000     -10.289632      -279.9951
  12   2.0000     -10.289228      -279.9841
  13   2.0000     -10.288634      -279.9680
  14   2.0000     -10.285050      -279.8704
  15   2.0000     -10.279798      -279.7275
  16   2.0000      -8.082995      -219.9495
  17   2.0000      -8.079105      -219.8436
  18   2.0000      -6.041646      -164.4015
  19   2.0000      -6.037903      -164.2997
  20   2.0000      -6.037753      -164.2956
  21   2.0000      -6.033954      -164.1922
  22   2.0000      -6.033582      -164.1821
  23   2.0000      -6.029463      -164.0700
  24   2.0000      -1.001646       -27.2562
  25   2.0000      -0.976247       -26.5650
  26   2.0000      -0.911267       -24.7968
  27   2.0000      -0.899483       -24.4762
  28   2.0000      -0.870651       -23.6916
  29   2.0000      -0.847372       -23.0582
  30   2.0000      -0.842084       -22.9143
  31   2.0000      -0.815852       -22.2005
  32   2.0000      -0.783637       -21.3238
  33   2.0000      -0.770703       -20.9719
  34   2.0000      -0.713893       -19.4260
  35   2.0000      -0.700333       -19.0570
  36   2.0000      -0.687177       -18.6990
  37   2.0000      -0.666446       -18.1349
  38   2.0000      -0.637748       -17.3540
  39   2.0000      -0.617444       -16.8015
  40   2.0000      -0.580498       -15.7962
  41   2.0000      -0.567137       -15.4326
  42   2.0000      -0.560897       -15.2628
  43   2.0000      -0.548511       -14.9258
  44   2.0000      -0.535025       -14.5588
  45   2.0000      -0.533407       -14.5147
  46   2.0000      -0.517389       -14.0789
  47   2.0000      -0.509397       -13.8614
  48   2.0000      -0.497560       -13.5393
  49   2.0000      -0.495614       -13.4863
  50   2.0000      -0.488869       -13.3028
  51   2.0000      -0.480163       -13.0659
  52   2.0000      -0.473337       -12.8802
  53   2.0000      -0.469535       -12.7767
  54   2.0000      -0.458744       -12.4831
  55   2.0000      -0.448655       -12.2085
  56   2.0000      -0.440582       -11.9888
  57   2.0000      -0.434057       -11.8113
  58   2.0000      -0.427578       -11.6350
  59   2.0000      -0.421765       -11.4768
  60   2.0000      -0.414731       -11.2854
  61   2.0000      -0.413594       -11.2545
  62   2.0000      -0.405803       -11.0425
  63   2.0000      -0.335540        -9.1305
  64   2.0000      -0.332416        -9.0455
  65   2.0000      -0.324261        -8.8236
  66   2.0000      -0.300309        -8.1718
  67   0.0000       0.037187         1.0119
  68   0.0000       0.056859         1.5472
  69   0.0000       0.099717         2.7134
  70   0.0000       0.108811         2.9609
  71   0.0000       0.118187         3.2160

MULLIKEN ATOMIC CHARGES
-----------------------
   0 S :    0.098814
   1 C :   -0.106742
   2 C :   -0.100369
   3 C :    0.048845
   4 C :   -0.137217
   5 H :   -0.003702
   6 C :    0.104914
   7 H :    0.017743
   8 H :    0.023220
   9 C :   -0.082239
  10 H :    0.032699
  11 H :    0.022830
  12 C :   -0.091301
  13 H :    0.048308
  14 H :    0.039150
  15 H :    0.052678
  16 S :    0.116075
  17 C :   -0.097072
  18 C :   -0.032237
  19 C :    0.008043
  20 C :   -0.188160
  21 H :    0.029225
  22 C :   -0.045816
  23 H :    0.037526
  24 H :    0.027527
  25 C :    0.002999
  26 H :    0.030327
  27 H :    0.024991
  28 C :   -0.065586
  29 H :    0.037366
  30 H :    0.019152
  31 H :    0.031899
  32 H :    0.031893
  33 H :    0.064216
Sum of atomic charges:   -0.0000000

LOEWDIN ATOMIC CHARGES
----------------------
   0 S :    0.379365
   1 C :   -0.191049
   2 C :   -0.054701
   3 C :   -0.055976
   4 C :   -0.183390
   5 H :    0.021830
   6 C :   -0.022748
   7 H :    0.023801
   8 H :    0.031056
   9 C :   -0.041536
  10 H :    0.031091
  11 H :    0.014299
  12 C :   -0.080615
  13 H :    0.038146
  14 H :    0.027371
  15 H :    0.033664
  16 S :    0.390533
  17 C :   -0.176314
  18 C :   -0.064198
  19 C :   -0.054634
  20 C :   -0.195838
  21 H :    0.032295
  22 C :   -0.043511
  23 H :    0.030794
  24 H :    0.029393
  25 C :   -0.039950
  26 H :    0.029508
  27 H :    0.028597
  28 C :   -0.083302
  29 H :    0.035613
  30 H :    0.023483
  31 H :    0.029459
  32 H :    0.025132
  33 H :    0.032331

  Mayer bond orders larger than 0.100000
B(  0-S ,  1-C ) :   1.1009 B(  0-S ,  4-C ) :   1.1206 B(  1-C ,  2-C ) :   1.6940
B(  1-C , 32-H ) :   0.9642 B(  2-C ,  3-C ) :   1.1785 B(  2-C ,  6-C ) :   1.0105
B(  3-C ,  4-C ) :   1.6386 B(  3-C ,  5-H ) :   0.9925 B(  4-C , 20-C ) :   1.0263
B(  6-C ,  7-H ) :   0.9278 B(  6-C ,  8-H ) :   0.9382 B(  6-C ,  9-C ) :   1.0857
B(  9-C , 10-H ) :   0.9594 B(  9-C , 11-H ) :   0.9553 B(  9-C , 12-C ) :   1.0542
B( 12-C , 13-H ) :   0.9776 B( 12-C , 14-H ) :   0.9762 B( 12-C , 15-H ) :   0.9782
B( 16-S , 17-C ) :   1.1424 B( 16-S , 20-C ) :   1.1167 B( 17-C , 18-C ) :   1.6346
B( 17-C , 33-H ) :   0.9622 B( 18-C , 19-C ) :   1.2169 B( 18-C , 21-H ) :   0.9825
B( 19-C , 20-C ) :   1.6365 B( 19-C , 22-C ) :   1.0155 B( 22-C , 23-H ) :   0.9475
B( 22-C , 24-H ) :   0.9486 B( 22-C , 25-C ) :   1.0657 B( 25-C , 26-H ) :   0.9525
B( 25-C , 27-H ) :   0.9516 B( 25-C , 28-C ) :   1.0680 B( 28-C , 29-H ) :   0.9696
B( 28-C , 30-H ) :   0.9704 B( 28-C , 31-H ) :   0.9766

Dispersion correction           -0.015451385
FINAL SINGLE POINT ENERGY     -1339.844486520476

DIPOLE MOMENT
-------------
                                X             Y             Z
Electronic contribution:    -19.65435     -14.93511       6.32377
Nuclear contribution   :     20.17092      15.38573      -6.52112
                        -----------------------------------------
Total Dipole Moment    :      0.51657       0.45062      -0.19735
                        -----------------------------------------
Magnitude (a.u.)       :      0.71334
Magnitude (Debye)      :      1.81316

Rotational constants in cm-1:     0.017147     0.009657     0.008403
Rotational constants in MHz :   514.063354   289.496587   251.921091

                             ****ORCA TERMINATED NORMALLY****
TOTAL RUN TIME: 0 days 0 hours 0 minutes 35 seconds 589 msec
