                         Program Version 4.2.1 -  RELEASE  -
|  1> ! wB97X-D3 SP def2-SVP
|  2> %pal
|  3> nprocs 16
|  4> end
|  5>
|  6> * xyz 0 1
|  7> S 	 -29.8609 	 62.6614 	 111.906
|  8> C 	 -28.7339 	 62.586 	 110.587
|  9> C 	 -29.3633 	 62.5711 	 109.334
| 10> C 	 -30.7655 	 62.5831 	 109.505
| 11> C 	 -31.2398 	 62.5896 	 110.817
| 12> H 	 -31.4537 	 62.6439 	 108.712
| 13> C 	 -28.6724 	 62.3206 	 108.016
| 14> H 	 -29.4511 	 62.2597 	 107.284
| 15> H 	 -28.1983 	 61.4278 	 108.226
| 16> C 	 -27.7172 	 63.3377 	 107.507
| 17> H 	 -26.9833 	 63.4169 	 108.244
| 18> H 	 -27.1282 	 63.0644 	 106.684
| 19> C 	 -28.2196 	 64.7724 	 107.506
| 20> H 	 -28.41 	 64.9315 	 106.407
| 21> H 	 -29.123 	 64.8855 	 108.037
| 22> H 	 -27.436 	 65.4338 	 107.92
| 23> S 	 -33.7545 	 63.7014 	 111.004
| 24> C 	 -35.0343 	 62.8791 	 111.825
| 25> C 	 -34.5819 	 61.6672 	 112.368
| 26> C 	 -33.2052 	 61.3947 	 112.095
| 27> C 	 -32.6132 	 62.3994 	 111.309
| 28> H 	 -35.1552 	 61.0018 	 112.862
| 29> C 	 -32.5329 	 60.2083 	 112.642
| 30> H 	 -32.8478 	 60.1624 	 113.731
| 31> H 	 -31.4754 	 60.456 	 112.682
| 32> C 	 -32.5992 	 58.8772 	 111.809
| 33> H 	 -33.636 	 58.5321 	 111.794
| 34> H 	 -32.0302 	 58.039 	 112.275
| 35> C 	 -32.0077 	 58.9652 	 110.426
| 36> H 	 -31.0657 	 59.6121 	 110.404
| 37> H 	 -32.7191 	 59.4283 	 109.803
| 38> H 	 -31.7655 	 58.013 	 109.943
| 39> H 	 -27.6696 	 62.3698 	 110.736
| 40> H 	 -35.9946 	 63.2169 	 111.765
| 41> *
| 42>
| 43>                          ****END OF INPUT****

CARTESIAN COORDINATES (ANGSTROEM)
---------------------------------
  S    -29.860900   62.661400  111.906000
  C    -28.733900   62.586000  110.587000
  C    -29.363300   62.571100  109.334000
  C    -30.765500   62.583100  109.505000
  C    -31.239800   62.589600  110.817000
  H    -31.453700   62.643900  108.712000
  C    -28.672400   62.320600  108.016000
  H    -29.451100   62.259700  107.284000
  H    -28.198300   61.427800  108.226000
  C    -27.717200   63.337700  107.507000
  H    -26.983300   63.416900  108.244000
  H    -27.128200   63.064400  106.684000
  C    -28.219600   64.772400  107.506000
  H    -28.410000   64.931500  106.407000
  H    -29.123000   64.885500  108.037000
  H    -27.436000   65.433800  107.920000
  S    -33.754500   63.701400  111.004000
  C    -35.034300   62.879100  111.825000
  C    -34.581900   61.667200  112.368000
  C    -33.205200   61.394700  112.095000
  C    -32.613200   62.399400  111.309000
  H    -35.155200   61.001800  112.862000
  C    -32.532900   60.208300  112.642000
  H    -32.847800   60.162400  113.731000
  H    -31.475400   60.456000  112.682000
  C    -32.599200   58.877200  111.809000
  H    -33.636000   58.532100  111.794000
  H    -32.030200   58.039000  112.275000
  C    -32.007700   58.965200  110.426000
  H    -31.065700   59.612100  110.404000
  H    -32.719100   59.428300  109.803000
  H    -31.765500   58.013000  109.943000
  H    -27.669600   62.369800  110.736000
  H    -35.994600   63.216900  111.765000

 Total Charge           Charge          ....    0
 Multiplicity           Mult            ....    1
 Number of Electrons    NEL             ....  134
 Basis Dimension        Dim             ....  322

ORBITAL ENERGIES
----------------

  NO   OCC          E(Eh)            E(eV)
   0   2.0000     -88.969306     -2420.9779
   1   2.0000     -88.965384     -2420.8712
   2   2.0000     -10.330958      -281.1197
   3   2.0000     -10.328624      -281.0561
   4   2.0000     -10.316268      -280.7199
   5   2.0000     -10.314460      -280.6707
   6   2.0000     -10.302469      -280.3444
   7   2.0000     -10.301806      -280.3264
   8   2.0000     -10.292002      -280.0596
   9   2.0000     -10.291340      -280.0416
  10   2.0000     -10.288665      -279.9688
  11   2.0000     -10.287945      -279.9492
  12   2.0000     -10.282711      -279.8068
  13   2.0000     -10.273248      -279.5493
  14   2.0000     -10.270922      -279.4860
  15   2.0000     -10.268627      -279.4236
  16   2.0000      -8.083490      -219.9630
  17   2.0000      -8.080377      -219.8782
  18   2.0000      -6.041900      -164.4085
  19   2.0000      -6.038744      -164.3226
  20   2.0000      -6.037865      -164.2986
  21   2.0000      -6.034691      -164.2123
  22   2.0000      -6.034612      -164.2101
  23   2.0000      -6.031440      -164.1238
  24   2.0000      -1.004892       -27.3445
  25   2.0000      -0.985101       -26.8060
  26   2.0000      -0.923970       -25.1425
  27   2.0000      -0.907888       -24.7049
  28   2.0000      -0.867109       -23.5952
  29   2.0000      -0.854282       -23.2462
  30   2.0000      -0.849980       -23.1291
  31   2.0000      -0.813975       -22.1494
  32   2.0000      -0.785910       -21.3857
  33   2.0000      -0.771625       -20.9970
  34   2.0000      -0.707024       -19.2391
  35   2.0000      -0.702252       -19.1093
  36   2.0000      -0.695373       -18.9221
  37   2.0000      -0.668942       -18.2028
  38   2.0000      -0.643380       -17.5072
  39   2.0000      -0.613523       -16.6948
  40   2.0000      -0.597146       -16.2492
  41   2.0000      -0.582163       -15.8415
  42   2.0000      -0.565409       -15.3856
  43   2.0000      -0.553674       -15.0662
  44   2.0000      -0.547586       -14.9006
  45   2.0000      -0.545547       -14.8451
  46   2.0000      -0.515129       -14.0174
  47   2.0000      -0.513960       -13.9856
  48   2.0000      -0.499432       -13.5902
  49   2.0000      -0.496547       -13.5117
  50   2.0000      -0.492316       -13.3966
  51   2.0000      -0.479768       -13.0551
  52   2.0000      -0.474785       -12.9196
  53   2.0000      -0.464797       -12.6478
  54   2.0000      -0.460720       -12.5368
  55   2.0000      -0.446173       -12.1410
  56   2.0000      -0.442241       -12.0340
  57   2.0000      -0.440198       -11.9784
  58   2.0000      -0.436810       -11.8862
  59   2.0000      -0.425324       -11.5737
  60   2.0000      -0.416330       -11.3289
  61   2.0000      -0.409439       -11.1414
  62   2.0000      -0.397930       -10.8282
  63   2.0000      -0.337373        -9.1804
  64   2.0000      -0.332310        -9.0426
  65   2.0000      -0.327288        -8.9060
  66   2.0000      -0.297960        -8.1079
  67   0.0000       0.028144         0.7659
  68   0.0000       0.064052         1.7429
  69   0.0000       0.110253         3.0001
  70   0.0000       0.118769         3.2319
  71   0.0000       0.128205         3.4886

MULLIKEN ATOMIC CHARGES
-----------------------
   0 S :    0.125488
   1 C :   -0.146018
   2 C :   -0.131532
   3 C :    0.057800
   4 C :   -0.172198
   5 H :   -0.010762
   6 C :    0.155289
   7 H :    0.007853
   8 H :    0.021757
   9 C :   -0.033757
  10 H :   -0.014698
  11 H :    0.015405
  12 C :   -0.060319
  13 H :    0.035660
  14 H :    0.034723
  15 H :    0.043541
  16 S :    0.113188
  17 C :   -0.054106
  18 C :    0.018195
  19 C :   -0.038967
  20 C :   -0.173957
  21 H :   -0.030248
  22 C :    0.045997
  23 H :    0.043415
  24 H :    0.010819
  25 C :   -0.053369
  26 H :    0.024002
  27 H :    0.033679
  28 C :   -0.061099
  29 H :    0.045436
  30 H :    0.025419
  31 H :    0.034261
  32 H :    0.059083
  33 H :    0.030019
Sum of atomic charges:   -0.0000000

LOEWDIN ATOMIC CHARGES
----------------------
   0 S :    0.423961
   1 C :   -0.207535
   2 C :   -0.062609
   3 C :   -0.054746
   4 C :   -0.201079
   5 H :    0.021572
   6 C :   -0.016545
   7 H :    0.025804
   8 H :    0.029264
   9 C :   -0.045956
  10 H :    0.013937
  11 H :    0.019720
  12 C :   -0.058256
  13 H :    0.032201
  14 H :    0.020166
  15 H :    0.032398
  16 S :    0.421598
  17 C :   -0.171592
  18 C :   -0.052388
  19 C :   -0.054226
  20 C :   -0.205410
  21 H :    0.010413
  22 C :   -0.042963
  23 H :    0.042936
  24 H :    0.020713
  25 C :   -0.039911
  26 H :    0.019793
  27 H :    0.028577
  28 C :   -0.069560
  29 H :    0.035887
  30 H :    0.017871
  31 H :    0.027314
  32 H :    0.029595
  33 H :    0.009055

  Mayer bond orders larger than 0.100000
B(  0-S ,  1-C ) :   1.1700 B(  0-S ,  4-C ) :   1.1567 B(  1-C ,  2-C ) :   1.5622
B(  1-C ,  4-C ) :   0.1042 B(  1-C , 32-H ) :   0.9633 B(  2-C ,  3-C ) :   1.2806
B(  2-C ,  6-C ) :   0.9987 B(  3-C ,  4-C ) :   1.5528 B(  3-C ,  5-H ) :   0.9985
B(  4-C , 20-C ) :   1.0145 B(  6-C ,  7-H ) :   0.9378 B(  6-C ,  8-H ) :   0.9318
B(  6-C ,  9-C ) :   1.0895 B(  9-C , 10-H ) :   0.9499 B(  9-C , 11-H ) :   0.9570
B(  9-C , 12-C ) :   1.0580 B( 12-C , 13-H ) :   0.9799 B( 12-C , 14-H ) :   0.9771
B( 12-C , 15-H ) :   0.9821 B( 16-S , 17-C ) :   1.1784 B( 16-S , 20-C ) :   1.1606
B( 17-C , 18-C ) :   1.5452 B( 17-C , 20-C ) :   0.1047 B( 17-C , 33-H ) :   0.9841
B( 18-C , 19-C ) :   1.2722 B( 18-C , 21-H ) :   1.0080 B( 19-C , 20-C ) :   1.5505
B( 19-C , 22-C ) :   1.0511 B( 22-C , 23-H ) :   0.9347 B( 22-C , 24-H ) :   0.9257
B( 22-C , 25-C ) :   1.0606 B( 25-C , 26-H ) :   0.9592 B( 25-C , 27-H ) :   0.9594
B( 25-C , 28-C ) :   1.0714 B( 28-C , 29-H ) :   0.9717 B( 28-C , 30-H ) :   0.9738
B( 28-C , 31-H ) :   0.9740

Dispersion correction           -0.015741309
FINAL SINGLE POINT ENERGY     -1339.858281763754

DIPOLE MOMENT
-------------
                                X             Y             Z
Electronic contribution:    -10.78889      10.21377      12.90540
Nuclear contribution   :     10.93003     -10.65895     -13.16048
                        -----------------------------------------
Total Dipole Moment    :      0.14113      -0.44518      -0.25509
                        -----------------------------------------
Magnitude (a.u.)       :      0.53214
Magnitude (Debye)      :      1.35259

Rotational constants in cm-1:     0.022252     0.008373     0.007253
Rotational constants in MHz :   667.093140   251.017533   217.447451

                             ****ORCA TERMINATED NORMALLY****
TOTAL RUN TIME: 0 days 0 hours 0 minutes 31 seconds 230 msec
