                         Program Version 4.2.1 -  RELEASE  -
|  1> ! wB97X-D3 SP def2-SVP
|  2> %pal
|  3> nprocs 16
|  4> end
|  5>
|  6> * xyz 0 1
|  7> S 	 62.2166 	 20.5759 	 82.4602
|  8> C 	 60.8645 	 21.5586 	 83.0069
|  9> C 	 59.799 	 20.7602 	 83.2799
| 10> C 	 60.0425 	 19.3557 	 83.1541
| 11> C 	 61.2372 	 19.08 	 82.5266
| 12> H 	 59.3334 	 18.5157 	 83.2449
| 13> C 	 58.4553 	 21.2998 	 83.6856
| 14> H 	 57.7088 	 20.539 	 83.8512
| 15> H 	 58.0798 	 21.8776 	 82.8365
| 16> C 	 58.5339 	 22.3723 	 84.8134
| 17> H 	 58.9987 	 21.9447 	 85.6951
| 18> H 	 59.0516 	 23.3385 	 84.4943
| 19> C 	 57.098 	 22.7428 	 85.0821
| 20> H 	 56.9655 	 23.4369 	 85.8618
| 21> H 	 56.4005 	 23.0566 	 84.3107
| 22> H 	 56.5651 	 21.9388 	 85.5479
| 23> S 	 63.4639 	 17.5067 	 82.0732
| 24> C 	 63.3265 	 15.9217 	 81.3976
| 25> C 	 62.0296 	 15.5967 	 81.1906
| 26> C 	 61.1535 	 16.6209 	 81.5892
| 27> C 	 61.7554 	 17.7899 	 82.0326
| 28> H 	 61.8081 	 14.5381 	 80.7675
| 29> C 	 59.7039 	 16.4025 	 81.3459
| 30> H 	 59.6001 	 15.8093 	 80.4298
| 31> H 	 59.3776 	 17.372 	 81.0966
| 32> C 	 59.0435 	 15.8363 	 82.5927
| 33> H 	 59.2917 	 16.4793 	 83.4365
| 34> H 	 59.4806 	 14.8995 	 82.8336
| 35> C 	 57.5543 	 15.7275 	 82.3263
| 36> H 	 57.0642 	 15.2421 	 83.1889
| 37> H 	 57.3992 	 15.1245 	 81.4182
| 38> H 	 57.0414 	 16.7073 	 82.2794
| 39> H 	 60.8227 	 22.598 	 83.0635
| 40> H 	 64.1179 	 15.2307 	 81.115
| 41> *
| 42>
| 43>                          ****END OF INPUT****

CARTESIAN COORDINATES (ANGSTROEM)
---------------------------------
  S     62.216600   20.575900   82.460200
  C     60.864500   21.558600   83.006900
  C     59.799000   20.760200   83.279900
  C     60.042500   19.355700   83.154100
  C     61.237200   19.080000   82.526600
  H     59.333400   18.515700   83.244900
  C     58.455300   21.299800   83.685600
  H     57.708800   20.539000   83.851200
  H     58.079800   21.877600   82.836500
  C     58.533900   22.372300   84.813400
  H     58.998700   21.944700   85.695100
  H     59.051600   23.338500   84.494300
  C     57.098000   22.742800   85.082100
  H     56.965500   23.436900   85.861800
  H     56.400500   23.056600   84.310700
  H     56.565100   21.938800   85.547900
  S     63.463900   17.506700   82.073200
  C     63.326500   15.921700   81.397600
  C     62.029600   15.596700   81.190600
  C     61.153500   16.620900   81.589200
  C     61.755400   17.789900   82.032600
  H     61.808100   14.538100   80.767500
  C     59.703900   16.402500   81.345900
  H     59.600100   15.809300   80.429800
  H     59.377600   17.372000   81.096600
  C     59.043500   15.836300   82.592700
  H     59.291700   16.479300   83.436500
  H     59.480600   14.899500   82.833600
  C     57.554300   15.727500   82.326300
  H     57.064200   15.242100   83.188900
  H     57.399200   15.124500   81.418200
  H     57.041400   16.707300   82.279400
  H     60.822700   22.598000   83.063500
  H     64.117900   15.230700   81.115000

 Total Charge           Charge          ....    0
 Multiplicity           Mult            ....    1
 Number of Electrons    NEL             ....  134
 Basis Dimension        Dim             ....  322

ORBITAL ENERGIES
----------------

  NO   OCC          E(Eh)            E(eV)
   0   2.0000     -88.963899     -2420.8308
   1   2.0000     -88.963819     -2420.8286
   2   2.0000     -10.336698      -281.2759
   3   2.0000     -10.327891      -281.0362
   4   2.0000     -10.312874      -280.6276
   5   2.0000     -10.307063      -280.4694
   6   2.0000     -10.297336      -280.2047
   7   2.0000     -10.296890      -280.1926
   8   2.0000     -10.295785      -280.1625
   9   2.0000     -10.295292      -280.1491
  10   2.0000     -10.293477      -280.0998
  11   2.0000     -10.290052      -280.0066
  12   2.0000     -10.283841      -279.8376
  13   2.0000     -10.282117      -279.7906
  14   2.0000     -10.280471      -279.7458
  15   2.0000     -10.268571      -279.4220
  16   2.0000      -8.079308      -219.8492
  17   2.0000      -8.077952      -219.8122
  18   2.0000      -6.037843      -164.2981
  19   2.0000      -6.036697      -164.2669
  20   2.0000      -6.033637      -164.1836
  21   2.0000      -6.032616      -164.1558
  22   2.0000      -6.030065      -164.0864
  23   2.0000      -6.028433      -164.0420
  24   2.0000      -1.011721       -27.5303
  25   2.0000      -0.988471       -26.8977
  26   2.0000      -0.920248       -25.0412
  27   2.0000      -0.915162       -24.9028
  28   2.0000      -0.873369       -23.7656
  29   2.0000      -0.854417       -23.2499
  30   2.0000      -0.846469       -23.0336
  31   2.0000      -0.822013       -22.3681
  32   2.0000      -0.778790       -21.1919
  33   2.0000      -0.769110       -20.9286
  34   2.0000      -0.713456       -19.4141
  35   2.0000      -0.707372       -19.2486
  36   2.0000      -0.699203       -19.0263
  37   2.0000      -0.663698       -18.0601
  38   2.0000      -0.641756       -17.4631
  39   2.0000      -0.617413       -16.8007
  40   2.0000      -0.594465       -16.1762
  41   2.0000      -0.573934       -15.6175
  42   2.0000      -0.571305       -15.5460
  43   2.0000      -0.564773       -15.3682
  44   2.0000      -0.531186       -14.4543
  45   2.0000      -0.521842       -14.2000
  46   2.0000      -0.520174       -14.1547
  47   2.0000      -0.514205       -13.9922
  48   2.0000      -0.509194       -13.8559
  49   2.0000      -0.503365       -13.6973
  50   2.0000      -0.496574       -13.5125
  51   2.0000      -0.481107       -13.0916
  52   2.0000      -0.476990       -12.9795
  53   2.0000      -0.465389       -12.6639
  54   2.0000      -0.461964       -12.5707
  55   2.0000      -0.448549       -12.2056
  56   2.0000      -0.444251       -12.0887
  57   2.0000      -0.439872       -11.9695
  58   2.0000      -0.431331       -11.7371
  59   2.0000      -0.424866       -11.5612
  60   2.0000      -0.423293       -11.5184
  61   2.0000      -0.416303       -11.3282
  62   2.0000      -0.408800       -11.1240
  63   2.0000      -0.359159        -9.7732
  64   2.0000      -0.332910        -9.0589
  65   2.0000      -0.325897        -8.8681
  66   2.0000      -0.286824        -7.8049
  67   0.0000       0.023068         0.6277
  68   0.0000       0.084232         2.2921
  69   0.0000       0.105793         2.8788
  70   0.0000       0.127443         3.4679
  71   0.0000       0.131329         3.5736

MULLIKEN ATOMIC CHARGES
-----------------------
   0 S :    0.094855
   1 C :   -0.083677
   2 C :   -0.068478
   3 C :    0.015180
   4 C :   -0.127791
   5 H :    0.006448
   6 C :    0.053173
   7 H :    0.017310
   8 H :    0.033772
   9 C :   -0.084113
  10 H :    0.042091
  11 H :    0.047798
  12 C :   -0.022805
  13 H :    0.007239
  14 H :    0.027451
  15 H :    0.004721
  16 S :    0.100421
  17 C :   -0.081495
  18 C :   -0.071312
  19 C :   -0.085966
  20 C :   -0.110883
  21 H :    0.051307
  22 C :    0.064159
  23 H :    0.023280
  24 H :    0.007825
  25 C :   -0.050629
  26 H :    0.027706
  27 H :    0.012899
  28 C :   -0.026720
  29 H :    0.031701
  30 H :    0.037155
  31 H :    0.034156
  32 H :    0.019083
  33 H :    0.054139
Sum of atomic charges:    0.0000000

LOEWDIN ATOMIC CHARGES
----------------------
   0 S :    0.378730
   1 C :   -0.184047
   2 C :   -0.062924
   3 C :   -0.074289
   4 C :   -0.166344
   5 H :    0.033870
   6 C :   -0.032249
   7 H :    0.026639
   8 H :    0.037962
   9 C :   -0.033323
  10 H :    0.027572
  11 H :    0.032237
  12 C :   -0.075322
  13 H :    0.018206
  14 H :    0.026910
  15 H :    0.023011
  16 S :    0.419672
  17 C :   -0.191113
  18 C :   -0.089779
  19 C :   -0.059350
  20 C :   -0.207028
  21 H :    0.050556
  22 C :   -0.029713
  23 H :    0.031340
  24 H :    0.021547
  25 C :   -0.034700
  26 H :    0.022810
  27 H :    0.021007
  28 C :   -0.066490
  29 H :    0.026166
  30 H :    0.028689
  31 H :    0.027379
  32 H :    0.017579
  33 H :    0.034787

  Mayer bond orders larger than 0.100000
B(  0-S ,  1-C ) :   1.1097 B(  0-S ,  4-C ) :   1.1413 B(  1-C ,  2-C ) :   1.6353
B(  1-C , 32-H ) :   0.9777 B(  2-C ,  3-C ) :   1.2189 B(  2-C ,  6-C ) :   1.0192
B(  3-C ,  4-C ) :   1.5879 B(  3-C ,  5-H ) :   0.9777 B(  4-C , 20-C ) :   1.0506
B(  6-C ,  7-H ) :   0.9544 B(  6-C ,  8-H ) :   0.9317 B(  6-C ,  9-C ) :   1.0612
B(  9-C , 10-H ) :   0.9581 B(  9-C , 11-H ) :   0.9509 B(  9-C , 12-C ) :   1.0853
B( 12-C , 13-H ) :   0.9666 B( 12-C , 14-H ) :   0.9733 B( 12-C , 15-H ) :   0.9653
B( 16-S , 17-C ) :   1.1660 B( 16-S , 20-C ) :   1.1326 B( 17-C , 18-C ) :   1.6129
B( 17-C , 33-H ) :   0.9622 B( 18-C , 19-C ) :   1.2664 B( 18-C , 21-H ) :   0.9751
B( 19-C , 20-C ) :   1.5804 B( 19-C , 22-C ) :   1.0368 B( 22-C , 23-H ) :   0.9373
B( 22-C , 24-H ) :   0.9327 B( 22-C , 25-C ) :   1.0570 B( 25-C , 26-H ) :   0.9486
B( 25-C , 27-H ) :   0.9473 B( 25-C , 28-C ) :   1.0856 B( 28-C , 29-H ) :   0.9726
B( 28-C , 30-H ) :   0.9701 B( 28-C , 31-H ) :   0.9731

Dispersion correction           -0.013924935
FINAL SINGLE POINT ENERGY     -1339.870438681178

DIPOLE MOMENT
-------------
                                X             Y             Z
Electronic contribution:     30.32366      -1.14034      -7.67181
Nuclear contribution   :    -31.07160       0.88606       7.69294
                        -----------------------------------------
Total Dipole Moment    :     -0.74795      -0.25428       0.02113
                        -----------------------------------------
Magnitude (a.u.)       :      0.79027
Magnitude (Debye)      :      2.00871

Rotational constants in cm-1:     0.019770     0.008401     0.006082
Rotational constants in MHz :   592.677584   251.868523   182.337377

                             ****ORCA TERMINATED NORMALLY****
TOTAL RUN TIME: 0 days 0 hours 0 minutes 30 seconds 342 msec
