                         Program Version 4.2.1 -  RELEASE  -
|  1> ! wB97X-D3 SP def2-SVP
|  2> %pal
|  3> nprocs 16
|  4> end
|  5>
|  6> * xyz 0 1
|  7> S 	 -16.3627 	 32.3643 	 38.2875
|  8> C 	 -17.8727 	 31.4465 	 38.2319
|  9> C 	 -18.7764 	 32.1776 	 37.4266
| 10> C 	 -18.2056 	 33.3109 	 36.7787
| 11> C 	 -16.8525 	 33.4547 	 37.0814
| 12> H 	 -18.6738 	 34.0068 	 36.1465
| 13> C 	 -20.252 	 31.942 	 37.271
| 14> H 	 -20.583 	 31.0351 	 37.8116
| 15> H 	 -20.3426 	 31.6635 	 36.1852
| 16> C 	 -21.1572 	 33.1783 	 37.5094
| 17> H 	 -20.8099 	 34.0724 	 36.9993
| 18> H 	 -22.0793 	 32.9374 	 37.0078
| 19> C 	 -21.455 	 33.4733 	 39.0655
| 20> H 	 -20.7526 	 34.0487 	 39.6542
| 21> H 	 -22.4241 	 33.9353 	 39.1663
| 22> H 	 -21.6603 	 32.5506 	 39.5713
| 23> S 	 -15.807 	 34.5474 	 34.854
| 24> C 	 -14.557 	 35.7352 	 35.0203
| 25> C 	 -14.2543 	 36.1405 	 36.2976
| 26> C 	 -15.1402 	 35.4679 	 37.218
| 27> C 	 -15.9618 	 34.4976 	 36.6006
| 28> H 	 -13.5568 	 36.9398 	 36.4334
| 29> C 	 -15.3215 	 35.876 	 38.6641
| 30> H 	 -14.4772 	 36.5151 	 38.9915
| 31> H 	 -15.1553 	 35.0852 	 39.3343
| 32> C 	 -16.7497 	 36.3702 	 39.0381
| 33> H 	 -16.8211 	 36.37 	 40.085
| 34> H 	 -17.4046 	 35.6572 	 38.5343
| 35> C 	 -17.034 	 37.7454 	 38.4193
| 36> H 	 -18.0031 	 38.1629 	 38.7922
| 37> H 	 -17.24 	 37.5618 	 37.3567
| 38> H 	 -16.249 	 38.4797 	 38.5775
| 39> H 	 -18.2204 	 30.7895 	 39.0214
| 40> H 	 -13.9953 	 36.0816 	 34.1346
| 41> *
| 42>
| 43>                          ****END OF INPUT****

CARTESIAN COORDINATES (ANGSTROEM)
---------------------------------
  S    -16.362700   32.364300   38.287500
  C    -17.872700   31.446500   38.231900
  C    -18.776400   32.177600   37.426600
  C    -18.205600   33.310900   36.778700
  C    -16.852500   33.454700   37.081400
  H    -18.673800   34.006800   36.146500
  C    -20.252000   31.942000   37.271000
  H    -20.583000   31.035100   37.811600
  H    -20.342600   31.663500   36.185200
  C    -21.157200   33.178300   37.509400
  H    -20.809900   34.072400   36.999300
  H    -22.079300   32.937400   37.007800
  C    -21.455000   33.473300   39.065500
  H    -20.752600   34.048700   39.654200
  H    -22.424100   33.935300   39.166300
  H    -21.660300   32.550600   39.571300
  S    -15.807000   34.547400   34.854000
  C    -14.557000   35.735200   35.020300
  C    -14.254300   36.140500   36.297600
  C    -15.140200   35.467900   37.218000
  C    -15.961800   34.497600   36.600600
  H    -13.556800   36.939800   36.433400
  C    -15.321500   35.876000   38.664100
  H    -14.477200   36.515100   38.991500
  H    -15.155300   35.085200   39.334300
  C    -16.749700   36.370200   39.038100
  H    -16.821100   36.370000   40.085000
  H    -17.404600   35.657200   38.534300
  C    -17.034000   37.745400   38.419300
  H    -18.003100   38.162900   38.792200
  H    -17.240000   37.561800   37.356700
  H    -16.249000   38.479700   38.577500
  H    -18.220400   30.789500   39.021400
  H    -13.995300   36.081600   34.134600

 Total Charge           Charge          ....    0
 Multiplicity           Mult            ....    1
 Number of Electrons    NEL             ....  134
 Basis Dimension        Dim             ....  322

ORBITAL ENERGIES
----------------

  NO   OCC          E(Eh)            E(eV)
   0   2.0000     -88.967783     -2420.9364
   1   2.0000     -88.965389     -2420.8713
   2   2.0000     -10.328189      -281.0443
   3   2.0000     -10.326157      -280.9890
   4   2.0000     -10.317282      -280.7475
   5   2.0000     -10.313202      -280.6365
   6   2.0000     -10.310315      -280.5579
   7   2.0000     -10.303827      -280.3814
   8   2.0000     -10.296800      -280.1902
   9   2.0000     -10.296256      -280.1754
  10   2.0000     -10.295851      -280.1643
  11   2.0000     -10.289096      -279.9805
  12   2.0000     -10.284346      -279.8513
  13   2.0000     -10.279475      -279.7187
  14   2.0000     -10.278199      -279.6840
  15   2.0000     -10.273315      -279.5511
  16   2.0000      -8.082815      -219.9446
  17   2.0000      -8.080371      -219.8781
  18   2.0000      -6.041106      -164.3868
  19   2.0000      -6.038804      -164.3242
  20   2.0000      -6.037326      -164.2840
  21   2.0000      -6.034798      -164.2152
  22   2.0000      -6.033753      -164.1868
  23   2.0000      -6.031229      -164.1181
  24   2.0000      -1.008815       -27.4513
  25   2.0000      -0.984275       -26.7835
  26   2.0000      -0.908429       -24.7196
  27   2.0000      -0.905852       -24.6495
  28   2.0000      -0.868257       -23.6265
  29   2.0000      -0.847961       -23.0742
  30   2.0000      -0.840778       -22.8787
  31   2.0000      -0.812817       -22.1179
  32   2.0000      -0.784465       -21.3464
  33   2.0000      -0.771233       -20.9863
  34   2.0000      -0.714843       -19.4519
  35   2.0000      -0.701636       -19.0925
  36   2.0000      -0.684586       -18.6285
  37   2.0000      -0.662795       -18.0356
  38   2.0000      -0.638307       -17.3692
  39   2.0000      -0.621296       -16.9063
  40   2.0000      -0.598264       -16.2796
  41   2.0000      -0.569427       -15.4949
  42   2.0000      -0.550930       -14.9916
  43   2.0000      -0.543901       -14.8003
  44   2.0000      -0.539130       -14.6705
  45   2.0000      -0.531649       -14.4669
  46   2.0000      -0.520058       -14.1515
  47   2.0000      -0.516289       -14.0489
  48   2.0000      -0.494862       -13.4659
  49   2.0000      -0.491737       -13.3809
  50   2.0000      -0.485443       -13.2096
  51   2.0000      -0.473428       -12.8826
  52   2.0000      -0.471507       -12.8304
  53   2.0000      -0.466315       -12.6891
  54   2.0000      -0.463471       -12.6117
  55   2.0000      -0.449086       -12.2203
  56   2.0000      -0.444440       -12.0938
  57   2.0000      -0.438956       -11.9446
  58   2.0000      -0.432997       -11.7824
  59   2.0000      -0.424560       -11.5529
  60   2.0000      -0.420904       -11.4534
  61   2.0000      -0.418982       -11.4011
  62   2.0000      -0.411846       -11.2069
  63   2.0000      -0.342750        -9.3267
  64   2.0000      -0.331117        -9.0102
  65   2.0000      -0.325309        -8.8521
  66   2.0000      -0.290854        -7.9145
  67   0.0000       0.026976         0.7341
  68   0.0000       0.068115         1.8535
  69   0.0000       0.098589         2.6827
  70   0.0000       0.125125         3.4048
  71   0.0000       0.133056         3.6206

MULLIKEN ATOMIC CHARGES
-----------------------
   0 S :    0.115426
   1 C :   -0.113889
   2 C :   -0.088899
   3 C :    0.030546
   4 C :   -0.139413
   5 H :   -0.006607
   6 C :    0.028029
   7 H :    0.022500
   8 H :    0.044407
   9 C :   -0.059910
  10 H :    0.034690
  11 H :    0.025490
  12 C :   -0.039031
  13 H :    0.048811
  14 H :    0.021967
  15 H :    0.013305
  16 S :    0.120842
  17 C :   -0.105520
  18 C :   -0.016967
  19 C :   -0.029208
  20 C :   -0.195141
  21 H :    0.018417
  22 C :    0.063200
  23 H :    0.012380
  24 H :    0.007699
  25 C :   -0.037997
  26 H :    0.022320
  27 H :    0.042728
  28 C :   -0.064551
  29 H :    0.030299
  30 H :    0.038018
  31 H :    0.033340
  32 H :    0.059118
  33 H :    0.063600
Sum of atomic charges:   -0.0000000

LOEWDIN ATOMIC CHARGES
----------------------
   0 S :    0.432746
   1 C :   -0.218713
   2 C :   -0.053843
   3 C :   -0.070837
   4 C :   -0.208454
   5 H :    0.020115
   6 C :   -0.039301
   7 H :    0.029245
   8 H :    0.041843
   9 C :   -0.031411
  10 H :    0.023792
  11 H :    0.025261
  12 C :   -0.067157
  13 H :    0.026855
  14 H :    0.026034
  15 H :    0.021710
  16 S :    0.420565
  17 C :   -0.186873
  18 C :   -0.069004
  19 C :   -0.048023
  20 C :   -0.208070
  21 H :    0.034375
  22 C :   -0.039990
  23 H :    0.029694
  24 H :    0.021351
  25 C :   -0.025771
  26 H :    0.015639
  27 H :    0.030878
  28 C :   -0.070224
  29 H :    0.026730
  30 H :    0.029165
  31 H :    0.020554
  32 H :    0.030685
  33 H :    0.030432

  Mayer bond orders larger than 0.100000
B(  0-S ,  1-C ) :   1.1280 B(  0-S ,  4-C ) :   1.1931 B(  1-C ,  2-C ) :   1.5842
B(  1-C , 32-H ) :   0.9642 B(  2-C ,  3-C ) :   1.2552 B(  2-C ,  6-C ) :   1.0279
B(  3-C ,  4-C ) :   1.5171 B(  3-C ,  5-H ) :   1.0023 B(  4-C , 20-C ) :   1.0361
B(  6-C ,  7-H ) :   0.9467 B(  6-C ,  8-H ) :   0.9337 B(  6-C ,  9-C ) :   1.0773
B(  9-C , 10-H ) :   0.9563 B(  9-C , 11-H ) :   0.9547 B(  9-C , 12-C ) :   1.0557
B( 12-C , 13-H ) :   0.9816 B( 12-C , 14-H ) :   0.9757 B( 12-C , 15-H ) :   0.9755
B( 16-S , 17-C ) :   1.1692 B( 16-S , 20-C ) :   1.1455 B( 17-C , 18-C ) :   1.6165
B( 17-C , 33-H ) :   0.9590 B( 18-C , 19-C ) :   1.2273 B( 18-C , 21-H ) :   0.9981
B( 19-C , 20-C ) :   1.5683 B( 19-C , 22-C ) :   1.0517 B( 22-C , 23-H ) :   0.9323
B( 22-C , 24-H ) :   0.9248 B( 22-C , 25-C ) :   1.0663 B( 25-C , 26-H ) :   0.9570
B( 25-C , 27-H ) :   0.9548 B( 25-C , 28-C ) :   1.0742 B( 28-C , 29-H ) :   0.9741
B( 28-C , 30-H ) :   0.9764 B( 28-C , 31-H ) :   0.9783

Dispersion correction           -0.015629108
FINAL SINGLE POINT ENERGY     -1339.871982244941

DIPOLE MOMENT
-------------
                                X             Y             Z
Electronic contribution:     18.61124     -10.22728     -11.84504
Nuclear contribution   :    -19.02423      10.58139      12.02533
                        -----------------------------------------
Total Dipole Moment    :     -0.41299       0.35411       0.18029
                        -----------------------------------------
Magnitude (a.u.)       :      0.57312
Magnitude (Debye)      :      1.45674

Rotational constants in cm-1:     0.019832     0.009150     0.008168
Rotational constants in MHz :   594.539722   274.313583   244.871116

                             ****ORCA TERMINATED NORMALLY****
TOTAL RUN TIME: 0 days 0 hours 0 minutes 33 seconds 537 msec
