                         Program Version 4.2.1 -  RELEASE  -
|  1> ! wB97X-D3 SP def2-SVP
|  2> %pal
|  3> nprocs 16
|  4> end
|  5>
|  6> * xyz 0 1
|  7> S 	 19.3664 	 -8.68671 	 81.3765
|  8> C 	 17.6425 	 -8.55487 	 80.8136
|  9> C 	 16.8243 	 -9.50298 	 81.4167
| 10> C 	 17.5661 	 -10.3331 	 82.3127
| 11> C 	 18.9037 	 -10.1039 	 82.3298
| 12> H 	 17.0518 	 -11.1238 	 82.8053
| 13> C 	 15.3721 	 -9.56896 	 81.188
| 14> H 	 14.9277 	 -8.63885 	 81.5885
| 15> H 	 14.9198 	 -10.349 	 81.6991
| 16> C 	 15.0654 	 -9.86911 	 79.6767
| 17> H 	 15.6441 	 -9.2437 	 78.9555
| 18> H 	 15.2676 	 -10.852 	 79.4491
| 19> C 	 13.618 	 -9.68798 	 79.4671
| 20> H 	 13.2957 	 -8.73447 	 79.0467
| 21> H 	 13.2793 	 -10.4315 	 78.7299
| 22> H 	 13.0632 	 -9.8141 	 80.3588
| 23> S 	 19.7814 	 -10.7531 	 84.8515
| 24> C 	 21.3771 	 -11.5605 	 85.0024
| 25> C 	 21.7377 	 -11.9979 	 83.7602
| 26> C 	 21.0398 	 -11.4605 	 82.5997
| 27> C 	 19.9374 	 -10.7783 	 83.0638
| 28> H 	 22.6618 	 -12.518 	 83.663
| 29> C 	 21.3285 	 -11.9636 	 81.2226
| 30> H 	 22.1505 	 -11.3646 	 80.8286
| 31> H 	 20.4519 	 -11.6695 	 80.6674
| 32> C 	 21.5732 	 -13.3829 	 81.0335
| 33> H 	 20.7104 	 -13.9561 	 81.268
| 34> H 	 22.3379 	 -13.7144 	 81.6085
| 35> C 	 21.908 	 -13.6677 	 79.5555
| 36> H 	 22.882 	 -13.1801 	 79.3618
| 37> H 	 21.1509 	 -13.3618 	 78.8406
| 38> H 	 21.9667 	 -14.7427 	 79.5244
| 39> H 	 17.3015 	 -7.69071 	 80.1456
| 40> H 	 21.8603 	 -11.9288 	 85.9834
| 41> *
| 42>
| 43>                          ****END OF INPUT****

CARTESIAN COORDINATES (ANGSTROEM)
---------------------------------
  S     19.366400   -8.686710   81.376500
  C     17.642500   -8.554870   80.813600
  C     16.824300   -9.502980   81.416700
  C     17.566100  -10.333100   82.312700
  C     18.903700  -10.103900   82.329800
  H     17.051800  -11.123800   82.805300
  C     15.372100   -9.568960   81.188000
  H     14.927700   -8.638850   81.588500
  H     14.919800  -10.349000   81.699100
  C     15.065400   -9.869110   79.676700
  H     15.644100   -9.243700   78.955500
  H     15.267600  -10.852000   79.449100
  C     13.618000   -9.687980   79.467100
  H     13.295700   -8.734470   79.046700
  H     13.279300  -10.431500   78.729900
  H     13.063200   -9.814100   80.358800
  S     19.781400  -10.753100   84.851500
  C     21.377100  -11.560500   85.002400
  C     21.737700  -11.997900   83.760200
  C     21.039800  -11.460500   82.599700
  C     19.937400  -10.778300   83.063800
  H     22.661800  -12.518000   83.663000
  C     21.328500  -11.963600   81.222600
  H     22.150500  -11.364600   80.828600
  H     20.451900  -11.669500   80.667400
  C     21.573200  -13.382900   81.033500
  H     20.710400  -13.956100   81.268000
  H     22.337900  -13.714400   81.608500
  C     21.908000  -13.667700   79.555500
  H     22.882000  -13.180100   79.361800
  H     21.150900  -13.361800   78.840600
  H     21.966700  -14.742700   79.524400
  H     17.301500   -7.690710   80.145600
  H     21.860300  -11.928800   85.983400

 Total Charge           Charge          ....    0
 Multiplicity           Mult            ....    1
 Number of Electrons    NEL             ....  134
 Basis Dimension        Dim             ....  322

ORBITAL ENERGIES
----------------

  NO   OCC          E(Eh)            E(eV)
   0   2.0000     -88.964480     -2420.8466
   1   2.0000     -88.960849     -2420.7478
   2   2.0000     -10.324972      -280.9568
   3   2.0000     -10.324678      -280.9488
   4   2.0000     -10.323585      -280.9190
   5   2.0000     -10.319975      -280.8208
   6   2.0000     -10.300287      -280.2851
   7   2.0000     -10.297071      -280.1975
   8   2.0000     -10.289445      -279.9900
   9   2.0000     -10.288981      -279.9774
  10   2.0000     -10.288430      -279.9624
  11   2.0000     -10.281403      -279.7712
  12   2.0000     -10.280655      -279.7509
  13   2.0000     -10.277349      -279.6609
  14   2.0000     -10.270318      -279.4696
  15   2.0000     -10.269000      -279.4337
  16   2.0000      -8.077858      -219.8097
  17   2.0000      -8.074470      -219.7175
  18   2.0000      -6.036422      -164.2594
  19   2.0000      -6.033245      -164.1729
  20   2.0000      -6.032694      -164.1580
  21   2.0000      -6.029312      -164.0659
  22   2.0000      -6.028505      -164.0440
  23   2.0000      -6.024819      -163.9437
  24   2.0000      -1.000257       -27.2184
  25   2.0000      -0.975342       -26.5404
  26   2.0000      -0.923401       -25.1270
  27   2.0000      -0.919898       -25.0317
  28   2.0000      -0.870951       -23.6998
  29   2.0000      -0.848840       -23.0981
  30   2.0000      -0.847233       -23.0544
  31   2.0000      -0.812100       -22.0984
  32   2.0000      -0.783688       -21.3252
  33   2.0000      -0.766618       -20.8607
  34   2.0000      -0.709458       -19.3053
  35   2.0000      -0.707009       -19.2387
  36   2.0000      -0.695798       -18.9336
  37   2.0000      -0.655890       -17.8477
  38   2.0000      -0.633369       -17.2348
  39   2.0000      -0.619499       -16.8574
  40   2.0000      -0.597671       -16.2635
  41   2.0000      -0.582370       -15.8471
  42   2.0000      -0.577358       -15.7107
  43   2.0000      -0.550850       -14.9894
  44   2.0000      -0.532270       -14.4838
  45   2.0000      -0.530597       -14.4383
  46   2.0000      -0.519406       -14.1337
  47   2.0000      -0.512090       -13.9347
  48   2.0000      -0.508445       -13.8355
  49   2.0000      -0.505302       -13.7500
  50   2.0000      -0.485202       -13.2030
  51   2.0000      -0.474073       -12.9002
  52   2.0000      -0.468019       -12.7355
  53   2.0000      -0.458982       -12.4895
  54   2.0000      -0.456823       -12.4308
  55   2.0000      -0.450960       -12.2712
  56   2.0000      -0.443653       -12.0724
  57   2.0000      -0.438227       -11.9248
  58   2.0000      -0.432523       -11.7696
  59   2.0000      -0.423701       -11.5295
  60   2.0000      -0.422881       -11.5072
  61   2.0000      -0.418079       -11.3765
  62   2.0000      -0.410867       -11.1803
  63   2.0000      -0.338363        -9.2073
  64   2.0000      -0.331264        -9.0141
  65   2.0000      -0.323385        -8.7998
  66   2.0000      -0.294964        -8.0264
  67   0.0000       0.034424         0.9367
  68   0.0000       0.063717         1.7338
  69   0.0000       0.101106         2.7512
  70   0.0000       0.105440         2.8692
  71   0.0000       0.133482         3.6322

MULLIKEN ATOMIC CHARGES
-----------------------
   0 S :    0.104410
   1 C :   -0.172563
   2 C :   -0.091031
   3 C :    0.045620
   4 C :   -0.147741
   5 H :   -0.003920
   6 C :    0.081179
   7 H :    0.050694
   8 H :   -0.001673
   9 C :   -0.057578
  10 H :    0.035428
  11 H :    0.010982
  12 C :   -0.027117
  13 H :    0.028770
  14 H :    0.022968
  15 H :    0.017240
  16 S :    0.093120
  17 C :   -0.121063
  18 C :   -0.032190
  19 C :   -0.019262
  20 C :   -0.170464
  21 H :    0.011025
  22 C :    0.088538
  23 H :    0.024087
  24 H :    0.017760
  25 C :   -0.031026
  26 H :    0.021175
  27 H :    0.002438
  28 C :   -0.044305
  29 H :    0.033781
  30 H :    0.036883
  31 H :    0.028122
  32 H :    0.075913
  33 H :    0.089802
Sum of atomic charges:   -0.0000000

LOEWDIN ATOMIC CHARGES
----------------------
   0 S :    0.373502
   1 C :   -0.189993
   2 C :   -0.062460
   3 C :   -0.061410
   4 C :   -0.185233
   5 H :    0.027677
   6 C :   -0.026421
   7 H :    0.040327
   8 H :    0.019468
   9 C :   -0.027770
  10 H :    0.028190
  11 H :    0.016285
  12 C :   -0.064717
  13 H :    0.025049
  14 H :    0.027784
  15 H :    0.018036
  16 S :    0.361549
  17 C :   -0.186821
  18 C :   -0.070539
  19 C :   -0.053614
  20 C :   -0.183903
  21 H :    0.021673
  22 C :   -0.033233
  23 H :    0.034068
  24 H :    0.031381
  25 C :   -0.029157
  26 H :    0.024527
  27 H :    0.009274
  28 C :   -0.051983
  29 H :    0.027483
  30 H :    0.024995
  31 H :    0.024569
  32 H :    0.039670
  33 H :    0.051746

  Mayer bond orders larger than 0.100000
B(  0-S ,  1-C ) :   1.1190 B(  0-S ,  4-C ) :   1.1348 B(  1-C ,  2-C ) :   1.6179
B(  1-C , 32-H ) :   0.9583 B(  2-C ,  3-C ) :   1.2417 B(  2-C ,  6-C ) :   1.0292
B(  3-C ,  4-C ) :   1.5804 B(  3-C ,  5-H ) :   1.0018 B(  4-C , 20-C ) :   1.0349
B(  6-C ,  7-H ) :   0.9413 B(  6-C ,  8-H ) :   0.9289 B(  6-C ,  9-C ) :   1.0598
B(  9-C , 10-H ) :   0.9613 B(  9-C , 11-H ) :   0.9581 B(  9-C , 12-C ) :   1.0829
B( 12-C , 13-H ) :   0.9746 B( 12-C , 14-H ) :   0.9745 B( 12-C , 15-H ) :   0.9685
B( 16-S , 17-C ) :   1.1124 B( 16-S , 20-C ) :   1.1225 B( 17-C , 18-C ) :   1.6738
B( 17-C , 33-H ) :   0.9535 B( 18-C , 19-C ) :   1.1902 B( 18-C , 21-H ) :   0.9768
B( 19-C , 20-C ) :   1.6268 B( 19-C , 22-C ) :   1.0404 B( 22-C , 23-H ) :   0.9121
B( 22-C , 24-H ) :   0.9282 B( 22-C , 25-C ) :   1.1024 B( 25-C , 26-H ) :   0.9474
B( 25-C , 27-H ) :   0.9395 B( 25-C , 28-C ) :   1.0907 B( 28-C , 29-H ) :   0.9751
B( 28-C , 30-H ) :   0.9766 B( 28-C , 31-H ) :   0.9748

Dispersion correction           -0.013545009
FINAL SINGLE POINT ENERGY     -1339.854570644402

DIPOLE MOMENT
-------------
                                X             Y             Z
Electronic contribution:     10.19472      11.01281      19.52481
Nuclear contribution   :    -10.44785     -11.48130     -19.87922
                        -----------------------------------------
Total Dipole Moment    :     -0.25313      -0.46849      -0.35441
                        -----------------------------------------
Magnitude (a.u.)       :      0.63966
Magnitude (Debye)      :      1.62589

Rotational constants in cm-1:     0.019265     0.007554     0.006338
Rotational constants in MHz :   577.545087   226.470919   189.998233

                             ****ORCA TERMINATED NORMALLY****
TOTAL RUN TIME: 0 days 0 hours 0 minutes 29 seconds 208 msec
