                         Program Version 4.2.1 -  RELEASE  -
|  1> ! wB97X-D3 SP def2-SVP
|  2> %pal
|  3> nprocs 16
|  4> end
|  5>
|  6> * xyz 0 1
|  7> S 	 2.37611 	 -12.5049 	 57.2152
|  8> C 	 2.67555 	 -11.766 	 58.8082
|  9> C 	 2.45907 	 -12.6431 	 59.8425
| 10> C 	 2.05684 	 -13.9319 	 59.3603
| 11> C 	 2.06032 	 -13.9976 	 57.9519
| 12> H 	 1.90836 	 -14.7701 	 60.0058
| 13> C 	 2.38704 	 -12.2365 	 61.3107
| 14> H 	 1.42254 	 -11.8962 	 61.4645
| 15> H 	 3.04686 	 -11.3634 	 61.5591
| 16> C 	 2.62389 	 -13.2879 	 62.4008
| 17> H 	 2.33052 	 -12.9719 	 63.3836
| 18> H 	 1.85943 	 -14.081 	 62.1437
| 19> C 	 4.00784 	 -13.8465 	 62.3095
| 20> H 	 4.68585 	 -13.2991 	 62.9642
| 21> H 	 4.02588 	 -14.8611 	 62.654
| 22> H 	 4.4898 	 -13.8493 	 61.3115
| 23> S 	 0.00951538 	 -14.9825 	 56.3284
| 24> C 	 0.139931 	 -16.4861 	 55.5494
| 25> C 	 1.25686 	 -17.1656 	 55.9645
| 26> C 	 2.17002 	 -16.4209 	 56.86
| 27> C 	 1.61606 	 -15.1098 	 57.1138
| 28> H 	 1.43018 	 -18.1764 	 55.627
| 29> C 	 3.5308 	 -17.0768 	 57.2844
| 30> H 	 3.33991 	 -18.1298 	 57.3823
| 31> H 	 3.71866 	 -16.5658 	 58.2121
| 32> C 	 4.69047 	 -16.8414 	 56.3648
| 33> H 	 5.03535 	 -15.7956 	 56.3848
| 34> H 	 4.35997 	 -17.003 	 55.3148
| 35> C 	 5.98104 	 -17.6142 	 56.6332
| 36> H 	 5.77996 	 -18.6235 	 56.3264
| 37> H 	 6.36629 	 -17.7332 	 57.6651
| 38> H 	 6.8565 	 -17.2917 	 56.0403
| 39> H 	 2.93231 	 -10.6833 	 59.0119
| 40> H 	 -0.521717 	 -16.9442 	 54.8916
| 41> *
| 42>
| 43>                          ****END OF INPUT****

CARTESIAN COORDINATES (ANGSTROEM)
---------------------------------
  S      2.376110  -12.504900   57.215200
  C      2.675550  -11.766000   58.808200
  C      2.459070  -12.643100   59.842500
  C      2.056840  -13.931900   59.360300
  C      2.060320  -13.997600   57.951900
  H      1.908360  -14.770100   60.005800
  C      2.387040  -12.236500   61.310700
  H      1.422540  -11.896200   61.464500
  H      3.046860  -11.363400   61.559100
  C      2.623890  -13.287900   62.400800
  H      2.330520  -12.971900   63.383600
  H      1.859430  -14.081000   62.143700
  C      4.007840  -13.846500   62.309500
  H      4.685850  -13.299100   62.964200
  H      4.025880  -14.861100   62.654000
  H      4.489800  -13.849300   61.311500
  S      0.009515  -14.982500   56.328400
  C      0.139931  -16.486100   55.549400
  C      1.256860  -17.165600   55.964500
  C      2.170020  -16.420900   56.860000
  C      1.616060  -15.109800   57.113800
  H      1.430180  -18.176400   55.627000
  C      3.530800  -17.076800   57.284400
  H      3.339910  -18.129800   57.382300
  H      3.718660  -16.565800   58.212100
  C      4.690470  -16.841400   56.364800
  H      5.035350  -15.795600   56.384800
  H      4.359970  -17.003000   55.314800
  C      5.981040  -17.614200   56.633200
  H      5.779960  -18.623500   56.326400
  H      6.366290  -17.733200   57.665100
  H      6.856500  -17.291700   56.040300
  H      2.932310  -10.683300   59.011900
  H     -0.521717  -16.944200   54.891600

 Total Charge           Charge          ....    0
 Multiplicity           Mult            ....    1
 Number of Electrons    NEL             ....  134
 Basis Dimension        Dim             ....  322

ORBITAL ENERGIES
----------------

  NO   OCC          E(Eh)            E(eV)
   0   2.0000     -88.970197     -2421.0021
   1   2.0000     -88.964710     -2420.8528
   2   2.0000     -10.334439      -281.2144
   3   2.0000     -10.329376      -281.0766
   4   2.0000     -10.317192      -280.7451
   5   2.0000     -10.316491      -280.7260
   6   2.0000     -10.308835      -280.5177
   7   2.0000     -10.302831      -280.3543
   8   2.0000     -10.296386      -280.1789
   9   2.0000     -10.293288      -280.0946
  10   2.0000     -10.291875      -280.0561
  11   2.0000     -10.289851      -280.0011
  12   2.0000     -10.288340      -279.9600
  13   2.0000     -10.285317      -279.8777
  14   2.0000     -10.277330      -279.6604
  15   2.0000     -10.272883      -279.5394
  16   2.0000      -8.085184      -220.0090
  17   2.0000      -8.079590      -219.8568
  18   2.0000      -6.043589      -164.4544
  19   2.0000      -6.039623      -164.3465
  20   2.0000      -6.038080      -164.3045
  21   2.0000      -6.036057      -164.2495
  22   2.0000      -6.034041      -164.1946
  23   2.0000      -6.030382      -164.0950
  24   2.0000      -1.004437       -27.3321
  25   2.0000      -0.979952       -26.6658
  26   2.0000      -0.917824       -24.9753
  27   2.0000      -0.908956       -24.7340
  28   2.0000      -0.869601       -23.6631
  29   2.0000      -0.847172       -23.0527
  30   2.0000      -0.841813       -22.9069
  31   2.0000      -0.811329       -22.0774
  32   2.0000      -0.788525       -21.4569
  33   2.0000      -0.775030       -21.0896
  34   2.0000      -0.710528       -19.3345
  35   2.0000      -0.694671       -18.9030
  36   2.0000      -0.688150       -18.7255
  37   2.0000      -0.653828       -17.7916
  38   2.0000      -0.633934       -17.2502
  39   2.0000      -0.624587       -16.9959
  40   2.0000      -0.591312       -16.0904
  41   2.0000      -0.570263       -15.5176
  42   2.0000      -0.564464       -15.3598
  43   2.0000      -0.560555       -15.2535
  44   2.0000      -0.544121       -14.8063
  45   2.0000      -0.518553       -14.1105
  46   2.0000      -0.513618       -13.9763
  47   2.0000      -0.511186       -13.9101
  48   2.0000      -0.505802       -13.7636
  49   2.0000      -0.497342       -13.5334
  50   2.0000      -0.493965       -13.4415
  51   2.0000      -0.483795       -13.1647
  52   2.0000      -0.471046       -12.8178
  53   2.0000      -0.465901       -12.6778
  54   2.0000      -0.457209       -12.4413
  55   2.0000      -0.454848       -12.3770
  56   2.0000      -0.444406       -12.0929
  57   2.0000      -0.436617       -11.8810
  58   2.0000      -0.433027       -11.7833
  59   2.0000      -0.428295       -11.6545
  60   2.0000      -0.414957       -11.2915
  61   2.0000      -0.407725       -11.0948
  62   2.0000      -0.405747       -11.0409
  63   2.0000      -0.335965        -9.1421
  64   2.0000      -0.330907        -9.0044
  65   2.0000      -0.324636        -8.8338
  66   2.0000      -0.301026        -8.1913
  67   0.0000       0.035735         0.9724
  68   0.0000       0.061238         1.6664
  69   0.0000       0.114814         3.1242
  70   0.0000       0.119618         3.2550
  71   0.0000       0.127933         3.4812

MULLIKEN ATOMIC CHARGES
-----------------------
   0 S :    0.133782
   1 C :   -0.151355
   2 C :   -0.079802
   3 C :    0.054127
   4 C :   -0.181465
   5 H :    0.008281
   6 C :    0.067661
   7 H :    0.025598
   8 H :    0.025971
   9 C :   -0.083380
  10 H :    0.027282
  11 H :    0.024962
  12 C :   -0.044645
  13 H :    0.026337
  14 H :    0.024405
  15 H :    0.047130
  16 S :    0.116073
  17 C :   -0.049078
  18 C :   -0.057053
  19 C :   -0.051124
  20 C :   -0.182310
  21 H :    0.013620
  22 C :    0.131401
  23 H :    0.021346
  24 H :    0.021097
  25 C :   -0.079628
  26 H :    0.032039
  27 H :    0.031038
  28 C :   -0.057214
  29 H :    0.015001
  30 H :    0.033596
  31 H :    0.039777
  32 H :    0.063761
  33 H :    0.032769
Sum of atomic charges:    0.0000000

LOEWDIN ATOMIC CHARGES
----------------------
   0 S :    0.433461
   1 C :   -0.203530
   2 C :   -0.062339
   3 C :   -0.056754
   4 C :   -0.219383
   5 H :    0.026696
   6 C :   -0.028534
   7 H :    0.025415
   8 H :    0.032037
   9 C :   -0.043877
  10 H :    0.025058
  11 H :    0.024728
  12 C :   -0.071081
  13 H :    0.026366
  14 H :    0.023562
  15 H :    0.033083
  16 S :    0.413707
  17 C :   -0.195237
  18 C :   -0.078016
  19 C :   -0.040739
  20 C :   -0.203475
  21 H :    0.025770
  22 C :   -0.023279
  23 H :    0.029318
  24 H :    0.031688
  25 C :   -0.047622
  26 H :    0.028118
  27 H :    0.028212
  28 C :   -0.073487
  29 H :    0.018276
  30 H :    0.027938
  31 H :    0.031923
  32 H :    0.040330
  33 H :    0.021664

  Mayer bond orders larger than 0.100000
B(  0-S ,  1-C ) :   1.1349 B(  0-S ,  4-C ) :   1.1877 B(  1-C ,  2-C ) :   1.6256
B(  1-C , 32-H ) :   0.9589 B(  2-C ,  3-C ) :   1.2476 B(  2-C ,  6-C ) :   1.0073
B(  3-C ,  4-C ) :   1.5499 B(  3-C ,  5-H ) :   0.9951 B(  4-C , 20-C ) :   1.0161
B(  6-C ,  7-H ) :   0.9344 B(  6-C ,  8-H ) :   0.9434 B(  6-C ,  9-C ) :   1.0854
B(  9-C , 10-H ) :   0.9535 B(  9-C , 11-H ) :   0.9525 B(  9-C , 12-C ) :   1.0723
B( 12-C , 13-H ) :   0.9725 B( 12-C , 14-H ) :   0.9732 B( 12-C , 15-H ) :   0.9766
B( 16-S , 17-C ) :   1.1550 B( 16-S , 20-C ) :   1.1492 B( 17-C , 18-C ) :   1.6212
B( 17-C , 33-H ) :   0.9720 B( 18-C , 19-C ) :   1.2376 B( 18-C , 21-H ) :   0.9848
B( 19-C , 20-C ) :   1.5820 B( 19-C , 22-C ) :   1.0331 B( 22-C , 23-H ) :   0.9358
B( 22-C , 24-H ) :   0.9209 B( 22-C , 25-C ) :   1.0816 B( 25-C , 26-H ) :   0.9544
B( 25-C , 27-H ) :   0.9554 B( 25-C , 28-C ) :   1.0742 B( 28-C , 29-H ) :   0.9740
B( 28-C , 30-H ) :   0.9754 B( 28-C , 31-H ) :   0.9750

Dispersion correction           -0.013854466
FINAL SINGLE POINT ENERGY     -1339.868766828600

DIPOLE MOMENT
-------------
                                X             Y             Z
Electronic contribution:    -19.08808      10.00627     -16.24688
Nuclear contribution   :     19.29071     -10.27358      16.68513
                        -----------------------------------------
Total Dipole Moment    :      0.20262      -0.26731       0.43825
                        -----------------------------------------
Magnitude (a.u.)       :      0.55189
Magnitude (Debye)      :      1.40279

Rotational constants in cm-1:     0.016360     0.008810     0.006996
Rotational constants in MHz :   490.470395   264.108440   209.733313

                             ****ORCA TERMINATED NORMALLY****
TOTAL RUN TIME: 0 days 0 hours 0 minutes 29 seconds 213 msec
