                         Program Version 4.2.1 -  RELEASE  -
|  1> ! wB97X-D3 SP def2-SVP
|  2> %pal
|  3> nprocs 16
|  4> end
|  5>
|  6> * xyz 0 1
|  7> S 	 40.0309 	 12.6452 	 68.0577
|  8> C 	 38.3952 	 12.9127 	 68.6176
|  9> C 	 37.7366 	 13.691 	 67.7368
| 10> C 	 38.585 	 14.181 	 66.7308
| 11> C 	 39.9059 	 13.7753 	 66.7735
| 12> H 	 38.1631 	 14.9152 	 65.9908
| 13> C 	 36.2068 	 13.9709 	 67.6366
| 14> H 	 35.7179 	 13.4102 	 66.8356
| 15> H 	 36.0795 	 15.0299 	 67.318
| 16> C 	 35.3767 	 13.7247 	 68.7986
| 17> H 	 35.5421 	 12.8058 	 69.2065
| 18> H 	 35.6937 	 14.393 	 69.5973
| 19> C 	 33.893 	 14.0564 	 68.5869
| 20> H 	 33.2067 	 13.1413 	 68.5232
| 21> H 	 33.5687 	 14.762 	 69.405
| 22> H 	 33.6777 	 14.4848 	 67.6258
| 23> S 	 42.1315 	 12.7539 	 65.5264
| 24> C 	 43.0509 	 13.7686 	 64.3195
| 25> C 	 42.4808 	 15.0717 	 64.3517
| 26> C 	 41.3187 	 15.2233 	 65.1916
| 27> C 	 41.0472 	 14.0998 	 65.9316
| 28> H 	 42.9331 	 15.8283 	 63.7058
| 29> C 	 40.6183 	 16.577 	 65.2615
| 30> H 	 39.7183 	 16.5988 	 65.862
| 31> H 	 40.2536 	 16.6588 	 64.1615
| 32> C 	 41.4256 	 17.8217 	 65.6987
| 33> H 	 42.3507 	 17.8564 	 65.2768
| 34> H 	 41.6736 	 17.7394 	 66.7095
| 35> C 	 40.822 	 19.1573 	 65.2367
| 36> H 	 41.2716 	 19.9943 	 65.748
| 37> H 	 39.8891 	 19.1122 	 65.6478
| 38> H 	 40.8457 	 19.1997 	 64.1335
| 39> H 	 37.9186 	 12.3183 	 69.4012
| 40> H 	 43.8517 	 13.3959 	 63.6596
| 41> *
| 42>
| 43>                          ****END OF INPUT****

CARTESIAN COORDINATES (ANGSTROEM)
---------------------------------
  S     40.030900   12.645200   68.057700
  C     38.395200   12.912700   68.617600
  C     37.736600   13.691000   67.736800
  C     38.585000   14.181000   66.730800
  C     39.905900   13.775300   66.773500
  H     38.163100   14.915200   65.990800
  C     36.206800   13.970900   67.636600
  H     35.717900   13.410200   66.835600
  H     36.079500   15.029900   67.318000
  C     35.376700   13.724700   68.798600
  H     35.542100   12.805800   69.206500
  H     35.693700   14.393000   69.597300
  C     33.893000   14.056400   68.586900
  H     33.206700   13.141300   68.523200
  H     33.568700   14.762000   69.405000
  H     33.677700   14.484800   67.625800
  S     42.131500   12.753900   65.526400
  C     43.050900   13.768600   64.319500
  C     42.480800   15.071700   64.351700
  C     41.318700   15.223300   65.191600
  C     41.047200   14.099800   65.931600
  H     42.933100   15.828300   63.705800
  C     40.618300   16.577000   65.261500
  H     39.718300   16.598800   65.862000
  H     40.253600   16.658800   64.161500
  C     41.425600   17.821700   65.698700
  H     42.350700   17.856400   65.276800
  H     41.673600   17.739400   66.709500
  C     40.822000   19.157300   65.236700
  H     41.271600   19.994300   65.748000
  H     39.889100   19.112200   65.647800
  H     40.845700   19.199700   64.133500
  H     37.918600   12.318300   69.401200
  H     43.851700   13.395900   63.659600

 Total Charge           Charge          ....    0
 Multiplicity           Mult            ....    1
 Number of Electrons    NEL             ....  134
 Basis Dimension        Dim             ....  322

ORBITAL ENERGIES
----------------

  NO   OCC          E(Eh)            E(eV)
   0   2.0000     -88.965923     -2420.8859
   1   2.0000     -88.963056     -2420.8078
   2   2.0000     -10.333255      -281.1822
   3   2.0000     -10.331981      -281.1475
   4   2.0000     -10.330126      -281.0970
   5   2.0000     -10.312092      -280.6063
   6   2.0000     -10.309311      -280.5306
   7   2.0000     -10.304887      -280.4102
   8   2.0000     -10.300765      -280.2981
   9   2.0000     -10.297342      -280.2049
  10   2.0000     -10.293016      -280.0872
  11   2.0000     -10.292762      -280.0803
  12   2.0000     -10.286973      -279.9228
  13   2.0000     -10.273519      -279.5567
  14   2.0000     -10.273373      -279.5527
  15   2.0000     -10.273162      -279.5469
  16   2.0000      -8.079250      -219.8476
  17   2.0000      -8.078646      -219.8311
  18   2.0000      -6.037986      -164.3020
  19   2.0000      -6.037214      -164.2809
  20   2.0000      -6.033960      -164.1924
  21   2.0000      -6.032968      -164.1654
  22   2.0000      -6.029821      -164.0798
  23   2.0000      -6.029356      -164.0671
  24   2.0000      -1.011808       -27.5327
  25   2.0000      -0.980804       -26.6890
  26   2.0000      -0.923121       -25.1194
  27   2.0000      -0.909206       -24.7407
  28   2.0000      -0.872116       -23.7315
  29   2.0000      -0.854674       -23.2569
  30   2.0000      -0.843011       -22.9395
  31   2.0000      -0.811155       -22.0726
  32   2.0000      -0.781824       -21.2745
  33   2.0000      -0.775364       -21.0987
  34   2.0000      -0.714208       -19.4346
  35   2.0000      -0.710159       -19.3244
  36   2.0000      -0.695856       -18.9352
  37   2.0000      -0.664831       -18.0910
  38   2.0000      -0.636982       -17.3332
  39   2.0000      -0.621119       -16.9015
  40   2.0000      -0.599446       -16.3118
  41   2.0000      -0.575824       -15.6690
  42   2.0000      -0.569054       -15.4847
  43   2.0000      -0.567758       -15.4495
  44   2.0000      -0.529207       -14.4005
  45   2.0000      -0.524566       -14.2742
  46   2.0000      -0.519956       -14.1487
  47   2.0000      -0.515602       -14.0302
  48   2.0000      -0.505200       -13.7472
  49   2.0000      -0.499271       -13.5859
  50   2.0000      -0.488998       -13.3063
  51   2.0000      -0.480570       -13.0770
  52   2.0000      -0.478140       -13.0109
  53   2.0000      -0.465964       -12.6795
  54   2.0000      -0.459464       -12.5027
  55   2.0000      -0.449274       -12.2254
  56   2.0000      -0.443261       -12.0618
  57   2.0000      -0.438161       -11.9230
  58   2.0000      -0.435276       -11.8445
  59   2.0000      -0.422126       -11.4866
  60   2.0000      -0.416761       -11.3406
  61   2.0000      -0.413459       -11.2508
  62   2.0000      -0.410847       -11.1797
  63   2.0000      -0.358148        -9.7457
  64   2.0000      -0.331439        -9.0189
  65   2.0000      -0.327712        -8.9175
  66   2.0000      -0.289642        -7.8816
  67   0.0000       0.023349         0.6354
  68   0.0000       0.074483         2.0268
  69   0.0000       0.099649         2.7116
  70   0.0000       0.120990         3.2923
  71   0.0000       0.133667         3.6373

MULLIKEN ATOMIC CHARGES
-----------------------
   0 S :    0.094654
   1 C :   -0.141222
   2 C :   -0.062930
   3 C :   -0.017115
   4 C :   -0.118671
   5 H :    0.023083
   6 C :    0.042413
   7 H :    0.038503
   8 H :    0.025279
   9 C :   -0.036305
  10 H :    0.003211
  11 H :    0.018403
  12 C :   -0.074587
  13 H :    0.042141
  14 H :    0.051115
  15 H :    0.021838
  16 S :    0.077451
  17 C :   -0.113314
  18 C :   -0.040876
  19 C :   -0.035743
  20 C :   -0.098205
  21 H :    0.031396
  22 C :    0.008440
  23 H :    0.024601
  24 H :    0.042156
  25 C :   -0.019329
  26 H :   -0.007297
  27 H :    0.020278
  28 C :   -0.014557
  29 H :    0.031093
  30 H :    0.004713
  31 H :    0.044939
  32 H :    0.054695
  33 H :    0.079748
Sum of atomic charges:   -0.0000000

LOEWDIN ATOMIC CHARGES
----------------------
   0 S :    0.417297
   1 C :   -0.199256
   2 C :   -0.068927
   3 C :   -0.076351
   4 C :   -0.198402
   5 H :    0.034779
   6 C :   -0.030440
   7 H :    0.033610
   8 H :    0.032034
   9 C :   -0.048285
  10 H :    0.009537
  11 H :    0.026494
  12 C :   -0.068750
  13 H :    0.035158
  14 H :    0.037082
  15 H :    0.019891
  16 S :    0.361746
  17 C :   -0.167816
  18 C :   -0.064867
  19 C :   -0.059486
  20 C :   -0.185184
  21 H :    0.033322
  22 C :   -0.032901
  23 H :    0.025445
  24 H :    0.043274
  25 C :   -0.032730
  26 H :    0.008157
  27 H :    0.021539
  28 C :   -0.049520
  29 H :    0.029235
  30 H :    0.010928
  31 H :    0.032130
  32 H :    0.031791
  33 H :    0.039464

  Mayer bond orders larger than 0.100000
B(  0-S ,  1-C ) :   1.1323 B(  0-S ,  4-C ) :   1.1613 B(  1-C ,  2-C ) :   1.6188
B(  1-C , 32-H ) :   0.9659 B(  2-C ,  3-C ) :   1.2882 B(  2-C ,  6-C ) :   0.9939
B(  3-C ,  4-C ) :   1.5391 B(  3-C ,  5-H ) :   0.9853 B(  4-C , 20-C ) :   1.0416
B(  6-C ,  7-H ) :   0.9382 B(  6-C ,  8-H ) :   0.9397 B(  6-C ,  9-C ) :   1.0929
B(  9-C , 10-H ) :   0.9458 B(  9-C , 11-H ) :   0.9588 B(  9-C , 12-C ) :   1.0612
B( 12-C , 13-H ) :   0.9738 B( 12-C , 14-H ) :   0.9802 B( 12-C , 15-H ) :   0.9778
B( 16-S , 17-C ) :   1.1312 B( 16-S , 20-C ) :   1.1178 B( 17-C , 18-C ) :   1.6162
B( 17-C , 20-C ) :   0.1016 B( 17-C , 33-H ) :   0.9681 B( 18-C , 19-C ) :   1.2148
B( 18-C , 21-H ) :   0.9853 B( 19-C , 20-C ) :   1.6288 B( 19-C , 22-C ) :   1.0351
B( 22-C , 23-H ) :   0.9398 B( 22-C , 24-H ) :   0.9347 B( 22-C , 25-C ) :   1.0550
B( 25-C , 26-H ) :   0.9533 B( 25-C , 27-H ) :   0.9506 B( 25-C , 28-C ) :   1.0736
B( 28-C , 29-H ) :   0.9697 B( 28-C , 30-H ) :   0.9786 B( 28-C , 31-H ) :   0.9771

Dispersion correction           -0.012982648
FINAL SINGLE POINT ENERGY     -1339.848108680057

DIPOLE MOMENT
-------------
                                X             Y             Z
Electronic contribution:     21.00418     -21.22429      -0.66803
Nuclear contribution   :    -21.40888      21.77086       0.40150
                        -----------------------------------------
Total Dipole Moment    :     -0.40470       0.54657      -0.26653
                        -----------------------------------------
Magnitude (a.u.)       :      0.73045
Magnitude (Debye)      :      1.85667

Rotational constants in cm-1:     0.018344     0.007613     0.005754
Rotational constants in MHz :   549.941594   228.239938   172.498863

                             ****ORCA TERMINATED NORMALLY****
TOTAL RUN TIME: 0 days 0 hours 0 minutes 28 seconds 777 msec
