                         Program Version 4.2.1 -  RELEASE  -
|  1> ! wB97X-D3 SP def2-SVP
|  2> %pal
|  3> nprocs 16
|  4> end
|  5>
|  6> * xyz 0 1
|  7> S 	 -34.679 	 41.0214 	 98.0181
|  8> C 	 -33.5047 	 40.7909 	 96.7261
|  9> C 	 -33.7473 	 39.6027 	 96.0164
| 10> C 	 -34.8117 	 38.8449 	 96.529
| 11> C 	 -35.3865 	 39.4101 	 97.6821
| 12> H 	 -35.2181 	 37.9189 	 96.1421
| 13> C 	 -32.9292 	 39.1349 	 94.8438
| 14> H 	 -32.2431 	 39.934 	 94.6912
| 15> H 	 -33.6001 	 39.0347 	 93.9945
| 16> C 	 -32.2766 	 37.7782 	 95.0153
| 17> H 	 -31.4936 	 37.8217 	 95.7929
| 18> H 	 -32.9836 	 37.1089 	 95.4072
| 19> C 	 -31.5342 	 37.2668 	 93.6962
| 20> H 	 -30.874 	 36.3976 	 94.0185
| 21> H 	 -32.3137 	 36.9662 	 93.063
| 22> H 	 -31.0272 	 38.039 	 93.1741
| 23> S 	 -38.0602 	 39.5026 	 98.0284
| 24> C 	 -38.9034 	 38.409 	 99.1189
| 25> C 	 -38.0298 	 37.4895 	 99.5958
| 26> C 	 -36.6551 	 37.9205 	 99.4567
| 27> C 	 -36.541 	 38.905 	 98.5042
| 28> H 	 -38.3157 	 36.6404 	 100.157
| 29> C 	 -35.4705 	 37.131 	 99.9399
| 30> H 	 -34.8414 	 37.0676 	 99.1019
| 31> H 	 -35.6922 	 36.0789 	 100.118
| 32> C 	 -34.7969 	 37.8317 	 101.109
| 33> H 	 -34.7869 	 38.8762 	 100.947
| 34> H 	 -33.7781 	 37.4767 	 101.049
| 35> C 	 -35.4115 	 37.3957 	 102.429
| 36> H 	 -36.5201 	 37.5428 	 102.391
| 37> H 	 -35.0845 	 37.973 	 103.33
| 38> H 	 -35.3524 	 36.3674 	 102.552
| 39> H 	 -32.6702 	 41.3863 	 96.5072
| 40> H 	 -39.9417 	 38.4125 	 99.2781
| 41> *
| 42>
| 43>                          ****END OF INPUT****

CARTESIAN COORDINATES (ANGSTROEM)
---------------------------------
  S    -34.679000   41.021400   98.018100
  C    -33.504700   40.790900   96.726100
  C    -33.747300   39.602700   96.016400
  C    -34.811700   38.844900   96.529000
  C    -35.386500   39.410100   97.682100
  H    -35.218100   37.918900   96.142100
  C    -32.929200   39.134900   94.843800
  H    -32.243100   39.934000   94.691200
  H    -33.600100   39.034700   93.994500
  C    -32.276600   37.778200   95.015300
  H    -31.493600   37.821700   95.792900
  H    -32.983600   37.108900   95.407200
  C    -31.534200   37.266800   93.696200
  H    -30.874000   36.397600   94.018500
  H    -32.313700   36.966200   93.063000
  H    -31.027200   38.039000   93.174100
  S    -38.060200   39.502600   98.028400
  C    -38.903400   38.409000   99.118900
  C    -38.029800   37.489500   99.595800
  C    -36.655100   37.920500   99.456700
  C    -36.541000   38.905000   98.504200
  H    -38.315700   36.640400  100.157000
  C    -35.470500   37.131000   99.939900
  H    -34.841400   37.067600   99.101900
  H    -35.692200   36.078900  100.118000
  C    -34.796900   37.831700  101.109000
  H    -34.786900   38.876200  100.947000
  H    -33.778100   37.476700  101.049000
  C    -35.411500   37.395700  102.429000
  H    -36.520100   37.542800  102.391000
  H    -35.084500   37.973000  103.330000
  H    -35.352400   36.367400  102.552000
  H    -32.670200   41.386300   96.507200
  H    -39.941700   38.412500   99.278100

 Total Charge           Charge          ....    0
 Multiplicity           Mult            ....    1
 Number of Electrons    NEL             ....  134
 Basis Dimension        Dim             ....  322

ORBITAL ENERGIES
----------------

  NO   OCC          E(Eh)            E(eV)
   0   2.0000     -88.970136     -2421.0005
   1   2.0000     -88.959851     -2420.7206
   2   2.0000     -10.338383      -281.3217
   3   2.0000     -10.322003      -280.8760
   4   2.0000     -10.314635      -280.6755
   5   2.0000     -10.311565      -280.5919
   6   2.0000     -10.300285      -280.2850
   7   2.0000     -10.298590      -280.2389
   8   2.0000     -10.298256      -280.2298
   9   2.0000     -10.290112      -280.0082
  10   2.0000     -10.287570      -279.9390
  11   2.0000     -10.285899      -279.8935
  12   2.0000     -10.281723      -279.7799
  13   2.0000     -10.279410      -279.7170
  14   2.0000     -10.274697      -279.5887
  15   2.0000     -10.272509      -279.5292
  16   2.0000      -8.083575      -219.9653
  17   2.0000      -8.075724      -219.7516
  18   2.0000      -6.042033      -164.4121
  19   2.0000      -6.038199      -164.3077
  20   2.0000      -6.034538      -164.2081
  21   2.0000      -6.034189      -164.1986
  22   2.0000      -6.030017      -164.0851
  23   2.0000      -6.026500      -163.9894
  24   2.0000      -1.007634       -27.4191
  25   2.0000      -0.983722       -26.7684
  26   2.0000      -0.913698       -24.8630
  27   2.0000      -0.912379       -24.8271
  28   2.0000      -0.866844       -23.5880
  29   2.0000      -0.847699       -23.0671
  30   2.0000      -0.845160       -22.9980
  31   2.0000      -0.818781       -22.2802
  32   2.0000      -0.781075       -21.2541
  33   2.0000      -0.771048       -20.9813
  34   2.0000      -0.712143       -19.3784
  35   2.0000      -0.701265       -19.0824
  36   2.0000      -0.692910       -18.8551
  37   2.0000      -0.667520       -18.1642
  38   2.0000      -0.643372       -17.5070
  39   2.0000      -0.620429       -16.8827
  40   2.0000      -0.601740       -16.3742
  41   2.0000      -0.573362       -15.6020
  42   2.0000      -0.561967       -15.2919
  43   2.0000      -0.551037       -14.9945
  44   2.0000      -0.544352       -14.8126
  45   2.0000      -0.527758       -14.3610
  46   2.0000      -0.519414       -14.1340
  47   2.0000      -0.510852       -13.9010
  48   2.0000      -0.504300       -13.7227
  49   2.0000      -0.500066       -13.6075
  50   2.0000      -0.486852       -13.2479
  51   2.0000      -0.478057       -13.0086
  52   2.0000      -0.477172       -12.9845
  53   2.0000      -0.469170       -12.7668
  54   2.0000      -0.458745       -12.4831
  55   2.0000      -0.446933       -12.1617
  56   2.0000      -0.443721       -12.0743
  57   2.0000      -0.441468       -12.0129
  58   2.0000      -0.438089       -11.9210
  59   2.0000      -0.428081       -11.6487
  60   2.0000      -0.425044       -11.5660
  61   2.0000      -0.412137       -11.2148
  62   2.0000      -0.404629       -11.0105
  63   2.0000      -0.339129        -9.2282
  64   2.0000      -0.329792        -8.9741
  65   2.0000      -0.316108        -8.6017
  66   2.0000      -0.308317        -8.3897
  67   0.0000       0.041659         1.1336
  68   0.0000       0.052302         1.4232
  69   0.0000       0.112101         3.0504
  70   0.0000       0.117517         3.1978
  71   0.0000       0.129925         3.5355

MULLIKEN ATOMIC CHARGES
-----------------------
   0 S :    0.117237
   1 C :   -0.094708
   2 C :   -0.111188
   3 C :    0.059930
   4 C :   -0.182463
   5 H :    0.017792
   6 C :    0.117882
   7 H :    0.002497
   8 H :    0.027216
   9 C :   -0.096964
  10 H :    0.024745
  11 H :    0.017257
  12 C :   -0.033566
  13 H :    0.054530
  14 H :    0.021607
  15 H :    0.030333
  16 S :    0.112925
  17 C :   -0.075169
  18 C :   -0.006133
  19 C :   -0.060970
  20 C :   -0.164832
  21 H :    0.007887
  22 C :    0.057039
  23 H :    0.008087
  24 H :    0.013346
  25 C :   -0.011778
  26 H :    0.020740
  27 H :    0.020134
  28 C :   -0.030059
  29 H :    0.015354
  30 H :    0.045217
  31 H :    0.007837
  32 H :    0.027139
  33 H :    0.041095
Sum of atomic charges:    0.0000000

LOEWDIN ATOMIC CHARGES
----------------------
   0 S :    0.394639
   1 C :   -0.191363
   2 C :   -0.061103
   3 C :   -0.057452
   4 C :   -0.183119
   5 H :    0.033882
   6 C :   -0.027977
   7 H :    0.023757
   8 H :    0.032494
   9 C :   -0.035659
  10 H :    0.023322
  11 H :    0.013846
  12 C :   -0.057916
  13 H :    0.038931
  14 H :    0.016799
  15 H :    0.021087
  16 S :    0.421867
  17 C :   -0.172173
  18 C :   -0.063001
  19 C :   -0.054529
  20 C :   -0.222519
  21 H :    0.023867
  22 C :   -0.028167
  23 H :    0.024084
  24 H :    0.028087
  25 C :   -0.029509
  26 H :    0.019320
  27 H :    0.023642
  28 C :   -0.065125
  29 H :    0.026933
  30 H :    0.031596
  31 H :    0.013319
  32 H :    0.018221
  33 H :    0.019921

  Mayer bond orders larger than 0.100000
B(  0-S ,  1-C ) :   1.1402 B(  0-S ,  4-C ) :   1.1602 B(  1-C ,  2-C ) :   1.6035
B(  1-C ,  4-C ) :   0.1102 B(  1-C , 32-H ) :   0.9684 B(  2-C ,  3-C ) :   1.2425
B(  2-C ,  6-C ) :   1.0303 B(  3-C ,  4-C ) :   1.5770 B(  3-C ,  5-H ) :   0.9915
B(  4-C , 20-C ) :   0.9754 B(  6-C ,  7-H ) :   0.9328 B(  6-C ,  8-H ) :   0.9337
B(  6-C ,  9-C ) :   1.0640 B(  9-C , 10-H ) :   0.9571 B(  9-C , 11-H ) :   0.9596
B(  9-C , 12-C ) :   1.0659 B( 12-C , 13-H ) :   0.9774 B( 12-C , 14-H ) :   0.9778
B( 12-C , 15-H ) :   0.9772 B( 16-S , 17-C ) :   1.1478 B( 16-S , 20-C ) :   1.1697
B( 17-C , 18-C ) :   1.6094 B( 17-C , 33-H ) :   0.9780 B( 18-C , 19-C ) :   1.2366
B( 18-C , 21-H ) :   0.9912 B( 19-C , 20-C ) :   1.6091 B( 19-C , 22-C ) :   1.0406
B( 22-C , 23-H ) :   0.9303 B( 22-C , 24-H ) :   0.9431 B( 22-C , 25-C ) :   1.0606
B( 25-C , 26-H ) :   0.9574 B( 25-C , 27-H ) :   0.9513 B( 25-C , 28-C ) :   1.0772
B( 28-C , 29-H ) :   0.9725 B( 28-C , 30-H ) :   0.9734 B( 28-C , 31-H ) :   0.9727

Dispersion correction           -0.014329354
FINAL SINGLE POINT ENERGY     -1339.863816569167

DIPOLE MOMENT
-------------
                                X             Y             Z
Electronic contribution:    -17.26336      16.64005       0.80652
Nuclear contribution   :     17.52476     -17.22361      -1.01103
                        -----------------------------------------
Total Dipole Moment    :      0.26140      -0.58356      -0.20451
                        -----------------------------------------
Magnitude (a.u.)       :      0.67134
Magnitude (Debye)      :      1.70641

Rotational constants in cm-1:     0.019322     0.007694     0.007031
Rotational constants in MHz :   579.260477   230.649832   210.771809

                             ****ORCA TERMINATED NORMALLY****
TOTAL RUN TIME: 0 days 0 hours 0 minutes 29 seconds 980 msec
