                         Program Version 4.2.1 -  RELEASE  -
|  1> ! wB97X-D3 SP def2-SVP
|  2> %pal
|  3> nprocs 16
|  4> end
|  5>
|  6> * xyz 0 1
|  7> S 	 -38.6965 	 13.5447 	 77.9325
|  8> C 	 -38.2274 	 13.8676 	 76.2737
|  9> C 	 -39.2437 	 14.5117 	 75.5765
| 10> C 	 -40.4505 	 14.5321 	 76.3037
| 11> C 	 -40.3407 	 14.1687 	 77.6387
| 12> H 	 -41.4279 	 14.8466 	 75.9272
| 13> C 	 -39.2981 	 14.7971 	 74.0932
| 14> H 	 -40.2564 	 14.5843 	 73.5833
| 15> H 	 -38.4736 	 14.2047 	 73.66
| 16> C 	 -39.0137 	 16.2872 	 73.7789
| 17> H 	 -38.1107 	 16.6438 	 74.2295
| 18> H 	 -38.816 	 16.2527 	 72.68
| 19> C 	 -40.1321 	 17.2943 	 73.9983
| 20> H 	 -41.0475 	 16.817 	 73.6356
| 21> H 	 -40.2811 	 17.3536 	 75.0709
| 22> H 	 -39.9365 	 18.2363 	 73.5494
| 23> S 	 -42.2232 	 15.5249 	 79.1916
| 24> C 	 -42.628 	 14.8502 	 80.7194
| 25> C 	 -42.4625 	 13.4396 	 80.6561
| 26> C 	 -41.67 	 13.0151 	 79.5421
| 27> C 	 -41.3813 	 14.1054 	 78.6664
| 28> H 	 -42.7399 	 12.8257 	 81.4796
| 29> C 	 -41.0963 	 11.642 	 79.3034
| 30> H 	 -40.2236 	 11.6538 	 79.9544
| 31> H 	 -40.6606 	 11.5903 	 78.3714
| 32> C 	 -42.0595 	 10.5136 	 79.6465
| 33> H 	 -42.4151 	 10.7411 	 80.6555
| 34> H 	 -41.4988 	 9.59557 	 79.7239
| 35> C 	 -43.3688 	 10.3732 	 78.8121
| 36> H 	 -43.9264 	 9.42586 	 78.8799
| 37> H 	 -43.2646 	 10.6094 	 77.8033
| 38> H 	 -44.1058 	 11.0804 	 79.1353
| 39> H 	 -37.1708 	 13.7227 	 75.9452
| 40> H 	 -43.1989 	 15.2635 	 81.5241
| 41> *
| 42>
| 43>                          ****END OF INPUT****

CARTESIAN COORDINATES (ANGSTROEM)
---------------------------------
  S    -38.696500   13.544700   77.932500
  C    -38.227400   13.867600   76.273700
  C    -39.243700   14.511700   75.576500
  C    -40.450500   14.532100   76.303700
  C    -40.340700   14.168700   77.638700
  H    -41.427900   14.846600   75.927200
  C    -39.298100   14.797100   74.093200
  H    -40.256400   14.584300   73.583300
  H    -38.473600   14.204700   73.660000
  C    -39.013700   16.287200   73.778900
  H    -38.110700   16.643800   74.229500
  H    -38.816000   16.252700   72.680000
  C    -40.132100   17.294300   73.998300
  H    -41.047500   16.817000   73.635600
  H    -40.281100   17.353600   75.070900
  H    -39.936500   18.236300   73.549400
  S    -42.223200   15.524900   79.191600
  C    -42.628000   14.850200   80.719400
  C    -42.462500   13.439600   80.656100
  C    -41.670000   13.015100   79.542100
  C    -41.381300   14.105400   78.666400
  H    -42.739900   12.825700   81.479600
  C    -41.096300   11.642000   79.303400
  H    -40.223600   11.653800   79.954400
  H    -40.660600   11.590300   78.371400
  C    -42.059500   10.513600   79.646500
  H    -42.415100   10.741100   80.655500
  H    -41.498800    9.595570   79.723900
  C    -43.368800   10.373200   78.812100
  H    -43.926400    9.425860   78.879900
  H    -43.264600   10.609400   77.803300
  H    -44.105800   11.080400   79.135300
  H    -37.170800   13.722700   75.945200
  H    -43.198900   15.263500   81.524100

 Total Charge           Charge          ....    0
 Multiplicity           Mult            ....    1
 Number of Electrons    NEL             ....  134
 Basis Dimension        Dim             ....  322

ORBITAL ENERGIES
----------------

  NO   OCC          E(Eh)            E(eV)
   0   2.0000     -88.968538     -2420.9570
   1   2.0000     -88.968201     -2420.9478
   2   2.0000     -10.332138      -281.1518
   3   2.0000     -10.323884      -280.9272
   4   2.0000     -10.320741      -280.8416
   5   2.0000     -10.319426      -280.8059
   6   2.0000     -10.305996      -280.4404
   7   2.0000     -10.300452      -280.2895
   8   2.0000     -10.296479      -280.1814
   9   2.0000     -10.295867      -280.1648
  10   2.0000     -10.292941      -280.0852
  11   2.0000     -10.287070      -279.9254
  12   2.0000     -10.282357      -279.7972
  13   2.0000     -10.281463      -279.7728
  14   2.0000     -10.272040      -279.5164
  15   2.0000     -10.269343      -279.4430
  16   2.0000      -8.083602      -219.9660
  17   2.0000      -8.081946      -219.9209
  18   2.0000      -6.042009      -164.4114
  19   2.0000      -6.040507      -164.3706
  20   2.0000      -6.037974      -164.3016
  21   2.0000      -6.036504      -164.2616
  22   2.0000      -6.034550      -164.2084
  23   2.0000      -6.032814      -164.1612
  24   2.0000      -1.004859       -27.3436
  25   2.0000      -0.984069       -26.7779
  26   2.0000      -0.912285       -24.8245
  27   2.0000      -0.909569       -24.7506
  28   2.0000      -0.866796       -23.5867
  29   2.0000      -0.849185       -23.1075
  30   2.0000      -0.843384       -22.9497
  31   2.0000      -0.814027       -22.1508
  32   2.0000      -0.787963       -21.4416
  33   2.0000      -0.773136       -21.0381
  34   2.0000      -0.710985       -19.3469
  35   2.0000      -0.698588       -19.0095
  36   2.0000      -0.692897       -18.8547
  37   2.0000      -0.655052       -17.8249
  38   2.0000      -0.638481       -17.3739
  39   2.0000      -0.616345       -16.7716
  40   2.0000      -0.598826       -16.2949
  41   2.0000      -0.578186       -15.7333
  42   2.0000      -0.553493       -15.0613
  43   2.0000      -0.549565       -14.9544
  44   2.0000      -0.539819       -14.6892
  45   2.0000      -0.535145       -14.5620
  46   2.0000      -0.522698       -14.2233
  47   2.0000      -0.511096       -13.9076
  48   2.0000      -0.499684       -13.5971
  49   2.0000      -0.492732       -13.4079
  50   2.0000      -0.487488       -13.2652
  51   2.0000      -0.481075       -13.0907
  52   2.0000      -0.471273       -12.8240
  53   2.0000      -0.468927       -12.7601
  54   2.0000      -0.466285       -12.6883
  55   2.0000      -0.451687       -12.2910
  56   2.0000      -0.444216       -12.0877
  57   2.0000      -0.438717       -11.9381
  58   2.0000      -0.432328       -11.7642
  59   2.0000      -0.426603       -11.6085
  60   2.0000      -0.418642       -11.3918
  61   2.0000      -0.413513       -11.2522
  62   2.0000      -0.403637       -10.9835
  63   2.0000      -0.344907        -9.3854
  64   2.0000      -0.331590        -9.0230
  65   2.0000      -0.325268        -8.8510
  66   2.0000      -0.288352        -7.8465
  67   0.0000       0.025111         0.6833
  68   0.0000       0.059370         1.6155
  69   0.0000       0.100423         2.7326
  70   0.0000       0.122054         3.3212
  71   0.0000       0.126115         3.4318

MULLIKEN ATOMIC CHARGES
-----------------------
   0 S :    0.100014
   1 C :   -0.154124
   2 C :   -0.037853
   3 C :    0.013024
   4 C :   -0.156699
   5 H :    0.014502
   6 C :    0.034435
   7 H :    0.039354
   8 H :    0.028649
   9 C :   -0.098977
  10 H :    0.020232
  11 H :    0.024460
  12 C :   -0.011004
  13 H :    0.012466
  14 H :    0.031181
  15 H :    0.041429
  16 S :    0.133147
  17 C :   -0.090403
  18 C :   -0.053934
  19 C :   -0.085449
  20 C :   -0.155106
  21 H :    0.016001
  22 C :    0.128680
  23 H :    0.034644
  24 H :    0.009856
  25 C :   -0.061999
  26 H :    0.018521
  27 H :    0.028787
  28 C :   -0.022522
  29 H :    0.035376
  30 H :    0.017948
  31 H :    0.018365
  32 H :    0.070983
  33 H :    0.056016
Sum of atomic charges:   -0.0000000

LOEWDIN ATOMIC CHARGES
----------------------
   0 S :    0.401743
   1 C :   -0.202058
   2 C :   -0.069905
   3 C :   -0.064441
   4 C :   -0.180591
   5 H :    0.032303
   6 C :   -0.028586
   7 H :    0.034533
   8 H :    0.034709
   9 C :   -0.042032
  10 H :    0.016568
  11 H :    0.023501
  12 C :   -0.060397
  13 H :    0.022150
  14 H :    0.025339
  15 H :    0.025018
  16 S :    0.437700
  17 C :   -0.193642
  18 C :   -0.072909
  19 C :   -0.044196
  20 C :   -0.225646
  21 H :    0.023541
  22 C :   -0.031017
  23 H :    0.039343
  24 H :    0.012431
  25 C :   -0.034340
  26 H :    0.023259
  27 H :    0.024016
  28 C :   -0.066105
  29 H :    0.032075
  30 H :    0.016751
  31 H :    0.025062
  32 H :    0.036987
  33 H :    0.028838

  Mayer bond orders larger than 0.100000
B(  0-S ,  1-C ) :   1.1489 B(  0-S ,  4-C ) :   1.1391 B(  1-C ,  2-C ) :   1.5929
B(  1-C ,  4-C ) :   0.1031 B(  1-C , 32-H ) :   0.9600 B(  2-C ,  3-C ) :   1.2429
B(  2-C ,  6-C ) :   1.0224 B(  3-C ,  4-C ) :   1.5788 B(  3-C ,  5-H ) :   0.9895
B(  4-C , 20-C ) :   1.0347 B(  6-C ,  7-H ) :   0.9503 B(  6-C ,  8-H ) :   0.9422
B(  6-C ,  9-C ) :   1.0679 B(  9-C , 10-H ) :   0.9557 B(  9-C , 11-H ) :   0.9562
B(  9-C , 12-C ) :   1.0807 B( 12-C , 13-H ) :   0.9706 B( 12-C , 14-H ) :   0.9724
B( 12-C , 15-H ) :   0.9732 B( 16-S , 17-C ) :   1.1903 B( 16-S , 20-C ) :   1.1550
B( 17-C , 18-C ) :   1.5579 B( 17-C , 20-C ) :   0.1082 B( 17-C , 33-H ) :   0.9675
B( 18-C , 19-C ) :   1.2818 B( 18-C , 21-H ) :   0.9884 B( 19-C , 20-C ) :   1.5160
B( 19-C , 22-C ) :   1.0313 B( 22-C , 23-H ) :   0.9219 B( 22-C , 24-H ) :   0.9250
B( 22-C , 25-C ) :   1.0787 B( 25-C , 26-H ) :   0.9573 B( 25-C , 27-H ) :   0.9568
B( 25-C , 28-C ) :   1.0610 B( 28-C , 29-H ) :   0.9764 B( 28-C , 30-H ) :   0.9785
B( 28-C , 31-H ) :   0.9713

Dispersion correction           -0.014536352
FINAL SINGLE POINT ENERGY     -1339.866596255575

DIPOLE MOMENT
-------------
                                X             Y             Z
Electronic contribution:      4.02992       5.72191      12.50623
Nuclear contribution   :     -4.09166      -5.93869     -12.64590
                        -----------------------------------------
Total Dipole Moment    :     -0.06174      -0.21678      -0.13967
                        -----------------------------------------
Magnitude (a.u.)       :      0.26516
Magnitude (Debye)      :      0.67400

Rotational constants in cm-1:     0.021664     0.007926     0.006895
Rotational constants in MHz :   649.479497   237.624835   206.698929

                             ****ORCA TERMINATED NORMALLY****
TOTAL RUN TIME: 0 days 0 hours 0 minutes 29 seconds 54 msec
