                         Program Version 4.2.1 -  RELEASE  -
|  1> ! wB97X-D3 SP def2-SVP
|  2> %pal
|  3> nprocs 16
|  4> end
|  5>
|  6> * xyz 0 1
|  7> S 	 -9.56044 	 46.0218 	 42.7319
|  8> C 	 -10.5277 	 47.0466 	 43.8237
|  9> C 	 -10.015 	 48.3407 	 43.6378
| 10> C 	 -9.16346 	 48.4934 	 42.4908
| 11> C 	 -8.74358 	 47.3183 	 41.8965
| 12> H 	 -8.78057 	 49.4958 	 42.2931
| 13> C 	 -10.4859 	 49.5438 	 44.4825
| 14> H 	 -10.2423 	 49.3366 	 45.5529
| 15> H 	 -11.5481 	 49.5609 	 44.5395
| 16> C 	 -9.94189 	 50.9286 	 43.991
| 17> H 	 -10.0564 	 51.6611 	 44.781
| 18> H 	 -8.8407 	 50.9535 	 44.0673
| 19> C 	 -10.6221 	 51.5025 	 42.7827
| 20> H 	 -10.6742 	 52.6402 	 42.906
| 21> H 	 -10.3732 	 51.167 	 41.8016
| 22> H 	 -11.6984 	 51.1696 	 42.7444
| 23> S 	 -6.63884 	 45.7971 	 41.3751
| 24> C 	 -5.60362 	 46.1908 	 40.0118
| 25> C 	 -5.95565 	 47.3966 	 39.3972
| 26> C 	 -7.23403 	 47.8542 	 39.8978
| 27> C 	 -7.63445 	 47.1364 	 40.9578
| 28> H 	 -5.39947 	 47.8312 	 38.5809
| 29> C 	 -7.88004 	 49.1502 	 39.4343
| 30> H 	 -8.91339 	 49.1626 	 39.5828
| 31> H 	 -7.73582 	 48.9886 	 38.3467
| 32> C 	 -7.36593 	 50.554 	 39.7845
| 33> H 	 -6.29381 	 50.455 	 39.9042
| 34> H 	 -7.70045 	 50.8626 	 40.7706
| 35> C 	 -7.93172 	 51.5946 	 38.778
| 36> H 	 -7.78058 	 52.5701 	 39.2239
| 37> H 	 -8.95665 	 51.3423 	 38.7056
| 38> H 	 -7.5793 	 51.4549 	 37.7274
| 39> H 	 -11.0356 	 46.8517 	 44.7581
| 40> H 	 -4.75164 	 45.6175 	 39.5497
| 41> *
| 42>
| 43>                          ****END OF INPUT****

CARTESIAN COORDINATES (ANGSTROEM)
---------------------------------
  S     -9.560440   46.021800   42.731900
  C    -10.527700   47.046600   43.823700
  C    -10.015000   48.340700   43.637800
  C     -9.163460   48.493400   42.490800
  C     -8.743580   47.318300   41.896500
  H     -8.780570   49.495800   42.293100
  C    -10.485900   49.543800   44.482500
  H    -10.242300   49.336600   45.552900
  H    -11.548100   49.560900   44.539500
  C     -9.941890   50.928600   43.991000
  H    -10.056400   51.661100   44.781000
  H     -8.840700   50.953500   44.067300
  C    -10.622100   51.502500   42.782700
  H    -10.674200   52.640200   42.906000
  H    -10.373200   51.167000   41.801600
  H    -11.698400   51.169600   42.744400
  S     -6.638840   45.797100   41.375100
  C     -5.603620   46.190800   40.011800
  C     -5.955650   47.396600   39.397200
  C     -7.234030   47.854200   39.897800
  C     -7.634450   47.136400   40.957800
  H     -5.399470   47.831200   38.580900
  C     -7.880040   49.150200   39.434300
  H     -8.913390   49.162600   39.582800
  H     -7.735820   48.988600   38.346700
  C     -7.365930   50.554000   39.784500
  H     -6.293810   50.455000   39.904200
  H     -7.700450   50.862600   40.770600
  C     -7.931720   51.594600   38.778000
  H     -7.780580   52.570100   39.223900
  H     -8.956650   51.342300   38.705600
  H     -7.579300   51.454900   37.727400
  H    -11.035600   46.851700   44.758100
  H     -4.751640   45.617500   39.549700

 Total Charge           Charge          ....    0
 Multiplicity           Mult            ....    1
 Number of Electrons    NEL             ....  134
 Basis Dimension        Dim             ....  322

ORBITAL ENERGIES
----------------

  NO   OCC          E(Eh)            E(eV)
   0   2.0000     -88.969518     -2420.9837
   1   2.0000     -88.966552     -2420.9030
   2   2.0000     -10.333075      -281.1773
   3   2.0000     -10.322747      -280.8962
   4   2.0000     -10.322480      -280.8890
   5   2.0000     -10.315320      -280.6941
   6   2.0000     -10.303088      -280.3613
   7   2.0000     -10.300558      -280.2924
   8   2.0000     -10.298052      -280.2243
   9   2.0000     -10.297172      -280.2003
  10   2.0000     -10.293335      -280.0959
  11   2.0000     -10.291639      -280.0497
  12   2.0000     -10.288435      -279.9626
  13   2.0000     -10.288184      -279.9557
  14   2.0000     -10.286973      -279.9228
  15   2.0000     -10.282374      -279.7976
  16   2.0000      -8.084616      -219.9936
  17   2.0000      -8.080329      -219.8769
  18   2.0000      -6.043159      -164.4427
  19   2.0000      -6.039209      -164.3352
  20   2.0000      -6.039053      -164.3310
  21   2.0000      -6.035147      -164.2247
  22   2.0000      -6.034758      -164.2141
  23   2.0000      -6.031069      -164.1137
  24   2.0000      -1.011849       -27.5338
  25   2.0000      -0.983132       -26.7524
  26   2.0000      -0.912490       -24.8301
  27   2.0000      -0.909388       -24.7457
  28   2.0000      -0.870970       -23.7003
  29   2.0000      -0.856644       -23.3105
  30   2.0000      -0.838250       -22.8099
  31   2.0000      -0.816959       -22.2306
  32   2.0000      -0.782792       -21.3008
  33   2.0000      -0.773848       -21.0575
  34   2.0000      -0.714486       -19.4422
  35   2.0000      -0.706347       -19.2207
  36   2.0000      -0.694836       -18.9075
  37   2.0000      -0.667844       -18.1730
  38   2.0000      -0.634084       -17.2543
  39   2.0000      -0.623163       -16.9571
  40   2.0000      -0.597086       -16.2475
  41   2.0000      -0.567403       -15.4398
  42   2.0000      -0.562183       -15.2978
  43   2.0000      -0.547918       -14.9096
  44   2.0000      -0.538085       -14.6420
  45   2.0000      -0.529431       -14.4065
  46   2.0000      -0.516094       -14.0436
  47   2.0000      -0.512690       -13.9510
  48   2.0000      -0.506819       -13.7913
  49   2.0000      -0.498884       -13.5753
  50   2.0000      -0.493770       -13.4362
  51   2.0000      -0.475503       -12.9391
  52   2.0000      -0.474008       -12.8984
  53   2.0000      -0.460754       -12.5378
  54   2.0000      -0.458833       -12.4855
  55   2.0000      -0.458394       -12.4735
  56   2.0000      -0.449566       -12.2333
  57   2.0000      -0.443755       -12.0752
  58   2.0000      -0.433656       -11.8004
  59   2.0000      -0.426332       -11.6011
  60   2.0000      -0.416948       -11.3457
  61   2.0000      -0.412406       -11.2221
  62   2.0000      -0.401075       -10.9138
  63   2.0000      -0.350813        -9.5461
  64   2.0000      -0.333440        -9.0734
  65   2.0000      -0.325119        -8.8469
  66   2.0000      -0.291166        -7.9230
  67   0.0000       0.022965         0.6249
  68   0.0000       0.073516         2.0005
  69   0.0000       0.102098         2.7782
  70   0.0000       0.121840         3.3154
  71   0.0000       0.126958         3.4547

MULLIKEN ATOMIC CHARGES
-----------------------
   0 S :    0.092924
   1 C :   -0.094906
   2 C :   -0.142538
   3 C :    0.023037
   4 C :   -0.097318
   5 H :   -0.002515
   6 C :    0.052507
   7 H :    0.033641
   8 H :    0.026289
   9 C :   -0.083417
  10 H :    0.013656
  11 H :    0.034034
  12 C :   -0.054252
  13 H :    0.051351
  14 H :    0.028971
  15 H :    0.028749
  16 S :    0.122021
  17 C :   -0.105515
  18 C :   -0.041794
  19 C :   -0.057364
  20 C :   -0.118202
  21 H :    0.021098
  22 C :    0.024479
  23 H :    0.011691
  24 H :    0.023454
  25 C :   -0.035552
  26 H :    0.020500
  27 H :    0.023792
  28 C :   -0.034937
  29 H :    0.044068
  30 H :    0.020369
  31 H :    0.041048
  32 H :    0.057336
  33 H :    0.073293
Sum of atomic charges:   -0.0000000

LOEWDIN ATOMIC CHARGES
----------------------
   0 S :    0.399309
   1 C :   -0.208151
   2 C :   -0.057696
   3 C :   -0.077354
   4 C :   -0.191159
   5 H :    0.028141
   6 C :   -0.033550
   7 H :    0.037110
   8 H :    0.026063
   9 C :   -0.060030
  10 H :    0.029525
  11 H :    0.029403
  12 C :   -0.076372
  13 H :    0.040100
  14 H :    0.016685
  15 H :    0.037091
  16 S :    0.419575
  17 C :   -0.194469
  18 C :   -0.064632
  19 C :   -0.062283
  20 C :   -0.195766
  21 H :    0.031067
  22 C :   -0.036045
  23 H :    0.019316
  24 H :    0.036184
  25 C :   -0.034696
  26 H :    0.020333
  27 H :    0.019117
  28 C :   -0.057316
  29 H :    0.029308
  30 H :    0.021378
  31 H :    0.031286
  32 H :    0.035850
  33 H :    0.042679

  Mayer bond orders larger than 0.100000
B(  0-S ,  1-C ) :   1.1229 B(  0-S ,  4-C ) :   1.1576 B(  1-C ,  2-C ) :   1.5933
B(  1-C ,  4-C ) :   0.1067 B(  1-C , 32-H ) :   0.9658 B(  2-C ,  3-C ) :   1.3062
B(  2-C ,  6-C ) :   1.0053 B(  3-C ,  4-C ) :   1.5128 B(  3-C ,  5-H ) :   0.9769
B(  4-C , 20-C ) :   1.0443 B(  6-C ,  7-H ) :   0.9346 B(  6-C ,  8-H ) :   0.9449
B(  6-C ,  9-C ) :   1.0925 B(  9-C , 10-H ) :   0.9455 B(  9-C , 11-H ) :   0.9462
B(  9-C , 12-C ) :   1.0567 B( 12-C , 13-H ) :   0.9764 B( 12-C , 14-H ) :   0.9745
B( 12-C , 15-H ) :   0.9668 B( 16-S , 17-C ) :   1.1406 B( 16-S , 20-C ) :   1.1276
B( 17-C , 18-C ) :   1.6361 B( 17-C , 33-H ) :   0.9598 B( 18-C , 19-C ) :   1.2092
B( 18-C , 21-H ) :   0.9877 B( 19-C , 20-C ) :   1.6422 B( 19-C , 22-C ) :   1.0477
B( 22-C , 23-H ) :   0.9279 B( 22-C , 24-H ) :   0.9328 B( 22-C , 25-C ) :   1.0606
B( 25-C , 26-H ) :   0.9535 B( 25-C , 27-H ) :   0.9490 B( 25-C , 28-C ) :   1.0627
B( 28-C , 29-H ) :   0.9742 B( 28-C , 30-H ) :   0.9745 B( 28-C , 31-H ) :   0.9756

Dispersion correction           -0.015040549
FINAL SINGLE POINT ENERGY     -1339.846154846667

DIPOLE MOMENT
-------------
                                X             Y             Z
Electronic contribution:      6.38040     -31.70295       3.79714
Nuclear contribution   :     -6.32962      32.52104      -3.72637
                        -----------------------------------------
Total Dipole Moment    :      0.05079       0.81809       0.07077
                        -----------------------------------------
Magnitude (a.u.)       :      0.82272
Magnitude (Debye)      :      2.09118

Rotational constants in cm-1:     0.015668     0.011520     0.007099
Rotational constants in MHz :   469.714188   345.350159   212.832334

                             ****ORCA TERMINATED NORMALLY****
TOTAL RUN TIME: 0 days 0 hours 0 minutes 33 seconds 678 msec
