                         Program Version 4.2.1 -  RELEASE  -
|  1> ! wB97X-D3 SP def2-SVP
|  2> %pal
|  3> nprocs 16
|  4> end
|  5>
|  6> * xyz 0 1
|  7> S 	 -63.7423 	 51.2084 	 124.127
|  8> C 	 -65.2995 	 50.4702 	 124.501
|  9> C 	 -65.5844 	 49.5773 	 123.537
| 10> C 	 -64.6249 	 49.4067 	 122.55
| 11> C 	 -63.5838 	 50.3058 	 122.635
| 12> H 	 -64.5633 	 48.7597 	 121.712
| 13> C 	 -66.9098 	 48.7746 	 123.491
| 14> H 	 -67.7308 	 49.4588 	 123.885
| 15> H 	 -66.8589 	 47.9473 	 124.081
| 16> C 	 -67.3091 	 48.2913 	 122.055
| 17> H 	 -67.6269 	 49.163 	 121.496
| 18> H 	 -66.489 	 47.7165 	 121.571
| 19> C 	 -68.5525 	 47.3431 	 122.157
| 20> H 	 -68.752 	 46.8003 	 121.224
| 21> H 	 -68.3536 	 46.5491 	 122.904
| 22> H 	 -69.3714 	 48.0129 	 122.537
| 23> S 	 -60.8837 	 50.2881 	 122.538
| 24> C 	 -60.2062 	 50.3829 	 120.946
| 25> C 	 -61.0829 	 50.7709 	 119.929
| 26> C 	 -62.3803 	 50.9375 	 120.453
| 27> C 	 -62.4459 	 50.6062 	 121.806
| 28> H 	 -60.7912 	 50.8863 	 118.88
| 29> C 	 -63.5489 	 51.3581 	 119.554
| 30> H 	 -63.0184 	 51.9214 	 118.745
| 31> H 	 -64.1535 	 52.0537 	 120.184
| 32> C 	 -64.3942 	 50.2574 	 118.896
| 33> H 	 -65.1052 	 49.7477 	 119.59
| 34> H 	 -63.6412 	 49.5691 	 118.493
| 35> C 	 -65.2394 	 50.8363 	 117.871
| 36> H 	 -65.9255 	 50.1512 	 117.394
| 37> H 	 -64.7036 	 51.3072 	 117.112
| 38> H 	 -65.8933 	 51.6819 	 118.22
| 39> H 	 -65.9107 	 50.6256 	 125.34
| 40> H 	 -59.2339 	 50.093 	 120.822
| 41> *
| 42>
| 43>                          ****END OF INPUT****

CARTESIAN COORDINATES (ANGSTROEM)
---------------------------------
  S    -63.742300   51.208400  124.127000
  C    -65.299500   50.470200  124.501000
  C    -65.584400   49.577300  123.537000
  C    -64.624900   49.406700  122.550000
  C    -63.583800   50.305800  122.635000
  H    -64.563300   48.759700  121.712000
  C    -66.909800   48.774600  123.491000
  H    -67.730800   49.458800  123.885000
  H    -66.858900   47.947300  124.081000
  C    -67.309100   48.291300  122.055000
  H    -67.626900   49.163000  121.496000
  H    -66.489000   47.716500  121.571000
  C    -68.552500   47.343100  122.157000
  H    -68.752000   46.800300  121.224000
  H    -68.353600   46.549100  122.904000
  H    -69.371400   48.012900  122.537000
  S    -60.883700   50.288100  122.538000
  C    -60.206200   50.382900  120.946000
  C    -61.082900   50.770900  119.929000
  C    -62.380300   50.937500  120.453000
  C    -62.445900   50.606200  121.806000
  H    -60.791200   50.886300  118.880000
  C    -63.548900   51.358100  119.554000
  H    -63.018400   51.921400  118.745000
  H    -64.153500   52.053700  120.184000
  C    -64.394200   50.257400  118.896000
  H    -65.105200   49.747700  119.590000
  H    -63.641200   49.569100  118.493000
  C    -65.239400   50.836300  117.871000
  H    -65.925500   50.151200  117.394000
  H    -64.703600   51.307200  117.112000
  H    -65.893300   51.681900  118.220000
  H    -65.910700   50.625600  125.340000
  H    -59.233900   50.093000  120.822000

 Total Charge           Charge          ....    0
 Multiplicity           Mult            ....    1
 Number of Electrons    NEL             ....  134
 Basis Dimension        Dim             ....  322

ORBITAL ENERGIES
----------------

  NO   OCC          E(Eh)            E(eV)
   0   2.0000     -88.969002     -2420.9696
   1   2.0000     -88.958030     -2420.6710
   2   2.0000     -10.323642      -280.9206
   3   2.0000     -10.321947      -280.8745
   4   2.0000     -10.313219      -280.6370
   5   2.0000     -10.304136      -280.3898
   6   2.0000     -10.303318      -280.3675
   7   2.0000     -10.297659      -280.2135
   8   2.0000     -10.297506      -280.2094
   9   2.0000     -10.292643      -280.0771
  10   2.0000     -10.291276      -280.0399
  11   2.0000     -10.290620      -280.0220
  12   2.0000     -10.286860      -279.9197
  13   2.0000     -10.285909      -279.8938
  14   2.0000     -10.284881      -279.8658
  15   2.0000     -10.269224      -279.4398
  16   2.0000      -8.084227      -219.9830
  17   2.0000      -8.072947      -219.6761
  18   2.0000      -6.042413      -164.4224
  19   2.0000      -6.038854      -164.3256
  20   2.0000      -6.035100      -164.2234
  21   2.0000      -6.031426      -164.1235
  22   2.0000      -6.027353      -164.0126
  23   2.0000      -6.023805      -163.9161
  24   2.0000      -1.010346       -27.4929
  25   2.0000      -0.987365       -26.8676
  26   2.0000      -0.918305       -24.9883
  27   2.0000      -0.905914       -24.6512
  28   2.0000      -0.870988       -23.7008
  29   2.0000      -0.862767       -23.4771
  30   2.0000      -0.840824       -22.8800
  31   2.0000      -0.815319       -22.1860
  32   2.0000      -0.782096       -21.2819
  33   2.0000      -0.767734       -20.8911
  34   2.0000      -0.710508       -19.3339
  35   2.0000      -0.697863       -18.9898
  36   2.0000      -0.688664       -18.7395
  37   2.0000      -0.667380       -18.1603
  38   2.0000      -0.648505       -17.6467
  39   2.0000      -0.617236       -16.7958
  40   2.0000      -0.598273       -16.2798
  41   2.0000      -0.576961       -15.6999
  42   2.0000      -0.573190       -15.5973
  43   2.0000      -0.561997       -15.2927
  44   2.0000      -0.528518       -14.3817
  45   2.0000      -0.523125       -14.2349
  46   2.0000      -0.520221       -14.1559
  47   2.0000      -0.513482       -13.9726
  48   2.0000      -0.507046       -13.7974
  49   2.0000      -0.502720       -13.6797
  50   2.0000      -0.493491       -13.4286
  51   2.0000      -0.479082       -13.0365
  52   2.0000      -0.469356       -12.7718
  53   2.0000      -0.460319       -12.5259
  54   2.0000      -0.457163       -12.4400
  55   2.0000      -0.455937       -12.4067
  56   2.0000      -0.440078       -11.9751
  57   2.0000      -0.435993       -11.8640
  58   2.0000      -0.432197       -11.7607
  59   2.0000      -0.426903       -11.6166
  60   2.0000      -0.424956       -11.5636
  61   2.0000      -0.417602       -11.3635
  62   2.0000      -0.406759       -11.0685
  63   2.0000      -0.342980        -9.3330
  64   2.0000      -0.332335        -9.0433
  65   2.0000      -0.330570        -8.9953
  66   2.0000      -0.290934        -7.9167
  67   0.0000       0.032932         0.8961
  68   0.0000       0.059923         1.6306
  69   0.0000       0.107461         2.9242
  70   0.0000       0.130923         3.5626
  71   0.0000       0.132827         3.6144

MULLIKEN ATOMIC CHARGES
-----------------------
   0 S :    0.085023
   1 C :   -0.098582
   2 C :   -0.059042
   3 C :    0.058036
   4 C :   -0.177408
   5 H :   -0.008131
   6 C :    0.077281
   7 H :    0.035133
   8 H :    0.012920
   9 C :   -0.132837
  10 H :    0.044731
  11 H :    0.049462
  12 C :   -0.061358
  13 H :    0.043125
  14 H :    0.029741
  15 H :    0.040234
  16 S :    0.128531
  17 C :   -0.061161
  18 C :   -0.041643
  19 C :   -0.018685
  20 C :   -0.177267
  21 H :    0.027662
  22 C :    0.029294
  23 H :    0.024369
  24 H :    0.044251
  25 C :   -0.040884
  26 H :    0.038579
  27 H :    0.027357
  28 C :   -0.016014
  29 H :    0.028157
  30 H :    0.001627
  31 H :    0.023988
  32 H :    0.020403
  33 H :    0.023106
Sum of atomic charges:   -0.0000000

LOEWDIN ATOMIC CHARGES
----------------------
   0 S :    0.390469
   1 C :   -0.186586
   2 C :   -0.068399
   3 C :   -0.067209
   4 C :   -0.184475
   5 H :    0.025567
   6 C :   -0.021013
   7 H :    0.037423
   8 H :    0.012931
   9 C :   -0.042627
  10 H :    0.024135
  11 H :    0.024670
  12 C :   -0.070457
  13 H :    0.026781
  14 H :    0.023665
  15 H :    0.031182
  16 S :    0.423091
  17 C :   -0.166741
  18 C :   -0.071263
  19 C :   -0.052035
  20 C :   -0.212219
  21 H :    0.036842
  22 C :   -0.029497
  23 H :    0.034803
  24 H :    0.037403
  25 C :   -0.044772
  26 H :    0.031084
  27 H :    0.027635
  28 C :   -0.066917
  29 H :    0.025072
  30 H :    0.012925
  31 H :    0.032490
  32 H :    0.021533
  33 H :    0.004507

  Mayer bond orders larger than 0.100000
B(  0-S ,  1-C ) :   1.1205 B(  0-S ,  4-C ) :   1.1621 B(  1-C ,  2-C ) :   1.6361
B(  1-C ,  4-C ) :   0.1068 B(  1-C , 32-H ) :   0.9813 B(  2-C ,  3-C ) :   1.2271
B(  2-C ,  6-C ) :   0.9904 B(  3-C ,  4-C ) :   1.5890 B(  3-C ,  5-H ) :   1.0012
B(  4-C , 20-C ) :   1.0132 B(  6-C ,  7-H ) :   0.9492 B(  6-C ,  8-H ) :   0.9379
B(  6-C ,  9-C ) :   1.0721 B(  9-C , 10-H ) :   0.9613 B(  9-C , 11-H ) :   0.9483
B(  9-C , 12-C ) :   1.0765 B( 12-C , 13-H ) :   0.9749 B( 12-C , 14-H ) :   0.9767
B( 12-C , 15-H ) :   0.9754 B( 16-S , 17-C ) :   1.1776 B( 16-S , 20-C ) :   1.1499
B( 17-C , 18-C ) :   1.5795 B( 17-C , 20-C ) :   0.1056 B( 17-C , 33-H ) :   0.9793
B( 18-C , 19-C ) :   1.2501 B( 18-C , 21-H ) :   0.9908 B( 19-C , 20-C ) :   1.5930
B( 19-C , 22-C ) :   1.0296 B( 22-C , 23-H ) :   0.9399 B( 22-C , 24-H ) :   0.9279
B( 22-C , 25-C ) :   1.0713 B( 25-C , 26-H ) :   0.9416 B( 25-C , 27-H ) :   0.9500
B( 25-C , 28-C ) :   1.1023 B( 28-C , 29-H ) :   0.9691 B( 28-C , 30-H ) :   0.9673
B( 28-C , 31-H ) :   0.9642

Dispersion correction           -0.014388659
FINAL SINGLE POINT ENERGY     -1339.864269796743

DIPOLE MOMENT
-------------
                                X             Y             Z
Electronic contribution:     25.60667       8.97982      18.09468
Nuclear contribution   :    -25.93848      -9.29378     -18.65326
                        -----------------------------------------
Total Dipole Moment    :     -0.33181      -0.31397      -0.55858
                        -----------------------------------------
Magnitude (a.u.)       :      0.72158
Magnitude (Debye)      :      1.83412

Rotational constants in cm-1:     0.016842     0.009787     0.006963
Rotational constants in MHz :   504.919631   293.396018   208.753191

                             ****ORCA TERMINATED NORMALLY****
TOTAL RUN TIME: 0 days 0 hours 0 minutes 34 seconds 204 msec
