                         Program Version 4.2.1 -  RELEASE  -
|  1> ! wB97X-D3 SP def2-SVP
|  2> %pal
|  3> nprocs 16
|  4> end
|  5>
|  6> * xyz 0 1
|  7> S 	 -94.9205 	 52.0334 	 119.947
|  8> C 	 -93.9045 	 52.3723 	 118.536
|  9> C 	 -94.6963 	 52.653 	 117.442
| 10> C 	 -96.1084 	 52.5509 	 117.647
| 11> C 	 -96.3801 	 52.168 	 118.97
| 12> H 	 -96.9038 	 52.9186 	 117.019
| 13> C 	 -94.1609 	 53.1792 	 116.122
| 14> H 	 -93.7849 	 54.1684 	 116.217
| 15> H 	 -94.9523 	 53.1759 	 115.39
| 16> C 	 -93.0561 	 52.2152 	 115.524
| 17> H 	 -92.4027 	 51.7243 	 116.229
| 18> H 	 -93.593 	 51.4786 	 114.961
| 19> C 	 -92.0424 	 52.7334 	 114.538
| 20> H 	 -91.2854 	 51.9626 	 114.288
| 21> H 	 -92.5381 	 53.0794 	 113.638
| 22> H 	 -91.4101 	 53.517 	 114.976
| 23> S 	 -97.9931 	 53.3928 	 120.859
| 24> C 	 -99.7535 	 53.0507 	 120.754
| 25> C 	 -99.969 	 51.9247 	 119.974
| 26> C 	 -98.8104 	 51.4119 	 119.259
| 27> C 	 -97.6681 	 52.1428 	 119.629
| 28> H 	 -101.041 	 51.5504 	 119.915
| 29> C 	 -98.8312 	 50.3568 	 118.132
| 30> H 	 -98.0788 	 49.6294 	 118.245
| 31> H 	 -98.6516 	 51.0484 	 117.326
| 32> C 	 -100.173 	 49.6976 	 117.596
| 33> H 	 -100.021 	 49.3343 	 116.604
| 34> H 	 -100.936 	 50.4965 	 117.575
| 35> C 	 -100.62 	 48.5165 	 118.495
| 36> H 	 -101.602 	 48.1404 	 118.22
| 37> H 	 -100.648 	 48.7965 	 119.556
| 38> H 	 -99.9633 	 47.7563 	 118.255
| 39> H 	 -92.8149 	 52.31 	 118.604
| 40> H 	 -100.52 	 53.6341 	 121.268
| 41> *
| 42>
| 43>                          ****END OF INPUT****

CARTESIAN COORDINATES (ANGSTROEM)
---------------------------------
  S    -94.920500   52.033400  119.947000
  C    -93.904500   52.372300  118.536000
  C    -94.696300   52.653000  117.442000
  C    -96.108400   52.550900  117.647000
  C    -96.380100   52.168000  118.970000
  H    -96.903800   52.918600  117.019000
  C    -94.160900   53.179200  116.122000
  H    -93.784900   54.168400  116.217000
  H    -94.952300   53.175900  115.390000
  C    -93.056100   52.215200  115.524000
  H    -92.402700   51.724300  116.229000
  H    -93.593000   51.478600  114.961000
  C    -92.042400   52.733400  114.538000
  H    -91.285400   51.962600  114.288000
  H    -92.538100   53.079400  113.638000
  H    -91.410100   53.517000  114.976000
  S    -97.993100   53.392800  120.859000
  C    -99.753500   53.050700  120.754000
  C    -99.969000   51.924700  119.974000
  C    -98.810400   51.411900  119.259000
  C    -97.668100   52.142800  119.629000
  H    -101.041000   51.550400  119.915000
  C    -98.831200   50.356800  118.132000
  H    -98.078800   49.629400  118.245000
  H    -98.651600   51.048400  117.326000
  C    -100.173000   49.697600  117.596000
  H    -100.021000   49.334300  116.604000
  H    -100.936000   50.496500  117.575000
  C    -100.620000   48.516500  118.495000
  H    -101.602000   48.140400  118.220000
  H    -100.648000   48.796500  119.556000
  H    -99.963300   47.756300  118.255000
  H    -92.814900   52.310000  118.604000
  H    -100.520000   53.634100  121.268000

 Total Charge           Charge          ....    0
 Multiplicity           Mult            ....    1
 Number of Electrons    NEL             ....  134
 Basis Dimension        Dim             ....  322

ORBITAL ENERGIES
----------------

  NO   OCC          E(Eh)            E(eV)
   0   2.0000     -88.965087     -2420.8631
   1   2.0000     -88.965056     -2420.8622
   2   2.0000     -10.330440      -281.1056
   3   2.0000     -10.326546      -280.9996
   4   2.0000     -10.323527      -280.9175
   5   2.0000     -10.315565      -280.7008
   6   2.0000     -10.314194      -280.6635
   7   2.0000     -10.303948      -280.3847
   8   2.0000     -10.302574      -280.3473
   9   2.0000     -10.296890      -280.1926
  10   2.0000     -10.293126      -280.0902
  11   2.0000     -10.292995      -280.0866
  12   2.0000     -10.290645      -280.0227
  13   2.0000     -10.280526      -279.7473
  14   2.0000     -10.275981      -279.6237
  15   2.0000     -10.272160      -279.5197
  16   2.0000      -8.079416      -219.8521
  17   2.0000      -8.078621      -219.8304
  18   2.0000      -6.037892      -164.2994
  19   2.0000      -6.037283      -164.2828
  20   2.0000      -6.033975      -164.1928
  21   2.0000      -6.033395      -164.1770
  22   2.0000      -6.030252      -164.0915
  23   2.0000      -6.029170      -164.0621
  24   2.0000      -0.999438       -27.1961
  25   2.0000      -0.973911       -26.5015
  26   2.0000      -0.907449       -24.6930
  27   2.0000      -0.903019       -24.5724
  28   2.0000      -0.867021       -23.5928
  29   2.0000      -0.852252       -23.1910
  30   2.0000      -0.843407       -22.9503
  31   2.0000      -0.812101       -22.0984
  32   2.0000      -0.784430       -21.3454
  33   2.0000      -0.770259       -20.9598
  34   2.0000      -0.705168       -19.1886
  35   2.0000      -0.699170       -19.0254
  36   2.0000      -0.691952       -18.8290
  37   2.0000      -0.650917       -17.7124
  38   2.0000      -0.640549       -17.4302
  39   2.0000      -0.612175       -16.6581
  40   2.0000      -0.595191       -16.1960
  41   2.0000      -0.576076       -15.6758
  42   2.0000      -0.554991       -15.1021
  43   2.0000      -0.550930       -14.9916
  44   2.0000      -0.546728       -14.8772
  45   2.0000      -0.527116       -14.3436
  46   2.0000      -0.521367       -14.1871
  47   2.0000      -0.511933       -13.9304
  48   2.0000      -0.507495       -13.8096
  49   2.0000      -0.494331       -13.4514
  50   2.0000      -0.492441       -13.4000
  51   2.0000      -0.485872       -13.2212
  52   2.0000      -0.475638       -12.9428
  53   2.0000      -0.459832       -12.5127
  54   2.0000      -0.456539       -12.4231
  55   2.0000      -0.445610       -12.1257
  56   2.0000      -0.438807       -11.9405
  57   2.0000      -0.433036       -11.7835
  58   2.0000      -0.431598       -11.7444
  59   2.0000      -0.425123       -11.5682
  60   2.0000      -0.419140       -11.4054
  61   2.0000      -0.414793       -11.2871
  62   2.0000      -0.408836       -11.1250
  63   2.0000      -0.343302        -9.3417
  64   2.0000      -0.330127        -8.9832
  65   2.0000      -0.326291        -8.8788
  66   2.0000      -0.289336        -7.8732
  67   0.0000       0.029400         0.8000
  68   0.0000       0.057386         1.5616
  69   0.0000       0.107227         2.9178
  70   0.0000       0.123653         3.3648
  71   0.0000       0.128162         3.4875

MULLIKEN ATOMIC CHARGES
-----------------------
   0 S :    0.099475
   1 C :   -0.139649
   2 C :   -0.084148
   3 C :    0.041101
   4 C :   -0.181064
   5 H :    0.029122
   6 C :    0.118333
   7 H :    0.034311
   8 H :    0.013417
   9 C :   -0.097112
  10 H :    0.024904
  11 H :    0.023413
  12 C :   -0.062832
  13 H :    0.034699
  14 H :    0.029461
  15 H :    0.024960
  16 S :    0.102248
  17 C :   -0.112339
  18 C :   -0.065604
  19 C :   -0.034686
  20 C :   -0.156746
  21 H :    0.046551
  22 C :    0.070751
  23 H :    0.039181
  24 H :    0.035830
  25 C :   -0.075102
  26 H :    0.029442
  27 H :    0.026188
  28 C :   -0.028882
  29 H :    0.026401
  30 H :    0.043960
  31 H :    0.017624
  32 H :    0.060595
  33 H :    0.066196
Sum of atomic charges:   -0.0000000

LOEWDIN ATOMIC CHARGES
----------------------
   0 S :    0.394903
   1 C :   -0.194154
   2 C :   -0.060331
   3 C :   -0.061352
   4 C :   -0.184652
   5 H :    0.035017
   6 C :   -0.019422
   7 H :    0.027066
   8 H :    0.026834
   9 C :   -0.042011
  10 H :    0.020364
  11 H :    0.022865
  12 C :   -0.068990
  13 H :    0.031367
  14 H :    0.019339
  15 H :    0.021310
  16 S :    0.372031
  17 C :   -0.175540
  18 C :   -0.084197
  19 C :   -0.045865
  20 C :   -0.202170
  21 H :    0.041740
  22 C :   -0.025938
  23 H :    0.026728
  24 H :    0.040485
  25 C :   -0.030424
  26 H :    0.023233
  27 H :    0.021227
  28 C :   -0.061914
  29 H :    0.023928
  30 H :    0.028667
  31 H :    0.016001
  32 H :    0.030422
  33 H :    0.033433

  Mayer bond orders larger than 0.100000
B(  0-S ,  1-C ) :   1.1259 B(  0-S ,  4-C ) :   1.1677 B(  1-C ,  2-C ) :   1.6046
B(  1-C , 32-H ) :   0.9710 B(  2-C ,  3-C ) :   1.2508 B(  2-C ,  6-C ) :   1.0211
B(  3-C ,  4-C ) :   1.5637 B(  3-C ,  5-H ) :   0.9846 B(  4-C , 20-C ) :   1.0372
B(  6-C ,  7-H ) :   0.9466 B(  6-C ,  8-H ) :   0.9429 B(  6-C ,  9-C ) :   1.0384
B(  9-C , 10-H ) :   0.9684 B(  9-C , 11-H ) :   0.9601 B(  9-C , 12-C ) :   1.0899
B( 12-C , 13-H ) :   0.9722 B( 12-C , 14-H ) :   0.9749 B( 12-C , 15-H ) :   0.9739
B( 16-S , 17-C ) :   1.1350 B( 16-S , 20-C ) :   1.1283 B( 17-C , 18-C ) :   1.6372
B( 17-C , 33-H ) :   0.9660 B( 18-C , 19-C ) :   1.2126 B( 18-C , 21-H ) :   0.9724
B( 19-C , 20-C ) :   1.6151 B( 19-C , 22-C ) :   1.0100 B( 22-C , 23-H ) :   0.9407
B( 22-C , 24-H ) :   0.9278 B( 22-C , 25-C ) :   1.0796 B( 25-C , 26-H ) :   0.9579
B( 25-C , 27-H ) :   0.9530 B( 25-C , 28-C ) :   1.0739 B( 28-C , 29-H ) :   0.9746
B( 28-C , 30-H ) :   0.9798 B( 28-C , 31-H ) :   0.9763

Dispersion correction           -0.013573682
FINAL SINGLE POINT ENERGY     -1339.859945713383

DIPOLE MOMENT
-------------
                                X             Y             Z
Electronic contribution:     -0.62141      10.41408      23.97860
Nuclear contribution   :      0.37809     -10.48831     -24.67091
                        -----------------------------------------
Total Dipole Moment    :     -0.24332      -0.07423      -0.69231
                        -----------------------------------------
Magnitude (a.u.)       :      0.73757
Magnitude (Debye)      :      1.87476

Rotational constants in cm-1:     0.020067     0.007197     0.005873
Rotational constants in MHz :   601.580681   215.754419   176.058952

                             ****ORCA TERMINATED NORMALLY****
TOTAL RUN TIME: 0 days 0 hours 0 minutes 32 seconds 42 msec
