                         Program Version 4.2.1 -  RELEASE  -
|  1> ! wB97X-D3 SP def2-SVP
|  2> %pal
|  3> nprocs 16
|  4> end
|  5>
|  6> * xyz 0 1
|  7> S 	 -30.6957 	 68.9066 	 106.622
|  8> C 	 -29.8162 	 70.2447 	 107.202
|  9> C 	 -28.9302 	 69.9403 	 108.213
| 10> C 	 -28.9128 	 68.5262 	 108.464
| 11> C 	 -29.8117 	 67.8057 	 107.663
| 12> H 	 -28.275 	 68.0176 	 109.169
| 13> C 	 -28.0917 	 71.0217 	 108.975
| 14> H 	 -27.9452 	 70.5504 	 109.937
| 15> H 	 -28.6189 	 71.9427 	 109.149
| 16> C 	 -26.7041 	 71.3787 	 108.336
| 17> H 	 -26.0749 	 71.744 	 109.063
| 18> H 	 -26.2649 	 70.3766 	 108.11
| 19> C 	 -26.6422 	 72.3227 	 107.136
| 20> H 	 -25.5875 	 72.5165 	 106.959
| 21> H 	 -27.1328 	 71.8637 	 106.24
| 22> H 	 -27.1217 	 73.2983 	 107.36
| 23> S 	 -30.5641 	 65.562 	 108.973
| 24> C 	 -30.82 	 64.0377 	 108.235
| 25> C 	 -30.6047 	 64.1384 	 106.882
| 26> C 	 -30.2722 	 65.4306 	 106.477
| 27> C 	 -30.001 	 66.3384 	 107.484
| 28> H 	 -30.7097 	 63.231 	 106.297
| 29> C 	 -30.0893 	 65.7943 	 105.044
| 30> H 	 -29.5727 	 66.7521 	 104.985
| 31> H 	 -31.0797 	 65.9434 	 104.831
| 32> C 	 -29.3973 	 64.7681 	 104.128
| 33> H 	 -29.2927 	 65.0811 	 103.089
| 34> H 	 -29.946 	 63.9027 	 104.235
| 35> C 	 -27.9285 	 64.4294 	 104.486
| 36> H 	 -27.8102 	 64.1713 	 105.522
| 37> H 	 -27.1838 	 65.2435 	 104.443
| 38> H 	 -27.5841 	 63.63 	 103.867
| 39> H 	 -29.9357 	 71.2745 	 106.875
| 40> H 	 -31.1583 	 63.2046 	 108.799
| 41> *
| 42>
| 43>                          ****END OF INPUT****

CARTESIAN COORDINATES (ANGSTROEM)
---------------------------------
  S    -30.695700   68.906600  106.622000
  C    -29.816200   70.244700  107.202000
  C    -28.930200   69.940300  108.213000
  C    -28.912800   68.526200  108.464000
  C    -29.811700   67.805700  107.663000
  H    -28.275000   68.017600  109.169000
  C    -28.091700   71.021700  108.975000
  H    -27.945200   70.550400  109.937000
  H    -28.618900   71.942700  109.149000
  C    -26.704100   71.378700  108.336000
  H    -26.074900   71.744000  109.063000
  H    -26.264900   70.376600  108.110000
  C    -26.642200   72.322700  107.136000
  H    -25.587500   72.516500  106.959000
  H    -27.132800   71.863700  106.240000
  H    -27.121700   73.298300  107.360000
  S    -30.564100   65.562000  108.973000
  C    -30.820000   64.037700  108.235000
  C    -30.604700   64.138400  106.882000
  C    -30.272200   65.430600  106.477000
  C    -30.001000   66.338400  107.484000
  H    -30.709700   63.231000  106.297000
  C    -30.089300   65.794300  105.044000
  H    -29.572700   66.752100  104.985000
  H    -31.079700   65.943400  104.831000
  C    -29.397300   64.768100  104.128000
  H    -29.292700   65.081100  103.089000
  H    -29.946000   63.902700  104.235000
  C    -27.928500   64.429400  104.486000
  H    -27.810200   64.171300  105.522000
  H    -27.183800   65.243500  104.443000
  H    -27.584100   63.630000  103.867000
  H    -29.935700   71.274500  106.875000
  H    -31.158300   63.204600  108.799000

 Total Charge           Charge          ....    0
 Multiplicity           Mult            ....    1
 Number of Electrons    NEL             ....  134
 Basis Dimension        Dim             ....  322

ORBITAL ENERGIES
----------------

  NO   OCC          E(Eh)            E(eV)
   0   2.0000     -88.968157     -2420.9466
   1   2.0000     -88.956734     -2420.6358
   2   2.0000     -10.336168      -281.2614
   3   2.0000     -10.327004      -281.0121
   4   2.0000     -10.313779      -280.6522
   5   2.0000     -10.309435      -280.5340
   6   2.0000     -10.302880      -280.3556
   7   2.0000     -10.301631      -280.3216
   8   2.0000     -10.299921      -280.2751
   9   2.0000     -10.295385      -280.1517
  10   2.0000     -10.290670      -280.0234
  11   2.0000     -10.283532      -279.8291
  12   2.0000     -10.283372      -279.8248
  13   2.0000     -10.281187      -279.7653
  14   2.0000     -10.277537      -279.6660
  15   2.0000     -10.269396      -279.4445
  16   2.0000      -8.083263      -219.9568
  17   2.0000      -8.072365      -219.6602
  18   2.0000      -6.041668      -164.4021
  19   2.0000      -6.037584      -164.2910
  20   2.0000      -6.034254      -164.2004
  21   2.0000      -6.030709      -164.1039
  22   2.0000      -6.026560      -163.9910
  23   2.0000      -6.023415      -163.9054
  24   2.0000      -1.010097       -27.4861
  25   2.0000      -0.990382       -26.9497
  26   2.0000      -0.911995       -24.8166
  27   2.0000      -0.904359       -24.6089
  28   2.0000      -0.869003       -23.6468
  29   2.0000      -0.851340       -23.1661
  30   2.0000      -0.846972       -23.0473
  31   2.0000      -0.814899       -22.1745
  32   2.0000      -0.785819       -21.3832
  33   2.0000      -0.776261       -21.1231
  34   2.0000      -0.709870       -19.3165
  35   2.0000      -0.702395       -19.1131
  36   2.0000      -0.691009       -18.8033
  37   2.0000      -0.661946       -18.0125
  38   2.0000      -0.640161       -17.4197
  39   2.0000      -0.617503       -16.8031
  40   2.0000      -0.600291       -16.3348
  41   2.0000      -0.573651       -15.6098
  42   2.0000      -0.561093       -15.2681
  43   2.0000      -0.549033       -14.9399
  44   2.0000      -0.544257       -14.8100
  45   2.0000      -0.539303       -14.6752
  46   2.0000      -0.525032       -14.2868
  47   2.0000      -0.511585       -13.9209
  48   2.0000      -0.503282       -13.6950
  49   2.0000      -0.491780       -13.3820
  50   2.0000      -0.488577       -13.2949
  51   2.0000      -0.479498       -13.0478
  52   2.0000      -0.473209       -12.8767
  53   2.0000      -0.470038       -12.7904
  54   2.0000      -0.457625       -12.4526
  55   2.0000      -0.449403       -12.2289
  56   2.0000      -0.444197       -12.0872
  57   2.0000      -0.440722       -11.9927
  58   2.0000      -0.432937       -11.7808
  59   2.0000      -0.422898       -11.5076
  60   2.0000      -0.419568       -11.4170
  61   2.0000      -0.413454       -11.2506
  62   2.0000      -0.403311       -10.9747
  63   2.0000      -0.347611        -9.4590
  64   2.0000      -0.333248        -9.0681
  65   2.0000      -0.326005        -8.8710
  66   2.0000      -0.294304        -8.0084
  67   0.0000       0.031369         0.8536
  68   0.0000       0.073107         1.9893
  69   0.0000       0.115254         3.1362
  70   0.0000       0.122882         3.3438
  71   0.0000       0.132736         3.6119

MULLIKEN ATOMIC CHARGES
-----------------------
   0 S :    0.127548
   1 C :   -0.118254
   2 C :   -0.105622
   3 C :    0.036963
   4 C :   -0.157189
   5 H :    0.010283
   6 C :    0.082550
   7 H :    0.020159
   8 H :    0.022937
   9 C :   -0.063752
  10 H :    0.011303
  11 H :    0.024410
  12 C :   -0.052484
  13 H :    0.038430
  14 H :    0.047098
  15 H :    0.031249
  16 S :    0.081912
  17 C :   -0.076281
  18 C :   -0.045306
  19 C :   -0.088191
  20 C :   -0.131262
  21 H :    0.021805
  22 C :    0.120207
  23 H :    0.023434
  24 H :    0.018212
  25 C :   -0.041743
  26 H :    0.036316
  27 H :    0.011002
  28 C :   -0.061140
  29 H :    0.023533
  30 H :    0.025607
  31 H :    0.030998
  32 H :    0.045286
  33 H :    0.049981
Sum of atomic charges:   -0.0000000

LOEWDIN ATOMIC CHARGES
----------------------
   0 S :    0.433183
   1 C :   -0.212001
   2 C :   -0.067197
   3 C :   -0.059339
   4 C :   -0.199359
   5 H :    0.030213
   6 C :   -0.023400
   7 H :    0.031462
   8 H :    0.024906
   9 C :   -0.041021
  10 H :    0.012107
  11 H :    0.028655
  12 C :   -0.067349
  13 H :    0.029802
  14 H :    0.030748
  15 H :    0.025599
  16 S :    0.413394
  17 C :   -0.177524
  18 C :   -0.084729
  19 C :   -0.055639
  20 C :   -0.200108
  21 H :    0.034664
  22 C :   -0.027862
  23 H :    0.025868
  24 H :    0.026000
  25 C :   -0.029262
  26 H :    0.030732
  27 H :    0.010767
  28 C :   -0.066332
  29 H :    0.021068
  30 H :    0.026481
  31 H :    0.022823
  32 H :    0.028627
  33 H :    0.024021

  Mayer bond orders larger than 0.100000
B(  0-S ,  1-C ) :   1.1627 B(  0-S ,  4-C ) :   1.1544 B(  1-C ,  2-C ) :   1.6044
B(  1-C , 32-H ) :   0.9633 B(  2-C ,  3-C ) :   1.2637 B(  2-C ,  6-C ) :   1.0117
B(  3-C ,  4-C ) :   1.5585 B(  3-C ,  5-H ) :   0.9940 B(  4-C , 20-C ) :   1.0039
B(  6-C ,  7-H ) :   0.9366 B(  6-C ,  8-H ) :   0.9494 B(  6-C ,  9-C ) :   1.0671
B(  9-C , 10-H ) :   0.9561 B(  9-C , 11-H ) :   0.9537 B(  9-C , 12-C ) :   1.0821
B( 12-C , 13-H ) :   0.9720 B( 12-C , 14-H ) :   0.9744 B( 12-C , 15-H ) :   0.9733
B( 16-S , 17-C ) :   1.2006 B( 16-S , 20-C ) :   1.1359 B( 17-C , 18-C ) :   1.5568
B( 17-C , 20-C ) :   0.1065 B( 17-C , 33-H ) :   0.9725 B( 18-C , 19-C ) :   1.2535
B( 18-C , 21-H ) :   0.9999 B( 19-C , 20-C ) :   1.5865 B( 19-C , 22-C ) :   1.0093
B( 22-C , 23-H ) :   0.9392 B( 22-C , 24-H ) :   0.9187 B( 22-C , 25-C ) :   1.0808
B( 25-C , 26-H ) :   0.9572 B( 25-C , 27-H ) :   0.9512 B( 25-C , 28-C ) :   1.0791
B( 28-C , 29-H ) :   0.9733 B( 28-C , 30-H ) :   0.9746 B( 28-C , 31-H ) :   0.9762

Dispersion correction           -0.014265847
FINAL SINGLE POINT ENERGY     -1339.870378903723

DIPOLE MOMENT
-------------
                                X             Y             Z
Electronic contribution:    -17.81006      -6.89385      10.09405
Nuclear contribution   :     18.06899       6.95098     -10.22192
                        -----------------------------------------
Total Dipole Moment    :      0.25894       0.05714      -0.12787
                        -----------------------------------------
Magnitude (a.u.)       :      0.29438
Magnitude (Debye)      :      0.74827

Rotational constants in cm-1:     0.021922     0.007412     0.006522
Rotational constants in MHz :   657.195752   222.212431   195.510869

                             ****ORCA TERMINATED NORMALLY****
TOTAL RUN TIME: 0 days 0 hours 0 minutes 26 seconds 763 msec
