                         Program Version 4.2.1 -  RELEASE  -
|  1> ! wB97X-D3 SP def2-SVP
|  2> %pal
|  3> nprocs 16
|  4> end
|  5>
|  6> * xyz 0 1
|  7> S 	 -84.4817 	 37.3535 	 132.777
|  8> C 	 -82.8923 	 36.9505 	 133.473
|  9> C 	 -82.5226 	 37.847 	 134.475
| 10> C 	 -83.2816 	 39.065 	 134.427
| 11> C 	 -84.3711 	 38.9685 	 133.534
| 12> H 	 -83.1728 	 39.9432 	 135.035
| 13> C 	 -81.2961 	 37.6922 	 135.327
| 14> H 	 -80.9454 	 38.6469 	 135.641
| 15> H 	 -80.5566 	 37.1652 	 134.761
| 16> C 	 -81.5236 	 36.953 	 136.584
| 17> H 	 -81.9292 	 35.9316 	 136.391
| 18> H 	 -80.5681 	 36.7613 	 136.993
| 19> C 	 -82.4109 	 37.7082 	 137.596
| 20> H 	 -82.3477 	 38.777 	 137.632
| 21> H 	 -83.3911 	 37.6693 	 137.155
| 22> H 	 -82.4318 	 37.2774 	 138.535
| 23> S 	 -87.0071 	 39.5503 	 132.913
| 24> C 	 -87.5316 	 41.2524 	 132.823
| 25> C 	 -86.4632 	 42.0901 	 133.011
| 26> C 	 -85.2274 	 41.3687 	 133.27
| 27> C 	 -85.359 	 40.0114 	 133.223
| 28> H 	 -86.5811 	 43.1322 	 132.886
| 29> C 	 -83.9441 	 42.0928 	 133.474
| 30> H 	 -83.8708 	 42.7819 	 132.699
| 31> H 	 -83.2011 	 41.3762 	 133.311
| 32> C 	 -83.7957 	 42.7266 	 134.904
| 33> H 	 -83.8386 	 42.0481 	 135.757
| 34> H 	 -84.5867 	 43.3987 	 134.991
| 35> C 	 -82.503 	 43.5584 	 135.011
| 36> H 	 -82.4797 	 44.5085 	 134.384
| 37> H 	 -81.7575 	 42.9374 	 134.668
| 38> H 	 -82.3396 	 43.7301 	 136.074
| 39> H 	 -82.5528 	 35.9469 	 133.4
| 40> H 	 -88.4533 	 41.7306 	 132.518
| 41> *
| 42>
| 43>                          ****END OF INPUT****

CARTESIAN COORDINATES (ANGSTROEM)
---------------------------------
  S    -84.481700   37.353500  132.777000
  C    -82.892300   36.950500  133.473000
  C    -82.522600   37.847000  134.475000
  C    -83.281600   39.065000  134.427000
  C    -84.371100   38.968500  133.534000
  H    -83.172800   39.943200  135.035000
  C    -81.296100   37.692200  135.327000
  H    -80.945400   38.646900  135.641000
  H    -80.556600   37.165200  134.761000
  C    -81.523600   36.953000  136.584000
  H    -81.929200   35.931600  136.391000
  H    -80.568100   36.761300  136.993000
  C    -82.410900   37.708200  137.596000
  H    -82.347700   38.777000  137.632000
  H    -83.391100   37.669300  137.155000
  H    -82.431800   37.277400  138.535000
  S    -87.007100   39.550300  132.913000
  C    -87.531600   41.252400  132.823000
  C    -86.463200   42.090100  133.011000
  C    -85.227400   41.368700  133.270000
  C    -85.359000   40.011400  133.223000
  H    -86.581100   43.132200  132.886000
  C    -83.944100   42.092800  133.474000
  H    -83.870800   42.781900  132.699000
  H    -83.201100   41.376200  133.311000
  C    -83.795700   42.726600  134.904000
  H    -83.838600   42.048100  135.757000
  H    -84.586700   43.398700  134.991000
  C    -82.503000   43.558400  135.011000
  H    -82.479700   44.508500  134.384000
  H    -81.757500   42.937400  134.668000
  H    -82.339600   43.730100  136.074000
  H    -82.552800   35.946900  133.400000
  H    -88.453300   41.730600  132.518000

 Total Charge           Charge          ....    0
 Multiplicity           Mult            ....    1
 Number of Electrons    NEL             ....  134
 Basis Dimension        Dim             ....  322

ORBITAL ENERGIES
----------------

  NO   OCC          E(Eh)            E(eV)
   0   2.0000     -88.968530     -2420.9568
   1   2.0000     -88.965687     -2420.8794
   2   2.0000     -10.338838      -281.3341
   3   2.0000     -10.324720      -280.9499
   4   2.0000     -10.318607      -280.7836
   5   2.0000     -10.315085      -280.6877
   6   2.0000     -10.305713      -280.4327
   7   2.0000     -10.300333      -280.2863
   8   2.0000     -10.297750      -280.2160
   9   2.0000     -10.291615      -280.0491
  10   2.0000     -10.286277      -279.9038
  11   2.0000     -10.283738      -279.8347
  12   2.0000     -10.281626      -279.7773
  13   2.0000     -10.279984      -279.7326
  14   2.0000     -10.276928      -279.6494
  15   2.0000     -10.267098      -279.3819
  16   2.0000      -8.082224      -219.9285
  17   2.0000      -8.080012      -219.8683
  18   2.0000      -6.040758      -164.3774
  19   2.0000      -6.038833      -164.3250
  20   2.0000      -6.037095      -164.2777
  21   2.0000      -6.034644      -164.2110
  22   2.0000      -6.032822      -164.1614
  23   2.0000      -6.030399      -164.0955
  24   2.0000      -1.004208       -27.3259
  25   2.0000      -0.980010       -26.6674
  26   2.0000      -0.922575       -25.1045
  27   2.0000      -0.912025       -24.8175
  28   2.0000      -0.869974       -23.6732
  29   2.0000      -0.854758       -23.2591
  30   2.0000      -0.844371       -22.9765
  31   2.0000      -0.819518       -22.3002
  32   2.0000      -0.788709       -21.4619
  33   2.0000      -0.772449       -21.0194
  34   2.0000      -0.709012       -19.2932
  35   2.0000      -0.707156       -19.2427
  36   2.0000      -0.700547       -19.0629
  37   2.0000      -0.667322       -18.1588
  38   2.0000      -0.642151       -17.4738
  39   2.0000      -0.617513       -16.8034
  40   2.0000      -0.590261       -16.0618
  41   2.0000      -0.579172       -15.7601
  42   2.0000      -0.573173       -15.5968
  43   2.0000      -0.562148       -15.2968
  44   2.0000      -0.542917       -14.7735
  45   2.0000      -0.533102       -14.5064
  46   2.0000      -0.520465       -14.1626
  47   2.0000      -0.515175       -14.0186
  48   2.0000      -0.507793       -13.8177
  49   2.0000      -0.494955       -13.4684
  50   2.0000      -0.491143       -13.3647
  51   2.0000      -0.485533       -13.2120
  52   2.0000      -0.470068       -12.7912
  53   2.0000      -0.465088       -12.6557
  54   2.0000      -0.457011       -12.4359
  55   2.0000      -0.452266       -12.3068
  56   2.0000      -0.449338       -12.2271
  57   2.0000      -0.440724       -11.9927
  58   2.0000      -0.437182       -11.8963
  59   2.0000      -0.430210       -11.7066
  60   2.0000      -0.425800       -11.5866
  61   2.0000      -0.414809       -11.2875
  62   2.0000      -0.410030       -11.1575
  63   2.0000      -0.356547        -9.7021
  64   2.0000      -0.334442        -9.1006
  65   2.0000      -0.327025        -8.8988
  66   2.0000      -0.286534        -7.7970
  67   0.0000       0.019562         0.5323
  68   0.0000       0.072333         1.9683
  69   0.0000       0.098503         2.6804
  70   0.0000       0.117946         3.2095
  71   0.0000       0.126706         3.4478

MULLIKEN ATOMIC CHARGES
-----------------------
   0 S :    0.093627
   1 C :   -0.104685
   2 C :   -0.091579
   3 C :    0.019466
   4 C :   -0.138203
   5 H :   -0.005324
   6 C :    0.104655
   7 H :    0.007735
   8 H :    0.023171
   9 C :   -0.059406
  10 H :    0.024326
  11 H :    0.013675
  12 C :   -0.021767
  13 H :    0.012611
  14 H :    0.026375
  15 H :    0.029157
  16 S :    0.091892
  17 C :   -0.072960
  18 C :   -0.021028
  19 C :   -0.092760
  20 C :   -0.095545
  21 H :    0.006205
  22 C :    0.100527
  23 H :    0.008665
  24 H :    0.004240
  25 C :   -0.072777
  26 H :    0.036325
  27 H :    0.010930
  28 C :   -0.019356
  29 H :    0.045378
  30 H :    0.006321
  31 H :    0.033899
  32 H :    0.044299
  33 H :    0.051914
Sum of atomic charges:    0.0000000

LOEWDIN ATOMIC CHARGES
----------------------
   0 S :    0.376197
   1 C :   -0.184518
   2 C :   -0.051501
   3 C :   -0.063895
   4 C :   -0.165860
   5 H :    0.028286
   6 C :   -0.025340
   7 H :    0.025927
   8 H :    0.032697
   9 C :   -0.033827
  10 H :    0.026072
  11 H :    0.015027
  12 C :   -0.062609
  13 H :    0.021347
  14 H :    0.030784
  15 H :    0.018161
  16 S :    0.387350
  17 C :   -0.175857
  18 C :   -0.062895
  19 C :   -0.056811
  20 C :   -0.201051
  21 H :    0.025263
  22 C :   -0.022814
  23 H :    0.025293
  24 H :    0.019608
  25 C :   -0.028275
  26 H :    0.024138
  27 H :    0.014036
  28 C :   -0.060759
  29 H :    0.034272
  30 H :    0.010576
  31 H :    0.027603
  32 H :    0.018335
  33 H :    0.035043

  Mayer bond orders larger than 0.100000
B(  0-S ,  1-C ) :   1.1239 B(  0-S ,  4-C ) :   1.1511 B(  1-C ,  2-C ) :   1.6193
B(  1-C ,  4-C ) :   0.1057 B(  1-C , 32-H ) :   0.9650 B(  2-C ,  3-C ) :   1.2202
B(  2-C ,  6-C ) :   1.0308 B(  3-C ,  4-C ) :   1.5603 B(  3-C ,  5-H ) :   0.9916
B(  4-C , 20-C ) :   1.0514 B(  6-C ,  7-H ) :   0.9380 B(  6-C ,  8-H ) :   0.9361
B(  6-C ,  9-C ) :   1.0870 B(  9-C , 10-H ) :   0.9522 B(  9-C , 11-H ) :   0.9543
B(  9-C , 12-C ) :   1.0677 B( 12-C , 13-H ) :   0.9739 B( 12-C , 14-H ) :   0.9685
B( 12-C , 15-H ) :   0.9747 B( 16-S , 17-C ) :   1.1276 B( 16-S , 20-C ) :   1.1061
B( 17-C , 18-C ) :   1.6543 B( 17-C , 33-H ) :   0.9625 B( 18-C , 19-C ) :   1.2071
B( 18-C , 21-H ) :   0.9927 B( 19-C , 20-C ) :   1.6388 B( 19-C , 22-C ) :   1.0509
B( 22-C , 23-H ) :   0.9271 B( 22-C , 24-H ) :   0.9263 B( 22-C , 25-C ) :   1.0559
B( 25-C , 26-H ) :   0.9539 B( 25-C , 27-H ) :   0.9546 B( 25-C , 28-C ) :   1.0820
B( 28-C , 29-H ) :   0.9746 B( 28-C , 30-H ) :   0.9732 B( 28-C , 31-H ) :   0.9747

Dispersion correction           -0.014655369
FINAL SINGLE POINT ENERGY     -1339.860922206640

DIPOLE MOMENT
-------------
                                X             Y             Z
Electronic contribution:    -19.65891     -10.98708     -18.66579
Nuclear contribution   :     20.08895      11.42017      19.03344
                        -----------------------------------------
Total Dipole Moment    :      0.43004       0.43309       0.36765
                        -----------------------------------------
Magnitude (a.u.)       :      0.71251
Magnitude (Debye)      :      1.81105

Rotational constants in cm-1:     0.017035     0.009878     0.007067
Rotational constants in MHz :   510.702344   296.126064   211.874587

                             ****ORCA TERMINATED NORMALLY****
TOTAL RUN TIME: 0 days 0 hours 0 minutes 35 seconds 881 msec
