                         Program Version 4.2.1 -  RELEASE  -
|  1> ! wB97X-D3 SP def2-SVP
|  2> %pal
|  3> nprocs 16
|  4> end
|  5>
|  6> * xyz 0 1
|  7> S 	 -99.6165 	 58.1818 	 114.115
|  8> C 	 -99.7028 	 57.3353 	 112.638
|  9> C 	 -100.502 	 56.193 	 112.745
| 10> C 	 -101.081 	 56.1221 	 114.053
| 11> C 	 -100.732 	 57.0958 	 114.905
| 12> H 	 -101.722 	 55.2999 	 114.386
| 13> C 	 -100.795 	 55.1793 	 111.608
| 14> H 	 -100.561 	 55.6716 	 110.667
| 15> H 	 -101.861 	 55.0449 	 111.618
| 16> C 	 -99.9355 	 53.8375 	 111.915
| 17> H 	 -98.9606 	 54.1872 	 111.834
| 18> H 	 -99.9378 	 53.3152 	 112.917
| 19> C 	 -100.17 	 52.7317 	 110.918
| 20> H 	 -101.14 	 52.3354 	 110.948
| 21> H 	 -99.8984 	 53.0613 	 109.887
| 22> H 	 -99.442 	 51.882 	 111.046
| 23> S 	 -102.759 	 56.7394 	 116.543
| 24> C 	 -102.808 	 57.2621 	 118.169
| 25> C 	 -101.615 	 57.8569 	 118.513
| 26> C 	 -100.628 	 57.9305 	 117.446
| 27> C 	 -101.133 	 57.2205 	 116.331
| 28> H 	 -101.586 	 58.3289 	 119.46
| 29> C 	 -99.3201 	 58.5245 	 117.527
| 30> H 	 -99.2199 	 59.472 	 118.105
| 31> H 	 -98.8343 	 58.8248 	 116.664
| 32> C 	 -98.2377 	 57.7059 	 118.288
| 33> H 	 -98.6172 	 57.2726 	 119.305
| 34> H 	 -97.3739 	 58.3528 	 118.483
| 35> C 	 -97.7731 	 56.4907 	 117.451
| 36> H 	 -98.6385 	 55.8774 	 117.275
| 37> H 	 -96.9999 	 55.9715 	 117.986
| 38> H 	 -97.4578 	 56.827 	 116.471
| 39> H 	 -99.0783 	 57.496 	 111.783
| 40> H 	 -103.683 	 57.2446 	 118.875
| 41> *
| 42>
| 43>                          ****END OF INPUT****

CARTESIAN COORDINATES (ANGSTROEM)
---------------------------------
  S    -99.616500   58.181800  114.115000
  C    -99.702800   57.335300  112.638000
  C    -100.502000   56.193000  112.745000
  C    -101.081000   56.122100  114.053000
  C    -100.732000   57.095800  114.905000
  H    -101.722000   55.299900  114.386000
  C    -100.795000   55.179300  111.608000
  H    -100.561000   55.671600  110.667000
  H    -101.861000   55.044900  111.618000
  C    -99.935500   53.837500  111.915000
  H    -98.960600   54.187200  111.834000
  H    -99.937800   53.315200  112.917000
  C    -100.170000   52.731700  110.918000
  H    -101.140000   52.335400  110.948000
  H    -99.898400   53.061300  109.887000
  H    -99.442000   51.882000  111.046000
  S    -102.759000   56.739400  116.543000
  C    -102.808000   57.262100  118.169000
  C    -101.615000   57.856900  118.513000
  C    -100.628000   57.930500  117.446000
  C    -101.133000   57.220500  116.331000
  H    -101.586000   58.328900  119.460000
  C    -99.320100   58.524500  117.527000
  H    -99.219900   59.472000  118.105000
  H    -98.834300   58.824800  116.664000
  C    -98.237700   57.705900  118.288000
  H    -98.617200   57.272600  119.305000
  H    -97.373900   58.352800  118.483000
  C    -97.773100   56.490700  117.451000
  H    -98.638500   55.877400  117.275000
  H    -96.999900   55.971500  117.986000
  H    -97.457800   56.827000  116.471000
  H    -99.078300   57.496000  111.783000
  H    -103.683000   57.244600  118.875000

 Total Charge           Charge          ....    0
 Multiplicity           Mult            ....    1
 Number of Electrons    NEL             ....  134
 Basis Dimension        Dim             ....  322

ORBITAL ENERGIES
----------------

  NO   OCC          E(Eh)            E(eV)
   0   2.0000     -88.965897     -2420.8851
   1   2.0000     -88.965354     -2420.8704
   2   2.0000     -10.329541      -281.0811
   3   2.0000     -10.327652      -281.0297
   4   2.0000     -10.316774      -280.7337
   5   2.0000     -10.309676      -280.5406
   6   2.0000     -10.309329      -280.5311
   7   2.0000     -10.302422      -280.3432
   8   2.0000     -10.302078      -280.3338
   9   2.0000     -10.293358      -280.0965
  10   2.0000     -10.290658      -280.0231
  11   2.0000     -10.290281      -280.0128
  12   2.0000     -10.288344      -279.9601
  13   2.0000     -10.284085      -279.8442
  14   2.0000     -10.276911      -279.6490
  15   2.0000     -10.263543      -279.2852
  16   2.0000      -8.081887      -219.9193
  17   2.0000      -8.080539      -219.8827
  18   2.0000      -6.040280      -164.3644
  19   2.0000      -6.039065      -164.3313
  20   2.0000      -6.036134      -164.2516
  21   2.0000      -6.034957      -164.2195
  22   2.0000      -6.032761      -164.1598
  23   2.0000      -6.031299      -164.1200
  24   2.0000      -1.014788       -27.6138
  25   2.0000      -0.991389       -26.9771
  26   2.0000      -0.914824       -24.8936
  27   2.0000      -0.903193       -24.5771
  28   2.0000      -0.873426       -23.7671
  29   2.0000      -0.852477       -23.1971
  30   2.0000      -0.844360       -22.9762
  31   2.0000      -0.817620       -22.2486
  32   2.0000      -0.784583       -21.3496
  33   2.0000      -0.770285       -20.9605
  34   2.0000      -0.704570       -19.1723
  35   2.0000      -0.701201       -19.0807
  36   2.0000      -0.685269       -18.6471
  37   2.0000      -0.664283       -18.0761
  38   2.0000      -0.633909       -17.2495
  39   2.0000      -0.626444       -17.0464
  40   2.0000      -0.606146       -16.4941
  41   2.0000      -0.567211       -15.4346
  42   2.0000      -0.559660       -15.2291
  43   2.0000      -0.548434       -14.9236
  44   2.0000      -0.537581       -14.6283
  45   2.0000      -0.524828       -14.2813
  46   2.0000      -0.517553       -14.0833
  47   2.0000      -0.511337       -13.9142
  48   2.0000      -0.504673       -13.7329
  49   2.0000      -0.499056       -13.5800
  50   2.0000      -0.498321       -13.5600
  51   2.0000      -0.481299       -13.0968
  52   2.0000      -0.474111       -12.9012
  53   2.0000      -0.467841       -12.7306
  54   2.0000      -0.460612       -12.5339
  55   2.0000      -0.450982       -12.2718
  56   2.0000      -0.439841       -11.9687
  57   2.0000      -0.435679       -11.8554
  58   2.0000      -0.428113       -11.6495
  59   2.0000      -0.423701       -11.5295
  60   2.0000      -0.419414       -11.4128
  61   2.0000      -0.416476       -11.3329
  62   2.0000      -0.404647       -11.0110
  63   2.0000      -0.360634        -9.8133
  64   2.0000      -0.328567        -8.9408
  65   2.0000      -0.326560        -8.8861
  66   2.0000      -0.287572        -7.8252
  67   0.0000       0.028890         0.7861
  68   0.0000       0.084258         2.2928
  69   0.0000       0.119240         3.2447
  70   0.0000       0.122975         3.3463
  71   0.0000       0.128370         3.4931

MULLIKEN ATOMIC CHARGES
-----------------------
   0 S :    0.099279
   1 C :   -0.102760
   2 C :   -0.122548
   3 C :   -0.018078
   4 C :   -0.091682
   5 H :    0.019312
   6 C :    0.089061
   7 H :    0.024795
   8 H :    0.031830
   9 C :   -0.075298
  10 H :    0.012216
  11 H :    0.047960
  12 C :   -0.042038
  13 H :    0.031215
  14 H :    0.022119
  15 H :    0.032608
  16 S :    0.104376
  17 C :   -0.100825
  18 C :   -0.027872
  19 C :   -0.011968
  20 C :   -0.125484
  21 H :    0.005358
  22 C :    0.056303
  23 H :    0.026151
  24 H :    0.000793
  25 C :   -0.133114
  26 H :    0.039824
  27 H :    0.030813
  28 C :   -0.023664
  29 H :    0.034726
  30 H :    0.034059
  31 H :    0.016432
  32 H :    0.040932
  33 H :    0.075170
Sum of atomic charges:    0.0000000

LOEWDIN ATOMIC CHARGES
----------------------
   0 S :    0.425821
   1 C :   -0.216018
   2 C :   -0.058414
   3 C :   -0.080588
   4 C :   -0.195392
   5 H :    0.029196
   6 C :   -0.017486
   7 H :    0.031482
   8 H :    0.027286
   9 C :   -0.040650
  10 H :    0.015943
  11 H :    0.037438
  12 C :   -0.070406
  13 H :    0.016199
  14 H :    0.024959
  15 H :    0.031739
  16 S :    0.452384
  17 C :   -0.212355
  18 C :   -0.064349
  19 C :   -0.055554
  20 C :   -0.199797
  21 H :    0.025424
  22 C :   -0.046921
  23 H :    0.043382
  24 H :    0.013182
  25 C :   -0.036114
  26 H :    0.028913
  27 H :    0.019848
  28 C :   -0.064754
  29 H :    0.024369
  30 H :    0.022361
  31 H :    0.018517
  32 H :    0.025487
  33 H :    0.044869

  Mayer bond orders larger than 0.100000
B(  0-S ,  1-C ) :   1.1480 B(  0-S ,  4-C ) :   1.1365 B(  1-C ,  2-C ) :   1.6117
B(  1-C , 32-H ) :   0.9663 B(  2-C ,  3-C ) :   1.2537 B(  2-C ,  6-C ) :   1.0204
B(  3-C ,  4-C ) :   1.5792 B(  3-C ,  5-H ) :   0.9871 B(  4-C , 20-C ) :   1.0312
B(  6-C ,  7-H ) :   0.9461 B(  6-C ,  8-H ) :   0.9474 B(  6-C ,  9-C ) :   1.0259
B(  9-C , 10-H ) :   0.9544 B(  9-C , 11-H ) :   0.9646 B(  9-C , 12-C ) :   1.0944
B( 12-C , 13-H ) :   0.9769 B( 12-C , 14-H ) :   0.9713 B( 12-C , 15-H ) :   0.9716
B( 16-S , 17-C ) :   1.1598 B( 16-S , 20-C ) :   1.1740 B( 17-C , 18-C ) :   1.6127
B( 17-C , 33-H ) :   0.9605 B( 18-C , 19-C ) :   1.2324 B( 18-C , 21-H ) :   0.9947
B( 19-C , 20-C ) :   1.5364 B( 19-C , 22-C ) :   1.0840 B( 22-C , 23-H ) :   0.9195
B( 22-C , 24-H ) :   0.9321 B( 22-C , 25-C ) :   1.0635 B( 25-C , 26-H ) :   0.9573
B( 25-C , 27-H ) :   0.9565 B( 25-C , 28-C ) :   1.0725 B( 28-C , 29-H ) :   0.9759
B( 28-C , 30-H ) :   0.9747 B( 28-C , 31-H ) :   0.9722

Dispersion correction           -0.014598692
FINAL SINGLE POINT ENERGY     -1339.867594052512

DIPOLE MOMENT
-------------
                                X             Y             Z
Electronic contribution:    -12.97324      13.59893       5.42631
Nuclear contribution   :     13.10752     -13.75708      -5.45370
                        -----------------------------------------
Total Dipole Moment    :      0.13428      -0.15814      -0.02739
                        -----------------------------------------
Magnitude (a.u.)       :      0.20926
Magnitude (Debye)      :      0.53190

Rotational constants in cm-1:     0.021230     0.007982     0.007042
Rotational constants in MHz :   636.451864   239.301005   211.112366

                             ****ORCA TERMINATED NORMALLY****
TOTAL RUN TIME: 0 days 0 hours 0 minutes 32 seconds 758 msec
