                         Program Version 4.2.1 -  RELEASE  -
|  1> ! wB97X-D3 SP def2-SVP
|  2> %pal
|  3> nprocs 16
|  4> end
|  5>
|  6> * xyz 0 1
|  7> S 	 -54.4517 	 38.2922 	 115.942
|  8> C 	 -54.4079 	 36.5712 	 116.269
|  9> C 	 -55.3476 	 35.9178 	 115.392
| 10> C 	 -55.9314 	 36.799 	 114.341
| 11> C 	 -55.6366 	 38.1443 	 114.615
| 12> H 	 -56.5676 	 36.5332 	 113.484
| 13> C 	 -55.6917 	 34.4503 	 115.434
| 14> H 	 -56.7594 	 34.3571 	 115.411
| 15> H 	 -55.2568 	 34.0969 	 116.393
| 16> C 	 -55.2559 	 33.5745 	 114.213
| 17> H 	 -55.799 	 32.6063 	 114.399
| 18> H 	 -55.7602 	 33.8845 	 113.345
| 19> C 	 -53.7369 	 33.3159 	 113.896
| 20> H 	 -53.2187 	 34.1778 	 113.619
| 21> H 	 -53.2769 	 33.1105 	 114.86
| 22> H 	 -53.7346 	 32.4757 	 113.25
| 23> S 	 -57.6257 	 39.8039 	 113.685
| 24> C 	 -57.2146 	 41.1347 	 112.627
| 25> C 	 -55.8601 	 41.1086 	 112.318
| 26> C 	 -55.1416 	 39.9688 	 112.878
| 27> C 	 -55.9525 	 39.2257 	 113.699
| 28> H 	 -55.4151 	 41.9026 	 111.694
| 29> C 	 -53.6216 	 39.887 	 112.803
| 30> H 	 -53.2814 	 38.8758 	 112.931
| 31> H 	 -53.1856 	 40.3481 	 113.686
| 32> C 	 -52.9982 	 40.3884 	 111.486
| 33> H 	 -51.9602 	 40.1796 	 111.572
| 34> H 	 -53.1523 	 41.434 	 111.35
| 35> C 	 -53.5766 	 39.6806 	 110.296
| 36> H 	 -53.5072 	 38.5776 	 110.327
| 37> H 	 -53.0198 	 39.8182 	 109.362
| 38> H 	 -54.6389 	 40.0015 	 110.019
| 39> H 	 -53.7072 	 35.9857 	 116.952
| 40> H 	 -57.799 	 41.9994 	 112.321
| 41> *
| 42>
| 43>                          ****END OF INPUT****

CARTESIAN COORDINATES (ANGSTROEM)
---------------------------------
  S    -54.451700   38.292200  115.942000
  C    -54.407900   36.571200  116.269000
  C    -55.347600   35.917800  115.392000
  C    -55.931400   36.799000  114.341000
  C    -55.636600   38.144300  114.615000
  H    -56.567600   36.533200  113.484000
  C    -55.691700   34.450300  115.434000
  H    -56.759400   34.357100  115.411000
  H    -55.256800   34.096900  116.393000
  C    -55.255900   33.574500  114.213000
  H    -55.799000   32.606300  114.399000
  H    -55.760200   33.884500  113.345000
  C    -53.736900   33.315900  113.896000
  H    -53.218700   34.177800  113.619000
  H    -53.276900   33.110500  114.860000
  H    -53.734600   32.475700  113.250000
  S    -57.625700   39.803900  113.685000
  C    -57.214600   41.134700  112.627000
  C    -55.860100   41.108600  112.318000
  C    -55.141600   39.968800  112.878000
  C    -55.952500   39.225700  113.699000
  H    -55.415100   41.902600  111.694000
  C    -53.621600   39.887000  112.803000
  H    -53.281400   38.875800  112.931000
  H    -53.185600   40.348100  113.686000
  C    -52.998200   40.388400  111.486000
  H    -51.960200   40.179600  111.572000
  H    -53.152300   41.434000  111.350000
  C    -53.576600   39.680600  110.296000
  H    -53.507200   38.577600  110.327000
  H    -53.019800   39.818200  109.362000
  H    -54.638900   40.001500  110.019000
  H    -53.707200   35.985700  116.952000
  H    -57.799000   41.999400  112.321000

 Total Charge           Charge          ....    0
 Multiplicity           Mult            ....    1
 Number of Electrons    NEL             ....  134
 Basis Dimension        Dim             ....  322

ORBITAL ENERGIES
----------------

  NO   OCC          E(Eh)            E(eV)
   0   2.0000     -88.969998     -2420.9967
   1   2.0000     -88.965020     -2420.8613
   2   2.0000     -10.333000      -281.1752
   3   2.0000     -10.328951      -281.0651
   4   2.0000     -10.323808      -280.9251
   5   2.0000     -10.318346      -280.7765
   6   2.0000     -10.312177      -280.6086
   7   2.0000     -10.305259      -280.4204
   8   2.0000     -10.304168      -280.3907
   9   2.0000     -10.297118      -280.1988
  10   2.0000     -10.293465      -280.0994
  11   2.0000     -10.288833      -279.9734
  12   2.0000     -10.287470      -279.9363
  13   2.0000     -10.281313      -279.7688
  14   2.0000     -10.278495      -279.6921
  15   2.0000     -10.273252      -279.5494
  16   2.0000      -8.083334      -219.9587
  17   2.0000      -8.079363      -219.8506
  18   2.0000      -6.042020      -164.4117
  19   2.0000      -6.037972      -164.3016
  20   2.0000      -6.037891      -164.2994
  21   2.0000      -6.034119      -164.1967
  22   2.0000      -6.033914      -164.1912
  23   2.0000      -6.030036      -164.0856
  24   2.0000      -0.998806       -27.1789
  25   2.0000      -0.972917       -26.4744
  26   2.0000      -0.911309       -24.7980
  27   2.0000      -0.903663       -24.5899
  28   2.0000      -0.866935       -23.5905
  29   2.0000      -0.845019       -22.9941
  30   2.0000      -0.841098       -22.8874
  31   2.0000      -0.811326       -22.0773
  32   2.0000      -0.782589       -21.2953
  33   2.0000      -0.772182       -21.0121
  34   2.0000      -0.708773       -19.2867
  35   2.0000      -0.700673       -19.0663
  36   2.0000      -0.690117       -18.7790
  37   2.0000      -0.654842       -17.8192
  38   2.0000      -0.633714       -17.2442
  39   2.0000      -0.610558       -16.6141
  40   2.0000      -0.598747       -16.2927
  41   2.0000      -0.561395       -15.2763
  42   2.0000      -0.552861       -15.0441
  43   2.0000      -0.548998       -14.9390
  44   2.0000      -0.542828       -14.7711
  45   2.0000      -0.537637       -14.6298
  46   2.0000      -0.518235       -14.1019
  47   2.0000      -0.515716       -14.0333
  48   2.0000      -0.501697       -13.6519
  49   2.0000      -0.493626       -13.4322
  50   2.0000      -0.487160       -13.2563
  51   2.0000      -0.477102       -12.9826
  52   2.0000      -0.465902       -12.6778
  53   2.0000      -0.462503       -12.5853
  54   2.0000      -0.453148       -12.3308
  55   2.0000      -0.450317       -12.2537
  56   2.0000      -0.439667       -11.9639
  57   2.0000      -0.437728       -11.9112
  58   2.0000      -0.433499       -11.7961
  59   2.0000      -0.424121       -11.5409
  60   2.0000      -0.420618       -11.4456
  61   2.0000      -0.414389       -11.2761
  62   2.0000      -0.408328       -11.1112
  63   2.0000      -0.338418        -9.2088
  64   2.0000      -0.328822        -8.9477
  65   2.0000      -0.316789        -8.6203
  66   2.0000      -0.302047        -8.2191
  67   0.0000       0.033855         0.9212
  68   0.0000       0.059622         1.6224
  69   0.0000       0.104570         2.8455
  70   0.0000       0.117612         3.2004
  71   0.0000       0.125342         3.4107

MULLIKEN ATOMIC CHARGES
-----------------------
   0 S :    0.111628
   1 C :   -0.144247
   2 C :   -0.112172
   3 C :    0.022912
   4 C :   -0.149664
   5 H :    0.041471
   6 C :    0.072259
   7 H :    0.031153
   8 H :    0.020374
   9 C :   -0.112040
  10 H :    0.026669
  11 H :    0.012412
  12 C :    0.011360
  13 H :    0.029988
  14 H :    0.012493
  15 H :    0.039326
  16 S :    0.111182
  17 C :   -0.084988
  18 C :   -0.071388
  19 C :   -0.014902
  20 C :   -0.191214
  21 H :    0.032133
  22 C :    0.072058
  23 H :    0.016819
  24 H :    0.040229
  25 C :   -0.027992
  26 H :    0.024503
  27 H :    0.025954
  28 C :   -0.091192
  29 H :    0.028219
  30 H :    0.023797
  31 H :    0.048971
  32 H :    0.084270
  33 H :    0.059619
Sum of atomic charges:    0.0000000

LOEWDIN ATOMIC CHARGES
----------------------
   0 S :    0.397462
   1 C :   -0.225068
   2 C :   -0.060709
   3 C :   -0.054251
   4 C :   -0.192346
   5 H :    0.039980
   6 C :   -0.035869
   7 H :    0.034265
   8 H :    0.029924
   9 C :   -0.040138
  10 H :    0.028982
  11 H :    0.011762
  12 C :   -0.053267
  13 H :    0.019910
  14 H :    0.024894
  15 H :    0.026819
  16 S :    0.399206
  17 C :   -0.192398
  18 C :   -0.074107
  19 C :   -0.051014
  20 C :   -0.198847
  21 H :    0.033290
  22 C :   -0.031491
  23 H :    0.028133
  24 H :    0.033617
  25 C :   -0.037630
  26 H :    0.026128
  27 H :    0.019126
  28 C :   -0.078343
  29 H :    0.026970
  30 H :    0.025051
  31 H :    0.034176
  32 H :    0.049932
  33 H :    0.035852

  Mayer bond orders larger than 0.100000
B(  0-S ,  1-C ) :   1.1326 B(  0-S ,  4-C ) :   1.1335 B(  1-C ,  2-C ) :   1.5994
B(  1-C , 32-H ) :   0.9574 B(  2-C ,  3-C ) :   1.2086 B(  2-C ,  6-C ) :   1.0452
B(  3-C ,  4-C ) :   1.5961 B(  3-C ,  5-H ) :   0.9830 B(  4-C , 20-C ) :   1.0166
B(  6-C ,  7-H ) :   0.9332 B(  6-C ,  8-H ) :   0.9425 B(  6-C ,  9-C ) :   1.0749
B(  9-C , 10-H ) :   0.9570 B(  9-C , 11-H ) :   0.9542 B(  9-C , 12-C ) :   1.0591
B( 12-C , 13-H ) :   0.9767 B( 12-C , 14-H ) :   0.9753 B( 12-C , 15-H ) :   0.9755
B( 16-S , 17-C ) :   1.1424 B( 16-S , 20-C ) :   1.1317 B( 17-C , 18-C ) :   1.6437
B( 17-C , 33-H ) :   0.9629 B( 18-C , 19-C ) :   1.2063 B( 18-C , 21-H ) :   0.9774
B( 19-C , 20-C ) :   1.6267 B( 19-C , 22-C ) :   1.0387 B( 22-C , 23-H ) :   0.9260
B( 22-C , 24-H ) :   0.9353 B( 22-C , 25-C ) :   1.0800 B( 25-C , 26-H ) :   0.9511
B( 25-C , 27-H ) :   0.9495 B( 25-C , 28-C ) :   1.0880 B( 28-C , 29-H ) :   0.9725
B( 28-C , 30-H ) :   0.9712 B( 28-C , 31-H ) :   0.9681

Dispersion correction           -0.014665857
FINAL SINGLE POINT ENERGY     -1339.863603322792

DIPOLE MOMENT
-------------
                                X             Y             Z
Electronic contribution:    -13.14249      14.70613      13.40442
Nuclear contribution   :     13.50693     -14.96596     -13.74409
                        -----------------------------------------
Total Dipole Moment    :      0.36444      -0.25983      -0.33967
                        -----------------------------------------
Magnitude (a.u.)       :      0.56187
Magnitude (Debye)      :      1.42817

Rotational constants in cm-1:     0.019150     0.008136     0.007179
Rotational constants in MHz :   574.099265   243.897858   215.231710

                             ****ORCA TERMINATED NORMALLY****
TOTAL RUN TIME: 0 days 0 hours 0 minutes 31 seconds 100 msec
