                         Program Version 4.2.1 -  RELEASE  -
|  1> ! wB97X-D3 SP def2-SVP
|  2> %pal
|  3> nprocs 16
|  4> end
|  5>
|  6> * xyz 0 1
|  7> S 	 16.5756 	 9.35944 	 88.1306
|  8> C 	 17.6732 	 9.76505 	 86.85
|  9> C 	 17.215 	 10.8918 	 86.1432
| 10> C 	 16.0795 	 11.4658 	 86.8167
| 11> C 	 15.5941 	 10.7765 	 87.8966
| 12> H 	 15.6526 	 12.3858 	 86.3413
| 13> C 	 17.9924 	 11.5645 	 85.0143
| 14> H 	 17.5935 	 12.4982 	 84.8318
| 15> H 	 17.7533 	 11.1892 	 84.0066
| 16> C 	 19.5332 	 11.7898 	 85.1762
| 17> H 	 19.9942 	 10.8015 	 85.2027
| 18> H 	 19.8877 	 12.332 	 84.3187
| 19> C 	 19.8862 	 12.5517 	 86.4797
| 20> H 	 20.9462 	 12.5516 	 86.5554
| 21> H 	 19.4473 	 13.5228 	 86.378
| 22> H 	 19.451 	 12.176 	 87.4702
| 23> S 	 14.4206 	 12.5343 	 89.6544
| 24> C 	 12.9445 	 12.1539 	 90.5734
| 25> C 	 12.3563 	 11.0242 	 89.9642
| 26> C 	 13.156 	 10.4119 	 88.9488
| 27> C 	 14.4154 	 11.0893 	 88.7393
| 28> H 	 11.3204 	 10.8263 	 90.3268
| 29> C 	 12.6833 	 9.22678 	 88.119
| 30> H 	 13.3726 	 9.15248 	 87.2256
| 31> H 	 11.6221 	 9.41806 	 87.8545
| 32> C 	 12.7964 	 7.83062 	 88.885
| 33> H 	 13.8687 	 7.83218 	 89.3144
| 34> H 	 12.7063 	 7.01944 	 88.114
| 35> C 	 11.8006 	 7.73476 	 90.0799
| 36> H 	 11.9171 	 8.56484 	 90.7553
| 37> H 	 11.9671 	 6.93992 	 90.8039
| 38> H 	 10.7672 	 7.7083 	 89.791
| 39> H 	 18.4753 	 9.15844 	 86.5703
| 40> H 	 12.4712 	 12.7874 	 91.2655
| 41> *
| 42>
| 43>                          ****END OF INPUT****

CARTESIAN COORDINATES (ANGSTROEM)
---------------------------------
  S     16.575600    9.359440   88.130600
  C     17.673200    9.765050   86.850000
  C     17.215000   10.891800   86.143200
  C     16.079500   11.465800   86.816700
  C     15.594100   10.776500   87.896600
  H     15.652600   12.385800   86.341300
  C     17.992400   11.564500   85.014300
  H     17.593500   12.498200   84.831800
  H     17.753300   11.189200   84.006600
  C     19.533200   11.789800   85.176200
  H     19.994200   10.801500   85.202700
  H     19.887700   12.332000   84.318700
  C     19.886200   12.551700   86.479700
  H     20.946200   12.551600   86.555400
  H     19.447300   13.522800   86.378000
  H     19.451000   12.176000   87.470200
  S     14.420600   12.534300   89.654400
  C     12.944500   12.153900   90.573400
  C     12.356300   11.024200   89.964200
  C     13.156000   10.411900   88.948800
  C     14.415400   11.089300   88.739300
  H     11.320400   10.826300   90.326800
  C     12.683300    9.226780   88.119000
  H     13.372600    9.152480   87.225600
  H     11.622100    9.418060   87.854500
  C     12.796400    7.830620   88.885000
  H     13.868700    7.832180   89.314400
  H     12.706300    7.019440   88.114000
  C     11.800600    7.734760   90.079900
  H     11.917100    8.564840   90.755300
  H     11.967100    6.939920   90.803900
  H     10.767200    7.708300   89.791000
  H     18.475300    9.158440   86.570300
  H     12.471200   12.787400   91.265500

 Total Charge           Charge          ....    0
 Multiplicity           Mult            ....    1
 Number of Electrons    NEL             ....  134
 Basis Dimension        Dim             ....  322

ORBITAL ENERGIES
----------------

  NO   OCC          E(Eh)            E(eV)
   0   2.0000     -88.969621     -2420.9865
   1   2.0000     -88.966134     -2420.8916
   2   2.0000     -10.334246      -281.2091
   3   2.0000     -10.333450      -281.1875
   4   2.0000     -10.319458      -280.8067
   5   2.0000     -10.314826      -280.6807
   6   2.0000     -10.310625      -280.5664
   7   2.0000     -10.306122      -280.4438
   8   2.0000     -10.302362      -280.3415
   9   2.0000     -10.299929      -280.2753
  10   2.0000     -10.298522      -280.2370
  11   2.0000     -10.297766      -280.2164
  12   2.0000     -10.290857      -280.0285
  13   2.0000     -10.289468      -279.9907
  14   2.0000     -10.275884      -279.6210
  15   2.0000     -10.271706      -279.5073
  16   2.0000      -8.084374      -219.9870
  17   2.0000      -8.080729      -219.8878
  18   2.0000      -6.042792      -164.4327
  19   2.0000      -6.039115      -164.3327
  20   2.0000      -6.038750      -164.3227
  21   2.0000      -6.035346      -164.2301
  22   2.0000      -6.035058      -164.2223
  23   2.0000      -6.031809      -164.1339
  24   2.0000      -1.005731       -27.3673
  25   2.0000      -0.982908       -26.7463
  26   2.0000      -0.908288       -24.7158
  27   2.0000      -0.895345       -24.3636
  28   2.0000      -0.866837       -23.5878
  29   2.0000      -0.847217       -23.0539
  30   2.0000      -0.836620       -22.7656
  31   2.0000      -0.815190       -22.1824
  32   2.0000      -0.784957       -21.3598
  33   2.0000      -0.769768       -20.9465
  34   2.0000      -0.706505       -19.2250
  35   2.0000      -0.702779       -19.1236
  36   2.0000      -0.687149       -18.6983
  37   2.0000      -0.658771       -17.9261
  38   2.0000      -0.641858       -17.4658
  39   2.0000      -0.615796       -16.7567
  40   2.0000      -0.587784       -15.9944
  41   2.0000      -0.576745       -15.6940
  42   2.0000      -0.551607       -15.0100
  43   2.0000      -0.549030       -14.9399
  44   2.0000      -0.545227       -14.8364
  45   2.0000      -0.529727       -14.4146
  46   2.0000      -0.511138       -13.9088
  47   2.0000      -0.508204       -13.8289
  48   2.0000      -0.500344       -13.6151
  49   2.0000      -0.498151       -13.5554
  50   2.0000      -0.492178       -13.3928
  51   2.0000      -0.479212       -13.0400
  52   2.0000      -0.470582       -12.8052
  53   2.0000      -0.462747       -12.5920
  54   2.0000      -0.461398       -12.5553
  55   2.0000      -0.443424       -12.0662
  56   2.0000      -0.433598       -11.7988
  57   2.0000      -0.428887       -11.6706
  58   2.0000      -0.427394       -11.6300
  59   2.0000      -0.425460       -11.5773
  60   2.0000      -0.418493       -11.3878
  61   2.0000      -0.415695       -11.3116
  62   2.0000      -0.413059       -11.2399
  63   2.0000      -0.343686        -9.3522
  64   2.0000      -0.333392        -9.0721
  65   2.0000      -0.322067        -8.7639
  66   2.0000      -0.297826        -8.1043
  67   0.0000       0.032755         0.8913
  68   0.0000       0.056966         1.5501
  69   0.0000       0.100359         2.7309
  70   0.0000       0.123078         3.3491
  71   0.0000       0.129539         3.5249

MULLIKEN ATOMIC CHARGES
-----------------------
   0 S :    0.124457
   1 C :   -0.110036
   2 C :   -0.107840
   3 C :    0.023718
   4 C :   -0.147420
   5 H :    0.027450
   6 C :    0.094643
   7 H :   -0.022181
   8 H :    0.028750
   9 C :   -0.073656
  10 H :    0.029463
  11 H :    0.032360
  12 C :   -0.058048
  13 H :    0.034887
  14 H :    0.023462
  15 H :    0.055536
  16 S :    0.114957
  17 C :   -0.097365
  18 C :   -0.059905
  19 C :   -0.026819
  20 C :   -0.159915
  21 H :    0.044353
  22 C :    0.027283
  23 H :    0.046585
  24 H :    0.039692
  25 C :   -0.085078
  26 H :    0.036640
  27 H :    0.047317
  28 C :   -0.037996
  29 H :    0.018425
  30 H :    0.028370
  31 H :    0.024659
  32 H :    0.036582
  33 H :    0.046672
Sum of atomic charges:   -0.0000000

LOEWDIN ATOMIC CHARGES
----------------------
   0 S :    0.430360
   1 C :   -0.186731
   2 C :   -0.062045
   3 C :   -0.066297
   4 C :   -0.209801
   5 H :    0.038864
   6 C :   -0.038704
   7 H :    0.016195
   8 H :    0.036510
   9 C :   -0.030710
  10 H :    0.018658
  11 H :    0.026108
  12 C :   -0.066786
  13 H :    0.021394
  14 H :    0.020805
  15 H :    0.038181
  16 S :    0.426744
  17 C :   -0.181235
  18 C :   -0.077316
  19 C :   -0.060631
  20 C :   -0.216836
  21 H :    0.040653
  22 C :   -0.037818
  23 H :    0.037422
  24 H :    0.033185
  25 C :   -0.040989
  26 H :    0.029495
  27 H :    0.026871
  28 C :   -0.075399
  29 H :    0.024410
  30 H :    0.027906
  31 H :    0.020031
  32 H :    0.016755
  33 H :    0.020747

  Mayer bond orders larger than 0.100000
B(  0-S ,  1-C ) :   1.1662 B(  0-S ,  4-C ) :   1.1566 B(  1-C ,  2-C ) :   1.5681
B(  1-C , 32-H ) :   0.9788 B(  2-C ,  3-C ) :   1.2875 B(  2-C ,  6-C ) :   1.0238
B(  3-C ,  4-C ) :   1.5570 B(  3-C ,  5-H ) :   0.9842 B(  4-C , 20-C ) :   1.0082
B(  6-C ,  7-H ) :   0.9307 B(  6-C ,  8-H ) :   0.9265 B(  6-C ,  9-C ) :   1.0744
B(  9-C , 10-H ) :   0.9582 B(  9-C , 11-H ) :   0.9537 B(  9-C , 12-C ) :   1.0713
B( 12-C , 13-H ) :   0.9759 B( 12-C , 14-H ) :   0.9771 B( 12-C , 15-H ) :   0.9739
B( 16-S , 17-C ) :   1.1690 B( 16-S , 20-C ) :   1.1832 B( 17-C , 18-C ) :   1.5652
B( 17-C , 20-C ) :   0.1177 B( 17-C , 33-H ) :   0.9753 B( 18-C , 19-C ) :   1.2741
B( 18-C , 21-H ) :   0.9781 B( 19-C , 20-C ) :   1.5190 B( 19-C , 22-C ) :   1.0458
B( 22-C , 23-H ) :   0.9344 B( 22-C , 24-H ) :   0.9425 B( 22-C , 25-C ) :   1.0528
B( 25-C , 26-H ) :   0.9527 B( 25-C , 27-H ) :   0.9619 B( 25-C , 28-C ) :   1.0656
B( 28-C , 29-H ) :   0.9667 B( 28-C , 30-H ) :   0.9717 B( 28-C , 31-H ) :   0.9778

Dispersion correction           -0.014939576
FINAL SINGLE POINT ENERGY     -1339.866935687666

DIPOLE MOMENT
-------------
                                X             Y             Z
Electronic contribution:     -2.59053       4.94218       7.63103
Nuclear contribution   :      2.51420      -4.84083      -8.01336
                        -----------------------------------------
Total Dipole Moment    :     -0.07633       0.10135      -0.38233
                        -----------------------------------------
Magnitude (a.u.)       :      0.40283
Magnitude (Debye)      :      1.02391

Rotational constants in cm-1:     0.025705     0.007441     0.006300
Rotational constants in MHz :   770.608377   223.065948   188.872030

                             ****ORCA TERMINATED NORMALLY****
TOTAL RUN TIME: 0 days 0 hours 0 minutes 34 seconds 114 msec
