                         Program Version 4.2.1 -  RELEASE  -
|  1> ! wB97X-D3 SP def2-SVP
|  2> %pal
|  3> nprocs 16
|  4> end
|  5>
|  6> * xyz 0 1
|  7> S 	 -93.8678 	 56.1715 	 132.783
|  8> C 	 -92.594 	 57.2553 	 132.469
|  9> C 	 -93.056 	 58.5415 	 132.169
| 10> C 	 -94.49 	 58.6695 	 132.383
| 11> C 	 -95.0942 	 57.4121 	 132.441
| 12> H 	 -95.0028 	 59.4949 	 131.986
| 13> C 	 -92.1741 	 59.7219 	 131.815
| 14> H 	 -92.7499 	 60.103 	 130.986
| 15> H 	 -91.2061 	 59.3942 	 131.547
| 16> C 	 -91.9134 	 60.7517 	 132.892
| 17> H 	 -92.8312 	 61.2618 	 133.245
| 18> H 	 -91.5049 	 60.3367 	 133.791
| 19> C 	 -90.9377 	 61.8823 	 132.436
| 20> H 	 -90.8214 	 62.5719 	 133.214
| 21> H 	 -90.0453 	 61.3392 	 132.159
| 22> H 	 -91.2079 	 62.3908 	 131.54
| 23> S 	 -97.3977 	 57.3969 	 134.055
| 24> C 	 -98.8805 	 57.3157 	 133.194
| 25> C 	 -98.7906 	 57.0604 	 131.831
| 26> C 	 -97.4065 	 57.1384 	 131.405
| 27> C 	 -96.5081 	 57.2046 	 132.514
| 28> H 	 -99.7263 	 57.0659 	 131.247
| 29> C 	 -96.983 	 56.9262 	 129.971
| 30> H 	 -97.8037 	 56.3503 	 129.569
| 31> H 	 -96.113 	 56.2326 	 129.928
| 32> C 	 -96.8046 	 58.222 	 129.199
| 33> H 	 -95.8313 	 58.5979 	 129.17
| 34> H 	 -97.3159 	 59.0932 	 129.682
| 35> C 	 -97.3468 	 58.0688 	 127.841
| 36> H 	 -98.1809 	 57.4507 	 127.655
| 37> H 	 -96.5351 	 57.7935 	 127.213
| 38> H 	 -97.6184 	 59.0097 	 127.474
| 39> H 	 -91.5308 	 56.9802 	 132.586
| 40> H 	 -99.8083 	 57.6871 	 133.517
| 41> *
| 42>
| 43>                          ****END OF INPUT****

CARTESIAN COORDINATES (ANGSTROEM)
---------------------------------
  S    -93.867800   56.171500  132.783000
  C    -92.594000   57.255300  132.469000
  C    -93.056000   58.541500  132.169000
  C    -94.490000   58.669500  132.383000
  C    -95.094200   57.412100  132.441000
  H    -95.002800   59.494900  131.986000
  C    -92.174100   59.721900  131.815000
  H    -92.749900   60.103000  130.986000
  H    -91.206100   59.394200  131.547000
  C    -91.913400   60.751700  132.892000
  H    -92.831200   61.261800  133.245000
  H    -91.504900   60.336700  133.791000
  C    -90.937700   61.882300  132.436000
  H    -90.821400   62.571900  133.214000
  H    -90.045300   61.339200  132.159000
  H    -91.207900   62.390800  131.540000
  S    -97.397700   57.396900  134.055000
  C    -98.880500   57.315700  133.194000
  C    -98.790600   57.060400  131.831000
  C    -97.406500   57.138400  131.405000
  C    -96.508100   57.204600  132.514000
  H    -99.726300   57.065900  131.247000
  C    -96.983000   56.926200  129.971000
  H    -97.803700   56.350300  129.569000
  H    -96.113000   56.232600  129.928000
  C    -96.804600   58.222000  129.199000
  H    -95.831300   58.597900  129.170000
  H    -97.315900   59.093200  129.682000
  C    -97.346800   58.068800  127.841000
  H    -98.180900   57.450700  127.655000
  H    -96.535100   57.793500  127.213000
  H    -97.618400   59.009700  127.474000
  H    -91.530800   56.980200  132.586000
  H    -99.808300   57.687100  133.517000

 Total Charge           Charge          ....    0
 Multiplicity           Mult            ....    1
 Number of Electrons    NEL             ....  134
 Basis Dimension        Dim             ....  322

ORBITAL ENERGIES
----------------

  NO   OCC          E(Eh)            E(eV)
   0   2.0000     -88.967250     -2420.9220
   1   2.0000     -88.964346     -2420.8429
   2   2.0000     -10.328477      -281.0521
   3   2.0000     -10.322944      -280.9016
   4   2.0000     -10.312655      -280.6216
   5   2.0000     -10.310536      -280.5640
   6   2.0000     -10.307927      -280.4930
   7   2.0000     -10.300656      -280.2951
   8   2.0000     -10.295479      -280.1542
   9   2.0000     -10.292396      -280.0703
  10   2.0000     -10.287478      -279.9365
  11   2.0000     -10.287121      -279.9268
  12   2.0000     -10.284108      -279.8448
  13   2.0000     -10.276491      -279.6375
  14   2.0000     -10.271202      -279.4936
  15   2.0000     -10.259184      -279.1666
  16   2.0000      -8.081751      -219.9156
  17   2.0000      -8.079549      -219.8557
  18   2.0000      -6.040164      -164.3612
  19   2.0000      -6.037966      -164.3014
  20   2.0000      -6.036358      -164.2576
  21   2.0000      -6.033863      -164.1898
  22   2.0000      -6.032562      -164.1544
  23   2.0000      -6.030498      -164.0982
  24   2.0000      -1.001081       -27.2408
  25   2.0000      -0.979344       -26.6493
  26   2.0000      -0.917790       -24.9743
  27   2.0000      -0.912757       -24.8374
  28   2.0000      -0.870149       -23.6779
  29   2.0000      -0.855514       -23.2797
  30   2.0000      -0.850291       -23.1376
  31   2.0000      -0.812852       -22.1188
  32   2.0000      -0.784634       -21.3510
  33   2.0000      -0.766067       -20.8457
  34   2.0000      -0.711403       -19.3583
  35   2.0000      -0.702544       -19.1172
  36   2.0000      -0.693080       -18.8597
  37   2.0000      -0.653450       -17.7813
  38   2.0000      -0.643633       -17.5142
  39   2.0000      -0.619627       -16.8609
  40   2.0000      -0.593239       -16.1429
  41   2.0000      -0.567654       -15.4466
  42   2.0000      -0.565735       -15.3944
  43   2.0000      -0.562530       -15.3072
  44   2.0000      -0.533366       -14.5136
  45   2.0000      -0.526985       -14.3400
  46   2.0000      -0.519471       -14.1355
  47   2.0000      -0.513466       -13.9721
  48   2.0000      -0.505051       -13.7431
  49   2.0000      -0.499427       -13.5901
  50   2.0000      -0.494221       -13.4484
  51   2.0000      -0.480398       -13.0723
  52   2.0000      -0.471131       -12.8201
  53   2.0000      -0.464281       -12.6337
  54   2.0000      -0.457697       -12.4546
  55   2.0000      -0.455768       -12.4021
  56   2.0000      -0.451264       -12.2795
  57   2.0000      -0.443458       -12.0671
  58   2.0000      -0.433148       -11.7866
  59   2.0000      -0.417682       -11.3657
  60   2.0000      -0.415565       -11.3081
  61   2.0000      -0.413066       -11.2401
  62   2.0000      -0.405755       -11.0412
  63   2.0000      -0.338574        -9.2131
  64   2.0000      -0.327854        -8.9214
  65   2.0000      -0.309576        -8.4240
  66   2.0000      -0.305222        -8.3055
  67   0.0000       0.041759         1.1363
  68   0.0000       0.045560         1.2398
  69   0.0000       0.112243         3.0543
  70   0.0000       0.118203         3.2165
  71   0.0000       0.130769         3.5584

MULLIKEN ATOMIC CHARGES
-----------------------
   0 S :    0.115781
   1 C :   -0.123128
   2 C :   -0.140445
   3 C :    0.086260
   4 C :   -0.197984
   5 H :    0.011051
   6 C :    0.111404
   7 H :    0.025577
   8 H :   -0.002208
   9 C :   -0.083447
  10 H :    0.022699
  11 H :    0.022605
  12 C :   -0.012307
  13 H :    0.031212
  14 H :    0.017437
  15 H :    0.019143
  16 S :    0.129246
  17 C :   -0.074680
  18 C :   -0.046840
  19 C :   -0.062388
  20 C :   -0.159252
  21 H :    0.034066
  22 C :    0.076818
  23 H :    0.019655
  24 H :    0.045570
  25 C :   -0.049634
  26 H :    0.014016
  27 H :    0.028345
  28 C :   -0.001072
  29 H :    0.022611
  30 H :    0.018130
  31 H :    0.001797
  32 H :    0.059733
  33 H :    0.040228
Sum of atomic charges:   -0.0000000

LOEWDIN ATOMIC CHARGES
----------------------
   0 S :    0.414668
   1 C :   -0.220811
   2 C :   -0.062585
   3 C :   -0.050105
   4 C :   -0.190813
   5 H :    0.024284
   6 C :   -0.028621
   7 H :    0.033523
   8 H :    0.022833
   9 C :   -0.036386
  10 H :    0.021531
  11 H :    0.021767
  12 C :   -0.054269
  13 H :    0.020609
  14 H :    0.022289
  15 H :    0.019815
  16 S :    0.410971
  17 C :   -0.188606
  18 C :   -0.080524
  19 C :   -0.035547
  20 C :   -0.210756
  21 H :    0.037743
  22 C :   -0.029671
  23 H :    0.029976
  24 H :    0.038868
  25 C :   -0.038941
  26 H :    0.019363
  27 H :    0.027652
  28 C :   -0.057260
  29 H :    0.019094
  30 H :    0.025738
  31 H :    0.019802
  32 H :    0.033684
  33 H :    0.020686

  Mayer bond orders larger than 0.100000
B(  0-S ,  1-C ) :   1.1537 B(  0-S ,  4-C ) :   1.1483 B(  1-C ,  2-C ) :   1.5971
B(  1-C , 32-H ) :   0.9637 B(  2-C ,  3-C ) :   1.2552 B(  2-C ,  6-C ) :   1.0296
B(  3-C ,  4-C ) :   1.5820 B(  3-C ,  5-H ) :   0.9750 B(  4-C , 20-C ) :   1.0522
B(  6-C ,  7-H ) :   0.9305 B(  6-C ,  8-H ) :   0.9382 B(  6-C ,  9-C ) :   1.0731
B(  9-C , 10-H ) :   0.9529 B(  9-C , 11-H ) :   0.9558 B(  9-C , 12-C ) :   1.0802
B( 12-C , 13-H ) :   0.9752 B( 12-C , 14-H ) :   0.9749 B( 12-C , 15-H ) :   0.9765
B( 16-S , 17-C ) :   1.1757 B( 16-S , 20-C ) :   1.1228 B( 17-C , 18-C ) :   1.6196
B( 17-C , 33-H ) :   0.9615 B( 18-C , 19-C ) :   1.2455 B( 18-C , 21-H ) :   0.9791
B( 19-C , 20-C ) :   1.5873 B( 19-C , 22-C ) :   1.0398 B( 22-C , 23-H ) :   0.9531
B( 22-C , 24-H ) :   0.9309 B( 22-C , 25-C ) :   1.0316 B( 25-C , 26-H ) :   0.9457
B( 25-C , 27-H ) :   0.9682 B( 25-C , 28-C ) :   1.0887 B( 28-C , 29-H ) :   0.9794
B( 28-C , 30-H ) :   0.9703 B( 28-C , 31-H ) :   0.9674

Dispersion correction           -0.014248383
FINAL SINGLE POINT ENERGY     -1339.844675480345

DIPOLE MOMENT
-------------
                                X             Y             Z
Electronic contribution:     -8.75074     -18.06544      18.24988
Nuclear contribution   :      8.79523      18.61509     -18.77135
                        -----------------------------------------
Total Dipole Moment    :      0.04449       0.54965      -0.52147
                        -----------------------------------------
Magnitude (a.u.)       :      0.75897
Magnitude (Debye)      :      1.92914

Rotational constants in cm-1:     0.017540     0.008049     0.006901
Rotational constants in MHz :   525.841210   241.317615   206.882076

                             ****ORCA TERMINATED NORMALLY****
TOTAL RUN TIME: 0 days 0 hours 0 minutes 35 seconds 205 msec
