                         Program Version 4.2.1 -  RELEASE  -
|  1> ! wB97X-D3 SP def2-SVP
|  2> %pal
|  3> nprocs 16
|  4> end
|  5>
|  6> * xyz 0 1
|  7> S 	 -48.4782 	 61.5869 	 130.795
|  8> C 	 -49.0125 	 59.9263 	 130.963
|  9> C 	 -48.2799 	 59.2333 	 131.879
| 10> C 	 -47.3706 	 60.1417 	 132.542
| 11> C 	 -47.2739 	 61.4299 	 132.049
| 12> H 	 -46.7507 	 60.0582 	 133.459
| 13> C 	 -48.4142 	 57.7919 	 132.327
| 14> H 	 -47.9052 	 57.0992 	 131.612
| 15> H 	 -49.4978 	 57.5344 	 132.316
| 16> C 	 -47.7645 	 57.3225 	 133.718
| 17> H 	 -47.7338 	 56.2357 	 133.783
| 18> H 	 -46.7831 	 57.6526 	 133.734
| 19> C 	 -48.3729 	 57.8907 	 134.976
| 20> H 	 -48.3499 	 58.9531 	 135.053
| 21> H 	 -49.4099 	 57.5597 	 135.121
| 22> H 	 -47.7236 	 57.6396 	 135.825
| 23> S 	 -45.4035 	 63.4745 	 131.61
| 24> C 	 -45.386 	 64.7623 	 132.791
| 25> C 	 -46.0371 	 64.4204 	 133.936
| 26> C 	 -46.7262 	 63.167 	 133.853
| 27> C 	 -46.6304 	 62.6031 	 132.603
| 28> H 	 -46.0893 	 65.1037 	 134.77
| 29> C 	 -47.4555 	 62.589 	 135.003
| 30> H 	 -48.3362 	 62.1285 	 134.609
| 31> H 	 -48.0221 	 63.405 	 135.518
| 32> C 	 -46.657 	 61.9451 	 136.158
| 33> H 	 -45.7598 	 62.5128 	 136.429
| 34> H 	 -46.3142 	 60.9172 	 135.822
| 35> C 	 -47.4437 	 61.7201 	 137.447
| 36> H 	 -46.8151 	 61.1097 	 138.144
| 37> H 	 -48.422 	 61.243 	 137.344
| 38> H 	 -47.5191 	 62.7715 	 137.837
| 39> H 	 -49.7851 	 59.4791 	 130.266
| 40> H 	 -44.8238 	 65.6301 	 132.657
| 41> *
| 42>
| 43>                          ****END OF INPUT****

CARTESIAN COORDINATES (ANGSTROEM)
---------------------------------
  S    -48.478200   61.586900  130.795000
  C    -49.012500   59.926300  130.963000
  C    -48.279900   59.233300  131.879000
  C    -47.370600   60.141700  132.542000
  C    -47.273900   61.429900  132.049000
  H    -46.750700   60.058200  133.459000
  C    -48.414200   57.791900  132.327000
  H    -47.905200   57.099200  131.612000
  H    -49.497800   57.534400  132.316000
  C    -47.764500   57.322500  133.718000
  H    -47.733800   56.235700  133.783000
  H    -46.783100   57.652600  133.734000
  C    -48.372900   57.890700  134.976000
  H    -48.349900   58.953100  135.053000
  H    -49.409900   57.559700  135.121000
  H    -47.723600   57.639600  135.825000
  S    -45.403500   63.474500  131.610000
  C    -45.386000   64.762300  132.791000
  C    -46.037100   64.420400  133.936000
  C    -46.726200   63.167000  133.853000
  C    -46.630400   62.603100  132.603000
  H    -46.089300   65.103700  134.770000
  C    -47.455500   62.589000  135.003000
  H    -48.336200   62.128500  134.609000
  H    -48.022100   63.405000  135.518000
  C    -46.657000   61.945100  136.158000
  H    -45.759800   62.512800  136.429000
  H    -46.314200   60.917200  135.822000
  C    -47.443700   61.720100  137.447000
  H    -46.815100   61.109700  138.144000
  H    -48.422000   61.243000  137.344000
  H    -47.519100   62.771500  137.837000
  H    -49.785100   59.479100  130.266000
  H    -44.823800   65.630100  132.657000

 Total Charge           Charge          ....    0
 Multiplicity           Mult            ....    1
 Number of Electrons    NEL             ....  134
 Basis Dimension        Dim             ....  322

ORBITAL ENERGIES
----------------

  NO   OCC          E(Eh)            E(eV)
   0   2.0000     -88.962636     -2420.7964
   1   2.0000     -88.961051     -2420.7533
   2   2.0000     -10.327549      -281.0269
   3   2.0000     -10.324310      -280.9388
   4   2.0000     -10.319749      -280.8147
   5   2.0000     -10.313032      -280.6319
   6   2.0000     -10.306707      -280.4598
   7   2.0000     -10.303173      -280.3636
   8   2.0000     -10.302752      -280.3521
   9   2.0000     -10.297338      -280.2048
  10   2.0000     -10.296682      -280.1870
  11   2.0000     -10.291461      -280.0449
  12   2.0000     -10.290725      -280.0249
  13   2.0000     -10.288261      -279.9578
  14   2.0000     -10.286756      -279.9169
  15   2.0000     -10.274724      -279.5895
  16   2.0000      -8.077054      -219.7878
  17   2.0000      -8.076121      -219.7624
  18   2.0000      -6.035577      -164.2364
  19   2.0000      -6.034655      -164.2113
  20   2.0000      -6.031787      -164.1333
  21   2.0000      -6.030459      -164.0971
  22   2.0000      -6.027643      -164.0205
  23   2.0000      -6.026928      -164.0011
  24   2.0000      -1.005994       -27.3745
  25   2.0000      -0.984590       -26.7921
  26   2.0000      -0.911319       -24.7982
  27   2.0000      -0.907061       -24.6824
  28   2.0000      -0.874246       -23.7894
  29   2.0000      -0.855189       -23.2709
  30   2.0000      -0.842678       -22.9304
  31   2.0000      -0.815218       -22.1832
  32   2.0000      -0.785508       -21.3748
  33   2.0000      -0.773954       -21.0604
  34   2.0000      -0.709806       -19.3148
  35   2.0000      -0.698359       -19.0033
  36   2.0000      -0.693614       -18.8742
  37   2.0000      -0.661780       -18.0079
  38   2.0000      -0.643443       -17.5090
  39   2.0000      -0.616060       -16.7638
  40   2.0000      -0.601665       -16.3721
  41   2.0000      -0.568332       -15.4651
  42   2.0000      -0.563617       -15.3368
  43   2.0000      -0.548667       -14.9300
  44   2.0000      -0.536064       -14.5870
  45   2.0000      -0.532289       -14.4843
  46   2.0000      -0.521964       -14.2034
  47   2.0000      -0.518031       -14.0963
  48   2.0000      -0.504820       -13.7369
  49   2.0000      -0.502224       -13.6662
  50   2.0000      -0.487932       -13.2773
  51   2.0000      -0.484948       -13.1961
  52   2.0000      -0.467398       -12.7185
  53   2.0000      -0.465898       -12.6777
  54   2.0000      -0.454419       -12.3654
  55   2.0000      -0.449868       -12.2415
  56   2.0000      -0.442463       -12.0400
  57   2.0000      -0.441227       -12.0064
  58   2.0000      -0.432207       -11.7609
  59   2.0000      -0.424963       -11.5638
  60   2.0000      -0.418205       -11.3799
  61   2.0000      -0.416651       -11.3376
  62   2.0000      -0.404897       -11.0178
  63   2.0000      -0.338000        -9.1974
  64   2.0000      -0.331594        -9.0231
  65   2.0000      -0.326119        -8.8742
  66   2.0000      -0.302493        -8.2313
  67   0.0000       0.034466         0.9379
  68   0.0000       0.064354         1.7512
  69   0.0000       0.109033         2.9669
  70   0.0000       0.115116         3.1325
  71   0.0000       0.129086         3.5126

MULLIKEN ATOMIC CHARGES
-----------------------
   0 S :    0.105127
   1 C :   -0.156874
   2 C :   -0.035513
   3 C :    0.002623
   4 C :   -0.165874
   5 H :    0.014081
   6 C :    0.027986
   7 H :    0.051465
   8 H :    0.036611
   9 C :   -0.052557
  10 H :    0.033230
  11 H :    0.014607
  12 C :   -0.044292
  13 H :    0.014647
  14 H :    0.035008
  15 H :    0.027493
  16 S :    0.097271
  17 C :   -0.060297
  18 C :   -0.023677
  19 C :   -0.001951
  20 C :   -0.184385
  21 H :    0.014091
  22 C :    0.058141
  23 H :    0.027894
  24 H :    0.002465
  25 C :   -0.064354
  26 H :    0.036139
  27 H :    0.026819
  28 C :   -0.075805
  29 H :    0.045526
  30 H :    0.047061
  31 H :    0.038811
  32 H :    0.072347
  33 H :    0.036138
Sum of atomic charges:    0.0000000

LOEWDIN ATOMIC CHARGES
----------------------
   0 S :    0.405867
   1 C :   -0.196339
   2 C :   -0.072630
   3 C :   -0.066338
   4 C :   -0.206871
   5 H :    0.034505
   6 C :   -0.035226
   7 H :    0.041048
   8 H :    0.033436
   9 C :   -0.034804
  10 H :    0.029264
  11 H :    0.014855
  12 C :   -0.067625
  13 H :    0.017796
  14 H :    0.025499
  15 H :    0.030245
  16 S :    0.378101
  17 C :   -0.164444
  18 C :   -0.068631
  19 C :   -0.049186
  20 C :   -0.186509
  21 H :    0.030818
  22 C :   -0.046982
  23 H :    0.033466
  24 H :    0.033566
  25 C :   -0.040185
  26 H :    0.029245
  27 H :    0.019417
  28 C :   -0.069525
  29 H :    0.033035
  30 H :    0.025628
  31 H :    0.030128
  32 H :    0.042145
  33 H :    0.017232

  Mayer bond orders larger than 0.100000
B(  0-S ,  1-C ) :   1.1519 B(  0-S ,  4-C ) :   1.1442 B(  1-C ,  2-C ) :   1.6207
B(  1-C , 32-H ) :   0.9611 B(  2-C ,  3-C ) :   1.2083 B(  2-C ,  6-C ) :   1.0041
B(  3-C ,  4-C ) :   1.6126 B(  3-C ,  5-H ) :   0.9863 B(  4-C , 20-C ) :   1.0262
B(  6-C ,  7-H ) :   0.9355 B(  6-C ,  8-H ) :   0.9488 B(  6-C ,  9-C ) :   1.0809
B(  9-C , 10-H ) :   0.9555 B(  9-C , 11-H ) :   0.9445 B(  9-C , 12-C ) :   1.0915
B( 12-C , 13-H ) :   0.9721 B( 12-C , 14-H ) :   0.9740 B( 12-C , 15-H ) :   0.9697
B( 16-S , 17-C ) :   1.1428 B( 16-S , 20-C ) :   1.1211 B( 17-C , 18-C ) :   1.6287
B( 17-C , 33-H ) :   0.9746 B( 18-C , 19-C ) :   1.2081 B( 18-C , 21-H ) :   0.9930
B( 19-C , 20-C ) :   1.6246 B( 19-C , 22-C ) :   1.0623 B( 22-C , 23-H ) :   0.9209
B( 22-C , 24-H ) :   0.9233 B( 22-C , 25-C ) :   1.0437 B( 25-C , 26-H ) :   0.9558
B( 25-C , 27-H ) :   0.9509 B( 25-C , 28-C ) :   1.0775 B( 28-C , 29-H ) :   0.9733
B( 28-C , 30-H ) :   0.9762 B( 28-C , 31-H ) :   0.9748

Dispersion correction           -0.015356660
FINAL SINGLE POINT ENERGY     -1339.871293831685

DIPOLE MOMENT
-------------
                                X             Y             Z
Electronic contribution:      5.01476      16.71526     -26.85229
Nuclear contribution   :     -5.10384     -16.99206      27.56775
                        -----------------------------------------
Total Dipole Moment    :     -0.08908      -0.27680       0.71546
                        -----------------------------------------
Magnitude (a.u.)       :      0.77230
Magnitude (Debye)      :      1.96302

Rotational constants in cm-1:     0.016120     0.010775     0.007173
Rotational constants in MHz :   483.278682   323.015854   215.034022

                             ****ORCA TERMINATED NORMALLY****
TOTAL RUN TIME: 0 days 0 hours 0 minutes 36 seconds 456 msec
