                         Program Version 4.2.1 -  RELEASE  -
|  1> ! wB97X-D3 SP def2-SVP
|  2> %pal
|  3> nprocs 16
|  4> end
|  5>
|  6> * xyz 0 1
|  7> S 	 -103.676 	 57.3863 	 117.207
|  8> C 	 -102.285 	 56.3481 	 117.402
|  9> C 	 -102.431 	 55.0914 	 116.854
| 10> C 	 -103.766 	 54.9207 	 116.416
| 11> C 	 -104.511 	 56.0884 	 116.473
| 12> H 	 -104.242 	 54.0411 	 115.951
| 13> C 	 -101.349 	 54.0558 	 116.709
| 14> H 	 -101.729 	 53.2215 	 117.319
| 15> H 	 -100.516 	 54.4286 	 117.298
| 16> C 	 -101.08 	 53.4829 	 115.312
| 17> H 	 -100.662 	 52.4904 	 115.289
| 18> H 	 -101.977 	 53.3632 	 114.765
| 19> C 	 -100.006 	 54.3832 	 114.61
| 20> H 	 -100 	 54.1432 	 113.559
| 21> H 	 -100.309 	 55.419 	 114.592
| 22> H 	 -99.0877 	 54.1822 	 115.096
| 23> S 	 -106.378 	 56.1386 	 114.6
| 24> C 	 -108.066 	 56.4502 	 114.972
| 25> C 	 -108.285 	 56.5196 	 116.31
| 26> C 	 -107.037 	 56.4922 	 117.084
| 27> C 	 -105.93 	 56.1803 	 116.247
| 28> H 	 -109.301 	 56.6836 	 116.719
| 29> C 	 -107.006 	 56.7824 	 118.617
| 30> H 	 -107.738 	 57.5641 	 118.805
| 31> H 	 -106.058 	 57.1893 	 118.908
| 32> C 	 -107.364 	 55.4811 	 119.475
| 33> H 	 -108.26 	 55.0072 	 119.167
| 34> H 	 -107.551 	 55.9562 	 120.476
| 35> C 	 -106.306 	 54.4509 	 119.539
| 36> H 	 -106.358 	 53.8282 	 120.385
| 37> H 	 -105.269 	 54.9163 	 119.394
| 38> H 	 -106.517 	 53.8052 	 118.689
| 39> H 	 -101.238 	 56.6576 	 117.615
| 40> H 	 -108.868 	 56.5433 	 114.269
| 41> *
| 42>
| 43>                          ****END OF INPUT****

CARTESIAN COORDINATES (ANGSTROEM)
---------------------------------
  S    -103.676000   57.386300  117.207000
  C    -102.285000   56.348100  117.402000
  C    -102.431000   55.091400  116.854000
  C    -103.766000   54.920700  116.416000
  C    -104.511000   56.088400  116.473000
  H    -104.242000   54.041100  115.951000
  C    -101.349000   54.055800  116.709000
  H    -101.729000   53.221500  117.319000
  H    -100.516000   54.428600  117.298000
  C    -101.080000   53.482900  115.312000
  H    -100.662000   52.490400  115.289000
  H    -101.977000   53.363200  114.765000
  C    -100.006000   54.383200  114.610000
  H    -100.000000   54.143200  113.559000
  H    -100.309000   55.419000  114.592000
  H    -99.087700   54.182200  115.096000
  S    -106.378000   56.138600  114.600000
  C    -108.066000   56.450200  114.972000
  C    -108.285000   56.519600  116.310000
  C    -107.037000   56.492200  117.084000
  C    -105.930000   56.180300  116.247000
  H    -109.301000   56.683600  116.719000
  C    -107.006000   56.782400  118.617000
  H    -107.738000   57.564100  118.805000
  H    -106.058000   57.189300  118.908000
  C    -107.364000   55.481100  119.475000
  H    -108.260000   55.007200  119.167000
  H    -107.551000   55.956200  120.476000
  C    -106.306000   54.450900  119.539000
  H    -106.358000   53.828200  120.385000
  H    -105.269000   54.916300  119.394000
  H    -106.517000   53.805200  118.689000
  H    -101.238000   56.657600  117.615000
  H    -108.868000   56.543300  114.269000

 Total Charge           Charge          ....    0
 Multiplicity           Mult            ....    1
 Number of Electrons    NEL             ....  134
 Basis Dimension        Dim             ....  322

ORBITAL ENERGIES
----------------

  NO   OCC          E(Eh)            E(eV)
   0   2.0000     -88.970861     -2421.0202
   1   2.0000     -88.962516     -2420.7931
   2   2.0000     -10.322703      -280.8950
   3   2.0000     -10.321520      -280.8628
   4   2.0000     -10.311992      -280.6036
   5   2.0000     -10.311885      -280.6006
   6   2.0000     -10.309111      -280.5252
   7   2.0000     -10.299756      -280.2706
   8   2.0000     -10.296349      -280.1779
   9   2.0000     -10.293482      -280.0999
  10   2.0000     -10.293257      -280.0938
  11   2.0000     -10.293070      -280.0887
  12   2.0000     -10.286199      -279.9017
  13   2.0000     -10.281508      -279.7740
  14   2.0000     -10.271901      -279.5126
  15   2.0000     -10.267463      -279.3919
  16   2.0000      -8.085776      -220.0252
  17   2.0000      -8.077940      -219.8119
  18   2.0000      -6.044206      -164.4712
  19   2.0000      -6.040275      -164.3642
  20   2.0000      -6.036588      -164.2639
  21   2.0000      -6.036502      -164.2616
  22   2.0000      -6.032266      -164.1463
  23   2.0000      -6.028687      -164.0489
  24   2.0000      -1.011913       -27.5355
  25   2.0000      -0.984794       -26.7976
  26   2.0000      -0.914749       -24.8916
  27   2.0000      -0.900879       -24.5142
  28   2.0000      -0.872276       -23.7358
  29   2.0000      -0.853131       -23.2149
  30   2.0000      -0.841384       -22.8952
  31   2.0000      -0.814279       -22.1576
  32   2.0000      -0.784679       -21.3522
  33   2.0000      -0.769011       -20.9259
  34   2.0000      -0.714496       -19.4424
  35   2.0000      -0.696096       -18.9417
  36   2.0000      -0.685139       -18.6436
  37   2.0000      -0.656612       -17.8673
  38   2.0000      -0.635059       -17.2808
  39   2.0000      -0.619202       -16.8494
  40   2.0000      -0.593844       -16.1593
  41   2.0000      -0.569373       -15.4934
  42   2.0000      -0.552094       -15.0232
  43   2.0000      -0.548694       -14.9307
  44   2.0000      -0.544171       -14.8077
  45   2.0000      -0.538747       -14.6600
  46   2.0000      -0.516459       -14.0536
  47   2.0000      -0.512476       -13.9452
  48   2.0000      -0.505310       -13.7502
  49   2.0000      -0.488381       -13.2895
  50   2.0000      -0.486242       -13.2313
  51   2.0000      -0.472907       -12.8685
  52   2.0000      -0.471424       -12.8281
  53   2.0000      -0.462033       -12.5726
  54   2.0000      -0.459620       -12.5069
  55   2.0000      -0.448350       -12.2002
  56   2.0000      -0.443717       -12.0741
  57   2.0000      -0.438461       -11.9311
  58   2.0000      -0.434890       -11.8339
  59   2.0000      -0.430101       -11.7036
  60   2.0000      -0.425920       -11.5899
  61   2.0000      -0.416642       -11.3374
  62   2.0000      -0.400712       -10.9039
  63   2.0000      -0.342691        -9.3251
  64   2.0000      -0.333995        -9.0885
  65   2.0000      -0.320677        -8.7261
  66   2.0000      -0.296121        -8.0579
  67   0.0000       0.041397         1.1265
  68   0.0000       0.067468         1.8359
  69   0.0000       0.115624         3.1463
  70   0.0000       0.117394         3.1945
  71   0.0000       0.127408         3.4669

MULLIKEN ATOMIC CHARGES
-----------------------
   0 S :    0.137346
   1 C :   -0.132982
   2 C :   -0.102401
   3 C :    0.016474
   4 C :   -0.162153
   5 H :    0.022271
   6 C :    0.081837
   7 H :    0.034082
   8 H :    0.009549
   9 C :   -0.040013
  10 H :    0.023778
  11 H :    0.019243
  12 C :   -0.036604
  13 H :    0.024491
  14 H :    0.032847
  15 H :    0.033705
  16 S :    0.110816
  17 C :   -0.078901
  18 C :   -0.045743
  19 C :   -0.055691
  20 C :   -0.182378
  21 H :    0.032214
  22 C :    0.079035
  23 H :    0.023695
  24 H :    0.016386
  25 C :   -0.076821
  26 H :    0.017463
  27 H :    0.028222
  28 C :   -0.027303
  29 H :    0.026192
  30 H :    0.047579
  31 H :    0.026789
  32 H :    0.050679
  33 H :    0.046298
Sum of atomic charges:    0.0000000

LOEWDIN ATOMIC CHARGES
----------------------
   0 S :    0.437914
   1 C :   -0.216011
   2 C :   -0.061566
   3 C :   -0.062703
   4 C :   -0.215797
   5 H :    0.034990
   6 C :   -0.032895
   7 H :    0.039328
   8 H :    0.028332
   9 C :   -0.031465
  10 H :    0.024671
  11 H :    0.018872
  12 C :   -0.055960
  13 H :    0.023665
  14 H :    0.024456
  15 H :    0.021021
  16 S :    0.422699
  17 C :   -0.186542
  18 C :   -0.073501
  19 C :   -0.055892
  20 C :   -0.223355
  21 H :    0.037556
  22 C :   -0.023663
  23 H :    0.029970
  24 H :    0.017011
  25 C :   -0.037529
  26 H :    0.016717
  27 H :    0.023725
  28 C :   -0.066803
  29 H :    0.019758
  30 H :    0.036413
  31 H :    0.028093
  32 H :    0.032360
  33 H :    0.026129

  Mayer bond orders larger than 0.100000
B(  0-S ,  1-C ) :   1.1387 B(  0-S ,  4-C ) :   1.1641 B(  1-C ,  2-C ) :   1.6259
B(  1-C , 32-H ) :   0.9502 B(  2-C ,  3-C ) :   1.2322 B(  2-C ,  6-C ) :   1.0280
B(  3-C ,  4-C ) :   1.5839 B(  3-C ,  5-H ) :   0.9844 B(  4-C , 20-C ) :   1.0009
B(  6-C ,  7-H ) :   0.9258 B(  6-C ,  8-H ) :   0.9388 B(  6-C ,  9-C ) :   1.0604
B(  9-C , 10-H ) :   0.9566 B(  9-C , 11-H ) :   0.9567 B(  9-C , 12-C ) :   1.0705
B( 12-C , 13-H ) :   0.9737 B( 12-C , 14-H ) :   0.9809 B( 12-C , 15-H ) :   0.9803
B( 16-S , 17-C ) :   1.1401 B( 16-S , 20-C ) :   1.1641 B( 17-C , 18-C ) :   1.6421
B( 17-C , 33-H ) :   0.9684 B( 18-C , 19-C ) :   1.2243 B( 18-C , 21-H ) :   0.9814
B( 19-C , 20-C ) :   1.5843 B( 19-C , 22-C ) :   1.0369 B( 22-C , 23-H ) :   0.9374
B( 22-C , 24-H ) :   0.9379 B( 22-C , 25-C ) :   1.0657 B( 25-C , 26-H ) :   0.9620
B( 25-C , 27-H ) :   0.9578 B( 25-C , 28-C ) :   1.0728 B( 28-C , 29-H ) :   0.9714
B( 28-C , 30-H ) :   0.9750 B( 28-C , 31-H ) :   0.9736

Dispersion correction           -0.015412924
FINAL SINGLE POINT ENERGY     -1339.872422056776

DIPOLE MOMENT
-------------
                                X             Y             Z
Electronic contribution:     -8.88113      13.29169      -8.25001
Nuclear contribution   :      8.88657     -13.61418       8.38525
                        -----------------------------------------
Total Dipole Moment    :      0.00544      -0.32248       0.13524
                        -----------------------------------------
Magnitude (a.u.)       :      0.34974
Magnitude (Debye)      :      0.88896

Rotational constants in cm-1:     0.021287     0.008583     0.007394
Rotational constants in MHz :   638.176929   257.313053   221.678651

                             ****ORCA TERMINATED NORMALLY****
TOTAL RUN TIME: 0 days 0 hours 0 minutes 37 seconds 253 msec
