                         Program Version 4.2.1 -  RELEASE  -
|  1> ! wB97X-D3 SP def2-SVP
|  2> %pal
|  3> nprocs 16
|  4> end
|  5>
|  6> * xyz 0 1
|  7> S 	 -59.1722 	 51.2172 	 135.66
|  8> C 	 -59.4693 	 52.7243 	 134.906
|  9> C 	 -59.3315 	 53.7353 	 135.822
| 10> C 	 -59.0598 	 53.2775 	 137.171
| 11> C 	 -58.9571 	 51.9118 	 137.283
| 12> H 	 -58.9689 	 53.8006 	 138.127
| 13> C 	 -59.3814 	 55.1112 	 135.442
| 14> H 	 -60.3323 	 55.2773 	 134.872
| 15> H 	 -58.609 	 55.1217 	 134.685
| 16> C 	 -59.2174 	 56.1592 	 136.504
| 17> H 	 -60.0451 	 55.9768 	 137.21
| 18> H 	 -58.2295 	 55.9554 	 136.867
| 19> C 	 -59.3114 	 57.613 	 135.949
| 20> H 	 -60.1714 	 57.7634 	 135.287
| 21> H 	 -59.2339 	 58.365 	 136.791
| 22> H 	 -58.4112 	 57.7646 	 135.364
| 23> S 	 -57.153 	 50.1063 	 138.223
| 24> C 	 -57.345 	 49.3294 	 139.78
| 25> C 	 -58.3221 	 50.0313 	 140.49
| 26> C 	 -59.152 	 50.9007 	 139.701
| 27> C 	 -58.6407 	 50.985 	 138.367
| 28> H 	 -58.3837 	 49.7198 	 141.513
| 29> C 	 -60.2973 	 51.6872 	 140.3
| 30> H 	 -59.8058 	 52.6665 	 140.519
| 31> H 	 -60.4707 	 51.1602 	 141.265
| 32> C 	 -61.5853 	 51.7615 	 139.496
| 33> H 	 -61.9547 	 50.7716 	 139.086
| 34> H 	 -61.3721 	 52.3181 	 138.579
| 35> C 	 -62.7533 	 52.4865 	 140.139
| 36> H 	 -62.5178 	 53.2447 	 140.837
| 37> H 	 -63.518 	 51.8766 	 140.614
| 38> H 	 -63.2236 	 53.029 	 139.326
| 39> H 	 -59.5752 	 52.8628 	 133.82
| 40> H 	 -56.7047 	 48.582 	 140.198
| 41> *
| 42>
| 43>                          ****END OF INPUT****

CARTESIAN COORDINATES (ANGSTROEM)
---------------------------------
  S    -59.172200   51.217200  135.660000
  C    -59.469300   52.724300  134.906000
  C    -59.331500   53.735300  135.822000
  C    -59.059800   53.277500  137.171000
  C    -58.957100   51.911800  137.283000
  H    -58.968900   53.800600  138.127000
  C    -59.381400   55.111200  135.442000
  H    -60.332300   55.277300  134.872000
  H    -58.609000   55.121700  134.685000
  C    -59.217400   56.159200  136.504000
  H    -60.045100   55.976800  137.210000
  H    -58.229500   55.955400  136.867000
  C    -59.311400   57.613000  135.949000
  H    -60.171400   57.763400  135.287000
  H    -59.233900   58.365000  136.791000
  H    -58.411200   57.764600  135.364000
  S    -57.153000   50.106300  138.223000
  C    -57.345000   49.329400  139.780000
  C    -58.322100   50.031300  140.490000
  C    -59.152000   50.900700  139.701000
  C    -58.640700   50.985000  138.367000
  H    -58.383700   49.719800  141.513000
  C    -60.297300   51.687200  140.300000
  H    -59.805800   52.666500  140.519000
  H    -60.470700   51.160200  141.265000
  C    -61.585300   51.761500  139.496000
  H    -61.954700   50.771600  139.086000
  H    -61.372100   52.318100  138.579000
  C    -62.753300   52.486500  140.139000
  H    -62.517800   53.244700  140.837000
  H    -63.518000   51.876600  140.614000
  H    -63.223600   53.029000  139.326000
  H    -59.575200   52.862800  133.820000
  H    -56.704700   48.582000  140.198000

 Total Charge           Charge          ....    0
 Multiplicity           Mult            ....    1
 Number of Electrons    NEL             ....  134
 Basis Dimension        Dim             ....  322

ORBITAL ENERGIES
----------------

  NO   OCC          E(Eh)            E(eV)
   0   2.0000     -88.964343     -2420.8428
   1   2.0000     -88.957471     -2420.6558
   2   2.0000     -10.329003      -281.0665
   3   2.0000     -10.327639      -281.0293
   4   2.0000     -10.316557      -280.7278
   5   2.0000     -10.310146      -280.5533
   6   2.0000     -10.308339      -280.5042
   7   2.0000     -10.297788      -280.2171
   8   2.0000     -10.297046      -280.1969
   9   2.0000     -10.296827      -280.1909
  10   2.0000     -10.294511      -280.1279
  11   2.0000     -10.287901      -279.9480
  12   2.0000     -10.286306      -279.9046
  13   2.0000     -10.285792      -279.8906
  14   2.0000     -10.282242      -279.7940
  15   2.0000     -10.269206      -279.4393
  16   2.0000      -8.079171      -219.8454
  17   2.0000      -8.072735      -219.6703
  18   2.0000      -6.037562      -164.2904
  19   2.0000      -6.033670      -164.1845
  20   2.0000      -6.031196      -164.1172
  21   2.0000      -6.030019      -164.0852
  22   2.0000      -6.026965      -164.0020
  23   2.0000      -6.023702      -163.9133
  24   2.0000      -1.006026       -27.3754
  25   2.0000      -0.984997       -26.8031
  26   2.0000      -0.922353       -25.0985
  27   2.0000      -0.907753       -24.7012
  28   2.0000      -0.871887       -23.7252
  29   2.0000      -0.851673       -23.1752
  30   2.0000      -0.844498       -22.9799
  31   2.0000      -0.821513       -22.3545
  32   2.0000      -0.780982       -21.2516
  33   2.0000      -0.767317       -20.8798
  34   2.0000      -0.718645       -19.5553
  35   2.0000      -0.698849       -19.0167
  36   2.0000      -0.681160       -18.5353
  37   2.0000      -0.657242       -17.8845
  38   2.0000      -0.644778       -17.5453
  39   2.0000      -0.615669       -16.7532
  40   2.0000      -0.586885       -15.9700
  41   2.0000      -0.585519       -15.9328
  42   2.0000      -0.566175       -15.4064
  43   2.0000      -0.561978       -15.2922
  44   2.0000      -0.527942       -14.3660
  45   2.0000      -0.524019       -14.2593
  46   2.0000      -0.519189       -14.1279
  47   2.0000      -0.511981       -13.9317
  48   2.0000      -0.505440       -13.7537
  49   2.0000      -0.503177       -13.6921
  50   2.0000      -0.493835       -13.4379
  51   2.0000      -0.483959       -13.1692
  52   2.0000      -0.476107       -12.9555
  53   2.0000      -0.467625       -12.7247
  54   2.0000      -0.457152       -12.4397
  55   2.0000      -0.446745       -12.1565
  56   2.0000      -0.441491       -12.0136
  57   2.0000      -0.436085       -11.8665
  58   2.0000      -0.432811       -11.7774
  59   2.0000      -0.423376       -11.5207
  60   2.0000      -0.419279       -11.4092
  61   2.0000      -0.411788       -11.2053
  62   2.0000      -0.404991       -11.0204
  63   2.0000      -0.343008        -9.3337
  64   2.0000      -0.324739        -8.8366
  65   2.0000      -0.320596        -8.7239
  66   2.0000      -0.292386        -7.9562
  67   0.0000       0.028290         0.7698
  68   0.0000       0.067157         1.8274
  69   0.0000       0.110374         3.0034
  70   0.0000       0.129786         3.5317
  71   0.0000       0.135397         3.6843

MULLIKEN ATOMIC CHARGES
-----------------------
   0 S :    0.099851
   1 C :   -0.122592
   2 C :   -0.083628
   3 C :    0.034862
   4 C :   -0.188414
   5 H :    0.015041
   6 C :    0.005419
   7 H :    0.032781
   8 H :    0.028215
   9 C :   -0.068007
  10 H :    0.038536
  11 H :    0.032183
  12 C :   -0.032895
  13 H :    0.038315
  14 H :    0.046075
  15 H :    0.024253
  16 S :    0.116058
  17 C :   -0.093733
  18 C :   -0.053477
  19 C :   -0.039364
  20 C :   -0.141468
  21 H :    0.015571
  22 C :    0.075524
  23 H :    0.049650
  24 H :    0.025035
  25 C :   -0.099414
  26 H :    0.042266
  27 H :    0.039222
  28 C :   -0.013598
  29 H :    0.011613
  30 H :    0.034662
  31 H :    0.021274
  32 H :    0.055863
  33 H :    0.054321
Sum of atomic charges:   -0.0000000

LOEWDIN ATOMIC CHARGES
----------------------
   0 S :    0.408679
   1 C :   -0.213508
   2 C :   -0.069278
   3 C :   -0.072623
   4 C :   -0.187665
   5 H :    0.036067
   6 C :   -0.050139
   7 H :    0.036363
   8 H :    0.034462
   9 C :   -0.039580
  10 H :    0.027484
  11 H :    0.025306
  12 C :   -0.064704
  13 H :    0.026123
  14 H :    0.033941
  15 H :    0.024055
  16 S :    0.422672
  17 C :   -0.185167
  18 C :   -0.073045
  19 C :   -0.052351
  20 C :   -0.219341
  21 H :    0.028128
  22 C :   -0.037189
  23 H :    0.040941
  24 H :    0.033988
  25 C :   -0.050300
  26 H :    0.037487
  27 H :    0.027758
  28 C :   -0.066451
  29 H :    0.018626
  30 H :    0.025037
  31 H :    0.030686
  32 H :    0.036244
  33 H :    0.027293

  Mayer bond orders larger than 0.100000
B(  0-S ,  1-C ) :   1.1445 B(  0-S ,  4-C ) :   1.1632 B(  1-C ,  2-C ) :   1.5982
B(  1-C ,  4-C ) :   0.1014 B(  1-C , 32-H ) :   0.9745 B(  2-C ,  3-C ) :   1.2194
B(  2-C ,  6-C ) :   1.0171 B(  3-C ,  4-C ) :   1.5701 B(  3-C ,  5-H ) :   0.9953
B(  4-C , 20-C ) :   1.0181 B(  6-C ,  7-H ) :   0.9274 B(  6-C ,  8-H ) :   0.9308
B(  6-C ,  9-C ) :   1.0977 B(  9-C , 10-H ) :   0.9490 B(  9-C , 11-H ) :   0.9445
B(  9-C , 12-C ) :   1.0811 B( 12-C , 13-H ) :   0.9751 B( 12-C , 14-H ) :   0.9737
B( 12-C , 15-H ) :   0.9740 B( 16-S , 17-C ) :   1.1609 B( 16-S , 20-C ) :   1.1758
B( 17-C , 18-C ) :   1.5877 B( 17-C , 20-C ) :   0.1089 B( 17-C , 33-H ) :   0.9725
B( 18-C , 19-C ) :   1.2614 B( 18-C , 21-H ) :   0.9905 B( 19-C , 20-C ) :   1.5266
B( 19-C , 22-C ) :   1.0356 B( 22-C , 23-H ) :   0.9229 B( 22-C , 24-H ) :   0.9352
B( 22-C , 25-C ) :   1.0682 B( 25-C , 26-H ) :   0.9546 B( 25-C , 27-H ) :   0.9559
B( 25-C , 28-C ) :   1.0829 B( 28-C , 29-H ) :   0.9714 B( 28-C , 30-H ) :   0.9764
B( 28-C , 31-H ) :   0.9757

Dispersion correction           -0.014170077
FINAL SINGLE POINT ENERGY     -1339.865719056660

DIPOLE MOMENT
-------------
                                X             Y             Z
Electronic contribution:     15.03195     -23.76051      -5.70333
Nuclear contribution   :    -15.14649      24.33914       5.98283
                        -----------------------------------------
Total Dipole Moment    :     -0.11454       0.57863       0.27950
                        -----------------------------------------
Magnitude (a.u.)       :      0.65273
Magnitude (Debye)      :      1.65910

Rotational constants in cm-1:     0.017496     0.008739     0.007098
Rotational constants in MHz :   524.524498   261.993460   212.802785

                             ****ORCA TERMINATED NORMALLY****
TOTAL RUN TIME: 0 days 0 hours 0 minutes 35 seconds 103 msec
