                         Program Version 4.2.1 -  RELEASE  -
|  1> ! wB97X-D3 SP def2-SVP
|  2> %pal
|  3> nprocs 16
|  4> end
|  5>
|  6> * xyz 0 1
|  7> S 	 4.89444 	 -26.4845 	 80.792
|  8> C 	 4.27007 	 -27.6694 	 81.9597
|  9> C 	 5.28728 	 -28.2288 	 82.6845
| 10> C 	 6.5642 	 -27.8104 	 82.1729
| 11> C 	 6.55988 	 -26.8773 	 81.1613
| 12> H 	 7.42965 	 -28.2849 	 82.5343
| 13> C 	 5.00921 	 -29.1707 	 83.8132
| 14> H 	 5.59919 	 -30.0551 	 83.7581
| 15> H 	 3.9687 	 -29.5308 	 83.8586
| 16> C 	 5.36503 	 -28.5209 	 85.1199
| 17> H 	 5.37437 	 -29.2561 	 85.9022
| 18> H 	 6.32653 	 -27.988 	 85.1685
| 19> C 	 4.22756 	 -27.4461 	 85.4926
| 20> H 	 3.34475 	 -28.0257 	 85.8196
| 21> H 	 4.45276 	 -26.7139 	 86.3039
| 22> H 	 3.93964 	 -26.7656 	 84.6672
| 23> S 	 8.00472 	 -24.5741 	 81.4481
| 24> C 	 9.21439 	 -24.1531 	 80.3011
| 25> C 	 9.30776 	 -25.1286 	 79.3318
| 26> C 	 8.51191 	 -26.3075 	 79.6055
| 27> C 	 7.63442 	 -26.0907 	 80.6968
| 28> H 	 10.04 	 -25.0229 	 78.5776
| 29> C 	 8.58648 	 -27.5503 	 78.6956
| 30> H 	 7.98915 	 -28.4127 	 79.1478
| 31> H 	 9.54775 	 -27.9812 	 78.854
| 32> C 	 8.26104 	 -27.2916 	 77.2167
| 33> H 	 8.44028 	 -26.2024 	 77.1494
| 34> H 	 7.18655 	 -27.4796 	 77.0395
| 35> C 	 9.27683 	 -27.9379 	 76.2178
| 36> H 	 10.3571 	 -27.6897 	 76.4682
| 37> H 	 9.17978 	 -27.6954 	 75.1669
| 38> H 	 9.2213 	 -29.0159 	 76.2908
| 39> H 	 3.2835 	 -27.5746 	 82.4005
| 40> H 	 9.8648 	 -23.2817 	 80.2769
| 41> *
| 42>
| 43>                          ****END OF INPUT****

CARTESIAN COORDINATES (ANGSTROEM)
---------------------------------
  S      4.894440  -26.484500   80.792000
  C      4.270070  -27.669400   81.959700
  C      5.287280  -28.228800   82.684500
  C      6.564200  -27.810400   82.172900
  C      6.559880  -26.877300   81.161300
  H      7.429650  -28.284900   82.534300
  C      5.009210  -29.170700   83.813200
  H      5.599190  -30.055100   83.758100
  H      3.968700  -29.530800   83.858600
  C      5.365030  -28.520900   85.119900
  H      5.374370  -29.256100   85.902200
  H      6.326530  -27.988000   85.168500
  C      4.227560  -27.446100   85.492600
  H      3.344750  -28.025700   85.819600
  H      4.452760  -26.713900   86.303900
  H      3.939640  -26.765600   84.667200
  S      8.004720  -24.574100   81.448100
  C      9.214390  -24.153100   80.301100
  C      9.307760  -25.128600   79.331800
  C      8.511910  -26.307500   79.605500
  C      7.634420  -26.090700   80.696800
  H     10.040000  -25.022900   78.577600
  C      8.586480  -27.550300   78.695600
  H      7.989150  -28.412700   79.147800
  H      9.547750  -27.981200   78.854000
  C      8.261040  -27.291600   77.216700
  H      8.440280  -26.202400   77.149400
  H      7.186550  -27.479600   77.039500
  C      9.276830  -27.937900   76.217800
  H     10.357100  -27.689700   76.468200
  H      9.179780  -27.695400   75.166900
  H      9.221300  -29.015900   76.290800
  H      3.283500  -27.574600   82.400500
  H      9.864800  -23.281700   80.276900

 Total Charge           Charge          ....    0
 Multiplicity           Mult            ....    1
 Number of Electrons    NEL             ....  134
 Basis Dimension        Dim             ....  322

ORBITAL ENERGIES
----------------

  NO   OCC          E(Eh)            E(eV)
   0   2.0000     -88.966132     -2420.8915
   1   2.0000     -88.961232     -2420.7582
   2   2.0000     -10.327057      -281.0135
   3   2.0000     -10.323851      -280.9263
   4   2.0000     -10.317505      -280.7536
   5   2.0000     -10.310628      -280.5665
   6   2.0000     -10.309693      -280.5410
   7   2.0000     -10.299255      -280.2570
   8   2.0000     -10.293095      -280.0894
   9   2.0000     -10.292407      -280.0706
  10   2.0000     -10.291684      -280.0510
  11   2.0000     -10.291454      -280.0447
  12   2.0000     -10.291353      -280.0419
  13   2.0000     -10.290026      -280.0058
  14   2.0000     -10.284002      -279.8419
  15   2.0000     -10.282807      -279.8094
  16   2.0000      -8.081563      -219.9105
  17   2.0000      -8.075948      -219.7577
  18   2.0000      -6.040041      -164.3579
  19   2.0000      -6.035807      -164.2427
  20   2.0000      -6.034516      -164.2075
  21   2.0000      -6.032453      -164.1514
  22   2.0000      -6.030389      -164.0952
  23   2.0000      -6.026696      -163.9947
  24   2.0000      -1.009091       -27.4588
  25   2.0000      -0.985125       -26.8066
  26   2.0000      -0.918542       -24.9948
  27   2.0000      -0.903562       -24.5872
  28   2.0000      -0.872471       -23.7411
  29   2.0000      -0.842876       -22.9358
  30   2.0000      -0.838048       -22.8044
  31   2.0000      -0.814394       -22.1608
  32   2.0000      -0.783104       -21.3094
  33   2.0000      -0.772538       -21.0218
  34   2.0000      -0.715247       -19.4629
  35   2.0000      -0.699912       -19.0456
  36   2.0000      -0.692428       -18.8419
  37   2.0000      -0.657134       -17.8815
  38   2.0000      -0.642333       -17.4788
  39   2.0000      -0.626242       -17.0409
  40   2.0000      -0.599238       -16.3061
  41   2.0000      -0.577603       -15.7174
  42   2.0000      -0.550698       -14.9853
  43   2.0000      -0.548375       -14.9220
  44   2.0000      -0.545071       -14.8321
  45   2.0000      -0.520440       -14.1619
  46   2.0000      -0.519828       -14.1452
  47   2.0000      -0.511686       -13.9237
  48   2.0000      -0.507723       -13.8158
  49   2.0000      -0.500623       -13.6226
  50   2.0000      -0.489713       -13.3258
  51   2.0000      -0.468500       -12.7485
  52   2.0000      -0.468092       -12.7374
  53   2.0000      -0.461745       -12.5647
  54   2.0000      -0.459438       -12.5019
  55   2.0000      -0.446700       -12.1553
  56   2.0000      -0.442021       -12.0280
  57   2.0000      -0.440420       -11.9844
  58   2.0000      -0.436322       -11.8729
  59   2.0000      -0.419978       -11.4282
  60   2.0000      -0.416348       -11.3294
  61   2.0000      -0.414874       -11.2893
  62   2.0000      -0.411769       -11.2048
  63   2.0000      -0.335803        -9.1377
  64   2.0000      -0.324472        -8.8293
  65   2.0000      -0.321465        -8.7475
  66   2.0000      -0.313597        -8.5334
  67   0.0000       0.039779         1.0824
  68   0.0000       0.051286         1.3956
  69   0.0000       0.114585         3.1180
  70   0.0000       0.127657         3.4737
  71   0.0000       0.129175         3.5150

MULLIKEN ATOMIC CHARGES
-----------------------
   0 S :    0.095027
   1 C :   -0.109526
   2 C :   -0.126016
   3 C :    0.071686
   4 C :   -0.159123
   5 H :   -0.012030
   6 C :    0.101654
   7 H :    0.021280
   8 H :    0.026843
   9 C :   -0.072007
  10 H :    0.025303
  11 H :    0.043073
  12 C :   -0.109943
  13 H :    0.030836
  14 H :    0.039189
  15 H :    0.041131
  16 S :    0.134809
  17 C :   -0.091755
  18 C :   -0.031000
  19 C :   -0.045917
  20 C :   -0.173211
  21 H :    0.007555
  22 C :    0.069929
  23 H :    0.031361
  24 H :    0.019372
  25 C :   -0.065080
  26 H :    0.035780
  27 H :    0.051623
  28 C :   -0.076612
  29 H :    0.033549
  30 H :    0.038676
  31 H :    0.031626
  32 H :    0.060153
  33 H :    0.061767
Sum of atomic charges:   -0.0000000

LOEWDIN ATOMIC CHARGES
----------------------
   0 S :    0.393199
   1 C :   -0.193085
   2 C :   -0.058833
   3 C :   -0.047780
   4 C :   -0.198619
   5 H :    0.021514
   6 C :   -0.028310
   7 H :    0.028685
   8 H :    0.036298
   9 C :   -0.033600
  10 H :    0.019473
  11 H :    0.027143
  12 C :   -0.079882
  13 H :    0.023144
  14 H :    0.027707
  15 H :    0.025610
  16 S :    0.435088
  17 C :   -0.195259
  18 C :   -0.074643
  19 C :   -0.043687
  20 C :   -0.222593
  21 H :    0.022860
  22 C :   -0.039438
  23 H :    0.037927
  24 H :    0.027469
  25 C :   -0.042442
  26 H :    0.027937
  27 H :    0.033465
  28 C :   -0.071226
  29 H :    0.030702
  30 H :    0.024952
  31 H :    0.021136
  32 H :    0.028710
  33 H :    0.036379

  Mayer bond orders larger than 0.100000
B(  0-S ,  1-C ) :   1.1334 B(  0-S ,  4-C ) :   1.1442 B(  1-C ,  2-C ) :   1.6318
B(  1-C , 32-H ) :   0.9534 B(  2-C ,  3-C ) :   1.2458 B(  2-C ,  6-C ) :   1.0340
B(  3-C ,  4-C ) :   1.5737 B(  3-C ,  5-H ) :   1.0029 B(  4-C , 20-C ) :   1.0497
B(  6-C ,  7-H ) :   0.9317 B(  6-C ,  8-H ) :   0.9443 B(  6-C ,  9-C ) :   1.0638
B(  9-C , 10-H ) :   0.9589 B(  9-C , 11-H ) :   0.9635 B(  9-C , 12-C ) :   1.0501
B( 12-C , 13-H ) :   0.9784 B( 12-C , 14-H ) :   0.9776 B( 12-C , 15-H ) :   0.9789
B( 16-S , 17-C ) :   1.1657 B( 16-S , 20-C ) :   1.1538 B( 17-C , 18-C ) :   1.6082
B( 17-C , 33-H ) :   0.9660 B( 18-C , 19-C ) :   1.2491 B( 18-C , 21-H ) :   0.9882
B( 19-C , 20-C ) :   1.5680 B( 19-C , 22-C ) :   1.0513 B( 22-C , 23-H ) :   0.9271
B( 22-C , 24-H ) :   0.9380 B( 22-C , 25-C ) :   1.0285 B( 25-C , 26-H ) :   0.9703
B( 25-C , 27-H ) :   0.9571 B( 25-C , 28-C ) :   1.0613 B( 28-C , 29-H ) :   0.9761
B( 28-C , 30-H ) :   0.9773 B( 28-C , 31-H ) :   0.9787

Dispersion correction           -0.014279555
FINAL SINGLE POINT ENERGY     -1339.869043073711

DIPOLE MOMENT
-------------
                                X             Y             Z
Electronic contribution:     -1.59657      13.87682      -0.14144
Nuclear contribution   :      1.94697     -14.21435       0.30152
                        -----------------------------------------
Total Dipole Moment    :      0.35041      -0.33753       0.16008
                        -----------------------------------------
Magnitude (a.u.)       :      0.51219
Magnitude (Debye)      :      1.30188

Rotational constants in cm-1:     0.023088     0.007428     0.006467
Rotational constants in MHz :   692.164860   222.672343   193.861547

                             ****ORCA TERMINATED NORMALLY****
TOTAL RUN TIME: 0 days 0 hours 0 minutes 33 seconds 451 msec
