                         Program Version 4.2.1 -  RELEASE  -
|  1> ! wB97X-D3 SP def2-SVP
|  2> %pal
|  3> nprocs 16
|  4> end
|  5>
|  6> * xyz 0 1
|  7> S 	 -39.6971 	 67.9354 	 142.596
|  8> C 	 -39.5431 	 67.8585 	 140.838
|  9> C 	 -38.2723 	 68.1936 	 140.452
| 10> C 	 -37.4451 	 68.5486 	 141.57
| 11> C 	 -37.997 	 68.2861 	 142.767
| 12> H 	 -36.4266 	 68.9325 	 141.493
| 13> C 	 -37.8275 	 68.2848 	 138.996
| 14> H 	 -36.7836 	 68.0426 	 138.943
| 15> H 	 -37.9614 	 69.2656 	 138.632
| 16> C 	 -38.4486 	 67.2814 	 137.921
| 17> H 	 -39.4985 	 67.4342 	 137.882
| 18> H 	 -38.027 	 67.5398 	 136.979
| 19> C 	 -38.1008 	 65.7853 	 138.143
| 20> H 	 -37.0696 	 65.6067 	 138.326
| 21> H 	 -38.7184 	 65.3395 	 138.872
| 22> H 	 -38.2811 	 65.2608 	 137.153
| 23> S 	 -38.4473 	 69.7694 	 145.114
| 24> C 	 -37.1967 	 69.7747 	 146.317
| 25> C 	 -36.1047 	 69.0256 	 145.913
| 26> C 	 -36.1693 	 68.5431 	 144.568
| 27> C 	 -37.4365 	 68.7358 	 144.038
| 28> H 	 -35.2286 	 68.9747 	 146.451
| 29> C 	 -35.1935 	 67.5838 	 143.965
| 30> H 	 -34.5731 	 68.1813 	 143.316
| 31> H 	 -35.7548 	 66.8945 	 143.302
| 32> C 	 -34.2915 	 66.7358 	 144.892
| 33> H 	 -34.228 	 65.8112 	 144.432
| 34> H 	 -34.8419 	 66.6045 	 145.746
| 35> C 	 -32.997 	 67.5319 	 145.207
| 36> H 	 -33.0814 	 68.5969 	 145.009
| 37> H 	 -32.1719 	 67.2132 	 144.563
| 38> H 	 -32.6235 	 67.4464 	 146.277
| 39> H 	 -40.3351 	 67.6565 	 140.097
| 40> H 	 -37.2613 	 70.3574 	 147.2
| 41> *
| 42>
| 43>                          ****END OF INPUT****

CARTESIAN COORDINATES (ANGSTROEM)
---------------------------------
  S    -39.697100   67.935400  142.596000
  C    -39.543100   67.858500  140.838000
  C    -38.272300   68.193600  140.452000
  C    -37.445100   68.548600  141.570000
  C    -37.997000   68.286100  142.767000
  H    -36.426600   68.932500  141.493000
  C    -37.827500   68.284800  138.996000
  H    -36.783600   68.042600  138.943000
  H    -37.961400   69.265600  138.632000
  C    -38.448600   67.281400  137.921000
  H    -39.498500   67.434200  137.882000
  H    -38.027000   67.539800  136.979000
  C    -38.100800   65.785300  138.143000
  H    -37.069600   65.606700  138.326000
  H    -38.718400   65.339500  138.872000
  H    -38.281100   65.260800  137.153000
  S    -38.447300   69.769400  145.114000
  C    -37.196700   69.774700  146.317000
  C    -36.104700   69.025600  145.913000
  C    -36.169300   68.543100  144.568000
  C    -37.436500   68.735800  144.038000
  H    -35.228600   68.974700  146.451000
  C    -35.193500   67.583800  143.965000
  H    -34.573100   68.181300  143.316000
  H    -35.754800   66.894500  143.302000
  C    -34.291500   66.735800  144.892000
  H    -34.228000   65.811200  144.432000
  H    -34.841900   66.604500  145.746000
  C    -32.997000   67.531900  145.207000
  H    -33.081400   68.596900  145.009000
  H    -32.171900   67.213200  144.563000
  H    -32.623500   67.446400  146.277000
  H    -40.335100   67.656500  140.097000
  H    -37.261300   70.357400  147.200000

 Total Charge           Charge          ....    0
 Multiplicity           Mult            ....    1
 Number of Electrons    NEL             ....  134
 Basis Dimension        Dim             ....  322

ORBITAL ENERGIES
----------------

  NO   OCC          E(Eh)            E(eV)
   0   2.0000     -88.964882     -2420.8575
   1   2.0000     -88.963691     -2420.8251
   2   2.0000     -10.326262      -280.9919
   3   2.0000     -10.324203      -280.9358
   4   2.0000     -10.314906      -280.6828
   5   2.0000     -10.314256      -280.6652
   6   2.0000     -10.300254      -280.2842
   7   2.0000     -10.298698      -280.2418
   8   2.0000     -10.291478      -280.0454
   9   2.0000     -10.289990      -280.0049
  10   2.0000     -10.288066      -279.9525
  11   2.0000     -10.287217      -279.9294
  12   2.0000     -10.287070      -279.9254
  13   2.0000     -10.285480      -279.8821
  14   2.0000     -10.277376      -279.6616
  15   2.0000     -10.276062      -279.6259
  16   2.0000      -8.079516      -219.8548
  17   2.0000      -8.077912      -219.8112
  18   2.0000      -6.038152      -164.3065
  19   2.0000      -6.036452      -164.2602
  20   2.0000      -6.034190      -164.1987
  21   2.0000      -6.032446      -164.1512
  22   2.0000      -6.029980      -164.0841
  23   2.0000      -6.028734      -164.0502
  24   2.0000      -1.007420       -27.4133
  25   2.0000      -0.982392       -26.7322
  26   2.0000      -0.912480       -24.8298
  27   2.0000      -0.906239       -24.6600
  28   2.0000      -0.868582       -23.6353
  29   2.0000      -0.851505       -23.1706
  30   2.0000      -0.842295       -22.9200
  31   2.0000      -0.813586       -22.1388
  32   2.0000      -0.784514       -21.3477
  33   2.0000      -0.773274       -21.0419
  34   2.0000      -0.716736       -19.5034
  35   2.0000      -0.709089       -19.2953
  36   2.0000      -0.697237       -18.9728
  37   2.0000      -0.661261       -17.9938
  38   2.0000      -0.636617       -17.3232
  39   2.0000      -0.612944       -16.6790
  40   2.0000      -0.601578       -16.3698
  41   2.0000      -0.577148       -15.7050
  42   2.0000      -0.553588       -15.0639
  43   2.0000      -0.552630       -15.0378
  44   2.0000      -0.542206       -14.7542
  45   2.0000      -0.537568       -14.6280
  46   2.0000      -0.515631       -14.0310
  47   2.0000      -0.505876       -13.7656
  48   2.0000      -0.503952       -13.7132
  49   2.0000      -0.496871       -13.5205
  50   2.0000      -0.492908       -13.4127
  51   2.0000      -0.480086       -13.0638
  52   2.0000      -0.473347       -12.8804
  53   2.0000      -0.466103       -12.6833
  54   2.0000      -0.463379       -12.6092
  55   2.0000      -0.449096       -12.2205
  56   2.0000      -0.446118       -12.1395
  57   2.0000      -0.442867       -12.0510
  58   2.0000      -0.438861       -11.9420
  59   2.0000      -0.422621       -11.5001
  60   2.0000      -0.422134       -11.4868
  61   2.0000      -0.414916       -11.2904
  62   2.0000      -0.411140       -11.1877
  63   2.0000      -0.351280        -9.5588
  64   2.0000      -0.330565        -8.9951
  65   2.0000      -0.327915        -8.9230
  66   2.0000      -0.289737        -7.8841
  67   0.0000       0.029389         0.7997
  68   0.0000       0.071762         1.9527
  69   0.0000       0.110973         3.0197
  70   0.0000       0.127359         3.4656
  71   0.0000       0.131732         3.5846

MULLIKEN ATOMIC CHARGES
-----------------------
   0 S :    0.096107
   1 C :   -0.130480
   2 C :   -0.078848
   3 C :    0.007006
   4 C :   -0.123419
   5 H :    0.019831
   6 C :    0.070047
   7 H :    0.016501
   8 H :    0.037443
   9 C :   -0.072479
  10 H :    0.021066
  11 H :    0.021820
  12 C :   -0.043763
  13 H :    0.024471
  14 H :    0.035640
  15 H :    0.033905
  16 S :    0.101593
  17 C :   -0.072564
  18 C :   -0.002776
  19 C :   -0.025441
  20 C :   -0.161959
  21 H :   -0.015452
  22 C :   -0.017431
  23 H :    0.027506
  24 H :    0.040949
  25 C :    0.034908
  26 H :    0.018735
  27 H :    0.011315
  28 C :   -0.097530
  29 H :    0.038099
  30 H :    0.038291
  31 H :    0.043763
  32 H :    0.055257
  33 H :    0.047889
Sum of atomic charges:   -0.0000000

LOEWDIN ATOMIC CHARGES
----------------------
   0 S :    0.395052
   1 C :   -0.195188
   2 C :   -0.065333
   3 C :   -0.057516
   4 C :   -0.195572
   5 H :    0.034460
   6 C :   -0.026068
   7 H :    0.025643
   8 H :    0.028371
   9 C :   -0.029495
  10 H :    0.014220
  11 H :    0.022292
  12 C :   -0.060629
  13 H :    0.019940
  14 H :    0.019372
  15 H :    0.034634
  16 S :    0.386166
  17 C :   -0.179011
  18 C :   -0.065268
  19 C :   -0.056765
  20 C :   -0.177693
  21 H :    0.015879
  22 C :   -0.030577
  23 H :    0.026249
  24 H :    0.034964
  25 C :   -0.024902
  26 H :    0.021485
  27 H :    0.015266
  28 C :   -0.073317
  29 H :    0.023439
  30 H :    0.029043
  31 H :    0.032339
  32 H :    0.035207
  33 H :    0.023312

  Mayer bond orders larger than 0.100000
B(  0-S ,  1-C ) :   1.1211 B(  0-S ,  4-C ) :   1.1323 B(  1-C ,  2-C ) :   1.6370
B(  1-C , 32-H ) :   0.9637 B(  2-C ,  3-C ) :   1.2357 B(  2-C ,  6-C ) :   1.0052
B(  3-C ,  4-C ) :   1.5820 B(  3-C ,  5-H ) :   0.9922 B(  4-C , 20-C ) :   1.0495
B(  6-C ,  7-H ) :   0.9459 B(  6-C ,  8-H ) :   0.9392 B(  6-C ,  9-C ) :   1.0810
B(  9-C , 10-H ) :   0.9559 B(  9-C , 11-H ) :   0.9573 B(  9-C , 12-C ) :   1.0770
B( 12-C , 13-H ) :   0.9759 B( 12-C , 14-H ) :   0.9786 B( 12-C , 15-H ) :   0.9759
B( 16-S , 17-C ) :   1.1530 B( 16-S , 20-C ) :   1.1310 B( 17-C , 18-C ) :   1.5944
B( 17-C , 33-H ) :   0.9727 B( 18-C , 19-C ) :   1.2570 B( 18-C , 21-H ) :   0.9899
B( 19-C , 20-C ) :   1.6038 B( 19-C , 22-C ) :   1.0378 B( 22-C , 23-H ) :   0.9228
B( 22-C , 24-H ) :   0.9414 B( 22-C , 25-C ) :   1.0762 B( 25-C , 26-H ) :   0.9578
B( 25-C , 27-H ) :   0.9581 B( 25-C , 28-C ) :   1.0468 B( 28-C , 29-H ) :   0.9824
B( 28-C , 30-H ) :   0.9751 B( 28-C , 31-H ) :   0.9772

Dispersion correction           -0.014008668
FINAL SINGLE POINT ENERGY     -1339.867336213938

DIPOLE MOMENT
-------------
                                X             Y             Z
Electronic contribution:    -19.10095      11.49267      14.91282
Nuclear contribution   :     19.69374     -11.55502     -15.38017
                        -----------------------------------------
Total Dipole Moment    :      0.59279      -0.06235      -0.46735
                        -----------------------------------------
Magnitude (a.u.)       :      0.75743
Magnitude (Debye)      :      1.92524

Rotational constants in cm-1:     0.020448     0.007874     0.006109
Rotational constants in MHz :   613.011065   236.049995   183.133287

                             ****ORCA TERMINATED NORMALLY****
TOTAL RUN TIME: 0 days 0 hours 0 minutes 32 seconds 920 msec
