                         Program Version 4.2.1 -  RELEASE  -
|  1> ! wB97X-D3 SP def2-SVP
|  2> %pal
|  3> nprocs 16
|  4> end
|  5>
|  6> * xyz 0 1
|  7> S 	 7.34279 	 -7.99473 	 62.6958
|  8> C 	 8.34477 	 -9.36615 	 62.8194
|  9> C 	 7.72319 	 -10.4928 	 63.3446
| 10> C 	 6.31656 	 -10.2986 	 63.4373
| 11> C 	 5.93121 	 -9.02895 	 63.0867
| 12> H 	 5.67821 	 -11.0548 	 63.886
| 13> C 	 8.48756 	 -11.7294 	 63.7034
| 14> H 	 9.45943 	 -11.7786 	 63.1952
| 15> H 	 8.04887 	 -12.6707 	 63.458
| 16> C 	 8.65197 	 -11.9421 	 65.1805
| 17> H 	 9.47263 	 -11.2554 	 65.527
| 18> H 	 7.7414 	 -11.5736 	 65.6358
| 19> C 	 8.8312 	 -13.3431 	 65.7377
| 20> H 	 9.74173 	 -13.787 	 65.3709
| 21> H 	 8.87529 	 -13.3394 	 66.8537
| 22> H 	 8.04191 	 -13.9987 	 65.3049
| 23> S 	 4.47437 	 -6.69298 	 63.3072
| 24> C 	 2.6701 	 -6.68731 	 63.402
| 25> C 	 2.25755 	 -7.98501 	 63.1809
| 26> C 	 3.32771 	 -8.9523 	 62.9769
| 27> C 	 4.60924 	 -8.40712 	 63.0988
| 28> H 	 1.1764 	 -8.16161 	 63.2014
| 29> C 	 3.03571 	 -10.4094 	 62.6251
| 30> H 	 2.67217 	 -10.8409 	 63.513
| 31> H 	 4.04961 	 -10.7667 	 62.4182
| 32> C 	 2.04899 	 -10.5515 	 61.4033
| 33> H 	 2.25147 	 -9.75612 	 60.7379
| 34> H 	 0.976259 	 -10.3787 	 61.672
| 35> C 	 2.06815 	 -12.0228 	 60.8472
| 36> H 	 1.31537 	 -11.9849 	 60.0683
| 37> H 	 1.69419 	 -12.6901 	 61.6779
| 38> H 	 2.91717 	 -12.4416 	 60.3343
| 39> H 	 9.4189 	 -9.31907 	 62.7044
| 40> H 	 1.98798 	 -5.83235 	 63.4543
| 41> *
| 42>
| 43>                          ****END OF INPUT****

CARTESIAN COORDINATES (ANGSTROEM)
---------------------------------
  S      7.342790   -7.994730   62.695800
  C      8.344770   -9.366150   62.819400
  C      7.723190  -10.492800   63.344600
  C      6.316560  -10.298600   63.437300
  C      5.931210   -9.028950   63.086700
  H      5.678210  -11.054800   63.886000
  C      8.487560  -11.729400   63.703400
  H      9.459430  -11.778600   63.195200
  H      8.048870  -12.670700   63.458000
  C      8.651970  -11.942100   65.180500
  H      9.472630  -11.255400   65.527000
  H      7.741400  -11.573600   65.635800
  C      8.831200  -13.343100   65.737700
  H      9.741730  -13.787000   65.370900
  H      8.875290  -13.339400   66.853700
  H      8.041910  -13.998700   65.304900
  S      4.474370   -6.692980   63.307200
  C      2.670100   -6.687310   63.402000
  C      2.257550   -7.985010   63.180900
  C      3.327710   -8.952300   62.976900
  C      4.609240   -8.407120   63.098800
  H      1.176400   -8.161610   63.201400
  C      3.035710  -10.409400   62.625100
  H      2.672170  -10.840900   63.513000
  H      4.049610  -10.766700   62.418200
  C      2.048990  -10.551500   61.403300
  H      2.251470   -9.756120   60.737900
  H      0.976259  -10.378700   61.672000
  C      2.068150  -12.022800   60.847200
  H      1.315370  -11.984900   60.068300
  H      1.694190  -12.690100   61.677900
  H      2.917170  -12.441600   60.334300
  H      9.418900   -9.319070   62.704400
  H      1.987980   -5.832350   63.454300

 Total Charge           Charge          ....    0
 Multiplicity           Mult            ....    1
 Number of Electrons    NEL             ....  134
 Basis Dimension        Dim             ....  322

ORBITAL ENERGIES
----------------

  NO   OCC          E(Eh)            E(eV)
   0   2.0000     -88.969951     -2420.9955
   1   2.0000     -88.961456     -2420.7643
   2   2.0000     -10.337202      -281.2896
   3   2.0000     -10.328507      -281.0530
   4   2.0000     -10.323303      -280.9114
   5   2.0000     -10.312502      -280.6174
   6   2.0000     -10.303414      -280.3701
   7   2.0000     -10.302124      -280.3350
   8   2.0000     -10.299588      -280.2660
   9   2.0000     -10.297587      -280.2116
  10   2.0000     -10.292886      -280.0837
  11   2.0000     -10.288035      -279.9517
  12   2.0000     -10.287485      -279.9367
  13   2.0000     -10.284123      -279.8452
  14   2.0000     -10.282863      -279.8109
  15   2.0000     -10.282852      -279.8106
  16   2.0000      -8.084996      -220.0039
  17   2.0000      -8.075793      -219.7535
  18   2.0000      -6.043462      -164.4510
  19   2.0000      -6.039651      -164.3473
  20   2.0000      -6.035585      -164.2366
  21   2.0000      -6.034567      -164.2089
  22   2.0000      -6.030380      -164.0950
  23   2.0000      -6.026268      -163.9831
  24   2.0000      -1.008408       -27.4402
  25   2.0000      -0.982393       -26.7323
  26   2.0000      -0.919677       -25.0257
  27   2.0000      -0.899841       -24.4859
  28   2.0000      -0.872153       -23.7325
  29   2.0000      -0.857019       -23.3207
  30   2.0000      -0.840020       -22.8581
  31   2.0000      -0.821526       -22.3548
  32   2.0000      -0.781776       -21.2732
  33   2.0000      -0.767072       -20.8731
  34   2.0000      -0.708651       -19.2834
  35   2.0000      -0.703047       -19.1309
  36   2.0000      -0.691462       -18.8156
  37   2.0000      -0.659675       -17.9507
  38   2.0000      -0.640786       -17.4367
  39   2.0000      -0.630868       -17.1668
  40   2.0000      -0.586298       -15.9540
  41   2.0000      -0.575592       -15.6626
  42   2.0000      -0.565335       -15.3835
  43   2.0000      -0.560649       -15.2560
  44   2.0000      -0.529361       -14.4046
  45   2.0000      -0.523978       -14.2582
  46   2.0000      -0.520264       -14.1571
  47   2.0000      -0.515069       -14.0157
  48   2.0000      -0.504884       -13.7386
  49   2.0000      -0.499872       -13.6022
  50   2.0000      -0.486087       -13.2271
  51   2.0000      -0.485311       -13.2060
  52   2.0000      -0.475672       -12.9437
  53   2.0000      -0.462856       -12.5950
  54   2.0000      -0.459006       -12.4902
  55   2.0000      -0.456701       -12.4275
  56   2.0000      -0.442196       -12.0328
  57   2.0000      -0.434930       -11.8350
  58   2.0000      -0.429084       -11.6760
  59   2.0000      -0.426269       -11.5994
  60   2.0000      -0.423199       -11.5158
  61   2.0000      -0.412732       -11.2310
  62   2.0000      -0.403670       -10.9844
  63   2.0000      -0.363751        -9.8982
  64   2.0000      -0.337666        -9.1883
  65   2.0000      -0.322108        -8.7650
  66   2.0000      -0.283083        -7.7031
  67   0.0000       0.020769         0.5651
  68   0.0000       0.077904         2.1199
  69   0.0000       0.097579         2.6553
  70   0.0000       0.118382         3.2213
  71   0.0000       0.137996         3.7551

MULLIKEN ATOMIC CHARGES
-----------------------
   0 S :    0.114368
   1 C :   -0.104496
   2 C :   -0.087860
   3 C :    0.001292
   4 C :   -0.123725
   5 H :    0.026197
   6 C :    0.103044
   7 H :    0.021624
   8 H :   -0.007112
   9 C :   -0.111199
  10 H :    0.028176
  11 H :    0.023260
  12 C :   -0.044227
  13 H :    0.021730
  14 H :    0.053440
  15 H :    0.032264
  16 S :    0.068062
  17 C :   -0.096800
  18 C :   -0.039140
  19 C :   -0.113895
  20 C :   -0.096776
  21 H :    0.027398
  22 C :    0.108943
  23 H :    0.024876
  24 H :    0.024942
  25 C :   -0.090790
  26 H :    0.032649
  27 H :    0.033281
  28 C :   -0.053022
  29 H :    0.024761
  30 H :    0.042677
  31 H :    0.042890
  32 H :    0.044683
  33 H :    0.068482
Sum of atomic charges:   -0.0000000

LOEWDIN ATOMIC CHARGES
----------------------
   0 S :    0.409379
   1 C :   -0.201455
   2 C :   -0.060288
   3 C :   -0.061847
   4 C :   -0.168631
   5 H :    0.036561
   6 C :   -0.035897
   7 H :    0.032123
   8 H :    0.023234
   9 C :   -0.049324
  10 H :    0.025516
  11 H :    0.021777
  12 C :   -0.068008
  13 H :    0.019113
  14 H :    0.037238
  15 H :    0.027105
  16 S :    0.376021
  17 C :   -0.174489
  18 C :   -0.073773
  19 C :   -0.063548
  20 C :   -0.203707
  21 H :    0.033985
  22 C :   -0.029808
  23 H :    0.023910
  24 H :    0.031923
  25 C :   -0.033813
  26 H :    0.019286
  27 H :    0.029495
  28 C :   -0.068624
  29 H :    0.024921
  30 H :    0.034182
  31 H :    0.022864
  32 H :    0.025851
  33 H :    0.038729

  Mayer bond orders larger than 0.100000
B(  0-S ,  1-C ) :   1.1505 B(  0-S ,  4-C ) :   1.1388 B(  1-C ,  2-C ) :   1.6120
B(  1-C , 32-H ) :   0.9623 B(  2-C ,  3-C ) :   1.2508 B(  2-C ,  6-C ) :   1.0454
B(  3-C ,  4-C ) :   1.5649 B(  3-C ,  5-H ) :   0.9852 B(  4-C , 20-C ) :   1.0700
B(  6-C ,  7-H ) :   0.9349 B(  6-C ,  8-H ) :   0.9338 B(  6-C ,  9-C ) :   1.0496
B(  9-C , 10-H ) :   0.9478 B(  9-C , 11-H ) :   0.9602 B(  9-C , 12-C ) :   1.0866
B( 12-C , 13-H ) :   0.9739 B( 12-C , 14-H ) :   0.9723 B( 12-C , 15-H ) :   0.9680
B( 16-S , 17-C ) :   1.1264 B( 16-S , 20-C ) :   1.1241 B( 17-C , 18-C ) :   1.6343
B( 17-C , 33-H ) :   0.9667 B( 18-C , 19-C ) :   1.2201 B( 18-C , 21-H ) :   0.9868
B( 19-C , 20-C ) :   1.5952 B( 19-C , 22-C ) :   1.0359 B( 22-C , 23-H ) :   0.9251
B( 22-C , 24-H ) :   0.9367 B( 22-C , 25-C ) :   1.0579 B( 25-C , 26-H ) :   0.9651
B( 25-C , 27-H ) :   0.9507 B( 25-C , 28-C ) :   1.0745 B( 28-C , 29-H ) :   0.9760
B( 28-C , 30-H ) :   0.9733 B( 28-C , 31-H ) :   0.9796

Dispersion correction           -0.013343593
FINAL SINGLE POINT ENERGY     -1339.871112362739

DIPOLE MOMENT
-------------
                                X             Y             Z
Electronic contribution:      2.42447      28.81214      -1.99202
Nuclear contribution   :     -2.63801     -29.44528       2.06160
                        -----------------------------------------
Total Dipole Moment    :     -0.21355      -0.63314       0.06959
                        -----------------------------------------
Magnitude (a.u.)       :      0.67180
Magnitude (Debye)      :      1.70757

Rotational constants in cm-1:     0.017159     0.008215     0.006300
Rotational constants in MHz :   514.412607   246.273034   188.857906

                             ****ORCA TERMINATED NORMALLY****
TOTAL RUN TIME: 0 days 0 hours 0 minutes 29 seconds 262 msec
