                         Program Version 4.2.1 -  RELEASE  -
|  1> ! wB97X-D3 SP def2-SVP
|  2> %pal
|  3> nprocs 16
|  4> end
|  5>
|  6> * xyz 0 1
|  7> S 	 54.1028 	 12.3088 	 50.9029
|  8> C 	 53.8619 	 13.1119 	 49.361
|  9> C 	 52.8069 	 13.9929 	 49.4603
| 10> C 	 52.2192 	 14.042 	 50.7374
| 11> C 	 52.802 	 13.2091 	 51.6572
| 12> H 	 51.4132 	 14.7024 	 50.9848
| 13> C 	 52.3755 	 14.8773 	 48.3772
| 14> H 	 51.3731 	 15.2305 	 48.6283
| 15> H 	 52.4382 	 14.3434 	 47.4496
| 16> C 	 53.0865 	 16.1577 	 48.1295
| 17> H 	 54.0923 	 15.9609 	 47.7718
| 18> H 	 52.6635 	 16.6801 	 47.272
| 19> C 	 53.1324 	 17.0743 	 49.359
| 20> H 	 52.0981 	 17.3605 	 49.652
| 21> H 	 53.6384 	 16.6505 	 50.2373
| 22> H 	 53.6731 	 18.0298 	 49.1931
| 23> S 	 53.7023 	 13.058 	 54.2437
| 24> C 	 52.6366 	 12.8017 	 55.588
| 25> C 	 51.3191 	 13.0745 	 55.1956
| 26> C 	 51.1642 	 13.1764 	 53.7459
| 27> C 	 52.4324 	 13.0668 	 53.061
| 28> H 	 50.5151 	 13.1412 	 55.8802
| 29> C 	 49.9135 	 13.4496 	 53.1284
| 30> H 	 49.1882 	 12.7842 	 53.4661
| 31> H 	 50.1318 	 13.1886 	 52.049
| 32> C 	 49.3537 	 14.8612 	 53.2932
| 33> H 	 50.2108 	 15.4695 	 53.1706
| 34> H 	 49.0104 	 14.881 	 54.2731
| 35> C 	 48.216 	 15.3315 	 52.334
| 36> H 	 47.8558 	 16.369 	 52.4719
| 37> H 	 47.3119 	 14.8334 	 52.6201
| 38> H 	 48.4102 	 15.2155 	 51.2696
| 39> H 	 54.3323 	 12.9459 	 48.403
| 40> H 	 52.8635 	 12.7512 	 56.5948
| 41> *
| 42>
| 43>                          ****END OF INPUT****

CARTESIAN COORDINATES (ANGSTROEM)
---------------------------------
  S     54.102800   12.308800   50.902900
  C     53.861900   13.111900   49.361000
  C     52.806900   13.992900   49.460300
  C     52.219200   14.042000   50.737400
  C     52.802000   13.209100   51.657200
  H     51.413200   14.702400   50.984800
  C     52.375500   14.877300   48.377200
  H     51.373100   15.230500   48.628300
  H     52.438200   14.343400   47.449600
  C     53.086500   16.157700   48.129500
  H     54.092300   15.960900   47.771800
  H     52.663500   16.680100   47.272000
  C     53.132400   17.074300   49.359000
  H     52.098100   17.360500   49.652000
  H     53.638400   16.650500   50.237300
  H     53.673100   18.029800   49.193100
  S     53.702300   13.058000   54.243700
  C     52.636600   12.801700   55.588000
  C     51.319100   13.074500   55.195600
  C     51.164200   13.176400   53.745900
  C     52.432400   13.066800   53.061000
  H     50.515100   13.141200   55.880200
  C     49.913500   13.449600   53.128400
  H     49.188200   12.784200   53.466100
  H     50.131800   13.188600   52.049000
  C     49.353700   14.861200   53.293200
  H     50.210800   15.469500   53.170600
  H     49.010400   14.881000   54.273100
  C     48.216000   15.331500   52.334000
  H     47.855800   16.369000   52.471900
  H     47.311900   14.833400   52.620100
  H     48.410200   15.215500   51.269600
  H     54.332300   12.945900   48.403000
  H     52.863500   12.751200   56.594800

 Total Charge           Charge          ....    0
 Multiplicity           Mult            ....    1
 Number of Electrons    NEL             ....  134
 Basis Dimension        Dim             ....  322

ORBITAL ENERGIES
----------------

  NO   OCC          E(Eh)            E(eV)
   0   2.0000     -88.970249     -2421.0035
   1   2.0000     -88.966638     -2420.9053
   2   2.0000     -10.332446      -281.1601
   3   2.0000     -10.331714      -281.1402
   4   2.0000     -10.314398      -280.6690
   5   2.0000     -10.314102      -280.6610
   6   2.0000     -10.304828      -280.4086
   7   2.0000     -10.295144      -280.1451
   8   2.0000     -10.293617      -280.1036
   9   2.0000     -10.290662      -280.0231
  10   2.0000     -10.283199      -279.8201
  11   2.0000     -10.282818      -279.8097
  12   2.0000     -10.282466      -279.8001
  13   2.0000     -10.282294      -279.7955
  14   2.0000     -10.279793      -279.7274
  15   2.0000     -10.279072      -279.7078
  16   2.0000      -8.084488      -219.9901
  17   2.0000      -8.081545      -219.9100
  18   2.0000      -6.043093      -164.4409
  19   2.0000      -6.040117      -164.3599
  20   2.0000      -6.038953      -164.3283
  21   2.0000      -6.035924      -164.2459
  22   2.0000      -6.035258      -164.2277
  23   2.0000      -6.032341      -164.1483
  24   2.0000      -1.009573       -27.4719
  25   2.0000      -0.986599       -26.8467
  26   2.0000      -0.923844       -25.1391
  27   2.0000      -0.919308       -25.0157
  28   2.0000      -0.871088       -23.7035
  29   2.0000      -0.853087       -23.2137
  30   2.0000      -0.846947       -23.0466
  31   2.0000      -0.819395       -22.2969
  32   2.0000      -0.785214       -21.3667
  33   2.0000      -0.773407       -21.0455
  34   2.0000      -0.715643       -19.4736
  35   2.0000      -0.707832       -19.2611
  36   2.0000      -0.700925       -19.0732
  37   2.0000      -0.665084       -18.0979
  38   2.0000      -0.639118       -17.3913
  39   2.0000      -0.621538       -16.9129
  40   2.0000      -0.595067       -16.1926
  41   2.0000      -0.580379       -15.7929
  42   2.0000      -0.578364       -15.7381
  43   2.0000      -0.557485       -15.1699
  44   2.0000      -0.549014       -14.9394
  45   2.0000      -0.526647       -14.3308
  46   2.0000      -0.514960       -14.0128
  47   2.0000      -0.511935       -13.9305
  48   2.0000      -0.507912       -13.8210
  49   2.0000      -0.505768       -13.7626
  50   2.0000      -0.491811       -13.3829
  51   2.0000      -0.483771       -13.1641
  52   2.0000      -0.475170       -12.9300
  53   2.0000      -0.464903       -12.6506
  54   2.0000      -0.462867       -12.5953
  55   2.0000      -0.457236       -12.4420
  56   2.0000      -0.441367       -12.0102
  57   2.0000      -0.438190       -11.9238
  58   2.0000      -0.432625       -11.7723
  59   2.0000      -0.427399       -11.6301
  60   2.0000      -0.421716       -11.4755
  61   2.0000      -0.415642       -11.3102
  62   2.0000      -0.410518       -11.1708
  63   2.0000      -0.353399        -9.6165
  64   2.0000      -0.332796        -9.0558
  65   2.0000      -0.323752        -8.8097
  66   2.0000      -0.287355        -7.8193
  67   0.0000       0.020732         0.5641
  68   0.0000       0.074036         2.0146
  69   0.0000       0.106781         2.9057
  70   0.0000       0.111279         3.0281
  71   0.0000       0.129645         3.5278

MULLIKEN ATOMIC CHARGES
-----------------------
   0 S :    0.124380
   1 C :   -0.109817
   2 C :   -0.094911
   3 C :    0.025280
   4 C :   -0.135705
   5 H :   -0.005114
   6 C :    0.088946
   7 H :    0.009561
   8 H :    0.019920
   9 C :   -0.035554
  10 H :    0.009127
  11 H :    0.027243
  12 C :   -0.087057
  13 H :    0.023276
  14 H :    0.052250
  15 H :    0.035599
  16 S :    0.110127
  17 C :   -0.048683
  18 C :   -0.032230
  19 C :   -0.060874
  20 C :   -0.134630
  21 H :    0.006187
  22 C :    0.050349
  23 H :    0.007500
  24 H :    0.026322
  25 C :   -0.027658
  26 H :    0.023492
  27 H :    0.011261
  28 C :   -0.041512
  29 H :    0.032241
  30 H :    0.018726
  31 H :    0.037024
  32 H :    0.041028
  33 H :    0.033906
Sum of atomic charges:   -0.0000000

LOEWDIN ATOMIC CHARGES
----------------------
   0 S :    0.412976
   1 C :   -0.195150
   2 C :   -0.066280
   3 C :   -0.061497
   4 C :   -0.193550
   5 H :    0.027816
   6 C :   -0.034379
   7 H :    0.030040
   8 H :    0.032187
   9 C :   -0.039302
  10 H :    0.017444
  11 H :    0.026602
  12 C :   -0.073412
  13 H :    0.023105
  14 H :    0.030090
  15 H :    0.029318
  16 S :    0.425553
  17 C :   -0.183518
  18 C :   -0.060058
  19 C :   -0.051899
  20 C :   -0.205560
  21 H :    0.022478
  22 C :   -0.044205
  23 H :    0.021513
  24 H :    0.038508
  25 C :   -0.024717
  26 H :    0.017784
  27 H :    0.017429
  28 C :   -0.067411
  29 H :    0.032363
  30 H :    0.022858
  31 H :    0.024208
  32 H :    0.031574
  33 H :    0.017093

  Mayer bond orders larger than 0.100000
B(  0-S ,  1-C ) :   1.1297 B(  0-S ,  4-C ) :   1.1578 B(  1-C ,  2-C ) :   1.5918
B(  1-C , 32-H ) :   0.9689 B(  2-C ,  3-C ) :   1.2634 B(  2-C ,  6-C ) :   1.0429
B(  3-C ,  4-C ) :   1.5325 B(  3-C ,  5-H ) :   0.9974 B(  4-C , 20-C ) :   1.0529
B(  6-C ,  7-H ) :   0.9329 B(  6-C ,  8-H ) :   0.9250 B(  6-C ,  9-C ) :   1.0920
B(  9-C , 10-H ) :   0.9459 B(  9-C , 11-H ) :   0.9520 B(  9-C , 12-C ) :   1.0769
B( 12-C , 13-H ) :   0.9739 B( 12-C , 14-H ) :   0.9728 B( 12-C , 15-H ) :   0.9731
B( 16-S , 17-C ) :   1.1630 B( 16-S , 20-C ) :   1.1610 B( 17-C , 18-C ) :   1.5741
B( 17-C , 20-C ) :   0.1019 B( 17-C , 33-H ) :   0.9764 B( 18-C , 19-C ) :   1.2615
B( 18-C , 21-H ) :   0.9928 B( 19-C , 20-C ) :   1.5173 B( 19-C , 22-C ) :   1.0950
B( 22-C , 23-H ) :   0.9137 B( 22-C , 24-H ) :   0.9248 B( 22-C , 25-C ) :   1.0486
B( 25-C , 26-H ) :   0.9593 B( 25-C , 27-H ) :   0.9506 B( 25-C , 28-C ) :   1.0836
B( 28-C , 29-H ) :   0.9732 B( 28-C , 30-H ) :   0.9724 B( 28-C , 31-H ) :   0.9780

Dispersion correction           -0.014853742
FINAL SINGLE POINT ENERGY     -1339.867151897670

DIPOLE MOMENT
-------------
                                X             Y             Z
Electronic contribution:     18.46836     -19.59122      11.36055
Nuclear contribution   :    -19.01030      20.08789     -11.53229
                        -----------------------------------------
Total Dipole Moment    :     -0.54194       0.49667      -0.17174
                        -----------------------------------------
Magnitude (a.u.)       :      0.75490
Magnitude (Debye)      :      1.91881

Rotational constants in cm-1:     0.017080     0.010033     0.007265
Rotational constants in MHz :   512.041112   300.782708   217.808654

                             ****ORCA TERMINATED NORMALLY****
TOTAL RUN TIME: 0 days 0 hours 0 minutes 31 seconds 521 msec
