                         Program Version 4.2.1 -  RELEASE  -
|  1> ! wB97X-D3 SP def2-SVP
|  2> %pal
|  3> nprocs 16
|  4> end
|  5>
|  6> * xyz 0 1
|  7> S 	 69.3174 	 16.4895 	 73.2743
|  8> C 	 70.6625 	 17.489 	 72.9124
|  9> C 	 70.6484 	 18.6639 	 73.6179
| 10> C 	 69.5111 	 18.7321 	 74.4439
| 11> C 	 68.7784 	 17.6 	 74.548
| 12> H 	 69.2845 	 19.6314 	 75.0063
| 13> C 	 71.6268 	 19.8588 	 73.5708
| 14> H 	 72.5264 	 19.4767 	 74.1586
| 15> H 	 71.2568 	 20.7613 	 74.1442
| 16> C 	 72.3037 	 20.2886 	 72.2439
| 17> H 	 71.5903 	 20.6395 	 71.49
| 18> H 	 72.8582 	 21.1815 	 72.5911
| 19> C 	 73.2026 	 19.3578 	 71.3901
| 20> H 	 73.8886 	 18.8044 	 72.0878
| 21> H 	 72.5732 	 18.5921 	 70.947
| 22> H 	 73.6699 	 19.9175 	 70.6031
| 23> S 	 65.953 	 17.5283 	 74.7213
| 24> C 	 65.2838 	 17.5645 	 76.3137
| 25> C 	 66.255 	 17.6119 	 77.2634
| 26> C 	 67.5354 	 17.4112 	 76.7471
| 27> C 	 67.5728 	 17.445 	 75.3776
| 28> H 	 66.0701 	 17.6386 	 78.322
| 29> C 	 68.751 	 17.2805 	 77.5745
| 30> H 	 68.7382 	 18.2289 	 78.11
| 31> H 	 69.7153 	 17.144 	 76.9453
| 32> C 	 68.7512 	 16.1185 	 78.6314
| 33> H 	 68.446 	 15.3049 	 78.03
| 34> H 	 67.9359 	 16.2633 	 79.3351
| 35> C 	 70.115 	 15.9507 	 79.3659
| 36> H 	 70.4939 	 16.8312 	 79.816
| 37> H 	 70.9167 	 15.5685 	 78.6798
| 38> H 	 70.0442 	 15.1412 	 80.0812
| 39> H 	 71.2515 	 17.3614 	 71.9536
| 40> H 	 64.2336 	 17.4628 	 76.6367
| 41> *
| 42>
| 43>                          ****END OF INPUT****

CARTESIAN COORDINATES (ANGSTROEM)
---------------------------------
  S     69.317400   16.489500   73.274300
  C     70.662500   17.489000   72.912400
  C     70.648400   18.663900   73.617900
  C     69.511100   18.732100   74.443900
  C     68.778400   17.600000   74.548000
  H     69.284500   19.631400   75.006300
  C     71.626800   19.858800   73.570800
  H     72.526400   19.476700   74.158600
  H     71.256800   20.761300   74.144200
  C     72.303700   20.288600   72.243900
  H     71.590300   20.639500   71.490000
  H     72.858200   21.181500   72.591100
  C     73.202600   19.357800   71.390100
  H     73.888600   18.804400   72.087800
  H     72.573200   18.592100   70.947000
  H     73.669900   19.917500   70.603100
  S     65.953000   17.528300   74.721300
  C     65.283800   17.564500   76.313700
  C     66.255000   17.611900   77.263400
  C     67.535400   17.411200   76.747100
  C     67.572800   17.445000   75.377600
  H     66.070100   17.638600   78.322000
  C     68.751000   17.280500   77.574500
  H     68.738200   18.228900   78.110000
  H     69.715300   17.144000   76.945300
  C     68.751200   16.118500   78.631400
  H     68.446000   15.304900   78.030000
  H     67.935900   16.263300   79.335100
  C     70.115000   15.950700   79.365900
  H     70.493900   16.831200   79.816000
  H     70.916700   15.568500   78.679800
  H     70.044200   15.141200   80.081200
  H     71.251500   17.361400   71.953600
  H     64.233600   17.462800   76.636700

 Total Charge           Charge          ....    0
 Multiplicity           Mult            ....    1
 Number of Electrons    NEL             ....  134
 Basis Dimension        Dim             ....  322

ORBITAL ENERGIES
----------------

  NO   OCC          E(Eh)            E(eV)
   0   2.0000     -88.964957     -2420.8596
   1   2.0000     -88.962991     -2420.8061
   2   2.0000     -10.324445      -280.9424
   3   2.0000     -10.318956      -280.7931
   4   2.0000     -10.315990      -280.7124
   5   2.0000     -10.313468      -280.6437
   6   2.0000     -10.308196      -280.5003
   7   2.0000     -10.297943      -280.2213
   8   2.0000     -10.291780      -280.0536
   9   2.0000     -10.291543      -280.0471
  10   2.0000     -10.289556      -279.9931
  11   2.0000     -10.286860      -279.9197
  12   2.0000     -10.286454      -279.9087
  13   2.0000     -10.285362      -279.8789
  14   2.0000     -10.284754      -279.8624
  15   2.0000     -10.279633      -279.7230
  16   2.0000      -8.080042      -219.8691
  17   2.0000      -8.078143      -219.8174
  18   2.0000      -6.038566      -164.3177
  19   2.0000      -6.036614      -164.2646
  20   2.0000      -6.034529      -164.2079
  21   2.0000      -6.032608      -164.1556
  22   2.0000      -6.030730      -164.1045
  23   2.0000      -6.028902      -164.0548
  24   2.0000      -1.011680       -27.5292
  25   2.0000      -0.992581       -27.0095
  26   2.0000      -0.905816       -24.6485
  27   2.0000      -0.904219       -24.6050
  28   2.0000      -0.869157       -23.6510
  29   2.0000      -0.852579       -23.1999
  30   2.0000      -0.849634       -23.1197
  31   2.0000      -0.813636       -22.1402
  32   2.0000      -0.785678       -21.3794
  33   2.0000      -0.771908       -21.0047
  34   2.0000      -0.704807       -19.1788
  35   2.0000      -0.696708       -18.9584
  36   2.0000      -0.694489       -18.8980
  37   2.0000      -0.658781       -17.9263
  38   2.0000      -0.638281       -17.3685
  39   2.0000      -0.616474       -16.7751
  40   2.0000      -0.593440       -16.1483
  41   2.0000      -0.572725       -15.5846
  42   2.0000      -0.561652       -15.2833
  43   2.0000      -0.546782       -14.8787
  44   2.0000      -0.534617       -14.5477
  45   2.0000      -0.525184       -14.2910
  46   2.0000      -0.521356       -14.1868
  47   2.0000      -0.508639       -13.8408
  48   2.0000      -0.503182       -13.6923
  49   2.0000      -0.494624       -13.4594
  50   2.0000      -0.490490       -13.3469
  51   2.0000      -0.484113       -13.1734
  52   2.0000      -0.470684       -12.8080
  53   2.0000      -0.464856       -12.6494
  54   2.0000      -0.460549       -12.5322
  55   2.0000      -0.450876       -12.2690
  56   2.0000      -0.449377       -12.2282
  57   2.0000      -0.437318       -11.9000
  58   2.0000      -0.428737       -11.6665
  59   2.0000      -0.426667       -11.6102
  60   2.0000      -0.418110       -11.3774
  61   2.0000      -0.415354       -11.3024
  62   2.0000      -0.409111       -11.1325
  63   2.0000      -0.339053        -9.2261
  64   2.0000      -0.329652        -8.9703
  65   2.0000      -0.320958        -8.7337
  66   2.0000      -0.303665        -8.2631
  67   0.0000       0.037312         1.0153
  68   0.0000       0.066461         1.8085
  69   0.0000       0.121331         3.3016
  70   0.0000       0.128968         3.5094
  71   0.0000       0.130709         3.5568

MULLIKEN ATOMIC CHARGES
-----------------------
   0 S :    0.108983
   1 C :   -0.151965
   2 C :   -0.056545
   3 C :    0.030484
   4 C :   -0.187243
   5 H :    0.010640
   6 C :    0.018790
   7 H :    0.048816
   8 H :    0.047408
   9 C :   -0.105025
  10 H :    0.031072
  11 H :    0.033111
  12 C :   -0.043308
  13 H :    0.035686
  14 H :    0.026717
  15 H :    0.044989
  16 S :    0.121172
  17 C :   -0.088229
  18 C :   -0.030715
  19 C :   -0.033519
  20 C :   -0.157135
  21 H :    0.008940
  22 C :    0.029003
  23 H :    0.027212
  24 H :    0.057571
  25 C :   -0.072171
  26 H :    0.025203
  27 H :    0.022051
  28 C :   -0.031665
  29 H :    0.030149
  30 H :    0.033904
  31 H :    0.031613
  32 H :    0.069342
  33 H :    0.064662
Sum of atomic charges:   -0.0000000

LOEWDIN ATOMIC CHARGES
----------------------
   0 S :    0.406954
   1 C :   -0.219952
   2 C :   -0.074432
   3 C :   -0.053661
   4 C :   -0.194198
   5 H :    0.031768
   6 C :   -0.040419
   7 H :    0.044191
   8 H :    0.040913
   9 C :   -0.051715
  10 H :    0.022375
  11 H :    0.028443
  12 C :   -0.062177
  13 H :    0.028333
  14 H :    0.019592
  15 H :    0.029711
  16 S :    0.414455
  17 C :   -0.190074
  18 C :   -0.074959
  19 C :   -0.059638
  20 C :   -0.208363
  21 H :    0.028501
  22 C :   -0.038331
  23 H :    0.030284
  24 H :    0.043526
  25 C :   -0.035674
  26 H :    0.020813
  27 H :    0.018332
  28 C :   -0.063360
  29 H :    0.020518
  30 H :    0.032603
  31 H :    0.026772
  32 H :    0.038965
  33 H :    0.039903

  Mayer bond orders larger than 0.100000
B(  0-S ,  1-C ) :   1.1572 B(  0-S ,  4-C ) :   1.1367 B(  1-C ,  2-C ) :   1.6056
B(  1-C , 32-H ) :   0.9488 B(  2-C ,  3-C ) :   1.2744 B(  2-C ,  6-C ) :   0.9973
B(  3-C ,  4-C ) :   1.5784 B(  3-C ,  5-H ) :   0.9954 B(  4-C , 20-C ) :   1.0227
B(  6-C ,  7-H ) :   0.9326 B(  6-C ,  8-H ) :   0.9503 B(  6-C ,  9-C ) :   1.0641
B(  9-C , 10-H ) :   0.9591 B(  9-C , 11-H ) :   0.9544 B(  9-C , 12-C ) :   1.0718
B( 12-C , 13-H ) :   0.9767 B( 12-C , 14-H ) :   0.9725 B( 12-C , 15-H ) :   0.9690
B( 16-S , 17-C ) :   1.1637 B( 16-S , 20-C ) :   1.1328 B( 17-C , 18-C ) :   1.5990
B( 17-C , 33-H ) :   0.9606 B( 18-C , 19-C ) :   1.2644 B( 18-C , 21-H ) :   0.9893
B( 19-C , 20-C ) :   1.5959 B( 19-C , 22-C ) :   1.0483 B( 22-C , 23-H ) :   0.9238
B( 22-C , 24-H ) :   0.9377 B( 22-C , 25-C ) :   1.0502 B( 25-C , 26-H ) :   0.9601
B( 25-C , 27-H ) :   0.9545 B( 25-C , 28-C ) :   1.0825 B( 28-C , 29-H ) :   0.9765
B( 28-C , 30-H ) :   0.9733 B( 28-C , 31-H ) :   0.9747

Dispersion correction           -0.013996058
FINAL SINGLE POINT ENERGY     -1339.869586476311

DIPOLE MOMENT
-------------
                                X             Y             Z
Electronic contribution:    -22.04015      -6.12744      -8.57114
Nuclear contribution   :     22.37542       6.53137       8.92717
                        -----------------------------------------
Total Dipole Moment    :      0.33527       0.40392       0.35603
                        -----------------------------------------
Magnitude (a.u.)       :      0.63428
Magnitude (Debye)      :      1.61222

Rotational constants in cm-1:     0.019879     0.007557     0.006321
Rotational constants in MHz :   595.954416   226.554094   189.494720

                             ****ORCA TERMINATED NORMALLY****
TOTAL RUN TIME: 0 days 0 hours 0 minutes 29 seconds 467 msec
