                         Program Version 4.2.1 -  RELEASE  -
|  1> ! wB97X-D3 SP def2-SVP
|  2> %pal
|  3> nprocs 16
|  4> end
|  5>
|  6> * xyz 0 1
|  7> S 	 9.40535 	 -0.46804 	 86.1168
|  8> C 	 10.7113 	 0.479333 	 86.8522
|  9> C 	 10.7852 	 1.7132 	 86.3509
| 10> C 	 9.7747 	 1.86309 	 85.3071
| 11> C 	 9.08131 	 0.725674 	 84.9159
| 12> H 	 9.63733 	 2.72241 	 84.6953
| 13> C 	 11.6095 	 2.88706 	 86.7761
| 14> H 	 12.0974 	 2.72312 	 87.7306
| 15> H 	 10.8484 	 3.67216 	 87.0278
| 16> C 	 12.4919 	 3.55985 	 85.6881
| 17> H 	 11.8971 	 3.67005 	 84.812
| 18> H 	 12.7985 	 4.58294 	 85.9883
| 19> C 	 13.705 	 2.64785 	 85.3495
| 20> H 	 14.2728 	 2.2344 	 86.1438
| 21> H 	 13.325 	 1.71303 	 84.9304
| 22> H 	 14.3037 	 3.01661 	 84.4915
| 23> S 	 6.55359 	 -0.218975 	 84.5307
| 24> C 	 5.81477 	 -0.1216 	 82.97
| 25> C 	 6.62224 	 0.648981 	 82.1514
| 26> C 	 7.91046 	 0.944954 	 82.608
| 27> C 	 8.03524 	 0.51119 	 83.9318
| 28> H 	 6.30711 	 0.881659 	 81.1075
| 29> C 	 8.97226 	 1.60035 	 81.7822
| 30> H 	 9.36723 	 0.90575 	 81.02
| 31> H 	 9.7644 	 1.75377 	 82.4212
| 32> C 	 8.5285 	 2.94591 	 81.102
| 33> H 	 8.36191 	 3.65961 	 81.8339
| 34> H 	 7.5576 	 2.87249 	 80.5982
| 35> C 	 9.5438 	 3.38708 	 80.085
| 36> H 	 10.6158 	 3.45629 	 80.4603
| 37> H 	 9.17102 	 4.43457 	 79.906
| 38> H 	 9.51353 	 2.92246 	 79.0456
| 39> H 	 11.3973 	 0.221124 	 87.6603
| 40> H 	 4.77733 	 -0.421701 	 82.8103
| 41> *
| 42>
| 43>                          ****END OF INPUT****

CARTESIAN COORDINATES (ANGSTROEM)
---------------------------------
  S      9.405350   -0.468040   86.116800
  C     10.711300    0.479333   86.852200
  C     10.785200    1.713200   86.350900
  C      9.774700    1.863090   85.307100
  C      9.081310    0.725674   84.915900
  H      9.637330    2.722410   84.695300
  C     11.609500    2.887060   86.776100
  H     12.097400    2.723120   87.730600
  H     10.848400    3.672160   87.027800
  C     12.491900    3.559850   85.688100
  H     11.897100    3.670050   84.812000
  H     12.798500    4.582940   85.988300
  C     13.705000    2.647850   85.349500
  H     14.272800    2.234400   86.143800
  H     13.325000    1.713030   84.930400
  H     14.303700    3.016610   84.491500
  S      6.553590   -0.218975   84.530700
  C      5.814770   -0.121600   82.970000
  C      6.622240    0.648981   82.151400
  C      7.910460    0.944954   82.608000
  C      8.035240    0.511190   83.931800
  H      6.307110    0.881659   81.107500
  C      8.972260    1.600350   81.782200
  H      9.367230    0.905750   81.020000
  H      9.764400    1.753770   82.421200
  C      8.528500    2.945910   81.102000
  H      8.361910    3.659610   81.833900
  H      7.557600    2.872490   80.598200
  C      9.543800    3.387080   80.085000
  H     10.615800    3.456290   80.460300
  H      9.171020    4.434570   79.906000
  H      9.513530    2.922460   79.045600
  H     11.397300    0.221124   87.660300
  H      4.777330   -0.421701   82.810300

 Total Charge           Charge          ....    0
 Multiplicity           Mult            ....    1
 Number of Electrons    NEL             ....  134
 Basis Dimension        Dim             ....  322

ORBITAL ENERGIES
----------------

  NO   OCC          E(Eh)            E(eV)
   0   2.0000     -88.966345     -2420.8973
   1   2.0000     -88.960551     -2420.7397
   2   2.0000     -10.328960      -281.0653
   3   2.0000     -10.328652      -281.0569
   4   2.0000     -10.318776      -280.7882
   5   2.0000     -10.310574      -280.5650
   6   2.0000     -10.301782      -280.3257
   7   2.0000     -10.299095      -280.2526
   8   2.0000     -10.297614      -280.2123
   9   2.0000     -10.294434      -280.1258
  10   2.0000     -10.293988      -280.1137
  11   2.0000     -10.291757      -280.0529
  12   2.0000     -10.291591      -280.0484
  13   2.0000     -10.287884      -279.9476
  14   2.0000     -10.287645      -279.9411
  15   2.0000     -10.275119      -279.6002
  16   2.0000      -8.081479      -219.9082
  17   2.0000      -8.075732      -219.7518
  18   2.0000      -6.039878      -164.3534
  19   2.0000      -6.035913      -164.2455
  20   2.0000      -6.034451      -164.2057
  21   2.0000      -6.032328      -164.1480
  22   2.0000      -6.030214      -164.0905
  23   2.0000      -6.026170      -163.9804
  24   2.0000      -1.011652       -27.5284
  25   2.0000      -0.988657       -26.9027
  26   2.0000      -0.915135       -24.9021
  27   2.0000      -0.912941       -24.8424
  28   2.0000      -0.872005       -23.7285
  29   2.0000      -0.859069       -23.3765
  30   2.0000      -0.837752       -22.7964
  31   2.0000      -0.812794       -22.1172
  32   2.0000      -0.785248       -21.3677
  33   2.0000      -0.777538       -21.1579
  34   2.0000      -0.712930       -19.3998
  35   2.0000      -0.705594       -19.2002
  36   2.0000      -0.698838       -19.0163
  37   2.0000      -0.658748       -17.9255
  38   2.0000      -0.639019       -17.3886
  39   2.0000      -0.620231       -16.8773
  40   2.0000      -0.604437       -16.4476
  41   2.0000      -0.567405       -15.4399
  42   2.0000      -0.564826       -15.3697
  43   2.0000      -0.545740       -14.8503
  44   2.0000      -0.533771       -14.5247
  45   2.0000      -0.533236       -14.5101
  46   2.0000      -0.519820       -14.1450
  47   2.0000      -0.515292       -14.0218
  48   2.0000      -0.505302       -13.7500
  49   2.0000      -0.497725       -13.5438
  50   2.0000      -0.492542       -13.4027
  51   2.0000      -0.485079       -13.1997
  52   2.0000      -0.473711       -12.8903
  53   2.0000      -0.465200       -12.6587
  54   2.0000      -0.462640       -12.5891
  55   2.0000      -0.452422       -12.3110
  56   2.0000      -0.443839       -12.0775
  57   2.0000      -0.438144       -11.9225
  58   2.0000      -0.432539       -11.7700
  59   2.0000      -0.427169       -11.6239
  60   2.0000      -0.424350       -11.5472
  61   2.0000      -0.416785       -11.3413
  62   2.0000      -0.408433       -11.1140
  63   2.0000      -0.352216        -9.5843
  64   2.0000      -0.332972        -9.0606
  65   2.0000      -0.324048        -8.8178
  66   2.0000      -0.291631        -7.9357
  67   0.0000       0.026504         0.7212
  68   0.0000       0.076905         2.0927
  69   0.0000       0.105427         2.8688
  70   0.0000       0.124061         3.3759
  71   0.0000       0.128525         3.4974

MULLIKEN ATOMIC CHARGES
-----------------------
   0 S :    0.088427
   1 C :   -0.114657
   2 C :   -0.071346
   3 C :    0.031354
   4 C :   -0.164106
   5 H :   -0.006911
   6 C :    0.040025
   7 H :    0.020078
   8 H :    0.043229
   9 C :   -0.042271
  10 H :    0.019579
  11 H :    0.037413
  12 C :   -0.051531
  13 H :    0.024525
  14 H :    0.020606
  15 H :    0.038861
  16 S :    0.108223
  17 C :   -0.095285
  18 C :   -0.057453
  19 C :   -0.036825
  20 C :   -0.145894
  21 H :    0.027530
  22 C :    0.130667
  23 H :    0.039418
  24 H :   -0.012841
  25 C :   -0.064949
  26 H :    0.016794
  27 H :    0.029363
  28 C :   -0.094798
  29 H :    0.048448
  30 H :    0.032245
  31 H :    0.054739
  32 H :    0.038248
  33 H :    0.069092
Sum of atomic charges:    0.0000000

LOEWDIN ATOMIC CHARGES
----------------------
   0 S :    0.394378
   1 C :   -0.189840
   2 C :   -0.068412
   3 C :   -0.064397
   4 C :   -0.197945
   5 H :    0.016969
   6 C :   -0.034017
   7 H :    0.026890
   8 H :    0.044222
   9 C :   -0.031521
  10 H :    0.019963
  11 H :    0.026791
  12 C :   -0.075422
  13 H :    0.019833
  14 H :    0.028690
  15 H :    0.029895
  16 S :    0.415997
  17 C :   -0.194116
  18 C :   -0.074986
  19 C :   -0.057483
  20 C :   -0.196133
  21 H :    0.033078
  22 C :   -0.023856
  23 H :    0.039167
  24 H :    0.016357
  25 C :   -0.033479
  26 H :    0.016089
  27 H :    0.027668
  28 C :   -0.080923
  29 H :    0.031457
  30 H :    0.033393
  31 H :    0.034359
  32 H :    0.033567
  33 H :    0.033771

  Mayer bond orders larger than 0.100000
B(  0-S ,  1-C ) :   1.1139 B(  0-S ,  4-C ) :   1.1363 B(  1-C ,  2-C ) :   1.6630
B(  1-C , 32-H ) :   0.9608 B(  2-C ,  3-C ) :   1.1949 B(  2-C ,  6-C ) :   1.0239
B(  3-C ,  4-C ) :   1.5979 B(  3-C ,  5-H ) :   0.9905 B(  4-C , 20-C ) :   1.0411
B(  6-C ,  7-H ) :   0.9466 B(  6-C ,  8-H ) :   0.9346 B(  6-C ,  9-C ) :   1.0673
B(  9-C , 10-H ) :   0.9549 B(  9-C , 11-H ) :   0.9584 B(  9-C , 12-C ) :   1.0659
B( 12-C , 13-H ) :   0.9776 B( 12-C , 14-H ) :   0.9701 B( 12-C , 15-H ) :   0.9750
B( 16-S , 17-C ) :   1.1594 B( 16-S , 20-C ) :   1.1659 B( 17-C , 18-C ) :   1.5758
B( 17-C , 20-C ) :   0.1067 B( 17-C , 33-H ) :   0.9701 B( 18-C , 19-C ) :   1.2729
B( 18-C , 21-H ) :   0.9790 B( 19-C , 20-C ) :   1.5540 B( 19-C , 22-C ) :   1.0533
B( 22-C , 23-H ) :   0.9310 B( 22-C , 24-H ) :   0.9144 B( 22-C , 25-C ) :   1.0529
B( 25-C , 26-H ) :   0.9569 B( 25-C , 27-H ) :   0.9544 B( 25-C , 28-C ) :   1.0840
B( 28-C , 29-H ) :   0.9717 B( 28-C , 30-H ) :   0.9722 B( 28-C , 31-H ) :   0.9733

Dispersion correction           -0.013987457
FINAL SINGLE POINT ENERGY     -1339.868602431603

DIPOLE MOMENT
-------------
                                X             Y             Z
Electronic contribution:    -19.08310     -20.82220      13.41062
Nuclear contribution   :     19.23532      21.48215     -13.78596
                        -----------------------------------------
Total Dipole Moment    :      0.15222       0.65995      -0.37534
                        -----------------------------------------
Magnitude (a.u.)       :      0.77434
Magnitude (Debye)      :      1.96820

Rotational constants in cm-1:     0.016444     0.009852     0.006542
Rotational constants in MHz :   492.976890   295.348721   196.115275

                             ****ORCA TERMINATED NORMALLY****
TOTAL RUN TIME: 0 days 0 hours 0 minutes 34 seconds 868 msec
