                         Program Version 4.2.1 -  RELEASE  -
|  1> ! wB97X-D3 SP def2-SVP
|  2> %pal
|  3> nprocs 16
|  4> end
|  5>
|  6> * xyz 0 1
|  7> S 	 -6.78758 	 -9.60876 	 84.3567
|  8> C 	 -7.47932 	 -10.0272 	 82.8299
|  9> C 	 -8.37817 	 -9.02326 	 82.4943
| 10> C 	 -8.46282 	 -7.92433 	 83.4508
| 11> C 	 -7.59991 	 -8.08058 	 84.5267
| 12> H 	 -9.11886 	 -7.08457 	 83.4479
| 13> C 	 -9.20225 	 -9.03749 	 81.2245
| 14> H 	 -9.93179 	 -9.8747 	 81.3008
| 15> H 	 -8.64535 	 -9.35506 	 80.3605
| 16> C 	 -10.0246 	 -7.7071 	 80.9613
| 17> H 	 -10.6989 	 -7.47478 	 81.8213
| 18> H 	 -9.40915 	 -6.83628 	 80.855
| 19> C 	 -10.9596 	 -7.82909 	 79.8035
| 20> H 	 -10.3729 	 -8.16457 	 78.9483
| 21> H 	 -11.682 	 -8.59428 	 79.9909
| 22> H 	 -11.2878 	 -6.90443 	 79.5008
| 23> S 	 -7.23553 	 -8.08087 	 87.1413
| 24> C 	 -7.50387 	 -6.57028 	 88.0885
| 25> C 	 -7.50046 	 -5.50013 	 87.2269
| 26> C 	 -7.4204 	 -5.87754 	 85.8234
| 27> C 	 -7.29052 	 -7.22945 	 85.6443
| 28> H 	 -7.66462 	 -4.48582 	 87.667
| 29> C 	 -7.43742 	 -4.77926 	 84.8113
| 30> H 	 -8.36401 	 -4.25961 	 84.8188
| 31> H 	 -7.23879 	 -5.20583 	 83.8309
| 32> C 	 -6.30854 	 -3.81659 	 85.13
| 33> H 	 -5.37733 	 -4.35845 	 85.1926
| 34> H 	 -6.48055 	 -3.33714 	 86.0758
| 35> C 	 -6.13387 	 -2.64985 	 84.1275
| 36> H 	 -6.03749 	 -2.82949 	 83.0655
| 37> H 	 -5.19834 	 -2.15274 	 84.4442
| 38> H 	 -6.869 	 -1.86056 	 84.2419
| 39> H 	 -7.20205 	 -10.8055 	 82.0892
| 40> H 	 -7.62806 	 -6.48182 	 89.1367
| 41> *
| 42>
| 43>                          ****END OF INPUT****

CARTESIAN COORDINATES (ANGSTROEM)
---------------------------------
  S     -6.787580   -9.608760   84.356700
  C     -7.479320  -10.027200   82.829900
  C     -8.378170   -9.023260   82.494300
  C     -8.462820   -7.924330   83.450800
  C     -7.599910   -8.080580   84.526700
  H     -9.118860   -7.084570   83.447900
  C     -9.202250   -9.037490   81.224500
  H     -9.931790   -9.874700   81.300800
  H     -8.645350   -9.355060   80.360500
  C    -10.024600   -7.707100   80.961300
  H    -10.698900   -7.474780   81.821300
  H     -9.409150   -6.836280   80.855000
  C    -10.959600   -7.829090   79.803500
  H    -10.372900   -8.164570   78.948300
  H    -11.682000   -8.594280   79.990900
  H    -11.287800   -6.904430   79.500800
  S     -7.235530   -8.080870   87.141300
  C     -7.503870   -6.570280   88.088500
  C     -7.500460   -5.500130   87.226900
  C     -7.420400   -5.877540   85.823400
  C     -7.290520   -7.229450   85.644300
  H     -7.664620   -4.485820   87.667000
  C     -7.437420   -4.779260   84.811300
  H     -8.364010   -4.259610   84.818800
  H     -7.238790   -5.205830   83.830900
  C     -6.308540   -3.816590   85.130000
  H     -5.377330   -4.358450   85.192600
  H     -6.480550   -3.337140   86.075800
  C     -6.133870   -2.649850   84.127500
  H     -6.037490   -2.829490   83.065500
  H     -5.198340   -2.152740   84.444200
  H     -6.869000   -1.860560   84.241900
  H     -7.202050  -10.805500   82.089200
  H     -7.628060   -6.481820   89.136700

 Total Charge           Charge          ....    0
 Multiplicity           Mult            ....    1
 Number of Electrons    NEL             ....  134
 Basis Dimension        Dim             ....  322

ORBITAL ENERGIES
----------------

  NO   OCC          E(Eh)            E(eV)
   0   2.0000     -88.962073     -2420.7811
   1   2.0000     -88.961751     -2420.7723
   2   2.0000     -10.329049      -281.0677
   3   2.0000     -10.324661      -280.9483
   4   2.0000     -10.320283      -280.8292
   5   2.0000     -10.312817      -280.6260
   6   2.0000     -10.304641      -280.4035
   7   2.0000     -10.302932      -280.3570
   8   2.0000     -10.300122      -280.2806
   9   2.0000     -10.294606      -280.1305
  10   2.0000     -10.293493      -280.1002
  11   2.0000     -10.286364      -279.9062
  12   2.0000     -10.286221      -279.9023
  13   2.0000     -10.284007      -279.8420
  14   2.0000     -10.277067      -279.6532
  15   2.0000     -10.266453      -279.3644
  16   2.0000      -8.076999      -219.7863
  17   2.0000      -8.076960      -219.7852
  18   2.0000      -6.035748      -164.2410
  19   2.0000      -6.035587      -164.2367
  20   2.0000      -6.031471      -164.1247
  21   2.0000      -6.031246      -164.1185
  22   2.0000      -6.027811      -164.0251
  23   2.0000      -6.027352      -164.0126
  24   2.0000      -1.010921       -27.5086
  25   2.0000      -0.983381       -26.7592
  26   2.0000      -0.916267       -24.9329
  27   2.0000      -0.909457       -24.7476
  28   2.0000      -0.877156       -23.8686
  29   2.0000      -0.850440       -23.1417
  30   2.0000      -0.843307       -22.9476
  31   2.0000      -0.821199       -22.3460
  32   2.0000      -0.779704       -21.2168
  33   2.0000      -0.771541       -20.9947
  34   2.0000      -0.714329       -19.4379
  35   2.0000      -0.702595       -19.1186
  36   2.0000      -0.691337       -18.8122
  37   2.0000      -0.662703       -18.0331
  38   2.0000      -0.640912       -17.4401
  39   2.0000      -0.616938       -16.7877
  40   2.0000      -0.597910       -16.2700
  41   2.0000      -0.574807       -15.6413
  42   2.0000      -0.572806       -15.5868
  43   2.0000      -0.564044       -15.3484
  44   2.0000      -0.533804       -14.5255
  45   2.0000      -0.524395       -14.2695
  46   2.0000      -0.521755       -14.1977
  47   2.0000      -0.511202       -13.9105
  48   2.0000      -0.506945       -13.7947
  49   2.0000      -0.502620       -13.6770
  50   2.0000      -0.494865       -13.4660
  51   2.0000      -0.483207       -13.1487
  52   2.0000      -0.473248       -12.8777
  53   2.0000      -0.469216       -12.7680
  54   2.0000      -0.452510       -12.3134
  55   2.0000      -0.450832       -12.2678
  56   2.0000      -0.445176       -12.1139
  57   2.0000      -0.435839       -11.8598
  58   2.0000      -0.431746       -11.7484
  59   2.0000      -0.427438       -11.6312
  60   2.0000      -0.419542       -11.4163
  61   2.0000      -0.416062       -11.3216
  62   2.0000      -0.405664       -11.0387
  63   2.0000      -0.358935        -9.7671
  64   2.0000      -0.328920        -8.9504
  65   2.0000      -0.321893        -8.7591
  66   2.0000      -0.287701        -7.8287
  67   0.0000       0.027379         0.7450
  68   0.0000       0.074079         2.0158
  69   0.0000       0.103701         2.8218
  70   0.0000       0.117902         3.2083
  71   0.0000       0.139759         3.8030

MULLIKEN ATOMIC CHARGES
-----------------------
   0 S :    0.096422
   1 C :   -0.112442
   2 C :   -0.099994
   3 C :    0.012961
   4 C :   -0.119743
   5 H :    0.003458
   6 C :    0.038634
   7 H :    0.034537
   8 H :    0.022688
   9 C :   -0.122941
  10 H :    0.038423
  11 H :    0.028573
  12 C :    0.038345
  13 H :    0.006843
  14 H :    0.029056
  15 H :    0.010944
  16 S :    0.080780
  17 C :   -0.078146
  18 C :   -0.055761
  19 C :   -0.096127
  20 C :   -0.084272
  21 H :    0.042332
  22 C :    0.135545
  23 H :    0.020611
  24 H :    0.021213
  25 C :   -0.107547
  26 H :    0.038066
  27 H :    0.025188
  28 C :   -0.041251
  29 H :    0.033549
  30 H :    0.027210
  31 H :    0.022610
  32 H :    0.063509
  33 H :    0.046729
Sum of atomic charges:   -0.0000000

LOEWDIN ATOMIC CHARGES
----------------------
   0 S :    0.415369
   1 C :   -0.221360
   2 C :   -0.061870
   3 C :   -0.071167
   4 C :   -0.189398
   5 H :    0.026441
   6 C :   -0.035976
   7 H :    0.037330
   8 H :    0.026948
   9 C :   -0.042122
  10 H :    0.027930
  11 H :    0.018939
  12 C :   -0.053428
  13 H :    0.023670
  14 H :    0.024136
  15 H :    0.016507
  16 S :    0.390935
  17 C :   -0.159516
  18 C :   -0.071550
  19 C :   -0.054368
  20 C :   -0.207038
  21 H :    0.040128
  22 C :   -0.028226
  23 H :    0.027104
  24 H :    0.030718
  25 C :   -0.032500
  26 H :    0.027412
  27 H :    0.021338
  28 C :   -0.070446
  29 H :    0.021846
  30 H :    0.031563
  31 H :    0.021443
  32 H :    0.044337
  33 H :    0.024874

  Mayer bond orders larger than 0.100000
B(  0-S ,  1-C ) :   1.1308 B(  0-S ,  4-C ) :   1.1606 B(  1-C ,  2-C ) :   1.6080
B(  1-C , 32-H ) :   0.9701 B(  2-C ,  3-C ) :   1.2438 B(  2-C ,  6-C ) :   1.0127
B(  3-C ,  4-C ) :   1.5567 B(  3-C ,  5-H ) :   0.9985 B(  4-C , 20-C ) :   1.0192
B(  6-C ,  7-H ) :   0.9373 B(  6-C ,  8-H ) :   0.9423 B(  6-C ,  9-C ) :   1.0742
B(  9-C , 10-H ) :   0.9468 B(  9-C , 11-H ) :   0.9561 B(  9-C , 12-C ) :   1.0946
B( 12-C , 13-H ) :   0.9669 B( 12-C , 14-H ) :   0.9746 B( 12-C , 15-H ) :   0.9658
B( 16-S , 17-C ) :   1.1327 B( 16-S , 20-C ) :   1.1159 B( 17-C , 18-C ) :   1.6512
B( 17-C , 33-H ) :   0.9726 B( 18-C , 19-C ) :   1.1900 B( 18-C , 21-H ) :   0.9799
B( 19-C , 20-C ) :   1.6440 B( 19-C , 22-C ) :   1.0498 B( 22-C , 23-H ) :   0.9224
B( 22-C , 24-H ) :   0.9354 B( 22-C , 25-C ) :   1.0717 B( 25-C , 26-H ) :   0.9594
B( 25-C , 27-H ) :   0.9484 B( 25-C , 28-C ) :   1.0869 B( 28-C , 29-H ) :   0.9768
B( 28-C , 30-H ) :   0.9725 B( 28-C , 31-H ) :   0.9738

Dispersion correction           -0.013335391
FINAL SINGLE POINT ENERGY     -1339.870267081802

DIPOLE MOMENT
-------------
                                X             Y             Z
Electronic contribution:      8.73881     -19.69211      20.63375
Nuclear contribution   :     -9.08969      20.35395     -20.99430
                        -----------------------------------------
Total Dipole Moment    :     -0.35088       0.66184      -0.36055
                        -----------------------------------------
Magnitude (a.u.)       :      0.83136
Magnitude (Debye)      :      2.11314

Rotational constants in cm-1:     0.016496     0.008713     0.006447
Rotational constants in MHz :   494.552134   261.213490   193.276134

                             ****ORCA TERMINATED NORMALLY****
TOTAL RUN TIME: 0 days 0 hours 0 minutes 31 seconds 175 msec
