                         Program Version 4.2.1 -  RELEASE  -
|  1> ! wB97X-D3 SP def2-SVP
|  2> %pal
|  3> nprocs 16
|  4> end
|  5>
|  6> * xyz 0 1
|  7> S 	 2.59167 	 14.492 	 85.984
|  8> C 	 1.49403 	 14.8993 	 84.7208
|  9> C 	 0.383991 	 15.5422 	 85.1447
| 10> C 	 0.369761 	 15.7266 	 86.6086
| 11> C 	 1.41199 	 15.0188 	 87.198
| 12> H 	 -0.37849 	 16.2611 	 87.1812
| 13> C 	 -0.64259 	 16.1607 	 84.2816
| 14> H 	 -1.58088 	 16.0872 	 84.8187
| 15> H 	 -0.722146 	 15.5425 	 83.4021
| 16> C 	 -0.397253 	 17.6334 	 83.8384
| 17> H 	 0.588215 	 17.6642 	 83.362
| 18> H 	 -1.1053 	 17.8811 	 83.0729
| 19> C 	 -0.596418 	 18.713 	 84.9721
| 20> H 	 -0.380079 	 19.7026 	 84.5065
| 21> H 	 -1.64469 	 18.7349 	 85.3848
| 22> H 	 -0.114238 	 18.4429 	 85.9252
| 23> S 	 3.36079 	 15.2379 	 89.1351
| 24> C 	 3.08903 	 14.6034 	 90.7343
| 25> C 	 1.74719 	 14.4048 	 90.8829
| 26> C 	 0.986645 	 14.3644 	 89.6748
| 27> C 	 1.7131 	 14.813 	 88.5974
| 28> H 	 1.34792 	 14.0867 	 91.8841
| 29> C 	 -0.56682 	 14.1231 	 89.6799
| 30> H 	 -1.12887 	 15.042 	 89.4107
| 31> H 	 -0.849498 	 13.7845 	 90.6627
| 32> C 	 -1.16268 	 13.0125 	 88.728
| 33> H 	 -1.02706 	 13.2932 	 87.6449
| 34> H 	 -2.20697 	 12.9944 	 88.8217
| 35> C 	 -0.792746 	 11.6205 	 89.1759
| 36> H 	 0.266345 	 11.3945 	 89.3914
| 37> H 	 -1.17999 	 10.9185 	 88.3483
| 38> H 	 -1.4334 	 11.4017 	 90.0728
| 39> H 	 1.68965 	 14.6489 	 83.7019
| 40> H 	 3.78707 	 14.6144 	 91.5815
| 41> *
| 42>
| 43>                          ****END OF INPUT****

CARTESIAN COORDINATES (ANGSTROEM)
---------------------------------
  S      2.591670   14.492000   85.984000
  C      1.494030   14.899300   84.720800
  C      0.383991   15.542200   85.144700
  C      0.369761   15.726600   86.608600
  C      1.411990   15.018800   87.198000
  H     -0.378490   16.261100   87.181200
  C     -0.642590   16.160700   84.281600
  H     -1.580880   16.087200   84.818700
  H     -0.722146   15.542500   83.402100
  C     -0.397253   17.633400   83.838400
  H      0.588215   17.664200   83.362000
  H     -1.105300   17.881100   83.072900
  C     -0.596418   18.713000   84.972100
  H     -0.380079   19.702600   84.506500
  H     -1.644690   18.734900   85.384800
  H     -0.114238   18.442900   85.925200
  S      3.360790   15.237900   89.135100
  C      3.089030   14.603400   90.734300
  C      1.747190   14.404800   90.882900
  C      0.986645   14.364400   89.674800
  C      1.713100   14.813000   88.597400
  H      1.347920   14.086700   91.884100
  C     -0.566820   14.123100   89.679900
  H     -1.128870   15.042000   89.410700
  H     -0.849498   13.784500   90.662700
  C     -1.162680   13.012500   88.728000
  H     -1.027060   13.293200   87.644900
  H     -2.206970   12.994400   88.821700
  C     -0.792746   11.620500   89.175900
  H      0.266345   11.394500   89.391400
  H     -1.179990   10.918500   88.348300
  H     -1.433400   11.401700   90.072800
  H      1.689650   14.648900   83.701900
  H      3.787070   14.614400   91.581500

 Total Charge           Charge          ....    0
 Multiplicity           Mult            ....    1
 Number of Electrons    NEL             ....  134
 Basis Dimension        Dim             ....  322

ORBITAL ENERGIES
----------------

  NO   OCC          E(Eh)            E(eV)
   0   2.0000     -88.964201     -2420.8390
   1   2.0000     -88.962407     -2420.7902
   2   2.0000     -10.332780      -281.1692
   3   2.0000     -10.327340      -281.0212
   4   2.0000     -10.317333      -280.7489
   5   2.0000     -10.308318      -280.5036
   6   2.0000     -10.306296      -280.4486
   7   2.0000     -10.301900      -280.3290
   8   2.0000     -10.298844      -280.2458
   9   2.0000     -10.298388      -280.2334
  10   2.0000     -10.295712      -280.1606
  11   2.0000     -10.291216      -280.0382
  12   2.0000     -10.288464      -279.9633
  13   2.0000     -10.288230      -279.9570
  14   2.0000     -10.282309      -279.7958
  15   2.0000     -10.282188      -279.7926
  16   2.0000      -8.079446      -219.8529
  17   2.0000      -8.077026      -219.7870
  18   2.0000      -6.038050      -164.3037
  19   2.0000      -6.035651      -164.2384
  20   2.0000      -6.033987      -164.1931
  21   2.0000      -6.031552      -164.1269
  22   2.0000      -6.029945      -164.0831
  23   2.0000      -6.027646      -164.0206
  24   2.0000      -1.007157       -27.4061
  25   2.0000      -0.985583       -26.8191
  26   2.0000      -0.910464       -24.7750
  27   2.0000      -0.901218       -24.5234
  28   2.0000      -0.870261       -23.6810
  29   2.0000      -0.847927       -23.0733
  30   2.0000      -0.841049       -22.8861
  31   2.0000      -0.815757       -22.1979
  32   2.0000      -0.779418       -21.2091
  33   2.0000      -0.770661       -20.9707
  34   2.0000      -0.707389       -19.2490
  35   2.0000      -0.706207       -19.2169
  36   2.0000      -0.685134       -18.6434
  37   2.0000      -0.660582       -17.9753
  38   2.0000      -0.642776       -17.4908
  39   2.0000      -0.613281       -16.6882
  40   2.0000      -0.585587       -15.9346
  41   2.0000      -0.568115       -15.4592
  42   2.0000      -0.552424       -15.0322
  43   2.0000      -0.547451       -14.8969
  44   2.0000      -0.545720       -14.8498
  45   2.0000      -0.536530       -14.5997
  46   2.0000      -0.520588       -14.1659
  47   2.0000      -0.506970       -13.7954
  48   2.0000      -0.502313       -13.6686
  49   2.0000      -0.495505       -13.4834
  50   2.0000      -0.485346       -13.2069
  51   2.0000      -0.477031       -12.9807
  52   2.0000      -0.473364       -12.8809
  53   2.0000      -0.472616       -12.8605
  54   2.0000      -0.453975       -12.3533
  55   2.0000      -0.446451       -12.1485
  56   2.0000      -0.439806       -11.9677
  57   2.0000      -0.435316       -11.8455
  58   2.0000      -0.431905       -11.7527
  59   2.0000      -0.426530       -11.6065
  60   2.0000      -0.419011       -11.4019
  61   2.0000      -0.412585       -11.2270
  62   2.0000      -0.403769       -10.9871
  63   2.0000      -0.349291        -9.5047
  64   2.0000      -0.329701        -8.9716
  65   2.0000      -0.326945        -8.8966
  66   2.0000      -0.293807        -7.9949
  67   0.0000       0.024170         0.6577
  68   0.0000       0.069907         1.9023
  69   0.0000       0.103132         2.8064
  70   0.0000       0.118371         3.2210
  71   0.0000       0.129906         3.5349

MULLIKEN ATOMIC CHARGES
-----------------------
   0 S :    0.111309
   1 C :   -0.101211
   2 C :   -0.096320
   3 C :    0.030124
   4 C :   -0.147009
   5 H :    0.017932
   6 C :    0.069095
   7 H :    0.015262
   8 H :    0.017227
   9 C :   -0.042692
  10 H :    0.031281
  11 H :    0.028537
  12 C :   -0.087366
  13 H :    0.054974
  14 H :    0.024831
  15 H :    0.040947
  16 S :    0.090170
  17 C :   -0.090835
  18 C :   -0.056755
  19 C :   -0.019234
  20 C :   -0.154014
  21 H :    0.034362
  22 C :    0.049665
  23 H :    0.044499
  24 H :    0.002569
  25 C :   -0.065213
  26 H :    0.046158
  27 H :    0.011836
  28 C :   -0.095354
  29 H :    0.054817
  30 H :    0.043808
  31 H :    0.033052
  32 H :    0.035482
  33 H :    0.068067
Sum of atomic charges:   -0.0000000

LOEWDIN ATOMIC CHARGES
----------------------
   0 S :    0.404778
   1 C :   -0.194408
   2 C :   -0.065600
   3 C :   -0.055329
   4 C :   -0.181724
   5 H :    0.029904
   6 C :   -0.034963
   7 H :    0.027080
   8 H :    0.030442
   9 C :   -0.031972
  10 H :    0.025384
  11 H :    0.022060
  12 C :   -0.078395
  13 H :    0.034758
  14 H :    0.027903
  15 H :    0.026489
  16 S :    0.388048
  17 C :   -0.190367
  18 C :   -0.079356
  19 C :   -0.061764
  20 C :   -0.185484
  21 H :    0.036449
  22 C :   -0.024642
  23 H :    0.033122
  24 H :    0.022601
  25 C :   -0.048829
  26 H :    0.027529
  27 H :    0.018926
  28 C :   -0.074962
  29 H :    0.026201
  30 H :    0.036610
  31 H :    0.028048
  32 H :    0.023428
  33 H :    0.038036

  Mayer bond orders larger than 0.100000
B(  0-S ,  1-C ) :   1.1258 B(  0-S ,  4-C ) :   1.1444 B(  1-C ,  2-C ) :   1.6474
B(  1-C , 32-H ) :   0.9686 B(  2-C ,  3-C ) :   1.1891 B(  2-C ,  6-C ) :   1.0448
B(  3-C ,  4-C ) :   1.5846 B(  3-C ,  5-H ) :   0.9915 B(  4-C , 20-C ) :   1.0543
B(  6-C ,  7-H ) :   0.9352 B(  6-C ,  8-H ) :   0.9325 B(  6-C ,  9-C ) :   1.0713
B(  9-C , 10-H ) :   0.9565 B(  9-C , 11-H ) :   0.9560 B(  9-C , 12-C ) :   1.0662
B( 12-C , 13-H ) :   0.9742 B( 12-C , 14-H ) :   0.9733 B( 12-C , 15-H ) :   0.9749
B( 16-S , 17-C ) :   1.1403 B( 16-S , 20-C ) :   1.1358 B( 17-C , 18-C ) :   1.6263
B( 17-C , 33-H ) :   0.9635 B( 18-C , 19-C ) :   1.2422 B( 18-C , 21-H ) :   0.9721
B( 19-C , 20-C ) :   1.6077 B( 19-C , 22-C ) :   1.0283 B( 22-C , 23-H ) :   0.9456
B( 22-C , 24-H ) :   0.9352 B( 22-C , 25-C ) :   1.0751 B( 25-C , 26-H ) :   0.9558
B( 25-C , 27-H ) :   0.9516 B( 25-C , 28-C ) :   1.0642 B( 28-C , 29-H ) :   0.9805
B( 28-C , 30-H ) :   0.9720 B( 28-C , 31-H ) :   0.9746

Dispersion correction           -0.014820719
FINAL SINGLE POINT ENERGY     -1339.873577163011

DIPOLE MOMENT
-------------
                                X             Y             Z
Electronic contribution:     23.27914      -2.12165       4.66897
Nuclear contribution   :    -23.96345       2.24863      -4.71616
                        -----------------------------------------
Total Dipole Moment    :     -0.68431       0.12698      -0.04719
                        -----------------------------------------
Magnitude (a.u.)       :      0.69759
Magnitude (Debye)      :      1.77314

Rotational constants in cm-1:     0.019086     0.008750     0.007584
Rotational constants in MHz :   572.174643   262.306175   227.358670

                             ****ORCA TERMINATED NORMALLY****
TOTAL RUN TIME: 0 days 0 hours 0 minutes 35 seconds 364 msec
