                         Program Version 4.2.1 -  RELEASE  -
|  1> ! wB97X-D3 SP def2-SVP
|  2> %pal
|  3> nprocs 16
|  4> end
|  5>
|  6> * xyz 0 1
|  7> S 	 -57.0281 	 40.4229 	 111.439
|  8> C 	 -55.7375 	 40.9083 	 110.287
|  9> C 	 -56.2573 	 41.5613 	 109.184
| 10> C 	 -57.666 	 41.516 	 109.24
| 11> C 	 -58.2376 	 41.0342 	 110.399
| 12> H 	 -58.2296 	 41.828 	 108.426
| 13> C 	 -55.502 	 41.9637 	 107.921
| 14> H 	 -55.8303 	 41.3426 	 107.065
| 15> H 	 -54.4939 	 41.6209 	 108.092
| 16> C 	 -55.6174 	 43.5053 	 107.623
| 17> H 	 -55.2251 	 43.7748 	 106.699
| 18> H 	 -56.7063 	 43.8188 	 107.436
| 19> C 	 -55.057 	 44.3875 	 108.726
| 20> H 	 -55.5172 	 44.234 	 109.649
| 21> H 	 -53.9469 	 44.1996 	 108.792
| 22> H 	 -55.2932 	 45.3696 	 108.49
| 23> S 	 -60.4433 	 39.4131 	 111.104
| 24> C 	 -62.0066 	 40.2615 	 111.392
| 25> C 	 -61.9565 	 41.5995 	 111.047
| 26> C 	 -60.6232 	 41.9474 	 110.682
| 27> C 	 -59.6892 	 40.9474 	 110.64
| 28> H 	 -62.6891 	 42.1797 	 110.934
| 29> C 	 -60.3262 	 43.3626 	 110.302
| 30> H 	 -59.2391 	 43.6061 	 110.112
| 31> H 	 -60.6141 	 43.9853 	 111.152
| 32> C 	 -61.1511 	 44.0778 	 109.277
| 33> H 	 -62.2637 	 44.1904 	 109.528
| 34> H 	 -61.1265 	 43.4886 	 108.373
| 35> C 	 -60.6756 	 45.5105 	 109.065
| 36> H 	 -59.6211 	 45.4275 	 108.754
| 37> H 	 -60.7664 	 46.1644 	 109.971
| 38> H 	 -61.2709 	 45.9256 	 108.314
| 39> H 	 -54.6951 	 40.5646 	 110.362
| 40> H 	 -62.945 	 39.8527 	 111.694
| 41> *
| 42>
| 43>                          ****END OF INPUT****

CARTESIAN COORDINATES (ANGSTROEM)
---------------------------------
  S    -57.028100   40.422900  111.439000
  C    -55.737500   40.908300  110.287000
  C    -56.257300   41.561300  109.184000
  C    -57.666000   41.516000  109.240000
  C    -58.237600   41.034200  110.399000
  H    -58.229600   41.828000  108.426000
  C    -55.502000   41.963700  107.921000
  H    -55.830300   41.342600  107.065000
  H    -54.493900   41.620900  108.092000
  C    -55.617400   43.505300  107.623000
  H    -55.225100   43.774800  106.699000
  H    -56.706300   43.818800  107.436000
  C    -55.057000   44.387500  108.726000
  H    -55.517200   44.234000  109.649000
  H    -53.946900   44.199600  108.792000
  H    -55.293200   45.369600  108.490000
  S    -60.443300   39.413100  111.104000
  C    -62.006600   40.261500  111.392000
  C    -61.956500   41.599500  111.047000
  C    -60.623200   41.947400  110.682000
  C    -59.689200   40.947400  110.640000
  H    -62.689100   42.179700  110.934000
  C    -60.326200   43.362600  110.302000
  H    -59.239100   43.606100  110.112000
  H    -60.614100   43.985300  111.152000
  C    -61.151100   44.077800  109.277000
  H    -62.263700   44.190400  109.528000
  H    -61.126500   43.488600  108.373000
  C    -60.675600   45.510500  109.065000
  H    -59.621100   45.427500  108.754000
  H    -60.766400   46.164400  109.971000
  H    -61.270900   45.925600  108.314000
  H    -54.695100   40.564600  110.362000
  H    -62.945000   39.852700  111.694000

 Total Charge           Charge          ....    0
 Multiplicity           Mult            ....    1
 Number of Electrons    NEL             ....  134
 Basis Dimension        Dim             ....  322

ORBITAL ENERGIES
----------------

  NO   OCC          E(Eh)            E(eV)
   0   2.0000     -88.967679     -2420.9336
   1   2.0000     -88.967488     -2420.9284
   2   2.0000     -10.326781      -281.0060
   3   2.0000     -10.326031      -280.9856
   4   2.0000     -10.323408      -280.9142
   5   2.0000     -10.318691      -280.7859
   6   2.0000     -10.299741      -280.2702
   7   2.0000     -10.299641      -280.2675
   8   2.0000     -10.298755      -280.2434
   9   2.0000     -10.290970      -280.0315
  10   2.0000     -10.287471      -279.9363
  11   2.0000     -10.284513      -279.8558
  12   2.0000     -10.283665      -279.8328
  13   2.0000     -10.282450      -279.7997
  14   2.0000     -10.279395      -279.7166
  15   2.0000     -10.269390      -279.4443
  16   2.0000      -8.082293      -219.9304
  17   2.0000      -8.080965      -219.8942
  18   2.0000      -6.040871      -164.3804
  19   2.0000      -6.039735      -164.3496
  20   2.0000      -6.036769      -164.2688
  21   2.0000      -6.035692      -164.2395
  22   2.0000      -6.033019      -164.1668
  23   2.0000      -6.031490      -164.1252
  24   2.0000      -1.005883       -27.3715
  25   2.0000      -0.983503       -26.7625
  26   2.0000      -0.915649       -24.9161
  27   2.0000      -0.910568       -24.7778
  28   2.0000      -0.870720       -23.6935
  29   2.0000      -0.852758       -23.2047
  30   2.0000      -0.849040       -23.1035
  31   2.0000      -0.816436       -22.2164
  32   2.0000      -0.786540       -21.4028
  33   2.0000      -0.772071       -21.0091
  34   2.0000      -0.710109       -19.3230
  35   2.0000      -0.697979       -18.9930
  36   2.0000      -0.694151       -18.8888
  37   2.0000      -0.673072       -18.3152
  38   2.0000      -0.639440       -17.4000
  39   2.0000      -0.626573       -17.0499
  40   2.0000      -0.602754       -16.4018
  41   2.0000      -0.576237       -15.6802
  42   2.0000      -0.567679       -15.4473
  43   2.0000      -0.556777       -15.1507
  44   2.0000      -0.545183       -14.8352
  45   2.0000      -0.524694       -14.2777
  46   2.0000      -0.523349       -14.2411
  47   2.0000      -0.512119       -13.9355
  48   2.0000      -0.502111       -13.6631
  49   2.0000      -0.498060       -13.5529
  50   2.0000      -0.486475       -13.2377
  51   2.0000      -0.478858       -13.0304
  52   2.0000      -0.469116       -12.7653
  53   2.0000      -0.463556       -12.6140
  54   2.0000      -0.458941       -12.4884
  55   2.0000      -0.455641       -12.3986
  56   2.0000      -0.448826       -12.2132
  57   2.0000      -0.440914       -11.9979
  58   2.0000      -0.433865       -11.8061
  59   2.0000      -0.427705       -11.6384
  60   2.0000      -0.418641       -11.3918
  61   2.0000      -0.414575       -11.2812
  62   2.0000      -0.409828       -11.1520
  63   2.0000      -0.341257        -9.2861
  64   2.0000      -0.334885        -9.1127
  65   2.0000      -0.327799        -8.9199
  66   2.0000      -0.295924        -8.0525
  67   0.0000       0.031161         0.8479
  68   0.0000       0.069885         1.9017
  69   0.0000       0.107091         2.9141
  70   0.0000       0.116743         3.1767
  71   0.0000       0.122128         3.3233

MULLIKEN ATOMIC CHARGES
-----------------------
   0 S :    0.117780
   1 C :   -0.149197
   2 C :   -0.082800
   3 C :    0.040625
   4 C :   -0.141203
   5 H :   -0.018662
   6 C :    0.074296
   7 H :    0.046197
   8 H :    0.008973
   9 C :   -0.078488
  10 H :    0.010444
  11 H :    0.024957
  12 C :   -0.007250
  13 H :    0.029791
  14 H :    0.038970
  15 H :    0.015172
  16 S :    0.097664
  17 C :   -0.060643
  18 C :    0.077143
  19 C :    0.004623
  20 C :   -0.154877
  21 H :   -0.082480
  22 C :    0.029943
  23 H :    0.037163
  24 H :    0.015685
  25 C :   -0.120005
  26 H :    0.033121
  27 H :    0.023106
  28 C :   -0.029834
  29 H :    0.030237
  30 H :    0.040340
  31 H :    0.025350
  32 H :    0.058003
  33 H :    0.045855
Sum of atomic charges:    0.0000000

LOEWDIN ATOMIC CHARGES
----------------------
   0 S :    0.409803
   1 C :   -0.188043
   2 C :   -0.064154
   3 C :   -0.055143
   4 C :   -0.206631
   5 H :    0.016716
   6 C :   -0.026732
   7 H :    0.038461
   8 H :    0.025392
   9 C :   -0.038536
  10 H :    0.012722
  11 H :    0.028199
  12 C :   -0.054601
  13 H :    0.019392
  14 H :    0.032984
  15 H :    0.018843
  16 S :    0.374485
  17 C :   -0.147813
  18 C :   -0.034759
  19 C :   -0.046920
  20 C :   -0.196219
  21 H :   -0.008846
  22 C :   -0.048244
  23 H :    0.035041
  24 H :    0.033814
  25 C :   -0.046810
  26 H :    0.025616
  27 H :    0.016152
  28 C :   -0.057902
  29 H :    0.026074
  30 H :    0.031229
  31 H :    0.019293
  32 H :    0.031438
  33 H :    0.025699

  Mayer bond orders larger than 0.100000
B(  0-S ,  1-C ) :   1.1402 B(  0-S ,  4-C ) :   1.1547 B(  1-C ,  2-C ) :   1.5930
B(  1-C , 32-H ) :   0.9605 B(  2-C ,  3-C ) :   1.2548 B(  2-C ,  6-C ) :   1.0188
B(  3-C ,  4-C ) :   1.5548 B(  3-C ,  5-H ) :   1.0052 B(  4-C , 20-C ) :   1.0309
B(  6-C ,  7-H ) :   0.9469 B(  6-C ,  8-H ) :   0.9429 B(  6-C ,  9-C ) :   1.0524
B(  9-C , 10-H ) :   0.9578 B(  9-C , 11-H ) :   0.9560 B(  9-C , 12-C ) :   1.0774
B( 12-C , 13-H ) :   0.9728 B( 12-C , 14-H ) :   0.9751 B( 12-C , 15-H ) :   0.9689
B( 16-S , 17-C ) :   1.1456 B( 16-S , 20-C ) :   1.0997 B( 17-C , 18-C ) :   1.6126
B( 17-C , 33-H ) :   0.9661 B( 18-C , 19-C ) :   1.2245 B( 18-C , 21-H ) :   1.0177
B( 19-C , 20-C ) :   1.6315 B( 19-C , 22-C ) :   1.0536 B( 22-C , 23-H ) :   0.9386
B( 22-C , 24-H ) :   0.9199 B( 22-C , 25-C ) :   1.0568 B( 25-C , 26-H ) :   0.9465
B( 25-C , 27-H ) :   0.9532 B( 25-C , 28-C ) :   1.0879 B( 28-C , 29-H ) :   0.9725
B( 28-C , 30-H ) :   0.9732 B( 28-C , 31-H ) :   0.9718

Dispersion correction           -0.014549817
FINAL SINGLE POINT ENERGY     -1339.847650287875

DIPOLE MOMENT
-------------
                                X             Y             Z
Electronic contribution:     -4.53357     -27.09876      15.66700
Nuclear contribution   :      4.44185      27.65264     -16.21400
                        -----------------------------------------
Total Dipole Moment    :     -0.09172       0.55388      -0.54700
                        -----------------------------------------
Magnitude (a.u.)       :      0.78384
Magnitude (Debye)      :      1.99236

Rotational constants in cm-1:     0.017051     0.010050     0.006843
Rotational constants in MHz :   511.170813   301.288653   205.159060

                             ****ORCA TERMINATED NORMALLY****
TOTAL RUN TIME: 0 days 0 hours 0 minutes 31 seconds 11 msec
