                         Program Version 4.2.1 -  RELEASE  -
|  1> ! wB97X-D3 SP def2-SVP
|  2> %pal
|  3> nprocs 16
|  4> end
|  5>
|  6> * xyz 0 1
|  7> S 	 0.445165 	 12.1572 	 87.0642
|  8> C 	 -0.848487 	 11.9741 	 85.8846
|  9> C 	 -0.307528 	 11.8766 	 84.5848
| 10> C 	 1.09454 	 11.9895 	 84.6602
| 11> C 	 1.69749 	 12.0697 	 85.9065
| 12> H 	 1.70919 	 11.9656 	 83.7535
| 13> C 	 -1.05289 	 11.7651 	 83.3266
| 14> H 	 -2.04697 	 11.348 	 83.4916
| 15> H 	 -0.585599 	 10.8453 	 82.7896
| 16> C 	 -1.11911 	 13.0222 	 82.4262
| 17> H 	 -1.79245 	 13.7949 	 82.8704
| 18> H 	 -0.176985 	 13.4812 	 82.3168
| 19> C 	 -1.80918 	 12.8275 	 81.0826
| 20> H 	 -2.74916 	 12.2608 	 81.0918
| 21> H 	 -1.91246 	 13.7836 	 80.5671
| 22> H 	 -1.15975 	 12.1729 	 80.5714
| 23> S 	 3.55259 	 10.8697 	 87.4654
| 24> C 	 5.25629 	 11.4036 	 87.2904
| 25> C 	 5.35958 	 12.5315 	 86.5046
| 26> C 	 4.1225 	 12.8524 	 85.797
| 27> C 	 3.0932 	 12.0731 	 86.2646
| 28> H 	 6.39036 	 12.9921 	 86.3883
| 29> C 	 3.99323 	 14.0726 	 84.8435
| 30> H 	 3.51261 	 14.8894 	 85.4162
| 31> H 	 3.34992 	 13.7872 	 84.0125
| 32> C 	 5.2521 	 14.9061 	 84.4504
| 33> H 	 5.89452 	 14.0914 	 84.1355
| 34> H 	 5.73025 	 15.3887 	 85.3427
| 35> C 	 5.05098 	 15.8328 	 83.2508
| 36> H 	 4.52631 	 16.7728 	 83.4335
| 37> H 	 4.37282 	 15.2305 	 82.5908
| 38> H 	 6.03488 	 15.9949 	 82.6665
| 39> H 	 -1.93258 	 11.9251 	 86.1318
| 40> H 	 6.16755 	 11.0237 	 87.7665
| 41> *
| 42>
| 43>                          ****END OF INPUT****

CARTESIAN COORDINATES (ANGSTROEM)
---------------------------------
  S      0.445165   12.157200   87.064200
  C     -0.848487   11.974100   85.884600
  C     -0.307528   11.876600   84.584800
  C      1.094540   11.989500   84.660200
  C      1.697490   12.069700   85.906500
  H      1.709190   11.965600   83.753500
  C     -1.052890   11.765100   83.326600
  H     -2.046970   11.348000   83.491600
  H     -0.585599   10.845300   82.789600
  C     -1.119110   13.022200   82.426200
  H     -1.792450   13.794900   82.870400
  H     -0.176985   13.481200   82.316800
  C     -1.809180   12.827500   81.082600
  H     -2.749160   12.260800   81.091800
  H     -1.912460   13.783600   80.567100
  H     -1.159750   12.172900   80.571400
  S      3.552590   10.869700   87.465400
  C      5.256290   11.403600   87.290400
  C      5.359580   12.531500   86.504600
  C      4.122500   12.852400   85.797000
  C      3.093200   12.073100   86.264600
  H      6.390360   12.992100   86.388300
  C      3.993230   14.072600   84.843500
  H      3.512610   14.889400   85.416200
  H      3.349920   13.787200   84.012500
  C      5.252100   14.906100   84.450400
  H      5.894520   14.091400   84.135500
  H      5.730250   15.388700   85.342700
  C      5.050980   15.832800   83.250800
  H      4.526310   16.772800   83.433500
  H      4.372820   15.230500   82.590800
  H      6.034880   15.994900   82.666500
  H     -1.932580   11.925100   86.131800
  H      6.167550   11.023700   87.766500

 Total Charge           Charge          ....    0
 Multiplicity           Mult            ....    1
 Number of Electrons    NEL             ....  134
 Basis Dimension        Dim             ....  322

ORBITAL ENERGIES
----------------

  NO   OCC          E(Eh)            E(eV)
   0   2.0000     -88.969130     -2420.9731
   1   2.0000     -88.965146     -2420.8647
   2   2.0000     -10.327475      -281.0249
   3   2.0000     -10.324578      -280.9461
   4   2.0000     -10.321108      -280.8516
   5   2.0000     -10.318519      -280.7812
   6   2.0000     -10.311701      -280.5956
   7   2.0000     -10.302309      -280.3401
   8   2.0000     -10.299785      -280.2714
   9   2.0000     -10.299169      -280.2546
  10   2.0000     -10.297716      -280.2151
  11   2.0000     -10.293788      -280.1082
  12   2.0000     -10.292810      -280.0816
  13   2.0000     -10.289501      -279.9916
  14   2.0000     -10.287845      -279.9465
  15   2.0000     -10.275477      -279.6100
  16   2.0000      -8.082940      -219.9480
  17   2.0000      -8.080268      -219.8753
  18   2.0000      -6.041691      -164.4028
  19   2.0000      -6.038744      -164.3226
  20   2.0000      -6.037706      -164.2943
  21   2.0000      -6.034464      -164.2061
  22   2.0000      -6.033347      -164.1757
  23   2.0000      -6.031306      -164.1202
  24   2.0000      -1.008720       -27.4487
  25   2.0000      -0.981448       -26.7066
  26   2.0000      -0.915239       -24.9049
  27   2.0000      -0.906235       -24.6599
  28   2.0000      -0.872163       -23.7328
  29   2.0000      -0.852143       -23.1880
  30   2.0000      -0.845454       -23.0060
  31   2.0000      -0.812758       -22.1163
  32   2.0000      -0.782125       -21.2827
  33   2.0000      -0.770711       -20.9721
  34   2.0000      -0.708356       -19.2753
  35   2.0000      -0.697691       -18.9851
  36   2.0000      -0.695911       -18.9367
  37   2.0000      -0.649504       -17.6739
  38   2.0000      -0.639516       -17.4021
  39   2.0000      -0.621550       -16.9132
  40   2.0000      -0.592322       -16.1179
  41   2.0000      -0.573434       -15.6039
  42   2.0000      -0.566272       -15.4091
  43   2.0000      -0.558574       -15.1996
  44   2.0000      -0.534740       -14.5510
  45   2.0000      -0.523557       -14.2467
  46   2.0000      -0.515243       -14.0205
  47   2.0000      -0.509447       -13.8628
  48   2.0000      -0.500830       -13.6283
  49   2.0000      -0.498613       -13.5680
  50   2.0000      -0.493538       -13.4299
  51   2.0000      -0.482870       -13.1396
  52   2.0000      -0.472747       -12.8641
  53   2.0000      -0.464459       -12.6386
  54   2.0000      -0.457108       -12.4385
  55   2.0000      -0.450251       -12.2520
  56   2.0000      -0.445824       -12.1315
  57   2.0000      -0.442372       -12.0375
  58   2.0000      -0.434835       -11.8324
  59   2.0000      -0.429762       -11.6944
  60   2.0000      -0.423731       -11.5303
  61   2.0000      -0.402229       -10.9452
  62   2.0000      -0.400267       -10.8918
  63   2.0000      -0.346203        -9.4207
  64   2.0000      -0.331525        -9.0212
  65   2.0000      -0.328872        -8.9491
  66   2.0000      -0.290471        -7.9041
  67   0.0000       0.031436         0.8554
  68   0.0000       0.067242         1.8297
  69   0.0000       0.108088         2.9412
  70   0.0000       0.121427         3.3042
  71   0.0000       0.129725         3.5300

MULLIKEN ATOMIC CHARGES
-----------------------
   0 S :    0.111970
   1 C :   -0.142448
   2 C :   -0.067605
   3 C :    0.012273
   4 C :   -0.155018
   5 H :    0.007495
   6 C :    0.027930
   7 H :    0.012169
   8 H :    0.039782
   9 C :   -0.055064
  10 H :    0.031805
  11 H :    0.020897
  12 C :   -0.032240
  13 H :    0.031073
  14 H :    0.044551
  15 H :    0.009718
  16 S :    0.114467
  17 C :   -0.086476
  18 C :   -0.079814
  19 C :   -0.018073
  20 C :   -0.147869
  21 H :    0.048688
  22 C :    0.035797
  23 H :    0.048574
  24 H :    0.026361
  25 C :   -0.100446
  26 H :    0.026337
  27 H :    0.047284
  28 C :   -0.062557
  29 H :    0.046271
  30 H :    0.026643
  31 H :    0.056624
  32 H :    0.063160
  33 H :    0.057739
Sum of atomic charges:    0.0000000

LOEWDIN ATOMIC CHARGES
----------------------
   0 S :    0.424808
   1 C :   -0.203922
   2 C :   -0.069057
   3 C :   -0.070438
   4 C :   -0.213780
   5 H :    0.026740
   6 C :   -0.042774
   7 H :    0.029734
   8 H :    0.042443
   9 C :   -0.035935
  10 H :    0.030349
  11 H :    0.017426
  12 C :   -0.063208
  13 H :    0.027694
  14 H :    0.030678
  15 H :    0.015664
  16 S :    0.387535
  17 C :   -0.179484
  18 C :   -0.079093
  19 C :   -0.051489
  20 C :   -0.193996
  21 H :    0.043812
  22 C :   -0.038114
  23 H :    0.042775
  24 H :    0.027540
  25 C :   -0.051257
  26 H :    0.020540
  27 H :    0.028305
  28 C :   -0.071689
  29 H :    0.025067
  30 H :    0.030053
  31 H :    0.040980
  32 H :    0.036660
  33 H :    0.035435

  Mayer bond orders larger than 0.100000
B(  0-S ,  1-C ) :   1.1553 B(  0-S ,  4-C ) :   1.1698 B(  1-C ,  2-C ) :   1.5526
B(  1-C ,  4-C ) :   0.1076 B(  1-C , 32-H ) :   0.9660 B(  2-C ,  3-C ) :   1.2931
B(  2-C ,  6-C ) :   1.0415 B(  3-C ,  4-C ) :   1.5388 B(  3-C ,  5-H ) :   0.9890
B(  4-C , 20-C ) :   1.0393 B(  6-C ,  7-H ) :   0.9325 B(  6-C ,  8-H ) :   0.9367
B(  6-C ,  9-C ) :   1.0541 B(  9-C , 10-H ) :   0.9561 B(  9-C , 11-H ) :   0.9588
B(  9-C , 12-C ) :   1.0777 B( 12-C , 13-H ) :   0.9733 B( 12-C , 14-H ) :   0.9743
B( 12-C , 15-H ) :   0.9746 B( 16-S , 17-C ) :   1.1220 B( 16-S , 20-C ) :   1.1258
B( 17-C , 18-C ) :   1.6748 B( 17-C , 33-H ) :   0.9592 B( 18-C , 19-C ) :   1.1959
B( 18-C , 21-H ) :   0.9687 B( 19-C , 20-C ) :   1.6428 B( 19-C , 22-C ) :   1.0337
B( 22-C , 23-H ) :   0.9359 B( 22-C , 24-H ) :   0.9335 B( 22-C , 25-C ) :   1.0634
B( 25-C , 26-H ) :   0.9552 B( 25-C , 27-H ) :   0.9506 B( 25-C , 28-C ) :   1.0715
B( 28-C , 29-H ) :   0.9770 B( 28-C , 30-H ) :   0.9722 B( 28-C , 31-H ) :   0.9737

Dispersion correction           -0.013311097
FINAL SINGLE POINT ENERGY     -1339.862389306288

DIPOLE MOMENT
-------------
                                X             Y             Z
Electronic contribution:      2.12399     -15.16129      27.74394
Nuclear contribution   :     -2.01515      15.49880     -28.34990
                        -----------------------------------------
Total Dipole Moment    :      0.10883       0.33751      -0.60596
                        -----------------------------------------
Magnitude (a.u.)       :      0.70210
Magnitude (Debye)      :      1.78460

Rotational constants in cm-1:     0.016023     0.008702     0.006115
Rotational constants in MHz :   480.350955   260.874508   183.312724

                             ****ORCA TERMINATED NORMALLY****
TOTAL RUN TIME: 0 days 0 hours 0 minutes 33 seconds 246 msec
