                         Program Version 4.2.1 -  RELEASE  -
|  1> ! wB97X-D3 SP def2-SVP
|  2> %pal
|  3> nprocs 16
|  4> end
|  5>
|  6> * xyz 0 1
|  7> S 	 -30.026 	 57.6594 	 118.18
|  8> C 	 -31.7227 	 57.2474 	 117.953
|  9> C 	 -32.5603 	 58.238 	 118.478
| 10> C 	 -31.8232 	 59.2813 	 119.111
| 11> C 	 -30.4596 	 59.1295 	 119.047
| 12> H 	 -32.3224 	 60.0261 	 119.658
| 13> C 	 -34.1035 	 58.2379 	 118.459
| 14> H 	 -34.4449 	 57.6525 	 119.281
| 15> H 	 -34.3985 	 57.7571 	 117.548
| 16> C 	 -34.9785 	 59.5518 	 118.577
| 17> H 	 -36.0439 	 59.2593 	 118.729
| 18> H 	 -34.6805 	 60.1547 	 119.434
| 19> C 	 -34.9872 	 60.4098 	 117.268
| 20> H 	 -35.6481 	 61.2816 	 117.322
| 21> H 	 -33.9994 	 60.7541 	 116.962
| 22> H 	 -35.3642 	 59.8439 	 116.337
| 23> S 	 -28.1397 	 60.5522 	 118.654
| 24> C 	 -27.5735 	 61.6419 	 119.944
| 25> C 	 -28.1811 	 61.382 	 121.142
| 26> C 	 -29.2252 	 60.4446 	 120.985
| 27> C 	 -29.4195 	 60.0116 	 119.64
| 28> H 	 -27.9401 	 61.9219 	 122.008
| 29> C 	 -30.1566 	 60.2828 	 122.189
| 30> H 	 -31.1558 	 60.0269 	 121.877
| 31> H 	 -30.3057 	 61.2604 	 122.717
| 32> C 	 -29.6482 	 59.2373 	 123.166
| 33> H 	 -28.6121 	 59.128 	 123.103
| 34> H 	 -30.1294 	 58.3367 	 122.86
| 35> C 	 -29.9684 	 59.3974 	 124.651
| 36> H 	 -29.4262 	 60.3327 	 125.05
| 37> H 	 -29.6784 	 58.6047 	 125.334
| 38> H 	 -30.9922 	 59.6356 	 124.783
| 39> H 	 -32.0956 	 56.4124 	 117.432
| 40> H 	 -26.8266 	 62.304 	 119.817
| 41> *
| 42>
| 43>                          ****END OF INPUT****

CARTESIAN COORDINATES (ANGSTROEM)
---------------------------------
  S    -30.026000   57.659400  118.180000
  C    -31.722700   57.247400  117.953000
  C    -32.560300   58.238000  118.478000
  C    -31.823200   59.281300  119.111000
  C    -30.459600   59.129500  119.047000
  H    -32.322400   60.026100  119.658000
  C    -34.103500   58.237900  118.459000
  H    -34.444900   57.652500  119.281000
  H    -34.398500   57.757100  117.548000
  C    -34.978500   59.551800  118.577000
  H    -36.043900   59.259300  118.729000
  H    -34.680500   60.154700  119.434000
  C    -34.987200   60.409800  117.268000
  H    -35.648100   61.281600  117.322000
  H    -33.999400   60.754100  116.962000
  H    -35.364200   59.843900  116.337000
  S    -28.139700   60.552200  118.654000
  C    -27.573500   61.641900  119.944000
  C    -28.181100   61.382000  121.142000
  C    -29.225200   60.444600  120.985000
  C    -29.419500   60.011600  119.640000
  H    -27.940100   61.921900  122.008000
  C    -30.156600   60.282800  122.189000
  H    -31.155800   60.026900  121.877000
  H    -30.305700   61.260400  122.717000
  C    -29.648200   59.237300  123.166000
  H    -28.612100   59.128000  123.103000
  H    -30.129400   58.336700  122.860000
  C    -29.968400   59.397400  124.651000
  H    -29.426200   60.332700  125.050000
  H    -29.678400   58.604700  125.334000
  H    -30.992200   59.635600  124.783000
  H    -32.095600   56.412400  117.432000
  H    -26.826600   62.304000  119.817000

 Total Charge           Charge          ....    0
 Multiplicity           Mult            ....    1
 Number of Electrons    NEL             ....  134
 Basis Dimension        Dim             ....  322

ORBITAL ENERGIES
----------------

  NO   OCC          E(Eh)            E(eV)
   0   2.0000     -88.968950     -2420.9682
   1   2.0000     -88.967193     -2420.9204
   2   2.0000     -10.333000      -281.1752
   3   2.0000     -10.330173      -281.0983
   4   2.0000     -10.313608      -280.6475
   5   2.0000     -10.310851      -280.5725
   6   2.0000     -10.305027      -280.4140
   7   2.0000     -10.304558      -280.4013
   8   2.0000     -10.300670      -280.2955
   9   2.0000     -10.294423      -280.1255
  10   2.0000     -10.290875      -280.0290
  11   2.0000     -10.289970      -280.0043
  12   2.0000     -10.289454      -279.9903
  13   2.0000     -10.284555      -279.8570
  14   2.0000     -10.277377      -279.6616
  15   2.0000     -10.272553      -279.5304
  16   2.0000      -8.083134      -219.9533
  17   2.0000      -8.082354      -219.9320
  18   2.0000      -6.041714      -164.4034
  19   2.0000      -6.040747      -164.3771
  20   2.0000      -6.037714      -164.2945
  21   2.0000      -6.036830      -164.2705
  22   2.0000      -6.033864      -164.1898
  23   2.0000      -6.033184      -164.1713
  24   2.0000      -1.006018       -27.3751
  25   2.0000      -0.983962       -26.7750
  26   2.0000      -0.910176       -24.7671
  27   2.0000      -0.902127       -24.5481
  28   2.0000      -0.869575       -23.6623
  29   2.0000      -0.849772       -23.1235
  30   2.0000      -0.844035       -22.9674
  31   2.0000      -0.818042       -22.2600
  32   2.0000      -0.781875       -21.2759
  33   2.0000      -0.770596       -20.9690
  34   2.0000      -0.709814       -19.3150
  35   2.0000      -0.697196       -18.9717
  36   2.0000      -0.694404       -18.8957
  37   2.0000      -0.667136       -18.1537
  38   2.0000      -0.640058       -17.4169
  39   2.0000      -0.629862       -17.1394
  40   2.0000      -0.604776       -16.4568
  41   2.0000      -0.568391       -15.4667
  42   2.0000      -0.557458       -15.1692
  43   2.0000      -0.551150       -14.9976
  44   2.0000      -0.536856       -14.6086
  45   2.0000      -0.528463       -14.3802
  46   2.0000      -0.518335       -14.1046
  47   2.0000      -0.514827       -14.0091
  48   2.0000      -0.503268       -13.6946
  49   2.0000      -0.502453       -13.6725
  50   2.0000      -0.491798       -13.3825
  51   2.0000      -0.475761       -12.9461
  52   2.0000      -0.468055       -12.7364
  53   2.0000      -0.460922       -12.5423
  54   2.0000      -0.457520       -12.4497
  55   2.0000      -0.455291       -12.3891
  56   2.0000      -0.446693       -12.1551
  57   2.0000      -0.439741       -11.9660
  58   2.0000      -0.432526       -11.7696
  59   2.0000      -0.426283       -11.5998
  60   2.0000      -0.420305       -11.4371
  61   2.0000      -0.415915       -11.3176
  62   2.0000      -0.409083       -11.1317
  63   2.0000      -0.348612        -9.4862
  64   2.0000      -0.334045        -9.0898
  65   2.0000      -0.327374        -8.9083
  66   2.0000      -0.291713        -7.9379
  67   0.0000       0.032186         0.8758
  68   0.0000       0.063418         1.7257
  69   0.0000       0.108794         2.9604
  70   0.0000       0.121407         3.3037
  71   0.0000       0.131001         3.5647

MULLIKEN ATOMIC CHARGES
-----------------------
   0 S :    0.115494
   1 C :   -0.112281
   2 C :   -0.089504
   3 C :    0.044580
   4 C :   -0.127736
   5 H :   -0.009665
   6 C :    0.069825
   7 H :    0.041490
   8 H :    0.018989
   9 C :   -0.084739
  10 H :    0.040143
  11 H :    0.037117
  12 C :   -0.088088
  13 H :    0.037677
  14 H :    0.039016
  15 H :    0.034717
  16 S :    0.108738
  17 C :   -0.047568
  18 C :   -0.005318
  19 C :   -0.019154
  20 C :   -0.165426
  21 H :    0.007801
  22 C :    0.046571
  23 H :    0.007218
  24 H :    0.028950
  25 C :   -0.030909
  26 H :    0.021555
  27 H :    0.025990
  28 C :   -0.066538
  29 H :    0.022286
  30 H :    0.043025
  31 H :    0.018402
  32 H :    0.027978
  33 H :    0.009364
Sum of atomic charges:   -0.0000000

LOEWDIN ATOMIC CHARGES
----------------------
   0 S :    0.400870
   1 C :   -0.192295
   2 C :   -0.056614
   3 C :   -0.061816
   4 C :   -0.185742
   5 H :    0.021728
   6 C :   -0.029429
   7 H :    0.032782
   8 H :    0.027561
   9 C :   -0.039430
  10 H :    0.033792
  11 H :    0.021515
  12 C :   -0.078246
  13 H :    0.024842
  14 H :    0.023437
  15 H :    0.031935
  16 S :    0.416974
  17 C :   -0.151361
  18 C :   -0.054885
  19 C :   -0.052086
  20 C :   -0.216145
  21 H :    0.028085
  22 C :   -0.028843
  23 H :    0.023055
  24 H :    0.030613
  25 C :   -0.037494
  26 H :    0.016248
  27 H :    0.025651
  28 C :   -0.066920
  29 H :    0.027215
  30 H :    0.027787
  31 H :    0.015611
  32 H :    0.019052
  33 H :    0.002553

  Mayer bond orders larger than 0.100000
B(  0-S ,  1-C ) :   1.1340 B(  0-S ,  4-C ) :   1.1546 B(  1-C ,  2-C ) :   1.6139
B(  1-C , 32-H ) :   0.9756 B(  2-C ,  3-C ) :   1.2568 B(  2-C ,  6-C ) :   0.9996
B(  3-C ,  4-C ) :   1.5775 B(  3-C ,  5-H ) :   1.0001 B(  4-C , 20-C ) :   1.0146
B(  6-C ,  7-H ) :   0.9379 B(  6-C ,  8-H ) :   0.9450 B(  6-C ,  9-C ) :   1.0780
B(  9-C , 10-H ) :   0.9549 B(  9-C , 11-H ) :   0.9527 B(  9-C , 12-C ) :   1.0698
B( 12-C , 13-H ) :   0.9769 B( 12-C , 14-H ) :   0.9794 B( 12-C , 15-H ) :   0.9742
B( 16-S , 17-C ) :   1.1538 B( 16-S , 20-C ) :   1.1604 B( 17-C , 18-C ) :   1.5977
B( 17-C , 20-C ) :   0.1050 B( 17-C , 33-H ) :   0.9846 B( 18-C , 19-C ) :   1.2458
B( 18-C , 21-H ) :   1.0016 B( 19-C , 20-C ) :   1.5623 B( 19-C , 22-C ) :   1.0406
B( 22-C , 23-H ) :   0.9350 B( 22-C , 24-H ) :   0.9565 B( 22-C , 25-C ) :   1.0371
B( 25-C , 26-H ) :   0.9673 B( 25-C , 27-H ) :   0.9518 B( 25-C , 28-C ) :   1.0836
B( 28-C , 29-H ) :   0.9742 B( 28-C , 30-H ) :   0.9753 B( 28-C , 31-H ) :   0.9740

Dispersion correction           -0.013763423
FINAL SINGLE POINT ENERGY     -1339.866517965692

DIPOLE MOMENT
-------------
                                X             Y             Z
Electronic contribution:     21.18671      -3.55130     -14.93776
Nuclear contribution   :    -21.70316       3.73028      15.34437
                        -----------------------------------------
Total Dipole Moment    :     -0.51645       0.17897       0.40661
                        -----------------------------------------
Magnitude (a.u.)       :      0.68123
Magnitude (Debye)      :      1.73156

Rotational constants in cm-1:     0.016543     0.008327     0.007047
Rotational constants in MHz :   495.946702   249.640069   211.248874

                             ****ORCA TERMINATED NORMALLY****
TOTAL RUN TIME: 0 days 0 hours 0 minutes 29 seconds 679 msec
