                         Program Version 4.2.1 -  RELEASE  -
|  1> ! wB97X-D3 SP def2-SVP
|  2> %pal
|  3> nprocs 16
|  4> end
|  5>
|  6> * xyz 0 1
|  7> S 	 47.4032 	 16.533 	 85.9289
|  8> C 	 46.9079 	 18.223 	 85.6229
|  9> C 	 47.4893 	 18.6918 	 84.4791
| 10> C 	 48.3837 	 17.7587 	 83.8862
| 11> C 	 48.373 	 16.4973 	 84.4906
| 12> H 	 48.9669 	 17.8999 	 83.0159
| 13> C 	 47.0182 	 19.9411 	 83.7808
| 14> H 	 47.7143 	 20.7275 	 83.8762
| 15> H 	 46.1845 	 20.2731 	 84.4452
| 16> C 	 46.5881 	 19.8169 	 82.2224
| 17> H 	 46.1081 	 18.8305 	 82.0156
| 18> H 	 45.8902 	 20.6652 	 82.0842
| 19> C 	 47.76 	 20.0954 	 81.2494
| 20> H 	 48.2248 	 19.1785 	 81.034
| 21> H 	 47.3812 	 20.3708 	 80.2814
| 22> H 	 48.4351 	 20.8754 	 81.492
| 23> S 	 48.7507 	 13.8152 	 84.3772
| 24> C 	 50.2787 	 13.2861 	 83.6571
| 25> C 	 51.1859 	 14.2841 	 83.5477
| 26> C 	 50.6876 	 15.5579 	 83.9622
| 27> C 	 49.3633 	 15.4683 	 84.3301
| 28> H 	 52.175 	 14.122 	 83.1662
| 29> C 	 51.5324 	 16.8289 	 83.7626
| 30> H 	 51.0323 	 17.6031 	 84.2747
| 31> H 	 51.3307 	 17.0968 	 82.7466
| 32> C 	 53.0666 	 16.7792 	 83.9341
| 33> H 	 53.529 	 17.7566 	 83.5982
| 34> H 	 53.5317 	 15.9965 	 83.3984
| 35> C 	 53.537 	 16.7747 	 85.433
| 36> H 	 54.5997 	 16.7261 	 85.4769
| 37> H 	 53.1649 	 15.9195 	 86.0563
| 38> H 	 53.177 	 17.5732 	 86.0161
| 39> H 	 46.1761 	 18.7848 	 86.1548
| 40> H 	 50.5147 	 12.2868 	 83.439
| 41> *
| 42>
| 43>                          ****END OF INPUT****

CARTESIAN COORDINATES (ANGSTROEM)
---------------------------------
  S     47.403200   16.533000   85.928900
  C     46.907900   18.223000   85.622900
  C     47.489300   18.691800   84.479100
  C     48.383700   17.758700   83.886200
  C     48.373000   16.497300   84.490600
  H     48.966900   17.899900   83.015900
  C     47.018200   19.941100   83.780800
  H     47.714300   20.727500   83.876200
  H     46.184500   20.273100   84.445200
  C     46.588100   19.816900   82.222400
  H     46.108100   18.830500   82.015600
  H     45.890200   20.665200   82.084200
  C     47.760000   20.095400   81.249400
  H     48.224800   19.178500   81.034000
  H     47.381200   20.370800   80.281400
  H     48.435100   20.875400   81.492000
  S     48.750700   13.815200   84.377200
  C     50.278700   13.286100   83.657100
  C     51.185900   14.284100   83.547700
  C     50.687600   15.557900   83.962200
  C     49.363300   15.468300   84.330100
  H     52.175000   14.122000   83.166200
  C     51.532400   16.828900   83.762600
  H     51.032300   17.603100   84.274700
  H     51.330700   17.096800   82.746600
  C     53.066600   16.779200   83.934100
  H     53.529000   17.756600   83.598200
  H     53.531700   15.996500   83.398400
  C     53.537000   16.774700   85.433000
  H     54.599700   16.726100   85.476900
  H     53.164900   15.919500   86.056300
  H     53.177000   17.573200   86.016100
  H     46.176100   18.784800   86.154800
  H     50.514700   12.286800   83.439000

 Total Charge           Charge          ....    0
 Multiplicity           Mult            ....    1
 Number of Electrons    NEL             ....  134
 Basis Dimension        Dim             ....  322

ORBITAL ENERGIES
----------------

  NO   OCC          E(Eh)            E(eV)
   0   2.0000     -88.963078     -2420.8084
   1   2.0000     -88.963041     -2420.8074
   2   2.0000     -10.325213      -280.9633
   3   2.0000     -10.322155      -280.8801
   4   2.0000     -10.312636      -280.6211
   5   2.0000     -10.311750      -280.5970
   6   2.0000     -10.303899      -280.3833
   7   2.0000     -10.300737      -280.2973
   8   2.0000     -10.297049      -280.1970
   9   2.0000     -10.296965      -280.1947
  10   2.0000     -10.294196      -280.1193
  11   2.0000     -10.290371      -280.0152
  12   2.0000     -10.289744      -279.9982
  13   2.0000     -10.289285      -279.9857
  14   2.0000     -10.273001      -279.5426
  15   2.0000     -10.272825      -279.5378
  16   2.0000      -8.077778      -219.8075
  17   2.0000      -8.077652      -219.8041
  18   2.0000      -6.036330      -164.2569
  19   2.0000      -6.036254      -164.2548
  20   2.0000      -6.032529      -164.1535
  21   2.0000      -6.032149      -164.1431
  22   2.0000      -6.028333      -164.0393
  23   2.0000      -6.028265      -164.0374
  24   2.0000      -1.007222       -27.4079
  25   2.0000      -0.982109       -26.7246
  26   2.0000      -0.906079       -24.6557
  27   2.0000      -0.903897       -24.5963
  28   2.0000      -0.871828       -23.7236
  29   2.0000      -0.850272       -23.1371
  30   2.0000      -0.842713       -22.9314
  31   2.0000      -0.816818       -22.2268
  32   2.0000      -0.788080       -21.4447
  33   2.0000      -0.775505       -21.1026
  34   2.0000      -0.713921       -19.4268
  35   2.0000      -0.704670       -19.1750
  36   2.0000      -0.698485       -19.0067
  37   2.0000      -0.660042       -17.9606
  38   2.0000      -0.641357       -17.4522
  39   2.0000      -0.619415       -16.8551
  40   2.0000      -0.599713       -16.3190
  41   2.0000      -0.573414       -15.6034
  42   2.0000      -0.550349       -14.9757
  43   2.0000      -0.542761       -14.7693
  44   2.0000      -0.538416       -14.6510
  45   2.0000      -0.529585       -14.4107
  46   2.0000      -0.525023       -14.2866
  47   2.0000      -0.516584       -14.0570
  48   2.0000      -0.505274       -13.7492
  49   2.0000      -0.497220       -13.5300
  50   2.0000      -0.495744       -13.4899
  51   2.0000      -0.483260       -13.1502
  52   2.0000      -0.468857       -12.7582
  53   2.0000      -0.463892       -12.6231
  54   2.0000      -0.458803       -12.4847
  55   2.0000      -0.450626       -12.2621
  56   2.0000      -0.443252       -12.0615
  57   2.0000      -0.439570       -11.9613
  58   2.0000      -0.434158       -11.8140
  59   2.0000      -0.428693       -11.6653
  60   2.0000      -0.422950       -11.5091
  61   2.0000      -0.415256       -11.2997
  62   2.0000      -0.411902       -11.2084
  63   2.0000      -0.350361        -9.5338
  64   2.0000      -0.330022        -8.9804
  65   2.0000      -0.328096        -8.9280
  66   2.0000      -0.288262        -7.8440
  67   0.0000       0.027474         0.7476
  68   0.0000       0.073974         2.0129
  69   0.0000       0.101470         2.7611
  70   0.0000       0.124180         3.3791
  71   0.0000       0.131579         3.5804

MULLIKEN ATOMIC CHARGES
-----------------------
   0 S :    0.093908
   1 C :   -0.108710
   2 C :   -0.079630
   3 C :   -0.004101
   4 C :   -0.097767
   5 H :   -0.009518
   6 C :    0.077698
   7 H :    0.018455
   8 H :    0.014151
   9 C :   -0.098568
  10 H :    0.057220
  11 H :    0.039900
  12 C :   -0.020825
  13 H :    0.023166
  14 H :    0.017606
  15 H :    0.029764
  16 S :    0.097404
  17 C :   -0.055677
  18 C :   -0.035445
  19 C :   -0.047747
  20 C :   -0.164615
  21 H :    0.010022
  22 C :    0.082249
  23 H :    0.017534
  24 H :    0.034939
  25 C :   -0.055632
  26 H :    0.039150
  27 H :    0.028039
  28 C :   -0.055175
  29 H :    0.028979
  30 H :    0.032451
  31 H :    0.022623
  32 H :    0.034363
  33 H :    0.033787
Sum of atomic charges:    0.0000000

LOEWDIN ATOMIC CHARGES
----------------------
   0 S :    0.394338
   1 C :   -0.182263
   2 C :   -0.066556
   3 C :   -0.064074
   4 C :   -0.194514
   5 H :    0.021843
   6 C :   -0.030290
   7 H :    0.022075
   8 H :    0.032757
   9 C :   -0.032534
  10 H :    0.034389
  11 H :    0.029103
  12 C :   -0.064492
  13 H :    0.018418
  14 H :    0.027094
  15 H :    0.022005
  16 S :    0.382167
  17 C :   -0.161132
  18 C :   -0.067107
  19 C :   -0.046668
  20 C :   -0.198321
  21 H :    0.028659
  22 C :   -0.029292
  23 H :    0.026554
  24 H :    0.033146
  25 C :   -0.031932
  26 H :    0.037879
  27 H :    0.016660
  28 C :   -0.067692
  29 H :    0.020610
  30 H :    0.029369
  31 H :    0.018992
  32 H :    0.022520
  33 H :    0.018288

  Mayer bond orders larger than 0.100000
B(  0-S ,  1-C ) :   1.1266 B(  0-S ,  4-C ) :   1.1530 B(  1-C ,  2-C ) :   1.6267
B(  1-C , 32-H ) :   0.9651 B(  2-C ,  3-C ) :   1.2262 B(  2-C ,  6-C ) :   1.0281
B(  3-C ,  4-C ) :   1.5652 B(  3-C ,  5-H ) :   1.0067 B(  4-C , 20-C ) :   1.0245
B(  6-C ,  7-H ) :   0.9325 B(  6-C ,  8-H ) :   0.9420 B(  6-C ,  9-C ) :   1.0453
B(  9-C , 10-H ) :   0.9635 B(  9-C , 11-H ) :   0.9614 B(  9-C , 12-C ) :   1.0705
B( 12-C , 13-H ) :   0.9759 B( 12-C , 14-H ) :   0.9680 B( 12-C , 15-H ) :   0.9765
B( 16-S , 17-C ) :   1.1342 B( 16-S , 20-C ) :   1.1144 B( 17-C , 18-C ) :   1.6496
B( 17-C , 33-H ) :   0.9711 B( 18-C , 19-C ) :   1.2118 B( 18-C , 21-H ) :   0.9920
B( 19-C , 20-C ) :   1.6336 B( 19-C , 22-C ) :   1.0257 B( 22-C , 23-H ) :   0.9304
B( 22-C , 24-H ) :   0.9270 B( 22-C , 25-C ) :   1.0702 B( 25-C , 26-H ) :   0.9539
B( 25-C , 27-H ) :   0.9556 B( 25-C , 28-C ) :   1.0715 B( 28-C , 29-H ) :   0.9775
B( 28-C , 30-H ) :   0.9763 B( 28-C , 31-H ) :   0.9759

Dispersion correction           -0.014245675
FINAL SINGLE POINT ENERGY     -1339.862964019881

DIPOLE MOMENT
-------------
                                X             Y             Z
Electronic contribution:    -12.67907     -20.30113      11.38873
Nuclear contribution   :     13.09475      20.88101     -11.91690
                        -----------------------------------------
Total Dipole Moment    :      0.41567       0.57988      -0.52817
                        -----------------------------------------
Magnitude (a.u.)       :      0.88770
Magnitude (Debye)      :      2.25636

Rotational constants in cm-1:     0.016906     0.008926     0.007376
Rotational constants in MHz :   506.821502   267.591971   221.120540

                             ****ORCA TERMINATED NORMALLY****
TOTAL RUN TIME: 0 days 0 hours 0 minutes 30 seconds 465 msec
