                         Program Version 4.2.1 -  RELEASE  -
|  1> ! wB97X-D3 SP def2-SVP
|  2> %pal
|  3> nprocs 16
|  4> end
|  5>
|  6> * xyz 0 1
|  7> S 	 -38.7982 	 -1.93767 	 98.5369
|  8> C 	 -39.8745 	 -3.29747 	 98.62
|  9> C 	 -39.4514 	 -4.33693 	 97.8675
| 10> C 	 -38.2298 	 -4.01224 	 97.1835
| 11> C 	 -37.6968 	 -2.74791 	 97.4921
| 12> H 	 -37.6286 	 -4.59989 	 96.4779
| 13> C 	 -40.2236 	 -5.65208 	 97.6463
| 14> H 	 -40.7765 	 -5.76819 	 98.6238
| 15> H 	 -39.5293 	 -6.46144 	 97.7061
| 16> C 	 -41.1843 	 -5.65743 	 96.48
| 17> H 	 -40.5667 	 -5.53037 	 95.5983
| 18> H 	 -41.5521 	 -6.67342 	 96.3215
| 19> C 	 -42.308 	 -4.56004 	 96.5194
| 20> H 	 -43.0279 	 -4.47365 	 95.6796
| 21> H 	 -42.9387 	 -4.66115 	 97.3999
| 22> H 	 -41.8393 	 -3.56885 	 96.5471
| 23> S 	 -35.3008 	 -1.60679 	 98.3351
| 24> C 	 -34.0547 	 -1.25105 	 97.2112
| 25> C 	 -34.5081 	 -1.56135 	 95.9376
| 26> C 	 -35.8343 	 -2.1036 	 95.9208
| 27> C 	 -36.3768 	 -2.24724 	 97.1206
| 28> H 	 -33.8608 	 -1.35665 	 95.1127
| 29> C 	 -36.4752 	 -2.4112 	 94.6115
| 30> H 	 -35.8878 	 -1.83948 	 93.9006
| 31> H 	 -37.5148 	 -1.96212 	 94.6058
| 32> C 	 -36.425 	 -3.84862 	 94.1255
| 33> H 	 -37.3064 	 -4.41478 	 94.4151
| 34> H 	 -35.4436 	 -4.30715 	 94.4082
| 35> C 	 -36.3573 	 -3.79294 	 92.6185
| 36> H 	 -35.4915 	 -3.30828 	 92.2029
| 37> H 	 -37.2339 	 -3.34398 	 92.1698
| 38> H 	 -36.2354 	 -4.82212 	 92.1415
| 39> H 	 -40.6962 	 -3.39302 	 99.2012
| 40> H 	 -33.0587 	 -0.81376 	 97.299
| 41> *
| 42>
| 43>                          ****END OF INPUT****

CARTESIAN COORDINATES (ANGSTROEM)
---------------------------------
  S    -38.798200   -1.937670   98.536900
  C    -39.874500   -3.297470   98.620000
  C    -39.451400   -4.336930   97.867500
  C    -38.229800   -4.012240   97.183500
  C    -37.696800   -2.747910   97.492100
  H    -37.628600   -4.599890   96.477900
  C    -40.223600   -5.652080   97.646300
  H    -40.776500   -5.768190   98.623800
  H    -39.529300   -6.461440   97.706100
  C    -41.184300   -5.657430   96.480000
  H    -40.566700   -5.530370   95.598300
  H    -41.552100   -6.673420   96.321500
  C    -42.308000   -4.560040   96.519400
  H    -43.027900   -4.473650   95.679600
  H    -42.938700   -4.661150   97.399900
  H    -41.839300   -3.568850   96.547100
  S    -35.300800   -1.606790   98.335100
  C    -34.054700   -1.251050   97.211200
  C    -34.508100   -1.561350   95.937600
  C    -35.834300   -2.103600   95.920800
  C    -36.376800   -2.247240   97.120600
  H    -33.860800   -1.356650   95.112700
  C    -36.475200   -2.411200   94.611500
  H    -35.887800   -1.839480   93.900600
  H    -37.514800   -1.962120   94.605800
  C    -36.425000   -3.848620   94.125500
  H    -37.306400   -4.414780   94.415100
  H    -35.443600   -4.307150   94.408200
  C    -36.357300   -3.792940   92.618500
  H    -35.491500   -3.308280   92.202900
  H    -37.233900   -3.343980   92.169800
  H    -36.235400   -4.822120   92.141500
  H    -40.696200   -3.393020   99.201200
  H    -33.058700   -0.813760   97.299000

 Total Charge           Charge          ....    0
 Multiplicity           Mult            ....    1
 Number of Electrons    NEL             ....  134
 Basis Dimension        Dim             ....  322

ORBITAL ENERGIES
----------------

  NO   OCC          E(Eh)            E(eV)
   0   2.0000     -88.966819     -2420.9102
   1   2.0000     -88.963731     -2420.8262
   2   2.0000     -10.328933      -281.0646
   3   2.0000     -10.319444      -280.8063
   4   2.0000     -10.316383      -280.7231
   5   2.0000     -10.304065      -280.3879
   6   2.0000     -10.299453      -280.2624
   7   2.0000     -10.296584      -280.1843
   8   2.0000     -10.295666      -280.1593
   9   2.0000     -10.291995      -280.0594
  10   2.0000     -10.291684      -280.0510
  11   2.0000     -10.289117      -279.9811
  12   2.0000     -10.288984      -279.9775
  13   2.0000     -10.288039      -279.9518
  14   2.0000     -10.283233      -279.8210
  15   2.0000     -10.277466      -279.6641
  16   2.0000      -8.082105      -219.9253
  17   2.0000      -8.079155      -219.8450
  18   2.0000      -6.040609      -164.3733
  19   2.0000      -6.037797      -164.2968
  20   2.0000      -6.036363      -164.2578
  21   2.0000      -6.033431      -164.1780
  22   2.0000      -6.033016      -164.1667
  23   2.0000      -6.029836      -164.0802
  24   2.0000      -1.014625       -27.6094
  25   2.0000      -0.992550       -27.0087
  26   2.0000      -0.918122       -24.9834
  27   2.0000      -0.912115       -24.8199
  28   2.0000      -0.872726       -23.7481
  29   2.0000      -0.854537       -23.2531
  30   2.0000      -0.841571       -22.9003
  31   2.0000      -0.816111       -22.2075
  32   2.0000      -0.785889       -21.3851
  33   2.0000      -0.774035       -21.0626
  34   2.0000      -0.712945       -19.4002
  35   2.0000      -0.705342       -19.1933
  36   2.0000      -0.695622       -18.9288
  37   2.0000      -0.666359       -18.1326
  38   2.0000      -0.645959       -17.5774
  39   2.0000      -0.614455       -16.7202
  40   2.0000      -0.593570       -16.1519
  41   2.0000      -0.576164       -15.6782
  42   2.0000      -0.571892       -15.5620
  43   2.0000      -0.551140       -14.9973
  44   2.0000      -0.540463       -14.7068
  45   2.0000      -0.524522       -14.2730
  46   2.0000      -0.521527       -14.1915
  47   2.0000      -0.512545       -13.9471
  48   2.0000      -0.509006       -13.8507
  49   2.0000      -0.504831       -13.7371
  50   2.0000      -0.490693       -13.3524
  51   2.0000      -0.477551       -12.9948
  52   2.0000      -0.468645       -12.7525
  53   2.0000      -0.463671       -12.6171
  54   2.0000      -0.460119       -12.5205
  55   2.0000      -0.451700       -12.2914
  56   2.0000      -0.446387       -12.1468
  57   2.0000      -0.437420       -11.9028
  58   2.0000      -0.430355       -11.7105
  59   2.0000      -0.425082       -11.5671
  60   2.0000      -0.420895       -11.4531
  61   2.0000      -0.413920       -11.2633
  62   2.0000      -0.410851       -11.1798
  63   2.0000      -0.349340        -9.5060
  64   2.0000      -0.333465        -9.0740
  65   2.0000      -0.328299        -8.9335
  66   2.0000      -0.299055        -8.1377
  67   0.0000       0.034898         0.9496
  68   0.0000       0.074256         2.0206
  69   0.0000       0.124573         3.3898
  70   0.0000       0.126135         3.4323
  71   0.0000       0.131514         3.5787

MULLIKEN ATOMIC CHARGES
-----------------------
   0 S :    0.123514
   1 C :   -0.067136
   2 C :   -0.106325
   3 C :    0.017239
   4 C :   -0.176648
   5 H :    0.010975
   6 C :    0.068537
   7 H :    0.018926
   8 H :    0.024876
   9 C :   -0.020604
  10 H :    0.018190
  11 H :    0.029667
  12 C :   -0.074696
  13 H :    0.039513
  14 H :    0.027187
  15 H :    0.047241
  16 S :    0.115609
  17 C :   -0.083287
  18 C :   -0.055576
  19 C :   -0.039035
  20 C :   -0.146750
  21 H :    0.007617
  22 C :    0.065842
  23 H :    0.004472
  24 H :    0.047810
  25 C :   -0.048751
  26 H :    0.047794
  27 H :    0.038909
  28 C :   -0.075974
  29 H :    0.025808
  30 H :    0.029955
  31 H :    0.029419
  32 H :   -0.003608
  33 H :    0.059289
Sum of atomic charges:   -0.0000000

LOEWDIN ATOMIC CHARGES
----------------------
   0 S :    0.425375
   1 C :   -0.182609
   2 C :   -0.064030
   3 C :   -0.064797
   4 C :   -0.203524
   5 H :    0.029843
   6 C :   -0.029229
   7 H :    0.032566
   8 H :    0.028744
   9 C :   -0.039146
  10 H :    0.023261
  11 H :    0.026154
  12 C :   -0.071565
  13 H :    0.031153
  14 H :    0.022234
  15 H :    0.030222
  16 S :    0.420502
  17 C :   -0.198513
  18 C :   -0.074367
  19 C :   -0.066085
  20 C :   -0.203005
  21 H :    0.025265
  22 C :   -0.033600
  23 H :    0.028492
  24 H :    0.041902
  25 C :   -0.042686
  26 H :    0.025720
  27 H :    0.034496
  28 C :   -0.070426
  29 H :    0.019584
  30 H :    0.021475
  31 H :    0.029081
  32 H :    0.007318
  33 H :    0.040194

  Mayer bond orders larger than 0.100000
B(  0-S ,  1-C ) :   1.1403 B(  0-S ,  4-C ) :   1.1578 B(  1-C ,  2-C ) :   1.6223
B(  1-C , 32-H ) :   0.9748 B(  2-C ,  3-C ) :   1.2373 B(  2-C ,  6-C ) :   1.0107
B(  3-C ,  4-C ) :   1.5661 B(  3-C ,  5-H ) :   0.9881 B(  4-C , 20-C ) :   1.0406
B(  6-C ,  7-H ) :   0.9390 B(  6-C ,  8-H ) :   0.9405 B(  6-C ,  9-C ) :   1.0684
B(  9-C , 10-H ) :   0.9538 B(  9-C , 11-H ) :   0.9557 B(  9-C , 12-C ) :   1.0591
B( 12-C , 13-H ) :   0.9769 B( 12-C , 14-H ) :   0.9783 B( 12-C , 15-H ) :   0.9732
B( 16-S , 17-C ) :   1.1610 B( 16-S , 20-C ) :   1.1185 B( 17-C , 18-C ) :   1.6160
B( 17-C , 33-H ) :   0.9637 B( 18-C , 19-C ) :   1.2359 B( 18-C , 21-H ) :   0.9928
B( 19-C , 20-C ) :   1.6312 B( 19-C , 22-C ) :   1.0533 B( 22-C , 23-H ) :   0.9371
B( 22-C , 24-H ) :   0.9140 B( 22-C , 25-C ) :   1.0658 B( 25-C , 26-H ) :   0.9397
B( 25-C , 27-H ) :   0.9552 B( 25-C , 28-C ) :   1.0895 B( 28-C , 29-H ) :   0.9737
B( 28-C , 30-H ) :   0.9724 B( 28-C , 31-H ) :   0.9719

Dispersion correction           -0.014749255
FINAL SINGLE POINT ENERGY     -1339.877930194647

DIPOLE MOMENT
-------------
                                X             Y             Z
Electronic contribution:     12.25410      15.64824      21.52550
Nuclear contribution   :    -12.30724     -15.99527     -22.08829
                        -----------------------------------------
Total Dipole Moment    :     -0.05314      -0.34703      -0.56279
                        -----------------------------------------
Magnitude (a.u.)       :      0.66331
Magnitude (Debye)      :      1.68601

Rotational constants in cm-1:     0.018913     0.009336     0.006775
Rotational constants in MHz :   566.985534   279.884631   203.113729

                             ****ORCA TERMINATED NORMALLY****
TOTAL RUN TIME: 0 days 0 hours 0 minutes 31 seconds 339 msec
