                         Program Version 4.2.1 -  RELEASE  -
|  1> ! wB97X-D3 SP def2-SVP
|  2> %pal
|  3> nprocs 16
|  4> end
|  5>
|  6> * xyz 0 1
|  7> S 	 8.35501 	 -15.9228 	 55.3916
|  8> C 	 7.42713 	 -15.4938 	 56.8733
|  9> C 	 6.10852 	 -15.3962 	 56.5227
| 10> C 	 5.86505 	 -15.6646 	 55.1265
| 11> C 	 6.98666 	 -15.9932 	 54.3891
| 12> H 	 4.90574 	 -15.713 	 54.5366
| 13> C 	 5.02197 	 -15.1231 	 57.5174
| 14> H 	 4.74144 	 -14.0702 	 57.4498
| 15> H 	 5.48324 	 -15.283 	 58.4519
| 16> C 	 3.68765 	 -16.0097 	 57.398
| 17> H 	 3.05218 	 -15.6172 	 58.1752
| 18> H 	 3.21185 	 -15.8276 	 56.4087
| 19> C 	 3.89233 	 -17.4778 	 57.6872
| 20> H 	 4.64065 	 -17.5017 	 58.4465
| 21> H 	 3.08618 	 -18.0141 	 58.1077
| 22> H 	 4.18187 	 -18.0163 	 56.7857
| 23> S 	 6.85394 	 -15.0271 	 51.8013
| 24> C 	 7.17243 	 -16.1323 	 50.4884
| 25> C 	 7.41424 	 -17.4421 	 50.9611
| 26> C 	 7.35067 	 -17.5256 	 52.4214
| 27> C 	 7.08935 	 -16.3042 	 53.0133
| 28> H 	 7.51525 	 -18.2344 	 50.2953
| 29> C 	 7.46884 	 -18.828 	 53.1603
| 30> H 	 8.50686 	 -18.8487 	 53.585
| 31> H 	 7.34866 	 -19.6315 	 52.4208
| 32> C 	 6.60902 	 -19.2531 	 54.3521
| 33> H 	 5.56067 	 -19.0619 	 54.1903
| 34> H 	 6.99717 	 -18.6643 	 55.1479
| 35> C 	 7.10222 	 -20.6845 	 54.7491
| 36> H 	 8.20451 	 -20.6978 	 54.8747
| 37> H 	 6.8866 	 -21.5095 	 54.0538
| 38> H 	 6.65637 	 -20.9589 	 55.6924
| 39> H 	 7.80998 	 -15.5358 	 57.9
| 40> H 	 7.2643 	 -15.9087 	 49.4613
| 41> *
| 42>
| 43>                          ****END OF INPUT****

CARTESIAN COORDINATES (ANGSTROEM)
---------------------------------
  S      8.355010  -15.922800   55.391600
  C      7.427130  -15.493800   56.873300
  C      6.108520  -15.396200   56.522700
  C      5.865050  -15.664600   55.126500
  C      6.986660  -15.993200   54.389100
  H      4.905740  -15.713000   54.536600
  C      5.021970  -15.123100   57.517400
  H      4.741440  -14.070200   57.449800
  H      5.483240  -15.283000   58.451900
  C      3.687650  -16.009700   57.398000
  H      3.052180  -15.617200   58.175200
  H      3.211850  -15.827600   56.408700
  C      3.892330  -17.477800   57.687200
  H      4.640650  -17.501700   58.446500
  H      3.086180  -18.014100   58.107700
  H      4.181870  -18.016300   56.785700
  S      6.853940  -15.027100   51.801300
  C      7.172430  -16.132300   50.488400
  C      7.414240  -17.442100   50.961100
  C      7.350670  -17.525600   52.421400
  C      7.089350  -16.304200   53.013300
  H      7.515250  -18.234400   50.295300
  C      7.468840  -18.828000   53.160300
  H      8.506860  -18.848700   53.585000
  H      7.348660  -19.631500   52.420800
  C      6.609020  -19.253100   54.352100
  H      5.560670  -19.061900   54.190300
  H      6.997170  -18.664300   55.147900
  C      7.102220  -20.684500   54.749100
  H      8.204510  -20.697800   54.874700
  H      6.886600  -21.509500   54.053800
  H      6.656370  -20.958900   55.692400
  H      7.809980  -15.535800   57.900000
  H      7.264300  -15.908700   49.461300

 Total Charge           Charge          ....    0
 Multiplicity           Mult            ....    1
 Number of Electrons    NEL             ....  134
 Basis Dimension        Dim             ....  322

ORBITAL ENERGIES
----------------

  NO   OCC          E(Eh)            E(eV)
   0   2.0000     -88.967567     -2420.9306
   1   2.0000     -88.962197     -2420.7845
   2   2.0000     -10.322388      -280.8864
   3   2.0000     -10.321965      -280.8750
   4   2.0000     -10.320130      -280.8250
   5   2.0000     -10.317469      -280.7526
   6   2.0000     -10.306553      -280.4556
   7   2.0000     -10.302613      -280.3484
   8   2.0000     -10.296079      -280.1705
   9   2.0000     -10.295964      -280.1674
  10   2.0000     -10.291365      -280.0423
  11   2.0000     -10.291178      -280.0372
  12   2.0000     -10.289868      -280.0016
  13   2.0000     -10.281513      -279.7742
  14   2.0000     -10.280654      -279.7508
  15   2.0000     -10.269202      -279.4392
  16   2.0000      -8.081749      -219.9156
  17   2.0000      -8.076972      -219.7856
  18   2.0000      -6.040387      -164.3673
  19   2.0000      -6.036223      -164.2540
  20   2.0000      -6.035530      -164.2351
  21   2.0000      -6.032508      -164.1529
  22   2.0000      -6.031299      -164.1200
  23   2.0000      -6.027812      -164.0251
  24   2.0000      -1.008202       -27.4346
  25   2.0000      -0.979963       -26.6662
  26   2.0000      -0.912380       -24.8271
  27   2.0000      -0.908359       -24.7177
  28   2.0000      -0.873376       -23.7658
  29   2.0000      -0.848839       -23.0981
  30   2.0000      -0.842671       -22.9302
  31   2.0000      -0.813542       -22.1376
  32   2.0000      -0.783939       -21.3321
  33   2.0000      -0.769376       -20.9358
  34   2.0000      -0.716934       -19.5088
  35   2.0000      -0.699705       -19.0399
  36   2.0000      -0.688891       -18.7457
  37   2.0000      -0.668653       -18.1950
  38   2.0000      -0.638470       -17.3737
  39   2.0000      -0.613625       -16.6976
  40   2.0000      -0.593057       -16.1379
  41   2.0000      -0.573823       -15.6145
  42   2.0000      -0.568951       -15.4819
  43   2.0000      -0.556124       -15.1329
  44   2.0000      -0.539455       -14.6793
  45   2.0000      -0.522935       -14.2298
  46   2.0000      -0.519578       -14.1384
  47   2.0000      -0.515248       -14.0206
  48   2.0000      -0.506657       -13.7868
  49   2.0000      -0.492491       -13.4014
  50   2.0000      -0.487916       -13.2769
  51   2.0000      -0.477609       -12.9964
  52   2.0000      -0.472444       -12.8558
  53   2.0000      -0.470497       -12.8029
  54   2.0000      -0.454997       -12.3811
  55   2.0000      -0.448929       -12.2160
  56   2.0000      -0.445804       -12.1309
  57   2.0000      -0.436879       -11.8881
  58   2.0000      -0.432883       -11.7793
  59   2.0000      -0.425973       -11.5913
  60   2.0000      -0.423229       -11.5166
  61   2.0000      -0.410815       -11.1788
  62   2.0000      -0.406194       -11.0531
  63   2.0000      -0.332569        -9.0497
  64   2.0000      -0.329708        -8.9718
  65   2.0000      -0.325623        -8.8607
  66   2.0000      -0.305310        -8.3079
  67   0.0000       0.035996         0.9795
  68   0.0000       0.060736         1.6527
  69   0.0000       0.111126         3.0239
  70   0.0000       0.125322         3.4102
  71   0.0000       0.126135         3.4323

MULLIKEN ATOMIC CHARGES
-----------------------
   0 S :    0.099721
   1 C :   -0.142770
   2 C :   -0.079375
   3 C :    0.020573
   4 C :   -0.193999
   5 H :    0.028423
   6 C :    0.078863
   7 H :    0.047217
   8 H :   -0.000684
   9 C :   -0.098154
  10 H :    0.028483
  11 H :    0.040915
  12 C :   -0.010293
  13 H :    0.011161
  14 H :    0.023711
  15 H :    0.039477
  16 S :    0.125866
  17 C :   -0.076461
  18 C :   -0.016323
  19 C :    0.015319
  20 C :   -0.176488
  21 H :   -0.002856
  22 C :   -0.008833
  23 H :    0.042703
  24 H :    0.018766
  25 C :   -0.025995
  26 H :    0.039600
  27 H :    0.031695
  28 C :   -0.060053
  29 H :    0.030710
  30 H :    0.031953
  31 H :    0.028961
  32 H :    0.061502
  33 H :    0.046663
Sum of atomic charges:    0.0000000

LOEWDIN ATOMIC CHARGES
----------------------
   0 S :    0.407715
   1 C :   -0.192398
   2 C :   -0.063654
   3 C :   -0.075966
   4 C :   -0.212670
   5 H :    0.039817
   6 C :   -0.025198
   7 H :    0.037866
   8 H :    0.019559
   9 C :   -0.036292
  10 H :    0.023985
  11 H :    0.024799
  12 C :   -0.062705
  13 H :    0.022473
  14 H :    0.021830
  15 H :    0.028977
  16 S :    0.405315
  17 C :   -0.177562
  18 C :   -0.060110
  19 C :   -0.046191
  20 C :   -0.208471
  21 H :    0.019290
  22 C :   -0.042828
  23 H :    0.041542
  24 H :    0.027386
  25 C :   -0.033320
  26 H :    0.022124
  27 H :    0.022499
  28 C :   -0.063050
  29 H :    0.029898
  30 H :    0.022547
  31 H :    0.023266
  32 H :    0.035729
  33 H :    0.023799

  Mayer bond orders larger than 0.100000
B(  0-S ,  1-C ) :   1.1174 B(  0-S ,  4-C ) :   1.1594 B(  1-C ,  2-C ) :   1.6212
B(  1-C , 32-H ) :   0.9666 B(  2-C ,  3-C ) :   1.2096 B(  2-C ,  6-C ) :   1.0242
B(  3-C ,  4-C ) :   1.5954 B(  3-C ,  5-H ) :   0.9867 B(  4-C , 20-C ) :   1.0428
B(  6-C ,  7-H ) :   0.9335 B(  6-C ,  8-H ) :   0.9386 B(  6-C ,  9-C ) :   1.0805
B(  9-C , 10-H ) :   0.9561 B(  9-C , 11-H ) :   0.9561 B(  9-C , 12-C ) :   1.0718
B( 12-C , 13-H ) :   0.9733 B( 12-C , 14-H ) :   0.9743 B( 12-C , 15-H ) :   0.9735
B( 16-S , 17-C ) :   1.1610 B( 16-S , 20-C ) :   1.1196 B( 17-C , 18-C ) :   1.6077
B( 17-C , 33-H ) :   0.9703 B( 18-C , 19-C ) :   1.2340 B( 18-C , 21-H ) :   0.9957
B( 19-C , 20-C ) :   1.5983 B( 19-C , 22-C ) :   1.0340 B( 22-C , 23-H ) :   0.9250
B( 22-C , 24-H ) :   0.9459 B( 22-C , 25-C ) :   1.0657 B( 25-C , 26-H ) :   0.9630
B( 25-C , 27-H ) :   0.9387 B( 25-C , 28-C ) :   1.0724 B( 28-C , 29-H ) :   0.9727
B( 28-C , 30-H ) :   0.9770 B( 28-C , 31-H ) :   0.9738

Dispersion correction           -0.015655643
FINAL SINGLE POINT ENERGY     -1339.873594037985

DIPOLE MOMENT
-------------
                                X             Y             Z
Electronic contribution:     12.51801      18.17665     -15.40237
Nuclear contribution   :    -12.89539     -18.60025      15.64823
                        -----------------------------------------
Total Dipole Moment    :     -0.37738      -0.42360       0.24587
                        -----------------------------------------
Magnitude (a.u.)       :      0.61831
Magnitude (Debye)      :      1.57162

Rotational constants in cm-1:     0.018100     0.009696     0.008032
Rotational constants in MHz :   542.621043   290.689478   240.790458

                             ****ORCA TERMINATED NORMALLY****
TOTAL RUN TIME: 0 days 0 hours 0 minutes 32 seconds 32 msec
