                         Program Version 4.2.1 -  RELEASE  -
|  1> ! wB97X-D3 SP def2-SVP
|  2> %pal
|  3> nprocs 16
|  4> end
|  5>
|  6> * xyz 0 1
|  7> S 	 -2.26187 	 -17.0748 	 84.8761
|  8> C 	 -3.3533 	 -17.7227 	 83.6972
|  9> C 	 -2.78746 	 -18.5737 	 82.8079
| 10> C 	 -1.36661 	 -18.4341 	 82.8809
| 11> C 	 -0.907447 	 -17.7077 	 83.987
| 12> H 	 -0.612619 	 -18.868 	 82.2724
| 13> C 	 -3.59302 	 -19.4233 	 81.8141
| 14> H 	 -2.88358 	 -19.9788 	 81.2871
| 15> H 	 -4.1372 	 -18.8541 	 81.1017
| 16> C 	 -4.61032 	 -20.4526 	 82.4202
| 17> H 	 -4.11291 	 -20.6173 	 83.3668
| 18> H 	 -5.42824 	 -19.8327 	 82.7042
| 19> C 	 -5.02867 	 -21.6856 	 81.5954
| 20> H 	 -4.17224 	 -22.4159 	 81.6329
| 21> H 	 -5.92357 	 -22.1828 	 82.0001
| 22> H 	 -5.17292 	 -21.4118 	 80.5568
| 23> S 	 1.09554 	 -15.8179 	 84.612
| 24> C 	 2.63514 	 -16.3952 	 85.2588
| 25> C 	 2.76303 	 -17.7724 	 85.1214
| 26> C 	 1.56154 	 -18.3696 	 84.6047
| 27> C 	 0.456701 	 -17.5021 	 84.3873
| 28> H 	 3.65829 	 -18.3894 	 85.4152
| 29> C 	 1.4442 	 -19.8495 	 84.4774
| 30> H 	 0.401911 	 -20.1283 	 84.6918
| 31> H 	 1.92507 	 -20.4323 	 85.3194
| 32> C 	 1.97178 	 -20.4476 	 83.1398
| 33> H 	 3.07594 	 -20.3251 	 83.0848
| 34> H 	 1.56801 	 -20.0239 	 82.2114
| 35> C 	 1.76529 	 -21.9471 	 83.054
| 36> H 	 2.51663 	 -22.484 	 83.6027
| 37> H 	 1.72045 	 -22.3974 	 82.0363
| 38> H 	 0.794436 	 -22.1294 	 83.5233
| 39> H 	 -4.37655 	 -17.6822 	 83.818
| 40> H 	 3.50412 	 -15.8424 	 85.7045
| 41> *
| 42>
| 43>                          ****END OF INPUT****

CARTESIAN COORDINATES (ANGSTROEM)
---------------------------------
  S     -2.261870  -17.074800   84.876100
  C     -3.353300  -17.722700   83.697200
  C     -2.787460  -18.573700   82.807900
  C     -1.366610  -18.434100   82.880900
  C     -0.907447  -17.707700   83.987000
  H     -0.612619  -18.868000   82.272400
  C     -3.593020  -19.423300   81.814100
  H     -2.883580  -19.978800   81.287100
  H     -4.137200  -18.854100   81.101700
  C     -4.610320  -20.452600   82.420200
  H     -4.112910  -20.617300   83.366800
  H     -5.428240  -19.832700   82.704200
  C     -5.028670  -21.685600   81.595400
  H     -4.172240  -22.415900   81.632900
  H     -5.923570  -22.182800   82.000100
  H     -5.172920  -21.411800   80.556800
  S      1.095540  -15.817900   84.612000
  C      2.635140  -16.395200   85.258800
  C      2.763030  -17.772400   85.121400
  C      1.561540  -18.369600   84.604700
  C      0.456701  -17.502100   84.387300
  H      3.658290  -18.389400   85.415200
  C      1.444200  -19.849500   84.477400
  H      0.401911  -20.128300   84.691800
  H      1.925070  -20.432300   85.319400
  C      1.971780  -20.447600   83.139800
  H      3.075940  -20.325100   83.084800
  H      1.568010  -20.023900   82.211400
  C      1.765290  -21.947100   83.054000
  H      2.516630  -22.484000   83.602700
  H      1.720450  -22.397400   82.036300
  H      0.794436  -22.129400   83.523300
  H     -4.376550  -17.682200   83.818000
  H      3.504120  -15.842400   85.704500

 Total Charge           Charge          ....    0
 Multiplicity           Mult            ....    1
 Number of Electrons    NEL             ....  134
 Basis Dimension        Dim             ....  322

ORBITAL ENERGIES
----------------

  NO   OCC          E(Eh)            E(eV)
   0   2.0000     -88.968369     -2420.9524
   1   2.0000     -88.966127     -2420.8914
   2   2.0000     -10.333278      -281.1828
   3   2.0000     -10.329585      -281.0823
   4   2.0000     -10.325924      -280.9827
   5   2.0000     -10.307314      -280.4763
   6   2.0000     -10.306279      -280.4481
   7   2.0000     -10.303321      -280.3676
   8   2.0000     -10.299794      -280.2716
   9   2.0000     -10.297054      -280.1971
  10   2.0000     -10.294522      -280.1282
  11   2.0000     -10.290494      -280.0186
  12   2.0000     -10.289572      -279.9935
  13   2.0000     -10.288281      -279.9584
  14   2.0000     -10.284761      -279.8626
  15   2.0000     -10.275857      -279.6203
  16   2.0000      -8.083650      -219.9673
  17   2.0000      -8.079416      -219.8521
  18   2.0000      -6.042043      -164.4124
  19   2.0000      -6.038148      -164.3064
  20   2.0000      -6.038132      -164.3059
  21   2.0000      -6.034437      -164.2054
  22   2.0000      -6.034074      -164.1955
  23   2.0000      -6.030053      -164.0861
  24   2.0000      -1.007164       -27.4063
  25   2.0000      -0.979451       -26.6522
  26   2.0000      -0.911216       -24.7955
  27   2.0000      -0.906452       -24.6658
  28   2.0000      -0.871217       -23.7070
  29   2.0000      -0.852573       -23.1997
  30   2.0000      -0.847105       -23.0509
  31   2.0000      -0.814450       -22.1623
  32   2.0000      -0.786945       -21.4139
  33   2.0000      -0.766194       -20.8492
  34   2.0000      -0.710458       -19.3325
  35   2.0000      -0.703965       -19.1559
  36   2.0000      -0.693325       -18.8663
  37   2.0000      -0.660004       -17.9596
  38   2.0000      -0.647811       -17.6278
  39   2.0000      -0.614392       -16.7185
  40   2.0000      -0.593054       -16.1378
  41   2.0000      -0.570744       -15.5307
  42   2.0000      -0.566606       -15.4181
  43   2.0000      -0.560870       -15.2621
  44   2.0000      -0.526452       -14.3255
  45   2.0000      -0.521417       -14.1885
  46   2.0000      -0.518582       -14.1113
  47   2.0000      -0.513521       -13.9736
  48   2.0000      -0.507062       -13.7979
  49   2.0000      -0.501972       -13.6594
  50   2.0000      -0.496436       -13.5087
  51   2.0000      -0.477447       -12.9920
  52   2.0000      -0.476275       -12.9601
  53   2.0000      -0.468610       -12.7515
  54   2.0000      -0.456753       -12.4289
  55   2.0000      -0.451697       -12.2913
  56   2.0000      -0.443341       -12.0639
  57   2.0000      -0.434447       -11.8219
  58   2.0000      -0.429450       -11.6859
  59   2.0000      -0.422684       -11.5018
  60   2.0000      -0.419796       -11.4232
  61   2.0000      -0.417121       -11.3504
  62   2.0000      -0.410934       -11.1821
  63   2.0000      -0.342829        -9.3288
  64   2.0000      -0.335828        -9.1384
  65   2.0000      -0.327783        -8.9194
  66   2.0000      -0.294393        -8.0108
  67   0.0000       0.022501         0.6123
  68   0.0000       0.067273         1.8306
  69   0.0000       0.112281         3.0553
  70   0.0000       0.117957         3.2098
  71   0.0000       0.126850         3.4518

MULLIKEN ATOMIC CHARGES
-----------------------
   0 S :    0.129351
   1 C :   -0.077096
   2 C :   -0.113520
   3 C :    0.056918
   4 C :   -0.178765
   5 H :   -0.013644
   6 C :    0.122000
   7 H :   -0.007864
   8 H :    0.030824
   9 C :   -0.099187
  10 H :    0.027509
  11 H :    0.016684
  12 C :   -0.041984
  13 H :    0.041793
  14 H :    0.049883
  15 H :    0.036559
  16 S :    0.098673
  17 C :   -0.100149
  18 C :   -0.043635
  19 C :   -0.004442
  20 C :   -0.152212
  21 H :    0.043139
  22 C :   -0.006122
  23 H :    0.030758
  24 H :    0.028778
  25 C :   -0.073446
  26 H :    0.028628
  27 H :    0.035367
  28 C :   -0.049854
  29 H :    0.028230
  30 H :    0.040089
  31 H :    0.020915
  32 H :    0.018582
  33 H :    0.077243
Sum of atomic charges:    0.0000000

LOEWDIN ATOMIC CHARGES
----------------------
   0 S :    0.425135
   1 C :   -0.179564
   2 C :   -0.062198
   3 C :   -0.046515
   4 C :   -0.207782
   5 H :    0.024319
   6 C :   -0.020231
   7 H :    0.017857
   8 H :    0.026385
   9 C :   -0.044523
  10 H :    0.022968
  11 H :    0.014671
  12 C :   -0.064079
  13 H :    0.033751
  14 H :    0.033953
  15 H :    0.025846
  16 S :    0.375508
  17 C :   -0.188073
  18 C :   -0.080912
  19 C :   -0.051022
  20 C :   -0.187420
  21 H :    0.043453
  22 C :   -0.044442
  23 H :    0.030676
  24 H :    0.036067
  25 C :   -0.043624
  26 H :    0.026467
  27 H :    0.022388
  28 C :   -0.069761
  29 H :    0.020372
  30 H :    0.030755
  31 H :    0.023155
  32 H :    0.010421
  33 H :    0.045997

  Mayer bond orders larger than 0.100000
B(  0-S ,  1-C ) :   1.1542 B(  0-S ,  4-C ) :   1.1498 B(  1-C ,  2-C ) :   1.6079
B(  1-C , 32-H ) :   0.9735 B(  2-C ,  3-C ) :   1.2373 B(  2-C ,  6-C ) :   1.0219
B(  3-C ,  4-C ) :   1.5597 B(  3-C ,  5-H ) :   1.0014 B(  4-C , 20-C ) :   1.0793
B(  6-C ,  7-H ) :   0.9360 B(  6-C ,  8-H ) :   0.9399 B(  6-C ,  9-C ) :   1.0456
B(  9-C , 10-H ) :   0.9662 B(  9-C , 11-H ) :   0.9567 B(  9-C , 12-C ) :   1.0733
B( 12-C , 13-H ) :   0.9751 B( 12-C , 14-H ) :   0.9747 B( 12-C , 15-H ) :   0.9760
B( 16-S , 17-C ) :   1.1535 B( 16-S , 20-C ) :   1.1080 B( 17-C , 18-C ) :   1.6031
B( 17-C , 20-C ) :   0.1013 B( 17-C , 33-H ) :   0.9573 B( 18-C , 19-C ) :   1.2569
B( 18-C , 21-H ) :   0.9776 B( 19-C , 20-C ) :   1.5727 B( 19-C , 22-C ) :   1.0561
B( 22-C , 23-H ) :   0.9329 B( 22-C , 24-H ) :   0.9419 B( 22-C , 25-C ) :   1.0497
B( 25-C , 26-H ) :   0.9566 B( 25-C , 27-H ) :   0.9576 B( 25-C , 28-C ) :   1.0758
B( 28-C , 29-H ) :   0.9763 B( 28-C , 30-H ) :   0.9759 B( 28-C , 31-H ) :   0.9733

Dispersion correction           -0.013975301
FINAL SINGLE POINT ENERGY     -1339.865675868942

DIPOLE MOMENT
-------------
                                X             Y             Z
Electronic contribution:      5.49831      29.33709      12.96564
Nuclear contribution   :     -5.51633     -30.06925     -13.17869
                        -----------------------------------------
Total Dipole Moment    :     -0.01802      -0.73216      -0.21304
                        -----------------------------------------
Magnitude (a.u.)       :      0.76274
Magnitude (Debye)      :      1.93873

Rotational constants in cm-1:     0.018717     0.008415     0.006127
Rotational constants in MHz :   561.109997   252.283755   183.673947

                             ****ORCA TERMINATED NORMALLY****
TOTAL RUN TIME: 0 days 0 hours 0 minutes 33 seconds 189 msec
