                         Program Version 4.2.1 -  RELEASE  -
|  1> ! wB97X-D3 SP def2-SVP
|  2> %pal
|  3> nprocs 16
|  4> end
|  5>
|  6> * xyz 0 1
|  7> S 	 0.217325 	 -14.9941 	 81.8968
|  8> C 	 -0.970803 	 -15.7611 	 80.9024
|  9> C 	 -0.758737 	 -17.1305 	 80.9076
| 10> C 	 0.44826 	 -17.5038 	 81.5864
| 11> C 	 1.11765 	 -16.4658 	 82.1317
| 12> H 	 0.773624 	 -18.559 	 81.6623
| 13> C 	 -1.63924 	 -18.1778 	 80.1986
| 14> H 	 -1.05963 	 -19.082 	 79.9651
| 15> H 	 -2.1676 	 -17.8391 	 79.2934
| 16> C 	 -2.89476 	 -18.5413 	 81.0232
| 17> H 	 -2.63674 	 -18.8887 	 82.0556
| 18> H 	 -3.56169 	 -17.7675 	 81.1428
| 19> C 	 -3.75814 	 -19.6445 	 80.3203
| 20> H 	 -4.1429 	 -19.1072 	 79.4642
| 21> H 	 -3.19775 	 -20.5848 	 80.2404
| 22> H 	 -4.70575 	 -19.9517 	 80.7297
| 23> S 	 3.61193 	 -15.3962 	 82.5503
| 24> C 	 4.70991 	 -16.1151 	 83.679
| 25> C 	 4.12765 	 -17.0987 	 84.4569
| 26> C 	 2.74371 	 -17.2572 	 84.0643
| 27> C 	 2.38858 	 -16.5615 	 82.9234
| 28> H 	 4.5623 	 -17.6646 	 85.2839
| 29> C 	 1.88314 	 -18.242 	 84.8583
| 30> H 	 0.939109 	 -18.4125 	 84.4101
| 31> H 	 1.86713 	 -17.9681 	 85.9079
| 32> C 	 2.50627 	 -19.711 	 84.8251
| 33> H 	 3.54019 	 -19.614 	 85.1075
| 34> H 	 2.51286 	 -20.084 	 83.7548
| 35> C 	 1.76698 	 -20.7132 	 85.7357
| 36> H 	 1.52232 	 -20.2709 	 86.7564
| 37> H 	 2.42859 	 -21.5488 	 85.9486
| 38> H 	 0.766859 	 -21.0303 	 85.2024
| 39> H 	 -1.80075 	 -15.2082 	 80.4197
| 40> H 	 5.77296 	 -15.8877 	 83.8092
| 41> *
| 42>
| 43>                          ****END OF INPUT****

CARTESIAN COORDINATES (ANGSTROEM)
---------------------------------
  S      0.217325  -14.994100   81.896800
  C     -0.970803  -15.761100   80.902400
  C     -0.758737  -17.130500   80.907600
  C      0.448260  -17.503800   81.586400
  C      1.117650  -16.465800   82.131700
  H      0.773624  -18.559000   81.662300
  C     -1.639240  -18.177800   80.198600
  H     -1.059630  -19.082000   79.965100
  H     -2.167600  -17.839100   79.293400
  C     -2.894760  -18.541300   81.023200
  H     -2.636740  -18.888700   82.055600
  H     -3.561690  -17.767500   81.142800
  C     -3.758140  -19.644500   80.320300
  H     -4.142900  -19.107200   79.464200
  H     -3.197750  -20.584800   80.240400
  H     -4.705750  -19.951700   80.729700
  S      3.611930  -15.396200   82.550300
  C      4.709910  -16.115100   83.679000
  C      4.127650  -17.098700   84.456900
  C      2.743710  -17.257200   84.064300
  C      2.388580  -16.561500   82.923400
  H      4.562300  -17.664600   85.283900
  C      1.883140  -18.242000   84.858300
  H      0.939109  -18.412500   84.410100
  H      1.867130  -17.968100   85.907900
  C      2.506270  -19.711000   84.825100
  H      3.540190  -19.614000   85.107500
  H      2.512860  -20.084000   83.754800
  C      1.766980  -20.713200   85.735700
  H      1.522320  -20.270900   86.756400
  H      2.428590  -21.548800   85.948600
  H      0.766859  -21.030300   85.202400
  H     -1.800750  -15.208200   80.419700
  H      5.772960  -15.887700   83.809200

 Total Charge           Charge          ....    0
 Multiplicity           Mult            ....    1
 Number of Electrons    NEL             ....  134
 Basis Dimension        Dim             ....  322

ORBITAL ENERGIES
----------------

  NO   OCC          E(Eh)            E(eV)
   0   2.0000     -88.965993     -2420.8877
   1   2.0000     -88.965706     -2420.8799
   2   2.0000     -10.329953      -281.0923
   3   2.0000     -10.328024      -281.0398
   4   2.0000     -10.319624      -280.8112
   5   2.0000     -10.317258      -280.7469
   6   2.0000     -10.305051      -280.4147
   7   2.0000     -10.304477      -280.3991
   8   2.0000     -10.298052      -280.2242
   9   2.0000     -10.297021      -280.1962
  10   2.0000     -10.294010      -280.1142
  11   2.0000     -10.293870      -280.1105
  12   2.0000     -10.291891      -280.0566
  13   2.0000     -10.290405      -280.0162
  14   2.0000     -10.283890      -279.8389
  15   2.0000     -10.277966      -279.6777
  16   2.0000      -8.081492      -219.9086
  17   2.0000      -8.081019      -219.8957
  18   2.0000      -6.040037      -164.3578
  19   2.0000      -6.039589      -164.3456
  20   2.0000      -6.035902      -164.2452
  21   2.0000      -6.035358      -164.2304
  22   2.0000      -6.032151      -164.1432
  23   2.0000      -6.031758      -164.1325
  24   2.0000      -1.010612       -27.5001
  25   2.0000      -0.990183       -26.9443
  26   2.0000      -0.908662       -24.7260
  27   2.0000      -0.903180       -24.5768
  28   2.0000      -0.867740       -23.6124
  29   2.0000      -0.849839       -23.1253
  30   2.0000      -0.844535       -22.9810
  31   2.0000      -0.816606       -22.2210
  32   2.0000      -0.778539       -21.1851
  33   2.0000      -0.768554       -20.9134
  34   2.0000      -0.699816       -19.0430
  35   2.0000      -0.695776       -18.9330
  36   2.0000      -0.690404       -18.7868
  37   2.0000      -0.662877       -18.0378
  38   2.0000      -0.643602       -17.5133
  39   2.0000      -0.623443       -16.9648
  40   2.0000      -0.597550       -16.2602
  41   2.0000      -0.573208       -15.5978
  42   2.0000      -0.567447       -15.4410
  43   2.0000      -0.563495       -15.3335
  44   2.0000      -0.521997       -14.2043
  45   2.0000      -0.518362       -14.1054
  46   2.0000      -0.514470       -13.9994
  47   2.0000      -0.513531       -13.9739
  48   2.0000      -0.502424       -13.6717
  49   2.0000      -0.500917       -13.6306
  50   2.0000      -0.494072       -13.4444
  51   2.0000      -0.477369       -12.9899
  52   2.0000      -0.472315       -12.8524
  53   2.0000      -0.465537       -12.6679
  54   2.0000      -0.461829       -12.5670
  55   2.0000      -0.454205       -12.3595
  56   2.0000      -0.446320       -12.1450
  57   2.0000      -0.434538       -11.8244
  58   2.0000      -0.426523       -11.6063
  59   2.0000      -0.422156       -11.4875
  60   2.0000      -0.418974       -11.4009
  61   2.0000      -0.416920       -11.3450
  62   2.0000      -0.409196       -11.1348
  63   2.0000      -0.348640        -9.4870
  64   2.0000      -0.330540        -8.9945
  65   2.0000      -0.328275        -8.9328
  66   2.0000      -0.298286        -8.1168
  67   0.0000       0.036822         1.0020
  68   0.0000       0.069236         1.8840
  69   0.0000       0.112568         3.0631
  70   0.0000       0.120855         3.2886
  71   0.0000       0.125323         3.4102

MULLIKEN ATOMIC CHARGES
-----------------------
   0 S :    0.115026
   1 C :   -0.140811
   2 C :   -0.067198
   3 C :    0.009481
   4 C :   -0.115548
   5 H :    0.022304
   6 C :    0.064371
   7 H :    0.029906
   8 H :    0.021431
   9 C :   -0.076181
  10 H :    0.026101
  11 H :    0.012105
  12 C :   -0.056430
  13 H :    0.021919
  14 H :    0.041993
  15 H :    0.023176
  16 S :    0.113614
  17 C :   -0.079672
  18 C :   -0.045171
  19 C :   -0.042278
  20 C :   -0.172721
  21 H :    0.032996
  22 C :    0.101274
  23 H :    0.015767
  24 H :    0.031063
  25 C :   -0.137041
  26 H :    0.017385
  27 H :    0.041539
  28 C :   -0.068855
  29 H :    0.037207
  30 H :    0.042225
  31 H :    0.053299
  32 H :    0.065928
  33 H :    0.061797
Sum of atomic charges:   -0.0000000

LOEWDIN ATOMIC CHARGES
----------------------
   0 S :    0.415784
   1 C :   -0.206577
   2 C :   -0.063011
   3 C :   -0.070383
   4 C :   -0.196856
   5 H :    0.037322
   6 C :   -0.029542
   7 H :    0.031046
   8 H :    0.033071
   9 C :   -0.035117
  10 H :    0.019971
  11 H :    0.010321
  12 C :   -0.072547
  13 H :    0.025216
  14 H :    0.027408
  15 H :    0.024045
  16 S :    0.422439
  17 C :   -0.188305
  18 C :   -0.073272
  19 C :   -0.051832
  20 C :   -0.207213
  21 H :    0.034920
  22 C :   -0.022406
  23 H :    0.021798
  24 H :    0.031206
  25 C :   -0.045801
  26 H :    0.011499
  27 H :    0.028760
  28 C :   -0.078312
  29 H :    0.029266
  30 H :    0.026607
  31 H :    0.038478
  32 H :    0.037937
  33 H :    0.034080

  Mayer bond orders larger than 0.100000
B(  0-S ,  1-C ) :   1.1418 B(  0-S ,  4-C ) :   1.1600 B(  1-C ,  2-C ) :   1.5958
B(  1-C , 32-H ) :   0.9687 B(  2-C ,  3-C ) :   1.2501 B(  2-C ,  6-C ) :   1.0258
B(  3-C ,  4-C ) :   1.5829 B(  3-C ,  5-H ) :   0.9950 B(  4-C , 20-C ) :   1.0028
B(  6-C ,  7-H ) :   0.9483 B(  6-C ,  8-H ) :   0.9446 B(  6-C ,  9-C ) :   1.0444
B(  9-C , 10-H ) :   0.9578 B(  9-C , 11-H ) :   0.9629 B(  9-C , 12-C ) :   1.0749
B( 12-C , 13-H ) :   0.9728 B( 12-C , 14-H ) :   0.9779 B( 12-C , 15-H ) :   0.9745
B( 16-S , 17-C ) :   1.1662 B( 16-S , 20-C ) :   1.1322 B( 17-C , 18-C ) :   1.6059
B( 17-C , 33-H ) :   0.9641 B( 18-C , 19-C ) :   1.2286 B( 18-C , 21-H ) :   0.9847
B( 19-C , 20-C ) :   1.6148 B( 19-C , 22-C ) :   1.0560 B( 22-C , 23-H ) :   0.9412
B( 22-C , 24-H ) :   0.9327 B( 22-C , 25-C ) :   1.0501 B( 25-C , 26-H ) :   0.9591
B( 25-C , 27-H ) :   0.9563 B( 25-C , 28-C ) :   1.0760 B( 28-C , 29-H ) :   0.9729
B( 28-C , 30-H ) :   0.9737 B( 28-C , 31-H ) :   0.9736

Dispersion correction           -0.013451617
FINAL SINGLE POINT ENERGY     -1339.869071181293

DIPOLE MOMENT
-------------
                                X             Y             Z
Electronic contribution:     16.33978      27.62444      -4.23311
Nuclear contribution   :    -16.55163     -28.19714       4.45480
                        -----------------------------------------
Total Dipole Moment    :     -0.21184      -0.57270       0.22170
                        -----------------------------------------
Magnitude (a.u.)       :      0.64962
Magnitude (Debye)      :      1.65121

Rotational constants in cm-1:     0.017217     0.008509     0.006037
Rotational constants in MHz :   516.138093   255.097246   180.990749

                             ****ORCA TERMINATED NORMALLY****
TOTAL RUN TIME: 0 days 0 hours 0 minutes 31 seconds 873 msec
