                         Program Version 4.2.1 -  RELEASE  -
|  1> ! wB97X-D3 SP def2-SVP
|  2> %pal
|  3> nprocs 16
|  4> end
|  5>
|  6> * xyz 0 1
|  7> S 	 -22.5785 	 -9.25822 	 84.8804
|  8> C 	 -22.6588 	 -10.9464 	 84.3978
|  9> C 	 -21.3927 	 -11.5645 	 84.4537
| 10> C 	 -20.3458 	 -10.6493 	 84.7415
| 11> C 	 -20.8432 	 -9.37623 	 84.988
| 12> H 	 -19.2852 	 -10.9106 	 84.8904
| 13> C 	 -21.1142 	 -13.0026 	 84.0448
| 14> H 	 -20.0591 	 -13.206 	 83.9414
| 15> H 	 -21.4746 	 -13.1266 	 83.0426
| 16> C 	 -21.8502 	 -13.9606 	 84.9959
| 17> H 	 -22.9067 	 -13.8788 	 85.095
| 18> H 	 -21.7283 	 -14.9494 	 84.587
| 19> C 	 -21.3298 	 -13.8859 	 86.4878
| 20> H 	 -20.2618 	 -14.1025 	 86.5072
| 21> H 	 -21.5087 	 -12.8705 	 86.9134
| 22> H 	 -21.7643 	 -14.5771 	 87.2224
| 23> S 	 -19.8187 	 -7.84895 	 86.9843
| 24> C 	 -18.8332 	 -6.38508 	 86.4708
| 25> C 	 -18.6149 	 -6.26213 	 85.1332
| 26> C 	 -19.4197 	 -7.21668 	 84.4348
| 27> C 	 -20.0575 	 -8.17738 	 85.2771
| 28> H 	 -18.1211 	 -5.34422 	 84.6632
| 29> C 	 -19.2824 	 -7.36777 	 82.937
| 30> H 	 -19.7157 	 -6.4442 	 82.5452
| 31> H 	 -19.7519 	 -8.1958 	 82.4996
| 32> C 	 -17.8331 	 -7.33127 	 82.3662
| 33> H 	 -17.2044 	 -8.08964 	 82.8207
| 34> H 	 -17.435 	 -6.30806 	 82.5391
| 35> C 	 -17.7297 	 -7.59324 	 80.8514
| 36> H 	 -18.3456 	 -8.3816 	 80.5648
| 37> H 	 -16.7484 	 -7.86372 	 80.3924
| 38> H 	 -18.0986 	 -6.65823 	 80.3888
| 39> H 	 -23.5682 	 -11.3202 	 83.9872
| 40> H 	 -18.2485 	 -5.69623 	 87.0773
| 41> *
| 42>
| 43>                          ****END OF INPUT****

CARTESIAN COORDINATES (ANGSTROEM)
---------------------------------
  S    -22.578500   -9.258220   84.880400
  C    -22.658800  -10.946400   84.397800
  C    -21.392700  -11.564500   84.453700
  C    -20.345800  -10.649300   84.741500
  C    -20.843200   -9.376230   84.988000
  H    -19.285200  -10.910600   84.890400
  C    -21.114200  -13.002600   84.044800
  H    -20.059100  -13.206000   83.941400
  H    -21.474600  -13.126600   83.042600
  C    -21.850200  -13.960600   84.995900
  H    -22.906700  -13.878800   85.095000
  H    -21.728300  -14.949400   84.587000
  C    -21.329800  -13.885900   86.487800
  H    -20.261800  -14.102500   86.507200
  H    -21.508700  -12.870500   86.913400
  H    -21.764300  -14.577100   87.222400
  S    -19.818700   -7.848950   86.984300
  C    -18.833200   -6.385080   86.470800
  C    -18.614900   -6.262130   85.133200
  C    -19.419700   -7.216680   84.434800
  C    -20.057500   -8.177380   85.277100
  H    -18.121100   -5.344220   84.663200
  C    -19.282400   -7.367770   82.937000
  H    -19.715700   -6.444200   82.545200
  H    -19.751900   -8.195800   82.499600
  C    -17.833100   -7.331270   82.366200
  H    -17.204400   -8.089640   82.820700
  H    -17.435000   -6.308060   82.539100
  C    -17.729700   -7.593240   80.851400
  H    -18.345600   -8.381600   80.564800
  H    -16.748400   -7.863720   80.392400
  H    -18.098600   -6.658230   80.388800
  H    -23.568200  -11.320200   83.987200
  H    -18.248500   -5.696230   87.077300

 Total Charge           Charge          ....    0
 Multiplicity           Mult            ....    1
 Number of Electrons    NEL             ....  134
 Basis Dimension        Dim             ....  322

ORBITAL ENERGIES
----------------

  NO   OCC          E(Eh)            E(eV)
   0   2.0000     -88.968615     -2420.9591
   1   2.0000     -88.967640     -2420.9326
   2   2.0000     -10.327002      -281.0120
   3   2.0000     -10.326701      -281.0038
   4   2.0000     -10.320322      -280.8302
   5   2.0000     -10.313954      -280.6570
   6   2.0000     -10.306806      -280.4624
   7   2.0000     -10.303278      -280.3664
   8   2.0000     -10.299074      -280.2520
   9   2.0000     -10.296565      -280.1838
  10   2.0000     -10.291986      -280.0592
  11   2.0000     -10.287500      -279.9371
  12   2.0000     -10.285456      -279.8815
  13   2.0000     -10.285331      -279.8781
  14   2.0000     -10.277798      -279.6731
  15   2.0000     -10.276222      -279.6302
  16   2.0000      -8.082325      -219.9312
  17   2.0000      -8.081816      -219.9174
  18   2.0000      -6.040620      -164.3736
  19   2.0000      -6.040453      -164.3691
  20   2.0000      -6.036841      -164.2708
  21   2.0000      -6.036725      -164.2676
  22   2.0000      -6.033325      -164.1751
  23   2.0000      -6.032335      -164.1482
  24   2.0000      -1.000783       -27.2327
  25   2.0000      -0.976350       -26.5678
  26   2.0000      -0.909515       -24.7492
  27   2.0000      -0.904200       -24.6045
  28   2.0000      -0.865832       -23.5605
  29   2.0000      -0.845798       -23.0153
  30   2.0000      -0.843895       -22.9635
  31   2.0000      -0.812203       -22.1012
  32   2.0000      -0.782060       -21.2809
  33   2.0000      -0.763158       -20.7666
  34   2.0000      -0.706466       -19.2239
  35   2.0000      -0.699349       -19.0302
  36   2.0000      -0.692023       -18.8309
  37   2.0000      -0.651778       -17.7358
  38   2.0000      -0.646204       -17.5841
  39   2.0000      -0.612193       -16.6586
  40   2.0000      -0.591399       -16.0928
  41   2.0000      -0.571246       -15.5444
  42   2.0000      -0.569229       -15.4895
  43   2.0000      -0.549170       -14.9437
  44   2.0000      -0.535006       -14.5582
  45   2.0000      -0.520193       -14.1552
  46   2.0000      -0.513914       -13.9843
  47   2.0000      -0.509838       -13.8734
  48   2.0000      -0.499521       -13.5926
  49   2.0000      -0.487056       -13.2535
  50   2.0000      -0.484900       -13.1948
  51   2.0000      -0.474176       -12.9030
  52   2.0000      -0.467937       -12.7332
  53   2.0000      -0.461400       -12.5553
  54   2.0000      -0.458121       -12.4661
  55   2.0000      -0.450020       -12.2457
  56   2.0000      -0.444221       -12.0879
  57   2.0000      -0.441524       -12.0145
  58   2.0000      -0.434446       -11.8219
  59   2.0000      -0.421851       -11.4791
  60   2.0000      -0.419766       -11.4224
  61   2.0000      -0.415731       -11.3126
  62   2.0000      -0.410510       -11.1706
  63   2.0000      -0.342627        -9.3234
  64   2.0000      -0.333977        -9.0880
  65   2.0000      -0.310339        -8.4447
  66   2.0000      -0.302579        -8.2336
  67   0.0000       0.043269         1.1774
  68   0.0000       0.047349         1.2884
  69   0.0000       0.100521         2.7353
  70   0.0000       0.116509         3.1704
  71   0.0000       0.121551         3.3076

MULLIKEN ATOMIC CHARGES
-----------------------
   0 S :    0.129692
   1 C :   -0.134372
   2 C :   -0.091709
   3 C :    0.046936
   4 C :   -0.184469
   5 H :    0.028854
   6 C :    0.100916
   7 H :    0.017904
   8 H :    0.029455
   9 C :   -0.058346
  10 H :    0.028071
  11 H :    0.017716
  12 C :   -0.088711
  13 H :    0.025389
  14 H :    0.052188
  15 H :    0.035963
  16 S :    0.110638
  17 C :   -0.071245
  18 C :   -0.078578
  19 C :    0.004042
  20 C :   -0.196678
  21 H :    0.061855
  22 C :    0.084339
  23 H :    0.021114
  24 H :    0.016615
  25 C :   -0.103202
  26 H :    0.034422
  27 H :    0.028917
  28 C :   -0.045105
  29 H :    0.014531
  30 H :    0.042508
  31 H :    0.027834
  32 H :    0.044596
  33 H :    0.047920
Sum of atomic charges:    0.0000000

LOEWDIN ATOMIC CHARGES
----------------------
   0 S :    0.418613
   1 C :   -0.195872
   2 C :   -0.057549
   3 C :   -0.061914
   4 C :   -0.207246
   5 H :    0.040733
   6 C :   -0.025189
   7 H :    0.028959
   8 H :    0.033023
   9 C :   -0.035775
  10 H :    0.020816
  11 H :    0.019083
  12 C :   -0.072840
  13 H :    0.020222
  14 H :    0.031573
  15 H :    0.026284
  16 S :    0.376191
  17 C :   -0.159771
  18 C :   -0.078499
  19 C :   -0.049573
  20 C :   -0.208470
  21 H :    0.052013
  22 C :   -0.027092
  23 H :    0.033992
  24 H :    0.020491
  25 C :   -0.038710
  26 H :    0.020561
  27 H :    0.021511
  28 C :   -0.067180
  29 H :    0.013297
  30 H :    0.033002
  31 H :    0.026990
  32 H :    0.019140
  33 H :    0.029185

  Mayer bond orders larger than 0.100000
B(  0-S ,  1-C ) :   1.1521 B(  0-S ,  4-C ) :   1.1770 B(  1-C ,  2-C ) :   1.5717
B(  1-C ,  4-C ) :   0.1076 B(  1-C , 32-H ) :   0.9762 B(  2-C ,  3-C ) :   1.2553
B(  2-C ,  6-C ) :   1.0142 B(  3-C ,  4-C ) :   1.5662 B(  3-C ,  5-H ) :   0.9909
B(  4-C , 20-C ) :   1.0063 B(  6-C ,  7-H ) :   0.9475 B(  6-C ,  8-H ) :   0.9370
B(  6-C ,  9-C ) :   1.0661 B(  9-C , 10-H ) :   0.9630 B(  9-C , 11-H ) :   0.9578
B(  9-C , 12-C ) :   1.0605 B( 12-C , 13-H ) :   0.9787 B( 12-C , 14-H ) :   0.9746
B( 12-C , 15-H ) :   0.9778 B( 16-S , 17-C ) :   1.1239 B( 16-S , 20-C ) :   1.1333
B( 17-C , 18-C ) :   1.6846 B( 17-C , 33-H ) :   0.9555 B( 18-C , 19-C ) :   1.2131
B( 18-C , 21-H ) :   0.9639 B( 19-C , 20-C ) :   1.6158 B( 19-C , 22-C ) :   1.0552
B( 22-C , 23-H ) :   0.9198 B( 22-C , 24-H ) :   0.9496 B( 22-C , 25-C ) :   1.0599
B( 25-C , 26-H ) :   0.9617 B( 25-C , 27-H ) :   0.9528 B( 25-C , 28-C ) :   1.0776
B( 28-C , 29-H ) :   0.9750 B( 28-C , 30-H ) :   0.9758 B( 28-C , 31-H ) :   0.9776

Dispersion correction           -0.014245360
FINAL SINGLE POINT ENERGY     -1339.860348951007

DIPOLE MOMENT
-------------
                                X             Y             Z
Electronic contribution:     -9.28708      12.82536      14.44775
Nuclear contribution   :      9.57285     -13.06072     -14.96426
                        -----------------------------------------
Total Dipole Moment    :      0.28577      -0.23536      -0.51651
                        -----------------------------------------
Magnitude (a.u.)       :      0.63549
Magnitude (Debye)      :      1.61528

Rotational constants in cm-1:     0.018993     0.008078     0.006752
Rotational constants in MHz :   569.398499   242.159411   202.410537

                             ****ORCA TERMINATED NORMALLY****
TOTAL RUN TIME: 0 days 0 hours 0 minutes 32 seconds 287 msec
