                         Program Version 4.2.1 -  RELEASE  -
|  1> ! wB97X-D3 SP def2-SVP
|  2> %pal
|  3> nprocs 16
|  4> end
|  5>
|  6> * xyz 0 1
|  7> S 	 -25.2419 	 64.075 	 104.957
|  8> C 	 -26.6924 	 63.1596 	 104.404
|  9> C 	 -26.9712 	 62.1506 	 105.267
| 10> C 	 -25.981 	 62.0529 	 106.306
| 11> C 	 -24.8713 	 62.8314 	 106.105
| 12> H 	 -26.077 	 61.4059 	 107.122
| 13> C 	 -28.311 	 61.516 	 105.535
| 14> H 	 -28.9078 	 62.4657 	 105.525
| 15> H 	 -28.1966 	 61.0224 	 106.49
| 16> C 	 -28.8347 	 60.5774 	 104.364
| 17> H 	 -29.9208 	 60.2065 	 104.547
| 18> H 	 -28.8228 	 61.0562 	 103.454
| 19> C 	 -27.9515 	 59.3541 	 104.255
| 20> H 	 -27.981 	 58.8468 	 105.176
| 21> H 	 -28.2247 	 58.5449 	 103.505
| 22> H 	 -26.8189 	 59.5325 	 104.196
| 23> S 	 -23.1855 	 64.3054 	 107.688
| 24> C 	 -21.8572 	 63.6108 	 108.44
| 25> C 	 -21.7092 	 62.252 	 108.12
| 26> C 	 -22.7856 	 61.8128 	 107.257
| 27> C 	 -23.6919 	 62.7848 	 106.94
| 28> H 	 -20.8415 	 61.6803 	 108.434
| 29> C 	 -22.8605 	 60.3393 	 106.871
| 30> H 	 -22.422 	 60.2232 	 105.88
| 31> H 	 -23.8076 	 59.9958 	 106.577
| 32> C 	 -22.2344 	 59.2679 	 107.748
| 33> H 	 -21.1595 	 59.4351 	 107.972
| 34> H 	 -22.1934 	 58.2586 	 107.287
| 35> C 	 -22.8798 	 59.0497 	 109.11
| 36> H 	 -22.5219 	 59.5106 	 110.024
| 37> H 	 -22.5885 	 58.0416 	 109.405
| 38> H 	 -23.9117 	 58.9649 	 109.039
| 39> H 	 -27.2759 	 63.3917 	 103.52
| 40> H 	 -21.3552 	 64.084 	 109.183
| 41> *
| 42>
| 43>                          ****END OF INPUT****

CARTESIAN COORDINATES (ANGSTROEM)
---------------------------------
  S    -25.241900   64.075000  104.957000
  C    -26.692400   63.159600  104.404000
  C    -26.971200   62.150600  105.267000
  C    -25.981000   62.052900  106.306000
  C    -24.871300   62.831400  106.105000
  H    -26.077000   61.405900  107.122000
  C    -28.311000   61.516000  105.535000
  H    -28.907800   62.465700  105.525000
  H    -28.196600   61.022400  106.490000
  C    -28.834700   60.577400  104.364000
  H    -29.920800   60.206500  104.547000
  H    -28.822800   61.056200  103.454000
  C    -27.951500   59.354100  104.255000
  H    -27.981000   58.846800  105.176000
  H    -28.224700   58.544900  103.505000
  H    -26.818900   59.532500  104.196000
  S    -23.185500   64.305400  107.688000
  C    -21.857200   63.610800  108.440000
  C    -21.709200   62.252000  108.120000
  C    -22.785600   61.812800  107.257000
  C    -23.691900   62.784800  106.940000
  H    -20.841500   61.680300  108.434000
  C    -22.860500   60.339300  106.871000
  H    -22.422000   60.223200  105.880000
  H    -23.807600   59.995800  106.577000
  C    -22.234400   59.267900  107.748000
  H    -21.159500   59.435100  107.972000
  H    -22.193400   58.258600  107.287000
  C    -22.879800   59.049700  109.110000
  H    -22.521900   59.510600  110.024000
  H    -22.588500   58.041600  109.405000
  H    -23.911700   58.964900  109.039000
  H    -27.275900   63.391700  103.520000
  H    -21.355200   64.084000  109.183000

 Total Charge           Charge          ....    0
 Multiplicity           Mult            ....    1
 Number of Electrons    NEL             ....  134
 Basis Dimension        Dim             ....  322

ORBITAL ENERGIES
----------------

  NO   OCC          E(Eh)            E(eV)
   0   2.0000     -88.965274     -2420.8682
   1   2.0000     -88.961922     -2420.7770
   2   2.0000     -10.327097      -281.0146
   3   2.0000     -10.324133      -280.9339
   4   2.0000     -10.312874      -280.6276
   5   2.0000     -10.309487      -280.5354
   6   2.0000     -10.307687      -280.4864
   7   2.0000     -10.300377      -280.2875
   8   2.0000     -10.296287      -280.1762
   9   2.0000     -10.296276      -280.1759
  10   2.0000     -10.294257      -280.1210
  11   2.0000     -10.291528      -280.0467
  12   2.0000     -10.286116      -279.8994
  13   2.0000     -10.285696      -279.8880
  14   2.0000     -10.279334      -279.7149
  15   2.0000     -10.267277      -279.3868
  16   2.0000      -8.079691      -219.8596
  17   2.0000      -8.078213      -219.8193
  18   2.0000      -6.038378      -164.3126
  19   2.0000      -6.036534      -164.2624
  20   2.0000      -6.034491      -164.2068
  21   2.0000      -6.032379      -164.1494
  22   2.0000      -6.030025      -164.0853
  23   2.0000      -6.029210      -164.0631
  24   2.0000      -1.010585       -27.4994
  25   2.0000      -0.987668       -26.8758
  26   2.0000      -0.912907       -24.8415
  27   2.0000      -0.911612       -24.8062
  28   2.0000      -0.871644       -23.7186
  29   2.0000      -0.854455       -23.2509
  30   2.0000      -0.843993       -22.9662
  31   2.0000      -0.813153       -22.1270
  32   2.0000      -0.791521       -21.5384
  33   2.0000      -0.773962       -21.0606
  34   2.0000      -0.712520       -19.3887
  35   2.0000      -0.706374       -19.2214
  36   2.0000      -0.698857       -19.0169
  37   2.0000      -0.661667       -18.0049
  38   2.0000      -0.639531       -17.4025
  39   2.0000      -0.618242       -16.8232
  40   2.0000      -0.604649       -16.4533
  41   2.0000      -0.573442       -15.6041
  42   2.0000      -0.556067       -15.1314
  43   2.0000      -0.552744       -15.0409
  44   2.0000      -0.541765       -14.7422
  45   2.0000      -0.533926       -14.5289
  46   2.0000      -0.518062       -14.0972
  47   2.0000      -0.516932       -14.0664
  48   2.0000      -0.504782       -13.7358
  49   2.0000      -0.502654       -13.6779
  50   2.0000      -0.488662       -13.2972
  51   2.0000      -0.480050       -13.0628
  52   2.0000      -0.476495       -12.9661
  53   2.0000      -0.465242       -12.6599
  54   2.0000      -0.459589       -12.5060
  55   2.0000      -0.444783       -12.1032
  56   2.0000      -0.442057       -12.0290
  57   2.0000      -0.434389       -11.8203
  58   2.0000      -0.432292       -11.7633
  59   2.0000      -0.427874       -11.6430
  60   2.0000      -0.419464       -11.4142
  61   2.0000      -0.413769       -11.2592
  62   2.0000      -0.407959       -11.1011
  63   2.0000      -0.346588        -9.4311
  64   2.0000      -0.328548        -8.9402
  65   2.0000      -0.325352        -8.8533
  66   2.0000      -0.290166        -7.8958
  67   0.0000       0.029519         0.8032
  68   0.0000       0.062008         1.6873
  69   0.0000       0.100682         2.7397
  70   0.0000       0.124769         3.3951
  71   0.0000       0.129929         3.5355

MULLIKEN ATOMIC CHARGES
-----------------------
   0 S :    0.103236
   1 C :   -0.136899
   2 C :   -0.071796
   3 C :    0.020727
   4 C :   -0.120878
   5 H :   -0.002818
   6 C :    0.032728
   7 H :    0.062257
   8 H :    0.030220
   9 C :   -0.030219
  10 H :    0.045765
  11 H :    0.015098
  12 C :   -0.093329
  13 H :    0.005158
  14 H :    0.046169
  15 H :    0.045753
  16 S :    0.101911
  17 C :   -0.044018
  18 C :   -0.052312
  19 C :   -0.010945
  20 C :   -0.171243
  21 H :    0.024303
  22 C :    0.122902
  23 H :    0.026020
  24 H :   -0.008001
  25 C :   -0.110692
  26 H :    0.023987
  27 H :    0.034311
  28 C :   -0.008418
  29 H :    0.032517
  30 H :    0.002077
  31 H :    0.011048
  32 H :    0.049438
  33 H :    0.025944
Sum of atomic charges:   -0.0000000

LOEWDIN ATOMIC CHARGES
----------------------
   0 S :    0.387314
   1 C :   -0.184743
   2 C :   -0.067801
   3 C :   -0.059380
   4 C :   -0.192956
   5 H :    0.019063
   6 C :   -0.022643
   7 H :    0.048517
   8 H :    0.029131
   9 C :   -0.036322
  10 H :    0.036480
  11 H :    0.010349
  12 C :   -0.084380
  13 H :    0.013753
  14 H :    0.032732
  15 H :    0.034325
  16 S :    0.426243
  17 C :   -0.184179
  18 C :   -0.070458
  19 C :   -0.045524
  20 C :   -0.196196
  21 H :    0.032738
  22 C :   -0.037516
  23 H :    0.042206
  24 H :    0.022148
  25 C :   -0.046358
  26 H :    0.024020
  27 H :    0.034329
  28 C :   -0.072247
  29 H :    0.027387
  30 H :    0.029022
  31 H :    0.014221
  32 H :    0.028046
  33 H :    0.008682

  Mayer bond orders larger than 0.100000
B(  0-S ,  1-C ) :   1.1145 B(  0-S ,  4-C ) :   1.1441 B(  1-C ,  2-C ) :   1.6349
B(  1-C , 32-H ) :   0.9676 B(  2-C ,  3-C ) :   1.2187 B(  2-C ,  6-C ) :   0.9914
B(  3-C ,  4-C ) :   1.5742 B(  3-C ,  5-H ) :   0.9997 B(  4-C , 20-C ) :   1.0476
B(  6-C ,  7-H ) :   0.9448 B(  6-C ,  8-H ) :   0.9543 B(  6-C ,  9-C ) :   1.0573
B(  9-C , 10-H ) :   0.9570 B(  9-C , 11-H ) :   0.9604 B(  9-C , 12-C ) :   1.0655
B( 12-C , 13-H ) :   0.9727 B( 12-C , 14-H ) :   0.9740 B( 12-C , 15-H ) :   0.9715
B( 16-S , 17-C ) :   1.1960 B( 16-S , 20-C ) :   1.1288 B( 17-C , 18-C ) :   1.5710
B( 17-C , 33-H ) :   0.9780 B( 18-C , 19-C ) :   1.2484 B( 18-C , 21-H ) :   0.9916
B( 19-C , 20-C ) :   1.6197 B( 19-C , 22-C ) :   1.0276 B( 22-C , 23-H ) :   0.9112
B( 22-C , 24-H ) :   0.9312 B( 22-C , 25-C ) :   1.0897 B( 25-C , 26-H ) :   0.9467
B( 25-C , 27-H ) :   0.9547 B( 25-C , 28-C ) :   1.0799 B( 28-C , 29-H ) :   0.9737
B( 28-C , 30-H ) :   0.9660 B( 28-C , 31-H ) :   0.9733

Dispersion correction           -0.014155246
FINAL SINGLE POINT ENERGY     -1339.835054712043

DIPOLE MOMENT
-------------
                                X             Y             Z
Electronic contribution:      7.82299      28.58318      -1.08405
Nuclear contribution   :     -7.98014     -29.25279       1.29202
                        -----------------------------------------
Total Dipole Moment    :     -0.15715      -0.66961       0.20798
                        -----------------------------------------
Magnitude (a.u.)       :      0.71856
Magnitude (Debye)      :      1.82643

Rotational constants in cm-1:     0.018459     0.009006     0.006510
Rotational constants in MHz :   553.384449   270.004756   195.175431

                             ****ORCA TERMINATED NORMALLY****
TOTAL RUN TIME: 0 days 0 hours 0 minutes 30 seconds 364 msec
