                         Program Version 4.2.1 -  RELEASE  -
|  1> ! wB97X-D3 SP def2-SVP
|  2> %pal
|  3> nprocs 16
|  4> end
|  5>
|  6> * xyz 0 1
|  7> S 	 7.74445 	 -12.3661 	 55.5897
|  8> C 	 6.05682 	 -12.023 	 55.3019
|  9> C 	 5.33643 	 -13.1935 	 55.296
| 10> C 	 6.1234 	 -14.3933 	 55.4648
| 11> C 	 7.43661 	 -14.1119 	 55.6759
| 12> H 	 5.80299 	 -15.3944 	 55.6101
| 13> C 	 3.8634 	 -13.2256 	 54.9775
| 14> H 	 3.64351 	 -14.1162 	 54.3745
| 15> H 	 3.66153 	 -12.3815 	 54.3319
| 16> C 	 3.00272 	 -13.0395 	 56.18
| 17> H 	 2.00192 	 -12.9486 	 55.8195
| 18> H 	 3.05154 	 -13.9592 	 56.7383
| 19> C 	 3.30343 	 -11.7816 	 57.0959
| 20> H 	 3.13456 	 -10.8276 	 56.5609
| 21> H 	 2.62078 	 -11.7657 	 57.9353
| 22> H 	 4.29598 	 -11.8558 	 57.5573
| 23> S 	 9.00504 	 -16.1885 	 54.8207
| 24> C 	 10.2308 	 -16.8047 	 55.9543
| 25> C 	 10.2652 	 -16.0129 	 57.1346
| 26> C 	 9.30166 	 -14.9536 	 57.1841
| 27> C 	 8.53606 	 -14.9981 	 56.0539
| 28> H 	 10.9429 	 -16.2652 	 57.9561
| 29> C 	 9.27451 	 -14.0221 	 58.2959
| 30> H 	 8.71348 	 -13.1153 	 57.9651
| 31> H 	 10.3138 	 -13.7139 	 58.5477
| 32> C 	 8.50054 	 -14.5402 	 59.494
| 33> H 	 8.95548 	 -15.4708 	 59.7979
| 34> H 	 7.51806 	 -14.8317 	 59.1239
| 35> C 	 8.44694 	 -13.5324 	 60.6232
| 36> H 	 8.11936 	 -14.0561 	 61.5468
| 37> H 	 7.60365 	 -12.8622 	 60.4487
| 38> H 	 9.32233 	 -12.9746 	 60.7268
| 39> H 	 5.71175 	 -11.0165 	 55.0992
| 40> H 	 11.0077 	 -17.5716 	 55.7721
| 41> *
| 42>
| 43>                          ****END OF INPUT****

CARTESIAN COORDINATES (ANGSTROEM)
---------------------------------
  S      7.744450  -12.366100   55.589700
  C      6.056820  -12.023000   55.301900
  C      5.336430  -13.193500   55.296000
  C      6.123400  -14.393300   55.464800
  C      7.436610  -14.111900   55.675900
  H      5.802990  -15.394400   55.610100
  C      3.863400  -13.225600   54.977500
  H      3.643510  -14.116200   54.374500
  H      3.661530  -12.381500   54.331900
  C      3.002720  -13.039500   56.180000
  H      2.001920  -12.948600   55.819500
  H      3.051540  -13.959200   56.738300
  C      3.303430  -11.781600   57.095900
  H      3.134560  -10.827600   56.560900
  H      2.620780  -11.765700   57.935300
  H      4.295980  -11.855800   57.557300
  S      9.005040  -16.188500   54.820700
  C     10.230800  -16.804700   55.954300
  C     10.265200  -16.012900   57.134600
  C      9.301660  -14.953600   57.184100
  C      8.536060  -14.998100   56.053900
  H     10.942900  -16.265200   57.956100
  C      9.274510  -14.022100   58.295900
  H      8.713480  -13.115300   57.965100
  H     10.313800  -13.713900   58.547700
  C      8.500540  -14.540200   59.494000
  H      8.955480  -15.470800   59.797900
  H      7.518060  -14.831700   59.123900
  C      8.446940  -13.532400   60.623200
  H      8.119360  -14.056100   61.546800
  H      7.603650  -12.862200   60.448700
  H      9.322330  -12.974600   60.726800
  H      5.711750  -11.016500   55.099200
  H     11.007700  -17.571600   55.772100

 Total Charge           Charge          ....    0
 Multiplicity           Mult            ....    1
 Number of Electrons    NEL             ....  134
 Basis Dimension        Dim             ....  322

ORBITAL ENERGIES
----------------

  NO   OCC          E(Eh)            E(eV)
   0   2.0000     -88.969879     -2420.9935
   1   2.0000     -88.961330     -2420.7608
   2   2.0000     -10.326104      -280.9876
   3   2.0000     -10.324663      -280.9484
   4   2.0000     -10.324104      -280.9331
   5   2.0000     -10.312276      -280.6113
   6   2.0000     -10.298766      -280.2437
   7   2.0000     -10.297664      -280.2137
   8   2.0000     -10.297219      -280.2016
   9   2.0000     -10.291640      -280.0498
  10   2.0000     -10.286628      -279.9134
  11   2.0000     -10.284341      -279.8512
  12   2.0000     -10.281788      -279.7817
  13   2.0000     -10.281618      -279.7770
  14   2.0000     -10.279718      -279.7253
  15   2.0000     -10.273043      -279.5437
  16   2.0000      -8.083380      -219.9600
  17   2.0000      -8.075728      -219.7517
  18   2.0000      -6.041989      -164.4109
  19   2.0000      -6.038167      -164.3069
  20   2.0000      -6.034237      -164.1999
  21   2.0000      -6.033999      -164.1935
  22   2.0000      -6.030235      -164.0910
  23   2.0000      -6.026540      -163.9905
  24   2.0000      -1.004502       -27.3339
  25   2.0000      -0.980427       -26.6788
  26   2.0000      -0.916777       -24.9468
  27   2.0000      -0.912999       -24.8440
  28   2.0000      -0.863671       -23.5017
  29   2.0000      -0.855915       -23.2906
  30   2.0000      -0.841925       -22.9099
  31   2.0000      -0.809881       -22.0380
  32   2.0000      -0.784709       -21.3530
  33   2.0000      -0.772993       -21.0342
  34   2.0000      -0.706110       -19.2142
  35   2.0000      -0.699325       -19.0296
  36   2.0000      -0.687272       -18.7016
  37   2.0000      -0.666351       -18.1323
  38   2.0000      -0.644937       -17.5496
  39   2.0000      -0.615153       -16.7392
  40   2.0000      -0.595729       -16.2106
  41   2.0000      -0.568534       -15.4706
  42   2.0000      -0.564477       -15.3602
  43   2.0000      -0.552748       -15.0410
  44   2.0000      -0.538217       -14.6456
  45   2.0000      -0.528229       -14.3738
  46   2.0000      -0.518475       -14.1084
  47   2.0000      -0.510903       -13.9024
  48   2.0000      -0.508401       -13.8343
  49   2.0000      -0.498868       -13.5749
  50   2.0000      -0.487383       -13.2624
  51   2.0000      -0.474471       -12.9110
  52   2.0000      -0.466555       -12.6956
  53   2.0000      -0.463244       -12.6055
  54   2.0000      -0.458391       -12.4734
  55   2.0000      -0.447784       -12.1848
  56   2.0000      -0.443744       -12.0749
  57   2.0000      -0.441441       -12.0122
  58   2.0000      -0.435198       -11.8423
  59   2.0000      -0.429584       -11.6896
  60   2.0000      -0.420949       -11.4546
  61   2.0000      -0.412585       -11.2270
  62   2.0000      -0.406391       -11.0585
  63   2.0000      -0.341904        -9.3037
  64   2.0000      -0.331915        -9.0319
  65   2.0000      -0.325205        -8.8493
  66   2.0000      -0.295592        -8.0435
  67   0.0000       0.036463         0.9922
  68   0.0000       0.065114         1.7718
  69   0.0000       0.102402         2.7865
  70   0.0000       0.119026         3.2389
  71   0.0000       0.123885         3.3711

MULLIKEN ATOMIC CHARGES
-----------------------
   0 S :    0.096847
   1 C :   -0.125522
   2 C :   -0.101846
   3 C :    0.060950
   4 C :   -0.168298
   5 H :    0.003301
   6 C :    0.074820
   7 H :    0.030828
   8 H :    0.011127
   9 C :   -0.049344
  10 H :    0.022071
  11 H :    0.019825
  12 C :   -0.068443
  13 H :    0.033931
  14 H :    0.029138
  15 H :    0.052356
  16 S :    0.119393
  17 C :   -0.099862
  18 C :   -0.059241
  19 C :    0.000308
  20 C :   -0.185399
  21 H :    0.024732
  22 C :    0.053081
  23 H :    0.018420
  24 H :    0.034542
  25 C :   -0.076210
  26 H :    0.012166
  27 H :    0.023814
  28 C :    0.006822
  29 H :    0.033554
  30 H :    0.027743
  31 H :    0.024323
  32 H :    0.052159
  33 H :    0.067915
Sum of atomic charges:   -0.0000000

LOEWDIN ATOMIC CHARGES
----------------------
   0 S :    0.399495
   1 C :   -0.193471
   2 C :   -0.061311
   3 C :   -0.062053
   4 C :   -0.180552
   5 H :    0.029934
   6 C :   -0.035401
   7 H :    0.033953
   8 H :    0.026528
   9 C :   -0.035854
  10 H :    0.020653
  11 H :    0.020170
  12 C :   -0.067175
  13 H :    0.026158
  14 H :    0.025153
  15 H :    0.028596
  16 S :    0.390937
  17 C :   -0.189860
  18 C :   -0.064970
  19 C :   -0.057935
  20 C :   -0.192156
  21 H :    0.031152
  22 C :   -0.041321
  23 H :    0.022807
  24 H :    0.034942
  25 C :   -0.035689
  26 H :    0.015601
  27 H :    0.026662
  28 C :   -0.059356
  29 H :    0.032998
  30 H :    0.029184
  31 H :    0.016959
  32 H :    0.028583
  33 H :    0.036638

  Mayer bond orders larger than 0.100000
B(  0-S ,  1-C ) :   1.1266 B(  0-S ,  4-C ) :   1.1455 B(  1-C ,  2-C ) :   1.6239
B(  1-C , 32-H ) :   0.9729 B(  2-C ,  3-C ) :   1.2056 B(  2-C ,  6-C ) :   1.0184
B(  3-C ,  4-C ) :   1.6128 B(  3-C ,  5-H ) :   0.9986 B(  4-C , 20-C ) :   1.0046
B(  6-C ,  7-H ) :   0.9445 B(  6-C ,  8-H ) :   0.9394 B(  6-C ,  9-C ) :   1.0753
B(  9-C , 10-H ) :   0.9546 B(  9-C , 11-H ) :   0.9549 B(  9-C , 12-C ) :   1.0797
B( 12-C , 13-H ) :   0.9751 B( 12-C , 14-H ) :   0.9735 B( 12-C , 15-H ) :   0.9703
B( 16-S , 17-C ) :   1.1319 B( 16-S , 20-C ) :   1.1391 B( 17-C , 18-C ) :   1.6288
B( 17-C , 33-H ) :   0.9633 B( 18-C , 19-C ) :   1.2156 B( 18-C , 21-H ) :   0.9805
B( 19-C , 20-C ) :   1.6072 B( 19-C , 22-C ) :   1.0627 B( 22-C , 23-H ) :   0.9131
B( 22-C , 24-H ) :   0.9241 B( 22-C , 25-C ) :   1.0677 B( 25-C , 26-H ) :   0.9581
B( 25-C , 27-H ) :   0.9502 B( 25-C , 28-C ) :   1.0822 B( 28-C , 29-H ) :   0.9719
B( 28-C , 30-H ) :   0.9720 B( 28-C , 31-H ) :   0.9731

Dispersion correction           -0.014797404
FINAL SINGLE POINT ENERGY     -1339.887966892015

DIPOLE MOMENT
-------------
                                X             Y             Z
Electronic contribution:     15.39396      -7.66865     -18.70867
Nuclear contribution   :    -15.69611       7.70404      19.10376
                        -----------------------------------------
Total Dipole Moment    :     -0.30215       0.03539       0.39509
                        -----------------------------------------
Magnitude (a.u.)       :      0.49864
Magnitude (Debye)      :      1.26744

Rotational constants in cm-1:     0.018822     0.009115     0.007226
Rotational constants in MHz :   564.258580   273.251832   216.615270

                             ****ORCA TERMINATED NORMALLY****
TOTAL RUN TIME: 0 days 0 hours 0 minutes 31 seconds 997 msec
