                         Program Version 4.2.1 -  RELEASE  -
|  1> ! wB97X-D3 SP def2-SVP
|  2> %pal
|  3> nprocs 16
|  4> end
|  5>
|  6> * xyz 0 1
|  7> S 	 -15.1951 	 -10.9222 	 90.9175
|  8> C 	 -15.2178 	 -12.3469 	 91.8729
|  9> C 	 -14.1716 	 -13.2652 	 91.5547
| 10> C 	 -13.3782 	 -12.6481 	 90.5293
| 11> C 	 -13.6982 	 -11.4197 	 90.1305
| 12> H 	 -12.4653 	 -13.0958 	 90.1555
| 13> C 	 -14.0043 	 -14.5933 	 92.2997
| 14> H 	 -14.4264 	 -15.3777 	 91.7683
| 15> H 	 -14.465 	 -14.5998 	 93.2676
| 16> C 	 -12.5272 	 -15.0289 	 92.5013
| 17> H 	 -12.1913 	 -15.1628 	 91.4827
| 18> H 	 -11.8788 	 -14.2021 	 92.888
| 19> C 	 -12.1726 	 -16.2483 	 93.2807
| 20> H 	 -12.7308 	 -16.2853 	 94.2184
| 21> H 	 -12.4281 	 -17.1085 	 92.7238
| 22> H 	 -11.151 	 -16.3705 	 93.4317
| 23> S 	 -11.9469 	 -9.42294 	 89.6353
| 24> C 	 -11.4093 	 -9.21631 	 88.0155
| 25> C 	 -12.1442 	 -9.96735 	 87.0911
| 26> C 	 -13.1013 	 -10.8599 	 87.7367
| 27> C 	 -13.0931 	 -10.6573 	 89.1154
| 28> H 	 -11.9698 	 -9.81164 	 85.9879
| 29> C 	 -13.84 	 -11.8859 	 86.9463
| 30> H 	 -14.6046 	 -11.484 	 86.2227
| 31> H 	 -14.5172 	 -12.3269 	 87.6905
| 32> C 	 -13.0191 	 -12.9688 	 86.2517
| 33> H 	 -12.3055 	 -13.429 	 86.8993
| 34> H 	 -12.4441 	 -12.4898 	 85.4432
| 35> C 	 -13.7557 	 -14.1565 	 85.7528
| 36> H 	 -14.342 	 -14.6323 	 86.5666
| 37> H 	 -13.0498 	 -14.9232 	 85.3581
| 38> H 	 -14.5269 	 -13.9739 	 85.0036
| 39> H 	 -16.053 	 -12.6005 	 92.5768
| 40> H 	 -10.6744 	 -8.46422 	 87.806
| 41> *
| 42>
| 43>                          ****END OF INPUT****

CARTESIAN COORDINATES (ANGSTROEM)
---------------------------------
  S    -15.195100  -10.922200   90.917500
  C    -15.217800  -12.346900   91.872900
  C    -14.171600  -13.265200   91.554700
  C    -13.378200  -12.648100   90.529300
  C    -13.698200  -11.419700   90.130500
  H    -12.465300  -13.095800   90.155500
  C    -14.004300  -14.593300   92.299700
  H    -14.426400  -15.377700   91.768300
  H    -14.465000  -14.599800   93.267600
  C    -12.527200  -15.028900   92.501300
  H    -12.191300  -15.162800   91.482700
  H    -11.878800  -14.202100   92.888000
  C    -12.172600  -16.248300   93.280700
  H    -12.730800  -16.285300   94.218400
  H    -12.428100  -17.108500   92.723800
  H    -11.151000  -16.370500   93.431700
  S    -11.946900   -9.422940   89.635300
  C    -11.409300   -9.216310   88.015500
  C    -12.144200   -9.967350   87.091100
  C    -13.101300  -10.859900   87.736700
  C    -13.093100  -10.657300   89.115400
  H    -11.969800   -9.811640   85.987900
  C    -13.840000  -11.885900   86.946300
  H    -14.604600  -11.484000   86.222700
  H    -14.517200  -12.326900   87.690500
  C    -13.019100  -12.968800   86.251700
  H    -12.305500  -13.429000   86.899300
  H    -12.444100  -12.489800   85.443200
  C    -13.755700  -14.156500   85.752800
  H    -14.342000  -14.632300   86.566600
  H    -13.049800  -14.923200   85.358100
  H    -14.526900  -13.973900   85.003600
  H    -16.053000  -12.600500   92.576800
  H    -10.674400   -8.464220   87.806000

 Total Charge           Charge          ....    0
 Multiplicity           Mult            ....    1
 Number of Electrons    NEL             ....  134
 Basis Dimension        Dim             ....  322

ORBITAL ENERGIES
----------------

  NO   OCC          E(Eh)            E(eV)
   0   2.0000     -88.964389     -2420.8441
   1   2.0000     -88.962853     -2420.8023
   2   2.0000     -10.321236      -280.8551
   3   2.0000     -10.318061      -280.7687
   4   2.0000     -10.316456      -280.7250
   5   2.0000     -10.315849      -280.7085
   6   2.0000     -10.308418      -280.5063
   7   2.0000     -10.306718      -280.4601
   8   2.0000     -10.300316      -280.2858
   9   2.0000     -10.292580      -280.0753
  10   2.0000     -10.290889      -280.0293
  11   2.0000     -10.290215      -280.0110
  12   2.0000     -10.282893      -279.8117
  13   2.0000     -10.282439      -279.7994
  14   2.0000     -10.278892      -279.7029
  15   2.0000     -10.268721      -279.4261
  16   2.0000      -8.079804      -219.8626
  17   2.0000      -8.078190      -219.8187
  18   2.0000      -6.038103      -164.3051
  19   2.0000      -6.036518      -164.2620
  20   2.0000      -6.034283      -164.2012
  21   2.0000      -6.032573      -164.1546
  22   2.0000      -6.030679      -164.1031
  23   2.0000      -6.029139      -164.0612
  24   2.0000      -1.009170       -27.4609
  25   2.0000      -0.982242       -26.7282
  26   2.0000      -0.914106       -24.8741
  27   2.0000      -0.912881       -24.8408
  28   2.0000      -0.874326       -23.7916
  29   2.0000      -0.855719       -23.2853
  30   2.0000      -0.850807       -23.1516
  31   2.0000      -0.815828       -22.1998
  32   2.0000      -0.787257       -21.4224
  33   2.0000      -0.770443       -20.9648
  34   2.0000      -0.707584       -19.2544
  35   2.0000      -0.698938       -19.0191
  36   2.0000      -0.684390       -18.6232
  37   2.0000      -0.655939       -17.8490
  38   2.0000      -0.647854       -17.6290
  39   2.0000      -0.620731       -16.8909
  40   2.0000      -0.600032       -16.3277
  41   2.0000      -0.572597       -15.5812
  42   2.0000      -0.566339       -15.4109
  43   2.0000      -0.559817       -15.2334
  44   2.0000      -0.530482       -14.4351
  45   2.0000      -0.527821       -14.3628
  46   2.0000      -0.519556       -14.1378
  47   2.0000      -0.512544       -13.9470
  48   2.0000      -0.507138       -13.7999
  49   2.0000      -0.503255       -13.6943
  50   2.0000      -0.491521       -13.3750
  51   2.0000      -0.482736       -13.1359
  52   2.0000      -0.470585       -12.8053
  53   2.0000      -0.465481       -12.6664
  54   2.0000      -0.456223       -12.4145
  55   2.0000      -0.454243       -12.3606
  56   2.0000      -0.442720       -12.0470
  57   2.0000      -0.435614       -11.8536
  58   2.0000      -0.429977       -11.7003
  59   2.0000      -0.427705       -11.6384
  60   2.0000      -0.419398       -11.4124
  61   2.0000      -0.411430       -11.1956
  62   2.0000      -0.409688       -11.1482
  63   2.0000      -0.340473        -9.2647
  64   2.0000      -0.327671        -8.9164
  65   2.0000      -0.321512        -8.7488
  66   2.0000      -0.304509        -8.2861
  67   0.0000       0.046154         1.2559
  68   0.0000       0.055933         1.5220
  69   0.0000       0.114048         3.1034
  70   0.0000       0.122969         3.3462
  71   0.0000       0.130543         3.5523

MULLIKEN ATOMIC CHARGES
-----------------------
   0 S :    0.119623
   1 C :   -0.141640
   2 C :   -0.098688
   3 C :    0.040052
   4 C :   -0.177275
   5 H :    0.007881
   6 C :    0.151634
   7 H :    0.016545
   8 H :    0.013969
   9 C :   -0.166458
  10 H :    0.021522
  11 H :    0.036802
  12 C :    0.028107
  13 H :    0.026957
  14 H :    0.007358
  15 H :    0.021346
  16 S :    0.118500
  17 C :   -0.098314
  18 C :   -0.053352
  19 C :    0.007469
  20 C :   -0.190700
  21 H :    0.044078
  22 C :    0.052347
  23 H :    0.040560
  24 H :    0.016280
  25 C :   -0.045949
  26 H :    0.021489
  27 H :    0.028430
  28 C :   -0.063483
  29 H :    0.027610
  30 H :    0.042699
  31 H :    0.023241
  32 H :    0.066328
  33 H :    0.055032
Sum of atomic charges:   -0.0000000

LOEWDIN ATOMIC CHARGES
----------------------
   0 S :    0.412795
   1 C :   -0.207849
   2 C :   -0.061680
   3 C :   -0.055691
   4 C :   -0.210066
   5 H :    0.030787
   6 C :   -0.019447
   7 H :    0.023909
   8 H :    0.026659
   9 C :   -0.049271
  10 H :    0.018337
  11 H :    0.026703
  12 C :   -0.056356
  13 H :    0.026856
  14 H :    0.019799
  15 H :    0.023460
  16 S :    0.417992
  17 C :   -0.188593
  18 C :   -0.078042
  19 C :   -0.041735
  20 C :   -0.205738
  21 H :    0.041045
  22 C :   -0.042800
  23 H :    0.040611
  24 H :    0.031120
  25 C :   -0.043279
  26 H :    0.024929
  27 H :    0.024977
  28 C :   -0.068553
  29 H :    0.027772
  30 H :    0.033336
  31 H :    0.019573
  32 H :    0.035633
  33 H :    0.022805

  Mayer bond orders larger than 0.100000
B(  0-S ,  1-C ) :   1.1746 B(  0-S ,  4-C ) :   1.1235 B(  1-C ,  2-C ) :   1.5906
B(  1-C , 32-H ) :   0.9602 B(  2-C ,  3-C ) :   1.2440 B(  2-C ,  6-C ) :   1.0232
B(  3-C ,  4-C ) :   1.6183 B(  3-C ,  5-H ) :   0.9956 B(  4-C , 20-C ) :   1.0225
B(  6-C ,  7-H ) :   0.9282 B(  6-C ,  8-H ) :   0.9422 B(  6-C ,  9-C ) :   1.0533
B(  9-C , 10-H ) :   0.9503 B(  9-C , 11-H ) :   0.9639 B(  9-C , 12-C ) :   1.1024
B( 12-C , 13-H ) :   0.9714 B( 12-C , 14-H ) :   0.9670 B( 12-C , 15-H ) :   0.9678
B( 16-S , 17-C ) :   1.1722 B( 16-S , 20-C ) :   1.1437 B( 17-C , 18-C ) :   1.6071
B( 17-C , 33-H ) :   0.9704 B( 18-C , 19-C ) :   1.2080 B( 18-C , 21-H ) :   0.9822
B( 19-C , 20-C ) :   1.6099 B( 19-C , 22-C ) :   1.0635 B( 22-C , 23-H ) :   0.9292
B( 22-C , 24-H ) :   0.9219 B( 22-C , 25-C ) :   1.0614 B( 25-C , 26-H ) :   0.9521
B( 25-C , 27-H ) :   0.9479 B( 25-C , 28-C ) :   1.0969 B( 28-C , 29-H ) :   0.9705
B( 28-C , 30-H ) :   0.9731 B( 28-C , 31-H ) :   0.9720

Dispersion correction           -0.013945210
FINAL SINGLE POINT ENERGY     -1339.876159811263

DIPOLE MOMENT
-------------
                                X             Y             Z
Electronic contribution:     -3.26191      27.90544       4.53466
Nuclear contribution   :      3.40925     -28.52547      -4.76778
                        -----------------------------------------
Total Dipole Moment    :      0.14734      -0.62003      -0.23312
                        -----------------------------------------
Magnitude (a.u.)       :      0.67860
Magnitude (Debye)      :      1.72485

Rotational constants in cm-1:     0.016117     0.008468     0.007127
Rotational constants in MHz :   483.188943   253.877084   213.648723

                             ****ORCA TERMINATED NORMALLY****
TOTAL RUN TIME: 0 days 0 hours 0 minutes 33 seconds 139 msec
