                         Program Version 4.2.1 -  RELEASE  -
|  1> ! wB97X-D3 SP def2-SVP
|  2> %pal
|  3> nprocs 16
|  4> end
|  5>
|  6> * xyz 0 1
|  7> S 	 -92.2844 	 55.32 	 126.954
|  8> C 	 -91.1416 	 54.6612 	 128.083
|  9> C 	 -89.8146 	 54.9342 	 127.676
| 10> C 	 -89.7959 	 55.8137 	 126.586
| 11> C 	 -91.071 	 56.179 	 126.034
| 12> H 	 -88.8366 	 56.0876 	 126.077
| 13> C 	 -88.6401 	 54.6664 	 128.528
| 14> H 	 -88.6729 	 55.3647 	 129.374
| 15> H 	 -87.785 	 54.9837 	 127.914
| 16> C 	 -88.5197 	 53.2864 	 129.166
| 17> H 	 -89.4611 	 53.1866 	 129.722
| 18> H 	 -88.4868 	 52.5257 	 128.37
| 19> C 	 -87.3263 	 53.2239 	 130.124
| 20> H 	 -87.3504 	 54.1201 	 130.834
| 21> H 	 -87.2985 	 52.2706 	 130.678
| 22> H 	 -86.3749 	 53.4442 	 129.602
| 23> S 	 -90.5678 	 58.3653 	 124.41
| 24> C 	 -91.0681 	 58.1983 	 122.72
| 25> C 	 -91.892 	 57.0552 	 122.507
| 26> C 	 -91.9702 	 56.2524 	 123.669
| 27> C 	 -91.313 	 56.8212 	 124.752
| 28> H 	 -92.4041 	 56.7647 	 121.577
| 29> C 	 -92.6415 	 54.9006 	 123.512
| 30> H 	 -93.3328 	 54.8609 	 122.706
| 31> H 	 -93.1856 	 54.7066 	 124.442
| 32> C 	 -91.6023 	 53.7259 	 123.397
| 33> H 	 -90.6884 	 53.9546 	 123.933
| 34> H 	 -91.2609 	 53.634 	 122.401
| 35> C 	 -92.0994 	 52.3719 	 123.915
| 36> H 	 -92.6079 	 52.426 	 124.868
| 37> H 	 -91.2867 	 51.7575 	 124.086
| 38> H 	 -92.8144 	 51.8892 	 123.28
| 39> H 	 -91.4478 	 53.9562 	 128.899
| 40> H 	 -90.8131 	 58.9081 	 121.937
| 41> *
| 42>
| 43>                          ****END OF INPUT****

CARTESIAN COORDINATES (ANGSTROEM)
---------------------------------
  S    -92.284400   55.320000  126.954000
  C    -91.141600   54.661200  128.083000
  C    -89.814600   54.934200  127.676000
  C    -89.795900   55.813700  126.586000
  C    -91.071000   56.179000  126.034000
  H    -88.836600   56.087600  126.077000
  C    -88.640100   54.666400  128.528000
  H    -88.672900   55.364700  129.374000
  H    -87.785000   54.983700  127.914000
  C    -88.519700   53.286400  129.166000
  H    -89.461100   53.186600  129.722000
  H    -88.486800   52.525700  128.370000
  C    -87.326300   53.223900  130.124000
  H    -87.350400   54.120100  130.834000
  H    -87.298500   52.270600  130.678000
  H    -86.374900   53.444200  129.602000
  S    -90.567800   58.365300  124.410000
  C    -91.068100   58.198300  122.720000
  C    -91.892000   57.055200  122.507000
  C    -91.970200   56.252400  123.669000
  C    -91.313000   56.821200  124.752000
  H    -92.404100   56.764700  121.577000
  C    -92.641500   54.900600  123.512000
  H    -93.332800   54.860900  122.706000
  H    -93.185600   54.706600  124.442000
  C    -91.602300   53.725900  123.397000
  H    -90.688400   53.954600  123.933000
  H    -91.260900   53.634000  122.401000
  C    -92.099400   52.371900  123.915000
  H    -92.607900   52.426000  124.868000
  H    -91.286700   51.757500  124.086000
  H    -92.814400   51.889200  123.280000
  H    -91.447800   53.956200  128.899000
  H    -90.813100   58.908100  121.937000

 Total Charge           Charge          ....    0
 Multiplicity           Mult            ....    1
 Number of Electrons    NEL             ....  134
 Basis Dimension        Dim             ....  322

ORBITAL ENERGIES
----------------

  NO   OCC          E(Eh)            E(eV)
   0   2.0000     -88.973231     -2421.0847
   1   2.0000     -88.971074     -2421.0260
   2   2.0000     -10.332545      -281.1628
   3   2.0000     -10.325844      -280.9805
   4   2.0000     -10.323327      -280.9120
   5   2.0000     -10.319006      -280.7944
   6   2.0000     -10.299195      -280.2554
   7   2.0000     -10.299100      -280.2527
   8   2.0000     -10.298681      -280.2414
   9   2.0000     -10.297814      -280.2178
  10   2.0000     -10.291122      -280.0357
  11   2.0000     -10.289537      -279.9925
  12   2.0000     -10.289246      -279.9846
  13   2.0000     -10.288687      -279.9694
  14   2.0000     -10.278073      -279.6806
  15   2.0000     -10.263447      -279.2826
  16   2.0000      -8.087096      -220.0611
  17   2.0000      -8.085056      -220.0056
  18   2.0000      -6.045561      -164.5081
  19   2.0000      -6.043352      -164.4480
  20   2.0000      -6.041798      -164.4057
  21   2.0000      -6.039395      -164.3403
  22   2.0000      -6.037902      -164.2997
  23   2.0000      -6.036369      -164.2580
  24   2.0000      -1.003920       -27.3180
  25   2.0000      -0.981929       -26.7197
  26   2.0000      -0.917313       -24.9614
  27   2.0000      -0.903813       -24.5940
  28   2.0000      -0.864277       -23.5182
  29   2.0000      -0.855204       -23.2713
  30   2.0000      -0.848550       -23.0902
  31   2.0000      -0.804312       -21.8864
  32   2.0000      -0.782825       -21.3017
  33   2.0000      -0.765932       -20.8421
  34   2.0000      -0.709204       -19.2984
  35   2.0000      -0.703373       -19.1397
  36   2.0000      -0.688972       -18.7479
  37   2.0000      -0.666761       -18.1435
  38   2.0000      -0.634615       -17.2688
  39   2.0000      -0.612511       -16.6673
  40   2.0000      -0.595470       -16.2036
  41   2.0000      -0.569208       -15.4889
  42   2.0000      -0.563159       -15.3243
  43   2.0000      -0.559013       -15.2115
  44   2.0000      -0.526258       -14.3202
  45   2.0000      -0.523736       -14.2516
  46   2.0000      -0.519365       -14.1326
  47   2.0000      -0.505672       -13.7600
  48   2.0000      -0.501013       -13.6333
  49   2.0000      -0.495377       -13.4799
  50   2.0000      -0.489654       -13.3242
  51   2.0000      -0.481532       -13.1031
  52   2.0000      -0.470638       -12.8067
  53   2.0000      -0.468285       -12.7427
  54   2.0000      -0.456269       -12.4157
  55   2.0000      -0.450111       -12.2481
  56   2.0000      -0.443456       -12.0671
  57   2.0000      -0.438101       -11.9213
  58   2.0000      -0.431578       -11.7438
  59   2.0000      -0.428184       -11.6515
  60   2.0000      -0.422437       -11.4951
  61   2.0000      -0.419525       -11.4159
  62   2.0000      -0.414046       -11.2668
  63   2.0000      -0.340583        -9.2677
  64   2.0000      -0.334894        -9.1129
  65   2.0000      -0.329300        -8.9607
  66   2.0000      -0.284290        -7.7359
  67   0.0000       0.021910         0.5962
  68   0.0000       0.066242         1.8025
  69   0.0000       0.105855         2.8805
  70   0.0000       0.116860         3.1799
  71   0.0000       0.125523         3.4157

MULLIKEN ATOMIC CHARGES
-----------------------
   0 S :    0.119706
   1 C :   -0.161606
   2 C :   -0.063120
   3 C :    0.005085
   4 C :   -0.161570
   5 H :    0.030473
   6 C :    0.023425
   7 H :    0.041833
   8 H :    0.016754
   9 C :   -0.079196
  10 H :    0.027443
  11 H :    0.037489
  12 C :   -0.055072
  13 H :    0.029016
  14 H :    0.051671
  15 H :    0.032746
  16 S :    0.130902
  17 C :   -0.112957
  18 C :   -0.028929
  19 C :   -0.055658
  20 C :   -0.158506
  21 H :    0.027760
  22 C :    0.100434
  23 H :    0.016390
  24 H :    0.015394
  25 C :   -0.058478
  26 H :    0.030591
  27 H :    0.013195
  28 C :   -0.010637
  29 H :    0.017538
  30 H :    0.015594
  31 H :    0.021981
  32 H :    0.078006
  33 H :    0.062304
Sum of atomic charges:   -0.0000000

LOEWDIN ATOMIC CHARGES
----------------------
   0 S :    0.440068
   1 C :   -0.215438
   2 C :   -0.074037
   3 C :   -0.069041
   4 C :   -0.204422
   5 H :    0.035931
   6 C :   -0.037463
   7 H :    0.037666
   8 H :    0.027552
   9 C :   -0.041912
  10 H :    0.023767
  11 H :    0.026163
  12 C :   -0.072291
  13 H :    0.031382
  14 H :    0.030219
  15 H :    0.027925
  16 S :    0.415074
  17 C :   -0.185905
  18 C :   -0.066242
  19 C :   -0.055530
  20 C :   -0.209601
  21 H :    0.035988
  22 C :   -0.025348
  23 H :    0.024101
  24 H :    0.019590
  25 C :   -0.030781
  26 H :    0.027226
  27 H :    0.017167
  28 C :   -0.057886
  29 H :    0.023206
  30 H :    0.018555
  31 H :    0.020218
  32 H :    0.036468
  33 H :    0.027632

  Mayer bond orders larger than 0.100000
B(  0-S ,  1-C ) :   1.1789 B(  0-S ,  4-C ) :   1.1792 B(  1-C ,  2-C ) :   1.5093
B(  1-C ,  4-C ) :   0.1126 B(  1-C , 32-H ) :   0.9611 B(  2-C ,  3-C ) :   1.3366
B(  2-C ,  6-C ) :   1.0351 B(  3-C ,  4-C ) :   1.4899 B(  3-C ,  5-H ) :   0.9764
B(  4-C , 20-C ) :   1.0444 B(  6-C ,  7-H ) :   0.9366 B(  6-C ,  8-H ) :   0.9421
B(  6-C ,  9-C ) :   1.0509 B(  9-C , 10-H ) :   0.9504 B(  9-C , 11-H ) :   0.9589
B(  9-C , 12-C ) :   1.0842 B( 12-C , 13-H ) :   0.9700 B( 12-C , 14-H ) :   0.9737
B( 12-C , 15-H ) :   0.9733 B( 16-S , 17-C ) :   1.1628 B( 16-S , 20-C ) :   1.1412
B( 17-C , 18-C ) :   1.5684 B( 17-C , 20-C ) :   0.1014 B( 17-C , 33-H ) :   0.9688
B( 18-C , 19-C ) :   1.2822 B( 18-C , 21-H ) :   0.9823 B( 19-C , 20-C ) :   1.5699
B( 19-C , 22-C ) :   1.0490 B( 22-C , 23-H ) :   0.9360 B( 22-C , 24-H ) :   0.9321
B( 22-C , 25-C ) :   1.0440 B( 25-C , 26-H ) :   0.9627 B( 25-C , 27-H ) :   0.9522
B( 25-C , 28-C ) :   1.0858 B( 28-C , 29-H ) :   0.9719 B( 28-C , 30-H ) :   0.9729
B( 28-C , 31-H ) :   0.9755

Dispersion correction           -0.014768030
FINAL SINGLE POINT ENERGY     -1339.879146042122

DIPOLE MOMENT
-------------
                                X             Y             Z
Electronic contribution:     -9.55294      22.47424      -6.49593
Nuclear contribution   :      9.83279     -22.92917       6.42767
                        -----------------------------------------
Total Dipole Moment    :      0.27986      -0.45493      -0.06826
                        -----------------------------------------
Magnitude (a.u.)       :      0.53846
Magnitude (Debye)      :      1.36866

Rotational constants in cm-1:     0.020878     0.008033     0.006745
Rotational constants in MHz :   625.906053   240.826947   202.216353

                             ****ORCA TERMINATED NORMALLY****
TOTAL RUN TIME: 0 days 0 hours 0 minutes 37 seconds 329 msec
