                         Program Version 4.2.1 -  RELEASE  -
|  1> ! wB97X-D3 SP def2-SVP
|  2> %pal
|  3> nprocs 16
|  4> end
|  5>
|  6> * xyz 0 1
|  7> S 	 -117.729 	 45.5077 	 135.171
|  8> C 	 -118.674 	 46.9593 	 135.461
|  9> C 	 -117.932 	 48.0674 	 135.077
| 10> C 	 -116.566 	 47.744 	 134.73
| 11> C 	 -116.29 	 46.3835 	 134.643
| 12> H 	 -115.765 	 48.3991 	 134.448
| 13> C 	 -118.45 	 49.4803 	 135.307
| 14> H 	 -117.999 	 49.8641 	 136.281
| 15> H 	 -119.461 	 49.3347 	 135.423
| 16> C 	 -118.045 	 50.5268 	 134.284
| 17> H 	 -118.116 	 51.5736 	 134.631
| 18> H 	 -116.964 	 50.3987 	 134.063
| 19> C 	 -118.969 	 50.4282 	 133.058
| 20> H 	 -120.026 	 50.7393 	 133.256
| 21> H 	 -118.57 	 50.9153 	 132.186
| 22> H 	 -119.076 	 49.4229 	 132.619
| 23> S 	 -115.095 	 43.9422 	 134.316
| 24> C 	 -113.413 	 43.8695 	 134.314
| 25> C 	 -112.828 	 45.1135 	 134.524
| 26> C 	 -113.788 	 46.1266 	 134.751
| 27> C 	 -115.044 	 45.6837 	 134.442
| 28> H 	 -111.759 	 45.2966 	 134.704
| 29> C 	 -113.403 	 47.5331 	 135.231
| 30> H 	 -112.395 	 47.3719 	 135.664
| 31> H 	 -114.076 	 47.9451 	 136.022
| 32> C 	 -113.069 	 48.4056 	 133.993
| 33> H 	 -113.855 	 48.2609 	 133.246
| 34> H 	 -112.074 	 48.1127 	 133.514
| 35> C 	 -112.941 	 49.828 	 134.467
| 36> H 	 -112.834 	 50.5391 	 133.603
| 37> H 	 -112.093 	 50.0164 	 135.083
| 38> H 	 -113.862 	 50.0361 	 135.011
| 39> H 	 -119.68 	 46.8995 	 135.861
| 40> H 	 -112.791 	 42.9741 	 134.124
| 41> *
| 42>
| 43>                          ****END OF INPUT****

CARTESIAN COORDINATES (ANGSTROEM)
---------------------------------
  S    -117.729000   45.507700  135.171000
  C    -118.674000   46.959300  135.461000
  C    -117.932000   48.067400  135.077000
  C    -116.566000   47.744000  134.730000
  C    -116.290000   46.383500  134.643000
  H    -115.765000   48.399100  134.448000
  C    -118.450000   49.480300  135.307000
  H    -117.999000   49.864100  136.281000
  H    -119.461000   49.334700  135.423000
  C    -118.045000   50.526800  134.284000
  H    -118.116000   51.573600  134.631000
  H    -116.964000   50.398700  134.063000
  C    -118.969000   50.428200  133.058000
  H    -120.026000   50.739300  133.256000
  H    -118.570000   50.915300  132.186000
  H    -119.076000   49.422900  132.619000
  S    -115.095000   43.942200  134.316000
  C    -113.413000   43.869500  134.314000
  C    -112.828000   45.113500  134.524000
  C    -113.788000   46.126600  134.751000
  C    -115.044000   45.683700  134.442000
  H    -111.759000   45.296600  134.704000
  C    -113.403000   47.533100  135.231000
  H    -112.395000   47.371900  135.664000
  H    -114.076000   47.945100  136.022000
  C    -113.069000   48.405600  133.993000
  H    -113.855000   48.260900  133.246000
  H    -112.074000   48.112700  133.514000
  C    -112.941000   49.828000  134.467000
  H    -112.834000   50.539100  133.603000
  H    -112.093000   50.016400  135.083000
  H    -113.862000   50.036100  135.011000
  H    -119.680000   46.899500  135.861000
  H    -112.791000   42.974100  134.124000

 Total Charge           Charge          ....    0
 Multiplicity           Mult            ....    1
 Number of Electrons    NEL             ....  134
 Basis Dimension        Dim             ....  322

ORBITAL ENERGIES
----------------

  NO   OCC          E(Eh)            E(eV)
   0   2.0000     -88.969159     -2420.9739
   1   2.0000     -88.959432     -2420.7092
   2   2.0000     -10.330273      -281.1010
   3   2.0000     -10.322125      -280.8793
   4   2.0000     -10.318864      -280.7906
   5   2.0000     -10.314711      -280.6775
   6   2.0000     -10.304507      -280.3999
   7   2.0000     -10.301737      -280.3245
   8   2.0000     -10.301101      -280.3072
   9   2.0000     -10.295745      -280.1615
  10   2.0000     -10.294261      -280.1211
  11   2.0000     -10.293527      -280.1011
  12   2.0000     -10.290766      -280.0260
  13   2.0000     -10.288606      -279.9672
  14   2.0000     -10.280028      -279.7338
  15   2.0000     -10.275576      -279.6126
  16   2.0000      -8.085198      -220.0094
  17   2.0000      -8.074247      -219.7114
  18   2.0000      -6.043629      -164.4555
  19   2.0000      -6.039657      -164.3474
  20   2.0000      -6.035842      -164.2436
  21   2.0000      -6.032861      -164.1625
  22   2.0000      -6.028713      -164.0496
  23   2.0000      -6.024928      -163.9466
  24   2.0000      -1.015653       -27.6373
  25   2.0000      -0.984727       -26.7958
  26   2.0000      -0.918420       -24.9915
  27   2.0000      -0.911951       -24.8154
  28   2.0000      -0.871254       -23.7080
  29   2.0000      -0.860365       -23.4117
  30   2.0000      -0.837522       -22.7901
  31   2.0000      -0.814086       -22.1524
  32   2.0000      -0.783621       -21.3234
  33   2.0000      -0.770207       -20.9584
  34   2.0000      -0.710822       -19.3424
  35   2.0000      -0.697687       -18.9850
  36   2.0000      -0.691747       -18.8234
  37   2.0000      -0.664984       -18.0951
  38   2.0000      -0.641954       -17.4684
  39   2.0000      -0.621627       -16.9153
  40   2.0000      -0.599149       -16.3037
  41   2.0000      -0.572981       -15.5916
  42   2.0000      -0.558479       -15.1970
  43   2.0000      -0.549444       -14.9511
  44   2.0000      -0.536273       -14.5927
  45   2.0000      -0.529970       -14.4212
  46   2.0000      -0.522310       -14.2128
  47   2.0000      -0.516160       -14.0454
  48   2.0000      -0.507398       -13.8070
  49   2.0000      -0.500815       -13.6279
  50   2.0000      -0.489846       -13.3294
  51   2.0000      -0.485502       -13.2112
  52   2.0000      -0.470683       -12.8079
  53   2.0000      -0.468415       -12.7462
  54   2.0000      -0.458301       -12.4710
  55   2.0000      -0.451914       -12.2972
  56   2.0000      -0.441389       -12.0108
  57   2.0000      -0.441285       -12.0080
  58   2.0000      -0.434055       -11.8112
  59   2.0000      -0.424977       -11.5642
  60   2.0000      -0.419708       -11.4208
  61   2.0000      -0.415119       -11.2960
  62   2.0000      -0.405451       -11.0329
  63   2.0000      -0.361401        -9.8342
  64   2.0000      -0.334956        -9.1146
  65   2.0000      -0.324362        -8.8263
  66   2.0000      -0.281411        -7.6576
  67   0.0000       0.022370         0.6087
  68   0.0000       0.080909         2.2016
  69   0.0000       0.100769         2.7421
  70   0.0000       0.119037         3.2392
  71   0.0000       0.123460         3.3595

MULLIKEN ATOMIC CHARGES
-----------------------
   0 S :    0.072646
   1 C :   -0.137301
   2 C :   -0.070408
   3 C :   -0.003666
   4 C :   -0.109864
   5 H :   -0.019989
   6 C :    0.096152
   7 H :    0.047147
   8 H :   -0.006155
   9 C :   -0.068414
  10 H :    0.034927
  11 H :    0.032400
  12 C :   -0.070945
  13 H :    0.038702
  14 H :    0.024519
  15 H :    0.029475
  16 S :    0.118320
  17 C :   -0.085466
  18 C :   -0.026853
  19 C :   -0.096025
  20 C :   -0.107008
  21 H :    0.021345
  22 C :    0.014420
  23 H :    0.022711
  24 H :    0.066049
  25 C :   -0.109695
  26 H :    0.047982
  27 H :    0.042844
  28 C :   -0.016316
  29 H :    0.039064
  30 H :    0.027856
  31 H :    0.023237
  32 H :    0.059059
  33 H :    0.069252
Sum of atomic charges:    0.0000000

LOEWDIN ATOMIC CHARGES
----------------------
   0 S :    0.381425
   1 C :   -0.196688
   2 C :   -0.059430
   3 C :   -0.079422
   4 C :   -0.171808
   5 H :    0.023455
   6 C :   -0.025982
   7 H :    0.042116
   8 H :    0.015358
   9 C :   -0.045705
  10 H :    0.028621
  11 H :    0.026831
  12 C :   -0.076459
  13 H :    0.030123
  14 H :    0.022102
  15 H :    0.027558
  16 S :    0.437512
  17 C :   -0.205195
  18 C :   -0.078505
  19 C :   -0.049368
  20 C :   -0.207382
  21 H :    0.033068
  22 C :   -0.036467
  23 H :    0.035010
  24 H :    0.039375
  25 C :   -0.043698
  26 H :    0.021227
  27 H :    0.033826
  28 C :   -0.065552
  29 H :    0.030957
  30 H :    0.021686
  31 H :    0.021174
  32 H :    0.031236
  33 H :    0.038998

  Mayer bond orders larger than 0.100000
B(  0-S ,  1-C ) :   1.1331 B(  0-S ,  4-C ) :   1.1388 B(  1-C ,  2-C ) :   1.5972
B(  1-C , 32-H ) :   0.9715 B(  2-C ,  3-C ) :   1.2141 B(  2-C ,  6-C ) :   1.0321
B(  3-C ,  4-C ) :   1.5916 B(  3-C ,  5-H ) :   0.9903 B(  4-C , 20-C ) :   1.0900
B(  6-C ,  7-H ) :   0.9361 B(  6-C ,  8-H ) :   0.9402 B(  6-C ,  9-C ) :   1.0655
B(  9-C , 10-H ) :   0.9559 B(  9-C , 11-H ) :   0.9548 B(  9-C , 12-C ) :   1.0706
B( 12-C , 13-H ) :   0.9744 B( 12-C , 14-H ) :   0.9730 B( 12-C , 15-H ) :   0.9765
B( 16-S , 17-C ) :   1.1839 B( 16-S , 20-C ) :   1.1308 B( 17-C , 18-C ) :   1.5794
B( 17-C , 33-H ) :   0.9616 B( 18-C , 19-C ) :   1.2852 B( 18-C , 21-H ) :   0.9799
B( 19-C , 20-C ) :   1.5656 B( 19-C , 22-C ) :   1.0392 B( 22-C , 23-H ) :   0.9246
B( 22-C , 24-H ) :   0.9444 B( 22-C , 25-C ) :   1.0431 B( 25-C , 26-H ) :   0.9601
B( 25-C , 27-H ) :   0.9505 B( 25-C , 28-C ) :   1.0827 B( 28-C , 29-H ) :   0.9706
B( 28-C , 30-H ) :   0.9706 B( 28-C , 31-H ) :   0.9735

Dispersion correction           -0.014691551
FINAL SINGLE POINT ENERGY     -1339.875274328967

DIPOLE MOMENT
-------------
                                X             Y             Z
Electronic contribution:     -3.38429     -30.75320       3.37303
Nuclear contribution   :      3.84416      31.29807      -3.19582
                        -----------------------------------------
Total Dipole Moment    :      0.45988       0.54487       0.17721
                        -----------------------------------------
Magnitude (a.u.)       :      0.73469
Magnitude (Debye)      :      1.86743

Rotational constants in cm-1:     0.018338     0.009982     0.006933
Rotational constants in MHz :   549.746668   299.252964   207.846725

                             ****ORCA TERMINATED NORMALLY****
TOTAL RUN TIME: 0 days 0 hours 0 minutes 33 seconds 654 msec
