                         Program Version 4.2.1 -  RELEASE  -
|  1> ! wB97X-D3 SP def2-SVP
|  2> %pal
|  3> nprocs 16
|  4> end
|  5>
|  6> * xyz 0 1
|  7> S 	 -44.1357 	 51.6645 	 102.394
|  8> C 	 -44.2403 	 51.1282 	 100.673
|  9> C 	 -43.0647 	 51.3074 	 99.9836
| 10> C 	 -42.0264 	 51.7866 	 100.862
| 11> C 	 -42.4191 	 52.0321 	 102.164
| 12> H 	 -41.0049 	 52.0493 	 100.623
| 13> C 	 -42.8755 	 51.0799 	 98.4751
| 14> H 	 -42.6775 	 52.0472 	 98.1385
| 15> H 	 -43.7584 	 50.6827 	 98.0597
| 16> C 	 -41.6552 	 50.1304 	 97.9814
| 17> H 	 -41.4881 	 50.1714 	 96.884
| 18> H 	 -40.7164 	 50.5598 	 98.3099
| 19> C 	 -41.9 	 48.7461 	 98.4963
| 20> H 	 -41.8652 	 48.6848 	 99.5599
| 21> H 	 -42.842 	 48.2276 	 98.1589
| 22> H 	 -41.0327 	 48.1745 	 98.2368
| 23> S 	 -42.1855 	 53.5061 	 104.48
| 24> C 	 -40.7077 	 53.407 	 105.443
| 25> C 	 -39.881 	 52.4261 	 104.912
| 26> C 	 -40.2974 	 51.9199 	 103.644
| 27> C 	 -41.5876 	 52.3495 	 103.32
| 28> H 	 -38.9538 	 52.1822 	 105.445
| 29> C 	 -39.5244 	 50.79 	 102.931
| 30> H 	 -38.6869 	 51.4798 	 102.517
| 31> H 	 -40.0152 	 50.3593 	 102.044
| 32> C 	 -38.8069 	 49.6963 	 103.698
| 33> H 	 -38.2909 	 50.1623 	 104.591
| 34> H 	 -37.988 	 49.2928 	 103.082
| 35> C 	 -39.5738 	 48.5528 	 104.335
| 36> H 	 -40.3853 	 48.9202 	 104.989
| 37> H 	 -38.9317 	 47.7365 	 104.799
| 38> H 	 -40.0579 	 47.955 	 103.605
| 39> H 	 -45.1222 	 50.7594 	 100.222
| 40> H 	 -40.6835 	 54.065 	 106.27
| 41> *
| 42>
| 43>                          ****END OF INPUT****

CARTESIAN COORDINATES (ANGSTROEM)
---------------------------------
  S    -44.135700   51.664500  102.394000
  C    -44.240300   51.128200  100.673000
  C    -43.064700   51.307400   99.983600
  C    -42.026400   51.786600  100.862000
  C    -42.419100   52.032100  102.164000
  H    -41.004900   52.049300  100.623000
  C    -42.875500   51.079900   98.475100
  H    -42.677500   52.047200   98.138500
  H    -43.758400   50.682700   98.059700
  C    -41.655200   50.130400   97.981400
  H    -41.488100   50.171400   96.884000
  H    -40.716400   50.559800   98.309900
  C    -41.900000   48.746100   98.496300
  H    -41.865200   48.684800   99.559900
  H    -42.842000   48.227600   98.158900
  H    -41.032700   48.174500   98.236800
  S    -42.185500   53.506100  104.480000
  C    -40.707700   53.407000  105.443000
  C    -39.881000   52.426100  104.912000
  C    -40.297400   51.919900  103.644000
  C    -41.587600   52.349500  103.320000
  H    -38.953800   52.182200  105.445000
  C    -39.524400   50.790000  102.931000
  H    -38.686900   51.479800  102.517000
  H    -40.015200   50.359300  102.044000
  C    -38.806900   49.696300  103.698000
  H    -38.290900   50.162300  104.591000
  H    -37.988000   49.292800  103.082000
  C    -39.573800   48.552800  104.335000
  H    -40.385300   48.920200  104.989000
  H    -38.931700   47.736500  104.799000
  H    -40.057900   47.955000  103.605000
  H    -45.122200   50.759400  100.222000
  H    -40.683500   54.065000  106.270000

 Total Charge           Charge          ....    0
 Multiplicity           Mult            ....    1
 Number of Electrons    NEL             ....  134
 Basis Dimension        Dim             ....  322

ORBITAL ENERGIES
----------------

  NO   OCC          E(Eh)            E(eV)
   0   2.0000     -88.964487     -2420.8468
   1   2.0000     -88.963257     -2420.8133
   2   2.0000     -10.331153      -281.1250
   3   2.0000     -10.328476      -281.0521
   4   2.0000     -10.321656      -280.8665
   5   2.0000     -10.313842      -280.6539
   6   2.0000     -10.311240      -280.5831
   7   2.0000     -10.306191      -280.4457
   8   2.0000     -10.303908      -280.3836
   9   2.0000     -10.302201      -280.3371
  10   2.0000     -10.294589      -280.1300
  11   2.0000     -10.294416      -280.1253
  12   2.0000     -10.292745      -280.0798
  13   2.0000     -10.291571      -280.0479
  14   2.0000     -10.277064      -279.6531
  15   2.0000     -10.274408      -279.5809
  16   2.0000      -8.078337      -219.8227
  17   2.0000      -8.078229      -219.8198
  18   2.0000      -6.036907      -164.2726
  19   2.0000      -6.036720      -164.2675
  20   2.0000      -6.033043      -164.1674
  21   2.0000      -6.032772      -164.1601
  22   2.0000      -6.029237      -164.0639
  23   2.0000      -6.028712      -164.0496
  24   2.0000      -1.003606       -27.3095
  25   2.0000      -0.978370       -26.6228
  26   2.0000      -0.908120       -24.7112
  27   2.0000      -0.906236       -24.6599
  28   2.0000      -0.869782       -23.6680
  29   2.0000      -0.851830       -23.1795
  30   2.0000      -0.841526       -22.8991
  31   2.0000      -0.814806       -22.1720
  32   2.0000      -0.786176       -21.3929
  33   2.0000      -0.776264       -21.1232
  34   2.0000      -0.709906       -19.3175
  35   2.0000      -0.698438       -19.0055
  36   2.0000      -0.696629       -18.9562
  37   2.0000      -0.657149       -17.8819
  38   2.0000      -0.641563       -17.4578
  39   2.0000      -0.618952       -16.8425
  40   2.0000      -0.603799       -16.4302
  41   2.0000      -0.560457       -15.2508
  42   2.0000      -0.556157       -15.1338
  43   2.0000      -0.552610       -15.0373
  44   2.0000      -0.538801       -14.6615
  45   2.0000      -0.533920       -14.5287
  46   2.0000      -0.524718       -14.2783
  47   2.0000      -0.514106       -13.9895
  48   2.0000      -0.497420       -13.5355
  49   2.0000      -0.493920       -13.4402
  50   2.0000      -0.490072       -13.3355
  51   2.0000      -0.483190       -13.1483
  52   2.0000      -0.473928       -12.8962
  53   2.0000      -0.470728       -12.8092
  54   2.0000      -0.456215       -12.4142
  55   2.0000      -0.452087       -12.3019
  56   2.0000      -0.444351       -12.0914
  57   2.0000      -0.439053       -11.9472
  58   2.0000      -0.432547       -11.7702
  59   2.0000      -0.419368       -11.4116
  60   2.0000      -0.417139       -11.3509
  61   2.0000      -0.411380       -11.1942
  62   2.0000      -0.407354       -11.0847
  63   2.0000      -0.351949        -9.5770
  64   2.0000      -0.330003        -8.9798
  65   2.0000      -0.329608        -8.9691
  66   2.0000      -0.287461        -7.8222
  67   0.0000       0.026600         0.7238
  68   0.0000       0.072174         1.9640
  69   0.0000       0.105447         2.8694
  70   0.0000       0.121329         3.3015
  71   0.0000       0.128631         3.5002

MULLIKEN ATOMIC CHARGES
-----------------------
   0 S :    0.089353
   1 C :   -0.117752
   2 C :   -0.079265
   3 C :   -0.005105
   4 C :   -0.116635
   5 H :    0.012181
   6 C :    0.114932
   7 H :    0.027370
   8 H :    0.008139
   9 C :   -0.084361
  10 H :    0.035531
  11 H :    0.018127
  12 C :   -0.037998
  13 H :    0.031415
  14 H :    0.043735
  15 H :    0.020892
  16 S :    0.086857
  17 C :   -0.092309
  18 C :   -0.035194
  19 C :   -0.030252
  20 C :   -0.146575
  21 H :    0.035551
  22 C :    0.018195
  23 H :    0.049215
  24 H :    0.038699
  25 C :   -0.076851
  26 H :    0.023924
  27 H :    0.032528
  28 C :   -0.044838
  29 H :    0.047746
  30 H :    0.040882
  31 H :    0.008668
  32 H :    0.029169
  33 H :    0.054025
Sum of atomic charges:   -0.0000000

LOEWDIN ATOMIC CHARGES
----------------------
   0 S :    0.366552
   1 C :   -0.174392
   2 C :   -0.055705
   3 C :   -0.070455
   4 C :   -0.176427
   5 H :    0.029092
   6 C :   -0.014054
   7 H :    0.026146
   8 H :    0.021459
   9 C :   -0.038774
  10 H :    0.029040
  11 H :    0.019884
  12 C :   -0.070265
  13 H :    0.024224
  14 H :    0.033157
  15 H :    0.024213
  16 S :    0.397162
  17 C :   -0.166427
  18 C :   -0.071750
  19 C :   -0.059577
  20 C :   -0.203516
  21 H :    0.035591
  22 C :   -0.040275
  23 H :    0.051245
  24 H :    0.031421
  25 C :   -0.052291
  26 H :    0.026787
  27 H :    0.029806
  28 C :   -0.075443
  29 H :    0.032294
  30 H :    0.037364
  31 H :    0.015085
  32 H :    0.018521
  33 H :    0.020307

  Mayer bond orders larger than 0.100000
B(  0-S ,  1-C ) :   1.1124 B(  0-S ,  4-C ) :   1.1308 B(  1-C ,  2-C ) :   1.6486
B(  1-C , 32-H ) :   0.9704 B(  2-C ,  3-C ) :   1.1881 B(  2-C ,  6-C ) :   1.0121
B(  3-C ,  4-C ) :   1.6171 B(  3-C ,  5-H ) :   0.9939 B(  4-C , 20-C ) :   1.0350
B(  6-C ,  7-H ) :   0.9373 B(  6-C ,  8-H ) :   0.9453 B(  6-C ,  9-C ) :   1.0644
B(  9-C , 10-H ) :   0.9583 B(  9-C , 11-H ) :   0.9529 B(  9-C , 12-C ) :   1.0778
B( 12-C , 13-H ) :   0.9715 B( 12-C , 14-H ) :   0.9753 B( 12-C , 15-H ) :   0.9687
B( 16-S , 17-C ) :   1.1611 B( 16-S , 20-C ) :   1.1463 B( 17-C , 18-C ) :   1.5744
B( 17-C , 20-C ) :   0.1047 B( 17-C , 33-H ) :   0.9816 B( 18-C , 19-C ) :   1.2463
B( 18-C , 21-H ) :   0.9852 B( 19-C , 20-C ) :   1.5767 B( 19-C , 22-C ) :   1.0175
B( 22-C , 23-H ) :   0.9196 B( 22-C , 24-H ) :   0.9459 B( 22-C , 25-C ) :   1.0837
B( 25-C , 26-H ) :   0.9477 B( 25-C , 27-H ) :   0.9485 B( 25-C , 28-C ) :   1.0810
B( 28-C , 29-H ) :   0.9740 B( 28-C , 30-H ) :   0.9700 B( 28-C , 31-H ) :   0.9698

Dispersion correction           -0.014429599
FINAL SINGLE POINT ENERGY     -1339.869220984866

DIPOLE MOMENT
-------------
                                X             Y             Z
Electronic contribution:    -15.55669      20.30641      14.14502
Nuclear contribution   :     16.16230     -20.62745     -14.51176
                        -----------------------------------------
Total Dipole Moment    :      0.60561      -0.32103      -0.36675
                        -----------------------------------------
Magnitude (a.u.)       :      0.77738
Magnitude (Debye)      :      1.97595

Rotational constants in cm-1:     0.017733     0.009401     0.007024
Rotational constants in MHz :   531.623120   281.837335   210.561965

                             ****ORCA TERMINATED NORMALLY****
TOTAL RUN TIME: 0 days 0 hours 0 minutes 30 seconds 718 msec
