                         Program Version 4.2.1 -  RELEASE  -
|  1> ! wB97X-D3 SP def2-SVP
|  2> %pal
|  3> nprocs 16
|  4> end
|  5>
|  6> * xyz 0 1
|  7> S 	 50.671 	 5.51784 	 83.2422
|  8> C 	 49.1862 	 6.20995 	 83.809
|  9> C 	 48.1866 	 6.05562 	 82.8559
| 10> C 	 48.6038 	 5.34794 	 81.7039
| 11> C 	 49.968 	 5.08284 	 81.6988
| 12> H 	 47.976 	 5.14971 	 80.813
| 13> C 	 46.8085 	 6.58598 	 83.0045
| 14> H 	 46.7071 	 7.29551 	 82.2029
| 15> H 	 46.7614 	 7.1326 	 83.9392
| 16> C 	 45.6403 	 5.62205 	 83.0425
| 17> H 	 44.6958 	 6.17245 	 83.1542
| 18> H 	 45.6049 	 5.08626 	 82.1288
| 19> C 	 45.7157 	 4.55063 	 84.1728
| 20> H 	 44.7371 	 3.98155 	 84.2988
| 21> H 	 46.5613 	 3.82914 	 84.0604
| 22> H 	 45.8493 	 5.12111 	 85.0832
| 23> S 	 51.6423 	 5.90629 	 79.7877
| 24> C 	 52.3471 	 4.74849 	 78.6667
| 25> C 	 51.7865 	 3.4949 	 78.851
| 26> C 	 50.8544 	 3.41069 	 79.957
| 27> C 	 50.6682 	 4.62379 	 80.5606
| 28> H 	 52.1277 	 2.72561 	 78.1831
| 29> C 	 50.2288 	 2.1015 	 80.4205
| 30> H 	 50.3689 	 1.44396 	 79.5419
| 31> H 	 49.2058 	 2.15664 	 80.5949
| 32> C 	 51.0944 	 1.54009 	 81.5674
| 33> H 	 51.0487 	 2.15973 	 82.4485
| 34> H 	 52.144 	 1.53805 	 81.2077
| 35> C 	 50.996 	 0.0320774 	 81.876
| 36> H 	 51.8203 	 -0.310676 	 82.4267
| 37> H 	 51.014 	 -0.713815 	 81.0391
| 38> H 	 50.1281 	 -0.131408 	 82.5371
| 39> H 	 49.0639 	 6.72102 	 84.7462
| 40> H 	 53.0747 	 4.85166 	 77.9063
| 41> *
| 42>
| 43>                          ****END OF INPUT****

CARTESIAN COORDINATES (ANGSTROEM)
---------------------------------
  S     50.671000    5.517840   83.242200
  C     49.186200    6.209950   83.809000
  C     48.186600    6.055620   82.855900
  C     48.603800    5.347940   81.703900
  C     49.968000    5.082840   81.698800
  H     47.976000    5.149710   80.813000
  C     46.808500    6.585980   83.004500
  H     46.707100    7.295510   82.202900
  H     46.761400    7.132600   83.939200
  C     45.640300    5.622050   83.042500
  H     44.695800    6.172450   83.154200
  H     45.604900    5.086260   82.128800
  C     45.715700    4.550630   84.172800
  H     44.737100    3.981550   84.298800
  H     46.561300    3.829140   84.060400
  H     45.849300    5.121110   85.083200
  S     51.642300    5.906290   79.787700
  C     52.347100    4.748490   78.666700
  C     51.786500    3.494900   78.851000
  C     50.854400    3.410690   79.957000
  C     50.668200    4.623790   80.560600
  H     52.127700    2.725610   78.183100
  C     50.228800    2.101500   80.420500
  H     50.368900    1.443960   79.541900
  H     49.205800    2.156640   80.594900
  C     51.094400    1.540090   81.567400
  H     51.048700    2.159730   82.448500
  H     52.144000    1.538050   81.207700
  C     50.996000    0.032077   81.876000
  H     51.820300   -0.310676   82.426700
  H     51.014000   -0.713815   81.039100
  H     50.128100   -0.131408   82.537100
  H     49.063900    6.721020   84.746200
  H     53.074700    4.851660   77.906300

 Total Charge           Charge          ....    0
 Multiplicity           Mult            ....    1
 Number of Electrons    NEL             ....  134
 Basis Dimension        Dim             ....  322

ORBITAL ENERGIES
----------------

  NO   OCC          E(Eh)            E(eV)
   0   2.0000     -88.968592     -2420.9585
   1   2.0000     -88.961934     -2420.7773
   2   2.0000     -10.326003      -280.9848
   3   2.0000     -10.321000      -280.8487
   4   2.0000     -10.314696      -280.6771
   5   2.0000     -10.313563      -280.6463
   6   2.0000     -10.305052      -280.4147
   7   2.0000     -10.297523      -280.2098
   8   2.0000     -10.295126      -280.1446
   9   2.0000     -10.292655      -280.0774
  10   2.0000     -10.289425      -279.9895
  11   2.0000     -10.285635      -279.8864
  12   2.0000     -10.285193      -279.8743
  13   2.0000     -10.284598      -279.8581
  14   2.0000     -10.282920      -279.8125
  15   2.0000     -10.275058      -279.5985
  16   2.0000      -8.083229      -219.9558
  17   2.0000      -8.076108      -219.7621
  18   2.0000      -6.041640      -164.4014
  19   2.0000      -6.037661      -164.2931
  20   2.0000      -6.034745      -164.2138
  21   2.0000      -6.034181      -164.1984
  22   2.0000      -6.030677      -164.1031
  23   2.0000      -6.026765      -163.9966
  24   2.0000      -1.008234       -27.4354
  25   2.0000      -0.982034       -26.7225
  26   2.0000      -0.915491       -24.9118
  27   2.0000      -0.905805       -24.6482
  28   2.0000      -0.873288       -23.7634
  29   2.0000      -0.848062       -23.0769
  30   2.0000      -0.844951       -22.9923
  31   2.0000      -0.813960       -22.1490
  32   2.0000      -0.783299       -21.3146
  33   2.0000      -0.772728       -21.0270
  34   2.0000      -0.713463       -19.4143
  35   2.0000      -0.696237       -18.9456
  36   2.0000      -0.694325       -18.8935
  37   2.0000      -0.662360       -18.0237
  38   2.0000      -0.640646       -17.4329
  39   2.0000      -0.622284       -16.9332
  40   2.0000      -0.592577       -16.1248
  41   2.0000      -0.568215       -15.4619
  42   2.0000      -0.562741       -15.3130
  43   2.0000      -0.554433       -15.0869
  44   2.0000      -0.543104       -14.7786
  45   2.0000      -0.520753       -14.1704
  46   2.0000      -0.518682       -14.1141
  47   2.0000      -0.514008       -13.9869
  48   2.0000      -0.508110       -13.8264
  49   2.0000      -0.501774       -13.6540
  50   2.0000      -0.489381       -13.3167
  51   2.0000      -0.476239       -12.9591
  52   2.0000      -0.467478       -12.7207
  53   2.0000      -0.465169       -12.6579
  54   2.0000      -0.461778       -12.5656
  55   2.0000      -0.449318       -12.2266
  56   2.0000      -0.444322       -12.0906
  57   2.0000      -0.438625       -11.9356
  58   2.0000      -0.429783       -11.6950
  59   2.0000      -0.421851       -11.4792
  60   2.0000      -0.419911       -11.4263
  61   2.0000      -0.414879       -11.2894
  62   2.0000      -0.405488       -11.0339
  63   2.0000      -0.338621        -9.2143
  64   2.0000      -0.328824        -8.9477
  65   2.0000      -0.322507        -8.7758
  66   2.0000      -0.304943        -8.2979
  67   0.0000       0.037368         1.0168
  68   0.0000       0.058224         1.5843
  69   0.0000       0.116383         3.1670
  70   0.0000       0.122191         3.3250
  71   0.0000       0.129500         3.5239

MULLIKEN ATOMIC CHARGES
-----------------------
   0 S :    0.132661
   1 C :   -0.123479
   2 C :   -0.094702
   3 C :    0.033802
   4 C :   -0.171846
   5 H :    0.030454
   6 C :    0.090331
   7 H :    0.034905
   8 H :    0.003397
   9 C :   -0.057352
  10 H :    0.035024
  11 H :    0.017145
  12 C :   -0.088563
  13 H :    0.046018
  14 H :    0.054654
  15 H :    0.019321
  16 S :    0.104597
  17 C :   -0.060770
  18 C :   -0.064062
  19 C :   -0.025852
  20 C :   -0.204212
  21 H :    0.013363
  22 C :    0.151943
  23 H :    0.009255
  24 H :    0.017912
  25 C :   -0.086593
  26 H :    0.035530
  27 H :    0.028150
  28 C :   -0.045062
  29 H :    0.018491
  30 H :    0.032603
  31 H :    0.029794
  32 H :    0.045930
  33 H :    0.037215
Sum of atomic charges:   -0.0000000

LOEWDIN ATOMIC CHARGES
----------------------
   0 S :    0.419364
   1 C :   -0.202319
   2 C :   -0.066768
   3 C :   -0.057344
   4 C :   -0.208870
   5 H :    0.039270
   6 C :   -0.032571
   7 H :    0.034523
   8 H :    0.026017
   9 C :   -0.038248
  10 H :    0.029277
  11 H :    0.013931
  12 C :   -0.071947
  13 H :    0.033765
  14 H :    0.031153
  15 H :    0.018524
  16 S :    0.387946
  17 C :   -0.176150
  18 C :   -0.074233
  19 C :   -0.046198
  20 C :   -0.191106
  21 H :    0.028326
  22 C :   -0.019418
  23 H :    0.033607
  24 H :    0.019684
  25 C :   -0.037893
  26 H :    0.023124
  27 H :    0.031515
  28 C :   -0.073175
  29 H :    0.019154
  30 H :    0.030197
  31 H :    0.023957
  32 H :    0.027761
  33 H :    0.025145

  Mayer bond orders larger than 0.100000
B(  0-S ,  1-C ) :   1.1428 B(  0-S ,  4-C ) :   1.1548 B(  1-C ,  2-C ) :   1.5859
B(  1-C , 32-H ) :   0.9697 B(  2-C ,  3-C ) :   1.2528 B(  2-C ,  6-C ) :   1.0299
B(  3-C ,  4-C ) :   1.5571 B(  3-C ,  5-H ) :   0.9882 B(  4-C , 20-C ) :   1.0553
B(  6-C ,  7-H ) :   0.9324 B(  6-C ,  8-H ) :   0.9362 B(  6-C ,  9-C ) :   1.0786
B(  9-C , 10-H ) :   0.9555 B(  9-C , 11-H ) :   0.9552 B(  9-C , 12-C ) :   1.0669
B( 12-C , 13-H ) :   0.9756 B( 12-C , 14-H ) :   0.9745 B( 12-C , 15-H ) :   0.9778
B( 16-S , 17-C ) :   1.1380 B( 16-S , 20-C ) :   1.1218 B( 17-C , 18-C ) :   1.6583
B( 17-C , 33-H ) :   0.9673 B( 18-C , 19-C ) :   1.2038 B( 18-C , 21-H ) :   0.9869
B( 19-C , 20-C ) :   1.6333 B( 19-C , 22-C ) :   1.0438 B( 22-C , 23-H ) :   0.9260
B( 22-C , 24-H ) :   0.9346 B( 22-C , 25-C ) :   1.0569 B( 25-C , 26-H ) :   0.9582
B( 25-C , 27-H ) :   0.9585 B( 25-C , 28-C ) :   1.0783 B( 28-C , 29-H ) :   0.9759
B( 28-C , 30-H ) :   0.9730 B( 28-C , 31-H ) :   0.9739

Dispersion correction           -0.014540737
FINAL SINGLE POINT ENERGY     -1339.878377533843

DIPOLE MOMENT
-------------
                                X             Y             Z
Electronic contribution:     16.69368      16.73011      -7.14166
Nuclear contribution   :    -17.03754     -17.00792       7.08238
                        -----------------------------------------
Total Dipole Moment    :     -0.34386      -0.27780      -0.05928
                        -----------------------------------------
Magnitude (a.u.)       :      0.44601
Magnitude (Debye)      :      1.13367

Rotational constants in cm-1:     0.018254     0.008840     0.007225
Rotational constants in MHz :   547.249247   265.017092   216.600945

                             ****ORCA TERMINATED NORMALLY****
TOTAL RUN TIME: 0 days 0 hours 0 minutes 28 seconds 400 msec
