                         Program Version 4.2.1 -  RELEASE  -
|  1> ! wB97X-D3 SP def2-SVP
|  2> %pal
|  3> nprocs 16
|  4> end
|  5>
|  6> * xyz 0 1
|  7> S 	 8.95864 	 24.6739 	 39.8618
|  8> C 	 7.51798 	 24.2508 	 40.7347
|  9> C 	 6.4334 	 25.0272 	 40.3893
| 10> C 	 6.80351 	 26.2002 	 39.681
| 11> C 	 8.1727 	 26.1947 	 39.4563
| 12> H 	 6.14646 	 27.0548 	 39.3497
| 13> C 	 5.07255 	 24.6457 	 40.7509
| 14> H 	 5.27307 	 23.9112 	 41.5613
| 15> H 	 4.71883 	 24.0852 	 39.8696
| 16> C 	 4.24052 	 25.7845 	 41.4
| 17> H 	 4.76839 	 26.1885 	 42.2146
| 18> H 	 4.10289 	 26.7022 	 40.7705
| 19> C 	 2.97551 	 25.2107 	 42.0717
| 20> H 	 2.15994 	 25.2112 	 41.3608
| 21> H 	 3.06754 	 24.1848 	 42.3356
| 22> H 	 2.75136 	 25.9475 	 42.8365
| 23> S 	 10.1941 	 28.1655 	 39.5852
| 24> C 	 10.1981 	 29.2783 	 38.2403
| 25> C 	 9.45436 	 28.8567 	 37.1901
| 26> C 	 8.69941 	 27.6619 	 37.4838
| 27> C 	 8.90059 	 27.2609 	 38.753
| 28> H 	 9.43664 	 29.5287 	 36.3074
| 29> C 	 7.88269 	 26.9789 	 36.3865
| 30> H 	 7.34713 	 26.1366 	 36.7369
| 31> H 	 8.60331 	 26.5894 	 35.699
| 32> C 	 7.02292 	 27.9575 	 35.5875
| 33> H 	 7.60072 	 28.7711 	 35.2682
| 34> H 	 6.19199 	 28.2344 	 36.2015
| 35> C 	 6.33493 	 27.4008 	 34.3505
| 36> H 	 5.64581 	 26.5727 	 34.6005
| 37> H 	 7.10044 	 26.9659 	 33.7441
| 38> H 	 5.787 	 28.0909 	 33.7382
| 39> H 	 7.45767 	 23.2549 	 41.162
| 40> H 	 10.5731 	 30.357 	 38.3146
| 41> *
| 42>
| 43>                          ****END OF INPUT****

CARTESIAN COORDINATES (ANGSTROEM)
---------------------------------
  S      8.958640   24.673900   39.861800
  C      7.517980   24.250800   40.734700
  C      6.433400   25.027200   40.389300
  C      6.803510   26.200200   39.681000
  C      8.172700   26.194700   39.456300
  H      6.146460   27.054800   39.349700
  C      5.072550   24.645700   40.750900
  H      5.273070   23.911200   41.561300
  H      4.718830   24.085200   39.869600
  C      4.240520   25.784500   41.400000
  H      4.768390   26.188500   42.214600
  H      4.102890   26.702200   40.770500
  C      2.975510   25.210700   42.071700
  H      2.159940   25.211200   41.360800
  H      3.067540   24.184800   42.335600
  H      2.751360   25.947500   42.836500
  S     10.194100   28.165500   39.585200
  C     10.198100   29.278300   38.240300
  C      9.454360   28.856700   37.190100
  C      8.699410   27.661900   37.483800
  C      8.900590   27.260900   38.753000
  H      9.436640   29.528700   36.307400
  C      7.882690   26.978900   36.386500
  H      7.347130   26.136600   36.736900
  H      8.603310   26.589400   35.699000
  C      7.022920   27.957500   35.587500
  H      7.600720   28.771100   35.268200
  H      6.191990   28.234400   36.201500
  C      6.334930   27.400800   34.350500
  H      5.645810   26.572700   34.600500
  H      7.100440   26.965900   33.744100
  H      5.787000   28.090900   33.738200
  H      7.457670   23.254900   41.162000
  H     10.573100   30.357000   38.314600

 Total Charge           Charge          ....    0
 Multiplicity           Mult            ....    1
 Number of Electrons    NEL             ....  134
 Basis Dimension        Dim             ....  322

ORBITAL ENERGIES
----------------

  NO   OCC          E(Eh)            E(eV)
   0   2.0000     -88.963399     -2420.8172
   1   2.0000     -88.961302     -2420.7601
   2   2.0000     -10.326484      -280.9979
   3   2.0000     -10.320099      -280.8242
   4   2.0000     -10.316990      -280.7396
   5   2.0000     -10.304021      -280.3867
   6   2.0000     -10.301537      -280.3191
   7   2.0000     -10.296502      -280.1821
   8   2.0000     -10.293306      -280.0951
   9   2.0000     -10.292326      -280.0684
  10   2.0000     -10.291131      -280.0359
  11   2.0000     -10.287281      -279.9311
  12   2.0000     -10.286758      -279.9169
  13   2.0000     -10.277930      -279.6767
  14   2.0000     -10.274043      -279.5709
  15   2.0000     -10.273521      -279.5567
  16   2.0000      -8.078434      -219.8254
  17   2.0000      -8.076060      -219.7608
  18   2.0000      -6.036682      -164.2665
  19   2.0000      -6.034612      -164.2101
  20   2.0000      -6.033284      -164.1740
  21   2.0000      -6.030797      -164.1063
  22   2.0000      -6.029096      -164.0600
  23   2.0000      -6.026537      -163.9904
  24   2.0000      -1.006182       -27.3796
  25   2.0000      -0.985827       -26.8257
  26   2.0000      -0.914475       -24.8841
  27   2.0000      -0.913447       -24.8561
  28   2.0000      -0.868136       -23.6232
  29   2.0000      -0.854067       -23.2403
  30   2.0000      -0.847435       -23.0599
  31   2.0000      -0.816224       -22.2106
  32   2.0000      -0.785556       -21.3761
  33   2.0000      -0.766233       -20.8503
  34   2.0000      -0.711927       -19.3725
  35   2.0000      -0.702004       -19.1025
  36   2.0000      -0.688160       -18.7258
  37   2.0000      -0.650615       -17.7041
  38   2.0000      -0.637496       -17.3471
  39   2.0000      -0.616829       -16.7848
  40   2.0000      -0.596952       -16.2439
  41   2.0000      -0.575313       -15.6551
  42   2.0000      -0.564649       -15.3649
  43   2.0000      -0.560421       -15.2498
  44   2.0000      -0.537314       -14.6211
  45   2.0000      -0.527875       -14.3642
  46   2.0000      -0.513704       -13.9786
  47   2.0000      -0.508967       -13.8497
  48   2.0000      -0.501782       -13.6542
  49   2.0000      -0.498690       -13.5700
  50   2.0000      -0.483513       -13.1571
  51   2.0000      -0.480696       -13.0804
  52   2.0000      -0.472783       -12.8651
  53   2.0000      -0.469355       -12.7718
  54   2.0000      -0.457349       -12.4451
  55   2.0000      -0.449129       -12.2214
  56   2.0000      -0.444123       -12.0852
  57   2.0000      -0.438501       -11.9322
  58   2.0000      -0.433150       -11.7866
  59   2.0000      -0.427488       -11.6325
  60   2.0000      -0.425684       -11.5834
  61   2.0000      -0.415103       -11.2955
  62   2.0000      -0.409332       -11.1385
  63   2.0000      -0.338461        -9.2100
  64   2.0000      -0.328922        -8.9504
  65   2.0000      -0.325982        -8.8704
  66   2.0000      -0.296352        -8.0641
  67   0.0000       0.039244         1.0679
  68   0.0000       0.060562         1.6480
  69   0.0000       0.109337         2.9752
  70   0.0000       0.115137         3.1330
  71   0.0000       0.136038         3.7018

MULLIKEN ATOMIC CHARGES
-----------------------
   0 S :    0.109875
   1 C :   -0.121937
   2 C :   -0.117719
   3 C :    0.012284
   4 C :   -0.171846
   5 H :    0.041374
   6 C :    0.074149
   7 H :    0.020198
   8 H :    0.054394
   9 C :   -0.101262
  10 H :    0.019566
  11 H :    0.038307
  12 C :   -0.008562
  13 H :    0.020724
  14 H :    0.027951
  15 H :    0.036164
  16 S :    0.107678
  17 C :   -0.124289
  18 C :   -0.057183
  19 C :    0.003417
  20 C :   -0.200197
  21 H :    0.035184
  22 C :    0.135108
  23 H :    0.012179
  24 H :    0.021725
  25 C :   -0.079615
  26 H :    0.021702
  27 H :    0.023410
  28 C :   -0.033565
  29 H :    0.025448
  30 H :    0.011599
  31 H :    0.034000
  32 H :    0.046045
  33 H :    0.083694
Sum of atomic charges:   -0.0000000

LOEWDIN ATOMIC CHARGES
----------------------
   0 S :    0.400583
   1 C :   -0.212309
   2 C :   -0.065718
   3 C :   -0.067557
   4 C :   -0.180452
   5 H :    0.045235
   6 C :   -0.038809
   7 H :    0.037566
   8 H :    0.040348
   9 C :   -0.041125
  10 H :    0.021351
  11 H :    0.027295
  12 C :   -0.057742
  13 H :    0.022651
  14 H :    0.022670
  15 H :    0.029583
  16 S :    0.378555
  17 C :   -0.192781
  18 C :   -0.081091
  19 C :   -0.048042
  20 C :   -0.194967
  21 H :    0.037762
  22 C :   -0.017253
  23 H :    0.023692
  24 H :    0.032253
  25 C :   -0.034523
  26 H :    0.015897
  27 H :    0.022149
  28 C :   -0.062185
  29 H :    0.026116
  30 H :    0.017648
  31 H :    0.024392
  32 H :    0.021871
  33 H :    0.046936

  Mayer bond orders larger than 0.100000
B(  0-S ,  1-C ) :   1.1234 B(  0-S ,  4-C ) :   1.1747 B(  1-C ,  2-C ) :   1.6270
B(  1-C , 32-H ) :   0.9632 B(  2-C ,  3-C ) :   1.2205 B(  2-C ,  6-C ) :   1.0267
B(  3-C ,  4-C ) :   1.5792 B(  3-C ,  5-H ) :   0.9906 B(  4-C , 20-C ) :   1.0187
B(  6-C ,  7-H ) :   0.9373 B(  6-C ,  8-H ) :   0.9249 B(  6-C ,  9-C ) :   1.0613
B(  9-C , 10-H ) :   0.9621 B(  9-C , 11-H ) :   0.9540 B(  9-C , 12-C ) :   1.0749
B( 12-C , 13-H ) :   0.9753 B( 12-C , 14-H ) :   0.9735 B( 12-C , 15-H ) :   0.9799
B( 16-S , 17-C ) :   1.1340 B( 16-S , 20-C ) :   1.1108 B( 17-C , 18-C ) :   1.6881
B( 17-C , 33-H ) :   0.9500 B( 18-C , 19-C ) :   1.1668 B( 18-C , 21-H ) :   0.9787
B( 19-C , 20-C ) :   1.6704 B( 19-C , 22-C ) :   1.0386 B( 22-C , 23-H ) :   0.9286
B( 22-C , 24-H ) :   0.9277 B( 22-C , 25-C ) :   1.0644 B( 25-C , 26-H ) :   0.9544
B( 25-C , 27-H ) :   0.9562 B( 25-C , 28-C ) :   1.0937 B( 28-C , 29-H ) :   0.9732
B( 28-C , 30-H ) :   0.9718 B( 28-C , 31-H ) :   0.9745

Dispersion correction           -0.013776310
FINAL SINGLE POINT ENERGY     -1339.856526611356

DIPOLE MOMENT
-------------
                                X             Y             Z
Electronic contribution:     26.99257       0.43230       8.56563
Nuclear contribution   :    -27.66122      -0.34363      -8.95723
                        -----------------------------------------
Total Dipole Moment    :     -0.66865       0.08867      -0.39160
                        -----------------------------------------
Magnitude (a.u.)       :      0.77994
Magnitude (Debye)      :      1.98245

Rotational constants in cm-1:     0.016582     0.008335     0.006687
Rotational constants in MHz :   497.101032   249.876724   200.478419

                             ****ORCA TERMINATED NORMALLY****
TOTAL RUN TIME: 0 days 0 hours 0 minutes 32 seconds 183 msec
