                         Program Version 4.2.1 -  RELEASE  -
|  1> ! wB97X-D3 SP def2-SVP
|  2> %pal
|  3> nprocs 16
|  4> end
|  5>
|  6> * xyz 0 1
|  7> S 	 48.5145 	 20.9198 	 87.9213
|  8> C 	 48.0394 	 22.2854 	 88.9548
|  9> C 	 48.5692 	 23.5272 	 88.6313
| 10> C 	 49.4726 	 23.3534 	 87.522
| 11> C 	 49.4933 	 22.0456 	 87.0238
| 12> H 	 50.1404 	 24.0324 	 86.97
| 13> C 	 48.6191 	 24.7482 	 89.5893
| 14> H 	 47.5706 	 25.1925 	 89.6041
| 15> H 	 49.1524 	 25.573 	 89.1086
| 16> C 	 49.1275 	 24.5441 	 90.9951
| 17> H 	 48.9719 	 25.4873 	 91.4547
| 18> H 	 48.4952 	 23.875 	 91.5719
| 19> C 	 50.632 	 24.1641 	 91.027
| 20> H 	 51.0371 	 23.5306 	 90.2182
| 21> H 	 51.1839 	 25.079 	 91.1225
| 22> H 	 50.9441 	 23.6983 	 91.9736
| 23> S 	 49.1059 	 20.7258 	 84.72
| 24> C 	 50.3369 	 20.5982 	 83.5096
| 25> C 	 51.5296 	 21.1611 	 83.879
| 26> C 	 51.4014 	 21.8008 	 85.1814
| 27> C 	 50.1405 	 21.5944 	 85.7841
| 28> H 	 52.3364 	 21.0598 	 83.2686
| 29> C 	 52.5366 	 22.5941 	 85.8226
| 30> H 	 52.2321 	 23.3354 	 86.582
| 31> H 	 53.0325 	 23.1808 	 85.0555
| 32> C 	 53.5735 	 21.6451 	 86.5453
| 33> H 	 54.0848 	 20.8592 	 85.8403
| 34> H 	 53.0969 	 20.9795 	 87.3125
| 35> C 	 54.5866 	 22.4338 	 87.3657
| 36> H 	 55.1617 	 21.6666 	 87.9437
| 37> H 	 54.1778 	 23.1753 	 88.0773
| 38> H 	 55.2724 	 22.9716 	 86.6507
| 39> H 	 47.1481 	 22.257 	 89.6869
| 40> H 	 50.1 	 20.2301 	 82.5443
| 41> *
| 42>
| 43>                          ****END OF INPUT****

CARTESIAN COORDINATES (ANGSTROEM)
---------------------------------
  S     48.514500   20.919800   87.921300
  C     48.039400   22.285400   88.954800
  C     48.569200   23.527200   88.631300
  C     49.472600   23.353400   87.522000
  C     49.493300   22.045600   87.023800
  H     50.140400   24.032400   86.970000
  C     48.619100   24.748200   89.589300
  H     47.570600   25.192500   89.604100
  H     49.152400   25.573000   89.108600
  C     49.127500   24.544100   90.995100
  H     48.971900   25.487300   91.454700
  H     48.495200   23.875000   91.571900
  C     50.632000   24.164100   91.027000
  H     51.037100   23.530600   90.218200
  H     51.183900   25.079000   91.122500
  H     50.944100   23.698300   91.973600
  S     49.105900   20.725800   84.720000
  C     50.336900   20.598200   83.509600
  C     51.529600   21.161100   83.879000
  C     51.401400   21.800800   85.181400
  C     50.140500   21.594400   85.784100
  H     52.336400   21.059800   83.268600
  C     52.536600   22.594100   85.822600
  H     52.232100   23.335400   86.582000
  H     53.032500   23.180800   85.055500
  C     53.573500   21.645100   86.545300
  H     54.084800   20.859200   85.840300
  H     53.096900   20.979500   87.312500
  C     54.586600   22.433800   87.365700
  H     55.161700   21.666600   87.943700
  H     54.177800   23.175300   88.077300
  H     55.272400   22.971600   86.650700
  H     47.148100   22.257000   89.686900
  H     50.100000   20.230100   82.544300

 Total Charge           Charge          ....    0
 Multiplicity           Mult            ....    1
 Number of Electrons    NEL             ....  134
 Basis Dimension        Dim             ....  322

ORBITAL ENERGIES
----------------

  NO   OCC          E(Eh)            E(eV)
   0   2.0000     -88.972445     -2421.0633
   1   2.0000     -88.961626     -2420.7689
   2   2.0000     -10.329537      -281.0810
   3   2.0000     -10.325012      -280.9579
   4   2.0000     -10.320535      -280.8360
   5   2.0000     -10.311298      -280.5847
   6   2.0000     -10.309256      -280.5291
   7   2.0000     -10.306666      -280.4586
   8   2.0000     -10.300529      -280.2916
   9   2.0000     -10.297198      -280.2010
  10   2.0000     -10.296623      -280.1854
  11   2.0000     -10.296563      -280.1837
  12   2.0000     -10.291100      -280.0351
  13   2.0000     -10.286339      -279.9055
  14   2.0000     -10.284261      -279.8490
  15   2.0000     -10.276695      -279.6431
  16   2.0000      -8.086654      -220.0490
  17   2.0000      -8.077574      -219.8020
  18   2.0000      -6.045004      -164.4929
  19   2.0000      -6.041425      -164.3955
  20   2.0000      -6.037418      -164.2865
  21   2.0000      -6.035945      -164.2464
  22   2.0000      -6.031772      -164.1329
  23   2.0000      -6.028552      -164.0452
  24   2.0000      -1.006587       -27.3906
  25   2.0000      -0.981054       -26.6958
  26   2.0000      -0.911288       -24.7974
  27   2.0000      -0.900854       -24.5135
  28   2.0000      -0.868365       -23.6294
  29   2.0000      -0.848799       -23.0970
  30   2.0000      -0.844230       -22.9727
  31   2.0000      -0.810737       -22.0613
  32   2.0000      -0.784042       -21.3349
  33   2.0000      -0.766876       -20.8678
  34   2.0000      -0.707091       -19.2409
  35   2.0000      -0.694953       -18.9106
  36   2.0000      -0.684777       -18.6337
  37   2.0000      -0.667354       -18.1596
  38   2.0000      -0.632869       -17.2212
  39   2.0000      -0.609221       -16.5777
  40   2.0000      -0.595992       -16.2178
  41   2.0000      -0.575358       -15.6563
  42   2.0000      -0.556379       -15.1398
  43   2.0000      -0.549821       -14.9614
  44   2.0000      -0.538810       -14.6618
  45   2.0000      -0.523965       -14.2578
  46   2.0000      -0.513116       -13.9626
  47   2.0000      -0.502820       -13.6824
  48   2.0000      -0.500323       -13.6145
  49   2.0000      -0.488441       -13.2912
  50   2.0000      -0.485495       -13.2110
  51   2.0000      -0.479932       -13.0596
  52   2.0000      -0.469072       -12.7641
  53   2.0000      -0.463649       -12.6165
  54   2.0000      -0.459399       -12.5009
  55   2.0000      -0.450092       -12.2476
  56   2.0000      -0.439412       -11.9570
  57   2.0000      -0.438494       -11.9320
  58   2.0000      -0.436012       -11.8645
  59   2.0000      -0.425359       -11.5746
  60   2.0000      -0.421654       -11.4738
  61   2.0000      -0.417852       -11.3703
  62   2.0000      -0.405200       -11.0261
  63   2.0000      -0.347463        -9.4550
  64   2.0000      -0.334275        -9.0961
  65   2.0000      -0.326081        -8.8731
  66   2.0000      -0.286861        -7.8059
  67   0.0000       0.030864         0.8398
  68   0.0000       0.068615         1.8671
  69   0.0000       0.102513         2.7895
  70   0.0000       0.114578         3.1178
  71   0.0000       0.131755         3.5852

MULLIKEN ATOMIC CHARGES
-----------------------
   0 S :    0.124375
   1 C :   -0.146763
   2 C :   -0.065014
   3 C :    0.017570
   4 C :   -0.162786
   5 H :    0.021432
   6 C :    0.008768
   7 H :    0.037385
   8 H :    0.020751
   9 C :   -0.009659
  10 H :    0.018291
  11 H :    0.026101
  12 C :   -0.061828
  13 H :    0.057674
  14 H :    0.019564
  15 H :    0.025115
  16 S :    0.101033
  17 C :   -0.083763
  18 C :    0.013077
  19 C :   -0.034811
  20 C :   -0.149547
  21 H :   -0.016856
  22 C :    0.068661
  23 H :    0.017371
  24 H :    0.025470
  25 C :   -0.130329
  26 H :    0.044357
  27 H :    0.039569
  28 C :   -0.068180
  29 H :    0.042405
  30 H :    0.043766
  31 H :    0.034220
  32 H :    0.076381
  33 H :    0.046200
Sum of atomic charges:   -0.0000000

LOEWDIN ATOMIC CHARGES
----------------------
   0 S :    0.403808
   1 C :   -0.203192
   2 C :   -0.066740
   3 C :   -0.067640
   4 C :   -0.197826
   5 H :    0.033733
   6 C :   -0.034784
   7 H :    0.038718
   8 H :    0.029199
   9 C :   -0.036018
  10 H :    0.024669
  11 H :    0.021898
  12 C :   -0.071842
  13 H :    0.032554
  14 H :    0.023859
  15 H :    0.028710
  16 S :    0.423134
  17 C :   -0.180321
  18 C :   -0.055807
  19 C :   -0.052233
  20 C :   -0.212823
  21 H :    0.017278
  22 C :   -0.035115
  23 H :    0.029296
  24 H :    0.029207
  25 C :   -0.052558
  26 H :    0.032580
  27 H :    0.028427
  28 C :   -0.076975
  29 H :    0.032032
  30 H :    0.026409
  31 H :    0.025731
  32 H :    0.042298
  33 H :    0.020332

  Mayer bond orders larger than 0.100000
B(  0-S ,  1-C ) :   1.1323 B(  0-S ,  4-C ) :   1.1470 B(  1-C ,  2-C ) :   1.6405
B(  1-C , 32-H ) :   0.9492 B(  2-C ,  3-C ) :   1.2137 B(  2-C ,  6-C ) :   1.0185
B(  3-C ,  4-C ) :   1.6013 B(  3-C ,  5-H ) :   0.9815 B(  4-C , 20-C ) :   1.0246
B(  6-C ,  7-H ) :   0.9320 B(  6-C ,  8-H ) :   0.9489 B(  6-C ,  9-C ) :   1.0826
B(  9-C , 10-H ) :   0.9503 B(  9-C , 11-H ) :   0.9551 B(  9-C , 12-C ) :   1.0600
B( 12-C , 13-H ) :   0.9813 B( 12-C , 14-H ) :   0.9749 B( 12-C , 15-H ) :   0.9736
B( 16-S , 17-C ) :   1.1681 B( 16-S , 20-C ) :   1.1543 B( 17-C , 18-C ) :   1.5984
B( 17-C , 33-H ) :   0.9718 B( 18-C , 19-C ) :   1.2271 B( 18-C , 21-H ) :   1.0135
B( 19-C , 20-C ) :   1.5877 B( 19-C , 22-C ) :   1.0504 B( 22-C , 23-H ) :   0.9412
B( 22-C , 24-H ) :   0.9337 B( 22-C , 25-C ) :   1.0454 B( 25-C , 26-H ) :   0.9554
B( 25-C , 27-H ) :   0.9604 B( 25-C , 28-C ) :   1.0782 B( 28-C , 29-H ) :   0.9746
B( 28-C , 30-H ) :   0.9730 B( 28-C , 31-H ) :   0.9740

Dispersion correction           -0.014398876
FINAL SINGLE POINT ENERGY     -1339.865736418194

DIPOLE MOMENT
-------------
                                X             Y             Z
Electronic contribution:    -19.35355     -15.38457     -16.25779
Nuclear contribution   :     19.70219      15.85169      16.39994
                        -----------------------------------------
Total Dipole Moment    :      0.34864       0.46712       0.14214
                        -----------------------------------------
Magnitude (a.u.)       :      0.59996
Magnitude (Debye)      :      1.52498

Rotational constants in cm-1:     0.017893     0.009503     0.006875
Rotational constants in MHz :   536.430268   284.900756   206.116829

                             ****ORCA TERMINATED NORMALLY****
TOTAL RUN TIME: 0 days 0 hours 0 minutes 30 seconds 49 msec
