                         Program Version 4.2.1 -  RELEASE  -
|  1> ! wB97X-D3 SP def2-SVP
|  2> %pal
|  3> nprocs 16
|  4> end
|  5>
|  6> * xyz 0 1
|  7> S 	 -48.242 	 60.3978 	 140.312
|  8> C 	 -47.4546 	 59.5241 	 141.584
|  9> C 	 -47.9652 	 59.7942 	 142.838
| 10> C 	 -48.9994 	 60.7905 	 142.779
| 11> C 	 -49.3201 	 61.1621 	 141.481
| 12> H 	 -49.483 	 61.142 	 143.656
| 13> C 	 -47.6749 	 59.0296 	 144.031
| 14> H 	 -47.9747 	 59.6648 	 144.886
| 15> H 	 -46.5805 	 58.9426 	 143.913
| 16> C 	 -48.43 	 57.7011 	 144.123
| 17> H 	 -49.5235 	 57.8621 	 144.301
| 18> H 	 -48.3629 	 57.2857 	 143.145
| 19> C 	 -47.8189 	 56.8528 	 145.266
| 20> H 	 -46.7753 	 56.524 	 145.035
| 21> H 	 -47.84 	 57.3952 	 146.259
| 22> H 	 -48.2526 	 55.8867 	 145.385
| 23> S 	 -49.6761 	 63.1822 	 139.652
| 24> C 	 -51.0766 	 64.1977 	 139.742
| 25> C 	 -51.9126 	 63.8675 	 140.8
| 26> C 	 -51.4282 	 62.7359 	 141.558
| 27> C 	 -50.2139 	 62.245 	 141.07
| 28> H 	 -52.8565 	 64.3764 	 140.849
| 29> C 	 -52.1228 	 62.2038 	 142.805
| 30> H 	 -51.6341 	 61.2799 	 143.09
| 31> H 	 -53.1734 	 61.8664 	 142.593
| 32> C 	 -52.26 	 63.1682 	 144.064
| 33> H 	 -52.8836 	 63.9757 	 143.612
| 34> H 	 -51.3214 	 63.5738 	 144.374
| 35> C 	 -52.992 	 62.4724 	 145.18
| 36> H 	 -52.929 	 63.2311 	 146.022
| 37> H 	 -52.559 	 61.5145 	 145.496
| 38> H 	 -54.0307 	 62.3305 	 145.007
| 39> H 	 -46.8154 	 58.6251 	 141.358
| 40> H 	 -51.2676 	 64.9307 	 138.981
| 41> *
| 42>
| 43>                          ****END OF INPUT****

CARTESIAN COORDINATES (ANGSTROEM)
---------------------------------
  S    -48.242000   60.397800  140.312000
  C    -47.454600   59.524100  141.584000
  C    -47.965200   59.794200  142.838000
  C    -48.999400   60.790500  142.779000
  C    -49.320100   61.162100  141.481000
  H    -49.483000   61.142000  143.656000
  C    -47.674900   59.029600  144.031000
  H    -47.974700   59.664800  144.886000
  H    -46.580500   58.942600  143.913000
  C    -48.430000   57.701100  144.123000
  H    -49.523500   57.862100  144.301000
  H    -48.362900   57.285700  143.145000
  C    -47.818900   56.852800  145.266000
  H    -46.775300   56.524000  145.035000
  H    -47.840000   57.395200  146.259000
  H    -48.252600   55.886700  145.385000
  S    -49.676100   63.182200  139.652000
  C    -51.076600   64.197700  139.742000
  C    -51.912600   63.867500  140.800000
  C    -51.428200   62.735900  141.558000
  C    -50.213900   62.245000  141.070000
  H    -52.856500   64.376400  140.849000
  C    -52.122800   62.203800  142.805000
  H    -51.634100   61.279900  143.090000
  H    -53.173400   61.866400  142.593000
  C    -52.260000   63.168200  144.064000
  H    -52.883600   63.975700  143.612000
  H    -51.321400   63.573800  144.374000
  C    -52.992000   62.472400  145.180000
  H    -52.929000   63.231100  146.022000
  H    -52.559000   61.514500  145.496000
  H    -54.030700   62.330500  145.007000
  H    -46.815400   58.625100  141.358000
  H    -51.267600   64.930700  138.981000

 Total Charge           Charge          ....    0
 Multiplicity           Mult            ....    1
 Number of Electrons    NEL             ....  134
 Basis Dimension        Dim             ....  322

ORBITAL ENERGIES
----------------

  NO   OCC          E(Eh)            E(eV)
   0   2.0000     -88.968094     -2420.9449
   1   2.0000     -88.962979     -2420.8057
   2   2.0000     -10.332774      -281.1691
   3   2.0000     -10.329826      -281.0889
   4   2.0000     -10.315593      -280.7015
   5   2.0000     -10.313562      -280.6463
   6   2.0000     -10.307912      -280.4926
   7   2.0000     -10.295545      -280.1560
   8   2.0000     -10.294902      -280.1385
   9   2.0000     -10.294190      -280.1191
  10   2.0000     -10.292386      -280.0701
  11   2.0000     -10.291748      -280.0527
  12   2.0000     -10.291109      -280.0353
  13   2.0000     -10.288903      -279.9753
  14   2.0000     -10.285555      -279.8842
  15   2.0000     -10.282514      -279.8014
  16   2.0000      -8.082793      -219.9440
  17   2.0000      -8.077811      -219.8084
  18   2.0000      -6.041314      -164.3925
  19   2.0000      -6.037352      -164.2847
  20   2.0000      -6.036273      -164.2553
  21   2.0000      -6.033505      -164.1800
  22   2.0000      -6.032301      -164.1473
  23   2.0000      -6.028617      -164.0470
  24   2.0000      -1.005273       -27.3549
  25   2.0000      -0.982200       -26.7270
  26   2.0000      -0.919583       -25.0231
  27   2.0000      -0.905551       -24.6413
  28   2.0000      -0.866806       -23.5870
  29   2.0000      -0.856124       -23.2963
  30   2.0000      -0.846811       -23.0429
  31   2.0000      -0.814286       -22.1579
  32   2.0000      -0.779801       -21.2195
  33   2.0000      -0.766852       -20.8671
  34   2.0000      -0.709675       -19.3113
  35   2.0000      -0.702996       -19.1295
  36   2.0000      -0.696212       -18.9449
  37   2.0000      -0.661822       -18.0091
  38   2.0000      -0.635318       -17.2879
  39   2.0000      -0.621718       -16.9178
  40   2.0000      -0.594351       -16.1731
  41   2.0000      -0.578358       -15.7379
  42   2.0000      -0.568691       -15.4749
  43   2.0000      -0.551537       -15.0081
  44   2.0000      -0.526748       -14.3335
  45   2.0000      -0.523405       -14.2426
  46   2.0000      -0.520176       -14.1547
  47   2.0000      -0.511511       -13.9189
  48   2.0000      -0.510661       -13.8958
  49   2.0000      -0.492551       -13.4030
  50   2.0000      -0.490668       -13.3518
  51   2.0000      -0.478892       -13.0313
  52   2.0000      -0.475083       -12.9277
  53   2.0000      -0.460175       -12.5220
  54   2.0000      -0.458175       -12.4676
  55   2.0000      -0.452523       -12.3138
  56   2.0000      -0.450015       -12.2455
  57   2.0000      -0.436251       -11.8710
  58   2.0000      -0.432071       -11.7573
  59   2.0000      -0.426599       -11.6083
  60   2.0000      -0.424605       -11.5541
  61   2.0000      -0.419553       -11.4166
  62   2.0000      -0.411071       -11.1858
  63   2.0000      -0.356346        -9.6967
  64   2.0000      -0.330858        -9.0031
  65   2.0000      -0.327104        -8.9010
  66   2.0000      -0.283206        -7.7064
  67   0.0000       0.023595         0.6421
  68   0.0000       0.075481         2.0539
  69   0.0000       0.102549         2.7905
  70   0.0000       0.117411         3.1949
  71   0.0000       0.127730         3.4757

MULLIKEN ATOMIC CHARGES
-----------------------
   0 S :    0.107048
   1 C :   -0.142980
   2 C :   -0.103772
   3 C :    0.029852
   4 C :   -0.123267
   5 H :   -0.001982
   6 C :    0.034282
   7 H :    0.024379
   8 H :    0.041102
   9 C :   -0.041927
  10 H :    0.036346
  11 H :    0.016867
  12 C :   -0.050888
  13 H :    0.029413
  14 H :    0.045531
  15 H :    0.025817
  16 S :    0.088512
  17 C :   -0.096544
  18 C :   -0.025647
  19 C :   -0.016668
  20 C :   -0.129876
  21 H :    0.020210
  22 C :    0.016359
  23 H :    0.007051
  24 H :    0.027445
  25 C :   -0.070491
  26 H :    0.034659
  27 H :    0.032778
  28 C :   -0.042639
  29 H :    0.040625
  30 H :    0.035509
  31 H :    0.028175
  32 H :    0.068602
  33 H :    0.056122
Sum of atomic charges:    0.0000000

LOEWDIN ATOMIC CHARGES
----------------------
   0 S :    0.405598
   1 C :   -0.216390
   2 C :   -0.067070
   3 C :   -0.058314
   4 C :   -0.182617
   5 H :    0.024015
   6 C :   -0.040297
   7 H :    0.032257
   8 H :    0.040350
   9 C :   -0.034157
  10 H :    0.031420
  11 H :    0.018838
  12 C :   -0.072445
  13 H :    0.029288
  14 H :    0.034104
  15 H :    0.019997
  16 S :    0.391989
  17 C :   -0.183645
  18 C :   -0.071796
  19 C :   -0.057435
  20 C :   -0.182518
  21 H :    0.031289
  22 C :   -0.039617
  23 H :    0.019570
  24 H :    0.033988
  25 C :   -0.035632
  26 H :    0.029967
  27 H :    0.019268
  28 C :   -0.066415
  29 H :    0.037340
  30 H :    0.025735
  31 H :    0.021097
  32 H :    0.036976
  33 H :    0.025261

  Mayer bond orders larger than 0.100000
B(  0-S ,  1-C ) :   1.1336 B(  0-S ,  4-C ) :   1.1523 B(  1-C ,  2-C ) :   1.6059
B(  1-C , 32-H ) :   0.9558 B(  2-C ,  3-C ) :   1.2543 B(  2-C ,  6-C ) :   1.0323
B(  3-C ,  4-C ) :   1.5436 B(  3-C ,  5-H ) :   0.9938 B(  4-C , 20-C ) :   1.0582
B(  6-C ,  7-H ) :   0.9317 B(  6-C ,  8-H ) :   0.9383 B(  6-C ,  9-C ) :   1.0608
B(  9-C , 10-H ) :   0.9517 B(  9-C , 11-H ) :   0.9576 B(  9-C , 12-C ) :   1.0749
B( 12-C , 13-H ) :   0.9747 B( 12-C , 14-H ) :   0.9735 B( 12-C , 15-H ) :   0.9741
B( 16-S , 17-C ) :   1.1587 B( 16-S , 20-C ) :   1.1288 B( 17-C , 18-C ) :   1.6122
B( 17-C , 33-H ) :   0.9690 B( 18-C , 19-C ) :   1.2162 B( 18-C , 21-H ) :   0.9943
B( 19-C , 20-C ) :   1.6037 B( 19-C , 22-C ) :   1.0507 B( 22-C , 23-H ) :   0.9352
B( 22-C , 24-H ) :   0.9356 B( 22-C , 25-C ) :   1.0461 B( 25-C , 26-H ) :   0.9526
B( 25-C , 27-H ) :   0.9615 B( 25-C , 28-C ) :   1.0843 B( 28-C , 29-H ) :   0.9728
B( 28-C , 30-H ) :   0.9745 B( 28-C , 31-H ) :   0.9724

Dispersion correction           -0.013679068
FINAL SINGLE POINT ENERGY     -1339.883315138764

DIPOLE MOMENT
-------------
                                X             Y             Z
Electronic contribution:      8.17512      11.25540     -28.52930
Nuclear contribution   :     -8.52375     -11.46749      29.10968
                        -----------------------------------------
Total Dipole Moment    :     -0.34863      -0.21209       0.58037
                        -----------------------------------------
Magnitude (a.u.)       :      0.70948
Magnitude (Debye)      :      1.80335

Rotational constants in cm-1:     0.017415     0.008927     0.006105
Rotational constants in MHz :   522.078083   267.610689   183.012679

                             ****ORCA TERMINATED NORMALLY****
TOTAL RUN TIME: 0 days 0 hours 0 minutes 33 seconds 915 msec
