                         Program Version 4.2.1 -  RELEASE  -
|  1> ! wB97X-D3 SP def2-SVP
|  2> %pal
|  3> nprocs 16
|  4> end
|  5>
|  6> * xyz 0 1
|  7> S 	 -0.15054 	 43.5291 	 35.6334
|  8> C 	 -0.908972 	 43.1351 	 37.178
|  9> C 	 -0.880458 	 44.2144 	 38.0579
| 10> C 	 -0.117676 	 45.3217 	 37.4767
| 11> C 	 0.247708 	 45.1629 	 36.1591
| 12> H 	 -0.0545696 	 46.3181 	 38.0455
| 13> C 	 -1.3391 	 44.206 	 39.4955
| 14> H 	 -2.26848 	 43.5689 	 39.6751
| 15> H 	 -1.59518 	 45.2106 	 39.7383
| 16> C 	 -0.212318 	 43.6604 	 40.4923
| 17> H 	 -0.141743 	 42.6034 	 40.3795
| 18> H 	 0.757423 	 44.0707 	 40.1758
| 19> C 	 -0.607877 	 44.2097 	 41.9425
| 20> H 	 -0.304259 	 45.2403 	 41.9816
| 21> H 	 -1.57523 	 44.0946 	 42.3765
| 22> H 	 0.0939285 	 43.9254 	 42.6211
| 23> S 	 2.62721 	 45.484 	 34.9631
| 24> C 	 2.89873 	 46.8466 	 33.9229
| 25> C 	 1.90723 	 47.7841 	 34.0265
| 26> C 	 0.849487 	 47.3798 	 34.8822
| 27> C 	 1.009 	 46.0913 	 35.3516
| 28> H 	 2.13664 	 48.7017 	 33.4437
| 29> C 	 -0.293257 	 48.346 	 35.1794
| 30> H 	 0.0423468 	 49.3349 	 34.8012
| 31> H 	 -0.431266 	 48.4636 	 36.3323
| 32> C 	 -1.66611 	 47.8883 	 34.5704
| 33> H 	 -2.40963 	 48.5889 	 34.9923
| 34> H 	 -1.90243 	 46.9766 	 35.1392
| 35> C 	 -1.70075 	 47.6568 	 33.1145
| 36> H 	 -2.77453 	 47.3818 	 32.94
| 37> H 	 -1.06618 	 46.9386 	 32.6426
| 38> H 	 -1.5312 	 48.6226 	 32.727
| 39> H 	 -1.35922 	 42.1658 	 37.2753
| 40> H 	 3.74887 	 46.9142 	 33.2779
| 41> *
| 42>
| 43>                          ****END OF INPUT****

CARTESIAN COORDINATES (ANGSTROEM)
---------------------------------
  S     -0.150540   43.529100   35.633400
  C     -0.908972   43.135100   37.178000
  C     -0.880458   44.214400   38.057900
  C     -0.117676   45.321700   37.476700
  C      0.247708   45.162900   36.159100
  H     -0.054570   46.318100   38.045500
  C     -1.339100   44.206000   39.495500
  H     -2.268480   43.568900   39.675100
  H     -1.595180   45.210600   39.738300
  C     -0.212318   43.660400   40.492300
  H     -0.141743   42.603400   40.379500
  H      0.757423   44.070700   40.175800
  C     -0.607877   44.209700   41.942500
  H     -0.304259   45.240300   41.981600
  H     -1.575230   44.094600   42.376500
  H      0.093928   43.925400   42.621100
  S      2.627210   45.484000   34.963100
  C      2.898730   46.846600   33.922900
  C      1.907230   47.784100   34.026500
  C      0.849487   47.379800   34.882200
  C      1.009000   46.091300   35.351600
  H      2.136640   48.701700   33.443700
  C     -0.293257   48.346000   35.179400
  H      0.042347   49.334900   34.801200
  H     -0.431266   48.463600   36.332300
  C     -1.666110   47.888300   34.570400
  H     -2.409630   48.588900   34.992300
  H     -1.902430   46.976600   35.139200
  C     -1.700750   47.656800   33.114500
  H     -2.774530   47.381800   32.940000
  H     -1.066180   46.938600   32.642600
  H     -1.531200   48.622600   32.727000
  H     -1.359220   42.165800   37.275300
  H      3.748870   46.914200   33.277900

 Total Charge           Charge          ....    0
 Multiplicity           Mult            ....    1
 Number of Electrons    NEL             ....  134
 Basis Dimension        Dim             ....  322

ORBITAL ENERGIES
----------------

  NO   OCC          E(Eh)            E(eV)
   0   2.0000     -88.963485     -2420.8195
   1   2.0000     -88.960203     -2420.7302
   2   2.0000     -10.329721      -281.0860
   3   2.0000     -10.324181      -280.9353
   4   2.0000     -10.316466      -280.7253
   5   2.0000     -10.310566      -280.5648
   6   2.0000     -10.305231      -280.4196
   7   2.0000     -10.304421      -280.3975
   8   2.0000     -10.302008      -280.3319
   9   2.0000     -10.299214      -280.2559
  10   2.0000     -10.296957      -280.1944
  11   2.0000     -10.296271      -280.1758
  12   2.0000     -10.292367      -280.0695
  13   2.0000     -10.282575      -279.8031
  14   2.0000     -10.271836      -279.5109
  15   2.0000     -10.268292      -279.4144
  16   2.0000      -8.078003      -219.8136
  17   2.0000      -8.075337      -219.7411
  18   2.0000      -6.036536      -164.2625
  19   2.0000      -6.033713      -164.1857
  20   2.0000      -6.032498      -164.1526
  21   2.0000      -6.029849      -164.0805
  22   2.0000      -6.028784      -164.0515
  23   2.0000      -6.026145      -163.9797
  24   2.0000      -1.004578       -27.3360
  25   2.0000      -0.980248       -26.6739
  26   2.0000      -0.906082       -24.6557
  27   2.0000      -0.902838       -24.5675
  28   2.0000      -0.867782       -23.6135
  29   2.0000      -0.850554       -23.1448
  30   2.0000      -0.842111       -22.9150
  31   2.0000      -0.811866       -22.0920
  32   2.0000      -0.781446       -21.2642
  33   2.0000      -0.771849       -21.0031
  34   2.0000      -0.712021       -19.3751
  35   2.0000      -0.706444       -19.2233
  36   2.0000      -0.684374       -18.6228
  37   2.0000      -0.659418       -17.9437
  38   2.0000      -0.641137       -17.4462
  39   2.0000      -0.615151       -16.7391
  40   2.0000      -0.583571       -15.8798
  41   2.0000      -0.563794       -15.3416
  42   2.0000      -0.556461       -15.1421
  43   2.0000      -0.551471       -15.0063
  44   2.0000      -0.541524       -14.7356
  45   2.0000      -0.525060       -14.2876
  46   2.0000      -0.511717       -13.9245
  47   2.0000      -0.508473       -13.8363
  48   2.0000      -0.504289       -13.7224
  49   2.0000      -0.498231       -13.5575
  50   2.0000      -0.490238       -13.3400
  51   2.0000      -0.481551       -13.1037
  52   2.0000      -0.471931       -12.8419
  53   2.0000      -0.462783       -12.5930
  54   2.0000      -0.455591       -12.3973
  55   2.0000      -0.449185       -12.2229
  56   2.0000      -0.439040       -11.9469
  57   2.0000      -0.432639       -11.7727
  58   2.0000      -0.431445       -11.7402
  59   2.0000      -0.427023       -11.6199
  60   2.0000      -0.416509       -11.3338
  61   2.0000      -0.414451       -11.2778
  62   2.0000      -0.406259       -11.0549
  63   2.0000      -0.338980        -9.2241
  64   2.0000      -0.328900        -8.9498
  65   2.0000      -0.322730        -8.7819
  66   2.0000      -0.298461        -8.1215
  67   0.0000       0.032682         0.8893
  68   0.0000       0.064443         1.7536
  69   0.0000       0.111083         3.0227
  70   0.0000       0.116019         3.1570
  71   0.0000       0.131821         3.5870

MULLIKEN ATOMIC CHARGES
-----------------------
   0 S :    0.104217
   1 C :   -0.134657
   2 C :   -0.076735
   3 C :    0.012806
   4 C :   -0.154839
   5 H :    0.042818
   6 C :    0.041068
   7 H :    0.042292
   8 H :    0.013790
   9 C :   -0.064964
  10 H :    0.030986
  11 H :    0.035618
  12 C :   -0.010521
  13 H :    0.015934
  14 H :    0.042440
  15 H :   -0.000564
  16 S :    0.100442
  17 C :   -0.090114
  18 C :   -0.069300
  19 C :    0.009191
  20 C :   -0.179495
  21 H :    0.034066
  22 C :    0.023051
  23 H :    0.018742
  24 H :    0.045197
  25 C :   -0.090714
  26 H :    0.029104
  27 H :    0.031217
  28 C :    0.000922
  29 H :    0.037040
  30 H :    0.048865
  31 H :    0.013665
  32 H :    0.051303
  33 H :    0.047126
Sum of atomic charges:    0.0000000

LOEWDIN ATOMIC CHARGES
----------------------
   0 S :    0.392819
   1 C :   -0.186287
   2 C :   -0.066644
   3 C :   -0.068435
   4 C :   -0.204438
   5 H :    0.042661
   6 C :   -0.033501
   7 H :    0.038481
   8 H :    0.021462
   9 C :   -0.019855
  10 H :    0.017655
  11 H :    0.027984
  12 C :   -0.067604
  13 H :    0.030431
  14 H :    0.025173
  15 H :    0.015084
  16 S :    0.402395
  17 C :   -0.181748
  18 C :   -0.084624
  19 C :   -0.056401
  20 C :   -0.192007
  21 H :    0.042642
  22 C :   -0.037363
  23 H :    0.024948
  24 H :    0.040050
  25 C :   -0.046641
  26 H :    0.027403
  27 H :    0.024168
  28 C :   -0.060942
  29 H :    0.038741
  30 H :    0.027664
  31 H :    0.020059
  32 H :    0.023665
  33 H :    0.023006

  Mayer bond orders larger than 0.100000
B(  0-S ,  1-C ) :   1.1403 B(  0-S ,  4-C ) :   1.1416 B(  1-C ,  2-C ) :   1.5932
B(  1-C , 32-H ) :   0.9753 B(  2-C ,  3-C ) :   1.2332 B(  2-C ,  6-C ) :   1.0428
B(  3-C ,  4-C ) :   1.5961 B(  3-C ,  5-H ) :   0.9737 B(  4-C , 20-C ) :   1.0328
B(  6-C ,  7-H ) :   0.9453 B(  6-C ,  8-H ) :   0.9423 B(  6-C ,  9-C ) :   1.0413
B(  9-C , 10-H ) :   0.9640 B(  9-C , 11-H ) :   0.9609 B(  9-C , 12-C ) :   1.0643
B( 12-C , 13-H ) :   0.9681 B( 12-C , 14-H ) :   0.9811 B( 12-C , 15-H ) :   0.9664
B( 16-S , 17-C ) :   1.1576 B( 16-S , 20-C ) :   1.1507 B( 17-C , 18-C ) :   1.6310
B( 17-C , 20-C ) :   0.1037 B( 17-C , 33-H ) :   0.9680 B( 18-C , 19-C ) :   1.2072
B( 18-C , 21-H ) :   0.9885 B( 19-C , 20-C ) :   1.6041 B( 19-C , 22-C ) :   1.0327
B( 22-C , 23-H ) :   0.9377 B( 22-C , 24-H ) :   0.9380 B( 22-C , 25-C ) :   1.0676
B( 25-C , 26-H ) :   0.9550 B( 25-C , 27-H ) :   0.9523 B( 25-C , 28-C ) :   1.0688
B( 28-C , 29-H ) :   0.9675 B( 28-C , 30-H ) :   0.9732 B( 28-C , 31-H ) :   0.9742

Dispersion correction           -0.014554192
FINAL SINGLE POINT ENERGY     -1339.859658420729

DIPOLE MOMENT
-------------
                                X             Y             Z
Electronic contribution:     13.79292      -8.84165     -14.23954
Nuclear contribution   :    -14.00735       9.19010      14.62889
                        -----------------------------------------
Total Dipole Moment    :     -0.21443       0.34845       0.38936
                        -----------------------------------------
Magnitude (a.u.)       :      0.56480
Magnitude (Debye)      :      1.43560

Rotational constants in cm-1:     0.020705     0.007654     0.007065
Rotational constants in MHz :   620.730822   229.457807   211.808771

                             ****ORCA TERMINATED NORMALLY****
TOTAL RUN TIME: 0 days 0 hours 0 minutes 34 seconds 264 msec
