                         Program Version 4.2.1 -  RELEASE  -
|  1> ! wB97X-D3 SP def2-SVP
|  2> %pal
|  3> nprocs 16
|  4> end
|  5>
|  6> * xyz 0 1
|  7> S 	 43.5503 	 8.85695 	 79.1432
|  8> C 	 43.5806 	 7.48345 	 80.2319
|  9> C 	 44.7092 	 7.53491 	 81.0468
| 10> C 	 45.4408 	 8.72822 	 80.8807
| 11> C 	 44.9855 	 9.60886 	 79.9023
| 12> H 	 46.2682 	 9.05098 	 81.5485
| 13> C 	 45.0283 	 6.49278 	 82.0562
| 14> H 	 46.1261 	 6.40444 	 82.0885
| 15> H 	 44.5495 	 5.57066 	 81.7367
| 16> C 	 44.5435 	 6.71239 	 83.4726
| 17> H 	 43.4362 	 6.75392 	 83.5178
| 18> H 	 44.8129 	 5.8461 	 84.0413
| 19> C 	 45.113 	 7.90877 	 84.2819
| 20> H 	 44.8958 	 8.90669 	 83.7559
| 21> H 	 44.7084 	 7.94167 	 85.2781
| 22> H 	 46.1866 	 7.64972 	 84.3969
| 23> S 	 46.6988 	 11.1893 	 78.455
| 24> C 	 46.654 	 12.8854 	 78.755
| 25> C 	 45.6668 	 13.2575 	 79.6654
| 26> C 	 45.095 	 12.1461 	 80.2846
| 27> C 	 45.4323 	 10.9359 	 79.6177
| 28> H 	 45.401 	 14.2761 	 79.8143
| 29> C 	 44.2383 	 12.3818 	 81.5506
| 30> H 	 43.3422 	 11.7372 	 81.4964
| 31> H 	 43.8334 	 13.4551 	 81.4899
| 32> C 	 44.8441 	 12.1308 	 82.8874
| 33> H 	 45.0962 	 11.0772 	 82.8353
| 34> H 	 44.0102 	 12.1889 	 83.6487
| 35> C 	 45.9799 	 13.0924 	 83.2782
| 36> H 	 46.7797 	 13.0563 	 82.5307
| 37> H 	 46.3489 	 12.8376 	 84.2948
| 38> H 	 45.4706 	 14.0514 	 83.3739
| 39> H 	 42.7403 	 6.80207 	 80.2594
| 40> H 	 47.2301 	 13.5017 	 78.1478
| 41> *
| 42>
| 43>                          ****END OF INPUT****

CARTESIAN COORDINATES (ANGSTROEM)
---------------------------------
  S     43.550300    8.856950   79.143200
  C     43.580600    7.483450   80.231900
  C     44.709200    7.534910   81.046800
  C     45.440800    8.728220   80.880700
  C     44.985500    9.608860   79.902300
  H     46.268200    9.050980   81.548500
  C     45.028300    6.492780   82.056200
  H     46.126100    6.404440   82.088500
  H     44.549500    5.570660   81.736700
  C     44.543500    6.712390   83.472600
  H     43.436200    6.753920   83.517800
  H     44.812900    5.846100   84.041300
  C     45.113000    7.908770   84.281900
  H     44.895800    8.906690   83.755900
  H     44.708400    7.941670   85.278100
  H     46.186600    7.649720   84.396900
  S     46.698800   11.189300   78.455000
  C     46.654000   12.885400   78.755000
  C     45.666800   13.257500   79.665400
  C     45.095000   12.146100   80.284600
  C     45.432300   10.935900   79.617700
  H     45.401000   14.276100   79.814300
  C     44.238300   12.381800   81.550600
  H     43.342200   11.737200   81.496400
  H     43.833400   13.455100   81.489900
  C     44.844100   12.130800   82.887400
  H     45.096200   11.077200   82.835300
  H     44.010200   12.188900   83.648700
  C     45.979900   13.092400   83.278200
  H     46.779700   13.056300   82.530700
  H     46.348900   12.837600   84.294800
  H     45.470600   14.051400   83.373900
  H     42.740300    6.802070   80.259400
  H     47.230100   13.501700   78.147800

 Total Charge           Charge          ....    0
 Multiplicity           Mult            ....    1
 Number of Electrons    NEL             ....  134
 Basis Dimension        Dim             ....  322

ORBITAL ENERGIES
----------------

  NO   OCC          E(Eh)            E(eV)
   0   2.0000     -88.968641     -2420.9598
   1   2.0000     -88.962398     -2420.7899
   2   2.0000     -10.327578      -281.0277
   3   2.0000     -10.324399      -280.9412
   4   2.0000     -10.316675      -280.7310
   5   2.0000     -10.312654      -280.6216
   6   2.0000     -10.305701      -280.4324
   7   2.0000     -10.298283      -280.2305
   8   2.0000     -10.295911      -280.1660
   9   2.0000     -10.294813      -280.1361
  10   2.0000     -10.290666      -280.0232
  11   2.0000     -10.290234      -280.0115
  12   2.0000     -10.285335      -279.8782
  13   2.0000     -10.284902      -279.8664
  14   2.0000     -10.284751      -279.8623
  15   2.0000     -10.279475      -279.7187
  16   2.0000      -8.084036      -219.9778
  17   2.0000      -8.076593      -219.7753
  18   2.0000      -6.042208      -164.4168
  19   2.0000      -6.038397      -164.3131
  20   2.0000      -6.035176      -164.2255
  21   2.0000      -6.035020      -164.2213
  22   2.0000      -6.031004      -164.1120
  23   2.0000      -6.027631      -164.0202
  24   2.0000      -1.006246       -27.3813
  25   2.0000      -0.984196       -26.7813
  26   2.0000      -0.913680       -24.8625
  27   2.0000      -0.911261       -24.7967
  28   2.0000      -0.870091       -23.6764
  29   2.0000      -0.851611       -23.1735
  30   2.0000      -0.843670       -22.9574
  31   2.0000      -0.811826       -22.0909
  32   2.0000      -0.785922       -21.3860
  33   2.0000      -0.771346       -20.9894
  34   2.0000      -0.707493       -19.2519
  35   2.0000      -0.695973       -18.9384
  36   2.0000      -0.684322       -18.6213
  37   2.0000      -0.665175       -18.1003
  38   2.0000      -0.641563       -17.4578
  39   2.0000      -0.613685       -16.6992
  40   2.0000      -0.593222       -16.1424
  41   2.0000      -0.575378       -15.6568
  42   2.0000      -0.558475       -15.1969
  43   2.0000      -0.550945       -14.9920
  44   2.0000      -0.547067       -14.8865
  45   2.0000      -0.539532       -14.6814
  46   2.0000      -0.513903       -13.9840
  47   2.0000      -0.511561       -13.9203
  48   2.0000      -0.504328       -13.7235
  49   2.0000      -0.495586       -13.4856
  50   2.0000      -0.485568       -13.2130
  51   2.0000      -0.481334       -13.0978
  52   2.0000      -0.477196       -12.9852
  53   2.0000      -0.463968       -12.6252
  54   2.0000      -0.461104       -12.5473
  55   2.0000      -0.449762       -12.2386
  56   2.0000      -0.439941       -11.9714
  57   2.0000      -0.436567       -11.8796
  58   2.0000      -0.431618       -11.7449
  59   2.0000      -0.420885       -11.4529
  60   2.0000      -0.415795       -11.3144
  61   2.0000      -0.413044       -11.2395
  62   2.0000      -0.410800       -11.1784
  63   2.0000      -0.338412        -9.2087
  64   2.0000      -0.329991        -8.9795
  65   2.0000      -0.313302        -8.5254
  66   2.0000      -0.307806        -8.3758
  67   0.0000       0.041212         1.1214
  68   0.0000       0.045082         1.2267
  69   0.0000       0.114065         3.1039
  70   0.0000       0.115896         3.1537
  71   0.0000       0.127952         3.4818

MULLIKEN ATOMIC CHARGES
-----------------------
   0 S :    0.102517
   1 C :   -0.139776
   2 C :   -0.076596
   3 C :    0.034402
   4 C :   -0.177053
   5 H :    0.031129
   6 C :    0.093975
   7 H :    0.026266
   8 H :    0.020812
   9 C :   -0.076091
  10 H :    0.022239
  11 H :    0.022431
  12 C :   -0.084732
  13 H :    0.060910
  14 H :    0.035160
  15 H :    0.032770
  16 S :    0.134347
  17 C :   -0.080898
  18 C :   -0.020423
  19 C :   -0.014124
  20 C :   -0.203044
  21 H :    0.014353
  22 C :    0.039689
  23 H :    0.033252
  24 H :    0.023050
  25 C :   -0.078010
  26 H :    0.021010
  27 H :    0.033832
  28 C :   -0.036353
  29 H :    0.051552
  30 H :    0.037890
  31 H :    0.025851
  32 H :    0.055207
  33 H :    0.034457
Sum of atomic charges:   -0.0000000

LOEWDIN ATOMIC CHARGES
----------------------
   0 S :    0.390701
   1 C :   -0.188656
   2 C :   -0.072313
   3 C :   -0.061571
   4 C :   -0.197054
   5 H :    0.037240
   6 C :   -0.031817
   7 H :    0.034058
   8 H :    0.035000
   9 C :   -0.042750
  10 H :    0.021646
  11 H :    0.021084
  12 C :   -0.073758
  13 H :    0.033143
  14 H :    0.024503
  15 H :    0.027079
  16 S :    0.440218
  17 C :   -0.180254
  18 C :   -0.066793
  19 C :   -0.045220
  20 C :   -0.224166
  21 H :    0.029264
  22 C :   -0.036021
  23 H :    0.034915
  24 H :    0.030971
  25 C :   -0.047865
  26 H :    0.018002
  27 H :    0.031054
  28 C :   -0.063679
  29 H :    0.028864
  30 H :    0.029851
  31 H :    0.025932
  32 H :    0.027732
  33 H :    0.010663

  Mayer bond orders larger than 0.100000
B(  0-S ,  1-C ) :   1.1600 B(  0-S ,  4-C ) :   1.1418 B(  1-C ,  2-C ) :   1.5686
B(  1-C ,  4-C ) :   0.1078 B(  1-C , 32-H ) :   0.9729 B(  2-C ,  3-C ) :   1.2610
B(  2-C ,  6-C ) :   1.0344 B(  3-C ,  4-C ) :   1.5723 B(  3-C ,  5-H ) :   0.9836
B(  4-C , 20-C ) :   1.0433 B(  6-C ,  7-H ) :   0.9339 B(  6-C ,  8-H ) :   0.9299
B(  6-C ,  9-C ) :   1.0864 B(  9-C , 10-H ) :   0.9515 B(  9-C , 11-H ) :   0.9534
B(  9-C , 12-C ) :   1.0807 B( 12-C , 13-H ) :   0.9698 B( 12-C , 14-H ) :   0.9701
B( 12-C , 15-H ) :   0.9746 B( 16-S , 17-C ) :   1.1926 B( 16-S , 20-C ) :   1.1703
B( 17-C , 18-C ) :   1.5513 B( 17-C , 20-C ) :   0.1157 B( 17-C , 33-H ) :   0.9757
B( 18-C , 19-C ) :   1.2830 B( 18-C , 21-H ) :   0.9961 B( 19-C , 20-C ) :   1.5469
B( 19-C , 22-C ) :   1.0325 B( 22-C , 23-H ) :   0.9251 B( 22-C , 24-H ) :   0.9383
B( 22-C , 25-C ) :   1.0857 B( 25-C , 26-H ) :   0.9426 B( 25-C , 27-H ) :   0.9512
B( 25-C , 28-C ) :   1.0695 B( 28-C , 29-H ) :   0.9756 B( 28-C , 30-H ) :   0.9734
B( 28-C , 31-H ) :   0.9732

Dispersion correction           -0.015896813
FINAL SINGLE POINT ENERGY     -1339.883260359690

DIPOLE MOMENT
-------------
                                X             Y             Z
Electronic contribution:      0.48353       0.20651     -28.67269
Nuclear contribution   :     -0.52628      -0.18554      29.30745
                        -----------------------------------------
Total Dipole Moment    :     -0.04274       0.02097       0.63476
                        -----------------------------------------
Magnitude (a.u.)       :      0.63654
Magnitude (Debye)      :      1.61797

Rotational constants in cm-1:     0.018178     0.010028     0.007593
Rotational constants in MHz :   544.972789   300.638368   227.641247

                             ****ORCA TERMINATED NORMALLY****
TOTAL RUN TIME: 0 days 0 hours 0 minutes 32 seconds 465 msec
