                         Program Version 4.2.1 -  RELEASE  -
|  1> ! wB97X-D3 SP def2-SVP
|  2> %pal
|  3> nprocs 16
|  4> end
|  5>
|  6> * xyz 0 1
|  7> S 	 48.6425 	 2.60142 	 82.8367
|  8> C 	 50.2722 	 2.94276 	 82.2514
|  9> C 	 51.1277 	 3.06752 	 83.3331
| 10> C 	 50.517 	 3.08597 	 84.5859
| 11> C 	 49.132 	 3.01006 	 84.4955
| 12> H 	 50.8939 	 3.21015 	 85.5947
| 13> C 	 52.6297 	 3.1794 	 83.2606
| 14> H 	 53.0029 	 2.34613 	 82.6015
| 15> H 	 53.0422 	 3.04163 	 84.2389
| 16> C 	 53.1582 	 4.55427 	 82.779
| 17> H 	 52.7335 	 4.92272 	 81.7904
| 18> H 	 52.952 	 5.31704 	 83.4774
| 19> C 	 54.6894 	 4.54107 	 82.701
| 20> H 	 55.1373 	 4.18258 	 83.5628
| 21> H 	 54.9626 	 3.93151 	 81.8443
| 22> H 	 55.0602 	 5.58498 	 82.5852
| 23> S 	 46.9168 	 1.7761 	 85.4536
| 24> C 	 46.113 	 2.26006 	 86.9625
| 25> C 	 46.8908 	 3.23292 	 87.5863
| 26> C 	 47.9863 	 3.60849 	 86.7869
| 27> C 	 48.139 	 2.94934 	 85.5688
| 28> H 	 46.5728 	 3.66576 	 88.5585
| 29> C 	 48.9352 	 4.63579 	 87.3161
| 30> H 	 49.9115 	 4.11969 	 87.3129
| 31> H 	 48.721 	 4.89932 	 88.3384
| 32> C 	 49.1382 	 5.88625 	 86.4677
| 33> H 	 48.1776 	 6.42023 	 86.298
| 34> H 	 49.3189 	 5.66855 	 85.4452
| 35> C 	 50.1283 	 6.86599 	 87.0574
| 36> H 	 51.117 	 6.45342 	 87.155
| 37> H 	 49.8299 	 7.20471 	 87.9864
| 38> H 	 50.2847 	 7.75166 	 86.3784
| 39> H 	 50.5113 	 3.04462 	 81.2311
| 40> H 	 45.1618 	 1.89851 	 87.2851
| 41> *
| 42>
| 43>                          ****END OF INPUT****

CARTESIAN COORDINATES (ANGSTROEM)
---------------------------------
  S     48.642500    2.601420   82.836700
  C     50.272200    2.942760   82.251400
  C     51.127700    3.067520   83.333100
  C     50.517000    3.085970   84.585900
  C     49.132000    3.010060   84.495500
  H     50.893900    3.210150   85.594700
  C     52.629700    3.179400   83.260600
  H     53.002900    2.346130   82.601500
  H     53.042200    3.041630   84.238900
  C     53.158200    4.554270   82.779000
  H     52.733500    4.922720   81.790400
  H     52.952000    5.317040   83.477400
  C     54.689400    4.541070   82.701000
  H     55.137300    4.182580   83.562800
  H     54.962600    3.931510   81.844300
  H     55.060200    5.584980   82.585200
  S     46.916800    1.776100   85.453600
  C     46.113000    2.260060   86.962500
  C     46.890800    3.232920   87.586300
  C     47.986300    3.608490   86.786900
  C     48.139000    2.949340   85.568800
  H     46.572800    3.665760   88.558500
  C     48.935200    4.635790   87.316100
  H     49.911500    4.119690   87.312900
  H     48.721000    4.899320   88.338400
  C     49.138200    5.886250   86.467700
  H     48.177600    6.420230   86.298000
  H     49.318900    5.668550   85.445200
  C     50.128300    6.865990   87.057400
  H     51.117000    6.453420   87.155000
  H     49.829900    7.204710   87.986400
  H     50.284700    7.751660   86.378400
  H     50.511300    3.044620   81.231100
  H     45.161800    1.898510   87.285100

 Total Charge           Charge          ....    0
 Multiplicity           Mult            ....    1
 Number of Electrons    NEL             ....  134
 Basis Dimension        Dim             ....  322

ORBITAL ENERGIES
----------------

  NO   OCC          E(Eh)            E(eV)
   0   2.0000     -88.967614     -2420.9318
   1   2.0000     -88.964158     -2420.8378
   2   2.0000     -10.334876      -281.2263
   3   2.0000     -10.324903      -280.9549
   4   2.0000     -10.318772      -280.7881
   5   2.0000     -10.314518      -280.6723
   6   2.0000     -10.301151      -280.3086
   7   2.0000     -10.299007      -280.2502
   8   2.0000     -10.297753      -280.2161
   9   2.0000     -10.295109      -280.1442
  10   2.0000     -10.293958      -280.1128
  11   2.0000     -10.287840      -279.9464
  12   2.0000     -10.287017      -279.9240
  13   2.0000     -10.277105      -279.6542
  14   2.0000     -10.273709      -279.5618
  15   2.0000     -10.271446      -279.5003
  16   2.0000      -8.081701      -219.9143
  17   2.0000      -8.079427      -219.8524
  18   2.0000      -6.040236      -164.3632
  19   2.0000      -6.037905      -164.2998
  20   2.0000      -6.036335      -164.2570
  21   2.0000      -6.033635      -164.1835
  22   2.0000      -6.032441      -164.1511
  23   2.0000      -6.030407      -164.0957
  24   2.0000      -1.011532       -27.5252
  25   2.0000      -0.987515       -26.8717
  26   2.0000      -0.912816       -24.8390
  27   2.0000      -0.910314       -24.7709
  28   2.0000      -0.873131       -23.7591
  29   2.0000      -0.854741       -23.2587
  30   2.0000      -0.849765       -23.1233
  31   2.0000      -0.818704       -22.2781
  32   2.0000      -0.778643       -21.1880
  33   2.0000      -0.769255       -20.9325
  34   2.0000      -0.711966       -19.3736
  35   2.0000      -0.702244       -19.1090
  36   2.0000      -0.694872       -18.9084
  37   2.0000      -0.669377       -18.2147
  38   2.0000      -0.648257       -17.6400
  39   2.0000      -0.618929       -16.8419
  40   2.0000      -0.595795       -16.2124
  41   2.0000      -0.574103       -15.6221
  42   2.0000      -0.566664       -15.4197
  43   2.0000      -0.560545       -15.2532
  44   2.0000      -0.529562       -14.4101
  45   2.0000      -0.524164       -14.2632
  46   2.0000      -0.520813       -14.1720
  47   2.0000      -0.513497       -13.9730
  48   2.0000      -0.508542       -13.8381
  49   2.0000      -0.502428       -13.6718
  50   2.0000      -0.496319       -13.5055
  51   2.0000      -0.485990       -13.2245
  52   2.0000      -0.479209       -13.0399
  53   2.0000      -0.468294       -12.7429
  54   2.0000      -0.460115       -12.5204
  55   2.0000      -0.449881       -12.2419
  56   2.0000      -0.446540       -12.1510
  57   2.0000      -0.435934       -11.8624
  58   2.0000      -0.431558       -11.7433
  59   2.0000      -0.426844       -11.6150
  60   2.0000      -0.416296       -11.3280
  61   2.0000      -0.414823       -11.2879
  62   2.0000      -0.407474       -11.0879
  63   2.0000      -0.354236        -9.6393
  64   2.0000      -0.335653        -9.1336
  65   2.0000      -0.326768        -8.8918
  66   2.0000      -0.283774        -7.7219
  67   0.0000       0.018198         0.4952
  68   0.0000       0.070091         1.9073
  69   0.0000       0.100447         2.7333
  70   0.0000       0.124228         3.3804
  71   0.0000       0.137635         3.7452

MULLIKEN ATOMIC CHARGES
-----------------------
   0 S :    0.098974
   1 C :   -0.104637
   2 C :   -0.048796
   3 C :    0.024994
   4 C :   -0.145719
   5 H :    0.012410
   6 C :    0.060081
   7 H :    0.041394
   8 H :    0.011487
   9 C :   -0.085122
  10 H :    0.035683
  11 H :    0.017051
  12 C :   -0.024217
  13 H :    0.012421
  14 H :    0.030317
  15 H :    0.034662
  16 S :    0.094510
  17 C :   -0.097244
  18 C :   -0.040536
  19 C :   -0.047613
  20 C :   -0.120343
  21 H :    0.035292
  22 C :    0.069430
  23 H :    0.019102
  24 H :    0.006554
  25 C :   -0.072602
  26 H :    0.019082
  27 H :    0.024961
  28 C :   -0.009767
  29 H :    0.014468
  30 H :    0.012609
  31 H :    0.035276
  32 H :    0.034765
  33 H :    0.051076
Sum of atomic charges:    0.0000000

LOEWDIN ATOMIC CHARGES
----------------------
   0 S :    0.391306
   1 C :   -0.183246
   2 C :   -0.061945
   3 C :   -0.063046
   4 C :   -0.175182
   5 H :    0.034554
   6 C :   -0.029944
   7 H :    0.036995
   8 H :    0.026343
   9 C :   -0.038278
  10 H :    0.027745
  11 H :    0.016661
  12 C :   -0.058717
  13 H :    0.011812
  14 H :    0.023963
  15 H :    0.030754
  16 S :    0.421263
  17 C :   -0.176421
  18 C :   -0.071872
  19 C :   -0.067227
  20 C :   -0.217210
  21 H :    0.041124
  22 C :   -0.030395
  23 H :    0.029465
  24 H :    0.025162
  25 C :   -0.046187
  26 H :    0.027411
  27 H :    0.020145
  28 C :   -0.057467
  29 H :    0.019374
  30 H :    0.012701
  31 H :    0.035019
  32 H :    0.020762
  33 H :    0.024579

  Mayer bond orders larger than 0.100000
B(  0-S ,  1-C ) :   1.1324 B(  0-S ,  4-C ) :   1.1575 B(  1-C ,  2-C ) :   1.5781
B(  1-C ,  4-C ) :   0.1133 B(  1-C , 32-H ) :   0.9840 B(  2-C ,  3-C ) :   1.2522
B(  2-C ,  6-C ) :   1.0226 B(  3-C ,  4-C ) :   1.5442 B(  3-C ,  5-H ) :   0.9933
B(  4-C , 20-C ) :   1.0490 B(  6-C ,  7-H ) :   0.9422 B(  6-C ,  8-H ) :   0.9385
B(  6-C ,  9-C ) :   1.0649 B(  9-C , 10-H ) :   0.9594 B(  9-C , 11-H ) :   0.9553
B(  9-C , 12-C ) :   1.0835 B( 12-C , 13-H ) :   0.9726 B( 12-C , 14-H ) :   0.9774
B( 12-C , 15-H ) :   0.9749 B( 16-S , 17-C ) :   1.1702 B( 16-S , 20-C ) :   1.1523
B( 17-C , 18-C ) :   1.5550 B( 17-C , 20-C ) :   0.1070 B( 17-C , 33-H ) :   0.9743
B( 18-C , 19-C ) :   1.2889 B( 18-C , 21-H ) :   0.9886 B( 19-C , 20-C ) :   1.5488
B( 19-C , 22-C ) :   1.0470 B( 22-C , 23-H ) :   0.9296 B( 22-C , 24-H ) :   0.9346
B( 22-C , 25-C ) :   1.0609 B( 25-C , 26-H ) :   0.9471 B( 25-C , 27-H ) :   0.9509
B( 25-C , 28-C ) :   1.0915 B( 28-C , 29-H ) :   0.9726 B( 28-C , 30-H ) :   0.9736
B( 28-C , 31-H ) :   0.9713

Dispersion correction           -0.014211298
FINAL SINGLE POINT ENERGY     -1339.875063033673

DIPOLE MOMENT
-------------
                                X             Y             Z
Electronic contribution:    -25.28677     -19.46555      -3.97751
Nuclear contribution   :     25.75685      19.82164       4.26912
                        -----------------------------------------
Total Dipole Moment    :      0.47008       0.35608       0.29161
                        -----------------------------------------
Magnitude (a.u.)       :      0.65788
Magnitude (Debye)      :      1.67219

Rotational constants in cm-1:     0.019793     0.008773     0.006541
Rotational constants in MHz :   593.378299   262.999342   196.095478

                             ****ORCA TERMINATED NORMALLY****
TOTAL RUN TIME: 0 days 0 hours 0 minutes 31 seconds 4 msec
