                         Program Version 4.2.1 -  RELEASE  -
|  1> ! wB97X-D3 SP def2-SVP
|  2> %pal
|  3> nprocs 16
|  4> end
|  5>
|  6> * xyz 0 1
|  7> S 	 -54.176 	 39.0861 	 107.894
|  8> C 	 -53.5801 	 38.3408 	 106.397
|  9> C 	 -53.1531 	 37.0352 	 106.655
| 10> C 	 -53.4628 	 36.7052 	 108.043
| 11> C 	 -54.0899 	 37.6258 	 108.802
| 12> H 	 -53.1115 	 35.7503 	 108.404
| 13> C 	 -52.3907 	 36.0471 	 105.777
| 14> H 	 -52.7774 	 36.0274 	 104.743
| 15> H 	 -52.6191 	 35.0393 	 106.173
| 16> C 	 -50.848 	 36.0888 	 105.909
| 17> H 	 -50.5145 	 37.0919 	 105.506
| 18> H 	 -50.6072 	 36.0938 	 106.983
| 19> C 	 -50.0538 	 34.9547 	 105.222
| 20> H 	 -50.4268 	 33.9608 	 105.458
| 21> H 	 -50.334 	 35.0566 	 104.16
| 22> H 	 -48.9216 	 35.0351 	 105.391
| 23> S 	 -53.4215 	 38.7321 	 111.22
| 24> C 	 -53.8178 	 37.8404 	 112.668
| 25> C 	 -54.4791 	 36.6983 	 112.448
| 26> C 	 -54.7482 	 36.5243 	 111.054
| 27> C 	 -54.2091 	 37.5098 	 110.244
| 28> H 	 -54.7344 	 36.1461 	 113.283
| 29> C 	 -55.5971 	 35.3554 	 110.558
| 30> H 	 -56.0904 	 35.4992 	 109.639
| 31> H 	 -56.4318 	 35.191 	 111.233
| 32> C 	 -54.8136 	 34.0244 	 110.669
| 33> H 	 -54.6807 	 33.6634 	 111.725
| 34> H 	 -53.7842 	 34.2947 	 110.304
| 35> C 	 -55.6679 	 32.994 	 109.862
| 36> H 	 -55.0149 	 32.0839 	 109.826
| 37> H 	 -55.7276 	 33.2155 	 108.843
| 38> H 	 -56.61 	 32.6746 	 110.361
| 39> H 	 -53.2998 	 38.9624 	 105.512
| 40> H 	 -53.6022 	 37.9717 	 113.745
| 41> *
| 42>
| 43>                          ****END OF INPUT****

CARTESIAN COORDINATES (ANGSTROEM)
---------------------------------
  S    -54.176000   39.086100  107.894000
  C    -53.580100   38.340800  106.397000
  C    -53.153100   37.035200  106.655000
  C    -53.462800   36.705200  108.043000
  C    -54.089900   37.625800  108.802000
  H    -53.111500   35.750300  108.404000
  C    -52.390700   36.047100  105.777000
  H    -52.777400   36.027400  104.743000
  H    -52.619100   35.039300  106.173000
  C    -50.848000   36.088800  105.909000
  H    -50.514500   37.091900  105.506000
  H    -50.607200   36.093800  106.983000
  C    -50.053800   34.954700  105.222000
  H    -50.426800   33.960800  105.458000
  H    -50.334000   35.056600  104.160000
  H    -48.921600   35.035100  105.391000
  S    -53.421500   38.732100  111.220000
  C    -53.817800   37.840400  112.668000
  C    -54.479100   36.698300  112.448000
  C    -54.748200   36.524300  111.054000
  C    -54.209100   37.509800  110.244000
  H    -54.734400   36.146100  113.283000
  C    -55.597100   35.355400  110.558000
  H    -56.090400   35.499200  109.639000
  H    -56.431800   35.191000  111.233000
  C    -54.813600   34.024400  110.669000
  H    -54.680700   33.663400  111.725000
  H    -53.784200   34.294700  110.304000
  C    -55.667900   32.994000  109.862000
  H    -55.014900   32.083900  109.826000
  H    -55.727600   33.215500  108.843000
  H    -56.610000   32.674600  110.361000
  H    -53.299800   38.962400  105.512000
  H    -53.602200   37.971700  113.745000

 Total Charge           Charge          ....    0
 Multiplicity           Mult            ....    1
 Number of Electrons    NEL             ....  134
 Basis Dimension        Dim             ....  322

ORBITAL ENERGIES
----------------

  NO   OCC          E(Eh)            E(eV)
   0   2.0000     -88.965794     -2420.8823
   1   2.0000     -88.965339     -2420.8700
   2   2.0000     -10.326218      -280.9907
   3   2.0000     -10.325926      -280.9827
   4   2.0000     -10.324343      -280.9397
   5   2.0000     -10.311628      -280.5937
   6   2.0000     -10.309207      -280.5278
   7   2.0000     -10.302097      -280.3343
   8   2.0000     -10.301539      -280.3191
   9   2.0000     -10.295618      -280.1580
  10   2.0000     -10.295454      -280.1535
  11   2.0000     -10.291203      -280.0379
  12   2.0000     -10.289875      -280.0017
  13   2.0000     -10.282838      -279.8103
  14   2.0000     -10.282193      -279.7927
  15   2.0000     -10.281677      -279.7787
  16   2.0000      -8.080513      -219.8819
  17   2.0000      -8.080330      -219.8770
  18   2.0000      -6.039202      -164.3350
  19   2.0000      -6.038977      -164.3289
  20   2.0000      -6.035079      -164.2229
  21   2.0000      -6.034828      -164.2160
  22   2.0000      -6.031013      -164.1122
  23   2.0000      -6.030870      -164.1083
  24   2.0000      -1.011149       -27.5148
  25   2.0000      -0.986923       -26.8555
  26   2.0000      -0.910232       -24.7687
  27   2.0000      -0.906572       -24.6691
  28   2.0000      -0.874977       -23.8093
  29   2.0000      -0.847489       -23.0613
  30   2.0000      -0.844010       -22.9667
  31   2.0000      -0.818722       -22.2786
  32   2.0000      -0.781188       -21.2572
  33   2.0000      -0.770439       -20.9647
  34   2.0000      -0.705048       -19.1853
  35   2.0000      -0.696975       -18.9656
  36   2.0000      -0.695424       -18.9234
  37   2.0000      -0.659832       -17.9549
  38   2.0000      -0.638970       -17.3873
  39   2.0000      -0.626917       -17.0593
  40   2.0000      -0.595394       -16.2015
  41   2.0000      -0.572638       -15.5823
  42   2.0000      -0.563859       -15.3434
  43   2.0000      -0.557721       -15.1764
  44   2.0000      -0.530688       -14.4408
  45   2.0000      -0.520260       -14.1570
  46   2.0000      -0.516578       -14.0568
  47   2.0000      -0.507930       -13.8215
  48   2.0000      -0.503371       -13.6974
  49   2.0000      -0.495103       -13.4724
  50   2.0000      -0.493154       -13.4194
  51   2.0000      -0.479294       -13.0422
  52   2.0000      -0.474568       -12.9137
  53   2.0000      -0.464303       -12.6343
  54   2.0000      -0.456763       -12.4291
  55   2.0000      -0.455330       -12.3902
  56   2.0000      -0.448105       -12.1936
  57   2.0000      -0.443716       -12.0741
  58   2.0000      -0.433411       -11.7937
  59   2.0000      -0.420346       -11.4382
  60   2.0000      -0.417236       -11.3536
  61   2.0000      -0.414721       -11.2851
  62   2.0000      -0.402583       -10.9549
  63   2.0000      -0.353087        -9.6080
  64   2.0000      -0.329513        -8.9665
  65   2.0000      -0.327045        -8.8994
  66   2.0000      -0.296011        -8.0549
  67   0.0000       0.032779         0.8920
  68   0.0000       0.073707         2.0057
  69   0.0000       0.110412         3.0045
  70   0.0000       0.120965         3.2916
  71   0.0000       0.127345         3.4652

MULLIKEN ATOMIC CHARGES
-----------------------
   0 S :    0.090008
   1 C :   -0.141958
   2 C :   -0.084729
   3 C :    0.013076
   4 C :   -0.101006
   5 H :   -0.001289
   6 C :    0.044546
   7 H :    0.038080
   8 H :    0.015083
   9 C :   -0.088651
  10 H :    0.032885
  11 H :    0.032555
  12 C :   -0.058166
  13 H :    0.027691
  14 H :    0.029817
  15 H :    0.064780
  16 S :    0.109839
  17 C :   -0.071669
  18 C :   -0.025349
  19 C :   -0.036093
  20 C :   -0.143021
  21 H :   -0.010414
  22 C :    0.090652
  23 H :    0.019169
  24 H :    0.011926
  25 C :   -0.137262
  26 H :    0.042435
  27 H :    0.041785
  28 C :   -0.035556
  29 H :    0.025218
  30 H :    0.028510
  31 H :    0.050886
  32 H :    0.074382
  33 H :    0.051839
Sum of atomic charges:   -0.0000000

LOEWDIN ATOMIC CHARGES
----------------------
   0 S :    0.402804
   1 C :   -0.194470
   2 C :   -0.060373
   3 C :   -0.057912
   4 C :   -0.209068
   5 H :    0.023485
   6 C :   -0.038251
   7 H :    0.032720
   8 H :    0.030361
   9 C :   -0.045199
  10 H :    0.026001
  11 H :    0.024018
  12 C :   -0.074354
  13 H :    0.021405
  14 H :    0.027570
  15 H :    0.041933
  16 S :    0.400854
  17 C :   -0.187231
  18 C :   -0.067399
  19 C :   -0.050836
  20 C :   -0.194126
  21 H :    0.022709
  22 C :   -0.032500
  23 H :    0.022610
  24 H :    0.029636
  25 C :   -0.041408
  26 H :    0.027646
  27 H :    0.023334
  28 C :   -0.067265
  29 H :    0.030059
  30 H :    0.017958
  31 H :    0.034596
  32 H :    0.039264
  33 H :    0.041429

  Mayer bond orders larger than 0.100000
B(  0-S ,  1-C ) :   1.1395 B(  0-S ,  4-C ) :   1.1358 B(  1-C ,  2-C ) :   1.6039
B(  1-C , 32-H ) :   0.9639 B(  2-C ,  3-C ) :   1.2625 B(  2-C ,  6-C ) :   1.0295
B(  3-C ,  4-C ) :   1.5679 B(  3-C ,  5-H ) :   0.9899 B(  4-C , 20-C ) :   1.0385
B(  6-C ,  7-H ) :   0.9446 B(  6-C ,  8-H ) :   0.9370 B(  6-C ,  9-C ) :   1.0505
B(  9-C , 10-H ) :   0.9567 B(  9-C , 11-H ) :   0.9567 B(  9-C , 12-C ) :   1.0721
B( 12-C , 13-H ) :   0.9741 B( 12-C , 14-H ) :   0.9737 B( 12-C , 15-H ) :   0.9733
B( 16-S , 17-C ) :   1.1336 B( 16-S , 20-C ) :   1.1161 B( 17-C , 18-C ) :   1.6794
B( 17-C , 33-H ) :   0.9539 B( 18-C , 19-C ) :   1.1954 B( 18-C , 21-H ) :   1.0026
B( 19-C , 20-C ) :   1.6346 B( 19-C , 22-C ) :   1.0515 B( 22-C , 23-H ) :   0.9504
B( 22-C , 24-H ) :   0.9304 B( 22-C , 25-C ) :   1.0312 B( 25-C , 26-H ) :   0.9543
B( 25-C , 27-H ) :   0.9617 B( 25-C , 28-C ) :   1.0771 B( 28-C , 29-H ) :   0.9722
B( 28-C , 30-H ) :   0.9766 B( 28-C , 31-H ) :   0.9714

Dispersion correction           -0.013982970
FINAL SINGLE POINT ENERGY     -1339.860331054989

DIPOLE MOMENT
-------------
                                X             Y             Z
Electronic contribution:     -5.86209      27.38123      10.34866
Nuclear contribution   :      6.07834     -28.12352     -10.38990
                        -----------------------------------------
Total Dipole Moment    :      0.21625      -0.74229      -0.04124
                        -----------------------------------------
Magnitude (a.u.)       :      0.77424
Magnitude (Debye)      :      1.96797

Rotational constants in cm-1:     0.016226     0.008916     0.006919
Rotational constants in MHz :   486.455673   267.300435   207.426082

                             ****ORCA TERMINATED NORMALLY****
TOTAL RUN TIME: 0 days 0 hours 0 minutes 30 seconds 65 msec
