                         Program Version 4.2.1 -  RELEASE  -
|  1> ! wB97X-D3 SP def2-SVP
|  2> %pal
|  3> nprocs 16
|  4> end
|  5>
|  6> * xyz 0 1
|  7> S 	 -2.79583 	 72.9596 	 56.3932
|  8> C 	 -3.40407 	 71.3773 	 56.8773
|  9> C 	 -3.77609 	 70.6633 	 55.805
| 10> C 	 -3.46102 	 71.2798 	 54.575
| 11> C 	 -2.99637 	 72.5968 	 54.727
| 12> H 	 -3.58301 	 70.7632 	 53.6302
| 13> C 	 -4.35329 	 69.2425 	 55.8321
| 14> H 	 -5.39987 	 69.319 	 55.4342
| 15> H 	 -4.46608 	 68.8849 	 56.9342
| 16> C 	 -3.5559 	 68.2128 	 54.9228
| 17> H 	 -3.60208 	 68.5303 	 53.8729
| 18> H 	 -2.50699 	 68.2564 	 55.2091
| 19> C 	 -4.02366 	 66.7809 	 55.1139
| 20> H 	 -3.50812 	 66.0025 	 54.55
| 21> H 	 -3.88601 	 66.5068 	 56.2076
| 22> H 	 -5.13165 	 66.719 	 55.0112
| 23> S 	 -3.6449 	 73.8784 	 52.4292
| 24> C 	 -2.49118 	 74.8393 	 51.5187
| 25> C 	 -1.29006 	 74.6242 	 52.1018
| 26> C 	 -1.19706 	 73.8628 	 53.3124
| 27> C 	 -2.46344 	 73.3965 	 53.5932
| 28> H 	 -0.459817 	 75.1508 	 51.6869
| 29> C 	 0.0792455 	 73.6894 	 54.1957
| 30> H 	 -0.317783 	 73.9008 	 55.2128
| 31> H 	 0.897059 	 74.4125 	 54.102
| 32> C 	 0.86452 	 72.3708 	 54.0324
| 33> H 	 1.24389 	 72.3552 	 52.9819
| 34> H 	 0.29998 	 71.4709 	 54.2611
| 35> C 	 2.13527 	 72.2464 	 54.9619
| 36> H 	 2.67877 	 71.294 	 54.9316
| 37> H 	 1.70906 	 72.3884 	 55.9784
| 38> H 	 2.80594 	 73.1703 	 54.722
| 39> H 	 -3.35977 	 70.9202 	 57.918
| 40> H 	 -2.53056 	 75.5305 	 50.7
| 41> *
| 42>
| 43>                          ****END OF INPUT****

CARTESIAN COORDINATES (ANGSTROEM)
---------------------------------
  S     -2.795830   72.959600   56.393200
  C     -3.404070   71.377300   56.877300
  C     -3.776090   70.663300   55.805000
  C     -3.461020   71.279800   54.575000
  C     -2.996370   72.596800   54.727000
  H     -3.583010   70.763200   53.630200
  C     -4.353290   69.242500   55.832100
  H     -5.399870   69.319000   55.434200
  H     -4.466080   68.884900   56.934200
  C     -3.555900   68.212800   54.922800
  H     -3.602080   68.530300   53.872900
  H     -2.506990   68.256400   55.209100
  C     -4.023660   66.780900   55.113900
  H     -3.508120   66.002500   54.550000
  H     -3.886010   66.506800   56.207600
  H     -5.131650   66.719000   55.011200
  S     -3.644900   73.878400   52.429200
  C     -2.491180   74.839300   51.518700
  C     -1.290060   74.624200   52.101800
  C     -1.197060   73.862800   53.312400
  C     -2.463440   73.396500   53.593200
  H     -0.459817   75.150800   51.686900
  C      0.079245   73.689400   54.195700
  H     -0.317783   73.900800   55.212800
  H      0.897059   74.412500   54.102000
  C      0.864520   72.370800   54.032400
  H      1.243890   72.355200   52.981900
  H      0.299980   71.470900   54.261100
  C      2.135270   72.246400   54.961900
  H      2.678770   71.294000   54.931600
  H      1.709060   72.388400   55.978400
  H      2.805940   73.170300   54.722000
  H     -3.359770   70.920200   57.918000
  H     -2.530560   75.530500   50.700000

 Total Charge           Charge          ....    0
 Multiplicity           Mult            ....    1
 Number of Electrons    NEL             ....  134
 Basis Dimension        Dim             ....  322

ORBITAL ENERGIES
----------------

  NO   OCC          E(Eh)            E(eV)
   0   2.0000     -88.970627     -2421.0139
   1   2.0000     -88.965529     -2420.8751
   2   2.0000     -10.332084      -281.1503
   3   2.0000     -10.328573      -281.0548
   4   2.0000     -10.316330      -280.7216
   5   2.0000     -10.311958      -280.6026
   6   2.0000     -10.308293      -280.5029
   7   2.0000     -10.306964      -280.4668
   8   2.0000     -10.301207      -280.3101
   9   2.0000     -10.296131      -280.1720
  10   2.0000     -10.293673      -280.1051
  11   2.0000     -10.293468      -280.0995
  12   2.0000     -10.289537      -279.9925
  13   2.0000     -10.289436      -279.9898
  14   2.0000     -10.286445      -279.9084
  15   2.0000     -10.285937      -279.8946
  16   2.0000      -8.085180      -220.0089
  17   2.0000      -8.080340      -219.8772
  18   2.0000      -6.043737      -164.4584
  19   2.0000      -6.039655      -164.3474
  20   2.0000      -6.038975      -164.3289
  21   2.0000      -6.035956      -164.2467
  22   2.0000      -6.034717      -164.2130
  23   2.0000      -6.031035      -164.1128
  24   2.0000      -1.011747       -27.5310
  25   2.0000      -0.991063       -26.9682
  26   2.0000      -0.907115       -24.6839
  27   2.0000      -0.899930       -24.4883
  28   2.0000      -0.871458       -23.7136
  29   2.0000      -0.850916       -23.1546
  30   2.0000      -0.843481       -22.9523
  31   2.0000      -0.814145       -22.1540
  32   2.0000      -0.776806       -21.1380
  33   2.0000      -0.770512       -20.9667
  34   2.0000      -0.709806       -19.3148
  35   2.0000      -0.694200       -18.8902
  36   2.0000      -0.686203       -18.6725
  37   2.0000      -0.660482       -17.9726
  38   2.0000      -0.634240       -17.2586
  39   2.0000      -0.618720       -16.8362
  40   2.0000      -0.594610       -16.1802
  41   2.0000      -0.572763       -15.5857
  42   2.0000      -0.563587       -15.3360
  43   2.0000      -0.557126       -15.1602
  44   2.0000      -0.528625       -14.3846
  45   2.0000      -0.521169       -14.1817
  46   2.0000      -0.515701       -14.0329
  47   2.0000      -0.506039       -13.7700
  48   2.0000      -0.503020       -13.6879
  49   2.0000      -0.497991       -13.5510
  50   2.0000      -0.490618       -13.3504
  51   2.0000      -0.478037       -13.0081
  52   2.0000      -0.472683       -12.8624
  53   2.0000      -0.467540       -12.7224
  54   2.0000      -0.458812       -12.4849
  55   2.0000      -0.446519       -12.1504
  56   2.0000      -0.440529       -11.9874
  57   2.0000      -0.434016       -11.8102
  58   2.0000      -0.428533       -11.6610
  59   2.0000      -0.424662       -11.5556
  60   2.0000      -0.419190       -11.4067
  61   2.0000      -0.416138       -11.3237
  62   2.0000      -0.410776       -11.1778
  63   2.0000      -0.341948        -9.3049
  64   2.0000      -0.334120        -9.0919
  65   2.0000      -0.330382        -8.9901
  66   2.0000      -0.302717        -8.2374
  67   0.0000       0.035948         0.9782
  68   0.0000       0.069613         1.8943
  69   0.0000       0.119611         3.2548
  70   0.0000       0.121193         3.2978
  71   0.0000       0.130636         3.5548

MULLIKEN ATOMIC CHARGES
-----------------------
   0 S :    0.115122
   1 C :   -0.167551
   2 C :   -0.044717
   3 C :    0.010892
   4 C :   -0.121286
   5 H :    0.015645
   6 C :    0.009534
   7 H :    0.049553
   8 H :    0.032483
   9 C :   -0.087303
  10 H :    0.041278
  11 H :    0.036457
  12 C :   -0.056208
  13 H :    0.046627
  14 H :    0.026794
  15 H :    0.031332
  16 S :    0.115285
  17 C :   -0.065118
  18 C :   -0.056109
  19 C :    0.014142
  20 C :   -0.197026
  21 H :    0.000552
  22 C :    0.059119
  23 H :    0.027672
  24 H :    0.015983
  25 C :   -0.081689
  26 H :    0.037372
  27 H :    0.038828
  28 C :   -0.095466
  29 H :    0.054469
  30 H :    0.037007
  31 H :    0.039886
  32 H :    0.070685
  33 H :    0.045758
Sum of atomic charges:    0.0000000

LOEWDIN ATOMIC CHARGES
----------------------
   0 S :    0.422185
   1 C :   -0.207487
   2 C :   -0.075485
   3 C :   -0.061282
   4 C :   -0.207435
   5 H :    0.030051
   6 C :   -0.033651
   7 H :    0.037306
   8 H :    0.034644
   9 C :   -0.044627
  10 H :    0.023924
  11 H :    0.025614
  12 C :   -0.073633
  13 H :    0.027578
  14 H :    0.030065
  15 H :    0.027119
  16 S :    0.419785
  17 C :   -0.193980
  18 C :   -0.069184
  19 C :   -0.059197
  20 C :   -0.195568
  21 H :    0.022220
  22 C :   -0.035351
  23 H :    0.026586
  24 H :    0.031128
  25 C :   -0.042735
  26 H :    0.026820
  27 H :    0.022459
  28 C :   -0.076684
  29 H :    0.028903
  30 H :    0.026865
  31 H :    0.030277
  32 H :    0.046635
  33 H :    0.036132

  Mayer bond orders larger than 0.100000
B(  0-S ,  1-C ) :   1.1282 B(  0-S ,  4-C ) :   1.1669 B(  1-C ,  2-C ) :   1.6324
B(  1-C , 32-H ) :   0.9540 B(  2-C ,  3-C ) :   1.2564 B(  2-C ,  6-C ) :   1.0169
B(  3-C ,  4-C ) :   1.5534 B(  3-C ,  5-H ) :   0.9926 B(  4-C , 20-C ) :   0.9908
B(  6-C ,  7-H ) :   0.9339 B(  6-C ,  8-H ) :   0.9514 B(  6-C ,  9-C ) :   1.0460
B(  9-C , 10-H ) :   0.9500 B(  9-C , 11-H ) :   0.9603 B(  9-C , 12-C ) :   1.0863
B( 12-C , 13-H ) :   0.9742 B( 12-C , 14-H ) :   0.9727 B( 12-C , 15-H ) :   0.9729
B( 16-S , 17-C ) :   1.1182 B( 16-S , 20-C ) :   1.1737 B( 17-C , 18-C ) :   1.6473
B( 17-C , 33-H ) :   0.9694 B( 18-C , 19-C ) :   1.2323 B( 18-C , 21-H ) :   0.9823
B( 19-C , 20-C ) :   1.5951 B( 19-C , 22-C ) :   1.0218 B( 22-C , 23-H ) :   0.9341
B( 22-C , 24-H ) :   0.9426 B( 22-C , 25-C ) :   1.0534 B( 25-C , 26-H ) :   0.9572
B( 25-C , 27-H ) :   0.9590 B( 25-C , 28-C ) :   1.0696 B( 28-C , 29-H ) :   0.9756
B( 28-C , 30-H ) :   0.9773 B( 28-C , 31-H ) :   0.9734

Dispersion correction           -0.013985045
FINAL SINGLE POINT ENERGY     -1339.872011895848

DIPOLE MOMENT
-------------
                                X             Y             Z
Electronic contribution:    -12.53919      21.27375      -3.58432
Nuclear contribution   :     12.88097     -21.70084       3.58312
                        -----------------------------------------
Total Dipole Moment    :      0.34178      -0.42709      -0.00120
                        -----------------------------------------
Magnitude (a.u.)       :      0.54701
Magnitude (Debye)      :      1.39039

Rotational constants in cm-1:     0.016666     0.008433     0.007237
Rotational constants in MHz :   499.647115   252.817949   216.968615

                             ****ORCA TERMINATED NORMALLY****
TOTAL RUN TIME: 0 days 0 hours 0 minutes 32 seconds 794 msec
