                         Program Version 4.2.1 -  RELEASE  -
|  1> ! wB97X-D3 SP def2-SVP
|  2> %pal
|  3> nprocs 16
|  4> end
|  5>
|  6> * xyz 0 1
|  7> S 	 1.80641 	 -15.596 	 77.2773
|  8> C 	 3.34845 	 -14.8435 	 77.3627
|  9> C 	 3.34808 	 -13.5791 	 77.939
| 10> C 	 2.01121 	 -13.2362 	 78.2859
| 11> C 	 1.07884 	 -14.1924 	 78.031
| 12> H 	 1.73286 	 -12.3256 	 78.7655
| 13> C 	 4.62603 	 -12.6897 	 77.9843
| 14> H 	 5.10344 	 -12.82 	 77.0195
| 15> H 	 5.26094 	 -13.1284 	 78.7916
| 16> C 	 4.5154 	 -11.22 	 78.2714
| 17> H 	 3.62491 	 -10.6665 	 77.7209
| 18> H 	 4.12282 	 -11.2086 	 79.3182
| 19> C 	 5.87187 	 -10.5008 	 78.2264
| 20> H 	 6.47926 	 -10.8217 	 79.1185
| 21> H 	 6.52038 	 -10.6149 	 77.306
| 22> H 	 5.7101 	 -9.42641 	 78.4131
| 23> S 	 -1.35229 	 -14.6879 	 77.029
| 24> C 	 -2.7803 	 -14.4005 	 78.0377
| 25> C 	 -2.37283 	 -13.7164 	 79.1842
| 26> C 	 -0.975343 	 -13.6522 	 79.381
| 27> C 	 -0.311566 	 -14.2039 	 78.3152
| 28> H 	 -3.12634 	 -13.4787 	 79.894
| 29> C 	 -0.37025 	 -13.1564 	 80.6283
| 30> H 	 0.608687 	 -13.6584 	 80.8355
| 31> H 	 -0.950179 	 -13.4371 	 81.4956
| 32> C 	 -0.119822 	 -11.6143 	 80.6553
| 33> H 	 -1.13817 	 -11.2012 	 80.5066
| 34> H 	 0.416495 	 -11.2277 	 79.8203
| 35> C 	 0.705923 	 -11.0533 	 81.866
| 36> H 	 1.73081 	 -11.2457 	 81.8599
| 37> H 	 0.34731 	 -11.5791 	 82.8303
| 38> H 	 0.463982 	 -9.99217 	 82.0894
| 39> H 	 4.20184 	 -15.1356 	 76.7897
| 40> H 	 -3.76854 	 -14.6545 	 77.6971
| 41> *
| 42>
| 43>                          ****END OF INPUT****

CARTESIAN COORDINATES (ANGSTROEM)
---------------------------------
  S      1.806410  -15.596000   77.277300
  C      3.348450  -14.843500   77.362700
  C      3.348080  -13.579100   77.939000
  C      2.011210  -13.236200   78.285900
  C      1.078840  -14.192400   78.031000
  H      1.732860  -12.325600   78.765500
  C      4.626030  -12.689700   77.984300
  H      5.103440  -12.820000   77.019500
  H      5.260940  -13.128400   78.791600
  C      4.515400  -11.220000   78.271400
  H      3.624910  -10.666500   77.720900
  H      4.122820  -11.208600   79.318200
  C      5.871870  -10.500800   78.226400
  H      6.479260  -10.821700   79.118500
  H      6.520380  -10.614900   77.306000
  H      5.710100   -9.426410   78.413100
  S     -1.352290  -14.687900   77.029000
  C     -2.780300  -14.400500   78.037700
  C     -2.372830  -13.716400   79.184200
  C     -0.975343  -13.652200   79.381000
  C     -0.311566  -14.203900   78.315200
  H     -3.126340  -13.478700   79.894000
  C     -0.370250  -13.156400   80.628300
  H      0.608687  -13.658400   80.835500
  H     -0.950179  -13.437100   81.495600
  C     -0.119822  -11.614300   80.655300
  H     -1.138170  -11.201200   80.506600
  H      0.416495  -11.227700   79.820300
  C      0.705923  -11.053300   81.866000
  H      1.730810  -11.245700   81.859900
  H      0.347310  -11.579100   82.830300
  H      0.463982   -9.992170   82.089400
  H      4.201840  -15.135600   76.789700
  H     -3.768540  -14.654500   77.697100

 Total Charge           Charge          ....    0
 Multiplicity           Mult            ....    1
 Number of Electrons    NEL             ....  134
 Basis Dimension        Dim             ....  322

ORBITAL ENERGIES
----------------

  NO   OCC          E(Eh)            E(eV)
   0   2.0000     -88.964578     -2420.8492
   1   2.0000     -88.963440     -2420.8183
   2   2.0000     -10.320036      -280.8225
   3   2.0000     -10.319692      -280.8131
   4   2.0000     -10.318155      -280.7713
   5   2.0000     -10.305967      -280.4396
   6   2.0000     -10.301728      -280.3243
   7   2.0000     -10.301179      -280.3093
   8   2.0000     -10.297909      -280.2203
   9   2.0000     -10.297526      -280.2099
  10   2.0000     -10.293425      -280.0983
  11   2.0000     -10.293235      -280.0932
  12   2.0000     -10.292741      -280.0797
  13   2.0000     -10.291864      -280.0559
  14   2.0000     -10.288701      -279.9698
  15   2.0000     -10.287243      -279.9301
  16   2.0000      -8.079951      -219.8666
  17   2.0000      -8.078668      -219.8317
  18   2.0000      -6.038379      -164.3127
  19   2.0000      -6.037093      -164.2776
  20   2.0000      -6.034396      -164.2043
  21   2.0000      -6.033142      -164.1701
  22   2.0000      -6.030737      -164.1047
  23   2.0000      -6.029438      -164.0693
  24   2.0000      -1.014172       -27.5970
  25   2.0000      -0.986675       -26.8488
  26   2.0000      -0.912743       -24.8370
  27   2.0000      -0.907616       -24.6975
  28   2.0000      -0.873714       -23.7750
  29   2.0000      -0.853136       -23.2150
  30   2.0000      -0.846410       -23.0320
  31   2.0000      -0.815674       -22.1956
  32   2.0000      -0.783465       -21.3192
  33   2.0000      -0.772020       -21.0077
  34   2.0000      -0.711294       -19.3553
  35   2.0000      -0.703227       -19.1358
  36   2.0000      -0.686734       -18.6870
  37   2.0000      -0.667513       -18.1639
  38   2.0000      -0.641196       -17.4478
  39   2.0000      -0.623098       -16.9554
  40   2.0000      -0.601733       -16.3740
  41   2.0000      -0.569032       -15.4841
  42   2.0000      -0.563692       -15.3388
  43   2.0000      -0.559132       -15.2147
  44   2.0000      -0.526710       -14.3325
  45   2.0000      -0.525758       -14.3066
  46   2.0000      -0.517322       -14.0770
  47   2.0000      -0.508908       -13.8481
  48   2.0000      -0.505145       -13.7457
  49   2.0000      -0.499860       -13.6019
  50   2.0000      -0.490166       -13.3381
  51   2.0000      -0.486508       -13.2385
  52   2.0000      -0.475648       -12.9431
  53   2.0000      -0.469999       -12.7893
  54   2.0000      -0.460285       -12.5250
  55   2.0000      -0.448923       -12.2158
  56   2.0000      -0.442987       -12.0543
  57   2.0000      -0.434387       -11.8203
  58   2.0000      -0.430372       -11.7110
  59   2.0000      -0.429592       -11.6898
  60   2.0000      -0.423513       -11.5244
  61   2.0000      -0.412316       -11.2197
  62   2.0000      -0.411094       -11.1864
  63   2.0000      -0.349084        -9.4991
  64   2.0000      -0.333212        -9.0672
  65   2.0000      -0.330850        -9.0029
  66   2.0000      -0.287453        -7.8220
  67   0.0000       0.025186         0.6853
  68   0.0000       0.076923         2.0932
  69   0.0000       0.109589         2.9821
  70   0.0000       0.122347         3.3292
  71   0.0000       0.127420         3.4673

MULLIKEN ATOMIC CHARGES
-----------------------
   0 S :    0.118771
   1 C :   -0.108939
   2 C :   -0.089148
   3 C :    0.039293
   4 C :   -0.140902
   5 H :   -0.042566
   6 C :    0.057880
   7 H :    0.031558
   8 H :    0.048797
   9 C :   -0.136823
  10 H :    0.052206
  11 H :    0.031918
  12 C :   -0.060533
  13 H :    0.037415
  14 H :    0.052740
  15 H :    0.039994
  16 S :    0.099418
  17 C :   -0.097541
  18 C :   -0.024207
  19 C :   -0.014271
  20 C :   -0.127742
  21 H :    0.009634
  22 C :    0.048945
  23 H :    0.033653
  24 H :    0.022399
  25 C :   -0.082596
  26 H :    0.025315
  27 H :    0.031341
  28 C :   -0.052792
  29 H :    0.033402
  30 H :    0.023607
  31 H :    0.047057
  32 H :    0.036167
  33 H :    0.056548
Sum of atomic charges:    0.0000000

LOEWDIN ATOMIC CHARGES
----------------------
   0 S :    0.418171
   1 C :   -0.205849
   2 C :   -0.059243
   3 C :   -0.061124
   4 C :   -0.193813
   5 H :    0.022255
   6 C :   -0.036157
   7 H :    0.028651
   8 H :    0.041498
   9 C :   -0.062718
  10 H :    0.033758
  11 H :    0.027207
  12 C :   -0.074549
  13 H :    0.032769
  14 H :    0.032877
  15 H :    0.031029
  16 S :    0.406986
  17 C :   -0.174616
  18 C :   -0.061372
  19 C :   -0.062727
  20 C :   -0.201472
  21 H :    0.026015
  22 C :   -0.034313
  23 H :    0.035541
  24 H :    0.030094
  25 C :   -0.040261
  26 H :    0.027548
  27 H :    0.015227
  28 C :   -0.069058
  29 H :    0.015835
  30 H :    0.030268
  31 H :    0.034193
  32 H :    0.021499
  33 H :    0.025850

  Mayer bond orders larger than 0.100000
B(  0-S ,  1-C ) :   1.1532 B(  0-S ,  4-C ) :   1.1431 B(  1-C ,  2-C ) :   1.6172
B(  1-C , 32-H ) :   0.9657 B(  2-C ,  3-C ) :   1.2646 B(  2-C ,  6-C ) :   0.9899
B(  3-C ,  4-C ) :   1.5657 B(  3-C ,  5-H ) :   1.0002 B(  4-C , 20-C ) :   1.0407
B(  6-C ,  7-H ) :   0.9477 B(  6-C ,  8-H ) :   0.9366 B(  6-C ,  9-C ) :   1.0771
B(  9-C , 10-H ) :   0.9545 B(  9-C , 11-H ) :   0.9455 B(  9-C , 12-C ) :   1.0782
B( 12-C , 13-H ) :   0.9705 B( 12-C , 14-H ) :   0.9762 B( 12-C , 15-H ) :   0.9717
B( 16-S , 17-C ) :   1.1454 B( 16-S , 20-C ) :   1.1582 B( 17-C , 18-C ) :   1.5872
B( 17-C , 20-C ) :   0.1069 B( 17-C , 33-H ) :   0.9765 B( 18-C , 19-C ) :   1.2387
B( 18-C , 21-H ) :   0.9939 B( 19-C , 20-C ) :   1.5834 B( 19-C , 22-C ) :   1.0590
B( 22-C , 23-H ) :   0.9341 B( 22-C , 24-H ) :   0.9301 B( 22-C , 25-C ) :   1.0463
B( 25-C , 26-H ) :   0.9524 B( 25-C , 27-H ) :   0.9563 B( 25-C , 28-C ) :   1.0658
B( 28-C , 29-H ) :   0.9769 B( 28-C , 30-H ) :   0.9738 B( 28-C , 31-H ) :   0.9749

Dispersion correction           -0.014429728
FINAL SINGLE POINT ENERGY     -1339.875426468947

DIPOLE MOMENT
-------------
                                X             Y             Z
Electronic contribution:    -16.31415     -23.97158     -16.34603
Nuclear contribution   :     16.51672      24.52758      16.74375
                        -----------------------------------------
Total Dipole Moment    :      0.20257       0.55600       0.39771
                        -----------------------------------------
Magnitude (a.u.)       :      0.71299
Magnitude (Debye)      :      1.81226

Rotational constants in cm-1:     0.017763     0.009397     0.006670
Rotational constants in MHz :   532.519427   281.712410   199.974048

                             ****ORCA TERMINATED NORMALLY****
TOTAL RUN TIME: 0 days 0 hours 0 minutes 36 seconds 30 msec
