                         Program Version 4.2.1 -  RELEASE  -
|  1> ! wB97X-D3 SP def2-SVP
|  2> %pal
|  3> nprocs 16
|  4> end
|  5>
|  6> * xyz 0 1
|  7> S 	 -68.574 	 60.9722 	 127.861
|  8> C 	 -67.5049 	 62.0579 	 128.569
|  9> C 	 -67.4443 	 63.2962 	 127.953
| 10> C 	 -68.5188 	 63.3965 	 126.987
| 11> C 	 -69.1612 	 62.1623 	 126.766
| 12> H 	 -68.7236 	 64.3286 	 126.457
| 13> C 	 -66.3718 	 64.3937 	 128.322
| 14> H 	 -65.441 	 63.9827 	 128.065
| 15> H 	 -66.3831 	 64.4828 	 129.427
| 16> C 	 -66.5512 	 65.7753 	 127.699
| 17> H 	 -65.4977 	 66.0197 	 127.723
| 18> H 	 -66.8445 	 65.577 	 126.707
| 19> C 	 -67.5254 	 66.7487 	 128.275
| 20> H 	 -67.3799 	 66.8981 	 129.307
| 21> H 	 -67.367 	 67.6434 	 127.726
| 22> H 	 -68.4693 	 66.3094 	 128.288
| 23> S 	 -71.8844 	 61.265 	 126.648
| 24> C 	 -72.8843 	 61.658 	 125.304
| 25> C 	 -72.0305 	 61.9353 	 124.246
| 26> C 	 -70.6977 	 62.2451 	 124.639
| 27> C 	 -70.3726 	 61.9153 	 125.936
| 28> H 	 -72.3648 	 62.0265 	 123.268
| 29> C 	 -69.7837 	 62.7269 	 123.583
| 30> H 	 -69.001 	 63.2155 	 124.119
| 31> H 	 -70.2308 	 63.4794 	 122.948
| 32> C 	 -69.1983 	 61.6183 	 122.609
| 33> H 	 -69.9677 	 61.1903 	 122.005
| 34> H 	 -68.644 	 60.8851 	 123.159
| 35> C 	 -68.2132 	 62.1619 	 121.496
| 36> H 	 -67.8291 	 61.3413 	 120.847
| 37> H 	 -67.3225 	 62.6787 	 121.949
| 38> H 	 -68.7105 	 62.9291 	 120.952
| 39> H 	 -66.7732 	 61.6882 	 129.251
| 40> H 	 -73.9095 	 61.3678 	 125.142
| 41> *
| 42>
| 43>                          ****END OF INPUT****

CARTESIAN COORDINATES (ANGSTROEM)
---------------------------------
  S    -68.574000   60.972200  127.861000
  C    -67.504900   62.057900  128.569000
  C    -67.444300   63.296200  127.953000
  C    -68.518800   63.396500  126.987000
  C    -69.161200   62.162300  126.766000
  H    -68.723600   64.328600  126.457000
  C    -66.371800   64.393700  128.322000
  H    -65.441000   63.982700  128.065000
  H    -66.383100   64.482800  129.427000
  C    -66.551200   65.775300  127.699000
  H    -65.497700   66.019700  127.723000
  H    -66.844500   65.577000  126.707000
  C    -67.525400   66.748700  128.275000
  H    -67.379900   66.898100  129.307000
  H    -67.367000   67.643400  127.726000
  H    -68.469300   66.309400  128.288000
  S    -71.884400   61.265000  126.648000
  C    -72.884300   61.658000  125.304000
  C    -72.030500   61.935300  124.246000
  C    -70.697700   62.245100  124.639000
  C    -70.372600   61.915300  125.936000
  H    -72.364800   62.026500  123.268000
  C    -69.783700   62.726900  123.583000
  H    -69.001000   63.215500  124.119000
  H    -70.230800   63.479400  122.948000
  C    -69.198300   61.618300  122.609000
  H    -69.967700   61.190300  122.005000
  H    -68.644000   60.885100  123.159000
  C    -68.213200   62.161900  121.496000
  H    -67.829100   61.341300  120.847000
  H    -67.322500   62.678700  121.949000
  H    -68.710500   62.929100  120.952000
  H    -66.773200   61.688200  129.251000
  H    -73.909500   61.367800  125.142000

 Total Charge           Charge          ....    0
 Multiplicity           Mult            ....    1
 Number of Electrons    NEL             ....  134
 Basis Dimension        Dim             ....  322

ORBITAL ENERGIES
----------------

  NO   OCC          E(Eh)            E(eV)
   0   2.0000     -88.968633     -2420.9596
   1   2.0000     -88.959821     -2420.7198
   2   2.0000     -10.334222      -281.2085
   3   2.0000     -10.330670      -281.1118
   4   2.0000     -10.315736      -280.7054
   5   2.0000     -10.305543      -280.4281
   6   2.0000     -10.304276      -280.3936
   7   2.0000     -10.302308      -280.3401
   8   2.0000     -10.296299      -280.1765
   9   2.0000     -10.294488      -280.1272
  10   2.0000     -10.285851      -279.8922
  11   2.0000     -10.285003      -279.8692
  12   2.0000     -10.284977      -279.8685
  13   2.0000     -10.280951      -279.7589
  14   2.0000     -10.279062      -279.7075
  15   2.0000     -10.267247      -279.3860
  16   2.0000      -8.085049      -220.0054
  17   2.0000      -8.074562      -219.7200
  18   2.0000      -6.043247      -164.4451
  19   2.0000      -6.039236      -164.3360
  20   2.0000      -6.036132      -164.2515
  21   2.0000      -6.033229      -164.1725
  22   2.0000      -6.029011      -164.0577
  23   2.0000      -6.025157      -163.9528
  24   2.0000      -1.009445       -27.4684
  25   2.0000      -0.989627       -26.9291
  26   2.0000      -0.918203       -24.9856
  27   2.0000      -0.902321       -24.5534
  28   2.0000      -0.869676       -23.6651
  29   2.0000      -0.852695       -23.2030
  30   2.0000      -0.844301       -22.9746
  31   2.0000      -0.817131       -22.2353
  32   2.0000      -0.790817       -21.5192
  33   2.0000      -0.771230       -20.9862
  34   2.0000      -0.710725       -19.3398
  35   2.0000      -0.698493       -19.0070
  36   2.0000      -0.689938       -18.7742
  37   2.0000      -0.661291       -17.9946
  38   2.0000      -0.642828       -17.4922
  39   2.0000      -0.626737       -17.0544
  40   2.0000      -0.593799       -16.1581
  41   2.0000      -0.574997       -15.6465
  42   2.0000      -0.564599       -15.3635
  43   2.0000      -0.560874       -15.2622
  44   2.0000      -0.542944       -14.7743
  45   2.0000      -0.529970       -14.4212
  46   2.0000      -0.522880       -14.2283
  47   2.0000      -0.516006       -14.0412
  48   2.0000      -0.503083       -13.6896
  49   2.0000      -0.497763       -13.5448
  50   2.0000      -0.494701       -13.4615
  51   2.0000      -0.484859       -13.1937
  52   2.0000      -0.470146       -12.7933
  53   2.0000      -0.467237       -12.7142
  54   2.0000      -0.457672       -12.4539
  55   2.0000      -0.449900       -12.2424
  56   2.0000      -0.445574       -12.1247
  57   2.0000      -0.441529       -12.0146
  58   2.0000      -0.430814       -11.7230
  59   2.0000      -0.423740       -11.5305
  60   2.0000      -0.420658       -11.4467
  61   2.0000      -0.411355       -11.1935
  62   2.0000      -0.409449       -11.1417
  63   2.0000      -0.350053        -9.5254
  64   2.0000      -0.331034        -9.0079
  65   2.0000      -0.321571        -8.7504
  66   2.0000      -0.292794        -7.9673
  67   0.0000       0.031710         0.8629
  68   0.0000       0.065399         1.7796
  69   0.0000       0.115411         3.1405
  70   0.0000       0.128113         3.4861
  71   0.0000       0.129617         3.5271

MULLIKEN ATOMIC CHARGES
-----------------------
   0 S :    0.134613
   1 C :   -0.117127
   2 C :   -0.124369
   3 C :    0.023836
   4 C :   -0.173322
   5 H :    0.022916
   6 C :    0.063795
   7 H :    0.025643
   8 H :    0.032637
   9 C :   -0.082864
  10 H :    0.024167
  11 H :    0.011212
  12 C :    0.043793
  13 H :    0.007089
  14 H :    0.042224
  15 H :    0.017030
  16 S :    0.086463
  17 C :   -0.074614
  18 C :   -0.012388
  19 C :   -0.074635
  20 C :   -0.101500
  21 H :   -0.007857
  22 C :    0.084612
  23 H :    0.000627
  24 H :    0.015273
  25 C :   -0.055931
  26 H :    0.025103
  27 H :    0.034100
  28 C :   -0.078512
  29 H :    0.050218
  30 H :    0.031452
  31 H :    0.021782
  32 H :    0.040607
  33 H :    0.063926
Sum of atomic charges:    0.0000000

LOEWDIN ATOMIC CHARGES
----------------------
   0 S :    0.457399
   1 C :   -0.218511
   2 C :   -0.064012
   3 C :   -0.064580
   4 C :   -0.208835
   5 H :    0.030695
   6 C :   -0.022522
   7 H :    0.025288
   8 H :    0.033851
   9 C :   -0.042961
  10 H :    0.029010
  11 H :    0.016248
  12 C :   -0.049353
  13 H :    0.021027
  14 H :    0.031493
  15 H :    0.023353
  16 S :    0.395941
  17 C :   -0.189072
  18 C :   -0.062418
  19 C :   -0.061999
  20 C :   -0.189348
  21 H :    0.016314
  22 C :   -0.030512
  23 H :    0.023935
  24 H :    0.026987
  25 C :   -0.025216
  26 H :    0.019062
  27 H :    0.022110
  28 C :   -0.070075
  29 H :    0.032360
  30 H :    0.025899
  31 H :    0.015202
  32 H :    0.020133
  33 H :    0.033108

  Mayer bond orders larger than 0.100000
B(  0-S ,  1-C ) :   1.1762 B(  0-S ,  4-C ) :   1.1843 B(  1-C ,  2-C ) :   1.5887
B(  1-C , 32-H ) :   0.9696 B(  2-C ,  3-C ) :   1.2883 B(  2-C ,  6-C ) :   0.9862
B(  3-C ,  4-C ) :   1.5301 B(  3-C ,  5-H ) :   0.9807 B(  4-C , 20-C ) :   1.0204
B(  6-C ,  7-H ) :   0.9440 B(  6-C ,  8-H ) :   0.9434 B(  6-C ,  9-C ) :   1.0783
B(  9-C , 10-H ) :   0.9541 B(  9-C , 11-H ) :   0.9495 B(  9-C , 12-C ) :   1.0806
B( 12-C , 13-H ) :   0.9670 B( 12-C , 14-H ) :   0.9717 B( 12-C , 15-H ) :   0.9692
B( 16-S , 17-C ) :   1.1705 B( 16-S , 20-C ) :   1.1174 B( 17-C , 18-C ) :   1.5777
B( 17-C , 33-H ) :   0.9649 B( 18-C , 19-C ) :   1.2568 B( 18-C , 21-H ) :   0.9976
B( 19-C , 20-C ) :   1.5899 B( 19-C , 22-C ) :   1.0739 B( 22-C , 23-H ) :   0.9235
B( 22-C , 24-H ) :   0.9313 B( 22-C , 25-C ) :   1.0603 B( 25-C , 26-H ) :   0.9591
B( 25-C , 27-H ) :   0.9609 B( 25-C , 28-C ) :   1.0741 B( 28-C , 29-H ) :   0.9759
B( 28-C , 30-H ) :   0.9776 B( 28-C , 31-H ) :   0.9770

Dispersion correction           -0.013625771
FINAL SINGLE POINT ENERGY     -1339.854768099996

DIPOLE MOMENT
-------------
                                X             Y             Z
Electronic contribution:    -14.86577     -18.20934      13.14168
Nuclear contribution   :     15.27351      18.62558     -13.45288
                        -----------------------------------------
Total Dipole Moment    :      0.40774       0.41624      -0.31120
                        -----------------------------------------
Magnitude (a.u.)       :      0.66058
Magnitude (Debye)      :      1.67905

Rotational constants in cm-1:     0.016259     0.008469     0.007042
Rotational constants in MHz :   487.439200   253.886602   211.121621

                             ****ORCA TERMINATED NORMALLY****
TOTAL RUN TIME: 0 days 0 hours 0 minutes 32 seconds 854 msec
