                         Program Version 4.2.1 -  RELEASE  -
|  1> ! wB97X-D3 SP def2-SVP
|  2> %pal
|  3> nprocs 16
|  4> end
|  5>
|  6> * xyz 0 1
|  7> S 	 -106.608 	 39.5508 	 128.311
|  8> C 	 -106.144 	 39.5673 	 130.001
|  9> C 	 -107.164 	 39.8231 	 130.922
| 10> C 	 -108.378 	 39.9664 	 130.241
| 11> C 	 -108.245 	 39.8877 	 128.877
| 12> H 	 -109.292 	 40.0697 	 130.742
| 13> C 	 -106.982 	 40.0582 	 132.35
| 14> H 	 -106.548 	 41.0895 	 132.552
| 15> H 	 -106.213 	 39.2937 	 132.604
| 16> C 	 -108.236 	 39.8685 	 133.164
| 17> H 	 -108.082 	 40.079 	 134.197
| 18> H 	 -109.033 	 40.5697 	 132.837
| 19> C 	 -108.76 	 38.4527 	 133.153
| 20> H 	 -108.833 	 37.947 	 132.214
| 21> H 	 -108.253 	 37.7436 	 133.835
| 22> H 	 -109.813 	 38.5178 	 133.397
| 23> S 	 -109.135 	 41.1472 	 126.57
| 24> C 	 -110.683 	 40.6154 	 125.855
| 25> C 	 -111.254 	 39.6175 	 126.64
| 26> C 	 -110.492 	 39.2087 	 127.774
| 27> C 	 -109.34 	 39.9634 	 127.881
| 28> H 	 -112.18 	 39.2908 	 126.286
| 29> C 	 -110.918 	 38.095 	 128.592
| 30> H 	 -110.395 	 38.1644 	 129.548
| 31> H 	 -110.556 	 37.1377 	 128.242
| 32> C 	 -112.424 	 38.1244 	 128.873
| 33> H 	 -113.076 	 37.7062 	 128.058
| 34> H 	 -112.809 	 39.1321 	 128.922
| 35> C 	 -112.793 	 37.2831 	 130.125
| 36> H 	 -112.235 	 37.4589 	 131.006
| 37> H 	 -112.646 	 36.2141 	 129.939
| 38> H 	 -113.82 	 37.3777 	 130.287
| 39> H 	 -105.111 	 39.3479 	 130.246
| 40> H 	 -111.177 	 41.0834 	 124.995
| 41> *
| 42>
| 43>                          ****END OF INPUT****

CARTESIAN COORDINATES (ANGSTROEM)
---------------------------------
  S    -106.608000   39.550800  128.311000
  C    -106.144000   39.567300  130.001000
  C    -107.164000   39.823100  130.922000
  C    -108.378000   39.966400  130.241000
  C    -108.245000   39.887700  128.877000
  H    -109.292000   40.069700  130.742000
  C    -106.982000   40.058200  132.350000
  H    -106.548000   41.089500  132.552000
  H    -106.213000   39.293700  132.604000
  C    -108.236000   39.868500  133.164000
  H    -108.082000   40.079000  134.197000
  H    -109.033000   40.569700  132.837000
  C    -108.760000   38.452700  133.153000
  H    -108.833000   37.947000  132.214000
  H    -108.253000   37.743600  133.835000
  H    -109.813000   38.517800  133.397000
  S    -109.135000   41.147200  126.570000
  C    -110.683000   40.615400  125.855000
  C    -111.254000   39.617500  126.640000
  C    -110.492000   39.208700  127.774000
  C    -109.340000   39.963400  127.881000
  H    -112.180000   39.290800  126.286000
  C    -110.918000   38.095000  128.592000
  H    -110.395000   38.164400  129.548000
  H    -110.556000   37.137700  128.242000
  C    -112.424000   38.124400  128.873000
  H    -113.076000   37.706200  128.058000
  H    -112.809000   39.132100  128.922000
  C    -112.793000   37.283100  130.125000
  H    -112.235000   37.458900  131.006000
  H    -112.646000   36.214100  129.939000
  H    -113.820000   37.377700  130.287000
  H    -105.111000   39.347900  130.246000
  H    -111.177000   41.083400  124.995000

 Total Charge           Charge          ....    0
 Multiplicity           Mult            ....    1
 Number of Electrons    NEL             ....  134
 Basis Dimension        Dim             ....  322

ORBITAL ENERGIES
----------------

  NO   OCC          E(Eh)            E(eV)
   0   2.0000     -88.968903     -2420.9669
   1   2.0000     -88.962098     -2420.7818
   2   2.0000     -10.326723      -281.0044
   3   2.0000     -10.324238      -280.9368
   4   2.0000     -10.318154      -280.7712
   5   2.0000     -10.310591      -280.5654
   6   2.0000     -10.296861      -280.1918
   7   2.0000     -10.294636      -280.1313
   8   2.0000     -10.294194      -280.1193
   9   2.0000     -10.290167      -280.0097
  10   2.0000     -10.287423      -279.9350
  11   2.0000     -10.287252      -279.9304
  12   2.0000     -10.285967      -279.8954
  13   2.0000     -10.285105      -279.8719
  14   2.0000     -10.275149      -279.6010
  15   2.0000     -10.271662      -279.5061
  16   2.0000      -8.083314      -219.9582
  17   2.0000      -8.075913      -219.7568
  18   2.0000      -6.041574      -164.3996
  19   2.0000      -6.038105      -164.3052
  20   2.0000      -6.034502      -164.2072
  21   2.0000      -6.034132      -164.1971
  22   2.0000      -6.030546      -164.0995
  23   2.0000      -6.026655      -163.9936
  24   2.0000      -1.003397       -27.3038
  25   2.0000      -0.980846       -26.6902
  26   2.0000      -0.923301       -25.1243
  27   2.0000      -0.911989       -24.8165
  28   2.0000      -0.864410       -23.5218
  29   2.0000      -0.854174       -23.2433
  30   2.0000      -0.847733       -23.0680
  31   2.0000      -0.817278       -22.2393
  32   2.0000      -0.785244       -21.3676
  33   2.0000      -0.770340       -20.9620
  34   2.0000      -0.713270       -19.4091
  35   2.0000      -0.707417       -19.2498
  36   2.0000      -0.690995       -18.8029
  37   2.0000      -0.654904       -17.8208
  38   2.0000      -0.639196       -17.3934
  39   2.0000      -0.631420       -17.1818
  40   2.0000      -0.600770       -16.3478
  41   2.0000      -0.564777       -15.3684
  42   2.0000      -0.562616       -15.3096
  43   2.0000      -0.557378       -15.1670
  44   2.0000      -0.543104       -14.7786
  45   2.0000      -0.534957       -14.5569
  46   2.0000      -0.522583       -14.2202
  47   2.0000      -0.505821       -13.7641
  48   2.0000      -0.502065       -13.6619
  49   2.0000      -0.495697       -13.4886
  50   2.0000      -0.485027       -13.1983
  51   2.0000      -0.479987       -13.0611
  52   2.0000      -0.470390       -12.8000
  53   2.0000      -0.466198       -12.6859
  54   2.0000      -0.455796       -12.4028
  55   2.0000      -0.453950       -12.3526
  56   2.0000      -0.444595       -12.0981
  57   2.0000      -0.439272       -11.9532
  58   2.0000      -0.437879       -11.9153
  59   2.0000      -0.426670       -11.6103
  60   2.0000      -0.423034       -11.5113
  61   2.0000      -0.419829       -11.4241
  62   2.0000      -0.413986       -11.2651
  63   2.0000      -0.341428        -9.2907
  64   2.0000      -0.331101        -9.0097
  65   2.0000      -0.327868        -8.9218
  66   2.0000      -0.286510        -7.7963
  67   0.0000       0.034807         0.9471
  68   0.0000       0.064262         1.7487
  69   0.0000       0.108445         2.9509
  70   0.0000       0.119984         3.2649
  71   0.0000       0.124947         3.4000

MULLIKEN ATOMIC CHARGES
-----------------------
   0 S :    0.126558
   1 C :   -0.140642
   2 C :   -0.090364
   3 C :    0.046031
   4 C :   -0.155863
   5 H :   -0.011144
   6 C :    0.083561
   7 H :    0.062438
   8 H :    0.028850
   9 C :   -0.081525
  10 H :    0.024775
  11 H :    0.038735
  12 C :   -0.064785
  13 H :    0.029874
  14 H :    0.041359
  15 H :    0.021697
  16 S :    0.090370
  17 C :   -0.105855
  18 C :   -0.026532
  19 C :   -0.020154
  20 C :   -0.166539
  21 H :   -0.006979
  22 C :    0.143319
  23 H :   -0.001284
  24 H :    0.035697
  25 C :   -0.128563
  26 H :    0.034863
  27 H :    0.034109
  28 C :   -0.008807
  29 H :    0.022785
  30 H :    0.022692
  31 H :    0.018847
  32 H :    0.038389
  33 H :    0.064087
Sum of atomic charges:    0.0000000

LOEWDIN ATOMIC CHARGES
----------------------
   0 S :    0.405888
   1 C :   -0.194527
   2 C :   -0.066228
   3 C :   -0.055489
   4 C :   -0.185089
   5 H :    0.022583
   6 C :   -0.039350
   7 H :    0.045626
   8 H :    0.039120
   9 C :   -0.045702
  10 H :    0.026633
  11 H :    0.028308
  12 C :   -0.071103
  13 H :    0.019800
  14 H :    0.030408
  15 H :    0.028216
  16 S :    0.371784
  17 C :   -0.177547
  18 C :   -0.062025
  19 C :   -0.060539
  20 C :   -0.187734
  21 H :    0.020653
  22 C :   -0.033563
  23 H :    0.031492
  24 H :    0.037517
  25 C :   -0.039273
  26 H :    0.029319
  27 H :    0.022988
  28 C :   -0.058623
  29 H :    0.016751
  30 H :    0.027986
  31 H :    0.019412
  32 H :    0.018795
  33 H :    0.033512

  Mayer bond orders larger than 0.100000
B(  0-S ,  1-C ) :   1.1462 B(  0-S ,  4-C ) :   1.1603 B(  1-C ,  2-C ) :   1.5954
B(  1-C ,  4-C ) :   0.1011 B(  1-C , 32-H ) :   0.9698 B(  2-C ,  3-C ) :   1.2550
B(  2-C ,  6-C ) :   1.0063 B(  3-C ,  4-C ) :   1.5707 B(  3-C ,  5-H ) :   0.9986
B(  4-C , 20-C ) :   1.0046 B(  6-C ,  7-H ) :   0.9302 B(  6-C ,  8-H ) :   0.9312
B(  6-C ,  9-C ) :   1.0923 B(  9-C , 10-H ) :   0.9480 B(  9-C , 11-H ) :   0.9490
B(  9-C , 12-C ) :   1.0755 B( 12-C , 13-H ) :   0.9753 B( 12-C , 14-H ) :   0.9730
B( 12-C , 15-H ) :   0.9701 B( 16-S , 17-C ) :   1.1317 B( 16-S , 20-C ) :   1.1372
B( 17-C , 18-C ) :   1.6354 B( 17-C , 33-H ) :   0.9643 B( 18-C , 19-C ) :   1.1944
B( 18-C , 21-H ) :   0.9998 B( 19-C , 20-C ) :   1.6099 B( 19-C , 22-C ) :   1.0672
B( 22-C , 23-H ) :   0.9233 B( 22-C , 24-H ) :   0.9076 B( 22-C , 25-C ) :   1.0516
B( 25-C , 26-H ) :   0.9434 B( 25-C , 27-H ) :   0.9660 B( 25-C , 28-C ) :   1.0860
B( 28-C , 29-H ) :   0.9776 B( 28-C , 30-H ) :   0.9712 B( 28-C , 31-H ) :   0.9724

Dispersion correction           -0.014723454
FINAL SINGLE POINT ENERGY     -1339.875713596242

DIPOLE MOMENT
-------------
                                X             Y             Z
Electronic contribution:     15.56801      12.53191     -23.72417
Nuclear contribution   :    -15.96649     -12.83636      24.28245
                        -----------------------------------------
Total Dipole Moment    :     -0.39848      -0.30445       0.55828
                        -----------------------------------------
Magnitude (a.u.)       :      0.75043
Magnitude (Debye)      :      1.90745

Rotational constants in cm-1:     0.016172     0.010686     0.007087
Rotational constants in MHz :   484.830563   320.345982   212.455042

                             ****ORCA TERMINATED NORMALLY****
TOTAL RUN TIME: 0 days 0 hours 0 minutes 35 seconds 504 msec
