                         Program Version 4.2.1 -  RELEASE  -
|  1> ! wB97X-D3 SP def2-SVP
|  2> %pal
|  3> nprocs 16
|  4> end
|  5>
|  6> * xyz 0 1
|  7> S 	 -47.8379 	 66.5461 	 125.391
|  8> C 	 -47.0442 	 66.0539 	 123.858
|  9> C 	 -46.4059 	 64.7918 	 124.099
| 10> C 	 -46.389 	 64.3985 	 125.428
| 11> C 	 -46.9922 	 65.3214 	 126.321
| 12> H 	 -46.0925 	 63.4511 	 125.825
| 13> C 	 -45.6826 	 63.8991 	 123.115
| 14> H 	 -46.2643 	 63.9478 	 122.206
| 15> H 	 -45.7318 	 62.8552 	 123.3
| 16> C 	 -44.2234 	 64.1904 	 122.68
| 17> H 	 -44.0225 	 65.1883 	 122.355
| 18> H 	 -43.5829 	 63.9221 	 123.545
| 19> C 	 -43.8542 	 63.2046 	 121.612
| 20> H 	 -43.7276 	 62.2202 	 121.982
| 21> H 	 -44.6213 	 63.2158 	 120.835
| 22> H 	 -42.929 	 63.5546 	 121.161
| 23> S 	 -45.4262 	 65.4612 	 128.619
| 24> C 	 -46.2287 	 65.4963 	 130.218
| 25> C 	 -47.615 	 65.6599 	 130.045
| 26> C 	 -48.078 	 65.4666 	 128.691
| 27> C 	 -47.0026 	 65.3351 	 127.802
| 28> H 	 -48.2569 	 65.8795 	 130.855
| 29> C 	 -49.5355 	 65.7793 	 128.321
| 30> H 	 -49.6457 	 65.959 	 127.225
| 31> H 	 -49.7299 	 66.8111 	 128.731
| 32> C 	 -50.6181 	 64.8028 	 128.8
| 33> H 	 -50.3261 	 64.6915 	 129.875
| 34> H 	 -50.569 	 63.8045 	 128.331
| 35> C 	 -52.0478 	 65.302 	 128.702
| 36> H 	 -52.1789 	 66.2816 	 129.087
| 37> H 	 -52.7344 	 64.5526 	 129.117
| 38> H 	 -52.3995 	 65.3829 	 127.675
| 39> H 	 -47.3835 	 66.4122 	 122.908
| 40> H 	 -45.7002 	 65.5343 	 131.148
| 41> *
| 42>
| 43>                          ****END OF INPUT****

CARTESIAN COORDINATES (ANGSTROEM)
---------------------------------
  S    -47.837900   66.546100  125.391000
  C    -47.044200   66.053900  123.858000
  C    -46.405900   64.791800  124.099000
  C    -46.389000   64.398500  125.428000
  C    -46.992200   65.321400  126.321000
  H    -46.092500   63.451100  125.825000
  C    -45.682600   63.899100  123.115000
  H    -46.264300   63.947800  122.206000
  H    -45.731800   62.855200  123.300000
  C    -44.223400   64.190400  122.680000
  H    -44.022500   65.188300  122.355000
  H    -43.582900   63.922100  123.545000
  C    -43.854200   63.204600  121.612000
  H    -43.727600   62.220200  121.982000
  H    -44.621300   63.215800  120.835000
  H    -42.929000   63.554600  121.161000
  S    -45.426200   65.461200  128.619000
  C    -46.228700   65.496300  130.218000
  C    -47.615000   65.659900  130.045000
  C    -48.078000   65.466600  128.691000
  C    -47.002600   65.335100  127.802000
  H    -48.256900   65.879500  130.855000
  C    -49.535500   65.779300  128.321000
  H    -49.645700   65.959000  127.225000
  H    -49.729900   66.811100  128.731000
  C    -50.618100   64.802800  128.800000
  H    -50.326100   64.691500  129.875000
  H    -50.569000   63.804500  128.331000
  C    -52.047800   65.302000  128.702000
  H    -52.178900   66.281600  129.087000
  H    -52.734400   64.552600  129.117000
  H    -52.399500   65.382900  127.675000
  H    -47.383500   66.412200  122.908000
  H    -45.700200   65.534300  131.148000

 Total Charge           Charge          ....    0
 Multiplicity           Mult            ....    1
 Number of Electrons    NEL             ....  134
 Basis Dimension        Dim             ....  322

ORBITAL ENERGIES
----------------

  NO   OCC          E(Eh)            E(eV)
   0   2.0000     -88.969290     -2420.9775
   1   2.0000     -88.968845     -2420.9654
   2   2.0000     -10.334370      -281.2125
   3   2.0000     -10.333803      -281.1971
   4   2.0000     -10.324101      -280.9331
   5   2.0000     -10.321490      -280.8620
   6   2.0000     -10.309108      -280.5251
   7   2.0000     -10.305926      -280.4385
   8   2.0000     -10.298888      -280.2470
   9   2.0000     -10.298138      -280.2266
  10   2.0000     -10.291591      -280.0484
  11   2.0000     -10.289096      -279.9805
  12   2.0000     -10.285587      -279.8850
  13   2.0000     -10.282388      -279.7980
  14   2.0000     -10.274776      -279.5909
  15   2.0000     -10.271258      -279.4951
  16   2.0000      -8.082472      -219.9352
  17   2.0000      -8.082278      -219.9300
  18   2.0000      -6.040944      -164.3825
  19   2.0000      -6.040940      -164.3823
  20   2.0000      -6.037053      -164.2766
  21   2.0000      -6.037028      -164.2759
  22   2.0000      -6.033508      -164.1801
  23   2.0000      -6.032873      -164.1628
  24   2.0000      -0.996963       -27.1287
  25   2.0000      -0.975101       -26.5338
  26   2.0000      -0.914398       -24.8820
  27   2.0000      -0.905263       -24.6335
  28   2.0000      -0.865910       -23.5626
  29   2.0000      -0.851684       -23.1755
  30   2.0000      -0.846963       -23.0470
  31   2.0000      -0.809238       -22.0205
  32   2.0000      -0.781390       -21.2627
  33   2.0000      -0.769242       -20.9321
  34   2.0000      -0.702311       -19.1109
  35   2.0000      -0.699465       -19.0334
  36   2.0000      -0.691230       -18.8093
  37   2.0000      -0.666012       -18.1231
  38   2.0000      -0.642619       -17.4866
  39   2.0000      -0.616969       -16.7886
  40   2.0000      -0.595572       -16.2063
  41   2.0000      -0.578932       -15.7535
  42   2.0000      -0.563584       -15.3359
  43   2.0000      -0.559328       -15.2201
  44   2.0000      -0.525021       -14.2865
  45   2.0000      -0.521619       -14.1940
  46   2.0000      -0.518034       -14.0964
  47   2.0000      -0.513439       -13.9714
  48   2.0000      -0.510097       -13.8804
  49   2.0000      -0.498327       -13.5602
  50   2.0000      -0.482950       -13.1417
  51   2.0000      -0.480268       -13.0687
  52   2.0000      -0.468455       -12.7473
  53   2.0000      -0.463432       -12.6106
  54   2.0000      -0.455822       -12.4036
  55   2.0000      -0.450065       -12.2469
  56   2.0000      -0.448433       -12.2025
  57   2.0000      -0.437493       -11.9048
  58   2.0000      -0.429234       -11.6801
  59   2.0000      -0.426296       -11.6001
  60   2.0000      -0.423898       -11.5349
  61   2.0000      -0.415413       -11.3040
  62   2.0000      -0.403357       -10.9759
  63   2.0000      -0.334132        -9.0922
  64   2.0000      -0.333328        -9.0703
  65   2.0000      -0.328646        -8.9429
  66   2.0000      -0.292418        -7.9571
  67   0.0000       0.019619         0.5339
  68   0.0000       0.057884         1.5751
  69   0.0000       0.100113         2.7242
  70   0.0000       0.101560         2.7636
  71   0.0000       0.131587         3.5807

MULLIKEN ATOMIC CHARGES
-----------------------
   0 S :    0.100724
   1 C :   -0.108355
   2 C :   -0.059922
   3 C :    0.035421
   4 C :   -0.165702
   5 H :    0.010708
   6 C :    0.036035
   7 H :    0.003671
   8 H :    0.009017
   9 C :   -0.042471
  10 H :    0.027862
  11 H :    0.029347
  12 C :   -0.034439
  13 H :    0.027386
  14 H :    0.019828
  15 H :    0.030068
  16 S :    0.109979
  17 C :   -0.094231
  18 C :   -0.019529
  19 C :   -0.003796
  20 C :   -0.150980
  21 H :    0.014652
  22 C :    0.002460
  23 H :    0.023588
  24 H :    0.042385
  25 C :   -0.079902
  26 H :    0.025929
  27 H :    0.040952
  28 C :   -0.025390
  29 H :    0.020950
  30 H :    0.039135
  31 H :    0.022625
  32 H :    0.053022
  33 H :    0.058972
Sum of atomic charges:   -0.0000000

LOEWDIN ATOMIC CHARGES
----------------------
   0 S :    0.410574
   1 C :   -0.193236
   2 C :   -0.055916
   3 C :   -0.062678
   4 C :   -0.189667
   5 H :    0.030840
   6 C :   -0.036958
   7 H :    0.024681
   8 H :    0.027319
   9 C :   -0.031424
  10 H :    0.020227
  11 H :    0.027958
  12 C :   -0.058194
  13 H :    0.019651
  14 H :    0.021138
  15 H :    0.028138
  16 S :    0.388854
  17 C :   -0.171625
  18 C :   -0.059010
  19 C :   -0.057278
  20 C :   -0.191872
  21 H :    0.023685
  22 C :   -0.043385
  23 H :    0.017075
  24 H :    0.039771
  25 C :   -0.045600
  26 H :    0.024959
  27 H :    0.030405
  28 C :   -0.065501
  29 H :    0.019129
  30 H :    0.032429
  31 H :    0.025315
  32 H :    0.023667
  33 H :    0.026529

  Mayer bond orders larger than 0.100000
B(  0-S ,  1-C ) :   1.1483 B(  0-S ,  4-C ) :   1.1756 B(  1-C ,  2-C ) :   1.5337
B(  1-C ,  4-C ) :   0.1252 B(  1-C , 32-H ) :   0.9721 B(  2-C ,  3-C ) :   1.2946
B(  2-C ,  6-C ) :   1.0225 B(  3-C ,  4-C ) :   1.5079 B(  3-C ,  5-H ) :   1.0031
B(  4-C , 20-C ) :   1.0310 B(  6-C ,  7-H ) :   0.9345 B(  6-C ,  8-H ) :   0.9459
B(  6-C ,  9-C ) :   1.0687 B(  9-C , 10-H ) :   0.9586 B(  9-C , 11-H ) :   0.9521
B(  9-C , 12-C ) :   1.0823 B( 12-C , 13-H ) :   0.9755 B( 12-C , 14-H ) :   0.9746
B( 12-C , 15-H ) :   0.9713 B( 16-S , 17-C ) :   1.1422 B( 16-S , 20-C ) :   1.1450
B( 17-C , 18-C ) :   1.6028 B( 17-C , 20-C ) :   0.1002 B( 17-C , 33-H ) :   0.9736
B( 18-C , 19-C ) :   1.2369 B( 18-C , 21-H ) :   0.9879 B( 19-C , 20-C ) :   1.5831
B( 19-C , 22-C ) :   1.0347 B( 22-C , 23-H ) :   0.9313 B( 22-C , 24-H ) :   0.9431
B( 22-C , 25-C ) :   1.0515 B( 25-C , 26-H ) :   0.9597 B( 25-C , 27-H ) :   0.9517
B( 25-C , 28-C ) :   1.0909 B( 28-C , 29-H ) :   0.9727 B( 28-C , 30-H ) :   0.9718
B( 28-C , 31-H ) :   0.9713

Dispersion correction           -0.013196534
FINAL SINGLE POINT ENERGY     -1339.863998159383

DIPOLE MOMENT
-------------
                                X             Y             Z
Electronic contribution:      6.99045       9.43565      10.50263
Nuclear contribution   :     -7.22017      -9.65703     -10.58419
                        -----------------------------------------
Total Dipole Moment    :     -0.22972      -0.22138      -0.08156
                        -----------------------------------------
Magnitude (a.u.)       :      0.32929
Magnitude (Debye)      :      0.83698

Rotational constants in cm-1:     0.021327     0.007055     0.005838
Rotational constants in MHz :   639.366041   211.488951   175.019779

                             ****ORCA TERMINATED NORMALLY****
TOTAL RUN TIME: 0 days 0 hours 0 minutes 31 seconds 67 msec
