                         Program Version 4.2.1 -  RELEASE  -
|  1> ! wB97X-D3 SP def2-SVP
|  2> %pal
|  3> nprocs 16
|  4> end
|  5>
|  6> * xyz 0 1
|  7> S 	 -84.2377 	 52.8144 	 136.821
|  8> C 	 -84.9659 	 52.815 	 138.399
|  9> C 	 -84.3673 	 53.6555 	 139.283
| 10> C 	 -83.1067 	 54.1568 	 138.722
| 11> C 	 -82.8557 	 53.7145 	 137.421
| 12> H 	 -82.3534 	 54.7625 	 139.212
| 13> C 	 -84.8677 	 53.9174 	 140.764
| 14> H 	 -85.9203 	 53.9005 	 140.752
| 15> H 	 -84.4803 	 54.9025 	 141.187
| 16> C 	 -84.4758 	 52.8737 	 141.85
| 17> H 	 -84.1424 	 52.0003 	 141.207
| 18> H 	 -83.572 	 53.128 	 142.325
| 19> C 	 -85.72 	 52.5582 	 142.629
| 20> H 	 -85.4464 	 51.7984 	 143.394
| 21> H 	 -86.1648 	 53.4929 	 143.037
| 22> H 	 -86.396 	 52.0426 	 141.918
| 23> S 	 -82.4648 	 54.9064 	 135.02
| 24> C 	 -80.883 	 55.362 	 134.442
| 25> C 	 -79.9492 	 54.9781 	 135.404
| 26> C 	 -80.4196 	 54.2331 	 136.515
| 27> C 	 -81.8204 	 54.1803 	 136.478
| 28> H 	 -78.9352 	 55.1522 	 135.101
| 29> C 	 -79.508 	 53.4759 	 137.444
| 30> H 	 -78.817 	 52.8513 	 136.794
| 31> H 	 -80.144 	 52.7606 	 137.992
| 32> C 	 -78.6577 	 54.2337 	 138.475
| 33> H 	 -77.8239 	 54.6809 	 137.98
| 34> H 	 -78.291 	 53.4359 	 139.192
| 35> C 	 -79.3707 	 55.3426 	 139.315
| 36> H 	 -78.7247 	 55.9649 	 139.982
| 37> H 	 -80.1334 	 54.8941 	 139.943
| 38> H 	 -79.8836 	 55.9878 	 138.532
| 39> H 	 -85.795 	 52.2856 	 138.639
| 40> H 	 -80.4296 	 55.8747 	 133.593
| 41> *
| 42>
| 43>                          ****END OF INPUT****

CARTESIAN COORDINATES (ANGSTROEM)
---------------------------------
  S    -84.237700   52.814400  136.821000
  C    -84.965900   52.815000  138.399000
  C    -84.367300   53.655500  139.283000
  C    -83.106700   54.156800  138.722000
  C    -82.855700   53.714500  137.421000
  H    -82.353400   54.762500  139.212000
  C    -84.867700   53.917400  140.764000
  H    -85.920300   53.900500  140.752000
  H    -84.480300   54.902500  141.187000
  C    -84.475800   52.873700  141.850000
  H    -84.142400   52.000300  141.207000
  H    -83.572000   53.128000  142.325000
  C    -85.720000   52.558200  142.629000
  H    -85.446400   51.798400  143.394000
  H    -86.164800   53.492900  143.037000
  H    -86.396000   52.042600  141.918000
  S    -82.464800   54.906400  135.020000
  C    -80.883000   55.362000  134.442000
  C    -79.949200   54.978100  135.404000
  C    -80.419600   54.233100  136.515000
  C    -81.820400   54.180300  136.478000
  H    -78.935200   55.152200  135.101000
  C    -79.508000   53.475900  137.444000
  H    -78.817000   52.851300  136.794000
  H    -80.144000   52.760600  137.992000
  C    -78.657700   54.233700  138.475000
  H    -77.823900   54.680900  137.980000
  H    -78.291000   53.435900  139.192000
  C    -79.370700   55.342600  139.315000
  H    -78.724700   55.964900  139.982000
  H    -80.133400   54.894100  139.943000
  H    -79.883600   55.987800  138.532000
  H    -85.795000   52.285600  138.639000
  H    -80.429600   55.874700  133.593000

 Total Charge           Charge          ....    0
 Multiplicity           Mult            ....    1
 Number of Electrons    NEL             ....  134
 Basis Dimension        Dim             ....  322

ORBITAL ENERGIES
----------------

  NO   OCC          E(Eh)            E(eV)
   0   2.0000     -88.968797     -2420.9641
   1   2.0000     -88.966451     -2420.9002
   2   2.0000     -10.333043      -281.1764
   3   2.0000     -10.331600      -281.1371
   4   2.0000     -10.316172      -280.7173
   5   2.0000     -10.308370      -280.5050
   6   2.0000     -10.307121      -280.4710
   7   2.0000     -10.304699      -280.4051
   8   2.0000     -10.300942      -280.3029
   9   2.0000     -10.298353      -280.2324
  10   2.0000     -10.298269      -280.2302
  11   2.0000     -10.291141      -280.0362
  12   2.0000     -10.288688      -279.9694
  13   2.0000     -10.288665      -279.9688
  14   2.0000     -10.286177      -279.9011
  15   2.0000     -10.283513      -279.8286
  16   2.0000      -8.083053      -219.9510
  17   2.0000      -8.081465      -219.9078
  18   2.0000      -6.041686      -164.4026
  19   2.0000      -6.039988      -164.3564
  20   2.0000      -6.037453      -164.2875
  21   2.0000      -6.036039      -164.2490
  22   2.0000      -6.033842      -164.1892
  23   2.0000      -6.032079      -164.1412
  24   2.0000      -1.006599       -27.3909
  25   2.0000      -0.983786       -26.7702
  26   2.0000      -0.913333       -24.8530
  27   2.0000      -0.905902       -24.6508
  28   2.0000      -0.871714       -23.7205
  29   2.0000      -0.847336       -23.0572
  30   2.0000      -0.842491       -22.9254
  31   2.0000      -0.815475       -22.1902
  32   2.0000      -0.779684       -21.2163
  33   2.0000      -0.773092       -21.0369
  34   2.0000      -0.709653       -19.3107
  35   2.0000      -0.698201       -18.9990
  36   2.0000      -0.690816       -18.7981
  37   2.0000      -0.657115       -17.8810
  38   2.0000      -0.647619       -17.6226
  39   2.0000      -0.616953       -16.7881
  40   2.0000      -0.589088       -16.0299
  41   2.0000      -0.573999       -15.6193
  42   2.0000      -0.560570       -15.2539
  43   2.0000      -0.548627       -14.9289
  44   2.0000      -0.539907       -14.6916
  45   2.0000      -0.526575       -14.3288
  46   2.0000      -0.518563       -14.1108
  47   2.0000      -0.512629       -13.9493
  48   2.0000      -0.505529       -13.7561
  49   2.0000      -0.494622       -13.4594
  50   2.0000      -0.490739       -13.3537
  51   2.0000      -0.480321       -13.0702
  52   2.0000      -0.470965       -12.8156
  53   2.0000      -0.467095       -12.7103
  54   2.0000      -0.462870       -12.5953
  55   2.0000      -0.451297       -12.2804
  56   2.0000      -0.443942       -12.0803
  57   2.0000      -0.438240       -11.9251
  58   2.0000      -0.431310       -11.7365
  59   2.0000      -0.422367       -11.4932
  60   2.0000      -0.417946       -11.3729
  61   2.0000      -0.412071       -11.2130
  62   2.0000      -0.405206       -11.0262
  63   2.0000      -0.348376        -9.4798
  64   2.0000      -0.331391        -9.0176
  65   2.0000      -0.329450        -8.9648
  66   2.0000      -0.293341        -7.9822
  67   0.0000       0.030854         0.8396
  68   0.0000       0.065454         1.7811
  69   0.0000       0.104961         2.8561
  70   0.0000       0.121227         3.2987
  71   0.0000       0.131548         3.5796

MULLIKEN ATOMIC CHARGES
-----------------------
   0 S :    0.105023
   1 C :   -0.071847
   2 C :   -0.082471
   3 C :    0.045930
   4 C :   -0.156223
   5 H :   -0.001805
   6 C :    0.049890
   7 H :    0.013405
   8 H :    0.042626
   9 C :   -0.076437
  10 H :    0.031359
  11 H :    0.021162
  12 C :   -0.069878
  13 H :    0.043911
  14 H :    0.054478
  15 H :    0.040654
  16 S :    0.118069
  17 C :   -0.085788
  18 C :   -0.065292
  19 C :   -0.027061
  20 C :   -0.163370
  21 H :    0.007915
  22 C :    0.053374
  23 H :    0.048641
  24 H :    0.027404
  25 C :   -0.079539
  26 H :    0.028238
  27 H :    0.040736
  28 C :   -0.092126
  29 H :    0.048515
  30 H :    0.035789
  31 H :    0.056235
  32 H :    0.001769
  33 H :    0.056712
Sum of atomic charges:   -0.0000000

LOEWDIN ATOMIC CHARGES
----------------------
   0 S :    0.403741
   1 C :   -0.178543
   2 C :   -0.058139
   3 C :   -0.055502
   4 C :   -0.197545
   5 H :    0.028379
   6 C :   -0.025828
   7 H :    0.019906
   8 H :    0.038901
   9 C :   -0.049828
  10 H :    0.029652
  11 H :    0.013332
  12 C :   -0.067275
  13 H :    0.031196
  14 H :    0.030991
  15 H :    0.030940
  16 S :    0.416823
  17 C :   -0.204804
  18 C :   -0.073257
  19 C :   -0.069190
  20 C :   -0.193051
  21 H :    0.024439
  22 C :   -0.034826
  23 H :    0.044774
  24 H :    0.032370
  25 C :   -0.043056
  26 H :    0.016904
  27 H :    0.032156
  28 C :   -0.075748
  29 H :    0.031996
  30 H :    0.018065
  31 H :    0.034444
  32 H :    0.006030
  33 H :    0.041554

  Mayer bond orders larger than 0.100000
B(  0-S ,  1-C ) :   1.1364 B(  0-S ,  4-C ) :   1.1412 B(  1-C ,  2-C ) :   1.6312
B(  1-C , 32-H ) :   0.9803 B(  2-C ,  3-C ) :   1.2112 B(  2-C ,  6-C ) :   1.0301
B(  3-C ,  4-C ) :   1.5914 B(  3-C ,  5-H ) :   0.9929 B(  4-C , 20-C ) :   1.0177
B(  6-C ,  7-H ) :   0.9479 B(  6-C ,  8-H ) :   0.9435 B(  6-C ,  9-C ) :   1.0351
B(  9-C , 10-H ) :   0.9630 B(  9-C , 11-H ) :   0.9611 B(  9-C , 12-C ) :   1.0702
B( 12-C , 13-H ) :   0.9713 B( 12-C , 14-H ) :   0.9750 B( 12-C , 15-H ) :   0.9724
B( 16-S , 17-C ) :   1.1377 B( 16-S , 20-C ) :   1.1589 B( 17-C , 18-C ) :   1.6340
B( 17-C , 20-C ) :   0.1022 B( 17-C , 33-H ) :   0.9642 B( 18-C , 19-C ) :   1.2345
B( 18-C , 21-H ) :   0.9858 B( 19-C , 20-C ) :   1.5737 B( 19-C , 22-C ) :   1.0427
B( 22-C , 23-H ) :   0.9400 B( 22-C , 24-H ) :   0.9347 B( 22-C , 25-C ) :   1.0622
B( 25-C , 26-H ) :   0.9590 B( 25-C , 27-H ) :   0.9569 B( 25-C , 28-C ) :   1.0722
B( 28-C , 29-H ) :   0.9725 B( 28-C , 30-H ) :   0.9704 B( 28-C , 31-H ) :   0.9692

Dispersion correction           -0.014373189
FINAL SINGLE POINT ENERGY     -1339.859185239198

DIPOLE MOMENT
-------------
                                X             Y             Z
Electronic contribution:     -6.71874       0.78039     -27.69644
Nuclear contribution   :      7.03177      -0.79842      28.24174
                        -----------------------------------------
Total Dipole Moment    :      0.31303      -0.01803       0.54531
                        -----------------------------------------
Magnitude (a.u.)       :      0.62903
Magnitude (Debye)      :      1.59886

Rotational constants in cm-1:     0.020527     0.008183     0.006309
Rotational constants in MHz :   615.385373   245.329600   189.137500

                             ****ORCA TERMINATED NORMALLY****
TOTAL RUN TIME: 0 days 0 hours 0 minutes 34 seconds 495 msec
