                         Program Version 4.2.1 -  RELEASE  -
|  1> ! wB97X-D3 SP def2-SVP
|  2> %pal
|  3> nprocs 16
|  4> end
|  5>
|  6> * xyz 0 1
|  7> S 	 -11.9842 	 52.8609 	 34.0423
|  8> C 	 -10.9438 	 53.4403 	 32.7922
|  9> C 	 -10.0126 	 52.5304 	 32.4269
| 10> C 	 -9.81328 	 51.5686 	 33.3613
| 11> C 	 -10.7539 	 51.6295 	 34.3619
| 12> H 	 -9.08323 	 50.8173 	 33.3155
| 13> C 	 -9.02878 	 52.6506 	 31.2437
| 14> H 	 -9.51188 	 53.2181 	 30.469
| 15> H 	 -8.83041 	 51.6786 	 30.7754
| 16> C 	 -7.62904 	 53.34 	 31.4923
| 17> H 	 -7.85692 	 54.4057 	 31.7619
| 18> H 	 -7.14316 	 52.7746 	 32.2398
| 19> C 	 -6.60008 	 53.359 	 30.3945
| 20> H 	 -6.72033 	 52.4483 	 29.7551
| 21> H 	 -6.67231 	 54.2354 	 29.7489
| 22> H 	 -5.59507 	 53.3983 	 30.8664
| 23> S 	 -11.1908 	 51.548 	 37.0187
| 24> C 	 -10.9283 	 50.0413 	 37.8759
| 25> C 	 -10.747 	 49.0008 	 37.0124
| 26> C 	 -10.6751 	 49.3548 	 35.6447
| 27> C 	 -10.8272 	 50.7101 	 35.4547
| 28> H 	 -10.6742 	 47.9852 	 37.4432
| 29> C 	 -10.1783 	 48.3693 	 34.59
| 30> H 	 -10.0104 	 47.3651 	 35.0133
| 31> H 	 -9.17063 	 48.6803 	 34.2583
| 32> C 	 -11.2002 	 48.1443 	 33.4411
| 33> H 	 -11.5576 	 49.0509 	 32.9846
| 34> H 	 -12.0573 	 47.7272 	 33.9354
| 35> C 	 -10.6751 	 47.3783 	 32.2049
| 36> H 	 -10.3554 	 46.3328 	 32.4842
| 37> H 	 -9.75358 	 47.8094 	 31.7393
| 38> H 	 -11.4475 	 47.4051 	 31.4534
| 39> H 	 -10.9815 	 54.3023 	 32.1376
| 40> H 	 -11.0544 	 50.0461 	 38.9544
| 41> *
| 42>
| 43>                          ****END OF INPUT****

CARTESIAN COORDINATES (ANGSTROEM)
---------------------------------
  S    -11.984200   52.860900   34.042300
  C    -10.943800   53.440300   32.792200
  C    -10.012600   52.530400   32.426900
  C     -9.813280   51.568600   33.361300
  C    -10.753900   51.629500   34.361900
  H     -9.083230   50.817300   33.315500
  C     -9.028780   52.650600   31.243700
  H     -9.511880   53.218100   30.469000
  H     -8.830410   51.678600   30.775400
  C     -7.629040   53.340000   31.492300
  H     -7.856920   54.405700   31.761900
  H     -7.143160   52.774600   32.239800
  C     -6.600080   53.359000   30.394500
  H     -6.720330   52.448300   29.755100
  H     -6.672310   54.235400   29.748900
  H     -5.595070   53.398300   30.866400
  S    -11.190800   51.548000   37.018700
  C    -10.928300   50.041300   37.875900
  C    -10.747000   49.000800   37.012400
  C    -10.675100   49.354800   35.644700
  C    -10.827200   50.710100   35.454700
  H    -10.674200   47.985200   37.443200
  C    -10.178300   48.369300   34.590000
  H    -10.010400   47.365100   35.013300
  H     -9.170630   48.680300   34.258300
  C    -11.200200   48.144300   33.441100
  H    -11.557600   49.050900   32.984600
  H    -12.057300   47.727200   33.935400
  C    -10.675100   47.378300   32.204900
  H    -10.355400   46.332800   32.484200
  H     -9.753580   47.809400   31.739300
  H    -11.447500   47.405100   31.453400
  H    -10.981500   54.302300   32.137600
  H    -11.054400   50.046100   38.954400

 Total Charge           Charge          ....    0
 Multiplicity           Mult            ....    1
 Number of Electrons    NEL             ....  134
 Basis Dimension        Dim             ....  322

ORBITAL ENERGIES
----------------

  NO   OCC          E(Eh)            E(eV)
   0   2.0000     -88.973114     -2421.0815
   1   2.0000     -88.959342     -2420.7068
   2   2.0000     -10.326435      -280.9966
   3   2.0000     -10.325003      -280.9576
   4   2.0000     -10.316021      -280.7132
   5   2.0000     -10.305777      -280.4344
   6   2.0000     -10.305127      -280.4168
   7   2.0000     -10.298594      -280.2390
   8   2.0000     -10.294196      -280.1193
   9   2.0000     -10.293127      -280.0902
  10   2.0000     -10.288881      -279.9747
  11   2.0000     -10.285343      -279.8784
  12   2.0000     -10.284724      -279.8616
  13   2.0000     -10.282565      -279.8028
  14   2.0000     -10.282360      -279.7972
  15   2.0000     -10.281047      -279.7615
  16   2.0000      -8.087489      -220.0718
  17   2.0000      -8.073841      -219.7004
  18   2.0000      -6.045939      -164.5184
  19   2.0000      -6.042388      -164.4217
  20   2.0000      -6.037978      -164.3017
  21   2.0000      -6.032276      -164.1466
  22   2.0000      -6.028458      -164.0427
  23   2.0000      -6.024620      -163.9383
  24   2.0000      -1.013941       -27.5907
  25   2.0000      -0.987030       -26.8584
  26   2.0000      -0.907357       -24.6905
  27   2.0000      -0.904240       -24.6056
  28   2.0000      -0.873008       -23.7557
  29   2.0000      -0.860005       -23.4019
  30   2.0000      -0.848058       -23.0768
  31   2.0000      -0.813143       -22.1267
  32   2.0000      -0.782815       -21.3015
  33   2.0000      -0.771986       -21.0068
  34   2.0000      -0.711008       -19.3475
  35   2.0000      -0.694528       -18.8991
  36   2.0000      -0.691423       -18.8146
  37   2.0000      -0.665360       -18.1054
  38   2.0000      -0.636981       -17.3331
  39   2.0000      -0.626731       -17.0542
  40   2.0000      -0.597453       -16.2575
  41   2.0000      -0.572620       -15.5818
  42   2.0000      -0.563320       -15.3287
  43   2.0000      -0.557129       -15.1603
  44   2.0000      -0.528752       -14.3881
  45   2.0000      -0.522095       -14.2069
  46   2.0000      -0.514595       -14.0028
  47   2.0000      -0.510193       -13.8831
  48   2.0000      -0.505867       -13.7653
  49   2.0000      -0.496899       -13.5213
  50   2.0000      -0.493451       -13.4275
  51   2.0000      -0.487481       -13.2650
  52   2.0000      -0.475505       -12.9391
  53   2.0000      -0.464294       -12.6341
  54   2.0000      -0.457388       -12.4462
  55   2.0000      -0.448572       -12.2063
  56   2.0000      -0.441806       -12.0222
  57   2.0000      -0.439337       -11.9550
  58   2.0000      -0.431192       -11.7333
  59   2.0000      -0.425459       -11.5773
  60   2.0000      -0.420593       -11.4449
  61   2.0000      -0.413652       -11.2561
  62   2.0000      -0.409436       -11.1413
  63   2.0000      -0.347154        -9.4465
  64   2.0000      -0.337598        -9.1865
  65   2.0000      -0.332068        -9.0360
  66   2.0000      -0.285650        -7.7729
  67   0.0000       0.022241         0.6052
  68   0.0000       0.069468         1.8903
  69   0.0000       0.099966         2.7202
  70   0.0000       0.116532         3.1710
  71   0.0000       0.135906         3.6982

MULLIKEN ATOMIC CHARGES
-----------------------
   0 S :    0.138615
   1 C :   -0.099343
   2 C :   -0.063595
   3 C :    0.025712
   4 C :   -0.107558
   5 H :   -0.021739
   6 C :    0.051482
   7 H :    0.008653
   8 H :    0.017329
   9 C :   -0.067544
  10 H :    0.036159
  11 H :    0.019276
  12 C :   -0.058812
  13 H :    0.031470
  14 H :    0.032808
  15 H :    0.043611
  16 S :    0.073739
  17 C :   -0.093229
  18 C :   -0.045341
  19 C :    0.009176
  20 C :   -0.180619
  21 H :    0.028092
  22 C :    0.040613
  23 H :    0.016933
  24 H :    0.038825
  25 C :   -0.075293
  26 H :    0.034466
  27 H :    0.026540
  28 C :   -0.053215
  29 H :    0.030769
  30 H :    0.031416
  31 H :    0.038746
  32 H :    0.030104
  33 H :    0.061756
Sum of atomic charges:    0.0000000

LOEWDIN ATOMIC CHARGES
----------------------
   0 S :    0.413367
   1 C :   -0.202360
   2 C :   -0.068378
   3 C :   -0.050575
   4 C :   -0.185917
   5 H :    0.023156
   6 C :   -0.031165
   7 H :    0.021131
   8 H :    0.026951
   9 C :   -0.043179
  10 H :    0.030335
  11 H :    0.017446
  12 C :   -0.069977
  13 H :    0.027696
  14 H :    0.022624
  15 H :    0.034186
  16 S :    0.371133
  17 C :   -0.175835
  18 C :   -0.077745
  19 C :   -0.057513
  20 C :   -0.168322
  21 H :    0.037608
  22 C :   -0.028749
  23 H :    0.030800
  24 H :    0.028883
  25 C :   -0.041375
  26 H :    0.022874
  27 H :    0.024873
  28 C :   -0.067906
  29 H :    0.024713
  30 H :    0.027755
  31 H :    0.025833
  32 H :    0.029565
  33 H :    0.028067

  Mayer bond orders larger than 0.100000
B(  0-S ,  1-C ) :   1.1293 B(  0-S ,  4-C ) :   1.1413 B(  1-C ,  2-C ) :   1.6163
B(  1-C , 32-H ) :   0.9581 B(  2-C ,  3-C ) :   1.2548 B(  2-C ,  6-C ) :   1.0415
B(  3-C ,  4-C ) :   1.5381 B(  3-C ,  5-H ) :   1.0178 B(  4-C , 20-C ) :   1.0806
B(  6-C ,  7-H ) :   0.9369 B(  6-C ,  8-H ) :   0.9359 B(  6-C ,  9-C ) :   1.0662
B(  9-C , 10-H ) :   0.9556 B(  9-C , 11-H ) :   0.9610 B(  9-C , 12-C ) :   1.0789
B( 12-C , 13-H ) :   0.9719 B( 12-C , 14-H ) :   0.9773 B( 12-C , 15-H ) :   0.9763
B( 16-S , 17-C ) :   1.1502 B( 16-S , 20-C ) :   1.1248 B( 17-C , 18-C ) :   1.6150
B( 17-C , 20-C ) :   0.1062 B( 17-C , 33-H ) :   0.9695 B( 18-C , 19-C ) :   1.2214
B( 18-C , 21-H ) :   0.9877 B( 19-C , 20-C ) :   1.5986 B( 19-C , 22-C ) :   1.0370
B( 22-C , 23-H ) :   0.9351 B( 22-C , 24-H ) :   0.9451 B( 22-C , 25-C ) :   1.0451
B( 25-C , 26-H ) :   0.9635 B( 25-C , 27-H ) :   0.9536 B( 25-C , 28-C ) :   1.0761
B( 28-C , 29-H ) :   0.9740 B( 28-C , 30-H ) :   0.9745 B( 28-C , 31-H ) :   0.9755

Dispersion correction           -0.014266007
FINAL SINGLE POINT ENERGY     -1339.863091545363

DIPOLE MOMENT
-------------
                                X             Y             Z
Electronic contribution:    -16.58979      10.11728      23.07290
Nuclear contribution   :     16.97399     -10.49729     -23.42212
                        -----------------------------------------
Total Dipole Moment    :      0.38420      -0.38001      -0.34922
                        -----------------------------------------
Magnitude (a.u.)       :      0.64341
Magnitude (Debye)      :      1.63542

Rotational constants in cm-1:     0.017433     0.008727     0.007026
Rotational constants in MHz :   522.640928   261.614807   210.644217

                             ****ORCA TERMINATED NORMALLY****
TOTAL RUN TIME: 0 days 0 hours 0 minutes 32 seconds 267 msec
