                         Program Version 4.2.1 -  RELEASE  -
|  1> ! wB97X-D3 SP def2-SVP
|  2> %pal
|  3> nprocs 16
|  4> end
|  5>
|  6> * xyz 0 1
|  7> S 	 -69.3448 	 57.2833 	 122.049
|  8> C 	 -68.8086 	 58.6493 	 121.082
|  9> C 	 -67.9141 	 59.4187 	 121.861
| 10> C 	 -67.7323 	 58.8939 	 123.162
| 11> C 	 -68.3902 	 57.7533 	 123.412
| 12> H 	 -67.1281 	 59.3605 	 123.925
| 13> C 	 -67.2295 	 60.7064 	 121.529
| 14> H 	 -67.4396 	 61.2498 	 122.45
| 15> H 	 -67.8975 	 61.2466 	 120.872
| 16> C 	 -65.7845 	 60.6453 	 121.045
| 17> H 	 -65.0536 	 60.163 	 121.817
| 18> H 	 -65.658 	 59.9734 	 120.175
| 19> C 	 -65.2917 	 62.0189 	 120.639
| 20> H 	 -65.2791 	 62.5361 	 121.611
| 21> H 	 -64.233 	 62.0641 	 120.391
| 22> H 	 -65.9047 	 62.3395 	 119.778
| 23> S 	 -69.8266 	 56.5098 	 125.383
| 24> C 	 -69.0339 	 56.1082 	 126.824
| 25> C 	 -67.6993 	 56.0901 	 126.65
| 26> C 	 -67.2324 	 56.6299 	 125.418
| 27> C 	 -68.2955 	 56.9555 	 124.65
| 28> H 	 -67.019 	 55.7473 	 127.454
| 29> C 	 -65.7734 	 56.8 	 125.085
| 30> H 	 -65.2268 	 56.6266 	 126.055
| 31> H 	 -65.7101 	 57.8285 	 124.677
| 32> C 	 -65.2603 	 55.8991 	 123.967
| 33> H 	 -65.8363 	 56.1347 	 123.066
| 34> H 	 -65.409 	 54.909 	 124.446
| 35> C 	 -63.7656 	 55.8717 	 123.56
| 36> H 	 -63.1182 	 56.0135 	 124.48
| 37> H 	 -63.5636 	 56.7106 	 122.827
| 38> H 	 -63.5462 	 54.9089 	 123.097
| 39> H 	 -69.092 	 58.7972 	 120.068
| 40> H 	 -69.5721 	 55.7641 	 127.702
| 41> *
| 42>
| 43>                          ****END OF INPUT****

CARTESIAN COORDINATES (ANGSTROEM)
---------------------------------
  S    -69.344800   57.283300  122.049000
  C    -68.808600   58.649300  121.082000
  C    -67.914100   59.418700  121.861000
  C    -67.732300   58.893900  123.162000
  C    -68.390200   57.753300  123.412000
  H    -67.128100   59.360500  123.925000
  C    -67.229500   60.706400  121.529000
  H    -67.439600   61.249800  122.450000
  H    -67.897500   61.246600  120.872000
  C    -65.784500   60.645300  121.045000
  H    -65.053600   60.163000  121.817000
  H    -65.658000   59.973400  120.175000
  C    -65.291700   62.018900  120.639000
  H    -65.279100   62.536100  121.611000
  H    -64.233000   62.064100  120.391000
  H    -65.904700   62.339500  119.778000
  S    -69.826600   56.509800  125.383000
  C    -69.033900   56.108200  126.824000
  C    -67.699300   56.090100  126.650000
  C    -67.232400   56.629900  125.418000
  C    -68.295500   56.955500  124.650000
  H    -67.019000   55.747300  127.454000
  C    -65.773400   56.800000  125.085000
  H    -65.226800   56.626600  126.055000
  H    -65.710100   57.828500  124.677000
  C    -65.260300   55.899100  123.967000
  H    -65.836300   56.134700  123.066000
  H    -65.409000   54.909000  124.446000
  C    -63.765600   55.871700  123.560000
  H    -63.118200   56.013500  124.480000
  H    -63.563600   56.710600  122.827000
  H    -63.546200   54.908900  123.097000
  H    -69.092000   58.797200  120.068000
  H    -69.572100   55.764100  127.702000

 Total Charge           Charge          ....    0
 Multiplicity           Mult            ....    1
 Number of Electrons    NEL             ....  134
 Basis Dimension        Dim             ....  322

ORBITAL ENERGIES
----------------

  NO   OCC          E(Eh)            E(eV)
   0   2.0000     -88.964367     -2420.8435
   1   2.0000     -88.961406     -2420.7629
   2   2.0000     -10.323541      -280.9178
   3   2.0000     -10.321763      -280.8694
   4   2.0000     -10.315459      -280.6979
   5   2.0000     -10.310032      -280.5502
   6   2.0000     -10.300391      -280.2879
   7   2.0000     -10.298454      -280.2352
   8   2.0000     -10.296524      -280.1827
   9   2.0000     -10.296444      -280.1805
  10   2.0000     -10.290213      -280.0109
  11   2.0000     -10.289768      -279.9988
  12   2.0000     -10.287044      -279.9247
  13   2.0000     -10.285183      -279.8741
  14   2.0000     -10.283708      -279.8339
  15   2.0000     -10.281128      -279.7637
  16   2.0000      -8.079365      -219.8507
  17   2.0000      -8.077776      -219.8075
  18   2.0000      -6.037892      -164.2994
  19   2.0000      -6.036128      -164.2514
  20   2.0000      -6.033732      -164.1862
  21   2.0000      -6.032176      -164.1439
  22   2.0000      -6.030204      -164.0902
  23   2.0000      -6.028482      -164.0433
  24   2.0000      -1.016118       -27.6500
  25   2.0000      -0.992366       -27.0036
  26   2.0000      -0.915967       -24.9247
  27   2.0000      -0.911286       -24.7974
  28   2.0000      -0.869918       -23.6717
  29   2.0000      -0.856554       -23.3080
  30   2.0000      -0.849796       -23.1241
  31   2.0000      -0.816438       -22.2164
  32   2.0000      -0.783944       -21.3322
  33   2.0000      -0.772040       -21.0083
  34   2.0000      -0.701285       -19.0829
  35   2.0000      -0.699155       -19.0250
  36   2.0000      -0.682985       -18.5850
  37   2.0000      -0.664465       -18.0810
  38   2.0000      -0.644370       -17.5342
  39   2.0000      -0.624397       -16.9907
  40   2.0000      -0.595522       -16.2050
  41   2.0000      -0.575192       -15.6518
  42   2.0000      -0.567974       -15.4553
  43   2.0000      -0.560850       -15.2615
  44   2.0000      -0.530791       -14.4435
  45   2.0000      -0.522385       -14.2148
  46   2.0000      -0.519596       -14.1389
  47   2.0000      -0.517510       -14.0822
  48   2.0000      -0.508495       -13.8369
  49   2.0000      -0.498340       -13.5605
  50   2.0000      -0.493735       -13.4352
  51   2.0000      -0.487460       -13.2645
  52   2.0000      -0.470470       -12.8021
  53   2.0000      -0.465855       -12.6766
  54   2.0000      -0.456597       -12.4246
  55   2.0000      -0.453370       -12.3368
  56   2.0000      -0.446431       -12.1480
  57   2.0000      -0.432534       -11.7699
  58   2.0000      -0.427252       -11.6261
  59   2.0000      -0.423843       -11.5334
  60   2.0000      -0.421844       -11.4789
  61   2.0000      -0.409332       -11.1385
  62   2.0000      -0.400719       -10.9041
  63   2.0000      -0.350485        -9.5372
  64   2.0000      -0.332303        -9.0424
  65   2.0000      -0.329957        -8.9786
  66   2.0000      -0.292904        -7.9703
  67   0.0000       0.035558         0.9676
  68   0.0000       0.072269         1.9665
  69   0.0000       0.113103         3.0777
  70   0.0000       0.122215         3.3256
  71   0.0000       0.126403         3.4396

MULLIKEN ATOMIC CHARGES
-----------------------
   0 S :    0.103199
   1 C :   -0.117201
   2 C :   -0.092678
   3 C :   -0.008854
   4 C :   -0.119468
   5 H :    0.017581
   6 C :    0.072932
   7 H :    0.023354
   8 H :    0.007851
   9 C :   -0.090810
  10 H :    0.035286
  11 H :    0.030832
  12 C :   -0.035808
  13 H :    0.032697
  14 H :    0.029843
  15 H :    0.049917
  16 S :    0.109971
  17 C :   -0.084884
  18 C :   -0.054649
  19 C :   -0.039944
  20 C :   -0.164489
  21 H :    0.021490
  22 C :    0.100700
  23 H :    0.025393
  24 H :    0.015142
  25 C :   -0.107648
  26 H :    0.051783
  27 H :    0.029257
  28 C :   -0.060505
  29 H :    0.034438
  30 H :    0.040870
  31 H :    0.046841
  32 H :    0.040004
  33 H :    0.057557
Sum of atomic charges:    0.0000000

LOEWDIN ATOMIC CHARGES
----------------------
   0 S :    0.407825
   1 C :   -0.196585
   2 C :   -0.057517
   3 C :   -0.075822
   4 C :   -0.196983
   5 H :    0.031139
   6 C :   -0.040860
   7 H :    0.036945
   8 H :    0.029251
   9 C :   -0.048983
  10 H :    0.030695
  11 H :    0.023858
  12 C :   -0.070883
  13 H :    0.031677
  14 H :    0.025232
  15 H :    0.032471
  16 S :    0.420636
  17 C :   -0.197198
  18 C :   -0.079298
  19 C :   -0.058520
  20 C :   -0.190773
  21 H :    0.033714
  22 C :   -0.034384
  23 H :    0.033747
  24 H :    0.030778
  25 C :   -0.047708
  26 H :    0.030631
  27 H :    0.027436
  28 C :   -0.071816
  29 H :    0.028763
  30 H :    0.028568
  31 H :    0.029431
  32 H :    0.022852
  33 H :    0.031679

  Mayer bond orders larger than 0.100000
B(  0-S ,  1-C ) :   1.1325 B(  0-S ,  4-C ) :   1.1597 B(  1-C ,  2-C ) :   1.5806
B(  1-C , 32-H ) :   0.9825 B(  2-C ,  3-C ) :   1.2530 B(  2-C ,  6-C ) :   1.0122
B(  3-C ,  4-C ) :   1.5896 B(  3-C ,  5-H ) :   0.9927 B(  4-C , 20-C ) :   0.9916
B(  6-C ,  7-H ) :   0.9366 B(  6-C ,  8-H ) :   0.9367 B(  6-C ,  9-C ) :   1.0487
B(  9-C , 10-H ) :   0.9528 B(  9-C , 11-H ) :   0.9559 B(  9-C , 12-C ) :   1.0804
B( 12-C , 13-H ) :   0.9745 B( 12-C , 14-H ) :   0.9723 B( 12-C , 15-H ) :   0.9737
B( 16-S , 17-C ) :   1.1623 B( 16-S , 20-C ) :   1.1468 B( 17-C , 18-C ) :   1.6106
B( 17-C , 33-H ) :   0.9683 B( 18-C , 19-C ) :   1.2337 B( 18-C , 21-H ) :   0.9849
B( 19-C , 20-C ) :   1.6239 B( 19-C , 22-C ) :   1.0421 B( 22-C , 23-H ) :   0.9274
B( 22-C , 24-H ) :   0.9184 B( 22-C , 25-C ) :   1.0696 B( 25-C , 26-H ) :   0.9564
B( 25-C , 27-H ) :   0.9576 B( 25-C , 28-C ) :   1.0816 B( 28-C , 29-H ) :   0.9729
B( 28-C , 30-H ) :   0.9753 B( 28-C , 31-H ) :   0.9760

Dispersion correction           -0.014186655
FINAL SINGLE POINT ENERGY     -1339.872127120436

DIPOLE MOMENT
-------------
                                X             Y             Z
Electronic contribution:    -27.69022     -11.48867       7.96871
Nuclear contribution   :     28.27326      11.75192      -7.90800
                        -----------------------------------------
Total Dipole Moment    :      0.58305       0.26325       0.06071
                        -----------------------------------------
Magnitude (a.u.)       :      0.64260
Magnitude (Debye)      :      1.63335

Rotational constants in cm-1:     0.017974     0.008953     0.006969
Rotational constants in MHz :   538.836756   268.404471   208.923169

                             ****ORCA TERMINATED NORMALLY****
TOTAL RUN TIME: 0 days 0 hours 0 minutes 32 seconds 762 msec
