                         Program Version 4.2.1 -  RELEASE  -
|  1> ! wB97X-D3 SP def2-SVP
|  2> %pal
|  3> nprocs 16
|  4> end
|  5>
|  6> * xyz 0 1
|  7> S 	 6.46223 	 -11.0754 	 93.4723
|  8> C 	 8.10966 	 -10.4458 	 93.4284
|  9> C 	 8.48469 	 -10.0521 	 92.1381
| 10> C 	 7.38902 	 -10.176 	 91.2705
| 11> C 	 6.16365 	 -10.5323 	 91.8473
| 12> H 	 7.40554 	 -10.0135 	 90.2175
| 13> C 	 9.87076 	 -9.78773 	 91.6666
| 14> H 	 9.9671 	 -10.0586 	 90.6145
| 15> H 	 10.5299 	 -10.4208 	 92.2627
| 16> C 	 10.3075 	 -8.30841 	 91.685
| 17> H 	 11.1908 	 -8.25029 	 91.0526
| 18> H 	 9.5665 	 -7.80415 	 91.1062
| 19> C 	 10.2534 	 -7.57906 	 92.9771
| 20> H 	 10.3916 	 -6.45602 	 92.8569
| 21> H 	 9.28597 	 -7.69382 	 93.4922
| 22> H 	 11.0953 	 -7.94116 	 93.6208
| 23> S 	 3.74722 	 -11.8264 	 91.8329
| 24> C 	 2.51515 	 -11.4268 	 90.6487
| 25> C 	 2.90466 	 -10.29 	 89.8926
| 26> C 	 4.22466 	 -9.81362 	 90.2523
| 27> C 	 4.81183 	 -10.566 	 91.2322
| 28> H 	 2.23854 	 -9.78687 	 89.1929
| 29> C 	 4.78105 	 -8.55628 	 89.6542
| 30> H 	 4.78933 	 -8.72997 	 88.5533
| 31> H 	 5.77054 	 -8.43117 	 90.0358
| 32> C 	 3.94762 	 -7.2851 	 89.9026
| 33> H 	 3.0053 	 -7.26373 	 89.3211
| 34> H 	 4.5557 	 -6.39707 	 89.6856
| 35> C 	 3.50984 	 -7.19214 	 91.395
| 36> H 	 2.81861 	 -8.04597 	 91.599
| 37> H 	 2.9248 	 -6.31962 	 91.4877
| 38> H 	 4.29558 	 -7.15429 	 92.0796
| 39> H 	 8.92033 	 -10.7844 	 94.0947
| 40> H 	 1.56495 	 -11.8316 	 90.5713
| 41> *
| 42>
| 43>                          ****END OF INPUT****

CARTESIAN COORDINATES (ANGSTROEM)
---------------------------------
  S      6.462230  -11.075400   93.472300
  C      8.109660  -10.445800   93.428400
  C      8.484690  -10.052100   92.138100
  C      7.389020  -10.176000   91.270500
  C      6.163650  -10.532300   91.847300
  H      7.405540  -10.013500   90.217500
  C      9.870760   -9.787730   91.666600
  H      9.967100  -10.058600   90.614500
  H     10.529900  -10.420800   92.262700
  C     10.307500   -8.308410   91.685000
  H     11.190800   -8.250290   91.052600
  H      9.566500   -7.804150   91.106200
  C     10.253400   -7.579060   92.977100
  H     10.391600   -6.456020   92.856900
  H      9.285970   -7.693820   93.492200
  H     11.095300   -7.941160   93.620800
  S      3.747220  -11.826400   91.832900
  C      2.515150  -11.426800   90.648700
  C      2.904660  -10.290000   89.892600
  C      4.224660   -9.813620   90.252300
  C      4.811830  -10.566000   91.232200
  H      2.238540   -9.786870   89.192900
  C      4.781050   -8.556280   89.654200
  H      4.789330   -8.729970   88.553300
  H      5.770540   -8.431170   90.035800
  C      3.947620   -7.285100   89.902600
  H      3.005300   -7.263730   89.321100
  H      4.555700   -6.397070   89.685600
  C      3.509840   -7.192140   91.395000
  H      2.818610   -8.045970   91.599000
  H      2.924800   -6.319620   91.487700
  H      4.295580   -7.154290   92.079600
  H      8.920330  -10.784400   94.094700
  H      1.564950  -11.831600   90.571300

 Total Charge           Charge          ....    0
 Multiplicity           Mult            ....    1
 Number of Electrons    NEL             ....  134
 Basis Dimension        Dim             ....  322

ORBITAL ENERGIES
----------------

  NO   OCC          E(Eh)            E(eV)
   0   2.0000     -88.969341     -2420.9788
   1   2.0000     -88.968174     -2420.9471
   2   2.0000     -10.334599      -281.2187
   3   2.0000     -10.330242      -281.1002
   4   2.0000     -10.322497      -280.8894
   5   2.0000     -10.315485      -280.6986
   6   2.0000     -10.304105      -280.3890
   7   2.0000     -10.302540      -280.3464
   8   2.0000     -10.300919      -280.3022
   9   2.0000     -10.293080      -280.0889
  10   2.0000     -10.291160      -280.0367
  11   2.0000     -10.290146      -280.0091
  12   2.0000     -10.290064      -280.0069
  13   2.0000     -10.281732      -279.7802
  14   2.0000     -10.281289      -279.7681
  15   2.0000     -10.265047      -279.3261
  16   2.0000      -8.083766      -219.9705
  17   2.0000      -8.082840      -219.9453
  18   2.0000      -6.042274      -164.4186
  19   2.0000      -6.041456      -164.3964
  20   2.0000      -6.038385      -164.3128
  21   2.0000      -6.037376      -164.2853
  22   2.0000      -6.034484      -164.2067
  23   2.0000      -6.033479      -164.1793
  24   2.0000      -1.007414       -27.4131
  25   2.0000      -0.984935       -26.8015
  26   2.0000      -0.918738       -25.0001
  27   2.0000      -0.910228       -24.7686
  28   2.0000      -0.867428       -23.6039
  29   2.0000      -0.852233       -23.1904
  30   2.0000      -0.842846       -22.9350
  31   2.0000      -0.813216       -22.1287
  32   2.0000      -0.785511       -21.3748
  33   2.0000      -0.777964       -21.1695
  34   2.0000      -0.707194       -19.2437
  35   2.0000      -0.697129       -18.9698
  36   2.0000      -0.694564       -18.9000
  37   2.0000      -0.664015       -18.0688
  38   2.0000      -0.638699       -17.3799
  39   2.0000      -0.621352       -16.9078
  40   2.0000      -0.595537       -16.2054
  41   2.0000      -0.572350       -15.5744
  42   2.0000      -0.555509       -15.1162
  43   2.0000      -0.548388       -14.9224
  44   2.0000      -0.546496       -14.8709
  45   2.0000      -0.539485       -14.6801
  46   2.0000      -0.523058       -14.2331
  47   2.0000      -0.516646       -14.0587
  48   2.0000      -0.501762       -13.6537
  49   2.0000      -0.494028       -13.4432
  50   2.0000      -0.491375       -13.3710
  51   2.0000      -0.481203       -13.0942
  52   2.0000      -0.470806       -12.8113
  53   2.0000      -0.465746       -12.6736
  54   2.0000      -0.457727       -12.4554
  55   2.0000      -0.452808       -12.3215
  56   2.0000      -0.445863       -12.1326
  57   2.0000      -0.433151       -11.7866
  58   2.0000      -0.427276       -11.6268
  59   2.0000      -0.426714       -11.6115
  60   2.0000      -0.424387       -11.5482
  61   2.0000      -0.414268       -11.2728
  62   2.0000      -0.411352       -11.1935
  63   2.0000      -0.352731        -9.5983
  64   2.0000      -0.334954        -9.1145
  65   2.0000      -0.328432        -8.9371
  66   2.0000      -0.286517        -7.7965
  67   0.0000       0.018181         0.4947
  68   0.0000       0.069759         1.8982
  69   0.0000       0.095427         2.5967
  70   0.0000       0.114015         3.1025
  71   0.0000       0.131332         3.5737

MULLIKEN ATOMIC CHARGES
-----------------------
   0 S :    0.104938
   1 C :   -0.106910
   2 C :   -0.122447
   3 C :    0.019644
   4 C :   -0.137585
   5 H :    0.003838
   6 C :    0.070240
   7 H :    0.025493
   8 H :    0.023999
   9 C :   -0.044024
  10 H :    0.028922
  11 H :    0.005165
  12 C :   -0.075970
  13 H :    0.043145
  14 H :    0.051594
  15 H :    0.031460
  16 S :    0.096595
  17 C :   -0.056409
  18 C :   -0.044914
  19 C :   -0.101011
  20 C :   -0.122792
  21 H :    0.024913
  22 C :    0.108167
  23 H :    0.039665
  24 H :    0.009541
  25 C :   -0.106310
  26 H :    0.032855
  27 H :    0.038109
  28 C :   -0.027270
  29 H :    0.044318
  30 H :    0.018026
  31 H :    0.026580
  32 H :    0.061105
  33 H :    0.037331
Sum of atomic charges:    0.0000000

LOEWDIN ATOMIC CHARGES
----------------------
   0 S :    0.407609
   1 C :   -0.209735
   2 C :   -0.062257
   3 C :   -0.068114
   4 C :   -0.190489
   5 H :    0.023978
   6 C :   -0.026239
   7 H :    0.036257
   8 H :    0.027499
   9 C :   -0.046262
  10 H :    0.025423
  11 H :    0.020736
  12 C :   -0.074873
  13 H :    0.034619
  14 H :    0.031755
  15 H :    0.024915
  16 S :    0.398866
  17 C :   -0.168597
  18 C :   -0.065250
  19 C :   -0.059323
  20 C :   -0.193770
  21 H :    0.031719
  22 C :   -0.033670
  23 H :    0.038277
  24 H :    0.024254
  25 C :   -0.037649
  26 H :    0.023920
  27 H :    0.027223
  28 C :   -0.057856
  29 H :    0.032835
  30 H :    0.018131
  31 H :    0.016204
  32 H :    0.033156
  33 H :    0.016710

  Mayer bond orders larger than 0.100000
B(  0-S ,  1-C ) :   1.1431 B(  0-S ,  4-C ) :   1.1672 B(  1-C ,  2-C ) :   1.5742
B(  1-C ,  4-C ) :   0.1112 B(  1-C , 32-H ) :   0.9555 B(  2-C ,  3-C ) :   1.2903
B(  2-C ,  6-C ) :   1.0260 B(  3-C ,  4-C ) :   1.5311 B(  3-C ,  5-H ) :   0.9937
B(  4-C , 20-C ) :   1.0350 B(  6-C ,  7-H ) :   0.9404 B(  6-C ,  8-H ) :   0.9408
B(  6-C ,  9-C ) :   1.0693 B(  9-C , 10-H ) :   0.9559 B(  9-C , 11-H ) :   0.9478
B(  9-C , 12-C ) :   1.0826 B( 12-C , 13-H ) :   0.9717 B( 12-C , 14-H ) :   0.9650
B( 12-C , 15-H ) :   0.9756 B( 16-S , 17-C ) :   1.1552 B( 16-S , 20-C ) :   1.1249
B( 17-C , 18-C ) :   1.6003 B( 17-C , 33-H ) :   0.9783 B( 18-C , 19-C ) :   1.2261
B( 18-C , 21-H ) :   0.9875 B( 19-C , 20-C ) :   1.6213 B( 19-C , 22-C ) :   1.0457
B( 22-C , 23-H ) :   0.9299 B( 22-C , 24-H ) :   0.9275 B( 22-C , 25-C ) :   1.0721
B( 25-C , 26-H ) :   0.9533 B( 25-C , 27-H ) :   0.9588 B( 25-C , 28-C ) :   1.0845
B( 28-C , 29-H ) :   0.9660 B( 28-C , 30-H ) :   0.9740 B( 28-C , 31-H ) :   0.9793

Dispersion correction           -0.014882153
FINAL SINGLE POINT ENERGY     -1339.877592005262

DIPOLE MOMENT
-------------
                                X             Y             Z
Electronic contribution:    -11.84410     -22.67699       6.55289
Nuclear contribution   :     11.98798      23.05608      -7.09191
                        -----------------------------------------
Total Dipole Moment    :      0.14389       0.37909      -0.53903
                        -----------------------------------------
Magnitude (a.u.)       :      0.67451
Magnitude (Debye)      :      1.71446

Rotational constants in cm-1:     0.021076     0.008748     0.007003
Rotational constants in MHz :   631.839829   262.258145   209.953729

                             ****ORCA TERMINATED NORMALLY****
TOTAL RUN TIME: 0 days 0 hours 0 minutes 35 seconds 254 msec
