                         Program Version 4.2.1 -  RELEASE  -
|  1> ! wB97X-D3 SP def2-SVP
|  2> %pal
|  3> nprocs 16
|  4> end
|  5>
|  6> * xyz 0 1
|  7> S 	 4.63834 	 16.4328 	 88.2371
|  8> C 	 3.28704 	 16.3511 	 87.0492
|  9> C 	 3.45549 	 15.3176 	 86.1757
| 10> C 	 4.52684 	 14.47 	 86.6517
| 11> C 	 5.19478 	 14.8184 	 87.8193
| 12> H 	 4.75025 	 13.5553 	 86.2055
| 13> C 	 2.55156 	 14.9292 	 85.0279
| 14> H 	 2.1763 	 15.9357 	 84.6408
| 15> H 	 1.70618 	 14.3176 	 85.419
| 16> C 	 3.18094 	 14.1458 	 83.916
| 17> H 	 4.09976 	 14.6453 	 83.7065
| 18> H 	 3.48184 	 13.1476 	 84.1491
| 19> C 	 2.34825 	 13.8773 	 82.7031
| 20> H 	 1.62402 	 13.0961 	 82.8873
| 21> H 	 1.87496 	 14.7125 	 82.2752
| 22> H 	 3.01208 	 13.4783 	 81.8884
| 23> S 	 5.94826 	 14.022 	 90.3599
| 24> C 	 7.35298 	 12.9773 	 90.6112
| 25> C 	 7.83334 	 12.6339 	 89.3556
| 26> C 	 7.08476 	 13.1569 	 88.2316
| 27> C 	 6.12061 	 14.0279 	 88.6127
| 28> H 	 8.68863 	 12.0724 	 89.324
| 29> C 	 7.62417 	 12.9396 	 86.8426
| 30> H 	 8.5949 	 13.4495 	 86.6564
| 31> H 	 6.97678 	 13.5039 	 86.157
| 32> C 	 7.77038 	 11.4355 	 86.4257
| 33> H 	 6.80228 	 10.8547 	 86.4803
| 34> H 	 8.532 	 11.0073 	 87.0872
| 35> C 	 8.21837 	 11.5106 	 84.9301
| 36> H 	 7.49122 	 12.1437 	 84.3561
| 37> H 	 8.34465 	 10.5753 	 84.3909
| 38> H 	 9.2373 	 11.8767 	 84.8957
| 39> H 	 2.42658 	 17.0889 	 86.9911
| 40> H 	 7.74155 	 12.7304 	 91.5802
| 41> *
| 42>
| 43>                          ****END OF INPUT****

CARTESIAN COORDINATES (ANGSTROEM)
---------------------------------
  S      4.638340   16.432800   88.237100
  C      3.287040   16.351100   87.049200
  C      3.455490   15.317600   86.175700
  C      4.526840   14.470000   86.651700
  C      5.194780   14.818400   87.819300
  H      4.750250   13.555300   86.205500
  C      2.551560   14.929200   85.027900
  H      2.176300   15.935700   84.640800
  H      1.706180   14.317600   85.419000
  C      3.180940   14.145800   83.916000
  H      4.099760   14.645300   83.706500
  H      3.481840   13.147600   84.149100
  C      2.348250   13.877300   82.703100
  H      1.624020   13.096100   82.887300
  H      1.874960   14.712500   82.275200
  H      3.012080   13.478300   81.888400
  S      5.948260   14.022000   90.359900
  C      7.352980   12.977300   90.611200
  C      7.833340   12.633900   89.355600
  C      7.084760   13.156900   88.231600
  C      6.120610   14.027900   88.612700
  H      8.688630   12.072400   89.324000
  C      7.624170   12.939600   86.842600
  H      8.594900   13.449500   86.656400
  H      6.976780   13.503900   86.157000
  C      7.770380   11.435500   86.425700
  H      6.802280   10.854700   86.480300
  H      8.532000   11.007300   87.087200
  C      8.218370   11.510600   84.930100
  H      7.491220   12.143700   84.356100
  H      8.344650   10.575300   84.390900
  H      9.237300   11.876700   84.895700
  H      2.426580   17.088900   86.991100
  H      7.741550   12.730400   91.580200

 Total Charge           Charge          ....    0
 Multiplicity           Mult            ....    1
 Number of Electrons    NEL             ....  134
 Basis Dimension        Dim             ....  322

ORBITAL ENERGIES
----------------

  NO   OCC          E(Eh)            E(eV)
   0   2.0000     -88.963911     -2420.8311
   1   2.0000     -88.961543     -2420.7667
   2   2.0000     -10.332170      -281.1526
   3   2.0000     -10.328116      -281.0423
   4   2.0000     -10.321188      -280.8538
   5   2.0000     -10.321112      -280.8517
   6   2.0000     -10.302671      -280.3499
   7   2.0000     -10.301416      -280.3158
   8   2.0000     -10.301197      -280.3098
   9   2.0000     -10.298692      -280.2417
  10   2.0000     -10.294100      -280.1167
  11   2.0000     -10.291042      -280.0335
  12   2.0000     -10.290426      -280.0167
  13   2.0000     -10.283238      -279.8211
  14   2.0000     -10.280338      -279.7422
  15   2.0000     -10.277113      -279.6545
  16   2.0000      -8.077797      -219.8080
  17   2.0000      -8.076218      -219.7651
  18   2.0000      -6.036556      -164.2630
  19   2.0000      -6.034865      -164.2170
  20   2.0000      -6.032448      -164.1513
  21   2.0000      -6.030641      -164.1021
  22   2.0000      -6.028298      -164.0383
  23   2.0000      -6.026895      -164.0002
  24   2.0000      -1.005537       -27.3621
  25   2.0000      -0.981985       -26.7212
  26   2.0000      -0.920882       -25.0585
  27   2.0000      -0.906139       -24.6573
  28   2.0000      -0.876023       -23.8378
  29   2.0000      -0.850581       -23.1455
  30   2.0000      -0.841785       -22.9061
  31   2.0000      -0.814939       -22.1756
  32   2.0000      -0.783871       -21.3302
  33   2.0000      -0.770723       -20.9724
  34   2.0000      -0.713656       -19.4196
  35   2.0000      -0.702743       -19.1226
  36   2.0000      -0.692745       -18.8506
  37   2.0000      -0.664547       -18.0832
  38   2.0000      -0.636610       -17.3230
  39   2.0000      -0.621973       -16.9248
  40   2.0000      -0.599741       -16.3198
  41   2.0000      -0.583457       -15.8767
  42   2.0000      -0.569926       -15.5085
  43   2.0000      -0.567100       -15.4316
  44   2.0000      -0.531750       -14.4696
  45   2.0000      -0.525794       -14.3076
  46   2.0000      -0.516253       -14.0480
  47   2.0000      -0.510923       -13.9029
  48   2.0000      -0.508858       -13.8467
  49   2.0000      -0.500831       -13.6283
  50   2.0000      -0.492189       -13.3931
  51   2.0000      -0.477220       -12.9858
  52   2.0000      -0.470990       -12.8163
  53   2.0000      -0.466438       -12.6924
  54   2.0000      -0.459757       -12.5106
  55   2.0000      -0.448862       -12.2142
  56   2.0000      -0.441808       -12.0222
  57   2.0000      -0.433595       -11.7987
  58   2.0000      -0.430673       -11.7192
  59   2.0000      -0.427783       -11.6406
  60   2.0000      -0.423121       -11.5137
  61   2.0000      -0.414433       -11.2773
  62   2.0000      -0.411824       -11.2063
  63   2.0000      -0.352635        -9.5957
  64   2.0000      -0.328943        -8.9510
  65   2.0000      -0.326295        -8.8789
  66   2.0000      -0.292025        -7.9464
  67   0.0000       0.022201         0.6041
  68   0.0000       0.078914         2.1473
  69   0.0000       0.107302         2.9198
  70   0.0000       0.116474         3.1694
  71   0.0000       0.128174         3.4878

MULLIKEN ATOMIC CHARGES
-----------------------
   0 S :    0.100246
   1 C :   -0.165430
   2 C :   -0.060009
   3 C :    0.034701
   4 C :   -0.147407
   5 H :   -0.021487
   6 C :    0.063318
   7 H :    0.035058
   8 H :    0.051029
   9 C :   -0.088944
  10 H :    0.018989
  11 H :    0.023353
  12 C :   -0.018904
  13 H :    0.029575
  14 H :    0.016792
  15 H :    0.033578
  16 S :    0.091815
  17 C :   -0.089456
  18 C :   -0.003171
  19 C :    0.012127
  20 C :   -0.125090
  21 H :   -0.012168
  22 C :    0.000664
  23 H :    0.042434
  24 H :    0.006798
  25 C :   -0.093178
  26 H :    0.050169
  27 H :    0.041831
  28 C :   -0.050802
  29 H :    0.041058
  30 H :    0.029285
  31 H :    0.026386
  32 H :    0.067586
  33 H :    0.059254
Sum of atomic charges:   -0.0000000

LOEWDIN ATOMIC CHARGES
----------------------
   0 S :    0.376035
   1 C :   -0.185122
   2 C :   -0.068619
   3 C :   -0.057930
   4 C :   -0.185889
   5 H :    0.012887
   6 C :   -0.033254
   7 H :    0.039857
   8 H :    0.039631
   9 C :   -0.051006
  10 H :    0.021293
  11 H :    0.024123
  12 C :   -0.056527
  13 H :    0.024902
  14 H :    0.014126
  15 H :    0.036689
  16 S :    0.391481
  17 C :   -0.169207
  18 C :   -0.056895
  19 C :   -0.060007
  20 C :   -0.191503
  21 H :    0.013869
  22 C :   -0.037474
  23 H :    0.038260
  24 H :    0.024958
  25 C :   -0.037315
  26 H :    0.031625
  27 H :    0.023990
  28 C :   -0.071191
  29 H :    0.030918
  30 H :    0.021830
  31 H :    0.024450
  32 H :    0.041617
  33 H :    0.029397

  Mayer bond orders larger than 0.100000
B(  0-S ,  1-C ) :   1.1224 B(  0-S ,  4-C ) :   1.1295 B(  1-C ,  2-C ) :   1.6319
B(  1-C , 32-H ) :   0.9607 B(  2-C ,  3-C ) :   1.2238 B(  2-C ,  6-C ) :   1.0199
B(  3-C ,  4-C ) :   1.5825 B(  3-C ,  5-H ) :   0.9948 B(  4-C , 20-C ) :   1.0594
B(  6-C ,  7-H ) :   0.9376 B(  6-C ,  8-H ) :   0.9334 B(  6-C ,  9-C ) :   1.0842
B(  9-C , 10-H ) :   0.9571 B(  9-C , 11-H ) :   0.9387 B(  9-C , 12-C ) :   1.0952
B( 12-C , 13-H ) :   0.9732 B( 12-C , 14-H ) :   0.9739 B( 12-C , 15-H ) :   0.9698
B( 16-S , 17-C ) :   1.1411 B( 16-S , 20-C ) :   1.1288 B( 17-C , 18-C ) :   1.6124
B( 17-C , 33-H ) :   0.9748 B( 18-C , 19-C ) :   1.2034 B( 18-C , 21-H ) :   1.0053
B( 19-C , 20-C ) :   1.6103 B( 19-C , 22-C ) :   1.0420 B( 22-C , 23-H ) :   0.9411
B( 22-C , 24-H ) :   0.9400 B( 22-C , 25-C ) :   1.0371 B( 25-C , 26-H ) :   0.9595
B( 25-C , 27-H ) :   0.9577 B( 25-C , 28-C ) :   1.0752 B( 28-C , 29-H ) :   0.9752
B( 28-C , 30-H ) :   0.9747 B( 28-C , 31-H ) :   0.9725

Dispersion correction           -0.013556482
FINAL SINGLE POINT ENERGY     -1339.868173204796

DIPOLE MOMENT
-------------
                                X             Y             Z
Electronic contribution:      0.09479      14.13989      29.89049
Nuclear contribution   :      0.01400     -14.62814     -30.51614
                        -----------------------------------------
Total Dipole Moment    :      0.10878      -0.48824      -0.62565
                        -----------------------------------------
Magnitude (a.u.)       :      0.80103
Magnitude (Debye)      :      2.03607

Rotational constants in cm-1:     0.016114     0.009430     0.006323
Rotational constants in MHz :   483.084273   282.718672   189.560487

                             ****ORCA TERMINATED NORMALLY****
TOTAL RUN TIME: 0 days 0 hours 0 minutes 34 seconds 53 msec
