                         Program Version 4.2.1 -  RELEASE  -
|  1> ! wB97X-D3 SP def2-SVP
|  2> %pal
|  3> nprocs 16
|  4> end
|  5>
|  6> * xyz 0 1
|  7> S 	 23.0806 	 10.3263 	 66.1541
|  8> C 	 23.2011 	 12.0117 	 66.4791
|  9> C 	 22.2484 	 12.4899 	 67.3998
| 10> C 	 21.3649 	 11.4418 	 67.8141
| 11> C 	 21.8039 	 10.219 	 67.3192
| 12> H 	 20.6872 	 11.6532 	 68.6887
| 13> C 	 22.2115 	 13.9002 	 67.9061
| 14> H 	 21.4567 	 14.0473 	 68.6884
| 15> H 	 22.0072 	 14.6528 	 67.2409
| 16> C 	 23.6023 	 14.2276 	 68.5197
| 17> H 	 23.7734 	 13.6126 	 69.4134
| 18> H 	 24.3751 	 14.0711 	 67.7717
| 19> C 	 23.624 	 15.7575 	 68.8284
| 20> H 	 22.9895 	 16.0503 	 69.6511
| 21> H 	 24.6391 	 16.072 	 69.1303
| 22> H 	 23.4062 	 16.4354 	 67.9847
| 23> S 	 19.9929 	 8.28641 	 67.0279
| 24> C 	 20.0583 	 6.92044 	 68.0921
| 25> C 	 20.8857 	 7.09017 	 69.1497
| 26> C 	 21.6357 	 8.28966 	 69.0582
| 27> C 	 21.2514 	 9.03301 	 67.922
| 28> H 	 21.0529 	 6.30945 	 69.8572
| 29> C 	 22.7152 	 8.63683 	 70.0854
| 30> H 	 23.41 	 9.43574 	 69.6313
| 31> H 	 23.3697 	 7.75859 	 70.3057
| 32> C 	 22.0477 	 9.19368 	 71.3231
| 33> H 	 21.428 	 8.4672 	 71.7554
| 34> H 	 21.4366 	 10.0249 	 70.9753
| 35> C 	 23.1766 	 9.63088 	 72.2952
| 36> H 	 22.7379 	 9.86883 	 73.2446
| 37> H 	 23.6304 	 10.4823 	 71.8669
| 38> H 	 23.9164 	 8.82295 	 72.4587
| 39> H 	 23.8532 	 12.7332 	 66.0718
| 40> H 	 19.4256 	 6.04152 	 67.9679
| 41> *
| 42>
| 43>                          ****END OF INPUT****

CARTESIAN COORDINATES (ANGSTROEM)
---------------------------------
  S     23.080600   10.326300   66.154100
  C     23.201100   12.011700   66.479100
  C     22.248400   12.489900   67.399800
  C     21.364900   11.441800   67.814100
  C     21.803900   10.219000   67.319200
  H     20.687200   11.653200   68.688700
  C     22.211500   13.900200   67.906100
  H     21.456700   14.047300   68.688400
  H     22.007200   14.652800   67.240900
  C     23.602300   14.227600   68.519700
  H     23.773400   13.612600   69.413400
  H     24.375100   14.071100   67.771700
  C     23.624000   15.757500   68.828400
  H     22.989500   16.050300   69.651100
  H     24.639100   16.072000   69.130300
  H     23.406200   16.435400   67.984700
  S     19.992900    8.286410   67.027900
  C     20.058300    6.920440   68.092100
  C     20.885700    7.090170   69.149700
  C     21.635700    8.289660   69.058200
  C     21.251400    9.033010   67.922000
  H     21.052900    6.309450   69.857200
  C     22.715200    8.636830   70.085400
  H     23.410000    9.435740   69.631300
  H     23.369700    7.758590   70.305700
  C     22.047700    9.193680   71.323100
  H     21.428000    8.467200   71.755400
  H     21.436600   10.024900   70.975300
  C     23.176600    9.630880   72.295200
  H     22.737900    9.868830   73.244600
  H     23.630400   10.482300   71.866900
  H     23.916400    8.822950   72.458700
  H     23.853200   12.733200   66.071800
  H     19.425600    6.041520   67.967900

 Total Charge           Charge          ....    0
 Multiplicity           Mult            ....    1
 Number of Electrons    NEL             ....  134
 Basis Dimension        Dim             ....  322

ORBITAL ENERGIES
----------------

  NO   OCC          E(Eh)            E(eV)
   0   2.0000     -88.975139     -2421.1366
   1   2.0000     -88.960846     -2420.7477
   2   2.0000     -10.322692      -280.8947
   3   2.0000     -10.316304      -280.7209
   4   2.0000     -10.308378      -280.5052
   5   2.0000     -10.307308      -280.4761
   6   2.0000     -10.299673      -280.2683
   7   2.0000     -10.296887      -280.1925
   8   2.0000     -10.295492      -280.1546
   9   2.0000     -10.294827      -280.1365
  10   2.0000     -10.291698      -280.0513
  11   2.0000     -10.285212      -279.8748
  12   2.0000     -10.284399      -279.8527
  13   2.0000     -10.280569      -279.7485
  14   2.0000     -10.278816      -279.7008
  15   2.0000     -10.273706      -279.5617
  16   2.0000      -8.089767      -220.1338
  17   2.0000      -8.076791      -219.7807
  18   2.0000      -6.048124      -164.5778
  19   2.0000      -6.044322      -164.4744
  20   2.0000      -6.040680      -164.3753
  21   2.0000      -6.035055      -164.2222
  22   2.0000      -6.031134      -164.1155
  23   2.0000      -6.027744      -164.0232
  24   2.0000      -1.009823       -27.4787
  25   2.0000      -0.986525       -26.8447
  26   2.0000      -0.914470       -24.8840
  27   2.0000      -0.911501       -24.8032
  28   2.0000      -0.869675       -23.6651
  29   2.0000      -0.851117       -23.1601
  30   2.0000      -0.847036       -23.0490
  31   2.0000      -0.808969       -22.0132
  32   2.0000      -0.779300       -21.2058
  33   2.0000      -0.764893       -20.8138
  34   2.0000      -0.709842       -19.3158
  35   2.0000      -0.699617       -19.0375
  36   2.0000      -0.691230       -18.8093
  37   2.0000      -0.659067       -17.9341
  38   2.0000      -0.637984       -17.3604
  39   2.0000      -0.619921       -16.8689
  40   2.0000      -0.596624       -16.2350
  41   2.0000      -0.574094       -15.6219
  42   2.0000      -0.570388       -15.5210
  43   2.0000      -0.560578       -15.2541
  44   2.0000      -0.522489       -14.2176
  45   2.0000      -0.517940       -14.0939
  46   2.0000      -0.515588       -14.0299
  47   2.0000      -0.508856       -13.8467
  48   2.0000      -0.500873       -13.6294
  49   2.0000      -0.496578       -13.5126
  50   2.0000      -0.491719       -13.3804
  51   2.0000      -0.469963       -12.7884
  52   2.0000      -0.468901       -12.7594
  53   2.0000      -0.466411       -12.6917
  54   2.0000      -0.458168       -12.4674
  55   2.0000      -0.449913       -12.2427
  56   2.0000      -0.449461       -12.2304
  57   2.0000      -0.444848       -12.1049
  58   2.0000      -0.440747       -11.9933
  59   2.0000      -0.428957       -11.6725
  60   2.0000      -0.424476       -11.5506
  61   2.0000      -0.416965       -11.3462
  62   2.0000      -0.413275       -11.2458
  63   2.0000      -0.338538        -9.2121
  64   2.0000      -0.332710        -9.0535
  65   2.0000      -0.308797        -8.4028
  66   2.0000      -0.304792        -8.2938
  67   0.0000       0.046572         1.2673
  68   0.0000       0.056581         1.5396
  69   0.0000       0.114722         3.1218
  70   0.0000       0.126209         3.4343
  71   0.0000       0.127978         3.4825

MULLIKEN ATOMIC CHARGES
-----------------------
   0 S :    0.165086
   1 C :   -0.107623
   2 C :   -0.099427
   3 C :    0.024879
   4 C :   -0.155567
   5 H :    0.042449
   6 C :    0.108492
   7 H :    0.013210
   8 H :    0.006827
   9 C :   -0.103903
  10 H :    0.042992
  11 H :    0.033426
  12 C :   -0.063853
  13 H :    0.028922
  14 H :    0.026542
  15 H :    0.034016
  16 S :    0.120969
  17 C :   -0.091032
  18 C :   -0.025173
  19 C :   -0.007754
  20 C :   -0.223300
  21 H :    0.008763
  22 C :    0.015876
  23 H :    0.038775
  24 H :    0.033488
  25 C :   -0.066313
  26 H :    0.016491
  27 H :    0.028734
  28 C :   -0.001175
  29 H :    0.026485
  30 H :    0.023127
  31 H :    0.030742
  32 H :    0.023095
  33 H :    0.051736
Sum of atomic charges:   -0.0000000

LOEWDIN ATOMIC CHARGES
----------------------
   0 S :    0.443176
   1 C :   -0.211176
   2 C :   -0.058726
   3 C :   -0.061496
   4 C :   -0.218383
   5 H :    0.043030
   6 C :   -0.028156
   7 H :    0.029861
   8 H :    0.017797
   9 C :   -0.027163
  10 H :    0.028499
  11 H :    0.021247
  12 C :   -0.074582
  13 H :    0.021032
  14 H :    0.025504
  15 H :    0.026826
  16 S :    0.429176
  17 C :   -0.189371
  18 C :   -0.073376
  19 C :   -0.051084
  20 C :   -0.217295
  21 H :    0.028779
  22 C :   -0.035857
  23 H :    0.036750
  24 H :    0.030430
  25 C :   -0.032724
  26 H :    0.013915
  27 H :    0.026232
  28 C :   -0.055410
  29 H :    0.021064
  30 H :    0.019829
  31 H :    0.028009
  32 H :    0.016390
  33 H :    0.027253

  Mayer bond orders larger than 0.100000
B(  0-S ,  1-C ) :   1.1442 B(  0-S ,  4-C ) :   1.1633 B(  1-C ,  2-C ) :   1.5914
B(  1-C , 32-H ) :   0.9664 B(  2-C ,  3-C ) :   1.2882 B(  2-C ,  6-C ) :   1.0258
B(  3-C ,  4-C ) :   1.5418 B(  3-C ,  5-H ) :   0.9774 B(  4-C , 20-C ) :   1.0158
B(  6-C ,  7-H ) :   0.9431 B(  6-C ,  8-H ) :   0.9359 B(  6-C ,  9-C ) :   1.0549
B(  9-C , 10-H ) :   0.9583 B(  9-C , 11-H ) :   0.9605 B(  9-C , 12-C ) :   1.0767
B( 12-C , 13-H ) :   0.9757 B( 12-C , 14-H ) :   0.9735 B( 12-C , 15-H ) :   0.9746
B( 16-S , 17-C ) :   1.1589 B( 16-S , 20-C ) :   1.1719 B( 17-C , 18-C ) :   1.6155
B( 17-C , 33-H ) :   0.9645 B( 18-C , 19-C ) :   1.2449 B( 18-C , 21-H ) :   0.9916
B( 19-C , 20-C ) :   1.5899 B( 19-C , 22-C ) :   1.0370 B( 22-C , 23-H ) :   0.9381
B( 22-C , 24-H ) :   0.9374 B( 22-C , 25-C ) :   1.0630 B( 25-C , 26-H ) :   0.9584
B( 25-C , 27-H ) :   0.9512 B( 25-C , 28-C ) :   1.0797 B( 28-C , 29-H ) :   0.9741
B( 28-C , 30-H ) :   0.9759 B( 28-C , 31-H ) :   0.9726

Dispersion correction           -0.014402199
FINAL SINGLE POINT ENERGY     -1339.871721350715

DIPOLE MOMENT
-------------
                                X             Y             Z
Electronic contribution:    -10.43213     -18.71030     -22.38075
Nuclear contribution   :     10.64131      18.99245      22.91111
                        -----------------------------------------
Total Dipole Moment    :      0.20918       0.28214       0.53036
                        -----------------------------------------
Magnitude (a.u.)       :      0.63612
Magnitude (Debye)      :      1.61689

Rotational constants in cm-1:     0.018687     0.008846     0.006795
Rotational constants in MHz :   560.234602   265.193247   203.719662

                             ****ORCA TERMINATED NORMALLY****
TOTAL RUN TIME: 0 days 0 hours 0 minutes 30 seconds 525 msec
