                         Program Version 4.2.1 -  RELEASE  -
|  1> ! wB97X-D3 SP def2-SVP
|  2> %pal
|  3> nprocs 16
|  4> end
|  5>
|  6> * xyz 0 1
|  7> S 	 4.42146 	 -13.1369 	 63.6487
|  8> C 	 4.30113 	 -12.5632 	 65.2841
|  9> C 	 3.05844 	 -12.0606 	 65.586
| 10> C 	 2.21333 	 -12.2535 	 64.4166
| 11> C 	 2.73993 	 -12.9625 	 63.397
| 12> H 	 1.20157 	 -12.0497 	 64.2017
| 13> C 	 2.48201 	 -11.6274 	 66.9341
| 14> H 	 2.52814 	 -12.5724 	 67.4209
| 15> H 	 1.4537 	 -11.2725 	 66.7254
| 16> C 	 3.20035 	 -10.404 	 67.64
| 17> H 	 4.28617 	 -10.6417 	 67.7807
| 18> H 	 3.08752 	 -9.67232 	 66.8398
| 19> C 	 2.4875 	 -9.98695 	 68.9501
| 20> H 	 1.59326 	 -9.42337 	 68.8082
| 21> H 	 2.29047 	 -10.7874 	 69.6291
| 22> H 	 3.16498 	 -9.29422 	 69.3382
| 23> S 	 0.371994 	 -12.6871 	 61.875
| 24> C 	 0.389877 	 -13.1185 	 60.161
| 25> C 	 1.55206 	 -13.7137 	 59.9033
| 26> C 	 2.50212 	 -13.9165 	 60.9476
| 27> C 	 2.07983 	 -13.2405 	 62.1331
| 28> H 	 1.67182 	 -14.0948 	 58.8567
| 29> C 	 3.88296 	 -14.6161 	 60.6979
| 30> H 	 3.78802 	 -15.5287 	 60.0292
| 31> H 	 4.35909 	 -14.8009 	 61.6378
| 32> C 	 4.88547 	 -13.7835 	 59.9397
| 33> H 	 5.18206 	 -12.9596 	 60.5917
| 34> H 	 4.41656 	 -13.3583 	 59.092
| 35> C 	 6.0608 	 -14.6106 	 59.5024
| 36> H 	 6.76302 	 -13.9533 	 59.0222
| 37> H 	 5.87061 	 -15.4196 	 58.9354
| 38> H 	 6.63788 	 -14.9653 	 60.339
| 39> H 	 5.00308 	 -12.5918 	 66.0918
| 40> H 	 -0.342317 	 -13.0031 	 59.38
| 41> *
| 42>
| 43>                          ****END OF INPUT****

CARTESIAN COORDINATES (ANGSTROEM)
---------------------------------
  S      4.421460  -13.136900   63.648700
  C      4.301130  -12.563200   65.284100
  C      3.058440  -12.060600   65.586000
  C      2.213330  -12.253500   64.416600
  C      2.739930  -12.962500   63.397000
  H      1.201570  -12.049700   64.201700
  C      2.482010  -11.627400   66.934100
  H      2.528140  -12.572400   67.420900
  H      1.453700  -11.272500   66.725400
  C      3.200350  -10.404000   67.640000
  H      4.286170  -10.641700   67.780700
  H      3.087520   -9.672320   66.839800
  C      2.487500   -9.986950   68.950100
  H      1.593260   -9.423370   68.808200
  H      2.290470  -10.787400   69.629100
  H      3.164980   -9.294220   69.338200
  S      0.371994  -12.687100   61.875000
  C      0.389877  -13.118500   60.161000
  C      1.552060  -13.713700   59.903300
  C      2.502120  -13.916500   60.947600
  C      2.079830  -13.240500   62.133100
  H      1.671820  -14.094800   58.856700
  C      3.882960  -14.616100   60.697900
  H      3.788020  -15.528700   60.029200
  H      4.359090  -14.800900   61.637800
  C      4.885470  -13.783500   59.939700
  H      5.182060  -12.959600   60.591700
  H      4.416560  -13.358300   59.092000
  C      6.060800  -14.610600   59.502400
  H      6.763020  -13.953300   59.022200
  H      5.870610  -15.419600   58.935400
  H      6.637880  -14.965300   60.339000
  H      5.003080  -12.591800   66.091800
  H     -0.342317  -13.003100   59.380000

 Total Charge           Charge          ....    0
 Multiplicity           Mult            ....    1
 Number of Electrons    NEL             ....  134
 Basis Dimension        Dim             ....  322

ORBITAL ENERGIES
----------------

  NO   OCC          E(Eh)            E(eV)
   0   2.0000     -88.968249     -2420.9491
   1   2.0000     -88.965267     -2420.8680
   2   2.0000     -10.339923      -281.3636
   3   2.0000     -10.323736      -280.9232
   4   2.0000     -10.315064      -280.6872
   5   2.0000     -10.311692      -280.5954
   6   2.0000     -10.310350      -280.5589
   7   2.0000     -10.304522      -280.4003
   8   2.0000     -10.297400      -280.2065
   9   2.0000     -10.295625      -280.1582
  10   2.0000     -10.294490      -280.1273
  11   2.0000     -10.291076      -280.0344
  12   2.0000     -10.285271      -279.8765
  13   2.0000     -10.274496      -279.5832
  14   2.0000     -10.274019      -279.5703
  15   2.0000     -10.262570      -279.2587
  16   2.0000      -8.083220      -219.9556
  17   2.0000      -8.078590      -219.8296
  18   2.0000      -6.041916      -164.4089
  19   2.0000      -6.037779      -164.2963
  20   2.0000      -6.037446      -164.2873
  21   2.0000      -6.033692      -164.1851
  22   2.0000      -6.033435      -164.1781
  23   2.0000      -6.028931      -164.0556
  24   2.0000      -1.012061       -27.5396
  25   2.0000      -0.983950       -26.7746
  26   2.0000      -0.915529       -24.9128
  27   2.0000      -0.909868       -24.7588
  28   2.0000      -0.875981       -23.8367
  29   2.0000      -0.855326       -23.2746
  30   2.0000      -0.844222       -22.9724
  31   2.0000      -0.816931       -22.2298
  32   2.0000      -0.788091       -21.4450
  33   2.0000      -0.777849       -21.1664
  34   2.0000      -0.710378       -19.3304
  35   2.0000      -0.707819       -19.2607
  36   2.0000      -0.694192       -18.8899
  37   2.0000      -0.663507       -18.0549
  38   2.0000      -0.631160       -17.1747
  39   2.0000      -0.609801       -16.5935
  40   2.0000      -0.596336       -16.2271
  41   2.0000      -0.581531       -15.8243
  42   2.0000      -0.571675       -15.5561
  43   2.0000      -0.566317       -15.4103
  44   2.0000      -0.531849       -14.4724
  45   2.0000      -0.523178       -14.2364
  46   2.0000      -0.516325       -14.0499
  47   2.0000      -0.515313       -14.0224
  48   2.0000      -0.513869       -13.9831
  49   2.0000      -0.501160       -13.6373
  50   2.0000      -0.493768       -13.4361
  51   2.0000      -0.481976       -13.1152
  52   2.0000      -0.478127       -13.0105
  53   2.0000      -0.470856       -12.8126
  54   2.0000      -0.465270       -12.6607
  55   2.0000      -0.445912       -12.1339
  56   2.0000      -0.440219       -11.9790
  57   2.0000      -0.436598       -11.8804
  58   2.0000      -0.430023       -11.7015
  59   2.0000      -0.426454       -11.6044
  60   2.0000      -0.418973       -11.4008
  61   2.0000      -0.417273       -11.3546
  62   2.0000      -0.408507       -11.1160
  63   2.0000      -0.367490        -9.9999
  64   2.0000      -0.331242        -9.0136
  65   2.0000      -0.326908        -8.8956
  66   2.0000      -0.283706        -7.7200
  67   0.0000       0.017297         0.4707
  68   0.0000       0.090041         2.4502
  69   0.0000       0.104452         2.8423
  70   0.0000       0.117842         3.2066
  71   0.0000       0.129774         3.5313

MULLIKEN ATOMIC CHARGES
-----------------------
   0 S :    0.093576
   1 C :   -0.086505
   2 C :   -0.084634
   3 C :   -0.036249
   4 C :   -0.081869
   5 H :   -0.008143
   6 C :    0.059398
   7 H :    0.045766
   8 H :    0.033829
   9 C :   -0.125592
  10 H :    0.041286
  11 H :    0.040170
  12 C :    0.011071
  13 H :    0.027035
  14 H :    0.034846
  15 H :    0.021501
  16 S :    0.059605
  17 C :   -0.055939
  18 C :   -0.060923
  19 C :   -0.032146
  20 C :   -0.129782
  21 H :    0.028768
  22 C :    0.027977
  23 H :    0.034222
  24 H :    0.020955
  25 C :   -0.052257
  26 H :    0.022477
  27 H :    0.012339
  28 C :    0.015558
  29 H :    0.024498
  30 H :    0.006833
  31 H :    0.013983
  32 H :    0.027004
  33 H :    0.051343
Sum of atomic charges:    0.0000000

LOEWDIN ATOMIC CHARGES
----------------------
   0 S :    0.431395
   1 C :   -0.203637
   2 C :   -0.055114
   3 C :   -0.071299
   4 C :   -0.198541
   5 H :    0.012307
   6 C :   -0.031047
   7 H :    0.031482
   8 H :    0.035487
   9 C :   -0.036341
  10 H :    0.025166
  11 H :    0.029336
  12 C :   -0.057695
  13 H :    0.025532
  14 H :    0.025231
  15 H :    0.024241
  16 S :    0.366611
  17 C :   -0.179133
  18 C :   -0.081611
  19 C :   -0.056657
  20 C :   -0.163323
  21 H :    0.036560
  22 C :   -0.033392
  23 H :    0.038594
  24 H :    0.012017
  25 C :   -0.037086
  26 H :    0.021503
  27 H :    0.015269
  28 C :   -0.052593
  29 H :    0.029664
  30 H :    0.008098
  31 H :    0.026340
  32 H :    0.025129
  33 H :    0.037510

  Mayer bond orders larger than 0.100000
B(  0-S ,  1-C ) :   1.1298 B(  0-S ,  4-C ) :   1.1253 B(  1-C ,  2-C ) :   1.6380
B(  1-C , 32-H ) :   0.9650 B(  2-C ,  3-C ) :   1.2032 B(  2-C ,  6-C ) :   0.9992
B(  3-C ,  4-C ) :   1.6041 B(  3-C ,  5-H ) :   0.9964 B(  4-C , 20-C ) :   1.1042
B(  6-C ,  7-H ) :   0.9414 B(  6-C ,  8-H ) :   0.9487 B(  6-C ,  9-C ) :   1.0452
B(  9-C , 10-H ) :   0.9633 B(  9-C , 11-H ) :   0.9601 B(  9-C , 12-C ) :   1.0763
B( 12-C , 13-H ) :   0.9723 B( 12-C , 14-H ) :   0.9764 B( 12-C , 15-H ) :   0.9720
B( 16-S , 17-C ) :   1.1090 B( 16-S , 20-C ) :   1.1261 B( 17-C , 18-C ) :   1.6766
B( 17-C , 33-H ) :   0.9649 B( 18-C , 19-C ) :   1.2241 B( 18-C , 21-H ) :   0.9723
B( 19-C , 20-C ) :   1.5573 B( 19-C , 22-C ) :   1.0455 B( 22-C , 23-H ) :   0.9373
B( 22-C , 24-H ) :   0.9306 B( 22-C , 25-C ) :   1.0713 B( 25-C , 26-H ) :   0.9462
B( 25-C , 27-H ) :   0.9531 B( 25-C , 28-C ) :   1.0944 B( 28-C , 29-H ) :   0.9676
B( 28-C , 30-H ) :   0.9726 B( 28-C , 31-H ) :   0.9673

Dispersion correction           -0.013351476
FINAL SINGLE POINT ENERGY     -1339.846330623542

DIPOLE MOMENT
-------------
                                X             Y             Z
Electronic contribution:    -10.43667      -3.61870      -7.44083
Nuclear contribution   :     10.56236       3.70399       7.55144
                        -----------------------------------------
Total Dipole Moment    :      0.12569       0.08529       0.11061
                        -----------------------------------------
Magnitude (a.u.)       :      0.18790
Magnitude (Debye)      :      0.47761

Rotational constants in cm-1:     0.022774     0.007186     0.005603
Rotational constants in MHz :   682.759841   215.418241   167.978928

                             ****ORCA TERMINATED NORMALLY****
TOTAL RUN TIME: 0 days 0 hours 0 minutes 30 seconds 107 msec
