                         Program Version 4.2.1 -  RELEASE  -
|  1> ! wB97X-D3 SP def2-SVP
|  2> %pal
|  3> nprocs 16
|  4> end
|  5>
|  6> * xyz 0 1
|  7> S 	 40.4173 	 14.8135 	 82.8858
|  8> C 	 40.8378 	 15.9504 	 81.6289
|  9> C 	 41.2352 	 15.2884 	 80.455
| 10> C 	 41.213 	 13.8627 	 80.6158
| 11> C 	 40.6837 	 13.4609 	 81.8133
| 12> H 	 41.6216 	 13.1177 	 79.9539
| 13> C 	 41.829 	 15.9519 	 79.2074
| 14> H 	 42.3713 	 15.1615 	 78.6658
| 15> H 	 42.5266 	 16.7357 	 79.6075
| 16> C 	 40.8261 	 16.5651 	 78.2348
| 17> H 	 40.3686 	 17.4034 	 78.8414
| 18> H 	 41.3917 	 17.045 	 77.4587
| 19> C 	 39.7745 	 15.5936 	 77.7407
| 20> H 	 39.1112 	 16.1012 	 77.0831
| 21> H 	 40.2604 	 14.7413 	 77.2534
| 22> H 	 39.1289 	 15.2688 	 78.5754
| 23> S 	 40.737 	 11.8096 	 84.0849
| 24> C 	 40.6822 	 10.1173 	 83.8063
| 25> C 	 40.468 	 9.78653 	 82.4926
| 26> C 	 40.4746 	 10.8953 	 81.6087
| 27> C 	 40.5765 	 12.0841 	 82.3252
| 28> H 	 40.3981 	 8.74239 	 82.2912
| 29> C 	 40.1192 	 10.7348 	 80.1597
| 30> H 	 39.7855 	 11.5661 	 79.654
| 31> H 	 39.4151 	 9.83391 	 80.1362
| 32> C 	 41.3345 	 10.0524 	 79.3953
| 33> H 	 41.2005 	 8.97617 	 79.7342
| 34> H 	 42.3381 	 10.396 	 79.6515
| 35> C 	 41.1147 	 10.1613 	 77.8199
| 36> H 	 41.8455 	 9.57696 	 77.2147
| 37> H 	 41.2461 	 11.2622 	 77.6874
| 38> H 	 40.1264 	 9.84116 	 77.4513
| 39> H 	 41.0248 	 17.0835 	 81.7211
| 40> H 	 40.8824 	 9.40341 	 84.584
| 41> *
| 42>
| 43>                          ****END OF INPUT****

CARTESIAN COORDINATES (ANGSTROEM)
---------------------------------
  S     40.417300   14.813500   82.885800
  C     40.837800   15.950400   81.628900
  C     41.235200   15.288400   80.455000
  C     41.213000   13.862700   80.615800
  C     40.683700   13.460900   81.813300
  H     41.621600   13.117700   79.953900
  C     41.829000   15.951900   79.207400
  H     42.371300   15.161500   78.665800
  H     42.526600   16.735700   79.607500
  C     40.826100   16.565100   78.234800
  H     40.368600   17.403400   78.841400
  H     41.391700   17.045000   77.458700
  C     39.774500   15.593600   77.740700
  H     39.111200   16.101200   77.083100
  H     40.260400   14.741300   77.253400
  H     39.128900   15.268800   78.575400
  S     40.737000   11.809600   84.084900
  C     40.682200   10.117300   83.806300
  C     40.468000    9.786530   82.492600
  C     40.474600   10.895300   81.608700
  C     40.576500   12.084100   82.325200
  H     40.398100    8.742390   82.291200
  C     40.119200   10.734800   80.159700
  H     39.785500   11.566100   79.654000
  H     39.415100    9.833910   80.136200
  C     41.334500   10.052400   79.395300
  H     41.200500    8.976170   79.734200
  H     42.338100   10.396000   79.651500
  C     41.114700   10.161300   77.819900
  H     41.845500    9.576960   77.214700
  H     41.246100   11.262200   77.687400
  H     40.126400    9.841160   77.451300
  H     41.024800   17.083500   81.721100
  H     40.882400    9.403410   84.584000

 Total Charge           Charge          ....    0
 Multiplicity           Mult            ....    1
 Number of Electrons    NEL             ....  134
 Basis Dimension        Dim             ....  322

ORBITAL ENERGIES
----------------

  NO   OCC          E(Eh)            E(eV)
   0   2.0000     -88.967820     -2420.9375
   1   2.0000     -88.967292     -2420.9231
   2   2.0000     -10.330289      -281.1015
   3   2.0000     -10.328588      -281.0552
   4   2.0000     -10.319828      -280.8168
   5   2.0000     -10.313703      -280.6501
   6   2.0000     -10.305340      -280.4225
   7   2.0000     -10.303085      -280.3612
   8   2.0000     -10.300194      -280.2825
   9   2.0000     -10.297348      -280.2051
  10   2.0000     -10.294974      -280.1405
  11   2.0000     -10.291744      -280.0526
  12   2.0000     -10.291374      -280.0425
  13   2.0000     -10.290903      -280.0297
  14   2.0000     -10.285801      -279.8909
  15   2.0000     -10.275171      -279.6016
  16   2.0000      -8.082489      -219.9357
  17   2.0000      -8.082216      -219.9283
  18   2.0000      -6.041142      -164.3878
  19   2.0000      -6.040656      -164.3746
  20   2.0000      -6.037056      -164.2766
  21   2.0000      -6.036856      -164.2712
  22   2.0000      -6.033064      -164.1680
  23   2.0000      -6.032893      -164.1634
  24   2.0000      -1.007759       -27.4225
  25   2.0000      -0.985159       -26.8076
  26   2.0000      -0.912514       -24.8308
  27   2.0000      -0.908725       -24.7277
  28   2.0000      -0.866162       -23.5695
  29   2.0000      -0.852337       -23.1933
  30   2.0000      -0.844043       -22.9676
  31   2.0000      -0.812754       -22.1162
  32   2.0000      -0.783600       -21.3228
  33   2.0000      -0.771381       -20.9903
  34   2.0000      -0.700728       -19.0678
  35   2.0000      -0.698723       -19.0132
  36   2.0000      -0.693198       -18.8629
  37   2.0000      -0.662663       -18.0320
  38   2.0000      -0.631509       -17.1842
  39   2.0000      -0.617141       -16.7933
  40   2.0000      -0.598674       -16.2907
  41   2.0000      -0.573731       -15.6120
  42   2.0000      -0.570664       -15.5286
  43   2.0000      -0.551173       -14.9982
  44   2.0000      -0.543415       -14.7871
  45   2.0000      -0.520437       -14.1618
  46   2.0000      -0.509724       -13.8703
  47   2.0000      -0.508907       -13.8481
  48   2.0000      -0.504364       -13.7244
  49   2.0000      -0.496777       -13.5180
  50   2.0000      -0.487405       -13.2630
  51   2.0000      -0.481430       -13.1004
  52   2.0000      -0.473068       -12.8728
  53   2.0000      -0.469519       -12.7762
  54   2.0000      -0.460330       -12.5262
  55   2.0000      -0.453904       -12.3514
  56   2.0000      -0.441171       -12.0049
  57   2.0000      -0.438980       -11.9453
  58   2.0000      -0.431914       -11.7530
  59   2.0000      -0.425580       -11.5806
  60   2.0000      -0.422083       -11.4855
  61   2.0000      -0.417962       -11.3733
  62   2.0000      -0.412143       -11.2150
  63   2.0000      -0.357473        -9.7273
  64   2.0000      -0.334965        -9.1148
  65   2.0000      -0.328344        -8.9347
  66   2.0000      -0.280799        -7.6409
  67   0.0000       0.022477         0.6116
  68   0.0000       0.076325         2.0769
  69   0.0000       0.101047         2.7496
  70   0.0000       0.107925         2.9368
  71   0.0000       0.126524         3.4429

MULLIKEN ATOMIC CHARGES
-----------------------
   0 S :    0.102107
   1 C :   -0.140946
   2 C :   -0.103972
   3 C :   -0.005187
   4 C :   -0.116327
   5 H :    0.004311
   6 C :    0.033312
   7 H :    0.020482
   8 H :    0.043053
   9 C :   -0.067171
  10 H :    0.023608
  11 H :    0.028242
  12 C :   -0.034009
  13 H :    0.027996
  14 H :    0.031023
  15 H :    0.049543
  16 S :    0.103363
  17 C :   -0.091769
  18 C :   -0.024622
  19 C :   -0.014591
  20 C :   -0.128474
  21 H :    0.008385
  22 C :    0.053735
  23 H :    0.016307
  24 H :    0.047260
  25 C :   -0.136433
  26 H :    0.036589
  27 H :    0.048527
  28 C :   -0.065937
  29 H :    0.047892
  30 H :    0.036711
  31 H :    0.037143
  32 H :    0.076808
  33 H :    0.053040
Sum of atomic charges:    0.0000000

LOEWDIN ATOMIC CHARGES
----------------------
   0 S :    0.405101
   1 C :   -0.224007
   2 C :   -0.062325
   3 C :   -0.072904
   4 C :   -0.184066
   5 H :    0.029649
   6 C :   -0.035237
   7 H :    0.026201
   8 H :    0.037606
   9 C :   -0.043399
  10 H :    0.026491
  11 H :    0.020204
  12 C :   -0.063228
  13 H :    0.023229
  14 H :    0.025019
  15 H :    0.034653
  16 S :    0.396714
  17 C :   -0.186136
  18 C :   -0.069963
  19 C :   -0.053453
  20 C :   -0.183603
  21 H :    0.028210
  22 C :   -0.021941
  23 H :    0.012058
  24 H :    0.047860
  25 C :   -0.040490
  26 H :    0.024029
  27 H :    0.020374
  28 C :   -0.074051
  29 H :    0.029438
  30 H :    0.027506
  31 H :    0.025276
  32 H :    0.047963
  33 H :    0.027222

  Mayer bond orders larger than 0.100000
B(  0-S ,  1-C ) :   1.1332 B(  0-S ,  4-C ) :   1.1482 B(  1-C ,  2-C ) :   1.6135
B(  1-C , 32-H ) :   0.9536 B(  2-C ,  3-C ) :   1.2392 B(  2-C ,  6-C ) :   1.0084
B(  3-C ,  4-C ) :   1.5767 B(  3-C ,  5-H ) :   0.9908 B(  4-C , 20-C ) :   1.0658
B(  6-C ,  7-H ) :   0.9449 B(  6-C ,  8-H ) :   0.9440 B(  6-C ,  9-C ) :   1.0731
B(  9-C , 10-H ) :   0.9523 B(  9-C , 11-H ) :   0.9561 B(  9-C , 12-C ) :   1.0799
B( 12-C , 13-H ) :   0.9715 B( 12-C , 14-H ) :   0.9754 B( 12-C , 15-H ) :   0.9679
B( 16-S , 17-C ) :   1.1581 B( 16-S , 20-C ) :   1.1250 B( 17-C , 18-C ) :   1.6285
B( 17-C , 33-H ) :   0.9664 B( 18-C , 19-C ) :   1.2201 B( 18-C , 21-H ) :   0.9934
B( 19-C , 20-C ) :   1.5972 B( 19-C , 22-C ) :   1.0450 B( 22-C , 23-H ) :   0.9563
B( 22-C , 24-H ) :   0.9435 B( 22-C , 25-C ) :   1.0072 B( 25-C , 26-H ) :   0.9663
B( 25-C , 27-H ) :   0.9656 B( 25-C , 28-C ) :   1.0644 B( 28-C , 29-H ) :   0.9767
B( 28-C , 30-H ) :   0.9793 B( 28-C , 31-H ) :   0.9742

Dispersion correction           -0.014579730
FINAL SINGLE POINT ENERGY     -1339.875491280923

DIPOLE MOMENT
-------------
                                X             Y             Z
Electronic contribution:     -1.34246       1.40957      31.34999
Nuclear contribution   :      1.55774      -1.67127     -31.94021
                        -----------------------------------------
Total Dipole Moment    :      0.21528      -0.26171      -0.59022
                        -----------------------------------------
Magnitude (a.u.)       :      0.68059
Magnitude (Debye)      :      1.72992

Rotational constants in cm-1:     0.017185     0.010120     0.006702
Rotational constants in MHz :   515.182895   303.391216   200.915766

                             ****ORCA TERMINATED NORMALLY****
TOTAL RUN TIME: 0 days 0 hours 0 minutes 28 seconds 856 msec
