                         Program Version 4.2.1 -  RELEASE  -
|  1> ! wB97X-D3 SP def2-SVP
|  2> %pal
|  3> nprocs 16
|  4> end
|  5>
|  6> * xyz 0 1
|  7> S 	 -39.5953 	 50.667 	 96.1002
|  8> C 	 -38.3569 	 50.0327 	 97.1765
|  9> C 	 -38.2383 	 48.7057 	 97.0767
| 10> C 	 -38.9747 	 48.2347 	 95.8981
| 11> C 	 -39.7596 	 49.177 	 95.2819
| 12> H 	 -39.129 	 47.1932 	 95.6246
| 13> C 	 -37.6585 	 47.7579 	 98.1332
| 14> H 	 -36.6338 	 48.1102 	 98.3559
| 15> H 	 -37.6409 	 46.8015 	 97.6108
| 16> C 	 -38.5139 	 47.6491 	 99.4016
| 17> H 	 -38.0302 	 46.9803 	 100.095
| 18> H 	 -38.6328 	 48.6626 	 99.8246
| 19> C 	 -39.835 	 46.9133 	 99.237
| 20> H 	 -39.7597 	 45.8676 	 98.9522
| 21> H 	 -40.3577 	 46.796 	 100.151
| 22> H 	 -40.4571 	 47.4609 	 98.5356
| 23> S 	 -40.7921 	 47.5014 	 93.3048
| 24> C 	 -42.2879 	 48.0453 	 92.4864
| 25> C 	 -42.9781 	 48.8874 	 93.3143
| 26> C 	 -42.1225 	 49.542 	 94.2521
| 27> C 	 -40.858 	 48.9037 	 94.3491
| 28> H 	 -44.0194 	 49.1358 	 93.0266
| 29> C 	 -42.6976 	 50.6972 	 95.0118
| 30> H 	 -43.5077 	 51.0182 	 94.3762
| 31> H 	 -41.9816 	 51.5246 	 95.0175
| 32> C 	 -43.1036 	 50.4036 	 96.4728
| 33> H 	 -42.3795 	 49.9375 	 97.0216
| 34> H 	 -43.9568 	 49.6858 	 96.3702
| 35> C 	 -43.3968 	 51.6979 	 97.2832
| 36> H 	 -42.4563 	 52.2303 	 97.6078
| 37> H 	 -43.7841 	 51.4773 	 98.2712
| 38> H 	 -44.1197 	 52.3088 	 96.7108
| 39> H 	 -38.0649 	 50.617 	 98.0519
| 40> H 	 -42.81 	 47.5006 	 91.7
| 41> *
| 42>
| 43>                          ****END OF INPUT****

CARTESIAN COORDINATES (ANGSTROEM)
---------------------------------
  S    -39.595300   50.667000   96.100200
  C    -38.356900   50.032700   97.176500
  C    -38.238300   48.705700   97.076700
  C    -38.974700   48.234700   95.898100
  C    -39.759600   49.177000   95.281900
  H    -39.129000   47.193200   95.624600
  C    -37.658500   47.757900   98.133200
  H    -36.633800   48.110200   98.355900
  H    -37.640900   46.801500   97.610800
  C    -38.513900   47.649100   99.401600
  H    -38.030200   46.980300  100.095000
  H    -38.632800   48.662600   99.824600
  C    -39.835000   46.913300   99.237000
  H    -39.759700   45.867600   98.952200
  H    -40.357700   46.796000  100.151000
  H    -40.457100   47.460900   98.535600
  S    -40.792100   47.501400   93.304800
  C    -42.287900   48.045300   92.486400
  C    -42.978100   48.887400   93.314300
  C    -42.122500   49.542000   94.252100
  C    -40.858000   48.903700   94.349100
  H    -44.019400   49.135800   93.026600
  C    -42.697600   50.697200   95.011800
  H    -43.507700   51.018200   94.376200
  H    -41.981600   51.524600   95.017500
  C    -43.103600   50.403600   96.472800
  H    -42.379500   49.937500   97.021600
  H    -43.956800   49.685800   96.370200
  C    -43.396800   51.697900   97.283200
  H    -42.456300   52.230300   97.607800
  H    -43.784100   51.477300   98.271200
  H    -44.119700   52.308800   96.710800
  H    -38.064900   50.617000   98.051900
  H    -42.810000   47.500600   91.700000

 Total Charge           Charge          ....    0
 Multiplicity           Mult            ....    1
 Number of Electrons    NEL             ....  134
 Basis Dimension        Dim             ....  322

ORBITAL ENERGIES
----------------

  NO   OCC          E(Eh)            E(eV)
   0   2.0000     -88.967930     -2420.9405
   1   2.0000     -88.964500     -2420.8471
   2   2.0000     -10.333690      -281.1940
   3   2.0000     -10.329170      -281.0710
   4   2.0000     -10.318494      -280.7805
   5   2.0000     -10.309415      -280.5334
   6   2.0000     -10.305593      -280.4294
   7   2.0000     -10.301830      -280.3270
   8   2.0000     -10.297482      -280.2087
   9   2.0000     -10.296915      -280.1933
  10   2.0000     -10.293491      -280.1001
  11   2.0000     -10.289330      -279.9869
  12   2.0000     -10.288852      -279.9739
  13   2.0000     -10.282359      -279.7972
  14   2.0000     -10.282278      -279.7950
  15   2.0000     -10.272247      -279.5220
  16   2.0000      -8.081879      -219.9191
  17   2.0000      -8.079578      -219.8565
  18   2.0000      -6.040544      -164.3716
  19   2.0000      -6.038215      -164.3082
  20   2.0000      -6.036772      -164.2689
  21   2.0000      -6.034102      -164.1963
  22   2.0000      -6.032257      -164.1461
  23   2.0000      -6.030111      -164.0877
  24   2.0000      -1.010973       -27.5100
  25   2.0000      -0.986788       -26.8519
  26   2.0000      -0.915472       -24.9113
  27   2.0000      -0.907691       -24.6995
  28   2.0000      -0.874083       -23.7850
  29   2.0000      -0.851862       -23.1803
  30   2.0000      -0.842149       -22.9160
  31   2.0000      -0.815708       -22.1966
  32   2.0000      -0.787832       -21.4380
  33   2.0000      -0.770639       -20.9702
  34   2.0000      -0.708407       -19.2767
  35   2.0000      -0.704529       -19.1712
  36   2.0000      -0.691883       -18.8271
  37   2.0000      -0.664020       -18.0689
  38   2.0000      -0.636567       -17.3219
  39   2.0000      -0.608942       -16.5702
  40   2.0000      -0.593051       -16.1377
  41   2.0000      -0.578475       -15.7411
  42   2.0000      -0.566162       -15.4060
  43   2.0000      -0.554221       -15.0811
  44   2.0000      -0.546833       -14.8801
  45   2.0000      -0.527510       -14.3543
  46   2.0000      -0.512185       -13.9373
  47   2.0000      -0.508074       -13.8254
  48   2.0000      -0.502231       -13.6664
  49   2.0000      -0.495668       -13.4878
  50   2.0000      -0.489704       -13.3255
  51   2.0000      -0.481858       -13.1120
  52   2.0000      -0.479930       -13.0596
  53   2.0000      -0.461657       -12.5623
  54   2.0000      -0.460161       -12.5216
  55   2.0000      -0.455235       -12.3876
  56   2.0000      -0.443053       -12.0561
  57   2.0000      -0.438802       -11.9404
  58   2.0000      -0.431123       -11.7315
  59   2.0000      -0.427790       -11.6408
  60   2.0000      -0.422005       -11.4833
  61   2.0000      -0.412227       -11.2173
  62   2.0000      -0.408027       -11.1030
  63   2.0000      -0.363491        -9.8911
  64   2.0000      -0.330507        -8.9935
  65   2.0000      -0.326832        -8.8936
  66   2.0000      -0.283838        -7.7236
  67   0.0000       0.017630         0.4797
  68   0.0000       0.076889         2.0923
  69   0.0000       0.095784         2.6064
  70   0.0000       0.120251         3.2722
  71   0.0000       0.136410         3.7119

MULLIKEN ATOMIC CHARGES
-----------------------
   0 S :    0.071493
   1 C :   -0.120715
   2 C :   -0.109291
   3 C :   -0.021655
   4 C :   -0.089876
   5 H :    0.013622
   6 C :    0.081825
   7 H :    0.043617
   8 H :    0.018668
   9 C :   -0.057247
  10 H :    0.028221
  11 H :    0.033647
  12 C :   -0.051136
  13 H :    0.024224
  14 H :    0.022147
  15 H :    0.042220
  16 S :    0.091923
  17 C :   -0.086908
  18 C :   -0.049293
  19 C :   -0.093688
  20 C :   -0.104856
  21 H :    0.038220
  22 C :    0.058722
  23 H :    0.015999
  24 H :    0.029551
  25 C :   -0.029011
  26 H :    0.013677
  27 H :    0.027944
  28 C :   -0.061374
  29 H :    0.038881
  30 H :    0.026259
  31 H :    0.039980
  32 H :    0.054562
  33 H :    0.059648
Sum of atomic charges:   -0.0000000

LOEWDIN ATOMIC CHARGES
----------------------
   0 S :    0.423474
   1 C :   -0.197957
   2 C :   -0.061635
   3 C :   -0.078826
   4 C :   -0.195285
   5 H :    0.023149
   6 C :   -0.026498
   7 H :    0.037359
   8 H :    0.029942
   9 C :   -0.037768
  10 H :    0.025456
  11 H :    0.025961
  12 C :   -0.064853
  13 H :    0.026217
  14 H :    0.023298
  15 H :    0.024556
  16 S :    0.388996
  17 C :   -0.174235
  18 C :   -0.069584
  19 C :   -0.059026
  20 C :   -0.188956
  21 H :    0.038951
  22 C :   -0.039313
  23 H :    0.029728
  24 H :    0.022969
  25 C :   -0.033173
  26 H :    0.007263
  27 H :    0.028003
  28 C :   -0.069531
  29 H :    0.032845
  30 H :    0.024037
  31 H :    0.025906
  32 H :    0.028310
  33 H :    0.030218

  Mayer bond orders larger than 0.100000
B(  0-S ,  1-C ) :   1.1174 B(  0-S ,  4-C ) :   1.1546 B(  1-C ,  2-C ) :   1.6558
B(  1-C , 32-H ) :   0.9635 B(  2-C ,  3-C ) :   1.2352 B(  2-C ,  6-C ) :   1.0114
B(  3-C ,  4-C ) :   1.5766 B(  3-C ,  5-H ) :   0.9844 B(  4-C , 20-C ) :   1.0691
B(  6-C ,  7-H ) :   0.9385 B(  6-C ,  8-H ) :   0.9393 B(  6-C ,  9-C ) :   1.0758
B(  9-C , 10-H ) :   0.9551 B(  9-C , 11-H ) :   0.9555 B(  9-C , 12-C ) :   1.0802
B( 12-C , 13-H ) :   0.9705 B( 12-C , 14-H ) :   0.9702 B( 12-C , 15-H ) :   0.9771
B( 16-S , 17-C ) :   1.1322 B( 16-S , 20-C ) :   1.1366 B( 17-C , 18-C ) :   1.6415
B( 17-C , 33-H ) :   0.9624 B( 18-C , 19-C ) :   1.2484 B( 18-C , 21-H ) :   0.9740
B( 19-C , 20-C ) :   1.5485 B( 19-C , 22-C ) :   1.0474 B( 22-C , 23-H ) :   0.9243
B( 22-C , 24-H ) :   0.9334 B( 22-C , 25-C ) :   1.0520 B( 25-C , 26-H ) :   0.9587
B( 25-C , 27-H ) :   0.9531 B( 25-C , 28-C ) :   1.0801 B( 28-C , 29-H ) :   0.9708
B( 28-C , 30-H ) :   0.9723 B( 28-C , 31-H ) :   0.9769

Dispersion correction           -0.015258527
FINAL SINGLE POINT ENERGY     -1339.861366339776

DIPOLE MOMENT
-------------
                                X             Y             Z
Electronic contribution:      7.06485      -0.47086     -20.77590
Nuclear contribution   :     -7.49092       0.24834      21.35904
                        -----------------------------------------
Total Dipole Moment    :     -0.42608      -0.22252       0.58314
                        -----------------------------------------
Magnitude (a.u.)       :      0.75572
Magnitude (Debye)      :      1.92089

Rotational constants in cm-1:     0.017913     0.009919     0.007989
Rotational constants in MHz :   537.030970   297.373170   239.492766

                             ****ORCA TERMINATED NORMALLY****
TOTAL RUN TIME: 0 days 0 hours 0 minutes 31 seconds 726 msec
