                         Program Version 4.2.1 -  RELEASE  -
|  1> ! wB97X-D3 SP def2-SVP
|  2> %pal
|  3> nprocs 16
|  4> end
|  5>
|  6> * xyz 0 1
|  7> S 	 21.1153 	 -0.422214 	 77.4011
|  8> C 	 22.2825 	 0.237724 	 78.4872
|  9> C 	 21.6896 	 1.11408 	 79.3943
| 10> C 	 20.2902 	 1.1295 	 79.2775
| 11> C 	 19.7882 	 0.432043 	 78.2084
| 12> H 	 19.6047 	 1.60492 	 79.9672
| 13> C 	 22.445 	 1.72971 	 80.5341
| 14> H 	 22.7913 	 0.885462 	 81.1611
| 15> H 	 21.8252 	 2.35607 	 81.1537
| 16> C 	 23.7207 	 2.35784 	 80.0636
| 17> H 	 24.4695 	 1.65692 	 79.8567
| 18> H 	 23.4542 	 2.86844 	 79.1891
| 19> C 	 24.4221 	 3.29731 	 81.0109
| 20> H 	 25.1288 	 3.96345 	 80.5603
| 21> H 	 23.7559 	 3.96532 	 81.5974
| 22> H 	 24.8084 	 2.54464 	 81.6964
| 23> S 	 17.5111 	 -0.875972 	 77.4677
| 24> C 	 16.0823 	 -0.0389537 	 76.935
| 25> C 	 16.3507 	 1.33814 	 76.9233
| 26> C 	 17.6617 	 1.63081 	 77.3266
| 27> C 	 18.4081 	 0.568516 	 77.7437
| 28> H 	 15.5946 	 1.93026 	 76.5401
| 29> C 	 18.2536 	 3.04312 	 77.1422
| 30> H 	 19.1158 	 2.77674 	 76.6424
| 31> H 	 18.4558 	 3.50173 	 78.1058
| 32> C 	 17.4117 	 4.10507 	 76.3631
| 33> H 	 16.5208 	 4.11418 	 76.8827
| 34> H 	 17.2068 	 3.98877 	 75.3498
| 35> C 	 18.1945 	 5.357 	 76.3007
| 36> H 	 18.4643 	 5.69028 	 77.3163
| 37> H 	 17.4596 	 6.08055 	 75.8708
| 38> H 	 18.9471 	 5.34298 	 75.5849
| 39> H 	 23.281 	 -0.0564314 	 78.5106
| 40> H 	 15.0498 	 -0.462721 	 76.8869
| 41> *
| 42>
| 43>                          ****END OF INPUT****

CARTESIAN COORDINATES (ANGSTROEM)
---------------------------------
  S     21.115300   -0.422214   77.401100
  C     22.282500    0.237724   78.487200
  C     21.689600    1.114080   79.394300
  C     20.290200    1.129500   79.277500
  C     19.788200    0.432043   78.208400
  H     19.604700    1.604920   79.967200
  C     22.445000    1.729710   80.534100
  H     22.791300    0.885462   81.161100
  H     21.825200    2.356070   81.153700
  C     23.720700    2.357840   80.063600
  H     24.469500    1.656920   79.856700
  H     23.454200    2.868440   79.189100
  C     24.422100    3.297310   81.010900
  H     25.128800    3.963450   80.560300
  H     23.755900    3.965320   81.597400
  H     24.808400    2.544640   81.696400
  S     17.511100   -0.875972   77.467700
  C     16.082300   -0.038954   76.935000
  C     16.350700    1.338140   76.923300
  C     17.661700    1.630810   77.326600
  C     18.408100    0.568516   77.743700
  H     15.594600    1.930260   76.540100
  C     18.253600    3.043120   77.142200
  H     19.115800    2.776740   76.642400
  H     18.455800    3.501730   78.105800
  C     17.411700    4.105070   76.363100
  H     16.520800    4.114180   76.882700
  H     17.206800    3.988770   75.349800
  C     18.194500    5.357000   76.300700
  H     18.464300    5.690280   77.316300
  H     17.459600    6.080550   75.870800
  H     18.947100    5.342980   75.584900
  H     23.281000   -0.056431   78.510600
  H     15.049800   -0.462721   76.886900

 Total Charge           Charge          ....    0
 Multiplicity           Mult            ....    1
 Number of Electrons    NEL             ....  134
 Basis Dimension        Dim             ....  322

ORBITAL ENERGIES
----------------

  NO   OCC          E(Eh)            E(eV)
   0   2.0000     -88.967873     -2420.9389
   1   2.0000     -88.960812     -2420.7468
   2   2.0000     -10.327894      -281.0363
   3   2.0000     -10.319843      -280.8172
   4   2.0000     -10.319140      -280.7981
   5   2.0000     -10.309265      -280.5294
   6   2.0000     -10.298115      -280.2260
   7   2.0000     -10.297351      -280.2052
   8   2.0000     -10.289899      -280.0024
   9   2.0000     -10.288285      -279.9585
  10   2.0000     -10.286907      -279.9210
  11   2.0000     -10.281562      -279.7755
  12   2.0000     -10.275453      -279.6093
  13   2.0000     -10.272339      -279.5246
  14   2.0000     -10.271272      -279.4955
  15   2.0000     -10.270754      -279.4814
  16   2.0000      -8.082370      -219.9325
  17   2.0000      -8.076333      -219.7682
  18   2.0000      -6.040892      -164.3810
  19   2.0000      -6.036781      -164.2692
  20   2.0000      -6.034674      -164.2118
  21   2.0000      -6.033273      -164.1737
  22   2.0000      -6.030521      -164.0988
  23   2.0000      -6.027429      -164.0147
  24   2.0000      -1.010421       -27.4950
  25   2.0000      -0.989594       -26.9282
  26   2.0000      -0.923231       -25.1224
  27   2.0000      -0.915758       -24.9190
  28   2.0000      -0.872222       -23.7344
  29   2.0000      -0.858135       -23.3511
  30   2.0000      -0.852786       -23.2055
  31   2.0000      -0.819441       -22.2981
  32   2.0000      -0.780686       -21.2436
  33   2.0000      -0.769316       -20.9342
  34   2.0000      -0.709846       -19.3159
  35   2.0000      -0.707155       -19.2427
  36   2.0000      -0.693111       -18.8605
  37   2.0000      -0.657811       -17.8999
  38   2.0000      -0.646747       -17.5989
  39   2.0000      -0.619271       -16.8512
  40   2.0000      -0.595553       -16.2058
  41   2.0000      -0.586789       -15.9673
  42   2.0000      -0.582564       -15.8524
  43   2.0000      -0.574982       -15.6460
  44   2.0000      -0.533794       -14.5253
  45   2.0000      -0.529068       -14.3967
  46   2.0000      -0.525218       -14.2919
  47   2.0000      -0.513639       -13.9768
  48   2.0000      -0.507964       -13.8224
  49   2.0000      -0.506513       -13.7829
  50   2.0000      -0.491047       -13.3621
  51   2.0000      -0.486127       -13.2282
  52   2.0000      -0.477025       -12.9805
  53   2.0000      -0.472573       -12.8594
  54   2.0000      -0.458834       -12.4855
  55   2.0000      -0.443397       -12.0655
  56   2.0000      -0.441073       -12.0022
  57   2.0000      -0.432717       -11.7748
  58   2.0000      -0.431601       -11.7445
  59   2.0000      -0.426819       -11.6143
  60   2.0000      -0.420335       -11.4379
  61   2.0000      -0.412533       -11.2256
  62   2.0000      -0.400929       -10.9098
  63   2.0000      -0.343014        -9.3339
  64   2.0000      -0.331277        -9.0145
  65   2.0000      -0.328767        -8.9462
  66   2.0000      -0.293786        -7.9943
  67   0.0000       0.031304         0.8518
  68   0.0000       0.063816         1.7365
  69   0.0000       0.122666         3.3379
  70   0.0000       0.129080         3.5124
  71   0.0000       0.134057         3.6479

MULLIKEN ATOMIC CHARGES
-----------------------
   0 S :    0.125626
   1 C :   -0.108426
   2 C :   -0.080630
   3 C :    0.019089
   4 C :   -0.137976
   5 H :    0.014258
   6 C :    0.090699
   7 H :    0.037166
   8 H :    0.012759
   9 C :   -0.077845
  10 H :    0.018393
  11 H :    0.016914
  12 C :   -0.032901
  13 H :    0.038341
  14 H :    0.022695
  15 H :    0.022804
  16 S :    0.102019
  17 C :   -0.109048
  18 C :   -0.044943
  19 C :   -0.021992
  20 C :   -0.187246
  21 H :   -0.003385
  22 C :    0.090364
  23 H :    0.020177
  24 H :    0.026428
  25 C :   -0.054702
  26 H :    0.015967
  27 H :    0.012126
  28 C :   -0.011030
  29 H :    0.028208
  30 H :    0.022468
  31 H :    0.025324
  32 H :    0.030100
  33 H :    0.078200
Sum of atomic charges:    0.0000000

LOEWDIN ATOMIC CHARGES
----------------------
   0 S :    0.413459
   1 C :   -0.192323
   2 C :   -0.062839
   3 C :   -0.058481
   4 C :   -0.196076
   5 H :    0.033399
   6 C :   -0.027451
   7 H :    0.039257
   8 H :    0.025239
   9 C :   -0.040537
  10 H :    0.018224
  11 H :    0.013878
  12 C :   -0.060737
  13 H :    0.025438
  14 H :    0.022842
  15 H :    0.027258
  16 S :    0.425138
  17 C :   -0.195646
  18 C :   -0.072616
  19 C :   -0.055880
  20 C :   -0.215408
  21 H :    0.020431
  22 C :   -0.017438
  23 H :    0.023582
  24 H :    0.030396
  25 C :   -0.036119
  26 H :    0.012747
  27 H :    0.019535
  28 C :   -0.050340
  29 H :    0.023236
  30 H :    0.032202
  31 H :    0.018099
  32 H :    0.015557
  33 H :    0.041973

  Mayer bond orders larger than 0.100000
B(  0-S ,  1-C ) :   1.1569 B(  0-S ,  4-C ) :   1.1473 B(  1-C ,  2-C ) :   1.5567
B(  1-C ,  4-C ) :   0.1038 B(  1-C , 32-H ) :   0.9802 B(  2-C ,  3-C ) :   1.2742
B(  2-C ,  6-C ) :   1.0367 B(  3-C ,  4-C ) :   1.5526 B(  3-C ,  5-H ) :   0.9996
B(  4-C , 20-C ) :   1.0322 B(  6-C ,  7-H ) :   0.9300 B(  6-C ,  8-H ) :   0.9450
B(  6-C ,  9-C ) :   1.0588 B(  9-C , 10-H ) :   0.9518 B(  9-C , 11-H ) :   0.9657
B(  9-C , 12-C ) :   1.0780 B( 12-C , 13-H ) :   0.9750 B( 12-C , 14-H ) :   0.9765
B( 12-C , 15-H ) :   0.9790 B( 16-S , 17-C ) :   1.1883 B( 16-S , 20-C ) :   1.1493
B( 17-C , 18-C ) :   1.5612 B( 17-C , 20-C ) :   0.1076 B( 17-C , 33-H ) :   0.9577
B( 18-C , 19-C ) :   1.2724 B( 18-C , 21-H ) :   1.0034 B( 19-C , 20-C ) :   1.5865
B( 19-C , 22-C ) :   0.9976 B( 22-C , 23-H ) :   0.9351 B( 22-C , 24-H ) :   0.9330
B( 22-C , 25-C ) :   1.0848 B( 25-C , 26-H ) :   0.9470 B( 25-C , 27-H ) :   0.9523
B( 25-C , 28-C ) :   1.0946 B( 28-C , 29-H ) :   0.9712 B( 28-C , 30-H ) :   0.9690
B( 28-C , 31-H ) :   0.9753

Dispersion correction           -0.013416298
FINAL SINGLE POINT ENERGY     -1339.841502934264

DIPOLE MOMENT
-------------
                                X             Y             Z
Electronic contribution:    -10.54508     -26.91636      -7.01362
Nuclear contribution   :     10.58497      27.52059       7.19750
                        -----------------------------------------
Total Dipole Moment    :      0.03990       0.60423       0.18387
                        -----------------------------------------
Magnitude (a.u.)       :      0.63284
Magnitude (Debye)      :      1.60856

Rotational constants in cm-1:     0.018300     0.008079     0.006132
Rotational constants in MHz :   548.607057   242.202060   183.844045

                             ****ORCA TERMINATED NORMALLY****
TOTAL RUN TIME: 0 days 0 hours 0 minutes 34 seconds 49 msec
