                         Program Version 4.2.1 -  RELEASE  -
|  1> ! wB97X-D3 SP def2-SVP
|  2> %pal
|  3> nprocs 16
|  4> end
|  5>
|  6> * xyz 0 1
|  7> S 	 56.2406 	 15.0627 	 79.9504
|  8> C 	 57.0983 	 16.3994 	 79.1249
|  9> C 	 58.2561 	 15.959 	 78.5479
| 10> C 	 58.488 	 14.5228 	 78.7945
| 11> C 	 57.5251 	 13.9435 	 79.5489
| 12> H 	 59.3792 	 13.9826 	 78.6498
| 13> C 	 59.2988 	 16.8255 	 77.8613
| 14> H 	 60.2663 	 16.4435 	 77.7733
| 15> H 	 59.3545 	 17.7796 	 78.2335
| 16> C 	 59.0513 	 17.1675 	 76.3891
| 17> H 	 58.181 	 17.8317 	 76.2596
| 18> H 	 59.9207 	 17.7399 	 76.0044
| 19> C 	 58.8989 	 15.9232 	 75.5009
| 20> H 	 58.7838 	 16.2772 	 74.4318
| 21> H 	 59.8465 	 15.2534 	 75.5349
| 22> H 	 58.0283 	 15.2934 	 75.7501
| 23> S 	 56.8292 	 12.7121 	 81.9167
| 24> C 	 57.1758 	 11.0745 	 82.2105
| 25> C 	 57.8098 	 10.5502 	 81.1243
| 26> C 	 57.9639 	 11.3879 	 80.01
| 27> C 	 57.5288 	 12.6814 	 80.2598
| 28> H 	 58.1549 	 9.55487 	 81.1632
| 29> C 	 58.6466 	 11.0103 	 78.7517
| 30> H 	 59.5541 	 10.3787 	 79.0425
| 31> H 	 59.0798 	 11.9243 	 78.4017
| 32> C 	 57.6995 	 10.1792 	 77.8468
| 33> H 	 57.3389 	 9.34841 	 78.4445
| 34> H 	 58.3216 	 9.74242 	 77.055
| 35> C 	 56.4557 	 10.9369 	 77.2814
| 36> H 	 56.9465 	 11.7981 	 76.824
| 37> H 	 55.7081 	 11.2278 	 78.0521
| 38> H 	 55.9715 	 10.3491 	 76.5289
| 39> H 	 56.7744 	 17.4159 	 79.1475
| 40> H 	 56.8564 	 10.6206 	 83.0842
| 41> *
| 42>
| 43>                          ****END OF INPUT****

CARTESIAN COORDINATES (ANGSTROEM)
---------------------------------
  S     56.240600   15.062700   79.950400
  C     57.098300   16.399400   79.124900
  C     58.256100   15.959000   78.547900
  C     58.488000   14.522800   78.794500
  C     57.525100   13.943500   79.548900
  H     59.379200   13.982600   78.649800
  C     59.298800   16.825500   77.861300
  H     60.266300   16.443500   77.773300
  H     59.354500   17.779600   78.233500
  C     59.051300   17.167500   76.389100
  H     58.181000   17.831700   76.259600
  H     59.920700   17.739900   76.004400
  C     58.898900   15.923200   75.500900
  H     58.783800   16.277200   74.431800
  H     59.846500   15.253400   75.534900
  H     58.028300   15.293400   75.750100
  S     56.829200   12.712100   81.916700
  C     57.175800   11.074500   82.210500
  C     57.809800   10.550200   81.124300
  C     57.963900   11.387900   80.010000
  C     57.528800   12.681400   80.259800
  H     58.154900    9.554870   81.163200
  C     58.646600   11.010300   78.751700
  H     59.554100   10.378700   79.042500
  H     59.079800   11.924300   78.401700
  C     57.699500   10.179200   77.846800
  H     57.338900    9.348410   78.444500
  H     58.321600    9.742420   77.055000
  C     56.455700   10.936900   77.281400
  H     56.946500   11.798100   76.824000
  H     55.708100   11.227800   78.052100
  H     55.971500   10.349100   76.528900
  H     56.774400   17.415900   79.147500
  H     56.856400   10.620600   83.084200

 Total Charge           Charge          ....    0
 Multiplicity           Mult            ....    1
 Number of Electrons    NEL             ....  134
 Basis Dimension        Dim             ....  322

ORBITAL ENERGIES
----------------

  NO   OCC          E(Eh)            E(eV)
   0   2.0000     -88.963676     -2420.8247
   1   2.0000     -88.959331     -2420.7065
   2   2.0000     -10.329860      -281.0898
   3   2.0000     -10.327346      -281.0214
   4   2.0000     -10.315772      -280.7064
   5   2.0000     -10.309284      -280.5299
   6   2.0000     -10.309115      -280.5253
   7   2.0000     -10.297909      -280.2203
   8   2.0000     -10.293613      -280.1034
   9   2.0000     -10.293335      -280.0959
  10   2.0000     -10.288823      -279.9731
  11   2.0000     -10.288059      -279.9523
  12   2.0000     -10.285614      -279.8858
  13   2.0000     -10.285381      -279.8794
  14   2.0000     -10.281275      -279.7677
  15   2.0000     -10.275159      -279.6013
  16   2.0000      -8.078189      -219.8187
  17   2.0000      -8.074734      -219.7247
  18   2.0000      -6.036926      -164.2731
  19   2.0000      -6.033128      -164.1697
  20   2.0000      -6.032819      -164.1613
  21   2.0000      -6.029026      -164.0581
  22   2.0000      -6.028599      -164.0465
  23   2.0000      -6.025663      -163.9666
  24   2.0000      -1.010335       -27.4926
  25   2.0000      -0.985342       -26.8125
  26   2.0000      -0.916353       -24.9352
  27   2.0000      -0.911607       -24.8061
  28   2.0000      -0.871438       -23.7130
  29   2.0000      -0.849745       -23.1227
  30   2.0000      -0.838505       -22.8169
  31   2.0000      -0.816762       -22.2252
  32   2.0000      -0.785682       -21.3795
  33   2.0000      -0.777271       -21.1506
  34   2.0000      -0.706346       -19.2207
  35   2.0000      -0.703290       -19.1375
  36   2.0000      -0.692355       -18.8399
  37   2.0000      -0.661673       -18.0050
  38   2.0000      -0.646482       -17.5917
  39   2.0000      -0.618796       -16.8383
  40   2.0000      -0.602757       -16.4019
  41   2.0000      -0.579293       -15.7634
  42   2.0000      -0.555531       -15.1168
  43   2.0000      -0.550532       -14.9807
  44   2.0000      -0.544503       -14.8167
  45   2.0000      -0.536286       -14.5931
  46   2.0000      -0.522274       -14.2118
  47   2.0000      -0.511420       -13.9165
  48   2.0000      -0.505847       -13.7648
  49   2.0000      -0.496527       -13.5112
  50   2.0000      -0.492494       -13.4014
  51   2.0000      -0.479685       -13.0529
  52   2.0000      -0.474712       -12.9176
  53   2.0000      -0.463775       -12.6200
  54   2.0000      -0.459351       -12.4996
  55   2.0000      -0.445445       -12.1212
  56   2.0000      -0.443208       -12.0603
  57   2.0000      -0.435618       -11.8538
  58   2.0000      -0.428215       -11.6523
  59   2.0000      -0.422063       -11.4849
  60   2.0000      -0.417769       -11.3681
  61   2.0000      -0.414658       -11.2834
  62   2.0000      -0.407837       -11.0978
  63   2.0000      -0.357690        -9.7332
  64   2.0000      -0.329866        -8.9761
  65   2.0000      -0.328355        -8.9350
  66   2.0000      -0.289573        -7.8797
  67   0.0000       0.024184         0.6581
  68   0.0000       0.076988         2.0949
  69   0.0000       0.107539         2.9263
  70   0.0000       0.116853         3.1797
  71   0.0000       0.127638         3.4732

MULLIKEN ATOMIC CHARGES
-----------------------
   0 S :    0.086329
   1 C :   -0.116993
   2 C :   -0.068441
   3 C :    0.021256
   4 C :   -0.110831
   5 H :    0.008977
   6 C :    0.149068
   7 H :    0.005436
   8 H :    0.004111
   9 C :   -0.116032
  10 H :    0.029222
  11 H :    0.033182
  12 C :   -0.107104
  13 H :    0.042487
  14 H :    0.034384
  15 H :    0.056533
  16 S :    0.083229
  17 C :   -0.052483
  18 C :   -0.019436
  19 C :   -0.045783
  20 C :   -0.155735
  21 H :   -0.003741
  22 C :    0.066524
  23 H :    0.035335
  24 H :   -0.003816
  25 C :   -0.066977
  26 H :    0.022955
  27 H :    0.031649
  28 C :   -0.046262
  29 H :    0.034513
  30 H :    0.057960
  31 H :    0.034077
  32 H :    0.041332
  33 H :    0.035075
Sum of atomic charges:   -0.0000000

LOEWDIN ATOMIC CHARGES
----------------------
   0 S :    0.380217
   1 C :   -0.176524
   2 C :   -0.048838
   3 C :   -0.064421
   4 C :   -0.179355
   5 H :    0.022745
   6 C :   -0.024972
   7 H :    0.024949
   8 H :    0.023334
   9 C :   -0.040899
  10 H :    0.019772
  11 H :    0.026658
  12 C :   -0.081581
  13 H :    0.030831
  14 H :    0.028637
  15 H :    0.027366
  16 S :    0.402123
  17 C :   -0.179716
  18 C :   -0.072213
  19 C :   -0.059817
  20 C :   -0.184467
  21 H :    0.022864
  22 C :   -0.034035
  23 H :    0.041877
  24 H :    0.021498
  25 C :   -0.035478
  26 H :    0.020894
  27 H :    0.024076
  28 C :   -0.063601
  29 H :    0.027735
  30 H :    0.034353
  31 H :    0.023309
  32 H :    0.025204
  33 H :    0.017473

  Mayer bond orders larger than 0.100000
B(  0-S ,  1-C ) :   1.1037 B(  0-S ,  4-C ) :   1.1258 B(  1-C ,  2-C ) :   1.6633
B(  1-C , 32-H ) :   0.9734 B(  2-C ,  3-C ) :   1.1745 B(  2-C ,  6-C ) :   1.0315
B(  3-C ,  4-C ) :   1.6323 B(  3-C ,  5-H ) :   0.9865 B(  4-C , 20-C ) :   1.0557
B(  6-C ,  7-H ) :   0.9420 B(  6-C ,  8-H ) :   0.9343 B(  6-C ,  9-C ) :   1.0658
B(  9-C , 10-H ) :   0.9564 B(  9-C , 11-H ) :   0.9578 B(  9-C , 12-C ) :   1.0760
B( 12-C , 13-H ) :   0.9743 B( 12-C , 14-H ) :   0.9737 B( 12-C , 15-H ) :   0.9721
B( 16-S , 17-C ) :   1.1709 B( 16-S , 20-C ) :   1.1367 B( 17-C , 18-C ) :   1.5598
B( 17-C , 20-C ) :   0.1019 B( 17-C , 33-H ) :   0.9828 B( 18-C , 19-C ) :   1.2667
B( 18-C , 21-H ) :   0.9993 B( 19-C , 20-C ) :   1.5620 B( 19-C , 22-C ) :   1.0344
B( 22-C , 23-H ) :   0.9327 B( 22-C , 24-H ) :   0.9393 B( 22-C , 25-C ) :   1.0595
B( 25-C , 26-H ) :   0.9563 B( 25-C , 27-H ) :   0.9576 B( 25-C , 28-C ) :   1.0645
B( 28-C , 29-H ) :   0.9789 B( 28-C , 30-H ) :   0.9736 B( 28-C , 31-H ) :   0.9746

Dispersion correction           -0.015020367
FINAL SINGLE POINT ENERGY     -1339.873672614205

DIPOLE MOMENT
-------------
                                X             Y             Z
Electronic contribution:     -9.88897       1.27033      24.74745
Nuclear contribution   :     10.36945      -1.37120     -25.04368
                        -----------------------------------------
Total Dipole Moment    :      0.48048      -0.10087      -0.29623
                        -----------------------------------------
Magnitude (a.u.)       :      0.57340
Magnitude (Debye)      :      1.45746

Rotational constants in cm-1:     0.020768     0.009136     0.007202
Rotational constants in MHz :   622.610894   273.877937   215.916189

                             ****ORCA TERMINATED NORMALLY****
TOTAL RUN TIME: 0 days 0 hours 0 minutes 30 seconds 168 msec
