                         Program Version 4.2.1 -  RELEASE  -
|  1> ! wB97X-D3 SP def2-SVP
|  2> %pal
|  3> nprocs 16
|  4> end
|  5>
|  6> * xyz 0 1
|  7> S 	 -32.6717 	 34.4601 	 38.7959
|  8> C 	 -32.3242 	 35.7685 	 37.6941
|  9> C 	 -31.2398 	 36.5261 	 38.1297
| 10> C 	 -30.6031 	 35.9849 	 39.2926
| 11> C 	 -31.2044 	 34.8577 	 39.8225
| 12> H 	 -29.7632 	 36.5085 	 39.7499
| 13> C 	 -30.7848 	 37.7251 	 37.4423
| 14> H 	 -31.5114 	 38.374 	 37.864
| 15> H 	 -31.0622 	 37.8865 	 36.396
| 16> C 	 -29.3109 	 38.101 	 37.573
| 17> H 	 -29.1367 	 39.0511 	 36.9741
| 18> H 	 -29.013 	 38.2691 	 38.5452
| 19> C 	 -28.3612 	 36.9903 	 37.0244
| 20> H 	 -28.3699 	 37.0016 	 35.9325
| 21> H 	 -27.3353 	 37.2365 	 37.3726
| 22> H 	 -28.6275 	 35.9914 	 37.3828
| 23> S 	 -30.4074 	 32.4287 	 40.8427
| 24> C 	 -29.916 	 32.3326 	 42.4797
| 25> C 	 -29.7293 	 33.5497 	 43.0283
| 26> C 	 -30.1815 	 34.6535 	 42.234
| 27> C 	 -30.7266 	 34.1673 	 41.0289
| 28> H 	 -29.2557 	 33.7044 	 43.9851
| 29> C 	 -30.2518 	 36.0418 	 42.863
| 30> H 	 -30.952 	 35.8229 	 43.7344
| 31> H 	 -30.6958 	 36.738 	 42.1741
| 32> C 	 -28.9852 	 36.6953 	 43.4655
| 33> H 	 -28.7206 	 36.2383 	 44.4432
| 34> H 	 -29.1168 	 37.767 	 43.509
| 35> C 	 -27.802 	 36.4433 	 42.528
| 36> H 	 -26.911 	 36.8898 	 43.0199
| 37> H 	 -27.9472 	 36.9278 	 41.5732
| 38> H 	 -27.7624 	 35.4331 	 42.218
| 39> H 	 -32.8989 	 36.0673 	 36.7996
| 40> H 	 -29.5906 	 31.3887 	 42.8622
| 41> *
| 42>
| 43>                          ****END OF INPUT****

CARTESIAN COORDINATES (ANGSTROEM)
---------------------------------
  S    -32.671700   34.460100   38.795900
  C    -32.324200   35.768500   37.694100
  C    -31.239800   36.526100   38.129700
  C    -30.603100   35.984900   39.292600
  C    -31.204400   34.857700   39.822500
  H    -29.763200   36.508500   39.749900
  C    -30.784800   37.725100   37.442300
  H    -31.511400   38.374000   37.864000
  H    -31.062200   37.886500   36.396000
  C    -29.310900   38.101000   37.573000
  H    -29.136700   39.051100   36.974100
  H    -29.013000   38.269100   38.545200
  C    -28.361200   36.990300   37.024400
  H    -28.369900   37.001600   35.932500
  H    -27.335300   37.236500   37.372600
  H    -28.627500   35.991400   37.382800
  S    -30.407400   32.428700   40.842700
  C    -29.916000   32.332600   42.479700
  C    -29.729300   33.549700   43.028300
  C    -30.181500   34.653500   42.234000
  C    -30.726600   34.167300   41.028900
  H    -29.255700   33.704400   43.985100
  C    -30.251800   36.041800   42.863000
  H    -30.952000   35.822900   43.734400
  H    -30.695800   36.738000   42.174100
  C    -28.985200   36.695300   43.465500
  H    -28.720600   36.238300   44.443200
  H    -29.116800   37.767000   43.509000
  C    -27.802000   36.443300   42.528000
  H    -26.911000   36.889800   43.019900
  H    -27.947200   36.927800   41.573200
  H    -27.762400   35.433100   42.218000
  H    -32.898900   36.067300   36.799600
  H    -29.590600   31.388700   42.862200

 Total Charge           Charge          ....    0
 Multiplicity           Mult            ....    1
 Number of Electrons    NEL             ....  134
 Basis Dimension        Dim             ....  322

ORBITAL ENERGIES
----------------

  NO   OCC          E(Eh)            E(eV)
   0   2.0000     -88.966662     -2420.9060
   1   2.0000     -88.962182     -2420.7840
   2   2.0000     -10.335889      -281.2538
   3   2.0000     -10.332009      -281.1483
   4   2.0000     -10.313042      -280.6321
   5   2.0000     -10.311970      -280.6030
   6   2.0000     -10.309895      -280.5465
   7   2.0000     -10.298103      -280.2256
   8   2.0000     -10.297584      -280.2115
   9   2.0000     -10.295450      -280.1534
  10   2.0000     -10.292205      -280.0651
  11   2.0000     -10.290123      -280.0085
  12   2.0000     -10.289303      -279.9862
  13   2.0000     -10.285086      -279.8714
  14   2.0000     -10.279814      -279.7280
  15   2.0000     -10.273380      -279.5529
  16   2.0000      -8.079779      -219.8620
  17   2.0000      -8.077749      -219.8067
  18   2.0000      -6.038476      -164.3153
  19   2.0000      -6.036155      -164.2521
  20   2.0000      -6.034550      -164.2085
  21   2.0000      -6.032325      -164.1479
  22   2.0000      -6.030392      -164.0953
  23   2.0000      -6.028372      -164.0403
  24   2.0000      -1.003252       -27.2999
  25   2.0000      -0.982500       -26.7352
  26   2.0000      -0.915716       -24.9179
  27   2.0000      -0.913369       -24.8540
  28   2.0000      -0.869343       -23.6560
  29   2.0000      -0.851464       -23.1695
  30   2.0000      -0.842260       -22.9191
  31   2.0000      -0.816716       -22.2240
  32   2.0000      -0.784631       -21.3509
  33   2.0000      -0.770509       -20.9666
  34   2.0000      -0.713611       -19.4183
  35   2.0000      -0.698420       -19.0050
  36   2.0000      -0.691456       -18.8155
  37   2.0000      -0.659532       -17.9468
  38   2.0000      -0.634238       -17.2585
  39   2.0000      -0.626282       -17.0420
  40   2.0000      -0.602755       -16.4018
  41   2.0000      -0.571270       -15.5451
  42   2.0000      -0.558849       -15.2071
  43   2.0000      -0.553644       -15.0654
  44   2.0000      -0.552337       -15.0299
  45   2.0000      -0.532562       -14.4917
  46   2.0000      -0.516826       -14.0635
  47   2.0000      -0.508764       -13.8442
  48   2.0000      -0.500103       -13.6085
  49   2.0000      -0.496768       -13.5177
  50   2.0000      -0.494188       -13.4475
  51   2.0000      -0.478726       -13.0268
  52   2.0000      -0.471148       -12.8206
  53   2.0000      -0.465339       -12.6625
  54   2.0000      -0.459484       -12.5032
  55   2.0000      -0.452121       -12.3028
  56   2.0000      -0.443856       -12.0779
  57   2.0000      -0.436304       -11.8724
  58   2.0000      -0.429490       -11.6870
  59   2.0000      -0.428324       -11.6553
  60   2.0000      -0.422380       -11.4935
  61   2.0000      -0.417848       -11.3702
  62   2.0000      -0.411705       -11.2031
  63   2.0000      -0.348845        -9.4926
  64   2.0000      -0.327907        -8.9228
  65   2.0000      -0.323317        -8.7979
  66   2.0000      -0.288784        -7.8582
  67   0.0000       0.025857         0.7036
  68   0.0000       0.072273         1.9666
  69   0.0000       0.104859         2.8534
  70   0.0000       0.118620         3.2278
  71   0.0000       0.124288         3.3821

MULLIKEN ATOMIC CHARGES
-----------------------
   0 S :    0.108401
   1 C :   -0.134160
   2 C :   -0.104482
   3 C :    0.031440
   4 C :   -0.130017
   5 H :    0.001507
   6 C :    0.069074
   7 H :    0.032550
   8 H :    0.017522
   9 C :   -0.064042
  10 H :    0.039304
  11 H :    0.011429
  12 C :   -0.072997
  13 H :    0.033156
  14 H :    0.037046
  15 H :    0.052979
  16 S :    0.098637
  17 C :   -0.063471
  18 C :   -0.029032
  19 C :   -0.052225
  20 C :   -0.172842
  21 H :    0.012854
  22 C :    0.037708
  23 H :    0.058524
  24 H :    0.023464
  25 C :   -0.066033
  26 H :    0.036645
  27 H :    0.038918
  28 C :   -0.055731
  29 H :    0.043355
  30 H :    0.016467
  31 H :    0.038838
  32 H :    0.055699
  33 H :    0.049513
Sum of atomic charges:    0.0000000

LOEWDIN ATOMIC CHARGES
----------------------
   0 S :    0.374721
   1 C :   -0.210160
   2 C :   -0.063389
   3 C :   -0.062520
   4 C :   -0.176107
   5 H :    0.029366
   6 C :   -0.047258
   7 H :    0.040334
   8 H :    0.034937
   9 C :   -0.036441
  10 H :    0.035698
  11 H :    0.006508
  12 C :   -0.063600
  13 H :    0.024116
  14 H :    0.029336
  15 H :    0.027783
  16 S :    0.407738
  17 C :   -0.182900
  18 C :   -0.074390
  19 C :   -0.054770
  20 C :   -0.189428
  21 H :    0.029219
  22 C :   -0.034941
  23 H :    0.047965
  24 H :    0.026354
  25 C :   -0.038040
  26 H :    0.024905
  27 H :    0.028809
  28 C :   -0.066474
  29 H :    0.031140
  30 H :    0.019374
  31 H :    0.021401
  32 H :    0.036812
  33 H :    0.023904

  Mayer bond orders larger than 0.100000
B(  0-S ,  1-C ) :   1.1255 B(  0-S ,  4-C ) :   1.1317 B(  1-C ,  2-C ) :   1.6105
B(  1-C , 32-H ) :   0.9631 B(  2-C ,  3-C ) :   1.2553 B(  2-C ,  6-C ) :   1.0062
B(  3-C ,  4-C ) :   1.5553 B(  3-C ,  5-H ) :   0.9864 B(  4-C , 20-C ) :   1.0529
B(  6-C ,  7-H ) :   0.9204 B(  6-C ,  8-H ) :   0.9429 B(  6-C ,  9-C ) :   1.0760
B(  9-C , 10-H ) :   0.9542 B(  9-C , 11-H ) :   0.9551 B(  9-C , 12-C ) :   1.0713
B( 12-C , 13-H ) :   0.9772 B( 12-C , 14-H ) :   0.9767 B( 12-C , 15-H ) :   0.9745
B( 16-S , 17-C ) :   1.1558 B( 16-S , 20-C ) :   1.1483 B( 17-C , 18-C ) :   1.6085
B( 17-C , 33-H ) :   0.9719 B( 18-C , 19-C ) :   1.2281 B( 18-C , 21-H ) :   0.9920
B( 19-C , 20-C ) :   1.5831 B( 19-C , 22-C ) :   1.0332 B( 22-C , 23-H ) :   0.9427
B( 22-C , 24-H ) :   0.9375 B( 22-C , 25-C ) :   1.0687 B( 25-C , 26-H ) :   0.9513
B( 25-C , 27-H ) :   0.9573 B( 25-C , 28-C ) :   1.0881 B( 28-C , 29-H ) :   0.9726
B( 28-C , 30-H ) :   0.9711 B( 28-C , 31-H ) :   0.9664

Dispersion correction           -0.015327526
FINAL SINGLE POINT ENERGY     -1339.865698874322

DIPOLE MOMENT
-------------
                                X             Y             Z
Electronic contribution:    -17.30874     -21.90752      -0.83933
Nuclear contribution   :     17.73203      22.61231       1.01930
                        -----------------------------------------
Total Dipole Moment    :      0.42329       0.70479       0.17997
                        -----------------------------------------
Magnitude (a.u.)       :      0.84160
Magnitude (Debye)      :      2.13917

Rotational constants in cm-1:     0.017145     0.010167     0.007555
Rotational constants in MHz :   513.984695   304.812463   226.507491

                             ****ORCA TERMINATED NORMALLY****
TOTAL RUN TIME: 0 days 0 hours 0 minutes 35 seconds 590 msec
