                         Program Version 4.2.1 -  RELEASE  -
|  1> ! wB97X-D3 SP def2-SVP
|  2> %pal
|  3> nprocs 16
|  4> end
|  5>
|  6> * xyz 0 1
|  7> S 	 0.267966 	 -20.4277 	 87.5963
|  8> C 	 0.0157491 	 -21.091 	 89.1673
|  9> C 	 0.647858 	 -20.3368 	 90.1498
| 10> C 	 1.35394 	 -19.2589 	 89.5583
| 11> C 	 1.40884 	 -19.2178 	 88.1842
| 12> H 	 2.00603 	 -18.5294 	 90.084
| 13> C 	 0.601943 	 -20.638 	 91.61
| 14> H 	 1.42515 	 -20.0319 	 92.0327
| 15> H 	 0.964821 	 -21.6773 	 91.7636
| 16> C 	 -0.702325 	 -20.3898 	 92.3599
| 17> H 	 -0.597999 	 -20.5459 	 93.4234
| 18> H 	 -0.848127 	 -19.3016 	 92.4848
| 19> C 	 -2.02253 	 -21.026 	 91.8961
| 20> H 	 -2.04181 	 -22.1774 	 91.7508
| 21> H 	 -2.80929 	 -20.7817 	 92.6637
| 22> H 	 -2.41231 	 -20.6177 	 90.9561
| 23> S 	 2.81961 	 -19.0788 	 85.8021
| 24> C 	 3.26061 	 -17.5458 	 85.13
| 25> C 	 2.9279 	 -16.5282 	 86.0305
| 26> C 	 2.25158 	 -16.9625 	 87.1964
| 27> C 	 2.04629 	 -18.3181 	 87.2229
| 28> H 	 3.10503 	 -15.4939 	 85.8415
| 29> C 	 1.78235 	 -15.9738 	 88.2503
| 30> H 	 1.65925 	 -16.4398 	 89.2023
| 31> H 	 0.770986 	 -15.5804 	 87.9678
| 32> C 	 2.65163 	 -14.7125 	 88.4999
| 33> H 	 2.55901 	 -14.099 	 87.5463
| 34> H 	 3.69452 	 -14.8542 	 88.6508
| 35> C 	 2.08164 	 -13.6869 	 89.5095
| 36> H 	 0.998909 	 -13.6339 	 89.3548
| 37> H 	 2.63762 	 -12.7724 	 89.463
| 38> H 	 2.19687 	 -14.099 	 90.5459
| 39> H 	 -0.55835 	 -21.9909 	 89.3278
| 40> H 	 3.73519 	 -17.3337 	 84.1882
| 41> *
| 42>
| 43>                          ****END OF INPUT****

CARTESIAN COORDINATES (ANGSTROEM)
---------------------------------
  S      0.267966  -20.427700   87.596300
  C      0.015749  -21.091000   89.167300
  C      0.647858  -20.336800   90.149800
  C      1.353940  -19.258900   89.558300
  C      1.408840  -19.217800   88.184200
  H      2.006030  -18.529400   90.084000
  C      0.601943  -20.638000   91.610000
  H      1.425150  -20.031900   92.032700
  H      0.964821  -21.677300   91.763600
  C     -0.702325  -20.389800   92.359900
  H     -0.597999  -20.545900   93.423400
  H     -0.848127  -19.301600   92.484800
  C     -2.022530  -21.026000   91.896100
  H     -2.041810  -22.177400   91.750800
  H     -2.809290  -20.781700   92.663700
  H     -2.412310  -20.617700   90.956100
  S      2.819610  -19.078800   85.802100
  C      3.260610  -17.545800   85.130000
  C      2.927900  -16.528200   86.030500
  C      2.251580  -16.962500   87.196400
  C      2.046290  -18.318100   87.222900
  H      3.105030  -15.493900   85.841500
  C      1.782350  -15.973800   88.250300
  H      1.659250  -16.439800   89.202300
  H      0.770986  -15.580400   87.967800
  C      2.651630  -14.712500   88.499900
  H      2.559010  -14.099000   87.546300
  H      3.694520  -14.854200   88.650800
  C      2.081640  -13.686900   89.509500
  H      0.998909  -13.633900   89.354800
  H      2.637620  -12.772400   89.463000
  H      2.196870  -14.099000   90.545900
  H     -0.558350  -21.990900   89.327800
  H      3.735190  -17.333700   84.188200

 Total Charge           Charge          ....    0
 Multiplicity           Mult            ....    1
 Number of Electrons    NEL             ....  134
 Basis Dimension        Dim             ....  322

ORBITAL ENERGIES
----------------

  NO   OCC          E(Eh)            E(eV)
   0   2.0000     -88.967074     -2420.9172
   1   2.0000     -88.962160     -2420.7835
   2   2.0000     -10.329457      -281.0788
   3   2.0000     -10.329081      -281.0686
   4   2.0000     -10.319503      -280.8080
   5   2.0000     -10.311463      -280.5892
   6   2.0000     -10.303176      -280.3637
   7   2.0000     -10.299553      -280.2651
   8   2.0000     -10.296495      -280.1819
   9   2.0000     -10.295783      -280.1625
  10   2.0000     -10.295568      -280.1567
  11   2.0000     -10.291011      -280.0326
  12   2.0000     -10.290991      -280.0321
  13   2.0000     -10.290837      -280.0279
  14   2.0000     -10.289935      -280.0034
  15   2.0000     -10.283873      -279.8384
  16   2.0000      -8.081360      -219.9050
  17   2.0000      -8.077290      -219.7942
  18   2.0000      -6.039897      -164.3539
  19   2.0000      -6.035833      -164.2434
  20   2.0000      -6.035649      -164.2384
  21   2.0000      -6.032196      -164.1444
  22   2.0000      -6.031655      -164.1297
  23   2.0000      -6.028263      -164.0374
  24   2.0000      -1.007095       -27.4045
  25   2.0000      -0.986245       -26.8371
  26   2.0000      -0.910624       -24.7793
  27   2.0000      -0.907855       -24.7040
  28   2.0000      -0.867427       -23.6039
  29   2.0000      -0.853894       -23.2356
  30   2.0000      -0.845372       -23.0037
  31   2.0000      -0.813399       -22.1337
  32   2.0000      -0.784261       -21.3408
  33   2.0000      -0.774965       -21.0879
  34   2.0000      -0.707934       -19.2639
  35   2.0000      -0.699930       -19.0461
  36   2.0000      -0.696591       -18.9552
  37   2.0000      -0.658671       -17.9234
  38   2.0000      -0.643590       -17.5130
  39   2.0000      -0.617442       -16.8015
  40   2.0000      -0.600687       -16.3455
  41   2.0000      -0.568055       -15.4576
  42   2.0000      -0.565623       -15.3914
  43   2.0000      -0.545802       -14.8520
  44   2.0000      -0.539499       -14.6805
  45   2.0000      -0.531889       -14.4734
  46   2.0000      -0.517704       -14.0874
  47   2.0000      -0.510668       -13.8960
  48   2.0000      -0.507854       -13.8194
  49   2.0000      -0.494611       -13.4590
  50   2.0000      -0.486080       -13.2269
  51   2.0000      -0.478245       -13.0137
  52   2.0000      -0.473453       -12.8833
  53   2.0000      -0.470595       -12.8055
  54   2.0000      -0.459957       -12.5161
  55   2.0000      -0.455067       -12.3830
  56   2.0000      -0.442464       -12.0400
  57   2.0000      -0.439953       -11.9717
  58   2.0000      -0.438720       -11.9382
  59   2.0000      -0.424363       -11.5475
  60   2.0000      -0.415744       -11.3130
  61   2.0000      -0.407097       -11.0777
  62   2.0000      -0.404649       -11.0111
  63   2.0000      -0.348482        -9.4827
  64   2.0000      -0.333785        -9.0828
  65   2.0000      -0.328986        -8.9522
  66   2.0000      -0.290290        -7.8992
  67   0.0000       0.025918         0.7053
  68   0.0000       0.072464         1.9719
  69   0.0000       0.114067         3.1039
  70   0.0000       0.120519         3.2795
  71   0.0000       0.130402         3.5484

MULLIKEN ATOMIC CHARGES
-----------------------
   0 S :    0.105147
   1 C :   -0.121500
   2 C :   -0.087802
   3 C :    0.004725
   4 C :   -0.155018
   5 H :    0.023709
   6 C :    0.072221
   7 H :    0.018472
   8 H :    0.039833
   9 C :   -0.043984
  10 H :    0.018485
  11 H :    0.018310
  12 C :   -0.094073
  13 H :    0.042132
  14 H :    0.041263
  15 H :    0.044931
  16 S :    0.111856
  17 C :   -0.073658
  18 C :   -0.040738
  19 C :   -0.005740
  20 C :   -0.160227
  21 H :    0.004742
  22 C :    0.093041
  23 H :    0.004198
  24 H :    0.042095
  25 C :   -0.138150
  26 H :    0.032373
  27 H :    0.034073
  28 C :   -0.039403
  29 H :    0.031424
  30 H :    0.043353
  31 H :    0.028215
  32 H :    0.049549
  33 H :    0.056145
Sum of atomic charges:    0.0000000

LOEWDIN ATOMIC CHARGES
----------------------
   0 S :    0.412801
   1 C :   -0.196222
   2 C :   -0.070913
   3 C :   -0.071003
   4 C :   -0.192415
   5 H :    0.033260
   6 C :   -0.037891
   7 H :    0.036130
   8 H :    0.037413
   9 C :   -0.052082
  10 H :    0.025898
  11 H :    0.030594
  12 C :   -0.079555
  13 H :    0.030554
  14 H :    0.035165
  15 H :    0.024506
  16 S :    0.406241
  17 C :   -0.187412
  18 C :   -0.068879
  19 C :   -0.056089
  20 C :   -0.191220
  21 H :    0.024429
  22 C :   -0.028580
  23 H :    0.020615
  24 H :    0.042245
  25 C :   -0.045355
  26 H :    0.026091
  27 H :    0.017765
  28 C :   -0.062278
  29 H :    0.026490
  30 H :    0.026650
  31 H :    0.024528
  32 H :    0.026650
  33 H :    0.031870

  Mayer bond orders larger than 0.100000
B(  0-S ,  1-C ) :   1.1635 B(  0-S ,  4-C ) :   1.1541 B(  1-C ,  2-C ) :   1.5693
B(  1-C ,  4-C ) :   0.1083 B(  1-C , 32-H ) :   0.9712 B(  2-C ,  3-C ) :   1.2735
B(  2-C ,  6-C ) :   1.0178 B(  3-C ,  4-C ) :   1.5811 B(  3-C ,  5-H ) :   0.9784
B(  4-C , 20-C ) :   1.0326 B(  6-C ,  7-H ) :   0.9340 B(  6-C ,  8-H ) :   0.9397
B(  6-C ,  9-C ) :   1.0790 B(  9-C , 10-H ) :   0.9506 B(  9-C , 11-H ) :   0.9446
B(  9-C , 12-C ) :   1.0781 B( 12-C , 13-H ) :   0.9743 B( 12-C , 14-H ) :   0.9700
B( 12-C , 15-H ) :   0.9717 B( 16-S , 17-C ) :   1.1620 B( 16-S , 20-C ) :   1.1375
B( 17-C , 18-C ) :   1.5783 B( 17-C , 20-C ) :   0.1022 B( 17-C , 33-H ) :   0.9693
B( 18-C , 19-C ) :   1.2656 B( 18-C , 21-H ) :   0.9906 B( 19-C , 20-C ) :   1.5921
B( 19-C , 22-C ) :   1.0406 B( 22-C , 23-H ) :   0.9397 B( 22-C , 24-H ) :   0.9213
B( 22-C , 25-C ) :   1.0600 B( 25-C , 26-H ) :   0.9484 B( 25-C , 27-H ) :   0.9640
B( 25-C , 28-C ) :   1.0815 B( 28-C , 29-H ) :   0.9720 B( 28-C , 30-H ) :   0.9747
B( 28-C , 31-H ) :   0.9747

Dispersion correction           -0.013569459
FINAL SINGLE POINT ENERGY     -1339.885182876504

DIPOLE MOMENT
-------------
                                X             Y             Z
Electronic contribution:      7.15846     -13.66837     -23.79234
Nuclear contribution   :     -7.16839      14.14843      24.31650
                        -----------------------------------------
Total Dipole Moment    :     -0.00993       0.48007       0.52416
                        -----------------------------------------
Magnitude (a.u.)       :      0.71085
Magnitude (Debye)      :      1.80683

Rotational constants in cm-1:     0.018413     0.008158     0.005991
Rotational constants in MHz :   551.994150   244.583229   179.615584

                             ****ORCA TERMINATED NORMALLY****
TOTAL RUN TIME: 0 days 0 hours 0 minutes 33 seconds 494 msec
