                         Program Version 4.2.1 -  RELEASE  -
|  1> ! wB97X-D3 SP def2-SVP
|  2> %pal
|  3> nprocs 16
|  4> end
|  5>
|  6> * xyz 0 1
|  7> S 	 4.97391 	 -14.7437 	 66.9957
|  8> C 	 6.69323 	 -14.5912 	 66.6397
|  9> C 	 7.15944 	 -13.3734 	 67.0531
| 10> C 	 6.17271 	 -12.5899 	 67.6838
| 11> C 	 4.9007 	 -13.2121 	 67.7535
| 12> H 	 6.25951 	 -11.567 	 68.0717
| 13> C 	 8.57815 	 -12.9501 	 67.0058
| 14> H 	 8.70168 	 -11.9027 	 67.1218
| 15> H 	 8.93614 	 -13.2512 	 65.995
| 16> C 	 9.48246 	 -13.5601 	 68.028
| 17> H 	 9.39743 	 -14.6287 	 68.2697
| 18> H 	 10.4736 	 -13.4376 	 67.7469
| 19> C 	 9.26499 	 -12.8195 	 69.3698
| 20> H 	 9.4162 	 -11.7216 	 69.212
| 21> H 	 8.35132 	 -13.1147 	 69.8781
| 22> H 	 10.0516 	 -13.2631 	 69.9718
| 23> S 	 2.47066 	 -12.149 	 66.8172
| 24> C 	 1.66457 	 -11.0467 	 67.9183
| 25> C 	 2.0681 	 -11.1262 	 69.2349
| 26> C 	 3.16121 	 -12.0714 	 69.315
| 27> C 	 3.68871 	 -12.4506 	 68.0999
| 28> H 	 1.54426 	 -10.5995 	 69.942
| 29> C 	 3.99446 	 -12.1873 	 70.5525
| 30> H 	 4.69778 	 -11.3705 	 70.5335
| 31> H 	 4.5717 	 -13.0716 	 70.322
| 32> C 	 3.34363 	 -12.3409 	 71.9408
| 33> H 	 2.94588 	 -11.3828 	 72.1884
| 34> H 	 4.25556 	 -12.5115 	 72.6853
| 35> C 	 2.25517 	 -13.4777 	 72.0973
| 36> H 	 2.65681 	 -14.4481 	 71.8095
| 37> H 	 1.5199 	 -13.359 	 71.3843
| 38> H 	 1.79141 	 -13.4316 	 73.0875
| 39> H 	 7.35996 	 -15.3739 	 66.2425
| 40> H 	 0.998931 	 -10.2985 	 67.6318
| 41> *
| 42>
| 43>                          ****END OF INPUT****

CARTESIAN COORDINATES (ANGSTROEM)
---------------------------------
  S      4.973910  -14.743700   66.995700
  C      6.693230  -14.591200   66.639700
  C      7.159440  -13.373400   67.053100
  C      6.172710  -12.589900   67.683800
  C      4.900700  -13.212100   67.753500
  H      6.259510  -11.567000   68.071700
  C      8.578150  -12.950100   67.005800
  H      8.701680  -11.902700   67.121800
  H      8.936140  -13.251200   65.995000
  C      9.482460  -13.560100   68.028000
  H      9.397430  -14.628700   68.269700
  H     10.473600  -13.437600   67.746900
  C      9.264990  -12.819500   69.369800
  H      9.416200  -11.721600   69.212000
  H      8.351320  -13.114700   69.878100
  H     10.051600  -13.263100   69.971800
  S      2.470660  -12.149000   66.817200
  C      1.664570  -11.046700   67.918300
  C      2.068100  -11.126200   69.234900
  C      3.161210  -12.071400   69.315000
  C      3.688710  -12.450600   68.099900
  H      1.544260  -10.599500   69.942000
  C      3.994460  -12.187300   70.552500
  H      4.697780  -11.370500   70.533500
  H      4.571700  -13.071600   70.322000
  C      3.343630  -12.340900   71.940800
  H      2.945880  -11.382800   72.188400
  H      4.255560  -12.511500   72.685300
  C      2.255170  -13.477700   72.097300
  H      2.656810  -14.448100   71.809500
  H      1.519900  -13.359000   71.384300
  H      1.791410  -13.431600   73.087500
  H      7.359960  -15.373900   66.242500
  H      0.998931  -10.298500   67.631800

 Total Charge           Charge          ....    0
 Multiplicity           Mult            ....    1
 Number of Electrons    NEL             ....  134
 Basis Dimension        Dim             ....  322

ORBITAL ENERGIES
----------------

  NO   OCC          E(Eh)            E(eV)
   0   2.0000     -88.970530     -2421.0112
   1   2.0000     -88.961698     -2420.7709
   2   2.0000     -10.329068      -281.0682
   3   2.0000     -10.326471      -280.9976
   4   2.0000     -10.315284      -280.6932
   5   2.0000     -10.312416      -280.6151
   6   2.0000     -10.301651      -280.3222
   7   2.0000     -10.295902      -280.1657
   8   2.0000     -10.295886      -280.1653
   9   2.0000     -10.294366      -280.1239
  10   2.0000     -10.289274      -279.9854
  11   2.0000     -10.285467      -279.8818
  12   2.0000     -10.281083      -279.7625
  13   2.0000     -10.278885      -279.7027
  14   2.0000     -10.277343      -279.6607
  15   2.0000     -10.274119      -279.5730
  16   2.0000      -8.085268      -220.0113
  17   2.0000      -8.076122      -219.7625
  18   2.0000      -6.043735      -164.4584
  19   2.0000      -6.039589      -164.3456
  20   2.0000      -6.036249      -164.2547
  21   2.0000      -6.034626      -164.2105
  22   2.0000      -6.031001      -164.1119
  23   2.0000      -6.026572      -163.9914
  24   2.0000      -1.006803       -27.3965
  25   2.0000      -0.984777       -26.7971
  26   2.0000      -0.922913       -25.1137
  27   2.0000      -0.902354       -24.5543
  28   2.0000      -0.869819       -23.6690
  29   2.0000      -0.849358       -23.1122
  30   2.0000      -0.842212       -22.9178
  31   2.0000      -0.815242       -22.1839
  32   2.0000      -0.784472       -21.3466
  33   2.0000      -0.774085       -21.0639
  34   2.0000      -0.707507       -19.2522
  35   2.0000      -0.703227       -19.1358
  36   2.0000      -0.695985       -18.9387
  37   2.0000      -0.657331       -17.8869
  38   2.0000      -0.640836       -17.4380
  39   2.0000      -0.611995       -16.6532
  40   2.0000      -0.590082       -16.0569
  41   2.0000      -0.584459       -15.9039
  42   2.0000      -0.556936       -15.1550
  43   2.0000      -0.554308       -15.0835
  44   2.0000      -0.548338       -14.9210
  45   2.0000      -0.532311       -14.4849
  46   2.0000      -0.517352       -14.0779
  47   2.0000      -0.513929       -13.9847
  48   2.0000      -0.505181       -13.7467
  49   2.0000      -0.498191       -13.5565
  50   2.0000      -0.484565       -13.1857
  51   2.0000      -0.477705       -12.9990
  52   2.0000      -0.468585       -12.7508
  53   2.0000      -0.466974       -12.7070
  54   2.0000      -0.460097       -12.5199
  55   2.0000      -0.447970       -12.1899
  56   2.0000      -0.445932       -12.1344
  57   2.0000      -0.436199       -11.8696
  58   2.0000      -0.432233       -11.7617
  59   2.0000      -0.423506       -11.5242
  60   2.0000      -0.419929       -11.4268
  61   2.0000      -0.414286       -11.2733
  62   2.0000      -0.406603       -11.0642
  63   2.0000      -0.337966        -9.1965
  64   2.0000      -0.331973        -9.0334
  65   2.0000      -0.325232        -8.8500
  66   2.0000      -0.295724        -8.0471
  67   0.0000       0.034368         0.9352
  68   0.0000       0.051654         1.4056
  69   0.0000       0.110318         3.0019
  70   0.0000       0.124556         3.3893
  71   0.0000       0.129372         3.5204

MULLIKEN ATOMIC CHARGES
-----------------------
   0 S :    0.126071
   1 C :   -0.138968
   2 C :   -0.059300
   3 C :    0.013078
   4 C :   -0.179025
   5 H :    0.022163
   6 C :    0.090515
   7 H :    0.008405
   8 H :    0.025458
   9 C :   -0.051195
  10 H :    0.026898
  11 H :    0.011877
  12 C :   -0.078078
  13 H :    0.038782
  14 H :    0.048834
  15 H :    0.025484
  16 S :    0.101099
  17 C :   -0.062783
  18 C :    0.000606
  19 C :   -0.031363
  20 C :   -0.164821
  21 H :   -0.007360
  22 C :    0.038213
  23 H :    0.038995
  24 H :    0.027476
  25 C :   -0.097873
  26 H :    0.019729
  27 H :    0.045700
  28 C :   -0.015843
  29 H :    0.030682
  30 H :    0.013345
  31 H :    0.045277
  32 H :    0.055656
  33 H :    0.032267
Sum of atomic charges:    0.0000000

LOEWDIN ATOMIC CHARGES
----------------------
   0 S :    0.428373
   1 C :   -0.198557
   2 C :   -0.067034
   3 C :   -0.059593
   4 C :   -0.219564
   5 H :    0.034254
   6 C :   -0.030780
   7 H :    0.025494
   8 H :    0.033661
   9 C :   -0.034772
  10 H :    0.026181
  11 H :    0.014411
  12 C :   -0.065656
  13 H :    0.027014
  14 H :    0.026266
  15 H :    0.025313
  16 S :    0.373130
  17 C :   -0.157843
  18 C :   -0.060215
  19 C :   -0.053296
  20 C :   -0.184303
  21 H :    0.019711
  22 C :   -0.041664
  23 H :    0.033795
  24 H :    0.028493
  25 C :   -0.041464
  26 H :    0.012833
  27 H :    0.038359
  28 C :   -0.059954
  29 H :    0.029253
  30 H :    0.014710
  31 H :    0.031816
  32 H :    0.036518
  33 H :    0.015107

  Mayer bond orders larger than 0.100000
B(  0-S ,  1-C ) :   1.1427 B(  0-S ,  4-C ) :   1.1775 B(  1-C ,  2-C ) :   1.5805
B(  1-C ,  4-C ) :   0.1010 B(  1-C , 32-H ) :   0.9652 B(  2-C ,  3-C ) :   1.2786
B(  2-C ,  6-C ) :   1.0351 B(  3-C ,  4-C ) :   1.5181 B(  3-C ,  5-H ) :   0.9903
B(  4-C , 20-C ) :   1.0441 B(  6-C ,  7-H ) :   0.9392 B(  6-C ,  8-H ) :   0.9296
B(  6-C ,  9-C ) :   1.0805 B(  9-C , 10-H ) :   0.9555 B(  9-C , 11-H ) :   0.9535
B(  9-C , 12-C ) :   1.0779 B( 12-C , 13-H ) :   0.9746 B( 12-C , 14-H ) :   0.9761
B( 12-C , 15-H ) :   0.9736 B( 16-S , 17-C ) :   1.1492 B( 16-S , 20-C ) :   1.1022
B( 17-C , 18-C ) :   1.6597 B( 17-C , 33-H ) :   0.9684 B( 18-C , 19-C ) :   1.1609
B( 18-C , 21-H ) :   1.0076 B( 19-C , 20-C ) :   1.6382 B( 19-C , 22-C ) :   1.0519
B( 22-C , 23-H ) :   0.9416 B( 22-C , 24-H ) :   0.9256 B( 22-C , 25-C ) :   1.0674
B( 25-C , 26-H ) :   0.9549 B( 25-C , 27-H ) :   0.9569 B( 25-C , 28-C ) :   1.0669
B( 28-C , 29-H ) :   0.9758 B( 28-C , 30-H ) :   0.9721 B( 28-C , 31-H ) :   0.9762

Dispersion correction           -0.014714491
FINAL SINGLE POINT ENERGY     -1339.849912788958

DIPOLE MOMENT
-------------
                                X             Y             Z
Electronic contribution:    -15.27703      -2.86369     -20.23931
Nuclear contribution   :     15.74523       3.14073      20.59854
                        -----------------------------------------
Total Dipole Moment    :      0.46821       0.27704       0.35923
                        -----------------------------------------
Magnitude (a.u.)       :      0.65193
Magnitude (Debye)      :      1.65708

Rotational constants in cm-1:     0.019095     0.008626     0.007048
Rotational constants in MHz :   572.464301   258.605337   211.298062

                             ****ORCA TERMINATED NORMALLY****
TOTAL RUN TIME: 0 days 0 hours 0 minutes 34 seconds 787 msec
