                         Program Version 4.2.1 -  RELEASE  -
|  1> ! wB97X-D3 SP def2-SVP
|  2> %pal
|  3> nprocs 16
|  4> end
|  5>
|  6> * xyz 0 1
|  7> S 	 -39.9522 	 36.1703 	 83.2228
|  8> C 	 -41.1294 	 35.7158 	 81.939
|  9> C 	 -42.2154 	 35.0009 	 82.4593
| 10> C 	 -42.1205 	 34.8153 	 83.8573
| 11> C 	 -40.9345 	 35.2643 	 84.4115
| 12> H 	 -42.7912 	 34.2216 	 84.3861
| 13> C 	 -43.3677 	 34.5648 	 81.6144
| 14> H 	 -43.989 	 35.4433 	 81.2796
| 15> H 	 -44.1397 	 33.9209 	 82.0852
| 16> C 	 -42.8924 	 33.9896 	 80.3205
| 17> H 	 -43.7413 	 34.0238 	 79.6067
| 18> H 	 -42.1781 	 34.5959 	 79.8244
| 19> C 	 -42.2865 	 32.6088 	 80.3939
| 20> H 	 -41.3007 	 32.5754 	 80.8149
| 21> H 	 -42.8795 	 31.8938 	 81.0076
| 22> H 	 -42.1999 	 32.1741 	 79.4206
| 23> S 	 -40.7423 	 36.5181 	 86.9418
| 24> C 	 -40.2503 	 35.5042 	 88.3211
| 25> C 	 -40.0948 	 34.1864 	 87.9006
| 26> C 	 -40.3249 	 34.028 	 86.5113
| 27> C 	 -40.6048 	 35.1663 	 85.8216
| 28> H 	 -39.6612 	 33.444 	 88.5272
| 29> C 	 -40.0501 	 32.7252 	 85.8342
| 30> H 	 -40.8899 	 32.4793 	 85.1848
| 31> H 	 -40.2676 	 31.9128 	 86.5073
| 32> C 	 -38.6605 	 32.6185 	 85.294
| 33> H 	 -37.9552 	 32.9208 	 86.0694
| 34> H 	 -38.4629 	 33.3398 	 84.4989
| 35> C 	 -38.3237 	 31.278 	 84.6969
| 36> H 	 -38.45 	 30.5847 	 85.5706
| 37> H 	 -37.3188 	 31.2593 	 84.3344
| 38> H 	 -38.9354 	 30.8544 	 83.864
| 39> H 	 -40.9869 	 36.0359 	 80.8898
| 40> H 	 -40.1948 	 35.9199 	 89.3596
| 41> *
| 42>
| 43>                          ****END OF INPUT****

CARTESIAN COORDINATES (ANGSTROEM)
---------------------------------
  S    -39.952200   36.170300   83.222800
  C    -41.129400   35.715800   81.939000
  C    -42.215400   35.000900   82.459300
  C    -42.120500   34.815300   83.857300
  C    -40.934500   35.264300   84.411500
  H    -42.791200   34.221600   84.386100
  C    -43.367700   34.564800   81.614400
  H    -43.989000   35.443300   81.279600
  H    -44.139700   33.920900   82.085200
  C    -42.892400   33.989600   80.320500
  H    -43.741300   34.023800   79.606700
  H    -42.178100   34.595900   79.824400
  C    -42.286500   32.608800   80.393900
  H    -41.300700   32.575400   80.814900
  H    -42.879500   31.893800   81.007600
  H    -42.199900   32.174100   79.420600
  S    -40.742300   36.518100   86.941800
  C    -40.250300   35.504200   88.321100
  C    -40.094800   34.186400   87.900600
  C    -40.324900   34.028000   86.511300
  C    -40.604800   35.166300   85.821600
  H    -39.661200   33.444000   88.527200
  C    -40.050100   32.725200   85.834200
  H    -40.889900   32.479300   85.184800
  H    -40.267600   31.912800   86.507300
  C    -38.660500   32.618500   85.294000
  H    -37.955200   32.920800   86.069400
  H    -38.462900   33.339800   84.498900
  C    -38.323700   31.278000   84.696900
  H    -38.450000   30.584700   85.570600
  H    -37.318800   31.259300   84.334400
  H    -38.935400   30.854400   83.864000
  H    -40.986900   36.035900   80.889800
  H    -40.194800   35.919900   89.359600

 Total Charge           Charge          ....    0
 Multiplicity           Mult            ....    1
 Number of Electrons    NEL             ....  134
 Basis Dimension        Dim             ....  322

ORBITAL ENERGIES
----------------

  NO   OCC          E(Eh)            E(eV)
   0   2.0000     -88.970229     -2421.0030
   1   2.0000     -88.963278     -2420.8139
   2   2.0000     -10.331741      -281.1410
   3   2.0000     -10.325690      -280.9763
   4   2.0000     -10.321750      -280.8691
   5   2.0000     -10.320423      -280.8330
   6   2.0000     -10.302732      -280.3516
   7   2.0000     -10.294803      -280.1358
   8   2.0000     -10.293877      -280.1106
   9   2.0000     -10.292433      -280.0713
  10   2.0000     -10.290760      -280.0258
  11   2.0000     -10.281394      -279.7710
  12   2.0000     -10.280210      -279.7387
  13   2.0000     -10.278495      -279.6921
  14   2.0000     -10.275901      -279.6215
  15   2.0000     -10.270663      -279.4790
  16   2.0000      -8.083228      -219.9558
  17   2.0000      -8.077476      -219.7993
  18   2.0000      -6.041814      -164.4061
  19   2.0000      -6.037970      -164.3015
  20   2.0000      -6.036052      -164.2493
  21   2.0000      -6.034026      -164.1942
  22   2.0000      -6.031978      -164.1385
  23   2.0000      -6.028273      -164.0376
  24   2.0000      -1.003014       -27.2934
  25   2.0000      -0.979801       -26.6617
  26   2.0000      -0.919555       -25.0224
  27   2.0000      -0.912906       -24.8414
  28   2.0000      -0.865804       -23.5597
  29   2.0000      -0.851339       -23.1661
  30   2.0000      -0.847456       -23.0605
  31   2.0000      -0.812903       -22.1202
  32   2.0000      -0.784433       -21.3455
  33   2.0000      -0.769613       -20.9422
  34   2.0000      -0.708114       -19.2688
  35   2.0000      -0.702000       -19.1024
  36   2.0000      -0.692250       -18.8371
  37   2.0000      -0.664526       -18.0827
  38   2.0000      -0.641183       -17.4475
  39   2.0000      -0.616882       -16.7862
  40   2.0000      -0.599640       -16.3170
  41   2.0000      -0.578775       -15.7493
  42   2.0000      -0.559508       -15.2250
  43   2.0000      -0.554274       -15.0826
  44   2.0000      -0.534887       -14.5550
  45   2.0000      -0.532094       -14.4790
  46   2.0000      -0.516510       -14.0549
  47   2.0000      -0.512499       -13.9458
  48   2.0000      -0.508865       -13.8469
  49   2.0000      -0.497068       -13.5259
  50   2.0000      -0.491211       -13.3665
  51   2.0000      -0.478831       -13.0296
  52   2.0000      -0.470542       -12.8041
  53   2.0000      -0.465908       -12.6780
  54   2.0000      -0.455364       -12.3911
  55   2.0000      -0.442290       -12.0353
  56   2.0000      -0.438618       -11.9354
  57   2.0000      -0.434762       -11.8305
  58   2.0000      -0.432293       -11.7633
  59   2.0000      -0.427854       -11.6425
  60   2.0000      -0.421072       -11.4580
  61   2.0000      -0.416015       -11.3203
  62   2.0000      -0.398901       -10.8546
  63   2.0000      -0.339677        -9.2431
  64   2.0000      -0.330496        -8.9933
  65   2.0000      -0.325687        -8.8624
  66   2.0000      -0.300908        -8.1881
  67   0.0000       0.032484         0.8839
  68   0.0000       0.055526         1.5109
  69   0.0000       0.109884         2.9901
  70   0.0000       0.120847         3.2884
  71   0.0000       0.126606         3.4451

MULLIKEN ATOMIC CHARGES
-----------------------
   0 S :    0.109044
   1 C :   -0.158331
   2 C :   -0.054302
   3 C :    0.082399
   4 C :   -0.181869
   5 H :   -0.009042
   6 C :    0.060307
   7 H :    0.044829
   8 H :    0.027767
   9 C :   -0.083333
  10 H :    0.019174
  11 H :    0.011143
  12 C :   -0.029546
  13 H :    0.031946
  14 H :    0.020614
  15 H :    0.025090
  16 S :    0.100102
  17 C :   -0.123128
  18 C :   -0.005463
  19 C :   -0.067441
  20 C :   -0.144649
  21 H :    0.014910
  22 C :    0.112028
  23 H :    0.004792
  24 H :   -0.009877
  25 C :   -0.038961
  26 H :    0.023906
  27 H :    0.021874
  28 C :   -0.047792
  29 H :    0.023204
  30 H :    0.030478
  31 H :    0.040348
  32 H :    0.067894
  33 H :    0.081887
Sum of atomic charges:   -0.0000000

LOEWDIN ATOMIC CHARGES
----------------------
   0 S :    0.378359
   1 C :   -0.186181
   2 C :   -0.060934
   3 C :   -0.043494
   4 C :   -0.175623
   5 H :    0.022603
   6 C :   -0.038437
   7 H :    0.044112
   8 H :    0.032391
   9 C :   -0.043726
  10 H :    0.025196
  11 H :    0.017659
  12 C :   -0.064542
  13 H :    0.024062
  14 H :    0.024492
  15 H :    0.023987
  16 S :    0.388140
  17 C :   -0.176618
  18 C :   -0.070342
  19 C :   -0.057408
  20 C :   -0.202646
  21 H :    0.029009
  22 C :   -0.038713
  23 H :    0.031040
  24 H :    0.024358
  25 C :   -0.041238
  26 H :    0.028641
  27 H :    0.022928
  28 C :   -0.068036
  29 H :    0.025742
  30 H :    0.023058
  31 H :    0.030251
  32 H :    0.031450
  33 H :    0.040460

  Mayer bond orders larger than 0.100000
B(  0-S ,  1-C ) :   1.1339 B(  0-S ,  4-C ) :   1.1364 B(  1-C ,  2-C ) :   1.5891
B(  1-C ,  4-C ) :   0.1043 B(  1-C , 32-H ) :   0.9628 B(  2-C ,  3-C ) :   1.2507
B(  2-C ,  6-C ) :   1.0202 B(  3-C ,  4-C ) :   1.5803 B(  3-C ,  5-H ) :   0.9989
B(  4-C , 20-C ) :   1.0333 B(  6-C ,  7-H ) :   0.9289 B(  6-C ,  8-H ) :   0.9489
B(  6-C ,  9-C ) :   1.0854 B(  9-C , 10-H ) :   0.9515 B(  9-C , 11-H ) :   0.9487
B(  9-C , 12-C ) :   1.0802 B( 12-C , 13-H ) :   0.9721 B( 12-C , 14-H ) :   0.9746
B( 12-C , 15-H ) :   0.9721 B( 16-S , 17-C ) :   1.1619 B( 16-S , 20-C ) :   1.1279
B( 17-C , 18-C ) :   1.5825 B( 17-C , 33-H ) :   0.9624 B( 18-C , 19-C ) :   1.2586
B( 18-C , 21-H ) :   0.9937 B( 19-C , 20-C ) :   1.6099 B( 19-C , 22-C ) :   1.0624
B( 22-C , 23-H ) :   0.9077 B( 22-C , 24-H ) :   0.9173 B( 22-C , 25-C ) :   1.0648
B( 25-C , 26-H ) :   0.9485 B( 25-C , 27-H ) :   0.9487 B( 25-C , 28-C ) :   1.0861
B( 28-C , 29-H ) :   0.9741 B( 28-C , 30-H ) :   0.9718 B( 28-C , 31-H ) :   0.9745

Dispersion correction           -0.014987497
FINAL SINGLE POINT ENERGY     -1339.879561897016

DIPOLE MOMENT
-------------
                                X             Y             Z
Electronic contribution:      1.80163      23.45080      14.88125
Nuclear contribution   :     -2.00847     -23.95522     -15.08400
                        -----------------------------------------
Total Dipole Moment    :     -0.20684      -0.50442      -0.20275
                        -----------------------------------------
Magnitude (a.u.)       :      0.58166
Magnitude (Debye)      :      1.47847

Rotational constants in cm-1:     0.019634     0.008977     0.007265
Rotational constants in MHz :   588.604086   269.126708   217.812389

                             ****ORCA TERMINATED NORMALLY****
TOTAL RUN TIME: 0 days 0 hours 0 minutes 29 seconds 673 msec
