                         Program Version 4.2.1 -  RELEASE  -
|  1> ! wB97X-D3 SP def2-SVP
|  2> %pal
|  3> nprocs 16
|  4> end
|  5>
|  6> * xyz 0 1
|  7> S 	 41.99 	 20.4038 	 44.3132
|  8> C 	 40.7286 	 19.1615 	 44.2731
|  9> C 	 40.0145 	 19.2324 	 43.0638
| 10> C 	 40.5128 	 20.1758 	 42.1482
| 11> C 	 41.6149 	 20.8993 	 42.6337
| 12> H 	 40.2165 	 20.3276 	 41.0703
| 13> C 	 38.8003 	 18.4335 	 42.7187
| 14> H 	 38.2225 	 18.273 	 43.6508
| 15> H 	 39.1567 	 17.4698 	 42.4128
| 16> C 	 37.7955 	 18.9252 	 41.6294
| 17> H 	 38.2686 	 19.0544 	 40.5786
| 18> H 	 36.9433 	 18.2969 	 41.3717
| 19> C 	 37.0804 	 20.1878 	 42.1297
| 20> H 	 36.4675 	 20.6043 	 41.37
| 21> H 	 36.5654 	 20.0416 	 43.0791
| 22> H 	 37.7236 	 21.0678 	 42.3728
| 23> S 	 43.4581 	 21.3262 	 40.6776
| 24> C 	 44.214 	 22.8994 	 40.4289
| 25> C 	 43.8079 	 23.8091 	 41.3411
| 26> C 	 42.7383 	 23.3282 	 42.1796
| 27> C 	 42.4383 	 21.9431 	 41.9744
| 28> H 	 44.2198 	 24.8012 	 41.249
| 29> C 	 42.0357 	 24.1465 	 43.2012
| 30> H 	 42.7166 	 24.9312 	 43.6294
| 31> H 	 41.5712 	 23.5167 	 43.9929
| 32> C 	 40.7885 	 24.924 	 42.6778
| 33> H 	 41.0682 	 25.4109 	 41.7597
| 34> H 	 40.614 	 25.7458 	 43.3584
| 35> C 	 39.5422 	 24.1169 	 42.3596
| 36> H 	 38.8558 	 23.9909 	 43.1648
| 37> H 	 39.8492 	 23.1021 	 42.1301
| 38> H 	 38.8528 	 24.5748 	 41.646
| 39> H 	 40.3265 	 18.544 	 45.1611
| 40> H 	 44.7759 	 23.215 	 39.5684
| 41> *
| 42>
| 43>                          ****END OF INPUT****

CARTESIAN COORDINATES (ANGSTROEM)
---------------------------------
  S     41.990000   20.403800   44.313200
  C     40.728600   19.161500   44.273100
  C     40.014500   19.232400   43.063800
  C     40.512800   20.175800   42.148200
  C     41.614900   20.899300   42.633700
  H     40.216500   20.327600   41.070300
  C     38.800300   18.433500   42.718700
  H     38.222500   18.273000   43.650800
  H     39.156700   17.469800   42.412800
  C     37.795500   18.925200   41.629400
  H     38.268600   19.054400   40.578600
  H     36.943300   18.296900   41.371700
  C     37.080400   20.187800   42.129700
  H     36.467500   20.604300   41.370000
  H     36.565400   20.041600   43.079100
  H     37.723600   21.067800   42.372800
  S     43.458100   21.326200   40.677600
  C     44.214000   22.899400   40.428900
  C     43.807900   23.809100   41.341100
  C     42.738300   23.328200   42.179600
  C     42.438300   21.943100   41.974400
  H     44.219800   24.801200   41.249000
  C     42.035700   24.146500   43.201200
  H     42.716600   24.931200   43.629400
  H     41.571200   23.516700   43.992900
  C     40.788500   24.924000   42.677800
  H     41.068200   25.410900   41.759700
  H     40.614000   25.745800   43.358400
  C     39.542200   24.116900   42.359600
  H     38.855800   23.990900   43.164800
  H     39.849200   23.102100   42.130100
  H     38.852800   24.574800   41.646000
  H     40.326500   18.544000   45.161100
  H     44.775900   23.215000   39.568400

 Total Charge           Charge          ....    0
 Multiplicity           Mult            ....    1
 Number of Electrons    NEL             ....  134
 Basis Dimension        Dim             ....  322

ORBITAL ENERGIES
----------------

  NO   OCC          E(Eh)            E(eV)
   0   2.0000     -88.971123     -2421.0273
   1   2.0000     -88.963600     -2420.8226
   2   2.0000     -10.339384      -281.3490
   3   2.0000     -10.333863      -281.1987
   4   2.0000     -10.325713      -280.9769
   5   2.0000     -10.314820      -280.6805
   6   2.0000     -10.311777      -280.5977
   7   2.0000     -10.304915      -280.4110
   8   2.0000     -10.302518      -280.3458
   9   2.0000     -10.300074      -280.2793
  10   2.0000     -10.294920      -280.1390
  11   2.0000     -10.294116      -280.1171
  12   2.0000     -10.293187      -280.0918
  13   2.0000     -10.278534      -279.6931
  14   2.0000     -10.274352      -279.5793
  15   2.0000     -10.266240      -279.3586
  16   2.0000      -8.084196      -219.9822
  17   2.0000      -8.077984      -219.8131
  18   2.0000      -6.042767      -164.4321
  19   2.0000      -6.038792      -164.3239
  20   2.0000      -6.036532      -164.2624
  21   2.0000      -6.035119      -164.2239
  22   2.0000      -6.032408      -164.1502
  23   2.0000      -6.028843      -164.0532
  24   2.0000      -0.999815       -27.2063
  25   2.0000      -0.980429       -26.6788
  26   2.0000      -0.909754       -24.7557
  27   2.0000      -0.905510       -24.6402
  28   2.0000      -0.868785       -23.6408
  29   2.0000      -0.847870       -23.0717
  30   2.0000      -0.841691       -22.9036
  31   2.0000      -0.817656       -22.2496
  32   2.0000      -0.781888       -21.2762
  33   2.0000      -0.767908       -20.8958
  34   2.0000      -0.710855       -19.3434
  35   2.0000      -0.697556       -18.9815
  36   2.0000      -0.688587       -18.7374
  37   2.0000      -0.657630       -17.8950
  38   2.0000      -0.630932       -17.1685
  39   2.0000      -0.620636       -16.8884
  40   2.0000      -0.594035       -16.1645
  41   2.0000      -0.569079       -15.4854
  42   2.0000      -0.559345       -15.2206
  43   2.0000      -0.553943       -15.0736
  44   2.0000      -0.533741       -14.5238
  45   2.0000      -0.531686       -14.4679
  46   2.0000      -0.515997       -14.0410
  47   2.0000      -0.511284       -13.9127
  48   2.0000      -0.495638       -13.4870
  49   2.0000      -0.491942       -13.3864
  50   2.0000      -0.486401       -13.2356
  51   2.0000      -0.483994       -13.1702
  52   2.0000      -0.470825       -12.8118
  53   2.0000      -0.466795       -12.7021
  54   2.0000      -0.460725       -12.5370
  55   2.0000      -0.442216       -12.0333
  56   2.0000      -0.439326       -11.9547
  57   2.0000      -0.436753       -11.8847
  58   2.0000      -0.433063       -11.7842
  59   2.0000      -0.424784       -11.5589
  60   2.0000      -0.414849       -11.2886
  61   2.0000      -0.410374       -11.1668
  62   2.0000      -0.406392       -11.0585
  63   2.0000      -0.337455        -9.1826
  64   2.0000      -0.336298        -9.1511
  65   2.0000      -0.321142        -8.7387
  66   2.0000      -0.299295        -8.1442
  67   0.0000       0.027461         0.7473
  68   0.0000       0.058337         1.5874
  69   0.0000       0.109389         2.9766
  70   0.0000       0.112640         3.0651
  71   0.0000       0.127280         3.4635

MULLIKEN ATOMIC CHARGES
-----------------------
   0 S :    0.124340
   1 C :   -0.151557
   2 C :   -0.096683
   3 C :    0.038670
   4 C :   -0.172660
   5 H :    0.042963
   6 C :    0.075048
   7 H :    0.027506
   8 H :    0.039902
   9 C :   -0.100638
  10 H :    0.040922
  11 H :    0.037702
  12 C :   -0.064621
  13 H :    0.026487
  14 H :    0.031595
  15 H :    0.032193
  16 S :    0.103093
  17 C :   -0.084660
  18 C :   -0.033124
  19 C :   -0.010985
  20 C :   -0.177517
  21 H :    0.020956
  22 C :    0.024032
  23 H :    0.034962
  24 H :    0.031803
  25 C :   -0.046515
  26 H :    0.010373
  27 H :    0.022133
  28 C :   -0.033823
  29 H :    0.012723
  30 H :    0.029539
  31 H :    0.030441
  32 H :    0.080394
  33 H :    0.055005
Sum of atomic charges:    0.0000000

LOEWDIN ATOMIC CHARGES
----------------------
   0 S :    0.398609
   1 C :   -0.213301
   2 C :   -0.067530
   3 C :   -0.065014
   4 C :   -0.191205
   5 H :    0.045964
   6 C :   -0.033526
   7 H :    0.034472
   8 H :    0.033400
   9 C :   -0.049114
  10 H :    0.031130
  11 H :    0.031158
  12 C :   -0.074175
  13 H :    0.020657
  14 H :    0.026032
  15 H :    0.027956
  16 S :    0.400300
  17 C :   -0.177523
  18 C :   -0.072017
  19 C :   -0.051713
  20 C :   -0.205965
  21 H :    0.034708
  22 C :   -0.039536
  23 H :    0.038738
  24 H :    0.031545
  25 C :   -0.038293
  26 H :    0.018005
  27 H :    0.020681
  28 C :   -0.071671
  29 H :    0.019608
  30 H :    0.026926
  31 H :    0.029879
  32 H :    0.049824
  33 H :    0.030991

  Mayer bond orders larger than 0.100000
B(  0-S ,  1-C ) :   1.1400 B(  0-S ,  4-C ) :   1.1546 B(  1-C ,  2-C ) :   1.5983
B(  1-C ,  4-C ) :   0.1102 B(  1-C , 32-H ) :   0.9548 B(  2-C ,  3-C ) :   1.2666
B(  2-C ,  6-C ) :   1.0070 B(  3-C ,  4-C ) :   1.5558 B(  3-C ,  5-H ) :   0.9755
B(  4-C , 20-C ) :   1.0142 B(  6-C ,  7-H ) :   0.9449 B(  6-C ,  8-H ) :   0.9300
B(  6-C ,  9-C ) :   1.0778 B(  9-C , 10-H ) :   0.9479 B(  9-C , 11-H ) :   0.9553
B(  9-C , 12-C ) :   1.0677 B( 12-C , 13-H ) :   0.9741 B( 12-C , 14-H ) :   0.9730
B( 12-C , 15-H ) :   0.9743 B( 16-S , 17-C ) :   1.1499 B( 16-S , 20-C ) :   1.1437
B( 17-C , 18-C ) :   1.6353 B( 17-C , 33-H ) :   0.9624 B( 18-C , 19-C ) :   1.2275
B( 18-C , 21-H ) :   0.9903 B( 19-C , 20-C ) :   1.5692 B( 19-C , 22-C ) :   1.0669
B( 22-C , 23-H ) :   0.9324 B( 22-C , 24-H ) :   0.9369 B( 22-C , 25-C ) :   1.0685
B( 25-C , 26-H ) :   0.9554 B( 25-C , 27-H ) :   0.9572 B( 25-C , 28-C ) :   1.0714
B( 28-C , 29-H ) :   0.9709 B( 28-C , 30-H ) :   0.9737 B( 28-C , 31-H ) :   0.9718

Dispersion correction           -0.015792243
FINAL SINGLE POINT ENERGY     -1339.866470856377

DIPOLE MOMENT
-------------
                                X             Y             Z
Electronic contribution:     24.29219      -6.79953       1.02819
Nuclear contribution   :    -24.79408       7.01317      -1.16030
                        -----------------------------------------
Total Dipole Moment    :     -0.50188       0.21364      -0.13212
                        -----------------------------------------
Magnitude (a.u.)       :      0.56123
Magnitude (Debye)      :      1.42654

Rotational constants in cm-1:     0.019029     0.009171     0.008170
Rotational constants in MHz :   570.482654   274.930664   244.925744

                             ****ORCA TERMINATED NORMALLY****
TOTAL RUN TIME: 0 days 0 hours 0 minutes 36 seconds 705 msec
