                         Program Version 4.2.1 -  RELEASE  -
|  1> ! wB97X-D3 SP def2-SVP
|  2> %pal
|  3> nprocs 16
|  4> end
|  5>
|  6> * xyz 0 1
|  7> S 	 -101.988 	 45.0951 	 123.745
|  8> C 	 -103.359 	 45.9598 	 124.361
|  9> C 	 -103.123 	 47.3306 	 124.28
| 10> C 	 -101.84 	 47.6443 	 123.691
| 11> C 	 -101.13 	 46.5117 	 123.232
| 12> H 	 -101.381 	 48.6512 	 123.56
| 13> C 	 -104.102 	 48.3736 	 124.695
| 14> H 	 -103.714 	 49.2804 	 124.769
| 15> H 	 -104.443 	 48.0708 	 125.644
| 16> C 	 -105.336 	 48.5105 	 123.845
| 17> H 	 -104.857 	 49.0328 	 122.955
| 18> H 	 -105.773 	 47.5586 	 123.588
| 19> C 	 -106.35 	 49.5057 	 124.56
| 20> H 	 -107.126 	 49.6938 	 123.835
| 21> H 	 -106.853 	 49.0213 	 125.467
| 22> H 	 -105.969 	 50.4562 	 124.836
| 23> S 	 -98.499 	 45.4434 	 123.158
| 24> C 	 -97.3687 	 46.0813 	 122.051
| 25> C 	 -98.0809 	 46.7938 	 121.128
| 26> C 	 -99.3949 	 47.0282 	 121.46
| 27> C 	 -99.8801 	 46.3214 	 122.491
| 28> H 	 -97.5312 	 47.1909 	 120.266
| 29> C 	 -100.256 	 47.985 	 120.599
| 30> H 	 -100.224 	 49.0026 	 120.97
| 31> H 	 -101.277 	 47.6484 	 120.823
| 32> C 	 -99.9905 	 47.7376 	 119.067
| 33> H 	 -100.009 	 46.678 	 118.865
| 34> H 	 -99.0244 	 48.0396 	 118.773
| 35> C 	 -101.072 	 48.4941 	 118.266
| 36> H 	 -101.945 	 47.9235 	 118.24
| 37> H 	 -100.692 	 48.5656 	 117.27
| 38> H 	 -101.297 	 49.4539 	 118.721
| 39> H 	 -104.317 	 45.5968 	 124.721
| 40> H 	 -96.3343 	 45.7316 	 121.953
| 41> *
| 42>
| 43>                          ****END OF INPUT****

CARTESIAN COORDINATES (ANGSTROEM)
---------------------------------
  S    -101.988000   45.095100  123.745000
  C    -103.359000   45.959800  124.361000
  C    -103.123000   47.330600  124.280000
  C    -101.840000   47.644300  123.691000
  C    -101.130000   46.511700  123.232000
  H    -101.381000   48.651200  123.560000
  C    -104.102000   48.373600  124.695000
  H    -103.714000   49.280400  124.769000
  H    -104.443000   48.070800  125.644000
  C    -105.336000   48.510500  123.845000
  H    -104.857000   49.032800  122.955000
  H    -105.773000   47.558600  123.588000
  C    -106.350000   49.505700  124.560000
  H    -107.126000   49.693800  123.835000
  H    -106.853000   49.021300  125.467000
  H    -105.969000   50.456200  124.836000
  S    -98.499000   45.443400  123.158000
  C    -97.368700   46.081300  122.051000
  C    -98.080900   46.793800  121.128000
  C    -99.394900   47.028200  121.460000
  C    -99.880100   46.321400  122.491000
  H    -97.531200   47.190900  120.266000
  C    -100.256000   47.985000  120.599000
  H    -100.224000   49.002600  120.970000
  H    -101.277000   47.648400  120.823000
  C    -99.990500   47.737600  119.067000
  H    -100.009000   46.678000  118.865000
  H    -99.024400   48.039600  118.773000
  C    -101.072000   48.494100  118.266000
  H    -101.945000   47.923500  118.240000
  H    -100.692000   48.565600  117.270000
  H    -101.297000   49.453900  118.721000
  H    -104.317000   45.596800  124.721000
  H    -96.334300   45.731600  121.953000

 Total Charge           Charge          ....    0
 Multiplicity           Mult            ....    1
 Number of Electrons    NEL             ....  134
 Basis Dimension        Dim             ....  322

ORBITAL ENERGIES
----------------

  NO   OCC          E(Eh)            E(eV)
   0   2.0000     -88.965307     -2420.8691
   1   2.0000     -88.959836     -2420.7202
   2   2.0000     -10.333875      -281.1990
   3   2.0000     -10.322083      -280.8782
   4   2.0000     -10.316223      -280.7187
   5   2.0000     -10.313768      -280.6519
   6   2.0000     -10.303210      -280.3646
   7   2.0000     -10.301419      -280.3159
   8   2.0000     -10.292758      -280.0802
   9   2.0000     -10.292334      -280.0686
  10   2.0000     -10.290557      -280.0203
  11   2.0000     -10.285668      -279.8872
  12   2.0000     -10.285390      -279.8797
  13   2.0000     -10.282829      -279.8100
  14   2.0000     -10.271117      -279.4913
  15   2.0000     -10.268935      -279.4319
  16   2.0000      -8.080377      -219.8782
  17   2.0000      -8.075517      -219.7460
  18   2.0000      -6.038852      -164.3255
  19   2.0000      -6.034606      -164.2100
  20   2.0000      -6.034039      -164.1945
  21   2.0000      -6.031379      -164.1222
  22   2.0000      -6.029741      -164.0776
  23   2.0000      -6.026310      -163.9842
  24   2.0000      -1.014951       -27.6182
  25   2.0000      -0.990576       -26.9550
  26   2.0000      -0.920941       -25.0601
  27   2.0000      -0.905613       -24.6430
  28   2.0000      -0.871933       -23.7265
  29   2.0000      -0.851251       -23.1637
  30   2.0000      -0.841049       -22.8861
  31   2.0000      -0.814520       -22.1642
  32   2.0000      -0.782825       -21.3018
  33   2.0000      -0.773455       -21.0468
  34   2.0000      -0.709933       -19.3183
  35   2.0000      -0.703983       -19.1564
  36   2.0000      -0.703249       -19.1364
  37   2.0000      -0.655951       -17.8493
  38   2.0000      -0.640395       -17.4260
  39   2.0000      -0.615924       -16.7601
  40   2.0000      -0.597744       -16.2654
  41   2.0000      -0.586386       -15.9564
  42   2.0000      -0.566205       -15.4072
  43   2.0000      -0.565632       -15.3916
  44   2.0000      -0.534105       -14.5337
  45   2.0000      -0.522068       -14.2062
  46   2.0000      -0.516557       -14.0562
  47   2.0000      -0.514115       -13.9898
  48   2.0000      -0.512160       -13.9366
  49   2.0000      -0.502300       -13.6683
  50   2.0000      -0.482242       -13.1225
  51   2.0000      -0.481738       -13.1088
  52   2.0000      -0.475065       -12.9272
  53   2.0000      -0.471160       -12.8209
  54   2.0000      -0.463403       -12.6098
  55   2.0000      -0.453330       -12.3357
  56   2.0000      -0.444281       -12.0895
  57   2.0000      -0.437214       -11.8972
  58   2.0000      -0.431801       -11.7499
  59   2.0000      -0.424539       -11.5523
  60   2.0000      -0.421698       -11.4750
  61   2.0000      -0.416399       -11.3308
  62   2.0000      -0.401535       -10.9263
  63   2.0000      -0.348491        -9.4829
  64   2.0000      -0.330547        -8.9947
  65   2.0000      -0.327232        -8.9044
  66   2.0000      -0.294827        -8.0226
  67   0.0000       0.031007         0.8437
  68   0.0000       0.066766         1.8168
  69   0.0000       0.119626         3.2552
  70   0.0000       0.129333         3.5193
  71   0.0000       0.137295         3.7360

MULLIKEN ATOMIC CHARGES
-----------------------
   0 S :    0.114494
   1 C :   -0.100676
   2 C :   -0.124621
   3 C :    0.030049
   4 C :   -0.188364
   5 H :    0.025962
   6 C :    0.160299
   7 H :   -0.028877
   8 H :    0.001980
   9 C :   -0.097716
  10 H :    0.032629
  11 H :    0.032160
  12 C :   -0.054456
  13 H :    0.033525
  14 H :    0.043888
  15 H :    0.028303
  16 S :    0.092254
  17 C :   -0.091676
  18 C :   -0.051356
  19 C :   -0.071127
  20 C :   -0.097433
  21 H :    0.022037
  22 C :    0.059840
  23 H :    0.037789
  24 H :    0.030004
  25 C :   -0.092195
  26 H :    0.031994
  27 H :    0.021054
  28 C :    0.006903
  29 H :    0.022305
  30 H :    0.024144
  31 H :    0.030412
  32 H :    0.044995
  33 H :    0.071477
Sum of atomic charges:    0.0000000

LOEWDIN ATOMIC CHARGES
----------------------
   0 S :    0.429493
   1 C :   -0.209198
   2 C :   -0.058298
   3 C :   -0.069954
   4 C :   -0.195474
   5 H :    0.036952
   6 C :   -0.026519
   7 H :    0.009017
   8 H :    0.023647
   9 C :   -0.029232
  10 H :    0.031941
  11 H :    0.019601
  12 C :   -0.066065
  13 H :    0.025205
  14 H :    0.033746
  15 H :    0.019282
  16 S :    0.413893
  17 C :   -0.190426
  18 C :   -0.084952
  19 C :   -0.064049
  20 C :   -0.209750
  21 H :    0.033450
  22 C :   -0.025655
  23 H :    0.027497
  24 H :    0.031267
  25 C :   -0.029762
  26 H :    0.026687
  27 H :    0.010991
  28 C :   -0.051910
  29 H :    0.018786
  30 H :    0.023824
  31 H :    0.025696
  32 H :    0.031814
  33 H :    0.038457

  Mayer bond orders larger than 0.100000
B(  0-S ,  1-C ) :   1.1464 B(  0-S ,  4-C ) :   1.1809 B(  1-C ,  2-C ) :   1.5840
B(  1-C ,  4-C ) :   0.1056 B(  1-C , 32-H ) :   0.9700 B(  2-C ,  3-C ) :   1.2559
B(  2-C ,  6-C ) :   1.0327 B(  3-C ,  4-C ) :   1.5407 B(  3-C ,  5-H ) :   0.9906
B(  4-C , 20-C ) :   1.0049 B(  6-C ,  7-H ) :   0.9365 B(  6-C ,  8-H ) :   0.9277
B(  6-C ,  9-C ) :   1.0569 B(  9-C , 10-H ) :   0.9578 B(  9-C , 11-H ) :   0.9606
B(  9-C , 12-C ) :   1.0731 B( 12-C , 13-H ) :   0.9762 B( 12-C , 14-H ) :   0.9750
B( 12-C , 15-H ) :   0.9755 B( 16-S , 17-C ) :   1.1899 B( 16-S , 20-C ) :   1.1231
B( 17-C , 18-C ) :   1.5624 B( 17-C , 20-C ) :   0.1010 B( 17-C , 33-H ) :   0.9620
B( 18-C , 19-C ) :   1.2727 B( 18-C , 21-H ) :   0.9936 B( 19-C , 20-C ) :   1.6200
B( 19-C , 22-C ) :   1.0094 B( 22-C , 23-H ) :   0.9339 B( 22-C , 24-H ) :   0.9436
B( 22-C , 25-C ) :   1.0615 B( 25-C , 26-H ) :   0.9594 B( 25-C , 27-H ) :   0.9557
B( 25-C , 28-C ) :   1.0824 B( 28-C , 29-H ) :   0.9761 B( 28-C , 30-H ) :   0.9734
B( 28-C , 31-H ) :   0.9745

Dispersion correction           -0.013512653
FINAL SINGLE POINT ENERGY     -1339.855941273315

DIPOLE MOMENT
-------------
                                X             Y             Z
Electronic contribution:     18.75843     -20.67669      11.27100
Nuclear contribution   :    -18.98275      21.28894     -11.60841
                        -----------------------------------------
Total Dipole Moment    :     -0.22432       0.61225      -0.33741
                        -----------------------------------------
Magnitude (a.u.)       :      0.73417
Magnitude (Debye)      :      1.86612

Rotational constants in cm-1:     0.018697     0.007983     0.006103
Rotational constants in MHz :   560.515553   239.325049   182.949775

                             ****ORCA TERMINATED NORMALLY****
TOTAL RUN TIME: 0 days 0 hours 0 minutes 32 seconds 789 msec
