                         Program Version 4.2.1 -  RELEASE  -
|  1> ! wB97X-D3 SP def2-SVP
|  2> %pal
|  3> nprocs 16
|  4> end
|  5>
|  6> * xyz 0 1
|  7> S 	 -104.557 	 41.0403 	 128.953
|  8> C 	 -103.382 	 40.2918 	 130.114
|  9> C 	 -104.11 	 39.4976 	 131.006
| 10> C 	 -105.514 	 39.3797 	 130.79
| 11> C 	 -105.915 	 40.1475 	 129.689
| 12> H 	 -106.316 	 38.8865 	 131.303
| 13> C 	 -103.593 	 38.7757 	 132.225
| 14> H 	 -104.174 	 39.2747 	 133.027
| 15> H 	 -102.563 	 39.1436 	 132.329
| 16> C 	 -103.701 	 37.2039 	 132.18
| 17> H 	 -103.556 	 36.7214 	 133.236
| 18> H 	 -104.695 	 36.8758 	 131.976
| 19> C 	 -102.63 	 36.7433 	 131.216
| 20> H 	 -102.564 	 37.396 	 130.287
| 21> H 	 -101.572 	 36.9271 	 131.554
| 22> H 	 -102.698 	 35.6216 	 130.985
| 23> S 	 -107.746 	 42.0082 	 129.154
| 24> C 	 -109.423 	 41.5505 	 128.703
| 25> C 	 -109.531 	 40.1527 	 128.507
| 26> C 	 -108.353 	 39.4433 	 128.846
| 27> C 	 -107.308 	 40.3454 	 129.228
| 28> H 	 -110.414 	 39.6803 	 128.186
| 29> C 	 -108.134 	 37.9983 	 128.633
| 30> H 	 -109.105 	 37.4008 	 128.501
| 31> H 	 -107.674 	 37.5899 	 129.492
| 32> C 	 -107.34 	 37.6482 	 127.367
| 33> H 	 -106.34 	 38.0217 	 127.375
| 34> H 	 -107.822 	 38.24 	 126.555
| 35> C 	 -107.52 	 36.1792 	 126.926
| 36> H 	 -106.965 	 36.1246 	 125.989
| 37> H 	 -108.558 	 35.9163 	 126.81
| 38> H 	 -107.204 	 35.5435 	 127.728
| 39> H 	 -102.325 	 40.569 	 130.227
| 40> H 	 -110.229 	 42.2382 	 128.404
| 41> *
| 42>
| 43>                          ****END OF INPUT****

CARTESIAN COORDINATES (ANGSTROEM)
---------------------------------
  S    -104.557000   41.040300  128.953000
  C    -103.382000   40.291800  130.114000
  C    -104.110000   39.497600  131.006000
  C    -105.514000   39.379700  130.790000
  C    -105.915000   40.147500  129.689000
  H    -106.316000   38.886500  131.303000
  C    -103.593000   38.775700  132.225000
  H    -104.174000   39.274700  133.027000
  H    -102.563000   39.143600  132.329000
  C    -103.701000   37.203900  132.180000
  H    -103.556000   36.721400  133.236000
  H    -104.695000   36.875800  131.976000
  C    -102.630000   36.743300  131.216000
  H    -102.564000   37.396000  130.287000
  H    -101.572000   36.927100  131.554000
  H    -102.698000   35.621600  130.985000
  S    -107.746000   42.008200  129.154000
  C    -109.423000   41.550500  128.703000
  C    -109.531000   40.152700  128.507000
  C    -108.353000   39.443300  128.846000
  C    -107.308000   40.345400  129.228000
  H    -110.414000   39.680300  128.186000
  C    -108.134000   37.998300  128.633000
  H    -109.105000   37.400800  128.501000
  H    -107.674000   37.589900  129.492000
  C    -107.340000   37.648200  127.367000
  H    -106.340000   38.021700  127.375000
  H    -107.822000   38.240000  126.555000
  C    -107.520000   36.179200  126.926000
  H    -106.965000   36.124600  125.989000
  H    -108.558000   35.916300  126.810000
  H    -107.204000   35.543500  127.728000
  H    -102.325000   40.569000  130.227000
  H    -110.229000   42.238200  128.404000

 Total Charge           Charge          ....    0
 Multiplicity           Mult            ....    1
 Number of Electrons    NEL             ....  134
 Basis Dimension        Dim             ....  322

ORBITAL ENERGIES
----------------

  NO   OCC          E(Eh)            E(eV)
   0   2.0000     -88.972332     -2421.0602
   1   2.0000     -88.968744     -2420.9626
   2   2.0000     -10.336942      -281.2825
   3   2.0000     -10.329749      -281.0868
   4   2.0000     -10.324928      -280.9556
   5   2.0000     -10.323876      -280.9269
   6   2.0000     -10.306389      -280.4511
   7   2.0000     -10.306365      -280.4504
   8   2.0000     -10.299508      -280.2639
   9   2.0000     -10.297045      -280.1968
  10   2.0000     -10.295547      -280.1561
  11   2.0000     -10.294630      -280.1311
  12   2.0000     -10.290220      -280.0111
  13   2.0000     -10.288435      -279.9625
  14   2.0000     -10.281031      -279.7611
  15   2.0000     -10.275039      -279.5980
  16   2.0000      -8.086341      -220.0405
  17   2.0000      -8.081792      -219.9167
  18   2.0000      -6.044797      -164.4873
  19   2.0000      -6.040852      -164.3799
  20   2.0000      -6.040532      -164.3712
  21   2.0000      -6.037288      -164.2830
  22   2.0000      -6.036525      -164.2622
  23   2.0000      -6.032415      -164.1503
  24   2.0000      -1.000996       -27.2385
  25   2.0000      -0.976009       -26.5585
  26   2.0000      -0.912076       -24.8188
  27   2.0000      -0.907404       -24.6917
  28   2.0000      -0.865528       -23.5522
  29   2.0000      -0.851269       -23.1642
  30   2.0000      -0.843370       -22.9493
  31   2.0000      -0.812631       -22.1128
  32   2.0000      -0.775482       -21.1019
  33   2.0000      -0.763644       -20.7798
  34   2.0000      -0.708297       -19.2737
  35   2.0000      -0.700002       -19.0480
  36   2.0000      -0.691377       -18.8133
  37   2.0000      -0.666998       -18.1499
  38   2.0000      -0.641463       -17.4551
  39   2.0000      -0.615693       -16.7539
  40   2.0000      -0.595970       -16.2172
  41   2.0000      -0.566255       -15.4086
  42   2.0000      -0.557194       -15.1620
  43   2.0000      -0.550991       -14.9932
  44   2.0000      -0.532053       -14.4779
  45   2.0000      -0.527671       -14.3587
  46   2.0000      -0.517803       -14.0901
  47   2.0000      -0.511808       -13.9270
  48   2.0000      -0.500496       -13.6192
  49   2.0000      -0.496525       -13.5111
  50   2.0000      -0.489899       -13.3308
  51   2.0000      -0.482898       -13.1403
  52   2.0000      -0.465644       -12.6708
  53   2.0000      -0.463668       -12.6170
  54   2.0000      -0.452634       -12.3168
  55   2.0000      -0.451569       -12.2878
  56   2.0000      -0.442288       -12.0353
  57   2.0000      -0.436185       -11.8692
  58   2.0000      -0.432678       -11.7738
  59   2.0000      -0.426347       -11.6015
  60   2.0000      -0.423955       -11.5364
  61   2.0000      -0.409899       -11.1539
  62   2.0000      -0.404316       -11.0020
  63   2.0000      -0.345525        -9.4022
  64   2.0000      -0.332007        -9.0344
  65   2.0000      -0.328266        -8.9326
  66   2.0000      -0.289253        -7.8710
  67   0.0000       0.023064         0.6276
  68   0.0000       0.061935         1.6853
  69   0.0000       0.100206         2.7268
  70   0.0000       0.120907         3.2901
  71   0.0000       0.126008         3.4289

MULLIKEN ATOMIC CHARGES
-----------------------
   0 S :    0.091151
   1 C :   -0.125801
   2 C :   -0.101457
   3 C :    0.042995
   4 C :   -0.152674
   5 H :    0.018914
   6 C :    0.041058
   7 H :    0.044915
   8 H :    0.011674
   9 C :   -0.035750
  10 H :    0.042941
  11 H :    0.025877
  12 C :   -0.100703
  13 H :    0.046875
  14 H :    0.028940
  15 H :    0.051736
  16 S :    0.122028
  17 C :   -0.104467
  18 C :   -0.024278
  19 C :   -0.012907
  20 C :   -0.184632
  21 H :    0.002379
  22 C :    0.069188
  23 H :    0.017336
  24 H :    0.008662
  25 C :   -0.088398
  26 H :    0.036563
  27 H :    0.022557
  28 C :   -0.020636
  29 H :    0.047278
  30 H :    0.022624
  31 H :    0.025243
  32 H :    0.062582
  33 H :    0.068186
Sum of atomic charges:   -0.0000000

LOEWDIN ATOMIC CHARGES
----------------------
   0 S :    0.363251
   1 C :   -0.198971
   2 C :   -0.058909
   3 C :   -0.065325
   4 C :   -0.176992
   5 H :    0.033789
   6 C :   -0.034453
   7 H :    0.037516
   8 H :    0.026049
   9 C :   -0.042931
  10 H :    0.036285
  11 H :    0.017738
  12 C :   -0.085831
  13 H :    0.034519
  14 H :    0.028739
  15 H :    0.032968
  16 S :    0.421043
  17 C :   -0.186956
  18 C :   -0.056847
  19 C :   -0.056147
  20 C :   -0.209750
  21 H :    0.024775
  22 C :   -0.038688
  23 H :    0.036373
  24 H :    0.021309
  25 C :   -0.037317
  26 H :    0.021208
  27 H :    0.026593
  28 C :   -0.059396
  29 H :    0.033397
  30 H :    0.021458
  31 H :    0.020915
  32 H :    0.036522
  33 H :    0.034063

  Mayer bond orders larger than 0.100000
B(  0-S ,  1-C ) :   1.0983 B(  0-S ,  4-C ) :   1.1456 B(  1-C ,  2-C ) :   1.6192
B(  1-C , 32-H ) :   0.9655 B(  2-C ,  3-C ) :   1.2006 B(  2-C ,  6-C ) :   1.0182
B(  3-C ,  4-C ) :   1.5915 B(  3-C ,  5-H ) :   0.9926 B(  4-C , 20-C ) :   1.0265
B(  6-C ,  7-H ) :   0.9399 B(  6-C ,  8-H ) :   0.9460 B(  6-C ,  9-C ) :   1.0494
B(  9-C , 10-H ) :   0.9548 B(  9-C , 11-H ) :   0.9604 B(  9-C , 12-C ) :   1.0561
B( 12-C , 13-H ) :   0.9733 B( 12-C , 14-H ) :   0.9718 B( 12-C , 15-H ) :   0.9720
B( 16-S , 17-C ) :   1.1529 B( 16-S , 20-C ) :   1.1775 B( 17-C , 18-C ) :   1.5710
B( 17-C , 20-C ) :   0.1139 B( 17-C , 33-H ) :   0.9651 B( 18-C , 19-C ) :   1.2840
B( 18-C , 21-H ) :   0.9915 B( 19-C , 20-C ) :   1.5186 B( 19-C , 22-C ) :   1.0672
B( 22-C , 23-H ) :   0.9351 B( 22-C , 24-H ) :   0.9158 B( 22-C , 25-C ) :   1.0578
B( 25-C , 26-H ) :   0.9562 B( 25-C , 27-H ) :   0.9545 B( 25-C , 28-C ) :   1.0790
B( 28-C , 29-H ) :   0.9740 B( 28-C , 30-H ) :   0.9722 B( 28-C , 31-H ) :   0.9758

Dispersion correction           -0.014615120
FINAL SINGLE POINT ENERGY     -1339.862226244760

DIPOLE MOMENT
-------------
                                X             Y             Z
Electronic contribution:     -5.59656      27.29596      -2.39508
Nuclear contribution   :      5.45049     -27.76446       2.56838
                        -----------------------------------------
Total Dipole Moment    :     -0.14607      -0.46849       0.17330
                        -----------------------------------------
Magnitude (a.u.)       :      0.52044
Magnitude (Debye)      :      1.32285

Rotational constants in cm-1:     0.017786     0.009403     0.007230
Rotational constants in MHz :   533.205427   281.881965   216.760641

                             ****ORCA TERMINATED NORMALLY****
TOTAL RUN TIME: 0 days 0 hours 0 minutes 33 seconds 800 msec
