                         Program Version 4.2.1 -  RELEASE  -
|  1> ! wB97X-D3 SP def2-SVP
|  2> %pal
|  3> nprocs 16
|  4> end
|  5>
|  6> * xyz 0 1
|  7> S 	 34.1334 	 10.0383 	 70.9559
|  8> C 	 32.7109 	 10.8311 	 70.1084
|  9> C 	 33.1726 	 11.7016 	 69.1154
| 10> C 	 34.5993 	 11.6188 	 68.9392
| 11> C 	 35.2067 	 10.8028 	 69.8765
| 12> H 	 35.1033 	 12.1921 	 68.1554
| 13> C 	 32.2569 	 12.3583 	 68.0693
| 14> H 	 31.4698 	 11.6214 	 67.9657
| 15> H 	 32.8002 	 12.5691 	 67.0968
| 16> C 	 31.5564 	 13.6167 	 68.498
| 17> H 	 30.9738 	 13.3524 	 69.3068
| 18> H 	 32.3236 	 14.3314 	 68.7757
| 19> C 	 30.5385 	 14.3869 	 67.6221
| 20> H 	 29.9655 	 13.6742 	 67.059
| 21> H 	 29.8319 	 15.0058 	 68.2394
| 22> H 	 31.1565 	 14.9715 	 66.8986
| 23> S 	 37.5888 	 12.1137 	 70.2834
| 24> C 	 39.0146 	 11.2832 	 70.6385
| 25> C 	 38.798 	 9.89262 	 70.6805
| 26> C 	 37.4467 	 9.57265 	 70.3625
| 27> C 	 36.6508 	 10.6791 	 70.0483
| 28> H 	 39.5983 	 9.25783 	 71.0706
| 29> C 	 36.9959 	 8.16347 	 70.3201
| 30> H 	 35.9356 	 8.10793 	 70.5772
| 31> H 	 37.5697 	 7.58983 	 71.0878
| 32> C 	 37.29 	 7.54583 	 68.9546
| 33> H 	 38.3383 	 7.59149 	 68.8873
| 34> H 	 36.7822 	 8.09261 	 68.1771
| 35> C 	 36.5809 	 6.18857 	 68.9112
| 36> H 	 35.5958 	 6.29103 	 69.3554
| 37> H 	 37.079 	 5.32273 	 69.3153
| 38> H 	 36.4607 	 5.97138 	 67.847
| 39> H 	 31.6648 	 10.5772 	 70.2805
| 40> H 	 39.9447 	 11.7355 	 70.9962
| 41> *
| 42>
| 43>                          ****END OF INPUT****

CARTESIAN COORDINATES (ANGSTROEM)
---------------------------------
  S     34.133400   10.038300   70.955900
  C     32.710900   10.831100   70.108400
  C     33.172600   11.701600   69.115400
  C     34.599300   11.618800   68.939200
  C     35.206700   10.802800   69.876500
  H     35.103300   12.192100   68.155400
  C     32.256900   12.358300   68.069300
  H     31.469800   11.621400   67.965700
  H     32.800200   12.569100   67.096800
  C     31.556400   13.616700   68.498000
  H     30.973800   13.352400   69.306800
  H     32.323600   14.331400   68.775700
  C     30.538500   14.386900   67.622100
  H     29.965500   13.674200   67.059000
  H     29.831900   15.005800   68.239400
  H     31.156500   14.971500   66.898600
  S     37.588800   12.113700   70.283400
  C     39.014600   11.283200   70.638500
  C     38.798000    9.892620   70.680500
  C     37.446700    9.572650   70.362500
  C     36.650800   10.679100   70.048300
  H     39.598300    9.257830   71.070600
  C     36.995900    8.163470   70.320100
  H     35.935600    8.107930   70.577200
  H     37.569700    7.589830   71.087800
  C     37.290000    7.545830   68.954600
  H     38.338300    7.591490   68.887300
  H     36.782200    8.092610   68.177100
  C     36.580900    6.188570   68.911200
  H     35.595800    6.291030   69.355400
  H     37.079000    5.322730   69.315300
  H     36.460700    5.971380   67.847000
  H     31.664800   10.577200   70.280500
  H     39.944700   11.735500   70.996200

 Total Charge           Charge          ....    0
 Multiplicity           Mult            ....    1
 Number of Electrons    NEL             ....  134
 Basis Dimension        Dim             ....  322

ORBITAL ENERGIES
----------------

  NO   OCC          E(Eh)            E(eV)
   0   2.0000     -88.971574     -2421.0396
   1   2.0000     -88.966278     -2420.8955
   2   2.0000     -10.330089      -281.0960
   3   2.0000     -10.322216      -280.8818
   4   2.0000     -10.321111      -280.8517
   5   2.0000     -10.315541      -280.7001
   6   2.0000     -10.308030      -280.4958
   7   2.0000     -10.299009      -280.2503
   8   2.0000     -10.297108      -280.1985
   9   2.0000     -10.295324      -280.1500
  10   2.0000     -10.294453      -280.1263
  11   2.0000     -10.284367      -279.8519
  12   2.0000     -10.282893      -279.8117
  13   2.0000     -10.276128      -279.6277
  14   2.0000     -10.273891      -279.5668
  15   2.0000     -10.270423      -279.4724
  16   2.0000      -8.085307      -220.0124
  17   2.0000      -8.082058      -219.9240
  18   2.0000      -6.043968      -164.4647
  19   2.0000      -6.040337      -164.3659
  20   2.0000      -6.039936      -164.3550
  21   2.0000      -6.036216      -164.2538
  22   2.0000      -6.035984      -164.2475
  23   2.0000      -6.033195      -164.1716
  24   2.0000      -1.010702       -27.5026
  25   2.0000      -0.983956       -26.7748
  26   2.0000      -0.916893       -24.9499
  27   2.0000      -0.914559       -24.8864
  28   2.0000      -0.867902       -23.6168
  29   2.0000      -0.853048       -23.2126
  30   2.0000      -0.845234       -23.0000
  31   2.0000      -0.810493       -22.0546
  32   2.0000      -0.783427       -21.3181
  33   2.0000      -0.769192       -20.9308
  34   2.0000      -0.703954       -19.1556
  35   2.0000      -0.694458       -18.8972
  36   2.0000      -0.692543       -18.8451
  37   2.0000      -0.663400       -18.0520
  38   2.0000      -0.633735       -17.2448
  39   2.0000      -0.619972       -16.8703
  40   2.0000      -0.595143       -16.1947
  41   2.0000      -0.580073       -15.7846
  42   2.0000      -0.572306       -15.5732
  43   2.0000      -0.563102       -15.3228
  44   2.0000      -0.523773       -14.2526
  45   2.0000      -0.520484       -14.1631
  46   2.0000      -0.516254       -14.0480
  47   2.0000      -0.513145       -13.9634
  48   2.0000      -0.506019       -13.7695
  49   2.0000      -0.502226       -13.6663
  50   2.0000      -0.490105       -13.3364
  51   2.0000      -0.483732       -13.1630
  52   2.0000      -0.471012       -12.8169
  53   2.0000      -0.466636       -12.6978
  54   2.0000      -0.460978       -12.5438
  55   2.0000      -0.450123       -12.2485
  56   2.0000      -0.442677       -12.0459
  57   2.0000      -0.437752       -11.9118
  58   2.0000      -0.430025       -11.7016
  59   2.0000      -0.422714       -11.5026
  60   2.0000      -0.419997       -11.4287
  61   2.0000      -0.414013       -11.2659
  62   2.0000      -0.406715       -11.0673
  63   2.0000      -0.342164        -9.3108
  64   2.0000      -0.333494        -9.0748
  65   2.0000      -0.328173        -8.9300
  66   2.0000      -0.291853        -7.9417
  67   0.0000       0.028320         0.7706
  68   0.0000       0.070360         1.9146
  69   0.0000       0.098315         2.6753
  70   0.0000       0.116557         3.1717
  71   0.0000       0.126228         3.4348

MULLIKEN ATOMIC CHARGES
-----------------------
   0 S :    0.113085
   1 C :   -0.144851
   2 C :   -0.053919
   3 C :   -0.008309
   4 C :   -0.122002
   5 H :    0.020911
   6 C :    0.055820
   7 H :    0.020992
   8 H :    0.035912
   9 C :   -0.086031
  10 H :    0.005441
  11 H :    0.027500
  12 C :   -0.042605
  13 H :    0.018469
  14 H :    0.052300
  15 H :    0.035755
  16 S :    0.131599
  17 C :   -0.103679
  18 C :   -0.053301
  19 C :   -0.060207
  20 C :   -0.134639
  21 H :    0.027865
  22 C :    0.036686
  23 H :    0.010641
  24 H :    0.026364
  25 C :   -0.034635
  26 H :    0.017987
  27 H :    0.029587
  28 C :   -0.025724
  29 H :    0.029832
  30 H :    0.029523
  31 H :    0.024331
  32 H :    0.054990
  33 H :    0.064314
Sum of atomic charges:    0.0000000

LOEWDIN ATOMIC CHARGES
----------------------
   0 S :    0.409883
   1 C :   -0.182618
   2 C :   -0.050699
   3 C :   -0.073097
   4 C :   -0.201492
   5 H :    0.034385
   6 C :   -0.030105
   7 H :    0.030254
   8 H :    0.034336
   9 C :   -0.047903
  10 H :    0.011881
  11 H :    0.022788
  12 C :   -0.062765
  13 H :    0.017897
  14 H :    0.036551
  15 H :    0.027616
  16 S :    0.455675
  17 C :   -0.209810
  18 C :   -0.080167
  19 C :   -0.056853
  20 C :   -0.220917
  21 H :    0.034992
  22 C :   -0.038870
  23 H :    0.011839
  24 H :    0.033414
  25 C :   -0.025861
  26 H :    0.018333
  27 H :    0.027758
  28 C :   -0.062486
  29 H :    0.026953
  30 H :    0.020601
  31 H :    0.025857
  32 H :    0.028371
  33 H :    0.034257

  Mayer bond orders larger than 0.100000
B(  0-S ,  1-C ) :   1.1148 B(  0-S ,  4-C ) :   1.1626 B(  1-C ,  2-C ) :   1.6149
B(  1-C , 32-H ) :   0.9670 B(  2-C ,  3-C ) :   1.2365 B(  2-C ,  6-C ) :   1.0140
B(  3-C ,  4-C ) :   1.5453 B(  3-C ,  5-H ) :   0.9977 B(  4-C , 20-C ) :   1.0483
B(  6-C ,  7-H ) :   0.9373 B(  6-C ,  8-H ) :   0.9490 B(  6-C ,  9-C ) :   1.0683
B(  9-C , 10-H ) :   0.9565 B(  9-C , 11-H ) :   0.9590 B(  9-C , 12-C ) :   1.0776
B( 12-C , 13-H ) :   0.9734 B( 12-C , 14-H ) :   0.9765 B( 12-C , 15-H ) :   0.9778
B( 16-S , 17-C ) :   1.2081 B( 16-S , 20-C ) :   1.1517 B( 17-C , 18-C ) :   1.5468
B( 17-C , 33-H ) :   0.9643 B( 18-C , 19-C ) :   1.2853 B( 18-C , 21-H ) :   0.9915
B( 19-C , 20-C ) :   1.5287 B( 19-C , 22-C ) :   1.0663 B( 22-C , 23-H ) :   0.9247
B( 22-C , 24-H ) :   0.9301 B( 22-C , 25-C ) :   1.0714 B( 25-C , 26-H ) :   0.9563
B( 25-C , 27-H ) :   0.9585 B( 25-C , 28-C ) :   1.0736 B( 28-C , 29-H ) :   0.9729
B( 28-C , 30-H ) :   0.9752 B( 28-C , 31-H ) :   0.9782

Dispersion correction           -0.013610095
FINAL SINGLE POINT ENERGY     -1339.869240731567

DIPOLE MOMENT
-------------
                                X             Y             Z
Electronic contribution:     12.39721       4.36413      12.66432
Nuclear contribution   :    -12.48202      -4.48865     -12.82355
                        -----------------------------------------
Total Dipole Moment    :     -0.08481      -0.12453      -0.15923
                        -----------------------------------------
Magnitude (a.u.)       :      0.21921
Magnitude (Debye)      :      0.55719

Rotational constants in cm-1:     0.021858     0.007312     0.006136
Rotational constants in MHz :   655.282068   219.223219   183.965352

                             ****ORCA TERMINATED NORMALLY****
TOTAL RUN TIME: 0 days 0 hours 0 minutes 27 seconds 607 msec
