                         Program Version 4.2.1 -  RELEASE  -
|  1> ! wB97X-D3 SP def2-SVP
|  2> %pal
|  3> nprocs 16
|  4> end
|  5>
|  6> * xyz 0 1
|  7> S 	 -90.6698 	 51.4844 	 123.216
|  8> C 	 -89.83 	 50.014 	 123.091
|  9> C 	 -90.0768 	 49.1039 	 124.119
| 10> C 	 -91.2706 	 49.5074 	 124.883
| 11> C 	 -91.5657 	 50.8394 	 124.538
| 12> H 	 -91.8149 	 49.0904 	 125.703
| 13> C 	 -89.4434 	 47.6963 	 124.109
| 14> H 	 -89.7698 	 47.3132 	 125.043
| 15> H 	 -88.3853 	 47.773 	 124.319
| 16> C 	 -89.8637 	 46.7582 	 122.904
| 17> H 	 -90.9318 	 46.6597 	 122.777
| 18> H 	 -89.5305 	 47.1347 	 122.012
| 19> C 	 -89.1968 	 45.3608 	 123.095
| 20> H 	 -88.1452 	 45.348 	 122.975
| 21> H 	 -89.4623 	 44.8156 	 123.977
| 22> H 	 -89.5443 	 44.7606 	 122.244
| 23> S 	 -93.7334 	 52.4147 	 124.084
| 24> C 	 -94.5036 	 53.1696 	 125.446
| 25> C 	 -94.057 	 52.7298 	 126.683
| 26> C 	 -93.0837 	 51.7032 	 126.474
| 27> C 	 -92.6789 	 51.5646 	 125.131
| 28> H 	 -94.3912 	 53.2193 	 127.573
| 29> C 	 -92.3862 	 51.0752 	 127.705
| 30> H 	 -91.8578 	 50.1839 	 127.461
| 31> H 	 -93.1761 	 50.8006 	 128.406
| 32> C 	 -91.3884 	 51.9899 	 128.39
| 33> H 	 -90.9715 	 51.4822 	 129.285
| 34> H 	 -91.9632 	 52.9185 	 128.766
| 35> C 	 -90.2094 	 52.4878 	 127.512
| 36> H 	 -89.7771 	 53.3318 	 128.049
| 37> H 	 -90.5426 	 52.7425 	 126.571
| 38> H 	 -89.4664 	 51.7444 	 127.228
| 39> H 	 -89.0303 	 49.873 	 122.338
| 40> H 	 -95.3077 	 53.9312 	 125.359
| 41> *
| 42>
| 43>                          ****END OF INPUT****

CARTESIAN COORDINATES (ANGSTROEM)
---------------------------------
  S    -90.669800   51.484400  123.216000
  C    -89.830000   50.014000  123.091000
  C    -90.076800   49.103900  124.119000
  C    -91.270600   49.507400  124.883000
  C    -91.565700   50.839400  124.538000
  H    -91.814900   49.090400  125.703000
  C    -89.443400   47.696300  124.109000
  H    -89.769800   47.313200  125.043000
  H    -88.385300   47.773000  124.319000
  C    -89.863700   46.758200  122.904000
  H    -90.931800   46.659700  122.777000
  H    -89.530500   47.134700  122.012000
  C    -89.196800   45.360800  123.095000
  H    -88.145200   45.348000  122.975000
  H    -89.462300   44.815600  123.977000
  H    -89.544300   44.760600  122.244000
  S    -93.733400   52.414700  124.084000
  C    -94.503600   53.169600  125.446000
  C    -94.057000   52.729800  126.683000
  C    -93.083700   51.703200  126.474000
  C    -92.678900   51.564600  125.131000
  H    -94.391200   53.219300  127.573000
  C    -92.386200   51.075200  127.705000
  H    -91.857800   50.183900  127.461000
  H    -93.176100   50.800600  128.406000
  C    -91.388400   51.989900  128.390000
  H    -90.971500   51.482200  129.285000
  H    -91.963200   52.918500  128.766000
  C    -90.209400   52.487800  127.512000
  H    -89.777100   53.331800  128.049000
  H    -90.542600   52.742500  126.571000
  H    -89.466400   51.744400  127.228000
  H    -89.030300   49.873000  122.338000
  H    -95.307700   53.931200  125.359000

 Total Charge           Charge          ....    0
 Multiplicity           Mult            ....    1
 Number of Electrons    NEL             ....  134
 Basis Dimension        Dim             ....  322

ORBITAL ENERGIES
----------------

  NO   OCC          E(Eh)            E(eV)
   0   2.0000     -88.971383     -2421.0344
   1   2.0000     -88.965831     -2420.8833
   2   2.0000     -10.326269      -280.9921
   3   2.0000     -10.322302      -280.8841
   4   2.0000     -10.315925      -280.7106
   5   2.0000     -10.310926      -280.5746
   6   2.0000     -10.307035      -280.4687
   7   2.0000     -10.304462      -280.3987
   8   2.0000     -10.299051      -280.2514
   9   2.0000     -10.293807      -280.1087
  10   2.0000     -10.290773      -280.0262
  11   2.0000     -10.289673      -279.9962
  12   2.0000     -10.287251      -279.9303
  13   2.0000     -10.286058      -279.8979
  14   2.0000     -10.274500      -279.5834
  15   2.0000     -10.262481      -279.2563
  16   2.0000      -8.087233      -220.0648
  17   2.0000      -8.081446      -219.9073
  18   2.0000      -6.045490      -164.5061
  19   2.0000      -6.041620      -164.4008
  20   2.0000      -6.039756      -164.3501
  21   2.0000      -6.038162      -164.3067
  22   2.0000      -6.035837      -164.2435
  23   2.0000      -6.032370      -164.1491
  24   2.0000      -1.011357       -27.5204
  25   2.0000      -0.986393       -26.8411
  26   2.0000      -0.905659       -24.6442
  27   2.0000      -0.903428       -24.5835
  28   2.0000      -0.869100       -23.6494
  29   2.0000      -0.853621       -23.2282
  30   2.0000      -0.842345       -22.9214
  31   2.0000      -0.810215       -22.0471
  32   2.0000      -0.784155       -21.3379
  33   2.0000      -0.769211       -20.9313
  34   2.0000      -0.716255       -19.4903
  35   2.0000      -0.697712       -18.9857
  36   2.0000      -0.683636       -18.6027
  37   2.0000      -0.663412       -18.0524
  38   2.0000      -0.643156       -17.5012
  39   2.0000      -0.611713       -16.6456
  40   2.0000      -0.591007       -16.0821
  41   2.0000      -0.567355       -15.4385
  42   2.0000      -0.558372       -15.1941
  43   2.0000      -0.548134       -14.9155
  44   2.0000      -0.536605       -14.6018
  45   2.0000      -0.524530       -14.2732
  46   2.0000      -0.513429       -13.9711
  47   2.0000      -0.508269       -13.8307
  48   2.0000      -0.501828       -13.6554
  49   2.0000      -0.500351       -13.6152
  50   2.0000      -0.488660       -13.2971
  51   2.0000      -0.476131       -12.9562
  52   2.0000      -0.471176       -12.8213
  53   2.0000      -0.465417       -12.6646
  54   2.0000      -0.456012       -12.4087
  55   2.0000      -0.452552       -12.3146
  56   2.0000      -0.447036       -12.1645
  57   2.0000      -0.442351       -12.0370
  58   2.0000      -0.435874       -11.8607
  59   2.0000      -0.425800       -11.5866
  60   2.0000      -0.420165       -11.4333
  61   2.0000      -0.416417       -11.3313
  62   2.0000      -0.407316       -11.0836
  63   2.0000      -0.349789        -9.5183
  64   2.0000      -0.332038        -9.0352
  65   2.0000      -0.330528        -8.9941
  66   2.0000      -0.283279        -7.7084
  67   0.0000       0.028705         0.7811
  68   0.0000       0.077935         2.1207
  69   0.0000       0.111304         3.0287
  70   0.0000       0.113786         3.0963
  71   0.0000       0.133477         3.6321

MULLIKEN ATOMIC CHARGES
-----------------------
   0 S :    0.141334
   1 C :   -0.136613
   2 C :   -0.096468
   3 C :    0.023351
   4 C :   -0.164507
   5 H :    0.024025
   6 C :    0.084135
   7 H :   -0.004461
   8 H :    0.025969
   9 C :   -0.012918
  10 H :    0.035149
  11 H :    0.005669
  12 C :   -0.053057
  13 H :    0.024885
  14 H :    0.032727
  15 H :    0.025286
  16 S :    0.119503
  17 C :   -0.112128
  18 C :   -0.029235
  19 C :   -0.055221
  20 C :   -0.163620
  21 H :    0.021240
  22 C :    0.097733
  23 H :   -0.001893
  24 H :    0.027341
  25 C :   -0.111483
  26 H :    0.035241
  27 H :    0.029750
  28 C :   -0.009796
  29 H :    0.036762
  30 H :    0.011597
  31 H :    0.026775
  32 H :    0.060580
  33 H :    0.062347
Sum of atomic charges:   -0.0000000

LOEWDIN ATOMIC CHARGES
----------------------
   0 S :    0.440900
   1 C :   -0.220921
   2 C :   -0.059333
   3 C :   -0.056328
   4 C :   -0.205167
   5 H :    0.029760
   6 C :   -0.033583
   7 H :    0.022314
   8 H :    0.031547
   9 C :   -0.017736
  10 H :    0.028979
  11 H :    0.011471
  12 C :   -0.063112
  13 H :    0.019543
  14 H :    0.021290
  15 H :    0.029325
  16 S :    0.425013
  17 C :   -0.194374
  18 C :   -0.066366
  19 C :   -0.054902
  20 C :   -0.218305
  21 H :    0.033077
  22 C :   -0.034687
  23 H :    0.018008
  24 H :    0.033254
  25 C :   -0.041276
  26 H :    0.025107
  27 H :    0.025968
  28 C :   -0.061855
  29 H :    0.029688
  30 H :    0.012912
  31 H :    0.027397
  32 H :    0.030566
  33 H :    0.031825

  Mayer bond orders larger than 0.100000
B(  0-S ,  1-C ) :   1.1508 B(  0-S ,  4-C ) :   1.1656 B(  1-C ,  2-C ) :   1.5959
B(  1-C , 32-H ) :   0.9645 B(  2-C ,  3-C ) :   1.2184 B(  2-C ,  6-C ) :   1.0327
B(  3-C ,  4-C ) :   1.5641 B(  3-C ,  5-H ) :   0.9863 B(  4-C , 20-C ) :   1.0550
B(  6-C ,  7-H ) :   0.9380 B(  6-C ,  8-H ) :   0.9371 B(  6-C ,  9-C ) :   1.0502
B(  9-C , 10-H ) :   0.9602 B(  9-C , 11-H ) :   0.9555 B(  9-C , 12-C ) :   1.0804
B( 12-C , 13-H ) :   0.9770 B( 12-C , 14-H ) :   0.9798 B( 12-C , 15-H ) :   0.9728
B( 16-S , 17-C ) :   1.1608 B( 16-S , 20-C ) :   1.1569 B( 17-C , 18-C ) :   1.6079
B( 17-C , 33-H ) :   0.9619 B( 18-C , 19-C ) :   1.2381 B( 18-C , 21-H ) :   0.9969
B( 19-C , 20-C ) :   1.5669 B( 19-C , 22-C ) :   1.0465 B( 22-C , 23-H ) :   0.9323
B( 22-C , 24-H ) :   0.9290 B( 22-C , 25-C ) :   1.0821 B( 25-C , 26-H ) :   0.9543
B( 25-C , 27-H ) :   0.9568 B( 25-C , 28-C ) :   1.0687 B( 28-C , 29-H ) :   0.9743
B( 28-C , 30-H ) :   0.9732 B( 28-C , 31-H ) :   0.9717

Dispersion correction           -0.015123526
FINAL SINGLE POINT ENERGY     -1339.865769067426

DIPOLE MOMENT
-------------
                                X             Y             Z
Electronic contribution:    -12.98693      17.39212     -11.13925
Nuclear contribution   :     13.15334     -17.72900      11.38138
                        -----------------------------------------
Total Dipole Moment    :      0.16641      -0.33689       0.24213
                        -----------------------------------------
Magnitude (a.u.)       :      0.44700
Magnitude (Debye)      :      1.13618

Rotational constants in cm-1:     0.022454     0.007793     0.006870
Rotational constants in MHz :   673.164021   233.630547   205.963730

                             ****ORCA TERMINATED NORMALLY****
TOTAL RUN TIME: 0 days 0 hours 0 minutes 34 seconds 822 msec
