                         Program Version 4.2.1 -  RELEASE  -
|  1> ! wB97X-D3 SP def2-SVP
|  2> %pal
|  3> nprocs 16
|  4> end
|  5>
|  6> * xyz 0 1
|  7> S 	 4.3738 	 -16.7138 	 84.8539
|  8> C 	 2.86369 	 -17.1299 	 85.6487
|  9> C 	 2.98735 	 -17.2671 	 87.0477
| 10> C 	 4.31335 	 -16.8706 	 87.4982
| 11> C 	 5.16483 	 -16.5576 	 86.4579
| 12> H 	 4.59055 	 -16.7985 	 88.5
| 13> C 	 1.93178 	 -17.6808 	 88.0698
| 14> H 	 1.17447 	 -16.886 	 88.0549
| 15> H 	 2.30842 	 -17.7164 	 89.1201
| 16> C 	 1.26981 	 -19.1108 	 87.7225
| 17> H 	 0.648179 	 -18.9204 	 86.8568
| 18> H 	 2.106 	 -19.7175 	 87.6476
| 19> C 	 0.421115 	 -19.6494 	 88.9225
| 20> H 	 0.67508 	 -19.217 	 89.8478
| 21> H 	 -0.650267 	 -19.3814 	 88.909
| 22> H 	 0.497497 	 -20.7547 	 88.928
| 23> S 	 6.70966 	 -14.3786 	 86.8935
| 24> C 	 8.43557 	 -14.5208 	 86.6369
| 25> C 	 8.78018 	 -15.6738 	 86.0732
| 26> C 	 7.69221 	 -16.6482 	 86.0719
| 27> C 	 6.55926 	 -16.0472 	 86.5248
| 28> H 	 9.81354 	 -15.934 	 85.8424
| 29> C 	 7.78865 	 -18.0662 	 85.5719
| 30> H 	 6.83636 	 -18.4531 	 85.7163
| 31> H 	 8.48808 	 -18.5061 	 86.2954
| 32> C 	 8.04554 	 -18.2034 	 84.0994
| 33> H 	 9.03738 	 -17.8427 	 83.8544
| 34> H 	 7.25534 	 -17.5246 	 83.5875
| 35> C 	 8.12001 	 -19.7171 	 83.5983
| 36> H 	 8.8815 	 -20.3194 	 84.0933
| 37> H 	 8.26793 	 -19.8067 	 82.5235
| 38> H 	 7.07165 	 -20.1469 	 83.7226
| 39> H 	 1.87536 	 -17.3201 	 85.1488
| 40> H 	 9.11069 	 -13.7711 	 87.033
| 41> *
| 42>
| 43>                          ****END OF INPUT****

CARTESIAN COORDINATES (ANGSTROEM)
---------------------------------
  S      4.373800  -16.713800   84.853900
  C      2.863690  -17.129900   85.648700
  C      2.987350  -17.267100   87.047700
  C      4.313350  -16.870600   87.498200
  C      5.164830  -16.557600   86.457900
  H      4.590550  -16.798500   88.500000
  C      1.931780  -17.680800   88.069800
  H      1.174470  -16.886000   88.054900
  H      2.308420  -17.716400   89.120100
  C      1.269810  -19.110800   87.722500
  H      0.648179  -18.920400   86.856800
  H      2.106000  -19.717500   87.647600
  C      0.421115  -19.649400   88.922500
  H      0.675080  -19.217000   89.847800
  H     -0.650267  -19.381400   88.909000
  H      0.497497  -20.754700   88.928000
  S      6.709660  -14.378600   86.893500
  C      8.435570  -14.520800   86.636900
  C      8.780180  -15.673800   86.073200
  C      7.692210  -16.648200   86.071900
  C      6.559260  -16.047200   86.524800
  H      9.813540  -15.934000   85.842400
  C      7.788650  -18.066200   85.571900
  H      6.836360  -18.453100   85.716300
  H      8.488080  -18.506100   86.295400
  C      8.045540  -18.203400   84.099400
  H      9.037380  -17.842700   83.854400
  H      7.255340  -17.524600   83.587500
  C      8.120010  -19.717100   83.598300
  H      8.881500  -20.319400   84.093300
  H      8.267930  -19.806700   82.523500
  H      7.071650  -20.146900   83.722600
  H      1.875360  -17.320100   85.148800
  H      9.110690  -13.771100   87.033000

 Total Charge           Charge          ....    0
 Multiplicity           Mult            ....    1
 Number of Electrons    NEL             ....  134
 Basis Dimension        Dim             ....  322

ORBITAL ENERGIES
----------------

  NO   OCC          E(Eh)            E(eV)
   0   2.0000     -88.969595     -2420.9858
   1   2.0000     -88.959036     -2420.6984
   2   2.0000     -10.330096      -281.0962
   3   2.0000     -10.320476      -280.8344
   4   2.0000     -10.316663      -280.7307
   5   2.0000     -10.310174      -280.5541
   6   2.0000     -10.305861      -280.4367
   7   2.0000     -10.299202      -280.2555
   8   2.0000     -10.297303      -280.2039
   9   2.0000     -10.293919      -280.1118
  10   2.0000     -10.292817      -280.0818
  11   2.0000     -10.290061      -280.0068
  12   2.0000     -10.289384      -279.9884
  13   2.0000     -10.285145      -279.8730
  14   2.0000     -10.281425      -279.7718
  15   2.0000     -10.279455      -279.7182
  16   2.0000      -8.082879      -219.9463
  17   2.0000      -8.075059      -219.7335
  18   2.0000      -6.041495      -164.3974
  19   2.0000      -6.037671      -164.2934
  20   2.0000      -6.033559      -164.1815
  21   2.0000      -6.033511      -164.1802
  22   2.0000      -6.029666      -164.0756
  23   2.0000      -6.025513      -163.9625
  24   2.0000      -1.007131       -27.4054
  25   2.0000      -0.977775       -26.6066
  26   2.0000      -0.909813       -24.7573
  27   2.0000      -0.900885       -24.5143
  28   2.0000      -0.864818       -23.5329
  29   2.0000      -0.847569       -23.0635
  30   2.0000      -0.842792       -22.9335
  31   2.0000      -0.813604       -22.1393
  32   2.0000      -0.779946       -21.2234
  33   2.0000      -0.765706       -20.8359
  34   2.0000      -0.707426       -19.2500
  35   2.0000      -0.697937       -18.9918
  36   2.0000      -0.690238       -18.7823
  37   2.0000      -0.658153       -17.9093
  38   2.0000      -0.638338       -17.3701
  39   2.0000      -0.612813       -16.6755
  40   2.0000      -0.596751       -16.2384
  41   2.0000      -0.572736       -15.5849
  42   2.0000      -0.567670       -15.4471
  43   2.0000      -0.557157       -15.1610
  44   2.0000      -0.523957       -14.2576
  45   2.0000      -0.519840       -14.1456
  46   2.0000      -0.518124       -14.0989
  47   2.0000      -0.512253       -13.9391
  48   2.0000      -0.500262       -13.6128
  49   2.0000      -0.497631       -13.5412
  50   2.0000      -0.485180       -13.2024
  51   2.0000      -0.471930       -12.8419
  52   2.0000      -0.466944       -12.7062
  53   2.0000      -0.460630       -12.5344
  54   2.0000      -0.456051       -12.4098
  55   2.0000      -0.447758       -12.1841
  56   2.0000      -0.446754       -12.1568
  57   2.0000      -0.438211       -11.9243
  58   2.0000      -0.432757       -11.7759
  59   2.0000      -0.428698       -11.6655
  60   2.0000      -0.422411       -11.4944
  61   2.0000      -0.415067       -11.2945
  62   2.0000      -0.407126       -11.0785
  63   2.0000      -0.336373        -9.1532
  64   2.0000      -0.334699        -9.1076
  65   2.0000      -0.317937        -8.6515
  66   2.0000      -0.305284        -8.3072
  67   0.0000       0.042851         1.1660
  68   0.0000       0.063521         1.7285
  69   0.0000       0.103217         2.8087
  70   0.0000       0.118945         3.2367
  71   0.0000       0.126504         3.4424

MULLIKEN ATOMIC CHARGES
-----------------------
   0 S :    0.117136
   1 C :   -0.141927
   2 C :   -0.085696
   3 C :    0.064682
   4 C :   -0.178370
   5 H :   -0.008253
   6 C :    0.008464
   7 H :    0.042890
   8 H :    0.029382
   9 C :   -0.055767
  10 H :    0.043141
  11 H :    0.033158
  12 C :   -0.049895
  13 H :    0.013740
  14 H :    0.028995
  15 H :    0.045182
  16 S :    0.109668
  17 C :   -0.095000
  18 C :   -0.008458
  19 C :   -0.092250
  20 C :   -0.161877
  21 H :    0.019785
  22 C :    0.142671
  23 H :   -0.000207
  24 H :    0.034681
  25 C :   -0.104134
  26 H :    0.024432
  27 H :    0.048953
  28 C :   -0.067102
  29 H :    0.042529
  30 H :    0.036739
  31 H :    0.038990
  32 H :    0.064508
  33 H :    0.059211
Sum of atomic charges:   -0.0000000

LOEWDIN ATOMIC CHARGES
----------------------
   0 S :    0.388812
   1 C :   -0.209971
   2 C :   -0.061501
   3 C :   -0.049308
   4 C :   -0.181076
   5 H :    0.023337
   6 C :   -0.036480
   7 H :    0.031577
   8 H :    0.029671
   9 C :   -0.023213
  10 H :    0.025854
  11 H :    0.018581
  12 C :   -0.070970
  13 H :    0.016170
  14 H :    0.028827
  15 H :    0.031949
  16 S :    0.407666
  17 C :   -0.176569
  18 C :   -0.069392
  19 C :   -0.054273
  20 C :   -0.216044
  21 H :    0.032183
  22 C :   -0.032120
  23 H :    0.019496
  24 H :    0.036611
  25 C :   -0.040942
  26 H :    0.016795
  27 H :    0.036074
  28 C :   -0.071401
  29 H :    0.026543
  30 H :    0.025532
  31 H :    0.031385
  32 H :    0.037157
  33 H :    0.029039

  Mayer bond orders larger than 0.100000
B(  0-S ,  1-C ) :   1.1340 B(  0-S ,  4-C ) :   1.1317 B(  1-C ,  2-C ) :   1.6237
B(  1-C , 32-H ) :   0.9597 B(  2-C ,  3-C ) :   1.2215 B(  2-C ,  6-C ) :   1.0193
B(  3-C ,  4-C ) :   1.6087 B(  3-C ,  5-H ) :   1.0033 B(  4-C , 20-C ) :   0.9861
B(  6-C ,  7-H ) :   0.9407 B(  6-C ,  8-H ) :   0.9513 B(  6-C ,  9-C ) :   1.0516
B(  9-C , 10-H ) :   0.9595 B(  9-C , 11-H ) :   0.9676 B(  9-C , 12-C ) :   1.0757
B( 12-C , 13-H ) :   0.9750 B( 12-C , 14-H ) :   0.9741 B( 12-C , 15-H ) :   0.9796
B( 16-S , 17-C ) :   1.1316 B( 16-S , 20-C ) :   1.1499 B( 17-C , 18-C ) :   1.6542
B( 17-C , 33-H ) :   0.9674 B( 18-C , 19-C ) :   1.1955 B( 18-C , 21-H ) :   0.9878
B( 19-C , 20-C ) :   1.6460 B( 19-C , 22-C ) :   1.0461 B( 22-C , 23-H ) :   0.9169
B( 22-C , 24-H ) :   0.9239 B( 22-C , 25-C ) :   1.0617 B( 25-C , 26-H ) :   0.9582
B( 25-C , 27-H ) :   0.9502 B( 25-C , 28-C ) :   1.0709 B( 28-C , 29-H ) :   0.9754
B( 28-C , 30-H ) :   0.9771 B( 28-C , 31-H ) :   0.9768

Dispersion correction           -0.014115329
FINAL SINGLE POINT ENERGY     -1339.862621722086

DIPOLE MOMENT
-------------
                                X             Y             Z
Electronic contribution:      7.62208      21.85183      -2.17548
Nuclear contribution   :     -7.64744     -22.23194       2.43998
                        -----------------------------------------
Total Dipole Moment    :     -0.02536      -0.38012       0.26450
                        -----------------------------------------
Magnitude (a.u.)       :      0.46378
Magnitude (Debye)      :      1.17884

Rotational constants in cm-1:     0.019891     0.007572     0.006263
Rotational constants in MHz :   596.311827   226.996138   187.766442

                             ****ORCA TERMINATED NORMALLY****
TOTAL RUN TIME: 0 days 0 hours 0 minutes 32 seconds 459 msec
