                         Program Version 4.2.1 -  RELEASE  -
|  1> ! wB97X-D3 SP def2-SVP
|  2> %pal
|  3> nprocs 16
|  4> end
|  5>
|  6> * xyz 0 1
|  7> S 	 -13.391 	 -5.61946 	 77.7189
|  8> C 	 -11.9278 	 -4.91554 	 78.3617
|  9> C 	 -11.4263 	 -5.71867 	 79.3623
| 10> C 	 -12.2723 	 -6.86952 	 79.6851
| 11> C 	 -13.4326 	 -6.88288 	 78.9213
| 12> H 	 -12.0921 	 -7.64243 	 80.4422
| 13> C 	 -10.2302 	 -5.45872 	 80.2243
| 14> H 	 -9.38088 	 -5.42792 	 79.5576
| 15> H 	 -10.1426 	 -6.2604 	 80.8939
| 16> C 	 -10.2432 	 -4.11788 	 80.9311
| 17> H 	 -10.1132 	 -3.27347 	 80.1755
| 18> H 	 -11.2478 	 -3.94677 	 81.3587
| 19> C 	 -9.22962 	 -3.85101 	 82.0883
| 20> H 	 -8.24327 	 -3.82652 	 81.7963
| 21> H 	 -9.54296 	 -2.99017 	 82.676
| 22> H 	 -9.35757 	 -4.7026 	 82.8535
| 23> S 	 -15.8806 	 -6.60517 	 80.0578
| 24> C 	 -16.8573 	 -8.03422 	 80.4431
| 25> C 	 -16.3465 	 -9.12364 	 79.7878
| 26> C 	 -15.0897 	 -8.87967 	 79.1652
| 27> C 	 -14.659 	 -7.56626 	 79.2343
| 28> H 	 -16.9652 	 -10.0192 	 79.7664
| 29> C 	 -14.3259 	 -9.99674 	 78.4863
| 30> H 	 -13.2251 	 -9.76072 	 78.379
| 31> H 	 -14.6342 	 -9.95712 	 77.4279
| 32> C 	 -14.5047 	 -11.441 	 79.1218
| 33> H 	 -14.0884 	 -12.1511 	 78.4145
| 34> H 	 -15.5412 	 -11.8066 	 79.1008
| 35> C 	 -13.8226 	 -11.6159 	 80.5298
| 36> H 	 -14.2458 	 -10.9605 	 81.2434
| 37> H 	 -12.7095 	 -11.353 	 80.4661
| 38> H 	 -13.9577 	 -12.6122 	 80.8133
| 39> H 	 -11.4065 	 -4.07648 	 77.9633
| 40> H 	 -17.7872 	 -8.01264 	 80.9966
| 41> *
| 42>
| 43>                          ****END OF INPUT****

CARTESIAN COORDINATES (ANGSTROEM)
---------------------------------
  S    -13.391000   -5.619460   77.718900
  C    -11.927800   -4.915540   78.361700
  C    -11.426300   -5.718670   79.362300
  C    -12.272300   -6.869520   79.685100
  C    -13.432600   -6.882880   78.921300
  H    -12.092100   -7.642430   80.442200
  C    -10.230200   -5.458720   80.224300
  H     -9.380880   -5.427920   79.557600
  H    -10.142600   -6.260400   80.893900
  C    -10.243200   -4.117880   80.931100
  H    -10.113200   -3.273470   80.175500
  H    -11.247800   -3.946770   81.358700
  C     -9.229620   -3.851010   82.088300
  H     -8.243270   -3.826520   81.796300
  H     -9.542960   -2.990170   82.676000
  H     -9.357570   -4.702600   82.853500
  S    -15.880600   -6.605170   80.057800
  C    -16.857300   -8.034220   80.443100
  C    -16.346500   -9.123640   79.787800
  C    -15.089700   -8.879670   79.165200
  C    -14.659000   -7.566260   79.234300
  H    -16.965200  -10.019200   79.766400
  C    -14.325900   -9.996740   78.486300
  H    -13.225100   -9.760720   78.379000
  H    -14.634200   -9.957120   77.427900
  C    -14.504700  -11.441000   79.121800
  H    -14.088400  -12.151100   78.414500
  H    -15.541200  -11.806600   79.100800
  C    -13.822600  -11.615900   80.529800
  H    -14.245800  -10.960500   81.243400
  H    -12.709500  -11.353000   80.466100
  H    -13.957700  -12.612200   80.813300
  H    -11.406500   -4.076480   77.963300
  H    -17.787200   -8.012640   80.996600

 Total Charge           Charge          ....    0
 Multiplicity           Mult            ....    1
 Number of Electrons    NEL             ....  134
 Basis Dimension        Dim             ....  322

ORBITAL ENERGIES
----------------

  NO   OCC          E(Eh)            E(eV)
   0   2.0000     -88.963691     -2420.8251
   1   2.0000     -88.959657     -2420.7153
   2   2.0000     -10.327691      -281.0308
   3   2.0000     -10.323020      -280.9037
   4   2.0000     -10.317943      -280.7655
   5   2.0000     -10.312001      -280.6038
   6   2.0000     -10.303343      -280.3682
   7   2.0000     -10.301359      -280.3142
   8   2.0000     -10.298924      -280.2480
   9   2.0000     -10.297482      -280.2087
  10   2.0000     -10.293118      -280.0900
  11   2.0000     -10.292268      -280.0669
  12   2.0000     -10.291368      -280.0424
  13   2.0000     -10.283713      -279.8341
  14   2.0000     -10.280158      -279.7373
  15   2.0000     -10.278306      -279.6869
  16   2.0000      -8.078675      -219.8319
  17   2.0000      -8.074224      -219.7108
  18   2.0000      -6.037238      -164.2816
  19   2.0000      -6.032996      -164.1662
  20   2.0000      -6.032810      -164.1611
  21   2.0000      -6.029513      -164.0714
  22   2.0000      -6.028709      -164.0495
  23   2.0000      -6.024928      -163.9466
  24   2.0000      -1.005802       -27.3693
  25   2.0000      -0.982081       -26.7238
  26   2.0000      -0.912716       -24.8363
  27   2.0000      -0.896504       -24.3951
  28   2.0000      -0.870657       -23.6918
  29   2.0000      -0.845797       -23.0153
  30   2.0000      -0.841426       -22.8964
  31   2.0000      -0.815792       -22.1988
  32   2.0000      -0.782216       -21.2852
  33   2.0000      -0.771425       -20.9915
  34   2.0000      -0.709683       -19.3114
  35   2.0000      -0.701717       -19.0947
  36   2.0000      -0.694863       -18.9082
  37   2.0000      -0.655219       -17.8294
  38   2.0000      -0.643851       -17.5201
  39   2.0000      -0.612771       -16.6744
  40   2.0000      -0.593854       -16.1596
  41   2.0000      -0.570543       -15.5253
  42   2.0000      -0.563537       -15.3346
  43   2.0000      -0.551265       -15.0007
  44   2.0000      -0.530048       -14.4233
  45   2.0000      -0.524023       -14.2594
  46   2.0000      -0.518137       -14.0992
  47   2.0000      -0.515245       -14.0205
  48   2.0000      -0.508306       -13.8317
  49   2.0000      -0.506177       -13.7738
  50   2.0000      -0.490543       -13.3484
  51   2.0000      -0.476020       -12.9532
  52   2.0000      -0.471912       -12.8414
  53   2.0000      -0.460676       -12.5356
  54   2.0000      -0.458858       -12.4862
  55   2.0000      -0.445748       -12.1294
  56   2.0000      -0.442091       -12.0299
  57   2.0000      -0.433347       -11.7920
  58   2.0000      -0.432661       -11.7733
  59   2.0000      -0.424565       -11.5530
  60   2.0000      -0.416303       -11.3282
  61   2.0000      -0.414954       -11.2915
  62   2.0000      -0.410710       -11.1760
  63   2.0000      -0.341095        -9.2817
  64   2.0000      -0.323032        -8.7901
  65   2.0000      -0.322490        -8.7754
  66   2.0000      -0.302022        -8.2184
  67   0.0000       0.039329         1.0702
  68   0.0000       0.055061         1.4983
  69   0.0000       0.117613         3.2004
  70   0.0000       0.123069         3.3489
  71   0.0000       0.135543         3.6883

MULLIKEN ATOMIC CHARGES
-----------------------
   0 S :    0.111291
   1 C :   -0.110719
   2 C :   -0.120817
   3 C :    0.046357
   4 C :   -0.184287
   5 H :    0.026096
   6 C :    0.156214
   7 H :    0.026146
   8 H :   -0.002856
   9 C :   -0.134453
  10 H :    0.030623
  11 H :    0.034119
  12 C :   -0.035561
  13 H :    0.026712
  14 H :    0.039710
  15 H :    0.027003
  16 S :    0.102851
  17 C :   -0.100530
  18 C :   -0.036752
  19 C :   -0.016136
  20 C :   -0.156660
  21 H :    0.025335
  22 C :    0.033538
  23 H :    0.035108
  24 H :    0.044040
  25 C :   -0.090816
  26 H :    0.021761
  27 H :    0.026435
  28 C :   -0.026022
  29 H :    0.034145
  30 H :    0.038841
  31 H :    0.028932
  32 H :    0.040819
  33 H :    0.059531
Sum of atomic charges:   -0.0000000

LOEWDIN ATOMIC CHARGES
----------------------
   0 S :    0.410174
   1 C :   -0.196365
   2 C :   -0.058672
   3 C :   -0.055165
   4 C :   -0.204004
   5 H :    0.036647
   6 C :   -0.029777
   7 H :    0.033501
   8 H :    0.020429
   9 C :   -0.045452
  10 H :    0.025257
  11 H :    0.025758
  12 C :   -0.062530
  13 H :    0.010608
  14 H :    0.030887
  15 H :    0.031442
  16 S :    0.393945
  17 C :   -0.171857
  18 C :   -0.077363
  19 C :   -0.058319
  20 C :   -0.205282
  21 H :    0.034924
  22 C :   -0.039321
  23 H :    0.036685
  24 H :    0.039137
  25 C :   -0.044180
  26 H :    0.023642
  27 H :    0.021950
  28 C :   -0.056714
  29 H :    0.019923
  30 H :    0.034650
  31 H :    0.018906
  32 H :    0.025796
  33 H :    0.030741

  Mayer bond orders larger than 0.100000
B(  0-S ,  1-C ) :   1.1288 B(  0-S ,  4-C ) :   1.1623 B(  1-C ,  2-C ) :   1.6096
B(  1-C , 32-H ) :   0.9764 B(  2-C ,  3-C ) :   1.2299 B(  2-C ,  6-C ) :   1.0365
B(  3-C ,  4-C ) :   1.5811 B(  3-C ,  5-H ) :   0.9896 B(  4-C , 20-C ) :   1.0153
B(  6-C ,  7-H ) :   0.9224 B(  6-C ,  8-H ) :   0.9374 B(  6-C ,  9-C ) :   1.0648
B(  9-C , 10-H ) :   0.9505 B(  9-C , 11-H ) :   0.9616 B(  9-C , 12-C ) :   1.0844
B( 12-C , 13-H ) :   0.9786 B( 12-C , 14-H ) :   0.9747 B( 12-C , 15-H ) :   0.9737
B( 16-S , 17-C ) :   1.1566 B( 16-S , 20-C ) :   1.1299 B( 17-C , 18-C ) :   1.6140
B( 17-C , 33-H ) :   0.9666 B( 18-C , 19-C ) :   1.2261 B( 18-C , 21-H ) :   0.9896
B( 19-C , 20-C ) :   1.6116 B( 19-C , 22-C ) :   1.0363 B( 22-C , 23-H ) :   0.9402
B( 22-C , 24-H ) :   0.9305 B( 22-C , 25-C ) :   1.0712 B( 25-C , 26-H ) :   0.9539
B( 25-C , 27-H ) :   0.9522 B( 25-C , 28-C ) :   1.0651 B( 28-C , 29-H ) :   0.9784
B( 28-C , 30-H ) :   0.9754 B( 28-C , 31-H ) :   0.9756

Dispersion correction           -0.014035430
FINAL SINGLE POINT ENERGY     -1339.874285432234

DIPOLE MOMENT
-------------
                                X             Y             Z
Electronic contribution:    -16.90012       9.37736     -11.32044
Nuclear contribution   :     17.16628      -9.77670      11.57168
                        -----------------------------------------
Total Dipole Moment    :      0.26616      -0.39933       0.25124
                        -----------------------------------------
Magnitude (a.u.)       :      0.54169
Magnitude (Debye)      :      1.37686

Rotational constants in cm-1:     0.020522     0.007256     0.006610
Rotational constants in MHz :   615.222575   217.517254   198.173594

                             ****ORCA TERMINATED NORMALLY****
TOTAL RUN TIME: 0 days 0 hours 0 minutes 32 seconds 734 msec
