                         Program Version 4.2.1 -  RELEASE  -
|  1> ! wB97X-D3 SP def2-SVP
|  2> %pal
|  3> nprocs 16
|  4> end
|  5>
|  6> * xyz 0 1
|  7> S 	 16.8643 	 -7.59746 	 82.5237
|  8> C 	 16.2449 	 -7.02431 	 80.9158
|  9> C 	 16.5411 	 -7.94316 	 79.9172
| 10> C 	 17.1129 	 -9.16163 	 80.4819
| 11> C 	 17.2151 	 -9.17776 	 81.89
| 12> H 	 17.3201 	 -10.0325 	 79.9724
| 13> C 	 16.4291 	 -7.86495 	 78.4067
| 14> H 	 17.3242 	 -8.24029 	 77.9213
| 15> H 	 16.4069 	 -6.79847 	 78.0671
| 16> C 	 15.3695 	 -8.78845 	 77.7752
| 17> H 	 15.4681 	 -9.80262 	 78.1742
| 18> H 	 14.4783 	 -8.50026 	 78.2307
| 19> C 	 15.167 	 -8.50087 	 76.2906
| 20> H 	 14.4927 	 -9.13654 	 75.8539
| 21> H 	 14.7222 	 -7.5234 	 76.0602
| 22> H 	 16.069 	 -8.55494 	 75.694
| 23> S 	 18.914 	 -10.1742 	 83.9829
| 24> C 	 19.0963 	 -11.8694 	 84.0377
| 25> C 	 18.35 	 -12.5497 	 83.1592
| 26> C 	 17.6055 	 -11.6862 	 82.3001
| 27> C 	 17.7727 	 -10.3149 	 82.6129
| 28> H 	 18.3532 	 -13.5933 	 83.0987
| 29> C 	 16.7445 	 -12.3296 	 81.1339
| 30> H 	 16.101 	 -11.5238 	 80.7341
| 31> H 	 16.0056 	 -13.0116 	 81.588
| 32> C 	 17.4784 	 -13.1753 	 80.0519
| 33> H 	 17.9413 	 -14.0103 	 80.5467
| 34> H 	 18.282 	 -12.6069 	 79.616
| 35> C 	 16.5388 	 -13.5523 	 78.8755
| 36> H 	 16.4007 	 -12.8478 	 78.0238
| 37> H 	 15.5576 	 -13.8238 	 79.2654
| 38> H 	 16.9945 	 -14.2761 	 78.191
| 39> H 	 15.896 	 -5.97642 	 80.9042
| 40> H 	 19.7364 	 -12.2976 	 84.7315
| 41> *
| 42>
| 43>                          ****END OF INPUT****

CARTESIAN COORDINATES (ANGSTROEM)
---------------------------------
  S     16.864300   -7.597460   82.523700
  C     16.244900   -7.024310   80.915800
  C     16.541100   -7.943160   79.917200
  C     17.112900   -9.161630   80.481900
  C     17.215100   -9.177760   81.890000
  H     17.320100  -10.032500   79.972400
  C     16.429100   -7.864950   78.406700
  H     17.324200   -8.240290   77.921300
  H     16.406900   -6.798470   78.067100
  C     15.369500   -8.788450   77.775200
  H     15.468100   -9.802620   78.174200
  H     14.478300   -8.500260   78.230700
  C     15.167000   -8.500870   76.290600
  H     14.492700   -9.136540   75.853900
  H     14.722200   -7.523400   76.060200
  H     16.069000   -8.554940   75.694000
  S     18.914000  -10.174200   83.982900
  C     19.096300  -11.869400   84.037700
  C     18.350000  -12.549700   83.159200
  C     17.605500  -11.686200   82.300100
  C     17.772700  -10.314900   82.612900
  H     18.353200  -13.593300   83.098700
  C     16.744500  -12.329600   81.133900
  H     16.101000  -11.523800   80.734100
  H     16.005600  -13.011600   81.588000
  C     17.478400  -13.175300   80.051900
  H     17.941300  -14.010300   80.546700
  H     18.282000  -12.606900   79.616000
  C     16.538800  -13.552300   78.875500
  H     16.400700  -12.847800   78.023800
  H     15.557600  -13.823800   79.265400
  H     16.994500  -14.276100   78.191000
  H     15.896000   -5.976420   80.904200
  H     19.736400  -12.297600   84.731500

 Total Charge           Charge          ....    0
 Multiplicity           Mult            ....    1
 Number of Electrons    NEL             ....  134
 Basis Dimension        Dim             ....  322

ORBITAL ENERGIES
----------------

  NO   OCC          E(Eh)            E(eV)
   0   2.0000     -88.967021     -2420.9157
   1   2.0000     -88.964572     -2420.8491
   2   2.0000     -10.333584      -281.1911
   3   2.0000     -10.332389      -281.1586
   4   2.0000     -10.324399      -280.9412
   5   2.0000     -10.310471      -280.5622
   6   2.0000     -10.309776      -280.5433
   7   2.0000     -10.308184      -280.4999
   8   2.0000     -10.300354      -280.2869
   9   2.0000     -10.294922      -280.1391
  10   2.0000     -10.293032      -280.0876
  11   2.0000     -10.289441      -279.9899
  12   2.0000     -10.286863      -279.9198
  13   2.0000     -10.286173      -279.9010
  14   2.0000     -10.283667      -279.8328
  15   2.0000     -10.274935      -279.5952
  16   2.0000      -8.082176      -219.9272
  17   2.0000      -8.078654      -219.8314
  18   2.0000      -6.040660      -164.3747
  19   2.0000      -6.037268      -164.2824
  20   2.0000      -6.036672      -164.2662
  21   2.0000      -6.033363      -164.1762
  22   2.0000      -6.032901      -164.1636
  23   2.0000      -6.029249      -164.0642
  24   2.0000      -1.003124       -27.2964
  25   2.0000      -0.979558       -26.6551
  26   2.0000      -0.913711       -24.8633
  27   2.0000      -0.903401       -24.5828
  28   2.0000      -0.871042       -23.7023
  29   2.0000      -0.852584       -23.2000
  30   2.0000      -0.845100       -22.9964
  31   2.0000      -0.809341       -22.0233
  32   2.0000      -0.786154       -21.3923
  33   2.0000      -0.776324       -21.1248
  34   2.0000      -0.713543       -19.4165
  35   2.0000      -0.707146       -19.2424
  36   2.0000      -0.698661       -19.0115
  37   2.0000      -0.662803       -18.0358
  38   2.0000      -0.643097       -17.4996
  39   2.0000      -0.620737       -16.8911
  40   2.0000      -0.602983       -16.4080
  41   2.0000      -0.572766       -15.5858
  42   2.0000      -0.564221       -15.3532
  43   2.0000      -0.556062       -15.1312
  44   2.0000      -0.530195       -14.4273
  45   2.0000      -0.522360       -14.2141
  46   2.0000      -0.518775       -14.1166
  47   2.0000      -0.514513       -14.0006
  48   2.0000      -0.505662       -13.7598
  49   2.0000      -0.496062       -13.4985
  50   2.0000      -0.486433       -13.2365
  51   2.0000      -0.484550       -13.1853
  52   2.0000      -0.478387       -13.0176
  53   2.0000      -0.467994       -12.7348
  54   2.0000      -0.466405       -12.6915
  55   2.0000      -0.450594       -12.2613
  56   2.0000      -0.444725       -12.1016
  57   2.0000      -0.439364       -11.9557
  58   2.0000      -0.432492       -11.7687
  59   2.0000      -0.425525       -11.5791
  60   2.0000      -0.423713       -11.5298
  61   2.0000      -0.412618       -11.2279
  62   2.0000      -0.408003       -11.1023
  63   2.0000      -0.355899        -9.6845
  64   2.0000      -0.334583        -9.1045
  65   2.0000      -0.326342        -8.8802
  66   2.0000      -0.284692        -7.7469
  67   0.0000       0.023444         0.6379
  68   0.0000       0.077415         2.1066
  69   0.0000       0.105217         2.8631
  70   0.0000       0.118113         3.2140
  71   0.0000       0.126832         3.4513

MULLIKEN ATOMIC CHARGES
-----------------------
   0 S :    0.083803
   1 C :   -0.163082
   2 C :   -0.017213
   3 C :    0.017558
   4 C :   -0.135080
   5 H :   -0.019534
   6 C :    0.036409
   7 H :    0.024950
   8 H :    0.027860
   9 C :   -0.052610
  10 H :    0.031505
  11 H :    0.007507
  12 C :   -0.001452
  13 H :    0.010959
  14 H :    0.027775
  15 H :    0.021152
  16 S :    0.110300
  17 C :   -0.056027
  18 C :    0.003641
  19 C :   -0.049446
  20 C :   -0.132011
  21 H :   -0.003778
  22 C :    0.000292
  23 H :    0.034658
  24 H :    0.033472
  25 C :   -0.024464
  26 H :    0.030060
  27 H :    0.026376
  28 C :   -0.072630
  29 H :    0.032205
  30 H :    0.039063
  31 H :    0.029319
  32 H :    0.067422
  33 H :    0.031044
Sum of atomic charges:    0.0000000

LOEWDIN ATOMIC CHARGES
----------------------
   0 S :    0.376427
   1 C :   -0.181616
   2 C :   -0.053725
   3 C :   -0.053973
   4 C :   -0.189062
   5 H :    0.013428
   6 C :   -0.034783
   7 H :    0.030805
   8 H :    0.033033
   9 C :   -0.039149
  10 H :    0.027232
  11 H :    0.017973
  12 C :   -0.057097
  13 H :    0.016406
  14 H :    0.032484
  15 H :    0.022351
  16 S :    0.405925
  17 C :   -0.175124
  18 C :   -0.068497
  19 C :   -0.046335
  20 C :   -0.191508
  21 H :    0.024193
  22 C :   -0.039240
  23 H :    0.029083
  24 H :    0.032032
  25 C :   -0.035779
  26 H :    0.022844
  27 H :    0.022714
  28 C :   -0.077807
  29 H :    0.032348
  30 H :    0.024585
  31 H :    0.031604
  32 H :    0.032582
  33 H :    0.015647

  Mayer bond orders larger than 0.100000
B(  0-S ,  1-C ) :   1.1168 B(  0-S ,  4-C ) :   1.1453 B(  1-C ,  2-C ) :   1.6007
B(  1-C , 32-H ) :   0.9726 B(  2-C ,  3-C ) :   1.2198 B(  2-C ,  6-C ) :   1.0304
B(  3-C ,  4-C ) :   1.5524 B(  3-C ,  5-H ) :   1.0011 B(  4-C , 20-C ) :   1.0858
B(  6-C ,  7-H ) :   0.9408 B(  6-C ,  8-H ) :   0.9488 B(  6-C ,  9-C ) :   1.0451
B(  9-C , 10-H ) :   0.9564 B(  9-C , 11-H ) :   0.9484 B(  9-C , 12-C ) :   1.0789
B( 12-C , 13-H ) :   0.9706 B( 12-C , 14-H ) :   0.9711 B( 12-C , 15-H ) :   0.9753
B( 16-S , 17-C ) :   1.1637 B( 16-S , 20-C ) :   1.1227 B( 17-C , 18-C ) :   1.6032
B( 17-C , 33-H ) :   0.9724 B( 18-C , 19-C ) :   1.2455 B( 18-C , 21-H ) :   1.0055
B( 19-C , 20-C ) :   1.5895 B( 19-C , 22-C ) :   1.0295 B( 22-C , 23-H ) :   0.9431
B( 22-C , 24-H ) :   0.9340 B( 22-C , 25-C ) :   1.0529 B( 25-C , 26-H ) :   0.9535
B( 25-C , 27-H ) :   0.9569 B( 25-C , 28-C ) :   1.0750 B( 28-C , 29-H ) :   0.9720
B( 28-C , 30-H ) :   0.9770 B( 28-C , 31-H ) :   0.9680

Dispersion correction           -0.014186681
FINAL SINGLE POINT ENERGY     -1339.857238948094

DIPOLE MOMENT
-------------
                                X             Y             Z
Electronic contribution:     10.88959      12.15124      31.43598
Nuclear contribution   :    -10.96855     -12.61622     -32.14284
                        -----------------------------------------
Total Dipole Moment    :     -0.07897      -0.46498      -0.70686
                        -----------------------------------------
Magnitude (a.u.)       :      0.84976
Magnitude (Debye)      :      2.15992

Rotational constants in cm-1:     0.016532     0.009706     0.006343
Rotational constants in MHz :   495.629770   290.976661   190.161870

                             ****ORCA TERMINATED NORMALLY****
TOTAL RUN TIME: 0 days 0 hours 0 minutes 30 seconds 421 msec
