                         Program Version 4.2.1 -  RELEASE  -
|  1> ! wB97X-D3 SP def2-SVP
|  2> %pal
|  3> nprocs 16
|  4> end
|  5>
|  6> * xyz 0 1
|  7> S 	 -94.3734 	 58.9608 	 124.56
|  8> C 	 -93.896 	 57.9604 	 123.179
|  9> C 	 -93.0109 	 57.0248 	 123.536
| 10> C 	 -92.564 	 57.1308 	 124.865
| 11> C 	 -93.2219 	 58.1018 	 125.533
| 12> H 	 -91.7729 	 56.6144 	 125.404
| 13> C 	 -92.4653 	 56.0369 	 122.535
| 14> H 	 -91.4086 	 55.8268 	 122.792
| 15> H 	 -92.5455 	 56.4435 	 121.504
| 16> C 	 -93.1539 	 54.6886 	 122.632
| 17> H 	 -93.086 	 54.3246 	 123.663
| 18> H 	 -94.2122 	 54.7872 	 122.348
| 19> C 	 -92.6347 	 53.6373 	 121.605
| 20> H 	 -92.7128 	 52.6833 	 122.127
| 21> H 	 -93.2542 	 53.5424 	 120.695
| 22> H 	 -91.5977 	 53.7587 	 121.233
| 23> S 	 -94.869 	 58.2543 	 127.743
| 24> C 	 -94.0897 	 58.1923 	 129.297
| 25> C 	 -92.7432 	 58.4736 	 129.218
| 26> C 	 -92.2091 	 58.336 	 127.891
| 27> C 	 -93.2519 	 58.2797 	 126.958
| 28> H 	 -92.3183 	 58.5722 	 130.158
| 29> C 	 -90.7661 	 58.3491 	 127.601
| 30> H 	 -90.5237 	 57.4497 	 127.04
| 31> H 	 -90.2642 	 58.1281 	 128.575
| 32> C 	 -90.1992 	 59.557 	 126.889
| 33> H 	 -90.2758 	 60.4569 	 127.557
| 34> H 	 -90.8903 	 59.6888 	 126.074
| 35> C 	 -88.7263 	 59.4072 	 126.41
| 36> H 	 -87.9962 	 59.4709 	 127.252
| 37> H 	 -88.5 	 60.1492 	 125.641
| 38> H 	 -88.4401 	 58.5162 	 125.88
| 39> H 	 -94.4481 	 57.9211 	 122.265
| 40> H 	 -94.6322 	 58.2548 	 130.197
| 41> *
| 42>
| 43>                          ****END OF INPUT****

CARTESIAN COORDINATES (ANGSTROEM)
---------------------------------
  S    -94.373400   58.960800  124.560000
  C    -93.896000   57.960400  123.179000
  C    -93.010900   57.024800  123.536000
  C    -92.564000   57.130800  124.865000
  C    -93.221900   58.101800  125.533000
  H    -91.772900   56.614400  125.404000
  C    -92.465300   56.036900  122.535000
  H    -91.408600   55.826800  122.792000
  H    -92.545500   56.443500  121.504000
  C    -93.153900   54.688600  122.632000
  H    -93.086000   54.324600  123.663000
  H    -94.212200   54.787200  122.348000
  C    -92.634700   53.637300  121.605000
  H    -92.712800   52.683300  122.127000
  H    -93.254200   53.542400  120.695000
  H    -91.597700   53.758700  121.233000
  S    -94.869000   58.254300  127.743000
  C    -94.089700   58.192300  129.297000
  C    -92.743200   58.473600  129.218000
  C    -92.209100   58.336000  127.891000
  C    -93.251900   58.279700  126.958000
  H    -92.318300   58.572200  130.158000
  C    -90.766100   58.349100  127.601000
  H    -90.523700   57.449700  127.040000
  H    -90.264200   58.128100  128.575000
  C    -90.199200   59.557000  126.889000
  H    -90.275800   60.456900  127.557000
  H    -90.890300   59.688800  126.074000
  C    -88.726300   59.407200  126.410000
  H    -87.996200   59.470900  127.252000
  H    -88.500000   60.149200  125.641000
  H    -88.440100   58.516200  125.880000
  H    -94.448100   57.921100  122.265000
  H    -94.632200   58.254800  130.197000

 Total Charge           Charge          ....    0
 Multiplicity           Mult            ....    1
 Number of Electrons    NEL             ....  134
 Basis Dimension        Dim             ....  322

ORBITAL ENERGIES
----------------

  NO   OCC          E(Eh)            E(eV)
   0   2.0000     -88.964700     -2420.8526
   1   2.0000     -88.963924     -2420.8315
   2   2.0000     -10.326951      -281.0106
   3   2.0000     -10.322727      -280.8957
   4   2.0000     -10.309857      -280.5455
   5   2.0000     -10.305207      -280.4189
   6   2.0000     -10.304896      -280.4105
   7   2.0000     -10.293817      -280.1090
   8   2.0000     -10.292450      -280.0718
   9   2.0000     -10.289881      -280.0019
  10   2.0000     -10.289288      -279.9858
  11   2.0000     -10.289008      -279.9781
  12   2.0000     -10.288950      -279.9766
  13   2.0000     -10.287086      -279.9258
  14   2.0000     -10.280843      -279.7559
  15   2.0000     -10.280604      -279.7495
  16   2.0000      -8.079033      -219.8417
  17   2.0000      -8.078987      -219.8404
  18   2.0000      -6.037562      -164.2904
  19   2.0000      -6.037474      -164.2880
  20   2.0000      -6.033758      -164.1869
  21   2.0000      -6.033569      -164.1818
  22   2.0000      -6.029652      -164.0752
  23   2.0000      -6.029612      -164.0741
  24   2.0000      -1.013102       -27.5679
  25   2.0000      -0.985270       -26.8106
  26   2.0000      -0.913855       -24.8673
  27   2.0000      -0.912415       -24.8281
  28   2.0000      -0.871914       -23.7260
  29   2.0000      -0.852864       -23.2076
  30   2.0000      -0.845531       -23.0081
  31   2.0000      -0.818003       -22.2590
  32   2.0000      -0.785147       -21.3649
  33   2.0000      -0.772369       -21.0172
  34   2.0000      -0.714542       -19.4437
  35   2.0000      -0.696111       -18.9422
  36   2.0000      -0.693952       -18.8834
  37   2.0000      -0.664768       -18.0893
  38   2.0000      -0.643946       -17.5227
  39   2.0000      -0.621601       -16.9146
  40   2.0000      -0.596072       -16.2199
  41   2.0000      -0.572161       -15.5693
  42   2.0000      -0.568151       -15.4602
  43   2.0000      -0.555575       -15.1180
  44   2.0000      -0.527011       -14.3407
  45   2.0000      -0.522707       -14.2236
  46   2.0000      -0.515441       -14.0259
  47   2.0000      -0.509624       -13.8676
  48   2.0000      -0.506406       -13.7800
  49   2.0000      -0.500243       -13.6123
  50   2.0000      -0.494635       -13.4597
  51   2.0000      -0.484781       -13.1915
  52   2.0000      -0.471486       -12.8298
  53   2.0000      -0.465233       -12.6596
  54   2.0000      -0.456202       -12.4139
  55   2.0000      -0.450789       -12.2666
  56   2.0000      -0.440746       -11.9933
  57   2.0000      -0.438110       -11.9216
  58   2.0000      -0.433840       -11.8054
  59   2.0000      -0.428635       -11.6638
  60   2.0000      -0.426043       -11.5932
  61   2.0000      -0.413810       -11.2603
  62   2.0000      -0.409372       -11.1396
  63   2.0000      -0.349373        -9.5069
  64   2.0000      -0.333734        -9.0814
  65   2.0000      -0.330571        -8.9953
  66   2.0000      -0.288418        -7.8483
  67   0.0000       0.028482         0.7750
  68   0.0000       0.064660         1.7595
  69   0.0000       0.109650         2.9837
  70   0.0000       0.122562         3.3351
  71   0.0000       0.136927         3.7260

MULLIKEN ATOMIC CHARGES
-----------------------
   0 S :    0.092558
   1 C :   -0.113835
   2 C :   -0.053339
   3 C :    0.025255
   4 C :   -0.153468
   5 H :    0.006991
   6 C :    0.051533
   7 H :    0.025645
   8 H :    0.033051
   9 C :   -0.091142
  10 H :    0.037525
  11 H :    0.030122
  12 C :   -0.059341
  13 H :    0.034436
  14 H :    0.037329
  15 H :    0.033066
  16 S :    0.102271
  17 C :   -0.090070
  18 C :   -0.010213
  19 C :   -0.042081
  20 C :   -0.138375
  21 H :   -0.004691
  22 C :    0.073390
  23 H :    0.012286
  24 H :    0.015106
  25 C :   -0.054543
  26 H :    0.039260
  27 H :    0.035841
  28 C :   -0.049308
  29 H :    0.038221
  30 H :    0.035594
  31 H :    0.018534
  32 H :    0.038915
  33 H :    0.043475
Sum of atomic charges:    0.0000000

LOEWDIN ATOMIC CHARGES
----------------------
   0 S :    0.392385
   1 C :   -0.186758
   2 C :   -0.062007
   3 C :   -0.065353
   4 C :   -0.190365
   5 H :    0.033845
   6 C :   -0.031813
   7 H :    0.031465
   8 H :    0.032813
   9 C :   -0.042833
  10 H :    0.025208
  11 H :    0.026907
  12 C :   -0.075150
  13 H :    0.029312
  14 H :    0.027248
  15 H :    0.024585
  16 S :    0.387849
  17 C :   -0.179389
  18 C :   -0.060057
  19 C :   -0.053107
  20 C :   -0.180980
  21 H :    0.021788
  22 C :   -0.041783
  23 H :    0.028375
  24 H :    0.032752
  25 C :   -0.035947
  26 H :    0.033089
  27 H :    0.025545
  28 C :   -0.071844
  29 H :    0.029888
  30 H :    0.030876
  31 H :    0.020736
  32 H :    0.024347
  33 H :    0.018376

  Mayer bond orders larger than 0.100000
B(  0-S ,  1-C ) :   1.1044 B(  0-S ,  4-C ) :   1.1434 B(  1-C ,  2-C ) :   1.6646
B(  1-C , 32-H ) :   0.9654 B(  2-C ,  3-C ) :   1.2078 B(  2-C ,  6-C ) :   1.0212
B(  3-C ,  4-C ) :   1.5958 B(  3-C ,  5-H ) :   0.9931 B(  4-C , 20-C ) :   1.0546
B(  6-C ,  7-H ) :   0.9356 B(  6-C ,  8-H ) :   0.9472 B(  6-C ,  9-C ) :   1.0700
B(  9-C , 10-H ) :   0.9642 B(  9-C , 11-H ) :   0.9559 B(  9-C , 12-C ) :   1.0603
B( 12-C , 13-H ) :   0.9770 B( 12-C , 14-H ) :   0.9805 B( 12-C , 15-H ) :   0.9767
B( 16-S , 17-C ) :   1.1489 B( 16-S , 20-C ) :   1.1291 B( 17-C , 18-C ) :   1.6442
B( 17-C , 33-H ) :   0.9661 B( 18-C , 19-C ) :   1.2084 B( 18-C , 21-H ) :   0.9964
B( 19-C , 20-C ) :   1.5896 B( 19-C , 22-C ) :   1.0618 B( 22-C , 23-H ) :   0.9206
B( 22-C , 24-H ) :   0.9186 B( 22-C , 25-C ) :   1.0600 B( 25-C , 26-H ) :   0.9523
B( 25-C , 27-H ) :   0.9571 B( 25-C , 28-C ) :   1.0758 B( 28-C , 29-H ) :   0.9760
B( 28-C , 30-H ) :   0.9742 B( 28-C , 31-H ) :   0.9746

Dispersion correction           -0.014046560
FINAL SINGLE POINT ENERGY     -1339.874626983037

DIPOLE MOMENT
-------------
                                X             Y             Z
Electronic contribution:    -21.16788      11.93670      11.23769
Nuclear contribution   :     21.62674     -12.29980     -11.25399
                        -----------------------------------------
Total Dipole Moment    :      0.45886      -0.36310      -0.01631
                        -----------------------------------------
Magnitude (a.u.)       :      0.58537
Magnitude (Debye)      :      1.48790

Rotational constants in cm-1:     0.017588     0.008476     0.007005
Rotational constants in MHz :   527.280157   254.101128   210.002640

                             ****ORCA TERMINATED NORMALLY****
TOTAL RUN TIME: 0 days 0 hours 0 minutes 33 seconds 228 msec
