                         Program Version 4.2.1 -  RELEASE  -
|  1> ! wB97X-D3 SP def2-SVP
|  2> %pal
|  3> nprocs 16
|  4> end
|  5>
|  6> * xyz 0 1
|  7> S 	 -1.26201 	 -10.2444 	 90.0818
|  8> C 	 -0.14332 	 -10.1194 	 91.4446
|  9> C 	 -0.506162 	 -9.07728 	 92.3255
| 10> C 	 -1.64137 	 -8.34813 	 91.8435
| 11> C 	 -2.23796 	 -8.93455 	 90.6761
| 12> H 	 -2.09964 	 -7.44763 	 92.2734
| 13> C 	 0.173984 	 -8.7344 	 93.6684
| 14> H 	 0.271337 	 -7.68292 	 93.8092
| 15> H 	 1.17098 	 -9.07784 	 93.5539
| 16> C 	 -0.484536 	 -9.33212 	 94.9304
| 17> H 	 -0.42124 	 -10.3559 	 94.7697
| 18> H 	 0.160951 	 -9.01204 	 95.7551
| 19> C 	 -1.89932 	 -8.81368 	 95.2979
| 20> H 	 -2.72909 	 -9.28788 	 94.7363
| 21> H 	 -2.09136 	 -8.92546 	 96.3561
| 22> H 	 -1.96224 	 -7.78092 	 95.0404
| 23> S 	 -3.04682 	 -7.33984 	 88.5397
| 24> C 	 -4.681 	 -7.1331 	 88.121
| 25> C 	 -5.44394 	 -7.55984 	 89.1839
| 26> C 	 -4.76377 	 -8.39471 	 90.1129
| 27> C 	 -3.34726 	 -8.42113 	 89.9405
| 28> H 	 -6.56321 	 -7.49459 	 89.1028
| 29> C 	 -5.43507 	 -9.20096 	 91.2731
| 30> H 	 -5.61348 	 -8.56393 	 92.1727
| 31> H 	 -4.76843 	 -9.87665 	 91.7239
| 32> C 	 -6.66388 	 -9.95839 	 90.9031
| 33> H 	 -6.7235 	 -9.98445 	 89.824
| 34> H 	 -7.52875 	 -9.43507 	 91.3249
| 35> C 	 -6.65729 	 -11.3974 	 91.538
| 36> H 	 -6.97759 	 -11.4146 	 92.5252
| 37> H 	 -5.78466 	 -11.9105 	 91.4299
| 38> H 	 -7.4021 	 -11.9418 	 90.9752
| 39> H 	 0.646936 	 -10.7753 	 91.6641
| 40> H 	 -5.10551 	 -6.69368 	 87.25
| 41> *
| 42>
| 43>                          ****END OF INPUT****

CARTESIAN COORDINATES (ANGSTROEM)
---------------------------------
  S     -1.262010  -10.244400   90.081800
  C     -0.143320  -10.119400   91.444600
  C     -0.506162   -9.077280   92.325500
  C     -1.641370   -8.348130   91.843500
  C     -2.237960   -8.934550   90.676100
  H     -2.099640   -7.447630   92.273400
  C      0.173984   -8.734400   93.668400
  H      0.271337   -7.682920   93.809200
  H      1.170980   -9.077840   93.553900
  C     -0.484536   -9.332120   94.930400
  H     -0.421240  -10.355900   94.769700
  H      0.160951   -9.012040   95.755100
  C     -1.899320   -8.813680   95.297900
  H     -2.729090   -9.287880   94.736300
  H     -2.091360   -8.925460   96.356100
  H     -1.962240   -7.780920   95.040400
  S     -3.046820   -7.339840   88.539700
  C     -4.681000   -7.133100   88.121000
  C     -5.443940   -7.559840   89.183900
  C     -4.763770   -8.394710   90.112900
  C     -3.347260   -8.421130   89.940500
  H     -6.563210   -7.494590   89.102800
  C     -5.435070   -9.200960   91.273100
  H     -5.613480   -8.563930   92.172700
  H     -4.768430   -9.876650   91.723900
  C     -6.663880   -9.958390   90.903100
  H     -6.723500   -9.984450   89.824000
  H     -7.528750   -9.435070   91.324900
  C     -6.657290  -11.397400   91.538000
  H     -6.977590  -11.414600   92.525200
  H     -5.784660  -11.910500   91.429900
  H     -7.402100  -11.941800   90.975200
  H      0.646936  -10.775300   91.664100
  H     -5.105510   -6.693680   87.250000

 Total Charge           Charge          ....    0
 Multiplicity           Mult            ....    1
 Number of Electrons    NEL             ....  134
 Basis Dimension        Dim             ....  322

ORBITAL ENERGIES
----------------

  NO   OCC          E(Eh)            E(eV)
   0   2.0000     -88.972091     -2421.0537
   1   2.0000     -88.958801     -2420.6920
   2   2.0000     -10.331222      -281.1269
   3   2.0000     -10.327166      -281.0165
   4   2.0000     -10.318504      -280.7808
   5   2.0000     -10.314268      -280.6655
   6   2.0000     -10.310315      -280.5579
   7   2.0000     -10.307763      -280.4885
   8   2.0000     -10.302556      -280.3468
   9   2.0000     -10.294245      -280.1206
  10   2.0000     -10.289720      -279.9975
  11   2.0000     -10.285029      -279.8699
  12   2.0000     -10.282377      -279.7977
  13   2.0000     -10.279956      -279.7318
  14   2.0000     -10.278173      -279.6833
  15   2.0000     -10.262977      -279.2698
  16   2.0000      -8.086164      -220.0357
  17   2.0000      -8.073987      -219.7043
  18   2.0000      -6.044597      -164.4818
  19   2.0000      -6.040574      -164.3724
  20   2.0000      -6.037228      -164.2813
  21   2.0000      -6.032340      -164.1483
  22   2.0000      -6.028294      -164.0382
  23   2.0000      -6.024967      -163.9477
  24   2.0000      -1.001846       -27.2616
  25   2.0000      -0.980708       -26.6864
  26   2.0000      -0.911256       -24.7965
  27   2.0000      -0.908087       -24.7103
  28   2.0000      -0.869794       -23.6683
  29   2.0000      -0.845354       -23.0033
  30   2.0000      -0.840703       -22.8767
  31   2.0000      -0.809708       -22.0333
  32   2.0000      -0.787845       -21.4383
  33   2.0000      -0.776507       -21.1298
  34   2.0000      -0.708065       -19.2674
  35   2.0000      -0.704189       -19.1620
  36   2.0000      -0.701212       -19.0810
  37   2.0000      -0.643944       -17.5226
  38   2.0000      -0.643241       -17.5035
  39   2.0000      -0.612464       -16.6660
  40   2.0000      -0.599260       -16.3067
  41   2.0000      -0.579435       -15.7672
  42   2.0000      -0.565325       -15.3833
  43   2.0000      -0.552676       -15.0391
  44   2.0000      -0.543668       -14.7939
  45   2.0000      -0.522865       -14.2279
  46   2.0000      -0.513252       -13.9663
  47   2.0000      -0.508142       -13.8273
  48   2.0000      -0.507234       -13.8025
  49   2.0000      -0.496990       -13.5238
  50   2.0000      -0.487795       -13.2736
  51   2.0000      -0.485156       -13.2018
  52   2.0000      -0.476937       -12.9781
  53   2.0000      -0.470972       -12.8158
  54   2.0000      -0.460283       -12.5249
  55   2.0000      -0.447315       -12.1720
  56   2.0000      -0.438916       -11.9435
  57   2.0000      -0.438095       -11.9212
  58   2.0000      -0.433959       -11.8086
  59   2.0000      -0.428453       -11.6588
  60   2.0000      -0.418907       -11.3990
  61   2.0000      -0.412426       -11.2227
  62   2.0000      -0.403728       -10.9860
  63   2.0000      -0.335491        -9.1292
  64   2.0000      -0.324650        -8.8342
  65   2.0000      -0.318257        -8.6602
  66   2.0000      -0.306865        -8.3502
  67   0.0000       0.029556         0.8042
  68   0.0000       0.053613         1.4589
  69   0.0000       0.116096         3.1591
  70   0.0000       0.121089         3.2950
  71   0.0000       0.126007         3.4288

MULLIKEN ATOMIC CHARGES
-----------------------
   0 S :    0.135852
   1 C :   -0.099456
   2 C :   -0.109639
   3 C :    0.048343
   4 C :   -0.201236
   5 H :    0.025674
   6 C :    0.081778
   7 H :    0.018749
   8 H :    0.008196
   9 C :   -0.040613
  10 H :    0.016642
  11 H :    0.033740
  12 C :   -0.046827
  13 H :    0.042118
  14 H :    0.036860
  15 H :    0.016406
  16 S :    0.104013
  17 C :   -0.080056
  18 C :   -0.053135
  19 C :   -0.042807
  20 C :   -0.167692
  21 H :    0.037643
  22 C :    0.098815
  23 H :    0.032369
  24 H :    0.001248
  25 C :   -0.098583
  26 H :    0.037148
  27 H :    0.029396
  28 C :   -0.010108
  29 H :    0.021590
  30 H :    0.020638
  31 H :    0.018489
  32 H :    0.030335
  33 H :    0.054113
Sum of atomic charges:   -0.0000000

LOEWDIN ATOMIC CHARGES
----------------------
   0 S :    0.425974
   1 C :   -0.189416
   2 C :   -0.060065
   3 C :   -0.048642
   4 C :   -0.218226
   5 H :    0.035734
   6 C :   -0.025799
   7 H :    0.024949
   8 H :    0.025922
   9 C :   -0.029042
  10 H :    0.014340
  11 H :    0.029220
  12 C :   -0.065136
  13 H :    0.029998
  14 H :    0.027309
  15 H :    0.019219
  16 S :    0.410285
  17 C :   -0.190813
  18 C :   -0.091916
  19 C :   -0.045507
  20 C :   -0.206051
  21 H :    0.037156
  22 C :   -0.036809
  23 H :    0.037505
  24 H :    0.020982
  25 C :   -0.039055
  26 H :    0.022508
  27 H :    0.026748
  28 C :   -0.048242
  29 H :    0.017762
  30 H :    0.012099
  31 H :    0.028259
  32 H :    0.018193
  33 H :    0.030556

  Mayer bond orders larger than 0.100000
B(  0-S ,  1-C ) :   1.1575 B(  0-S ,  4-C ) :   1.1650 B(  1-C ,  2-C ) :   1.5810
B(  1-C ,  4-C ) :   0.1116 B(  1-C , 32-H ) :   0.9719 B(  2-C ,  3-C ) :   1.2662
B(  2-C ,  6-C ) :   1.0199 B(  3-C ,  4-C ) :   1.5342 B(  3-C ,  5-H ) :   0.9894
B(  4-C , 20-C ) :   1.0591 B(  6-C ,  7-H ) :   0.9413 B(  6-C ,  8-H ) :   0.9347
B(  6-C ,  9-C ) :   1.0792 B(  9-C , 10-H ) :   0.9568 B(  9-C , 11-H ) :   0.9549
B(  9-C , 12-C ) :   1.0751 B( 12-C , 13-H ) :   0.9730 B( 12-C , 14-H ) :   0.9756
B( 12-C , 15-H ) :   0.9743 B( 16-S , 17-C ) :   1.1875 B( 16-S , 20-C ) :   1.1350
B( 17-C , 18-C ) :   1.5686 B( 17-C , 20-C ) :   0.1128 B( 17-C , 33-H ) :   0.9721
B( 18-C , 19-C ) :   1.2804 B( 18-C , 21-H ) :   0.9746 B( 19-C , 20-C ) :   1.5591
B( 19-C , 22-C ) :   1.0387 B( 22-C , 23-H ) :   0.9292 B( 22-C , 24-H ) :   0.9425
B( 22-C , 25-C ) :   1.0461 B( 25-C , 26-H ) :   0.9701 B( 25-C , 27-H ) :   0.9513
B( 25-C , 28-C ) :   1.0930 B( 28-C , 29-H ) :   0.9764 B( 28-C , 30-H ) :   0.9771
B( 28-C , 31-H ) :   0.9731

Dispersion correction           -0.014207241
FINAL SINGLE POINT ENERGY     -1339.854485403326

DIPOLE MOMENT
-------------
                                X             Y             Z
Electronic contribution:     10.39106       6.27235     -23.79609
Nuclear contribution   :    -10.58261      -6.29956      24.39864
                        -----------------------------------------
Total Dipole Moment    :     -0.19154      -0.02720       0.60255
                        -----------------------------------------
Magnitude (a.u.)       :      0.63285
Magnitude (Debye)      :      1.60857

Rotational constants in cm-1:     0.016933     0.008886     0.007167
Rotational constants in MHz :   507.630870   266.387018   214.859810

                             ****ORCA TERMINATED NORMALLY****
TOTAL RUN TIME: 0 days 0 hours 0 minutes 33 seconds 390 msec
