                         Program Version 4.2.1 -  RELEASE  -
|  1> ! wB97X-D3 SP def2-SVP
|  2> %pal
|  3> nprocs 16
|  4> end
|  5>
|  6> * xyz 0 1
|  7> S 	 44.1968 	 24.0526 	 80.5314
|  8> C 	 42.8374 	 25.165 	 80.5312
|  9> C 	 41.6724 	 24.4721 	 80.6614
| 10> C 	 41.8594 	 23.1311 	 80.9061
| 11> C 	 43.1473 	 22.7103 	 80.8132
| 12> H 	 41.0369 	 22.3399 	 80.936
| 13> C 	 40.2429 	 24.9601 	 80.7604
| 14> H 	 39.9908 	 24.8866 	 81.8732
| 15> H 	 39.5661 	 24.314 	 80.1323
| 16> C 	 39.915 	 26.4069 	 80.2657
| 17> H 	 40.54 	 27.212 	 80.7774
| 18> H 	 40.1758 	 26.4501 	 79.2276
| 19> C 	 38.3923 	 26.8682 	 80.3788
| 20> H 	 38.4225 	 27.8816 	 79.9886
| 21> H 	 37.6532 	 26.3059 	 79.8366
| 22> H 	 38.1958 	 26.8934 	 81.4616
| 23> S 	 44.9198 	 20.9145 	 79.5189
| 24> C 	 45.1812 	 19.3062 	 80.2324
| 25> C 	 44.2292 	 19.1106 	 81.218
| 26> C 	 43.4308 	 20.2266 	 81.5412
| 27> C 	 43.7023 	 21.3634 	 80.7855
| 28> H 	 44.2478 	 18.2245 	 81.8372
| 29> C 	 42.2901 	 20.1066 	 82.6043
| 30> H 	 41.5129 	 19.391 	 82.1167
| 31> H 	 41.7887 	 21.0253 	 82.7333
| 32> C 	 42.4741 	 19.6519 	 84.056
| 33> H 	 41.4449 	 19.6449 	 84.4686
| 34> H 	 43.0081 	 20.3929 	 84.7078
| 35> C 	 42.9288 	 18.1912 	 84.3018
| 36> H 	 42.5919 	 17.5776 	 83.5305
| 37> H 	 42.4917 	 17.7488 	 85.1913
| 38> H 	 44.0777 	 18.1138 	 84.2727
| 39> H 	 42.8429 	 26.2152 	 80.4338
| 40> H 	 46.082 	 18.7331 	 80.027
| 41> *
| 42>
| 43>                          ****END OF INPUT****

CARTESIAN COORDINATES (ANGSTROEM)
---------------------------------
  S     44.196800   24.052600   80.531400
  C     42.837400   25.165000   80.531200
  C     41.672400   24.472100   80.661400
  C     41.859400   23.131100   80.906100
  C     43.147300   22.710300   80.813200
  H     41.036900   22.339900   80.936000
  C     40.242900   24.960100   80.760400
  H     39.990800   24.886600   81.873200
  H     39.566100   24.314000   80.132300
  C     39.915000   26.406900   80.265700
  H     40.540000   27.212000   80.777400
  H     40.175800   26.450100   79.227600
  C     38.392300   26.868200   80.378800
  H     38.422500   27.881600   79.988600
  H     37.653200   26.305900   79.836600
  H     38.195800   26.893400   81.461600
  S     44.919800   20.914500   79.518900
  C     45.181200   19.306200   80.232400
  C     44.229200   19.110600   81.218000
  C     43.430800   20.226600   81.541200
  C     43.702300   21.363400   80.785500
  H     44.247800   18.224500   81.837200
  C     42.290100   20.106600   82.604300
  H     41.512900   19.391000   82.116700
  H     41.788700   21.025300   82.733300
  C     42.474100   19.651900   84.056000
  H     41.444900   19.644900   84.468600
  H     43.008100   20.392900   84.707800
  C     42.928800   18.191200   84.301800
  H     42.591900   17.577600   83.530500
  H     42.491700   17.748800   85.191300
  H     44.077700   18.113800   84.272700
  H     42.842900   26.215200   80.433800
  H     46.082000   18.733100   80.027000

 Total Charge           Charge          ....    0
 Multiplicity           Mult            ....    1
 Number of Electrons    NEL             ....  134
 Basis Dimension        Dim             ....  322

ORBITAL ENERGIES
----------------

  NO   OCC          E(Eh)            E(eV)
   0   2.0000     -88.966992     -2420.9149
   1   2.0000     -88.962779     -2420.8003
   2   2.0000     -10.333273      -281.1826
   3   2.0000     -10.327148      -281.0160
   4   2.0000     -10.322090      -280.8783
   5   2.0000     -10.310840      -280.5722
   6   2.0000     -10.306456      -280.4529
   7   2.0000     -10.304422      -280.3976
   8   2.0000     -10.300197      -280.2826
   9   2.0000     -10.295930      -280.1665
  10   2.0000     -10.295180      -280.1461
  11   2.0000     -10.294156      -280.1182
  12   2.0000     -10.293421      -280.0982
  13   2.0000     -10.290589      -280.0212
  14   2.0000     -10.284406      -279.8529
  15   2.0000     -10.280144      -279.7369
  16   2.0000      -8.081999      -219.9224
  17   2.0000      -8.076332      -219.7682
  18   2.0000      -6.040558      -164.3719
  19   2.0000      -6.036412      -164.2591
  20   2.0000      -6.035006      -164.2209
  21   2.0000      -6.032724      -164.1588
  22   2.0000      -6.030996      -164.1117
  23   2.0000      -6.026978      -164.0024
  24   2.0000      -1.012853       -27.5611
  25   2.0000      -0.982492       -26.7350
  26   2.0000      -0.906373       -24.6637
  27   2.0000      -0.902405       -24.5557
  28   2.0000      -0.867847       -23.6153
  29   2.0000      -0.853988       -23.2382
  30   2.0000      -0.842140       -22.9158
  31   2.0000      -0.813212       -22.1286
  32   2.0000      -0.786466       -21.4008
  33   2.0000      -0.775728       -21.1086
  34   2.0000      -0.713347       -19.4112
  35   2.0000      -0.699435       -19.0326
  36   2.0000      -0.688036       -18.7224
  37   2.0000      -0.660011       -17.9598
  38   2.0000      -0.638863       -17.3844
  39   2.0000      -0.612984       -16.6801
  40   2.0000      -0.593279       -16.1439
  41   2.0000      -0.570911       -15.5353
  42   2.0000      -0.565011       -15.3747
  43   2.0000      -0.551507       -15.0073
  44   2.0000      -0.537901       -14.6370
  45   2.0000      -0.522126       -14.2078
  46   2.0000      -0.515504       -14.0276
  47   2.0000      -0.513042       -13.9606
  48   2.0000      -0.507050       -13.7975
  49   2.0000      -0.502425       -13.6717
  50   2.0000      -0.493974       -13.4417
  51   2.0000      -0.481159       -13.0930
  52   2.0000      -0.474861       -12.9216
  53   2.0000      -0.468963       -12.7611
  54   2.0000      -0.458247       -12.4695
  55   2.0000      -0.444935       -12.1073
  56   2.0000      -0.435364       -11.8469
  57   2.0000      -0.433916       -11.8075
  58   2.0000      -0.431535       -11.7427
  59   2.0000      -0.423996       -11.5375
  60   2.0000      -0.421128       -11.4595
  61   2.0000      -0.416752       -11.3404
  62   2.0000      -0.404253       -11.0003
  63   2.0000      -0.351566        -9.5666
  64   2.0000      -0.334856        -9.1119
  65   2.0000      -0.330053        -8.9812
  66   2.0000      -0.290726        -7.9111
  67   0.0000       0.021926         0.5966
  68   0.0000       0.075493         2.0543
  69   0.0000       0.107754         2.9321
  70   0.0000       0.117675         3.2021
  71   0.0000       0.131337         3.5739

MULLIKEN ATOMIC CHARGES
-----------------------
   0 S :    0.114786
   1 C :   -0.102701
   2 C :   -0.052434
   3 C :   -0.016143
   4 C :   -0.141291
   5 H :    0.040456
   6 C :    0.008986
   7 H :    0.056495
   8 H :    0.045672
   9 C :   -0.132119
  10 H :    0.038012
  11 H :    0.029393
  12 C :   -0.039131
  13 H :    0.036488
  14 H :    0.039831
  15 H :    0.037102
  16 S :    0.079239
  17 C :   -0.104652
  18 C :   -0.025729
  19 C :   -0.002591
  20 C :   -0.146550
  21 H :    0.015942
  22 C :    0.030980
  23 H :    0.050829
  24 H :    0.012297
  25 C :   -0.091403
  26 H :    0.028715
  27 H :    0.046839
  28 C :   -0.053850
  29 H :    0.011616
  30 H :    0.035259
  31 H :    0.050960
  32 H :    0.024601
  33 H :    0.074096
Sum of atomic charges:    0.0000000

LOEWDIN ATOMIC CHARGES
----------------------
   0 S :    0.419513
   1 C :   -0.189234
   2 C :   -0.072884
   3 C :   -0.074084
   4 C :   -0.194898
   5 H :    0.044604
   6 C :   -0.039364
   7 H :    0.043181
   8 H :    0.038763
   9 C :   -0.049662
  10 H :    0.026619
  11 H :    0.017547
  12 C :   -0.060821
  13 H :    0.029498
  14 H :    0.021618
  15 H :    0.027170
  16 S :    0.361271
  17 C :   -0.172987
  18 C :   -0.072574
  19 C :   -0.060497
  20 C :   -0.177390
  21 H :    0.030703
  22 C :   -0.034924
  23 H :    0.044404
  24 H :    0.023265
  25 C :   -0.047001
  26 H :    0.031517
  27 H :    0.030383
  28 C :   -0.072843
  29 H :    0.012243
  30 H :    0.027639
  31 H :    0.033292
  32 H :    0.021117
  33 H :    0.034815

  Mayer bond orders larger than 0.100000
B(  0-S ,  1-C ) :   1.1254 B(  0-S ,  4-C ) :   1.1559 B(  1-C ,  2-C ) :   1.6144
B(  1-C , 32-H ) :   0.9735 B(  2-C ,  3-C ) :   1.2677 B(  2-C ,  6-C ) :   1.0043
B(  3-C ,  4-C ) :   1.5672 B(  3-C ,  5-H ) :   0.9798 B(  4-C , 20-C ) :   1.0483
B(  6-C ,  7-H ) :   0.9428 B(  6-C ,  8-H ) :   0.9453 B(  6-C ,  9-C ) :   1.0638
B(  9-C , 10-H ) :   0.9527 B(  9-C , 11-H ) :   0.9603 B(  9-C , 12-C ) :   1.0766
B( 12-C , 13-H ) :   0.9747 B( 12-C , 14-H ) :   0.9781 B( 12-C , 15-H ) :   0.9784
B( 16-S , 17-C ) :   1.1411 B( 16-S , 20-C ) :   1.1257 B( 17-C , 18-C ) :   1.5926
B( 17-C , 20-C ) :   0.1069 B( 17-C , 33-H ) :   0.9682 B( 18-C , 19-C ) :   1.2562
B( 18-C , 21-H ) :   0.9836 B( 19-C , 20-C ) :   1.5979 B( 19-C , 22-C ) :   1.0202
B( 22-C , 23-H ) :   0.9399 B( 22-C , 24-H ) :   0.9304 B( 22-C , 25-C ) :   1.0868
B( 25-C , 26-H ) :   0.9499 B( 25-C , 27-H ) :   0.9561 B( 25-C , 28-C ) :   1.0748
B( 28-C , 29-H ) :   0.9696 B( 28-C , 30-H ) :   0.9731 B( 28-C , 31-H ) :   0.9722

Dispersion correction           -0.013367690
FINAL SINGLE POINT ENERGY     -1339.863918880296

DIPOLE MOMENT
-------------
                                X             Y             Z
Electronic contribution:     23.00125      -1.37806     -13.35270
Nuclear contribution   :    -23.63764       1.32395      13.71322
                        -----------------------------------------
Total Dipole Moment    :     -0.63639      -0.05411       0.36052
                        -----------------------------------------
Magnitude (a.u.)       :      0.73341
Magnitude (Debye)      :      1.86418

Rotational constants in cm-1:     0.020937     0.007054     0.005686
Rotational constants in MHz :   627.667666   211.471511   170.450345

                             ****ORCA TERMINATED NORMALLY****
TOTAL RUN TIME: 0 days 0 hours 0 minutes 28 seconds 557 msec
