                         Program Version 4.2.1 -  RELEASE  -
|  1> ! wB97X-D3 SP def2-SVP
|  2> %pal
|  3> nprocs 16
|  4> end
|  5>
|  6> * xyz 0 1
|  7> S 	 15.9177 	 8.29601 	 85.0469
|  8> C 	 16.9719 	 8.97092 	 83.8092
|  9> C 	 16.6421 	 10.2975 	 83.6081
| 10> C 	 15.5793 	 10.7743 	 84.4498
| 11> C 	 15.04 	 9.81287 	 85.2481
| 12> H 	 15.2764 	 11.8024 	 84.4407
| 13> C 	 17.2589 	 11.1708 	 82.658
| 14> H 	 16.59 	 12.0159 	 82.3625
| 15> H 	 17.5937 	 10.5526 	 81.8647
| 16> C 	 18.5122 	 11.7994 	 83.1625
| 17> H 	 19.2194 	 11.0361 	 83.3582
| 18> H 	 18.994 	 12.3928 	 82.3397
| 19> C 	 18.3623 	 12.671 	 84.4251
| 20> H 	 17.8194 	 13.5166 	 84.1782
| 21> H 	 17.8379 	 12.2733 	 85.281
| 22> H 	 19.3484 	 12.9762 	 84.8888
| 23> S 	 13.7682 	 11.4364 	 87.1975
| 24> C 	 12.0715 	 11.0836 	 87.654
| 25> C 	 11.6168 	 10.0312 	 86.8856
| 26> C 	 12.5817 	 9.49265 	 85.9842
| 27> C 	 13.8303 	 10.0396 	 86.0327
| 28> H 	 10.618 	 9.79845 	 86.886
| 29> C 	 12.1777 	 8.39263 	 85.0468
| 30> H 	 11.8344 	 7.56176 	 85.6449
| 31> H 	 13.0802 	 7.95921 	 84.6726
| 32> C 	 11.2796 	 8.81726 	 83.9207
| 33> H 	 10.2615 	 8.97457 	 84.2978
| 34> H 	 11.2302 	 7.87669 	 83.2845
| 35> C 	 11.8984 	 9.94348 	 83.0539
| 36> H 	 12.8195 	 9.59703 	 82.518
| 37> H 	 12.0952 	 10.8654 	 83.6897
| 38> H 	 11.137 	 10.1246 	 82.3367
| 39> H 	 17.6549 	 8.36043 	 83.1828
| 40> H 	 11.4313 	 11.695 	 88.2897
| 41> *
| 42>
| 43>                          ****END OF INPUT****

CARTESIAN COORDINATES (ANGSTROEM)
---------------------------------
  S     15.917700    8.296010   85.046900
  C     16.971900    8.970920   83.809200
  C     16.642100   10.297500   83.608100
  C     15.579300   10.774300   84.449800
  C     15.040000    9.812870   85.248100
  H     15.276400   11.802400   84.440700
  C     17.258900   11.170800   82.658000
  H     16.590000   12.015900   82.362500
  H     17.593700   10.552600   81.864700
  C     18.512200   11.799400   83.162500
  H     19.219400   11.036100   83.358200
  H     18.994000   12.392800   82.339700
  C     18.362300   12.671000   84.425100
  H     17.819400   13.516600   84.178200
  H     17.837900   12.273300   85.281000
  H     19.348400   12.976200   84.888800
  S     13.768200   11.436400   87.197500
  C     12.071500   11.083600   87.654000
  C     11.616800   10.031200   86.885600
  C     12.581700    9.492650   85.984200
  C     13.830300   10.039600   86.032700
  H     10.618000    9.798450   86.886000
  C     12.177700    8.392630   85.046800
  H     11.834400    7.561760   85.644900
  H     13.080200    7.959210   84.672600
  C     11.279600    8.817260   83.920700
  H     10.261500    8.974570   84.297800
  H     11.230200    7.876690   83.284500
  C     11.898400    9.943480   83.053900
  H     12.819500    9.597030   82.518000
  H     12.095200   10.865400   83.689700
  H     11.137000   10.124600   82.336700
  H     17.654900    8.360430   83.182800
  H     11.431300   11.695000   88.289700

 Total Charge           Charge          ....    0
 Multiplicity           Mult            ....    1
 Number of Electrons    NEL             ....  134
 Basis Dimension        Dim             ....  322

ORBITAL ENERGIES
----------------

  NO   OCC          E(Eh)            E(eV)
   0   2.0000     -88.969207     -2420.9752
   1   2.0000     -88.962029     -2420.7799
   2   2.0000     -10.332159      -281.1523
   3   2.0000     -10.329589      -281.0824
   4   2.0000     -10.323677      -280.9215
   5   2.0000     -10.319429      -280.8060
   6   2.0000     -10.296716      -280.1879
   7   2.0000     -10.296247      -280.1751
   8   2.0000     -10.291617      -280.0491
   9   2.0000     -10.288456      -279.9631
  10   2.0000     -10.287484      -279.9367
  11   2.0000     -10.283143      -279.8185
  12   2.0000     -10.282400      -279.7983
  13   2.0000     -10.279362      -279.7157
  14   2.0000     -10.276152      -279.6283
  15   2.0000     -10.270931      -279.4863
  16   2.0000      -8.083045      -219.9508
  17   2.0000      -8.075161      -219.7363
  18   2.0000      -6.041765      -164.4048
  19   2.0000      -6.037559      -164.2903
  20   2.0000      -6.033929      -164.1916
  21   2.0000      -6.033734      -164.1863
  22   2.0000      -6.029883      -164.0815
  23   2.0000      -6.025746      -163.9689
  24   2.0000      -1.005271       -27.3548
  25   2.0000      -0.982128       -26.7251
  26   2.0000      -0.926104       -25.2006
  27   2.0000      -0.908333       -24.7170
  28   2.0000      -0.871263       -23.7083
  29   2.0000      -0.847087       -23.0504
  30   2.0000      -0.838999       -22.8303
  31   2.0000      -0.818181       -22.2638
  32   2.0000      -0.785056       -21.3624
  33   2.0000      -0.774169       -21.0662
  34   2.0000      -0.708595       -19.2819
  35   2.0000      -0.704578       -19.1725
  36   2.0000      -0.691031       -18.8039
  37   2.0000      -0.663114       -18.0442
  38   2.0000      -0.642773       -17.4907
  39   2.0000      -0.616230       -16.7685
  40   2.0000      -0.595122       -16.1941
  41   2.0000      -0.581923       -15.8349
  42   2.0000      -0.559435       -15.2230
  43   2.0000      -0.552219       -15.0266
  44   2.0000      -0.543746       -14.7961
  45   2.0000      -0.537691       -14.6313
  46   2.0000      -0.519772       -14.1437
  47   2.0000      -0.516237       -14.0475
  48   2.0000      -0.502977       -13.6867
  49   2.0000      -0.500458       -13.6182
  50   2.0000      -0.491174       -13.3655
  51   2.0000      -0.476782       -12.9739
  52   2.0000      -0.467491       -12.7211
  53   2.0000      -0.463854       -12.6221
  54   2.0000      -0.460903       -12.5418
  55   2.0000      -0.441981       -12.0269
  56   2.0000      -0.436993       -11.8912
  57   2.0000      -0.433530       -11.7969
  58   2.0000      -0.429811       -11.6957
  59   2.0000      -0.427645       -11.6368
  60   2.0000      -0.419735       -11.4216
  61   2.0000      -0.415039       -11.2938
  62   2.0000      -0.402300       -10.9471
  63   2.0000      -0.347207        -9.4480
  64   2.0000      -0.329281        -8.9602
  65   2.0000      -0.325868        -8.8673
  66   2.0000      -0.298783        -8.1303
  67   0.0000       0.028570         0.7774
  68   0.0000       0.067102         1.8259
  69   0.0000       0.105116         2.8603
  70   0.0000       0.115680         3.1478
  71   0.0000       0.127271         3.4632

MULLIKEN ATOMIC CHARGES
-----------------------
   0 S :    0.110870
   1 C :   -0.141816
   2 C :   -0.097410
   3 C :    0.027181
   4 C :   -0.124728
   5 H :    0.010383
   6 C :    0.102430
   7 H :    0.031231
   8 H :    0.008759
   9 C :   -0.061193
  10 H :    0.008424
  11 H :    0.034404
  12 C :   -0.055943
  13 H :    0.009000
  14 H :    0.038630
  15 H :    0.037575
  16 S :    0.070576
  17 C :   -0.089176
  18 C :    0.006369
  19 C :   -0.073602
  20 C :   -0.148149
  21 H :   -0.011784
  22 C :    0.118555
  23 H :    0.022315
  24 H :   -0.015994
  25 C :   -0.098936
  26 H :    0.032455
  27 H :    0.035946
  28 C :   -0.056672
  29 H :    0.049544
  30 H :    0.061995
  31 H :    0.029823
  32 H :    0.064019
  33 H :    0.064917
Sum of atomic charges:    0.0000000

LOEWDIN ATOMIC CHARGES
----------------------
   0 S :    0.402246
   1 C :   -0.201416
   2 C :   -0.062297
   3 C :   -0.054305
   4 C :   -0.186529
   5 H :    0.028476
   6 C :   -0.037825
   7 H :    0.036702
   8 H :    0.031805
   9 C :   -0.034559
  10 H :    0.014639
  11 H :    0.029407
  12 C :   -0.068866
  13 H :    0.012287
  14 H :    0.026225
  15 H :    0.035220
  16 S :    0.351483
  17 C :   -0.163221
  18 C :   -0.062764
  19 C :   -0.056851
  20 C :   -0.172726
  21 H :    0.017197
  22 C :   -0.040233
  23 H :    0.031063
  24 H :    0.015122
  25 C :   -0.043000
  26 H :    0.020846
  27 H :    0.033380
  28 C :   -0.065910
  29 H :    0.034981
  30 H :    0.035896
  31 H :    0.021195
  32 H :    0.037720
  33 H :    0.034613

  Mayer bond orders larger than 0.100000
B(  0-S ,  1-C ) :   1.1237 B(  0-S ,  4-C ) :   1.1415 B(  1-C ,  2-C ) :   1.6045
B(  1-C , 32-H ) :   0.9636 B(  2-C ,  3-C ) :   1.2354 B(  2-C ,  6-C ) :   1.0523
B(  3-C ,  4-C ) :   1.5631 B(  3-C ,  5-H ) :   0.9965 B(  4-C , 20-C ) :   1.0307
B(  6-C ,  7-H ) :   0.9367 B(  6-C ,  8-H ) :   0.9161 B(  6-C ,  9-C ) :   1.0888
B(  9-C , 10-H ) :   0.9514 B(  9-C , 11-H ) :   0.9548 B(  9-C , 12-C ) :   1.0722
B( 12-C , 13-H ) :   0.9749 B( 12-C , 14-H ) :   0.9717 B( 12-C , 15-H ) :   0.9730
B( 16-S , 17-C ) :   1.1403 B( 16-S , 20-C ) :   1.0994 B( 17-C , 18-C ) :   1.6190
B( 17-C , 33-H ) :   0.9651 B( 18-C , 19-C ) :   1.2202 B( 18-C , 21-H ) :   1.0025
B( 19-C , 20-C ) :   1.6257 B( 19-C , 22-C ) :   1.0434 B( 22-C , 23-H ) :   0.9292
B( 22-C , 24-H ) :   0.9151 B( 22-C , 25-C ) :   1.0724 B( 25-C , 26-H ) :   0.9588
B( 25-C , 27-H ) :   0.9525 B( 25-C , 28-C ) :   1.0676 B( 28-C , 29-H ) :   0.9726
B( 28-C , 30-H ) :   0.9717 B( 28-C , 31-H ) :   0.9734

Dispersion correction           -0.016080087
FINAL SINGLE POINT ENERGY     -1339.873259330910

DIPOLE MOMENT
-------------
                                X             Y             Z
Electronic contribution:     -1.37848      -5.99830      15.40740
Nuclear contribution   :      1.18192       6.08663     -15.97026
                        -----------------------------------------
Total Dipole Moment    :     -0.19656       0.08833      -0.56285
                        -----------------------------------------
Magnitude (a.u.)       :      0.60270
Magnitude (Debye)      :      1.53193

Rotational constants in cm-1:     0.021070     0.009072     0.007847
Rotational constants in MHz :   631.670445   271.956782   235.256592

                             ****ORCA TERMINATED NORMALLY****
TOTAL RUN TIME: 0 days 0 hours 0 minutes 34 seconds 917 msec
