                         Program Version 4.2.1 -  RELEASE  -
|  1> ! wB97X-D3 SP def2-SVP
|  2> %pal
|  3> nprocs 16
|  4> end
|  5>
|  6> * xyz 0 1
|  7> S 	 35.8198 	 24.31 	 46.6224
|  8> C 	 36.8174 	 25.6585 	 46.9401
|  9> C 	 37.9097 	 25.2409 	 47.6605
| 10> C 	 38.1472 	 23.8335 	 47.5667
| 11> C 	 37.1538 	 23.2019 	 46.8316
| 12> H 	 38.9745 	 23.3294 	 48.0193
| 13> C 	 38.9694 	 26.1774 	 48.262
| 14> H 	 39.4352 	 26.8531 	 47.4752
| 15> H 	 39.7202 	 25.4667 	 48.5977
| 16> C 	 38.6061 	 27.1193 	 49.3827
| 17> H 	 37.7653 	 27.7685 	 48.9924
| 18> H 	 38.1151 	 26.5421 	 50.1876
| 19> C 	 39.7965 	 27.8718 	 49.9901
| 20> H 	 40.4418 	 27.2347 	 50.5742
| 21> H 	 40.3751 	 28.5102 	 49.2449
| 22> H 	 39.3634 	 28.5046 	 50.6912
| 23> S 	 37.5471 	 21.2262 	 44.881
| 24> C 	 37.689 	 19.5924 	 45.3982
| 25> C 	 37.6305 	 19.4348 	 46.7414
| 26> C 	 37.3026 	 20.6661 	 47.4288
| 27> C 	 37.153 	 21.7556 	 46.5383
| 28> H 	 37.819 	 18.4833 	 47.1154
| 29> C 	 37.0767 	 20.6614 	 48.9884
| 30> H 	 37.282 	 21.6405 	 49.4193
| 31> H 	 37.6797 	 19.8779 	 49.5196
| 32> C 	 35.6554 	 20.2437 	 49.4119
| 33> H 	 35.6236 	 20.1201 	 50.5045
| 34> H 	 35.4224 	 19.2597 	 48.9848
| 35> C 	 34.5503 	 21.2443 	 48.9765
| 36> H 	 34.482 	 21.4524 	 47.9265
| 37> H 	 34.6675 	 22.2375 	 49.455
| 38> H 	 33.5789 	 20.7857 	 49.2469
| 39> H 	 36.5059 	 26.6701 	 46.8044
| 40> H 	 37.9588 	 18.6441 	 44.8463
| 41> *
| 42>
| 43>                          ****END OF INPUT****

CARTESIAN COORDINATES (ANGSTROEM)
---------------------------------
  S     35.819800   24.310000   46.622400
  C     36.817400   25.658500   46.940100
  C     37.909700   25.240900   47.660500
  C     38.147200   23.833500   47.566700
  C     37.153800   23.201900   46.831600
  H     38.974500   23.329400   48.019300
  C     38.969400   26.177400   48.262000
  H     39.435200   26.853100   47.475200
  H     39.720200   25.466700   48.597700
  C     38.606100   27.119300   49.382700
  H     37.765300   27.768500   48.992400
  H     38.115100   26.542100   50.187600
  C     39.796500   27.871800   49.990100
  H     40.441800   27.234700   50.574200
  H     40.375100   28.510200   49.244900
  H     39.363400   28.504600   50.691200
  S     37.547100   21.226200   44.881000
  C     37.689000   19.592400   45.398200
  C     37.630500   19.434800   46.741400
  C     37.302600   20.666100   47.428800
  C     37.153000   21.755600   46.538300
  H     37.819000   18.483300   47.115400
  C     37.076700   20.661400   48.988400
  H     37.282000   21.640500   49.419300
  H     37.679700   19.877900   49.519600
  C     35.655400   20.243700   49.411900
  H     35.623600   20.120100   50.504500
  H     35.422400   19.259700   48.984800
  C     34.550300   21.244300   48.976500
  H     34.482000   21.452400   47.926500
  H     34.667500   22.237500   49.455000
  H     33.578900   20.785700   49.246900
  H     36.505900   26.670100   46.804400
  H     37.958800   18.644100   44.846300

 Total Charge           Charge          ....    0
 Multiplicity           Mult            ....    1
 Number of Electrons    NEL             ....  134
 Basis Dimension        Dim             ....  322

ORBITAL ENERGIES
----------------

  NO   OCC          E(Eh)            E(eV)
   0   2.0000     -88.967112     -2420.9182
   1   2.0000     -88.964278     -2420.8411
   2   2.0000     -10.331576      -281.1365
   3   2.0000     -10.329015      -281.0668
   4   2.0000     -10.316285      -280.7204
   5   2.0000     -10.314292      -280.6662
   6   2.0000     -10.308800      -280.5167
   7   2.0000     -10.298660      -280.2408
   8   2.0000     -10.298265      -280.2300
   9   2.0000     -10.294222      -280.1200
  10   2.0000     -10.290933      -280.0305
  11   2.0000     -10.290100      -280.0079
  12   2.0000     -10.287254      -279.9304
  13   2.0000     -10.286524      -279.9105
  14   2.0000     -10.280089      -279.7354
  15   2.0000     -10.271378      -279.4984
  16   2.0000      -8.081663      -219.9132
  17   2.0000      -8.079817      -219.8630
  18   2.0000      -6.040231      -164.3630
  19   2.0000      -6.038249      -164.3091
  20   2.0000      -6.036225      -164.2540
  21   2.0000      -6.034415      -164.2048
  22   2.0000      -6.032318      -164.1477
  23   2.0000      -6.030398      -164.0955
  24   2.0000      -1.007758       -27.4225
  25   2.0000      -0.986959       -26.8565
  26   2.0000      -0.909524       -24.7494
  27   2.0000      -0.900280       -24.4979
  28   2.0000      -0.870429       -23.6856
  29   2.0000      -0.851481       -23.1700
  30   2.0000      -0.840968       -22.8839
  31   2.0000      -0.813535       -22.1374
  32   2.0000      -0.782605       -21.2958
  33   2.0000      -0.771114       -20.9831
  34   2.0000      -0.705043       -19.1852
  35   2.0000      -0.695668       -18.9301
  36   2.0000      -0.683937       -18.6109
  37   2.0000      -0.653328       -17.7779
  38   2.0000      -0.644744       -17.5444
  39   2.0000      -0.617909       -16.8142
  40   2.0000      -0.590820       -16.0770
  41   2.0000      -0.572327       -15.5738
  42   2.0000      -0.562178       -15.2976
  43   2.0000      -0.543600       -14.7921
  44   2.0000      -0.536457       -14.5977
  45   2.0000      -0.521519       -14.1913
  46   2.0000      -0.515212       -14.0196
  47   2.0000      -0.507011       -13.7965
  48   2.0000      -0.504365       -13.7245
  49   2.0000      -0.499087       -13.5808
  50   2.0000      -0.496151       -13.5010
  51   2.0000      -0.478009       -13.0073
  52   2.0000      -0.472290       -12.8517
  53   2.0000      -0.465718       -12.6728
  54   2.0000      -0.455085       -12.3835
  55   2.0000      -0.451432       -12.2841
  56   2.0000      -0.446352       -12.1459
  57   2.0000      -0.432185       -11.7603
  58   2.0000      -0.429995       -11.7008
  59   2.0000      -0.419243       -11.4082
  60   2.0000      -0.416629       -11.3371
  61   2.0000      -0.414088       -11.2679
  62   2.0000      -0.411890       -11.2081
  63   2.0000      -0.336649        -9.1607
  64   2.0000      -0.326950        -8.8968
  65   2.0000      -0.324129        -8.8200
  66   2.0000      -0.306252        -8.3335
  67   0.0000       0.030268         0.8236
  68   0.0000       0.060103         1.6355
  69   0.0000       0.104844         2.8530
  70   0.0000       0.115007         3.1295
  71   0.0000       0.134382         3.6567

MULLIKEN ATOMIC CHARGES
-----------------------
   0 S :    0.118524
   1 C :   -0.106263
   2 C :   -0.081178
   3 C :    0.049751
   4 C :   -0.164140
   5 H :    0.014946
   6 C :    0.045314
   7 H :    0.044074
   8 H :    0.005731
   9 C :   -0.110197
  10 H :    0.030363
  11 H :    0.024190
  12 C :   -0.014152
  13 H :    0.031422
  14 H :    0.042873
  15 H :    0.018838
  16 S :    0.119658
  17 C :   -0.090768
  18 C :   -0.033479
  19 C :   -0.017156
  20 C :   -0.171070
  21 H :   -0.006584
  22 C :    0.063450
  23 H :    0.024107
  24 H :    0.033347
  25 C :   -0.080100
  26 H :    0.034656
  27 H :    0.024845
  28 C :   -0.060433
  29 H :    0.031992
  30 H :    0.033379
  31 H :    0.031504
  32 H :    0.042373
  33 H :    0.070187
Sum of atomic charges:   -0.0000000

LOEWDIN ATOMIC CHARGES
----------------------
   0 S :    0.424625
   1 C :   -0.197551
   2 C :   -0.068294
   3 C :   -0.049892
   4 C :   -0.203303
   5 H :    0.030430
   6 C :   -0.041850
   7 H :    0.038441
   8 H :    0.023392
   9 C :   -0.050339
  10 H :    0.025507
  11 H :    0.024497
  12 C :   -0.060694
  13 H :    0.026096
  14 H :    0.033384
  15 H :    0.020726
  16 S :    0.411477
  17 C :   -0.200741
  18 C :   -0.074647
  19 C :   -0.038876
  20 C :   -0.203629
  21 H :    0.021176
  22 C :   -0.032798
  23 H :    0.025224
  24 H :    0.036781
  25 C :   -0.040342
  26 H :    0.025761
  27 H :    0.022081
  28 C :   -0.071366
  29 H :    0.018874
  30 H :    0.025960
  31 H :    0.028059
  32 H :    0.023834
  33 H :    0.047998

  Mayer bond orders larger than 0.100000
B(  0-S ,  1-C ) :   1.1541 B(  0-S ,  4-C ) :   1.1608 B(  1-C ,  2-C ) :   1.5737
B(  1-C , 32-H ) :   0.9806 B(  2-C ,  3-C ) :   1.2591 B(  2-C ,  6-C ) :   1.0174
B(  3-C ,  4-C ) :   1.5449 B(  3-C ,  5-H ) :   1.0013 B(  4-C , 20-C ) :   1.0325
B(  6-C ,  7-H ) :   0.9419 B(  6-C ,  8-H ) :   0.9435 B(  6-C ,  9-C ) :   1.0647
B(  9-C , 10-H ) :   0.9551 B(  9-C , 11-H ) :   0.9512 B(  9-C , 12-C ) :   1.0835
B( 12-C , 13-H ) :   0.9722 B( 12-C , 14-H ) :   0.9731 B( 12-C , 15-H ) :   0.9709
B( 16-S , 17-C ) :   1.1561 B( 16-S , 20-C ) :   1.1307 B( 17-C , 18-C ) :   1.6476
B( 17-C , 33-H ) :   0.9514 B( 18-C , 19-C ) :   1.2227 B( 18-C , 21-H ) :   0.9987
B( 19-C , 20-C ) :   1.5958 B( 19-C , 22-C ) :   1.0343 B( 22-C , 23-H ) :   0.9377
B( 22-C , 24-H ) :   0.9417 B( 22-C , 25-C ) :   1.0733 B( 25-C , 26-H ) :   0.9561
B( 25-C , 27-H ) :   0.9551 B( 25-C , 28-C ) :   1.0750 B( 28-C , 29-H ) :   0.9757
B( 28-C , 30-H ) :   0.9752 B( 28-C , 31-H ) :   0.9740

Dispersion correction           -0.014803137
FINAL SINGLE POINT ENERGY     -1339.867355912811

DIPOLE MOMENT
-------------
                                X             Y             Z
Electronic contribution:     -3.83999      -8.65939     -22.56137
Nuclear contribution   :      4.18689       8.61159      23.18069
                        -----------------------------------------
Total Dipole Moment    :      0.34690      -0.04780       0.61933
                        -----------------------------------------
Magnitude (a.u.)       :      0.71147
Magnitude (Debye)      :      1.80842

Rotational constants in cm-1:     0.020940     0.007500     0.006882
Rotational constants in MHz :   627.764086   224.829823   206.315827

                             ****ORCA TERMINATED NORMALLY****
TOTAL RUN TIME: 0 days 0 hours 0 minutes 35 seconds 419 msec
