                         Program Version 4.2.1 -  RELEASE  -
|  1> ! wB97X-D3 SP def2-SVP
|  2> %pal
|  3> nprocs 16
|  4> end
|  5>
|  6> * xyz 0 1
|  7> S 	 -42.0849 	 19.4255 	 70.8545
|  8> C 	 -41.4256 	 20.1083 	 69.4044
|  9> C 	 -40.6724 	 19.2106 	 68.6729
| 10> C 	 -40.9372 	 17.8789 	 69.1918
| 11> C 	 -41.6482 	 17.8313 	 70.3544
| 12> H 	 -40.7009 	 16.9481 	 68.7509
| 13> C 	 -39.9414 	 19.4482 	 67.3457
| 14> H 	 -39.5251 	 18.549 	 66.915
| 15> H 	 -39.0675 	 20.0927 	 67.5138
| 16> C 	 -40.7225 	 20.1708 	 66.2963
| 17> H 	 -40.845 	 21.2604 	 66.4546
| 18> H 	 -39.877 	 20.1842 	 65.5556
| 19> C 	 -41.9505 	 19.3996 	 65.6786
| 20> H 	 -41.5794 	 18.4408 	 65.2021
| 21> H 	 -42.6881 	 19.1252 	 66.4592
| 22> H 	 -42.4356 	 19.9027 	 64.8539
| 23> S 	 -43.6676 	 16.7039 	 71.808
| 24> C 	 -43.4536 	 15.1542 	 72.527
| 25> C 	 -42.12 	 14.704 	 72.4293
| 26> C 	 -41.371 	 15.5542 	 71.5858
| 27> C 	 -42.0543 	 16.6456 	 71.1124
| 28> H 	 -41.7399 	 13.8319 	 73.0053
| 29> C 	 -39.8597 	 15.3284 	 71.4144
| 30> H 	 -39.5697 	 15.4774 	 70.3869
| 31> H 	 -39.6999 	 14.2646 	 71.6675
| 32> C 	 -39.0059 	 16.2928 	 72.29
| 33> H 	 -39.4738 	 17.286 	 72.2575
| 34> H 	 -38.0333 	 16.2246 	 71.8883
| 35> C 	 -39.0373 	 15.9116 	 73.8029
| 36> H 	 -40.0516 	 16.0069 	 74.1959
| 37> H 	 -38.3826 	 16.6108 	 74.2981
| 38> H 	 -38.7827 	 14.9353 	 74.0817
| 39> H 	 -41.5775 	 21.1541 	 69.1358
| 40> H 	 -43.9899 	 14.5492 	 73.2721
| 41> *
| 42>
| 43>                          ****END OF INPUT****

CARTESIAN COORDINATES (ANGSTROEM)
---------------------------------
  S    -42.084900   19.425500   70.854500
  C    -41.425600   20.108300   69.404400
  C    -40.672400   19.210600   68.672900
  C    -40.937200   17.878900   69.191800
  C    -41.648200   17.831300   70.354400
  H    -40.700900   16.948100   68.750900
  C    -39.941400   19.448200   67.345700
  H    -39.525100   18.549000   66.915000
  H    -39.067500   20.092700   67.513800
  C    -40.722500   20.170800   66.296300
  H    -40.845000   21.260400   66.454600
  H    -39.877000   20.184200   65.555600
  C    -41.950500   19.399600   65.678600
  H    -41.579400   18.440800   65.202100
  H    -42.688100   19.125200   66.459200
  H    -42.435600   19.902700   64.853900
  S    -43.667600   16.703900   71.808000
  C    -43.453600   15.154200   72.527000
  C    -42.120000   14.704000   72.429300
  C    -41.371000   15.554200   71.585800
  C    -42.054300   16.645600   71.112400
  H    -41.739900   13.831900   73.005300
  C    -39.859700   15.328400   71.414400
  H    -39.569700   15.477400   70.386900
  H    -39.699900   14.264600   71.667500
  C    -39.005900   16.292800   72.290000
  H    -39.473800   17.286000   72.257500
  H    -38.033300   16.224600   71.888300
  C    -39.037300   15.911600   73.802900
  H    -40.051600   16.006900   74.195900
  H    -38.382600   16.610800   74.298100
  H    -38.782700   14.935300   74.081700
  H    -41.577500   21.154100   69.135800
  H    -43.989900   14.549200   73.272100

 Total Charge           Charge          ....    0
 Multiplicity           Mult            ....    1
 Number of Electrons    NEL             ....  134
 Basis Dimension        Dim             ....  322

ORBITAL ENERGIES
----------------

  NO   OCC          E(Eh)            E(eV)
   0   2.0000     -88.970284     -2421.0045
   1   2.0000     -88.964901     -2420.8580
   2   2.0000     -10.324316      -280.9389
   3   2.0000     -10.323880      -280.9270
   4   2.0000     -10.317822      -280.7622
   5   2.0000     -10.313744      -280.6513
   6   2.0000     -10.304192      -280.3913
   7   2.0000     -10.299283      -280.2577
   8   2.0000     -10.295858      -280.1645
   9   2.0000     -10.295710      -280.1605
  10   2.0000     -10.294082      -280.1162
  11   2.0000     -10.288905      -279.9753
  12   2.0000     -10.288451      -279.9630
  13   2.0000     -10.285445      -279.8812
  14   2.0000     -10.282948      -279.8132
  15   2.0000     -10.267859      -279.4026
  16   2.0000      -8.084843      -219.9998
  17   2.0000      -8.080471      -219.8808
  18   2.0000      -6.043347      -164.4478
  19   2.0000      -6.039386      -164.3400
  20   2.0000      -6.038975      -164.3289
  21   2.0000      -6.035595      -164.2369
  22   2.0000      -6.034881      -164.2175
  23   2.0000      -6.031178      -164.1167
  24   2.0000      -1.011025       -27.5114
  25   2.0000      -0.987525       -26.8719
  26   2.0000      -0.915036       -24.8994
  27   2.0000      -0.903665       -24.5900
  28   2.0000      -0.866857       -23.5884
  29   2.0000      -0.849094       -23.1050
  30   2.0000      -0.841146       -22.8887
  31   2.0000      -0.811209       -22.0741
  32   2.0000      -0.786502       -21.4018
  33   2.0000      -0.775656       -21.1067
  34   2.0000      -0.706629       -19.2283
  35   2.0000      -0.701766       -19.0960
  36   2.0000      -0.685720       -18.6594
  37   2.0000      -0.663476       -18.0541
  38   2.0000      -0.642355       -17.4794
  39   2.0000      -0.611718       -16.6457
  40   2.0000      -0.590982       -16.0814
  41   2.0000      -0.576639       -15.6911
  42   2.0000      -0.554970       -15.1015
  43   2.0000      -0.543522       -14.7900
  44   2.0000      -0.538160       -14.6441
  45   2.0000      -0.531403       -14.4602
  46   2.0000      -0.520046       -14.1512
  47   2.0000      -0.508850       -13.8465
  48   2.0000      -0.503297       -13.6954
  49   2.0000      -0.493308       -13.4236
  50   2.0000      -0.489305       -13.3147
  51   2.0000      -0.472667       -12.8619
  52   2.0000      -0.471568       -12.8320
  53   2.0000      -0.468666       -12.7530
  54   2.0000      -0.464179       -12.6310
  55   2.0000      -0.446381       -12.1466
  56   2.0000      -0.445625       -12.1261
  57   2.0000      -0.433882       -11.8065
  58   2.0000      -0.430275       -11.7084
  59   2.0000      -0.428091       -11.6489
  60   2.0000      -0.419880       -11.4255
  61   2.0000      -0.415786       -11.3141
  62   2.0000      -0.406810       -11.0699
  63   2.0000      -0.347345        -9.4517
  64   2.0000      -0.333006        -9.0616
  65   2.0000      -0.329313        -8.9611
  66   2.0000      -0.289968        -7.8904
  67   0.0000       0.027329         0.7437
  68   0.0000       0.072119         1.9625
  69   0.0000       0.105920         2.8822
  70   0.0000       0.125737         3.4215
  71   0.0000       0.137659         3.7459

MULLIKEN ATOMIC CHARGES
-----------------------
   0 S :    0.113387
   1 C :   -0.141337
   2 C :   -0.050608
   3 C :    0.009225
   4 C :   -0.136628
   5 H :   -0.004191
   6 C :    0.082078
   7 H :    0.017517
   8 H :    0.034454
   9 C :   -0.116566
  10 H :    0.037343
  11 H :    0.025211
  12 C :   -0.054622
  13 H :    0.029412
  14 H :    0.056050
  15 H :    0.038556
  16 S :    0.120711
  17 C :   -0.071577
  18 C :   -0.094717
  19 C :   -0.044573
  20 C :   -0.166504
  21 H :    0.037280
  22 C :    0.074233
  23 H :    0.016548
  24 H :    0.018547
  25 C :   -0.047769
  26 H :    0.049153
  27 H :    0.027249
  28 C :   -0.043828
  29 H :    0.032307
  30 H :    0.032749
  31 H :    0.009122
  32 H :    0.052485
  33 H :    0.059304
Sum of atomic charges:   -0.0000000

LOEWDIN ATOMIC CHARGES
----------------------
   0 S :    0.411657
   1 C :   -0.199420
   2 C :   -0.060244
   3 C :   -0.064018
   4 C :   -0.202856
   5 H :    0.022845
   6 C :   -0.032111
   7 H :    0.029294
   8 H :    0.039874
   9 C :   -0.052788
  10 H :    0.024833
  11 H :    0.031650
  12 C :   -0.071773
  13 H :    0.031299
  14 H :    0.031490
  15 H :    0.025077
  16 S :    0.424754
  17 C :   -0.207645
  18 C :   -0.079345
  19 C :   -0.058308
  20 C :   -0.201978
  21 H :    0.038307
  22 C :   -0.027765
  23 H :    0.023602
  24 H :    0.027858
  25 C :   -0.024937
  26 H :    0.033762
  27 H :    0.017893
  28 C :   -0.063032
  29 H :    0.027453
  30 H :    0.025904
  31 H :    0.011367
  32 H :    0.027902
  33 H :    0.039401

  Mayer bond orders larger than 0.100000
B(  0-S ,  1-C ) :   1.1445 B(  0-S ,  4-C ) :   1.1366 B(  1-C ,  2-C ) :   1.6098
B(  1-C , 32-H ) :   0.9685 B(  2-C ,  3-C ) :   1.2054 B(  2-C ,  6-C ) :   1.0205
B(  3-C ,  4-C ) :   1.6139 B(  3-C ,  5-H ) :   1.0013 B(  4-C , 20-C ) :   1.0413
B(  6-C ,  7-H ) :   0.9486 B(  6-C ,  8-H ) :   0.9278 B(  6-C ,  9-C ) :   1.0874
B(  9-C , 10-H ) :   0.9540 B(  9-C , 11-H ) :   0.9552 B(  9-C , 12-C ) :   1.0551
B( 12-C , 13-H ) :   0.9735 B( 12-C , 14-H ) :   0.9781 B( 12-C , 15-H ) :   0.9773
B( 16-S , 17-C ) :   1.1715 B( 16-S , 20-C ) :   1.1314 B( 17-C , 18-C ) :   1.5911
B( 17-C , 20-C ) :   0.1018 B( 17-C , 33-H ) :   0.9580 B( 18-C , 19-C ) :   1.2802
B( 18-C , 21-H ) :   0.9785 B( 19-C , 20-C ) :   1.5832 B( 19-C , 22-C ) :   1.0362
B( 22-C , 23-H ) :   0.9355 B( 22-C , 24-H ) :   0.9374 B( 22-C , 25-C ) :   1.0637
B( 25-C , 26-H ) :   0.9572 B( 25-C , 27-H ) :   0.9597 B( 25-C , 28-C ) :   1.0728
B( 28-C , 29-H ) :   0.9751 B( 28-C , 30-H ) :   0.9753 B( 28-C , 31-H ) :   0.9777

Dispersion correction           -0.015116186
FINAL SINGLE POINT ENERGY     -1339.870689854365

DIPOLE MOMENT
-------------
                                X             Y             Z
Electronic contribution:    -16.50225       1.39136      10.83273
Nuclear contribution   :     17.04219      -1.50296     -11.08736
                        -----------------------------------------
Total Dipole Moment    :      0.53994      -0.11160      -0.25463
                        -----------------------------------------
Magnitude (a.u.)       :      0.60731
Magnitude (Debye)      :      1.54366

Rotational constants in cm-1:     0.022632     0.008035     0.007117
Rotational constants in MHz :   678.490649   240.879375   213.361849

                             ****ORCA TERMINATED NORMALLY****
TOTAL RUN TIME: 0 days 0 hours 0 minutes 30 seconds 568 msec
