                         Program Version 4.2.1 -  RELEASE  -
|  1> ! wB97X-D3 SP def2-SVP
|  2> %pal
|  3> nprocs 16
|  4> end
|  5>
|  6> * xyz 0 1
|  7> S 	 -67.4552 	 40.0443 	 137.637
|  8> C 	 -65.8475 	 40.5314 	 137.207
|  9> C 	 -64.8457 	 39.7282 	 137.763
| 10> C 	 -65.4857 	 38.5796 	 138.267
| 11> C 	 -66.8356 	 38.5401 	 138.229
| 12> H 	 -64.9863 	 37.5994 	 138.592
| 13> C 	 -63.3141 	 40.0048 	 137.67
| 14> H 	 -63.109 	 40.5049 	 136.722
| 15> H 	 -62.8022 	 39.0524 	 137.882
| 16> C 	 -62.67 	 40.9862 	 138.621
| 17> H 	 -63.1747 	 41.9702 	 138.446
| 18> H 	 -62.8246 	 40.6802 	 139.668
| 19> C 	 -61.1507 	 41.1932 	 138.423
| 20> H 	 -60.881 	 41.7423 	 137.513
| 21> H 	 -60.6775 	 41.8607 	 139.153
| 22> H 	 -60.5962 	 40.2786 	 138.53
| 23> S 	 -68.0469 	 37.9139 	 140.573
| 24> C 	 -68.9428 	 36.418 	 140.605
| 25> C 	 -68.8036 	 35.6537 	 139.441
| 26> C 	 -67.9593 	 36.2704 	 138.489
| 27> C 	 -67.6389 	 37.5434 	 138.913
| 28> H 	 -69.4618 	 34.759 	 139.338
| 29> C 	 -67.8455 	 35.7911 	 137.037
| 30> H 	 -67.8627 	 36.6252 	 136.418
| 31> H 	 -68.6866 	 35.2287 	 136.653
| 32> C 	 -66.6024 	 35.0063 	 136.726
| 33> H 	 -65.7471 	 35.6336 	 136.781
| 34> H 	 -66.6886 	 34.7961 	 135.655
| 35> C 	 -66.4189 	 33.687 	 137.54
| 36> H 	 -67.3049 	 33.1473 	 137.491
| 37> H 	 -66.2898 	 34.0378 	 138.502
| 38> H 	 -65.4378 	 33.2297 	 137.232
| 39> H 	 -65.5775 	 41.4819 	 136.803
| 40> H 	 -69.4742 	 36.068 	 141.434
| 41> *
| 42>
| 43>                          ****END OF INPUT****

CARTESIAN COORDINATES (ANGSTROEM)
---------------------------------
  S    -67.455200   40.044300  137.637000
  C    -65.847500   40.531400  137.207000
  C    -64.845700   39.728200  137.763000
  C    -65.485700   38.579600  138.267000
  C    -66.835600   38.540100  138.229000
  H    -64.986300   37.599400  138.592000
  C    -63.314100   40.004800  137.670000
  H    -63.109000   40.504900  136.722000
  H    -62.802200   39.052400  137.882000
  C    -62.670000   40.986200  138.621000
  H    -63.174700   41.970200  138.446000
  H    -62.824600   40.680200  139.668000
  C    -61.150700   41.193200  138.423000
  H    -60.881000   41.742300  137.513000
  H    -60.677500   41.860700  139.153000
  H    -60.596200   40.278600  138.530000
  S    -68.046900   37.913900  140.573000
  C    -68.942800   36.418000  140.605000
  C    -68.803600   35.653700  139.441000
  C    -67.959300   36.270400  138.489000
  C    -67.638900   37.543400  138.913000
  H    -69.461800   34.759000  139.338000
  C    -67.845500   35.791100  137.037000
  H    -67.862700   36.625200  136.418000
  H    -68.686600   35.228700  136.653000
  C    -66.602400   35.006300  136.726000
  H    -65.747100   35.633600  136.781000
  H    -66.688600   34.796100  135.655000
  C    -66.418900   33.687000  137.540000
  H    -67.304900   33.147300  137.491000
  H    -66.289800   34.037800  138.502000
  H    -65.437800   33.229700  137.232000
  H    -65.577500   41.481900  136.803000
  H    -69.474200   36.068000  141.434000

 Total Charge           Charge          ....    0
 Multiplicity           Mult            ....    1
 Number of Electrons    NEL             ....  134
 Basis Dimension        Dim             ....  322

ORBITAL ENERGIES
----------------

  NO   OCC          E(Eh)            E(eV)
   0   2.0000     -88.968539     -2420.9570
   1   2.0000     -88.968267     -2420.9496
   2   2.0000     -10.322266      -280.8831
   3   2.0000     -10.317847      -280.7629
   4   2.0000     -10.312714      -280.6232
   5   2.0000     -10.310993      -280.5764
   6   2.0000     -10.304805      -280.4080
   7   2.0000     -10.301224      -280.3106
   8   2.0000     -10.299027      -280.2508
   9   2.0000     -10.295476      -280.1541
  10   2.0000     -10.293472      -280.0996
  11   2.0000     -10.291237      -280.0388
  12   2.0000     -10.281145      -279.7642
  13   2.0000     -10.281100      -279.7630
  14   2.0000     -10.274972      -279.5962
  15   2.0000     -10.267880      -279.4032
  16   2.0000      -8.083693      -219.9685
  17   2.0000      -8.083174      -219.9543
  18   2.0000      -6.041986      -164.4108
  19   2.0000      -6.041433      -164.3957
  20   2.0000      -6.038220      -164.3083
  21   2.0000      -6.037810      -164.2972
  22   2.0000      -6.034578      -164.2092
  23   2.0000      -6.034033      -164.1944
  24   2.0000      -1.012930       -27.5632
  25   2.0000      -0.987492       -26.8710
  26   2.0000      -0.912369       -24.8268
  27   2.0000      -0.911422       -24.8010
  28   2.0000      -0.868994       -23.6465
  29   2.0000      -0.850626       -23.1467
  30   2.0000      -0.849475       -23.1154
  31   2.0000      -0.811325       -22.0773
  32   2.0000      -0.790463       -21.5096
  33   2.0000      -0.777689       -21.1620
  34   2.0000      -0.704730       -19.1767
  35   2.0000      -0.695682       -18.9305
  36   2.0000      -0.688788       -18.7429
  37   2.0000      -0.660093       -17.9620
  38   2.0000      -0.642738       -17.4898
  39   2.0000      -0.615280       -16.7426
  40   2.0000      -0.598090       -16.2749
  41   2.0000      -0.577136       -15.7047
  42   2.0000      -0.564510       -15.3611
  43   2.0000      -0.556035       -15.1305
  44   2.0000      -0.542280       -14.7562
  45   2.0000      -0.521848       -14.2002
  46   2.0000      -0.518470       -14.1083
  47   2.0000      -0.508326       -13.8322
  48   2.0000      -0.502389       -13.6707
  49   2.0000      -0.490963       -13.3598
  50   2.0000      -0.485541       -13.2122
  51   2.0000      -0.481557       -13.1038
  52   2.0000      -0.473955       -12.8970
  53   2.0000      -0.464865       -12.6496
  54   2.0000      -0.463251       -12.6057
  55   2.0000      -0.449555       -12.2330
  56   2.0000      -0.446226       -12.1424
  57   2.0000      -0.438669       -11.9368
  58   2.0000      -0.434049       -11.8111
  59   2.0000      -0.424392       -11.5483
  60   2.0000      -0.418149       -11.3784
  61   2.0000      -0.417028       -11.3479
  62   2.0000      -0.411713       -11.2033
  63   2.0000      -0.341976        -9.3056
  64   2.0000      -0.331777        -9.0281
  65   2.0000      -0.321927        -8.7601
  66   2.0000      -0.304827        -8.2948
  67   0.0000       0.042145         1.1468
  68   0.0000       0.052383         1.4254
  69   0.0000       0.115558         3.1445
  70   0.0000       0.117909         3.2085
  71   0.0000       0.122299         3.3279

MULLIKEN ATOMIC CHARGES
-----------------------
   0 S :    0.126145
   1 C :   -0.102005
   2 C :   -0.069953
   3 C :    0.006777
   4 C :   -0.187995
   5 H :    0.037647
   6 C :    0.082806
   7 H :    0.027224
   8 H :    0.024819
   9 C :   -0.091612
  10 H :    0.027734
  11 H :    0.033602
  12 C :   -0.051304
  13 H :    0.029426
  14 H :    0.030585
  15 H :    0.029355
  16 S :    0.132158
  17 C :   -0.079432
  18 C :   -0.059390
  19 C :    0.011409
  20 C :   -0.198905
  21 H :    0.036793
  22 C :    0.090056
  23 H :    0.008410
  24 H :    0.019670
  25 C :   -0.095982
  26 H :    0.013912
  27 H :    0.018085
  28 C :    0.005817
  29 H :    0.019283
  30 H :    0.015596
  31 H :    0.045589
  32 H :    0.032528
  33 H :    0.031157
Sum of atomic charges:    0.0000000

LOEWDIN ATOMIC CHARGES
----------------------
   0 S :    0.424245
   1 C :   -0.192956
   2 C :   -0.063483
   3 C :   -0.069393
   4 C :   -0.221189
   5 H :    0.041978
   6 C :   -0.029695
   7 H :    0.035484
   8 H :    0.032599
   9 C :   -0.044792
  10 H :    0.024577
  11 H :    0.023885
  12 C :   -0.071425
  13 H :    0.026032
  14 H :    0.031449
  15 H :    0.022282
  16 S :    0.416030
  17 C :   -0.182962
  18 C :   -0.071940
  19 C :   -0.054384
  20 C :   -0.196023
  21 H :    0.039718
  22 C :   -0.023841
  23 H :    0.025628
  24 H :    0.030194
  25 C :   -0.036292
  26 H :    0.014326
  27 H :    0.021232
  28 C :   -0.052615
  29 H :    0.015796
  30 H :    0.015408
  31 H :    0.037346
  32 H :    0.018807
  33 H :    0.013972

  Mayer bond orders larger than 0.100000
B(  0-S ,  1-C ) :   1.1654 B(  0-S ,  4-C ) :   1.1424 B(  1-C ,  2-C ) :   1.5950
B(  1-C , 32-H ) :   0.9652 B(  2-C ,  3-C ) :   1.2600 B(  2-C ,  6-C ) :   1.0172
B(  3-C ,  4-C ) :   1.6078 B(  3-C ,  5-H ) :   0.9743 B(  4-C , 20-C ) :   1.0029
B(  6-C ,  7-H ) :   0.9416 B(  6-C ,  8-H ) :   0.9407 B(  6-C ,  9-C ) :   1.0659
B(  9-C , 10-H ) :   0.9555 B(  9-C , 11-H ) :   0.9546 B(  9-C , 12-C ) :   1.0849
B( 12-C , 13-H ) :   0.9734 B( 12-C , 14-H ) :   0.9723 B( 12-C , 15-H ) :   0.9742
B( 16-S , 17-C ) :   1.1494 B( 16-S , 20-C ) :   1.1633 B( 17-C , 18-C ) :   1.6286
B( 17-C , 20-C ) :   0.1047 B( 17-C , 33-H ) :   0.9730 B( 18-C , 19-C ) :   1.2191
B( 18-C , 21-H ) :   0.9833 B( 19-C , 20-C ) :   1.6202 B( 19-C , 22-C ) :   1.0194
B( 22-C , 23-H ) :   0.9259 B( 22-C , 24-H ) :   0.9486 B( 22-C , 25-C ) :   1.0877
B( 25-C , 26-H ) :   0.9549 B( 25-C , 27-H ) :   0.9514 B( 25-C , 28-C ) :   1.0676
B( 28-C , 29-H ) :   0.9758 B( 28-C , 30-H ) :   0.9729 B( 28-C , 31-H ) :   0.9735

Dispersion correction           -0.014294839
FINAL SINGLE POINT ENERGY     -1339.857219434250

DIPOLE MOMENT
-------------
                                X             Y             Z
Electronic contribution:    -21.85408       7.14879       8.13411
Nuclear contribution   :     22.22846      -7.22443      -8.22471
                        -----------------------------------------
Total Dipole Moment    :      0.37438      -0.07563      -0.09060
                        -----------------------------------------
Magnitude (a.u.)       :      0.39254
Magnitude (Debye)      :      0.99776

Rotational constants in cm-1:     0.019930     0.007590     0.006727
Rotational constants in MHz :   597.499342   227.532796   201.666464

                             ****ORCA TERMINATED NORMALLY****
TOTAL RUN TIME: 0 days 0 hours 0 minutes 32 seconds 970 msec
