                         Program Version 4.2.1 -  RELEASE  -
|  1> ! wB97X-D3 SP def2-SVP
|  2> %pal
|  3> nprocs 16
|  4> end
|  5>
|  6> * xyz 0 1
|  7> S 	 54.5543 	 -3.53872 	 88.8406
|  8> C 	 55.3479 	 -2.53238 	 89.9982
|  9> C 	 55.725 	 -1.33624 	 89.3798
| 10> C 	 55.3588 	 -1.28055 	 87.981
| 11> C 	 54.5584 	 -2.32137 	 87.5909
| 12> H 	 55.6507 	 -0.454028 	 87.401
| 13> C 	 56.4541 	 -0.150938 	 90.087
| 14> H 	 55.9114 	 0.0227107 	 91.0212
| 15> H 	 56.2997 	 0.7408 	 89.3701
| 16> C 	 57.9899 	 -0.268477 	 90.2713
| 17> H 	 58.1842 	 0.740974 	 90.629
| 18> H 	 58.4183 	 -0.91917 	 91.0008
| 19> C 	 58.6793 	 -0.465218 	 88.8935
| 20> H 	 58.4958 	 0.520258 	 88.3551
| 21> H 	 59.7896 	 -0.553529 	 88.8916
| 22> H 	 58.3518 	 -1.36835 	 88.378
| 23> S 	 52.3371 	 -2.9623 	 86.1006
| 24> C 	 52.3583 	 -2.64311 	 84.3756
| 25> C 	 53.6932 	 -2.53648 	 83.9031
| 26> C 	 54.6121 	 -2.33207 	 84.9922
| 27> C 	 54.053 	 -2.5391 	 86.2667
| 28> H 	 53.8371 	 -2.51562 	 82.7988
| 29> C 	 56.0671 	 -1.95678 	 84.7784
| 30> H 	 56.7269 	 -2.17888 	 85.5988
| 31> H 	 55.9133 	 -0.828903 	 84.7364
| 32> C 	 56.6507 	 -2.41309 	 83.5059
| 33> H 	 56.2036 	 -2.01056 	 82.6282
| 34> H 	 56.5378 	 -3.51112 	 83.5223
| 35> C 	 58.1072 	 -1.98189 	 83.5103
| 36> H 	 58.5402 	 -2.09568 	 82.5531
| 37> H 	 58.6599 	 -2.67307 	 84.1481
| 38> H 	 58.2425 	 -0.932084 	 83.7853
| 39> H 	 55.4424 	 -2.69601 	 91.0417
| 40> H 	 51.4287 	 -2.7805 	 83.789
| 41> *
| 42>
| 43>                          ****END OF INPUT****

CARTESIAN COORDINATES (ANGSTROEM)
---------------------------------
  S     54.554300   -3.538720   88.840600
  C     55.347900   -2.532380   89.998200
  C     55.725000   -1.336240   89.379800
  C     55.358800   -1.280550   87.981000
  C     54.558400   -2.321370   87.590900
  H     55.650700   -0.454028   87.401000
  C     56.454100   -0.150938   90.087000
  H     55.911400    0.022711   91.021200
  H     56.299700    0.740800   89.370100
  C     57.989900   -0.268477   90.271300
  H     58.184200    0.740974   90.629000
  H     58.418300   -0.919170   91.000800
  C     58.679300   -0.465218   88.893500
  H     58.495800    0.520258   88.355100
  H     59.789600   -0.553529   88.891600
  H     58.351800   -1.368350   88.378000
  S     52.337100   -2.962300   86.100600
  C     52.358300   -2.643110   84.375600
  C     53.693200   -2.536480   83.903100
  C     54.612100   -2.332070   84.992200
  C     54.053000   -2.539100   86.266700
  H     53.837100   -2.515620   82.798800
  C     56.067100   -1.956780   84.778400
  H     56.726900   -2.178880   85.598800
  H     55.913300   -0.828903   84.736400
  C     56.650700   -2.413090   83.505900
  H     56.203600   -2.010560   82.628200
  H     56.537800   -3.511120   83.522300
  C     58.107200   -1.981890   83.510300
  H     58.540200   -2.095680   82.553100
  H     58.659900   -2.673070   84.148100
  H     58.242500   -0.932084   83.785300
  H     55.442400   -2.696010   91.041700
  H     51.428700   -2.780500   83.789000

 Total Charge           Charge          ....    0
 Multiplicity           Mult            ....    1
 Number of Electrons    NEL             ....  134
 Basis Dimension        Dim             ....  322

ORBITAL ENERGIES
----------------

  NO   OCC          E(Eh)            E(eV)
   0   2.0000     -88.963436     -2420.8182
   1   2.0000     -88.962255     -2420.7860
   2   2.0000     -10.326196      -280.9901
   3   2.0000     -10.325996      -280.9846
   4   2.0000     -10.324480      -280.9434
   5   2.0000     -10.309922      -280.5472
   6   2.0000     -10.309778      -280.5433
   7   2.0000     -10.305480      -280.4264
   8   2.0000     -10.303979      -280.3855
   9   2.0000     -10.300349      -280.2868
  10   2.0000     -10.290262      -280.0123
  11   2.0000     -10.288542      -279.9655
  12   2.0000     -10.288525      -279.9650
  13   2.0000     -10.285242      -279.8757
  14   2.0000     -10.280447      -279.7452
  15   2.0000     -10.273498      -279.5561
  16   2.0000      -8.078571      -219.8291
  17   2.0000      -8.076797      -219.7808
  18   2.0000      -6.037204      -164.2807
  19   2.0000      -6.035207      -164.2263
  20   2.0000      -6.032906      -164.1637
  21   2.0000      -6.031356      -164.1215
  22   2.0000      -6.029306      -164.0658
  23   2.0000      -6.027648      -164.0206
  24   2.0000      -1.004541       -27.3349
  25   2.0000      -0.979573       -26.6555
  26   2.0000      -0.922654       -25.1067
  27   2.0000      -0.905128       -24.6298
  28   2.0000      -0.869198       -23.6521
  29   2.0000      -0.850884       -23.1537
  30   2.0000      -0.840681       -22.8761
  31   2.0000      -0.809541       -22.0287
  32   2.0000      -0.779267       -21.2049
  33   2.0000      -0.767992       -20.8981
  34   2.0000      -0.706906       -19.2359
  35   2.0000      -0.700857       -19.0713
  36   2.0000      -0.696500       -18.9527
  37   2.0000      -0.651470       -17.7274
  38   2.0000      -0.638401       -17.3718
  39   2.0000      -0.617779       -16.8106
  40   2.0000      -0.599711       -16.3190
  41   2.0000      -0.580695       -15.8015
  42   2.0000      -0.571606       -15.5542
  43   2.0000      -0.552680       -15.0392
  44   2.0000      -0.541672       -14.7397
  45   2.0000      -0.526193       -14.3184
  46   2.0000      -0.520502       -14.1636
  47   2.0000      -0.510110       -13.8808
  48   2.0000      -0.499684       -13.5971
  49   2.0000      -0.497419       -13.5355
  50   2.0000      -0.485149       -13.2016
  51   2.0000      -0.478698       -13.0260
  52   2.0000      -0.466094       -12.6831
  53   2.0000      -0.463707       -12.6181
  54   2.0000      -0.455801       -12.4030
  55   2.0000      -0.447894       -12.1878
  56   2.0000      -0.443191       -12.0599
  57   2.0000      -0.438499       -11.9322
  58   2.0000      -0.435333       -11.8460
  59   2.0000      -0.425680       -11.5834
  60   2.0000      -0.423806       -11.5323
  61   2.0000      -0.410973       -11.1832
  62   2.0000      -0.405866       -11.0442
  63   2.0000      -0.346893        -9.4394
  64   2.0000      -0.326629        -8.8880
  65   2.0000      -0.325555        -8.8588
  66   2.0000      -0.287384        -7.8201
  67   0.0000       0.027921         0.7598
  68   0.0000       0.065545         1.7836
  69   0.0000       0.118740         3.2311
  70   0.0000       0.120156         3.2696
  71   0.0000       0.128564         3.4984

MULLIKEN ATOMIC CHARGES
-----------------------
   0 S :    0.109310
   1 C :   -0.099838
   2 C :   -0.118810
   3 C :    0.019379
   4 C :   -0.101702
   5 H :   -0.008429
   6 C :    0.021064
   7 H :    0.041584
   8 H :    0.032600
   9 C :   -0.028079
  10 H :    0.026590
  11 H :    0.031159
  12 C :   -0.107659
  13 H :    0.034651
  14 H :    0.036959
  15 H :    0.057565
  16 S :    0.099555
  17 C :   -0.119028
  18 C :   -0.055177
  19 C :   -0.035132
  20 C :   -0.153971
  21 H :    0.044792
  22 C :    0.018904
  23 H :    0.037097
  24 H :    0.047298
  25 C :   -0.069418
  26 H :    0.023482
  27 H :    0.037398
  28 C :   -0.011738
  29 H :    0.014261
  30 H :    0.030691
  31 H :    0.031035
  32 H :    0.036192
  33 H :    0.077414
Sum of atomic charges:   -0.0000000

LOEWDIN ATOMIC CHARGES
----------------------
   0 S :    0.416159
   1 C :   -0.206801
   2 C :   -0.064578
   3 C :   -0.061961
   4 C :   -0.196848
   5 H :    0.021405
   6 C :   -0.031999
   7 H :    0.032460
   8 H :    0.037388
   9 C :   -0.039697
  10 H :    0.026530
  11 H :    0.018456
  12 C :   -0.076124
  13 H :    0.031305
  14 H :    0.027528
  15 H :    0.026698
  16 S :    0.396004
  17 C :   -0.182928
  18 C :   -0.082177
  19 C :   -0.046179
  20 C :   -0.204923
  21 H :    0.041350
  22 C :   -0.036054
  23 H :    0.029947
  24 H :    0.043573
  25 C :   -0.042348
  26 H :    0.018267
  27 H :    0.030667
  28 C :   -0.056784
  29 H :    0.018252
  30 H :    0.027601
  31 H :    0.027446
  32 H :    0.024207
  33 H :    0.034159

  Mayer bond orders larger than 0.100000
B(  0-S ,  1-C ) :   1.1394 B(  0-S ,  4-C ) :   1.1554 B(  1-C ,  2-C ) :   1.5939
B(  1-C , 32-H ) :   0.9762 B(  2-C ,  3-C ) :   1.2574 B(  2-C ,  6-C ) :   1.0060
B(  3-C ,  4-C ) :   1.5412 B(  3-C ,  5-H ) :   1.0071 B(  4-C , 20-C ) :   1.0519
B(  6-C ,  7-H ) :   0.9448 B(  6-C ,  8-H ) :   0.9484 B(  6-C ,  9-C ) :   1.0569
B(  9-C , 10-H ) :   0.9588 B(  9-C , 11-H ) :   0.9627 B(  9-C , 12-C ) :   1.0630
B( 12-C , 13-H ) :   0.9767 B( 12-C , 14-H ) :   0.9754 B( 12-C , 15-H ) :   0.9749
B( 16-S , 17-C ) :   1.1864 B( 16-S , 20-C ) :   1.1231 B( 17-C , 18-C ) :   1.5683
B( 17-C , 20-C ) :   0.1098 B( 17-C , 33-H ) :   0.9620 B( 18-C , 19-C ) :   1.2412
B( 18-C , 21-H ) :   0.9858 B( 19-C , 20-C ) :   1.5810 B( 19-C , 22-C ) :   1.0175
B( 22-C , 23-H ) :   0.9505 B( 22-C , 24-H ) :   0.9142 B( 22-C , 25-C ) :   1.0884
B( 25-C , 26-H ) :   0.9368 B( 25-C , 27-H ) :   0.9560 B( 25-C , 28-C ) :   1.0956
B( 28-C , 29-H ) :   0.9708 B( 28-C , 30-H ) :   0.9718 B( 28-C , 31-H ) :   0.9708

Dispersion correction           -0.014378009
FINAL SINGLE POINT ENERGY     -1339.866562766100

DIPOLE MOMENT
-------------
                                X             Y             Z
Electronic contribution:    -26.84314     -13.29123       5.31341
Nuclear contribution   :     27.39991      13.73061      -5.59308
                        -----------------------------------------
Total Dipole Moment    :      0.55677       0.43938      -0.27967
                        -----------------------------------------
Magnitude (a.u.)       :      0.76241
Magnitude (Debye)      :      1.93788

Rotational constants in cm-1:     0.017024     0.009654     0.006753
Rotational constants in MHz :   510.352407   289.410580   202.442739

                             ****ORCA TERMINATED NORMALLY****
TOTAL RUN TIME: 0 days 0 hours 0 minutes 30 seconds 820 msec
