                         Program Version 4.2.1 -  RELEASE  -
|  1> ! wB97X-D3 SP def2-SVP
|  2> %pal
|  3> nprocs 16
|  4> end
|  5>
|  6> * xyz 0 1
|  7> S 	 -32.5546 	 61.7102 	 105.803
|  8> C 	 -31.2738 	 61.9138 	 107.009
|  9> C 	 -30.1048 	 62.3725 	 106.449
| 10> C 	 -30.1367 	 62.5127 	 105.028
| 11> C 	 -31.4093 	 62.1812 	 104.524
| 12> H 	 -29.3403 	 62.812 	 104.361
| 13> C 	 -28.8982 	 62.7687 	 107.28
| 14> H 	 -28.9999 	 62.5514 	 108.361
| 15> H 	 -28.8352 	 63.842 	 107.178
| 16> C 	 -27.6146 	 61.9354 	 106.931
| 17> H 	 -27.623 	 61.9696 	 105.836
| 18> H 	 -26.6702 	 62.4203 	 107.093
| 19> C 	 -27.5826 	 60.4449 	 107.418
| 20> H 	 -28.627 	 60.0653 	 107.385
| 21> H 	 -26.9 	 59.7341 	 106.944
| 22> H 	 -27.279 	 60.4515 	 108.437
| 23> S 	 -33.4434 	 62.9176 	 102.733
| 24> C 	 -33.2685 	 62.9744 	 101.023
| 25> C 	 -31.9939 	 62.5158 	 100.75
| 26> C 	 -31.2004 	 62.273 	 101.912
| 27> C 	 -31.8538 	 62.4096 	 103.113
| 28> H 	 -31.6225 	 62.495 	 99.7023
| 29> C 	 -29.7445 	 62.0033 	 101.741
| 30> H 	 -29.6054 	 61.5338 	 100.694
| 31> H 	 -29.4189 	 61.3862 	 102.538
| 32> C 	 -28.8308 	 63.2287 	 101.697
| 33> H 	 -29.0322 	 64.0667 	 102.379
| 34> H 	 -28.926 	 63.6596 	 100.716
| 35> C 	 -27.3398 	 62.9691 	 101.915
| 36> H 	 -26.9991 	 62.1144 	 101.284
| 37> H 	 -27.2383 	 62.8038 	 102.984
| 38> H 	 -26.6204 	 63.8104 	 101.702
| 39> H 	 -31.4425 	 61.784 	 108.022
| 40> H 	 -33.987 	 63.0262 	 100.228
| 41> *
| 42>
| 43>                          ****END OF INPUT****

CARTESIAN COORDINATES (ANGSTROEM)
---------------------------------
  S    -32.554600   61.710200  105.803000
  C    -31.273800   61.913800  107.009000
  C    -30.104800   62.372500  106.449000
  C    -30.136700   62.512700  105.028000
  C    -31.409300   62.181200  104.524000
  H    -29.340300   62.812000  104.361000
  C    -28.898200   62.768700  107.280000
  H    -28.999900   62.551400  108.361000
  H    -28.835200   63.842000  107.178000
  C    -27.614600   61.935400  106.931000
  H    -27.623000   61.969600  105.836000
  H    -26.670200   62.420300  107.093000
  C    -27.582600   60.444900  107.418000
  H    -28.627000   60.065300  107.385000
  H    -26.900000   59.734100  106.944000
  H    -27.279000   60.451500  108.437000
  S    -33.443400   62.917600  102.733000
  C    -33.268500   62.974400  101.023000
  C    -31.993900   62.515800  100.750000
  C    -31.200400   62.273000  101.912000
  C    -31.853800   62.409600  103.113000
  H    -31.622500   62.495000   99.702300
  C    -29.744500   62.003300  101.741000
  H    -29.605400   61.533800  100.694000
  H    -29.418900   61.386200  102.538000
  C    -28.830800   63.228700  101.697000
  H    -29.032200   64.066700  102.379000
  H    -28.926000   63.659600  100.716000
  C    -27.339800   62.969100  101.915000
  H    -26.999100   62.114400  101.284000
  H    -27.238300   62.803800  102.984000
  H    -26.620400   63.810400  101.702000
  H    -31.442500   61.784000  108.022000
  H    -33.987000   63.026200  100.228000

 Total Charge           Charge          ....    0
 Multiplicity           Mult            ....    1
 Number of Electrons    NEL             ....  134
 Basis Dimension        Dim             ....  322

ORBITAL ENERGIES
----------------

  NO   OCC          E(Eh)            E(eV)
   0   2.0000     -88.972876     -2421.0750
   1   2.0000     -88.964492     -2420.8469
   2   2.0000     -10.345117      -281.5050
   3   2.0000     -10.329128      -281.0699
   4   2.0000     -10.315318      -280.6941
   5   2.0000     -10.314486      -280.6714
   6   2.0000     -10.306577      -280.4562
   7   2.0000     -10.304075      -280.3881
   8   2.0000     -10.299211      -280.2558
   9   2.0000     -10.297791      -280.2171
  10   2.0000     -10.294299      -280.1221
  11   2.0000     -10.293117      -280.0900
  12   2.0000     -10.290699      -280.0241
  13   2.0000     -10.285049      -279.8704
  14   2.0000     -10.284302      -279.8501
  15   2.0000     -10.280731      -279.7529
  16   2.0000      -8.086653      -220.0490
  17   2.0000      -8.080221      -219.8740
  18   2.0000      -6.045282      -164.5005
  19   2.0000      -6.041334      -164.3931
  20   2.0000      -6.038720      -164.3219
  21   2.0000      -6.037299      -164.2833
  22   2.0000      -6.034338      -164.2027
  23   2.0000      -6.031139      -164.1156
  24   2.0000      -1.012961       -27.5641
  25   2.0000      -0.988366       -26.8948
  26   2.0000      -0.913976       -24.8705
  27   2.0000      -0.907816       -24.7029
  28   2.0000      -0.869469       -23.6595
  29   2.0000      -0.853325       -23.2201
  30   2.0000      -0.846022       -23.0214
  31   2.0000      -0.820611       -22.3300
  32   2.0000      -0.781748       -21.2724
  33   2.0000      -0.773347       -21.0438
  34   2.0000      -0.712114       -19.3776
  35   2.0000      -0.700254       -19.0549
  36   2.0000      -0.694622       -18.9016
  37   2.0000      -0.664458       -18.0808
  38   2.0000      -0.645843       -17.5743
  39   2.0000      -0.627054       -17.0630
  40   2.0000      -0.595664       -16.2088
  41   2.0000      -0.572928       -15.5902
  42   2.0000      -0.571187       -15.5428
  43   2.0000      -0.560654       -15.2562
  44   2.0000      -0.533783       -14.5250
  45   2.0000      -0.522280       -14.2120
  46   2.0000      -0.519717       -14.1422
  47   2.0000      -0.514953       -14.0126
  48   2.0000      -0.508099       -13.8261
  49   2.0000      -0.502171       -13.6648
  50   2.0000      -0.487565       -13.2673
  51   2.0000      -0.484776       -13.1914
  52   2.0000      -0.472258       -12.8508
  53   2.0000      -0.469946       -12.7879
  54   2.0000      -0.462972       -12.5981
  55   2.0000      -0.452606       -12.3160
  56   2.0000      -0.451442       -12.2844
  57   2.0000      -0.443725       -12.0744
  58   2.0000      -0.429109       -11.6767
  59   2.0000      -0.419638       -11.4189
  60   2.0000      -0.417569       -11.3626
  61   2.0000      -0.408635       -11.1195
  62   2.0000      -0.405896       -11.0450
  63   2.0000      -0.358897        -9.7661
  64   2.0000      -0.337451        -9.1825
  65   2.0000      -0.327092        -8.9006
  66   2.0000      -0.292732        -7.9657
  67   0.0000       0.021411         0.5826
  68   0.0000       0.078786         2.1439
  69   0.0000       0.107947         2.9374
  70   0.0000       0.120485         3.2786
  71   0.0000       0.122867         3.3434

MULLIKEN ATOMIC CHARGES
-----------------------
   0 S :    0.107917
   1 C :   -0.095162
   2 C :   -0.066567
   3 C :    0.024484
   4 C :   -0.119027
   5 H :   -0.006889
   6 C :    0.057260
   7 H :    0.023538
   8 H :    0.047473
   9 C :   -0.081404
  10 H :    0.011138
  11 H :    0.022306
  12 C :   -0.049334
  13 H :    0.041532
  14 H :    0.044468
  15 H :    0.023426
  16 S :    0.097120
  17 C :   -0.073442
  18 C :   -0.060854
  19 C :   -0.067217
  20 C :   -0.111840
  21 H :    0.031401
  22 C :    0.053061
  23 H :    0.038347
  24 H :    0.018125
  25 C :   -0.076509
  26 H :    0.035111
  27 H :    0.014932
  28 C :   -0.073923
  29 H :    0.038020
  30 H :    0.026735
  31 H :    0.044379
  32 H :    0.023093
  33 H :    0.058302
Sum of atomic charges:   -0.0000000

LOEWDIN ATOMIC CHARGES
----------------------
   0 S :    0.389131
   1 C :   -0.176725
   2 C :   -0.058983
   3 C :   -0.059087
   4 C :   -0.166440
   5 H :    0.031481
   6 C :   -0.028363
   7 H :    0.030277
   8 H :    0.036130
   9 C :   -0.045615
  10 H :    0.017157
  11 H :    0.020143
  12 C :   -0.066115
  13 H :    0.031978
  14 H :    0.031124
  15 H :    0.019569
  16 S :    0.435240
  17 C :   -0.201209
  18 C :   -0.076971
  19 C :   -0.070256
  20 C :   -0.209111
  21 H :    0.035689
  22 C :   -0.033078
  23 H :    0.044101
  24 H :    0.020779
  25 C :   -0.051122
  26 H :    0.023461
  27 H :    0.019430
  28 C :   -0.071644
  29 H :    0.026918
  30 H :    0.018304
  31 H :    0.033984
  32 H :    0.014326
  33 H :    0.035498

  Mayer bond orders larger than 0.100000
B(  0-S ,  1-C ) :   1.1196 B(  0-S ,  4-C ) :   1.1545 B(  1-C ,  2-C ) :   1.6179
B(  1-C , 32-H ) :   0.9789 B(  2-C ,  3-C ) :   1.2236 B(  2-C ,  6-C ) :   1.0223
B(  3-C ,  4-C ) :   1.5574 B(  3-C ,  5-H ) :   0.9883 B(  4-C , 20-C ) :   1.0453
B(  6-C ,  7-H ) :   0.9513 B(  6-C ,  8-H ) :   0.9407 B(  6-C ,  9-C ) :   1.0471
B(  9-C , 10-H ) :   0.9615 B(  9-C , 11-H ) :   0.9584 B(  9-C , 12-C ) :   1.0597
B( 12-C , 13-H ) :   0.9776 B( 12-C , 14-H ) :   0.9768 B( 12-C , 15-H ) :   0.9754
B( 16-S , 17-C ) :   1.1736 B( 16-S , 20-C ) :   1.1437 B( 17-C , 18-C ) :   1.5765
B( 17-C , 33-H ) :   0.9663 B( 18-C , 19-C ) :   1.2909 B( 18-C , 21-H ) :   0.9817
B( 19-C , 20-C ) :   1.5577 B( 19-C , 22-C ) :   1.0675 B( 22-C , 23-H ) :   0.9286
B( 22-C , 24-H ) :   0.9334 B( 22-C , 25-C ) :   1.0505 B( 25-C , 26-H ) :   0.9570
B( 25-C , 27-H ) :   0.9504 B( 25-C , 28-C ) :   1.0813 B( 28-C , 29-H ) :   0.9712
B( 28-C , 30-H ) :   0.9774 B( 28-C , 31-H ) :   0.9715

Dispersion correction           -0.014774282
FINAL SINGLE POINT ENERGY     -1339.869652658457

DIPOLE MOMENT
-------------
                                X             Y             Z
Electronic contribution:    -31.59725       1.18835      -1.61609
Nuclear contribution   :     32.24104      -1.06586       1.53815
                        -----------------------------------------
Total Dipole Moment    :      0.64379       0.12249      -0.07794
                        -----------------------------------------
Magnitude (a.u.)       :      0.65995
Magnitude (Debye)      :      1.67747

Rotational constants in cm-1:     0.018391     0.009773     0.006784
Rotational constants in MHz :   551.356025   292.986322   203.374089

                             ****ORCA TERMINATED NORMALLY****
TOTAL RUN TIME: 0 days 0 hours 0 minutes 31 seconds 205 msec
