                         Program Version 4.2.1 -  RELEASE  -
|  1> ! wB97X-D3 SP def2-SVP
|  2> %pal
|  3> nprocs 16
|  4> end
|  5>
|  6> * xyz 0 1
|  7> S 	 -34.4246 	 50.7244 	 110.902
|  8> C 	 -36.0317 	 50.5478 	 111.59
|  9> C 	 -37.0187 	 50.4883 	 110.609
| 10> C 	 -36.444 	 50.2969 	 109.279
| 11> C 	 -35.0967 	 50.5506 	 109.328
| 12> H 	 -36.9566 	 50.0957 	 108.339
| 13> C 	 -38.4917 	 50.3275 	 110.953
| 14> H 	 -38.8071 	 51.1584 	 111.565
| 15> H 	 -38.5466 	 49.3451 	 111.471
| 16> C 	 -39.4232 	 50.3262 	 109.707
| 17> H 	 -39.483 	 51.2606 	 109.234
| 18> H 	 -39.1651 	 49.5903 	 108.944
| 19> C 	 -40.8318 	 49.8456 	 110.162
| 20> H 	 -41.606 	 49.7198 	 109.401
| 21> H 	 -40.8337 	 49.0105 	 110.862
| 22> H 	 -41.2801 	 50.5395 	 110.867
| 23> S 	 -33.1986 	 49.0354 	 108.064
| 24> C 	 -32.386 	 49.6748 	 106.696
| 25> C 	 -32.9986 	 50.8026 	 106.167
| 26> C 	 -34.0972 	 51.2157 	 107.057
| 27> C 	 -34.1872 	 50.4395 	 108.193
| 28> H 	 -32.6449 	 51.3514 	 105.333
| 29> C 	 -34.9767 	 52.4589 	 106.823
| 30> H 	 -34.3169 	 53.165 	 106.26
| 31> H 	 -35.3303 	 52.7406 	 107.812
| 32> C 	 -36.2939 	 52.1819 	 106.007
| 33> H 	 -36.9787 	 53.0282 	 106.16
| 34> H 	 -36.7701 	 51.3274 	 106.402
| 35> C 	 -36.0383 	 51.9317 	 104.52
| 36> H 	 -37.0095 	 51.8611 	 104.075
| 37> H 	 -35.555 	 50.9679 	 104.238
| 38> H 	 -35.4167 	 52.6477 	 104.022
| 39> H 	 -36.2917 	 50.742 	 112.649
| 40> H 	 -31.6339 	 49.2162 	 106.177
| 41> *
| 42>
| 43>                          ****END OF INPUT****

CARTESIAN COORDINATES (ANGSTROEM)
---------------------------------
  S    -34.424600   50.724400  110.902000
  C    -36.031700   50.547800  111.590000
  C    -37.018700   50.488300  110.609000
  C    -36.444000   50.296900  109.279000
  C    -35.096700   50.550600  109.328000
  H    -36.956600   50.095700  108.339000
  C    -38.491700   50.327500  110.953000
  H    -38.807100   51.158400  111.565000
  H    -38.546600   49.345100  111.471000
  C    -39.423200   50.326200  109.707000
  H    -39.483000   51.260600  109.234000
  H    -39.165100   49.590300  108.944000
  C    -40.831800   49.845600  110.162000
  H    -41.606000   49.719800  109.401000
  H    -40.833700   49.010500  110.862000
  H    -41.280100   50.539500  110.867000
  S    -33.198600   49.035400  108.064000
  C    -32.386000   49.674800  106.696000
  C    -32.998600   50.802600  106.167000
  C    -34.097200   51.215700  107.057000
  C    -34.187200   50.439500  108.193000
  H    -32.644900   51.351400  105.333000
  C    -34.976700   52.458900  106.823000
  H    -34.316900   53.165000  106.260000
  H    -35.330300   52.740600  107.812000
  C    -36.293900   52.181900  106.007000
  H    -36.978700   53.028200  106.160000
  H    -36.770100   51.327400  106.402000
  C    -36.038300   51.931700  104.520000
  H    -37.009500   51.861100  104.075000
  H    -35.555000   50.967900  104.238000
  H    -35.416700   52.647700  104.022000
  H    -36.291700   50.742000  112.649000
  H    -31.633900   49.216200  106.177000

 Total Charge           Charge          ....    0
 Multiplicity           Mult            ....    1
 Number of Electrons    NEL             ....  134
 Basis Dimension        Dim             ....  322

ORBITAL ENERGIES
----------------

  NO   OCC          E(Eh)            E(eV)
   0   2.0000     -88.968209     -2420.9480
   1   2.0000     -88.961573     -2420.7675
   2   2.0000     -10.324023      -280.9309
   3   2.0000     -10.315164      -280.6899
   4   2.0000     -10.313664      -280.6491
   5   2.0000     -10.306976      -280.4671
   6   2.0000     -10.304912      -280.4109
   7   2.0000     -10.300607      -280.2938
   8   2.0000     -10.298166      -280.2273
   9   2.0000     -10.297978      -280.2222
  10   2.0000     -10.292791      -280.0811
  11   2.0000     -10.292370      -280.0696
  12   2.0000     -10.289782      -279.9992
  13   2.0000     -10.285484      -279.8823
  14   2.0000     -10.278259      -279.6856
  15   2.0000     -10.272872      -279.5390
  16   2.0000      -8.083196      -219.9549
  17   2.0000      -8.077537      -219.8010
  18   2.0000      -6.041662      -164.4020
  19   2.0000      -6.037723      -164.2948
  20   2.0000      -6.035981      -164.2474
  21   2.0000      -6.033931      -164.1916
  22   2.0000      -6.031897      -164.1363
  23   2.0000      -6.028273      -164.0376
  24   2.0000      -1.009342       -27.4656
  25   2.0000      -0.983838       -26.7716
  26   2.0000      -0.911911       -24.8144
  27   2.0000      -0.902555       -24.5598
  28   2.0000      -0.868527       -23.6338
  29   2.0000      -0.848732       -23.0952
  30   2.0000      -0.843859       -22.9626
  31   2.0000      -0.815792       -22.1988
  32   2.0000      -0.780618       -21.2417
  33   2.0000      -0.768905       -20.9230
  34   2.0000      -0.716634       -19.5006
  35   2.0000      -0.700040       -19.0491
  36   2.0000      -0.687071       -18.6962
  37   2.0000      -0.663187       -18.0462
  38   2.0000      -0.641284       -17.4502
  39   2.0000      -0.616840       -16.7851
  40   2.0000      -0.585998       -15.9458
  41   2.0000      -0.574925       -15.6445
  42   2.0000      -0.566554       -15.4167
  43   2.0000      -0.551468       -15.0062
  44   2.0000      -0.540928       -14.7194
  45   2.0000      -0.526620       -14.3301
  46   2.0000      -0.519717       -14.1422
  47   2.0000      -0.505759       -13.7624
  48   2.0000      -0.499690       -13.5973
  49   2.0000      -0.494570       -13.4579
  50   2.0000      -0.489787       -13.3278
  51   2.0000      -0.476057       -12.9542
  52   2.0000      -0.473181       -12.8759
  53   2.0000      -0.467212       -12.7135
  54   2.0000      -0.458085       -12.4651
  55   2.0000      -0.456026       -12.4091
  56   2.0000      -0.440899       -11.9975
  57   2.0000      -0.439555       -11.9609
  58   2.0000      -0.437645       -11.9089
  59   2.0000      -0.425805       -11.5867
  60   2.0000      -0.422501       -11.4968
  61   2.0000      -0.417147       -11.3511
  62   2.0000      -0.410643       -11.1742
  63   2.0000      -0.339775        -9.2458
  64   2.0000      -0.325971        -8.8701
  65   2.0000      -0.321875        -8.7587
  66   2.0000      -0.302643        -8.2353
  67   0.0000       0.039916         1.0862
  68   0.0000       0.066433         1.8077
  69   0.0000       0.118469         3.2237
  70   0.0000       0.119814         3.2603
  71   0.0000       0.126197         3.4340

MULLIKEN ATOMIC CHARGES
-----------------------
   0 S :    0.131927
   1 C :   -0.131483
   2 C :   -0.097876
   3 C :    0.027460
   4 C :   -0.175434
   5 H :    0.029142
   6 C :    0.034461
   7 H :    0.040238
   8 H :    0.058718
   9 C :   -0.069799
  10 H :    0.029823
  11 H :    0.040529
  12 C :   -0.046131
  13 H :    0.038583
  14 H :    0.018109
  15 H :    0.005303
  16 S :    0.125770
  17 C :   -0.047548
  18 C :   -0.025429
  19 C :   -0.053366
  20 C :   -0.180086
  21 H :    0.007884
  22 C :    0.065110
  23 H :    0.030954
  24 H :    0.033665
  25 C :   -0.040231
  26 H :    0.035919
  27 H :    0.005563
  28 C :   -0.053723
  29 H :    0.026563
  30 H :    0.034985
  31 H :    0.021880
  32 H :    0.058585
  33 H :    0.019935
Sum of atomic charges:    0.0000000

LOEWDIN ATOMIC CHARGES
----------------------
   0 S :    0.423278
   1 C :   -0.209454
   2 C :   -0.060037
   3 C :   -0.060186
   4 C :   -0.204705
   5 H :    0.033650
   6 C :   -0.030116
   7 H :    0.033605
   8 H :    0.044034
   9 C :   -0.034608
  10 H :    0.019372
  11 H :    0.025319
  12 C :   -0.074859
  13 H :    0.025885
  14 H :    0.024879
  15 H :    0.021357
  16 S :    0.428657
  17 C :   -0.180575
  18 C :   -0.066089
  19 C :   -0.052026
  20 C :   -0.223774
  21 H :    0.024820
  22 C :   -0.028317
  23 H :    0.031904
  24 H :    0.031659
  25 C :   -0.031955
  26 H :    0.027354
  27 H :    0.014862
  28 C :   -0.069919
  29 H :    0.024810
  30 H :    0.030356
  31 H :    0.018075
  32 H :    0.032886
  33 H :    0.009859

  Mayer bond orders larger than 0.100000
B(  0-S ,  1-C ) :   1.1301 B(  0-S ,  4-C ) :   1.1695 B(  1-C ,  2-C ) :   1.6397
B(  1-C , 32-H ) :   0.9643 B(  2-C ,  3-C ) :   1.2147 B(  2-C ,  6-C ) :   1.0086
B(  3-C ,  4-C ) :   1.5918 B(  3-C ,  5-H ) :   0.9830 B(  4-C , 20-C ) :   0.9942
B(  6-C ,  7-H ) :   0.9383 B(  6-C ,  8-H ) :   0.9458 B(  6-C ,  9-C ) :   1.0843
B(  9-C , 10-H ) :   0.9578 B(  9-C , 11-H ) :   0.9505 B(  9-C , 12-C ) :   1.0763
B( 12-C , 13-H ) :   0.9760 B( 12-C , 14-H ) :   0.9733 B( 12-C , 15-H ) :   0.9681
B( 16-S , 17-C ) :   1.1632 B( 16-S , 20-C ) :   1.1482 B( 17-C , 18-C ) :   1.6088
B( 17-C , 33-H ) :   0.9761 B( 18-C , 19-C ) :   1.2211 B( 18-C , 21-H ) :   0.9960
B( 19-C , 20-C ) :   1.6273 B( 19-C , 22-C ) :   1.0441 B( 22-C , 23-H ) :   0.9439
B( 22-C , 24-H ) :   0.9254 B( 22-C , 25-C ) :   1.0721 B( 25-C , 26-H ) :   0.9582
B( 25-C , 27-H ) :   0.9490 B( 25-C , 28-C ) :   1.0776 B( 28-C , 29-H ) :   0.9720
B( 28-C , 30-H ) :   0.9726 B( 28-C , 31-H ) :   0.9779

Dispersion correction           -0.014710484
FINAL SINGLE POINT ENERGY     -1339.871924811238

DIPOLE MOMENT
-------------
                                X             Y             Z
Electronic contribution:     26.65201      -6.86476      10.53900
Nuclear contribution   :    -27.25554       7.03964     -10.75031
                        -----------------------------------------
Total Dipole Moment    :     -0.60353       0.17488      -0.21131
                        -----------------------------------------
Magnitude (a.u.)       :      0.66294
Magnitude (Debye)      :      1.68506

Rotational constants in cm-1:     0.017907     0.009180     0.006906
Rotational constants in MHz :   536.850833   275.223453   207.041871

                             ****ORCA TERMINATED NORMALLY****
TOTAL RUN TIME: 0 days 0 hours 0 minutes 28 seconds 944 msec
