                         Program Version 4.2.1 -  RELEASE  -
|  1> ! wB97X-D3 SP def2-SVP
|  2> %pal
|  3> nprocs 16
|  4> end
|  5>
|  6> * xyz 0 1
|  7> S 	 4.70987 	 25.0218 	 66.7032
|  8> C 	 4.78424 	 24.5525 	 65.0504
|  9> C 	 5.67065 	 25.2706 	 64.3238
| 10> C 	 6.46832 	 26.1364 	 65.1631
| 11> C 	 6.04049 	 26.1428 	 66.4685
| 12> H 	 7.34188 	 26.7117 	 64.8753
| 13> C 	 6.04491 	 24.8207 	 62.9059
| 14> H 	 5.33862 	 25.2291 	 62.2096
| 15> H 	 5.89166 	 23.7518 	 62.8728
| 16> C 	 7.49306 	 25.226 	 62.4682
| 17> H 	 7.57176 	 25.1215 	 61.3298
| 18> H 	 7.54581 	 26.2632 	 62.54
| 19> C 	 8.64564 	 24.4032 	 63.1092
| 20> H 	 9.55667 	 24.9936 	 63.0102
| 21> H 	 8.55508 	 24.2401 	 64.1908
| 22> H 	 8.67306 	 23.4649 	 62.6638
| 23> S 	 7.10051 	 26.3717 	 69.1364
| 24> C 	 7.42258 	 27.9267 	 69.7599
| 25> C 	 6.88298 	 28.9059 	 68.9318
| 26> C 	 6.35907 	 28.3857 	 67.6849
| 27> C 	 6.48708 	 27.03 	 67.5987
| 28> H 	 6.93845 	 29.9753 	 69.2205
| 29> C 	 5.75797 	 29.2494 	 66.5896
| 30> H 	 4.7288 	 29.5083 	 66.9251
| 31> H 	 5.50943 	 28.7105 	 65.6625
| 32> C 	 6.5104 	 30.5122 	 66.1467
| 33> H 	 7.41549 	 30.3066 	 65.5938
| 34> H 	 6.81364 	 30.9854 	 67.1024
| 35> C 	 5.6556 	 31.4522 	 65.2732
| 36> H 	 5.25898 	 30.9771 	 64.4176
| 37> H 	 6.16978 	 32.3629 	 64.9266
| 38> H 	 4.8363 	 31.9613 	 65.896
| 39> H 	 4.03613 	 23.885 	 64.6677
| 40> H 	 7.84164 	 27.9885 	 70.7423
| 41> *
| 42>
| 43>                          ****END OF INPUT****

CARTESIAN COORDINATES (ANGSTROEM)
---------------------------------
  S      4.709870   25.021800   66.703200
  C      4.784240   24.552500   65.050400
  C      5.670650   25.270600   64.323800
  C      6.468320   26.136400   65.163100
  C      6.040490   26.142800   66.468500
  H      7.341880   26.711700   64.875300
  C      6.044910   24.820700   62.905900
  H      5.338620   25.229100   62.209600
  H      5.891660   23.751800   62.872800
  C      7.493060   25.226000   62.468200
  H      7.571760   25.121500   61.329800
  H      7.545810   26.263200   62.540000
  C      8.645640   24.403200   63.109200
  H      9.556670   24.993600   63.010200
  H      8.555080   24.240100   64.190800
  H      8.673060   23.464900   62.663800
  S      7.100510   26.371700   69.136400
  C      7.422580   27.926700   69.759900
  C      6.882980   28.905900   68.931800
  C      6.359070   28.385700   67.684900
  C      6.487080   27.030000   67.598700
  H      6.938450   29.975300   69.220500
  C      5.757970   29.249400   66.589600
  H      4.728800   29.508300   66.925100
  H      5.509430   28.710500   65.662500
  C      6.510400   30.512200   66.146700
  H      7.415490   30.306600   65.593800
  H      6.813640   30.985400   67.102400
  C      5.655600   31.452200   65.273200
  H      5.258980   30.977100   64.417600
  H      6.169780   32.362900   64.926600
  H      4.836300   31.961300   65.896000
  H      4.036130   23.885000   64.667700
  H      7.841640   27.988500   70.742300

 Total Charge           Charge          ....    0
 Multiplicity           Mult            ....    1
 Number of Electrons    NEL             ....  134
 Basis Dimension        Dim             ....  322

ORBITAL ENERGIES
----------------

  NO   OCC          E(Eh)            E(eV)
   0   2.0000     -88.961928     -2420.7771
   1   2.0000     -88.961773     -2420.7729
   2   2.0000     -10.329423      -281.0779
   3   2.0000     -10.326661      -281.0027
   4   2.0000     -10.318055      -280.7686
   5   2.0000     -10.305417      -280.4246
   6   2.0000     -10.305372      -280.4234
   7   2.0000     -10.300539      -280.2919
   8   2.0000     -10.297442      -280.2076
   9   2.0000     -10.295530      -280.1556
  10   2.0000     -10.291481      -280.0454
  11   2.0000     -10.290905      -280.0298
  12   2.0000     -10.290669      -280.0234
  13   2.0000     -10.288541      -279.9654
  14   2.0000     -10.282386      -279.7980
  15   2.0000     -10.274636      -279.5871
  16   2.0000      -8.077368      -219.7964
  17   2.0000      -8.077345      -219.7957
  18   2.0000      -6.035785      -164.2421
  19   2.0000      -6.035702      -164.2398
  20   2.0000      -6.031751      -164.1323
  21   2.0000      -6.031731      -164.1318
  22   2.0000      -6.028241      -164.0368
  23   2.0000      -6.028199      -164.0356
  24   2.0000      -1.005808       -27.3694
  25   2.0000      -0.987657       -26.8755
  26   2.0000      -0.907158       -24.6850
  27   2.0000      -0.904623       -24.6160
  28   2.0000      -0.867196       -23.5976
  29   2.0000      -0.848276       -23.0828
  30   2.0000      -0.841317       -22.8934
  31   2.0000      -0.816060       -22.2061
  32   2.0000      -0.783036       -21.3075
  33   2.0000      -0.773783       -21.0557
  34   2.0000      -0.709399       -19.3037
  35   2.0000      -0.701243       -19.0818
  36   2.0000      -0.687065       -18.6960
  37   2.0000      -0.653455       -17.7814
  38   2.0000      -0.645389       -17.5619
  39   2.0000      -0.620999       -16.8982
  40   2.0000      -0.603842       -16.4314
  41   2.0000      -0.562554       -15.3079
  42   2.0000      -0.558821       -15.2063
  43   2.0000      -0.549587       -14.9550
  44   2.0000      -0.530788       -14.4435
  45   2.0000      -0.524327       -14.2677
  46   2.0000      -0.520532       -14.1644
  47   2.0000      -0.513854       -13.9827
  48   2.0000      -0.504440       -13.7265
  49   2.0000      -0.494881       -13.4664
  50   2.0000      -0.486527       -13.2391
  51   2.0000      -0.481703       -13.1078
  52   2.0000      -0.473315       -12.8796
  53   2.0000      -0.467346       -12.7171
  54   2.0000      -0.458820       -12.4851
  55   2.0000      -0.454126       -12.3574
  56   2.0000      -0.444371       -12.0920
  57   2.0000      -0.440084       -11.9753
  58   2.0000      -0.426324       -11.6009
  59   2.0000      -0.426007       -11.5922
  60   2.0000      -0.421008       -11.4562
  61   2.0000      -0.409800       -11.1512
  62   2.0000      -0.409486       -11.1427
  63   2.0000      -0.341004        -9.2792
  64   2.0000      -0.331348        -9.0164
  65   2.0000      -0.327226        -8.9043
  66   2.0000      -0.300690        -8.1822
  67   0.0000       0.041109         1.1186
  68   0.0000       0.065892         1.7930
  69   0.0000       0.122087         3.3222
  70   0.0000       0.128782         3.5043
  71   0.0000       0.130027         3.5382

MULLIKEN ATOMIC CHARGES
-----------------------
   0 S :    0.110830
   1 C :   -0.127515
   2 C :   -0.082591
   3 C :    0.027353
   4 C :   -0.162680
   5 H :    0.019307
   6 C :    0.076002
   7 H :    0.026616
   8 H :    0.025572
   9 C :   -0.107380
  10 H :    0.030748
  11 H :    0.016152
  12 C :   -0.022154
  13 H :    0.036122
  14 H :    0.041207
  15 H :    0.028313
  16 S :    0.099055
  17 C :   -0.094730
  18 C :   -0.044148
  19 C :    0.006887
  20 C :   -0.179893
  21 H :    0.036465
  22 C :    0.048168
  23 H :    0.034487
  24 H :    0.025586
  25 C :   -0.066620
  26 H :    0.031854
  27 H :    0.023333
  28 C :   -0.063302
  29 H :    0.031441
  30 H :    0.032119
  31 H :    0.034232
  32 H :    0.048186
  33 H :    0.060979
Sum of atomic charges:   -0.0000000

LOEWDIN ATOMIC CHARGES
----------------------
   0 S :    0.410727
   1 C :   -0.197879
   2 C :   -0.070200
   3 C :   -0.063092
   4 C :   -0.186346
   5 H :    0.034222
   6 C :   -0.026375
   7 H :    0.029000
   8 H :    0.028413
   9 C :   -0.042589
  10 H :    0.033333
  11 H :    0.010759
  12 C :   -0.059774
  13 H :    0.030811
  14 H :    0.029519
  15 H :    0.018979
  16 S :    0.404127
  17 C :   -0.187227
  18 C :   -0.079143
  19 C :   -0.052024
  20 C :   -0.198114
  21 H :    0.035360
  22 C :   -0.038736
  23 H :    0.038614
  24 H :    0.031281
  25 C :   -0.040474
  26 H :    0.022994
  27 H :    0.022504
  28 C :   -0.069769
  29 H :    0.018291
  30 H :    0.028558
  31 H :    0.033254
  32 H :    0.024274
  33 H :    0.026722

  Mayer bond orders larger than 0.100000
B(  0-S ,  1-C ) :   1.1462 B(  0-S ,  4-C ) :   1.1634 B(  1-C ,  2-C ) :   1.6347
B(  1-C , 32-H ) :   0.9699 B(  2-C ,  3-C ) :   1.2234 B(  2-C ,  6-C ) :   1.0004
B(  3-C ,  4-C ) :   1.6022 B(  3-C ,  5-H ) :   0.9939 B(  4-C , 20-C ) :   1.0025
B(  6-C ,  7-H ) :   0.9267 B(  6-C ,  8-H ) :   0.9566 B(  6-C ,  9-C ) :   1.0884
B(  9-C , 10-H ) :   0.9547 B(  9-C , 11-H ) :   0.9539 B(  9-C , 12-C ) :   1.0608
B( 12-C , 13-H ) :   0.9746 B( 12-C , 14-H ) :   0.9789 B( 12-C , 15-H ) :   0.9762
B( 16-S , 17-C ) :   1.1791 B( 16-S , 20-C ) :   1.1323 B( 17-C , 18-C ) :   1.5863
B( 17-C , 33-H ) :   0.9735 B( 18-C , 19-C ) :   1.2258 B( 18-C , 21-H ) :   0.9863
B( 19-C , 20-C ) :   1.6206 B( 19-C , 22-C ) :   1.0402 B( 22-C , 23-H ) :   0.9315
B( 22-C , 24-H ) :   0.9316 B( 22-C , 25-C ) :   1.0499 B( 25-C , 26-H ) :   0.9566
B( 25-C , 27-H ) :   0.9573 B( 25-C , 28-C ) :   1.0828 B( 28-C , 29-H ) :   0.9769
B( 28-C , 30-H ) :   0.9739 B( 28-C , 31-H ) :   0.9739

Dispersion correction           -0.014228372
FINAL SINGLE POINT ENERGY     -1339.884240806798

DIPOLE MOMENT
-------------
                                X             Y             Z
Electronic contribution:     -5.78614     -12.79315      22.54812
Nuclear contribution   :      5.85625      13.14999     -23.01643
                        -----------------------------------------
Total Dipole Moment    :      0.07012       0.35684      -0.46832
                        -----------------------------------------
Magnitude (a.u.)       :      0.59293
Magnitude (Debye)      :      1.50711

Rotational constants in cm-1:     0.016085     0.009073     0.007248
Rotational constants in MHz :   482.214541   272.004088   217.293953

                             ****ORCA TERMINATED NORMALLY****
TOTAL RUN TIME: 0 days 0 hours 0 minutes 34 seconds 689 msec
