                         Program Version 4.2.1 -  RELEASE  -
|  1> ! wB97X-D3 SP def2-SVP
|  2> %pal
|  3> nprocs 16
|  4> end
|  5>
|  6> * xyz 0 1
|  7> S 	 59.696 	 4.95245 	 77.765
|  8> C 	 59.1362 	 5.96859 	 79.2104
|  9> C 	 58.4682 	 7.14741 	 78.7763
| 10> C 	 58.5526 	 7.25699 	 77.341
| 11> C 	 59.0028 	 6.10355 	 76.6564
| 12> H 	 58.2646 	 8.10057 	 76.7464
| 13> C 	 57.8167 	 8.0917 	 79.677
| 14> H 	 56.8975 	 7.75244 	 79.9984
| 15> H 	 57.6544 	 9.05904 	 79.2254
| 16> C 	 58.6515 	 8.36718 	 80.876
| 17> H 	 58.7461 	 7.4528 	 81.4246
| 18> H 	 59.6817 	 8.62088 	 80.5624
| 19> C 	 57.9341 	 9.37142 	 81.862
| 20> H 	 56.8355 	 9.32506 	 81.6926
| 21> H 	 58.1978 	 9.20605 	 82.8899
| 22> H 	 58.3318 	 10.3716 	 81.718
| 23> S 	 57.5649 	 6.0022 	 74.1836
| 24> C 	 58.4337 	 5.31742 	 72.8118
| 25> C 	 59.6723 	 4.89486 	 73.1519
| 26> C 	 60.0183 	 5.1254 	 74.4868
| 27> C 	 59.0422 	 5.77707 	 75.1937
| 28> H 	 60.3594 	 4.43299 	 72.4328
| 29> C 	 61.3232 	 4.57959 	 75.0373
| 30> H 	 61.2265 	 3.51264 	 75.2285
| 31> H 	 61.5871 	 5.08278 	 76.0505
| 32> C 	 62.5206 	 4.8724 	 74.1717
| 33> H 	 62.8347 	 5.89347 	 74.0843
| 34> H 	 62.3281 	 4.4458 	 73.2143
| 35> C 	 63.7584 	 4.03784 	 74.5365
| 36> H 	 63.5086 	 2.97191 	 74.4876
| 37> H 	 64.0691 	 4.14126 	 75.5089
| 38> H 	 64.6582 	 4.15631 	 73.9641
| 39> H 	 59.1768 	 5.65656 	 80.2198
| 40> H 	 58.0381 	 5.43003 	 71.7896
| 41> *
| 42>
| 43>                          ****END OF INPUT****

CARTESIAN COORDINATES (ANGSTROEM)
---------------------------------
  S     59.696000    4.952450   77.765000
  C     59.136200    5.968590   79.210400
  C     58.468200    7.147410   78.776300
  C     58.552600    7.256990   77.341000
  C     59.002800    6.103550   76.656400
  H     58.264600    8.100570   76.746400
  C     57.816700    8.091700   79.677000
  H     56.897500    7.752440   79.998400
  H     57.654400    9.059040   79.225400
  C     58.651500    8.367180   80.876000
  H     58.746100    7.452800   81.424600
  H     59.681700    8.620880   80.562400
  C     57.934100    9.371420   81.862000
  H     56.835500    9.325060   81.692600
  H     58.197800    9.206050   82.889900
  H     58.331800   10.371600   81.718000
  S     57.564900    6.002200   74.183600
  C     58.433700    5.317420   72.811800
  C     59.672300    4.894860   73.151900
  C     60.018300    5.125400   74.486800
  C     59.042200    5.777070   75.193700
  H     60.359400    4.432990   72.432800
  C     61.323200    4.579590   75.037300
  H     61.226500    3.512640   75.228500
  H     61.587100    5.082780   76.050500
  C     62.520600    4.872400   74.171700
  H     62.834700    5.893470   74.084300
  H     62.328100    4.445800   73.214300
  C     63.758400    4.037840   74.536500
  H     63.508600    2.971910   74.487600
  H     64.069100    4.141260   75.508900
  H     64.658200    4.156310   73.964100
  H     59.176800    5.656560   80.219800
  H     58.038100    5.430030   71.789600

 Total Charge           Charge          ....    0
 Multiplicity           Mult            ....    1
 Number of Electrons    NEL             ....  134
 Basis Dimension        Dim             ....  322

ORBITAL ENERGIES
----------------

  NO   OCC          E(Eh)            E(eV)
   0   2.0000     -88.967794     -2420.9368
   1   2.0000     -88.966196     -2420.8933
   2   2.0000     -10.335651      -281.2474
   3   2.0000     -10.332263      -281.1552
   4   2.0000     -10.319555      -280.8094
   5   2.0000     -10.319020      -280.7948
   6   2.0000     -10.306616      -280.4573
   7   2.0000     -10.299418      -280.2614
   8   2.0000     -10.296905      -280.1930
   9   2.0000     -10.295695      -280.1601
  10   2.0000     -10.290503      -280.0188
  11   2.0000     -10.283848      -279.8377
  12   2.0000     -10.281867      -279.7838
  13   2.0000     -10.280150      -279.7371
  14   2.0000     -10.279947      -279.7316
  15   2.0000     -10.266547      -279.3669
  16   2.0000      -8.080487      -219.8812
  17   2.0000      -8.080088      -219.8704
  18   2.0000      -6.039164      -164.3340
  19   2.0000      -6.038673      -164.3206
  20   2.0000      -6.035188      -164.2258
  21   2.0000      -6.034872      -164.2172
  22   2.0000      -6.031272      -164.1192
  23   2.0000      -6.030662      -164.1027
  24   2.0000      -1.001350       -27.2481
  25   2.0000      -0.976353       -26.5679
  26   2.0000      -0.924393       -25.1540
  27   2.0000      -0.913709       -24.8633
  28   2.0000      -0.862549       -23.4712
  29   2.0000      -0.852433       -23.1959
  30   2.0000      -0.839108       -22.8333
  31   2.0000      -0.810288       -22.0490
  32   2.0000      -0.785633       -21.3782
  33   2.0000      -0.774085       -21.0639
  34   2.0000      -0.713278       -19.4093
  35   2.0000      -0.703423       -19.1411
  36   2.0000      -0.692680       -18.8488
  37   2.0000      -0.660837       -17.9823
  38   2.0000      -0.637384       -17.3441
  39   2.0000      -0.614556       -16.7229
  40   2.0000      -0.603353       -16.4181
  41   2.0000      -0.576967       -15.7001
  42   2.0000      -0.573676       -15.6105
  43   2.0000      -0.569102       -15.4861
  44   2.0000      -0.530445       -14.4341
  45   2.0000      -0.523149       -14.2356
  46   2.0000      -0.518088       -14.0979
  47   2.0000      -0.512703       -13.9514
  48   2.0000      -0.507683       -13.8148
  49   2.0000      -0.496591       -13.5129
  50   2.0000      -0.486092       -13.2272
  51   2.0000      -0.478933       -13.0324
  52   2.0000      -0.464419       -12.6375
  53   2.0000      -0.462366       -12.5816
  54   2.0000      -0.455155       -12.3854
  55   2.0000      -0.451997       -12.2995
  56   2.0000      -0.445521       -12.1232
  57   2.0000      -0.441651       -12.0179
  58   2.0000      -0.437864       -11.9149
  59   2.0000      -0.431246       -11.7348
  60   2.0000      -0.420746       -11.4491
  61   2.0000      -0.413494       -11.2518
  62   2.0000      -0.404539       -11.0081
  63   2.0000      -0.343566        -9.3489
  64   2.0000      -0.335269        -9.1231
  65   2.0000      -0.327073        -8.9001
  66   2.0000      -0.289346        -7.8735
  67   0.0000       0.022322         0.6074
  68   0.0000       0.068412         1.8616
  69   0.0000       0.106393         2.8951
  70   0.0000       0.107298         2.9197
  71   0.0000       0.126268         3.4359

MULLIKEN ATOMIC CHARGES
-----------------------
   0 S :    0.089102
   1 C :   -0.117161
   2 C :   -0.097291
   3 C :    0.032812
   4 C :   -0.166659
   5 H :    0.004625
   6 C :    0.152750
   7 H :    0.016997
   8 H :    0.015283
   9 C :   -0.140167
  10 H :    0.020317
  11 H :    0.040008
  12 C :   -0.037152
  13 H :    0.041608
  14 H :    0.028356
  15 H :    0.032930
  16 S :    0.096272
  17 C :   -0.101140
  18 C :   -0.031532
  19 C :   -0.019302
  20 C :   -0.130319
  21 H :    0.026589
  22 C :    0.019959
  23 H :    0.043871
  24 H :    0.054456
  25 C :   -0.057339
  26 H :    0.038961
  27 H :    0.016666
  28 C :   -0.024956
  29 H :    0.013446
  30 H :   -0.001022
  31 H :    0.028898
  32 H :    0.039561
  33 H :    0.070574
Sum of atomic charges:    0.0000000

LOEWDIN ATOMIC CHARGES
----------------------
   0 S :    0.394579
   1 C :   -0.171505
   2 C :   -0.046607
   3 C :   -0.066482
   4 C :   -0.184821
   5 H :    0.026692
   6 C :   -0.030924
   7 H :    0.026344
   8 H :    0.031325
   9 C :   -0.036346
  10 H :    0.014856
  11 H :    0.027972
  12 C :   -0.066644
  13 H :    0.031090
  14 H :    0.024235
  15 H :    0.026732
  16 S :    0.376988
  17 C :   -0.175362
  18 C :   -0.073625
  19 C :   -0.064084
  20 C :   -0.181794
  21 H :    0.035846
  22 C :   -0.042660
  23 H :    0.033947
  24 H :    0.032518
  25 C :   -0.035549
  26 H :    0.026202
  27 H :    0.017541
  28 C :   -0.060886
  29 H :    0.024900
  30 H :    0.008912
  31 H :    0.025149
  32 H :    0.016114
  33 H :    0.035346

  Mayer bond orders larger than 0.100000
B(  0-S ,  1-C ) :   1.1187 B(  0-S ,  4-C ) :   1.1548 B(  1-C ,  2-C ) :   1.5934
B(  1-C ,  4-C ) :   0.1040 B(  1-C , 32-H ) :   0.9748 B(  2-C ,  3-C ) :   1.2326
B(  2-C ,  6-C ) :   1.0384 B(  3-C ,  4-C ) :   1.5702 B(  3-C ,  5-H ) :   0.9937
B(  4-C , 20-C ) :   1.0256 B(  6-C ,  7-H ) :   0.9089 B(  6-C ,  8-H ) :   0.9400
B(  6-C ,  9-C ) :   1.0727 B(  9-C , 10-H ) :   0.9527 B(  9-C , 11-H ) :   0.9648
B(  9-C , 12-C ) :   1.0642 B( 12-C , 13-H ) :   0.9741 B( 12-C , 14-H ) :   0.9761
B( 12-C , 15-H ) :   0.9757 B( 16-S , 17-C ) :   1.1449 B( 16-S , 20-C ) :   1.1269
B( 17-C , 18-C ) :   1.6185 B( 17-C , 33-H ) :   0.9606 B( 18-C , 19-C ) :   1.2441
B( 18-C , 21-H ) :   0.9853 B( 19-C , 20-C ) :   1.6107 B( 19-C , 22-C ) :   1.0253
B( 22-C , 23-H ) :   0.9386 B( 22-C , 24-H ) :   0.9243 B( 22-C , 25-C ) :   1.0678
B( 25-C , 26-H ) :   0.9603 B( 25-C , 27-H ) :   0.9518 B( 25-C , 28-C ) :   1.0776
B( 28-C , 29-H ) :   0.9729 B( 28-C , 30-H ) :   0.9712 B( 28-C , 31-H ) :   0.9744

Dispersion correction           -0.013215317
FINAL SINGLE POINT ENERGY     -1339.857878284058

DIPOLE MOMENT
-------------
                                X             Y             Z
Electronic contribution:    -12.43427      -6.39613     -12.33722
Nuclear contribution   :     12.64263       6.55838      12.43799
                        -----------------------------------------
Total Dipole Moment    :      0.20837       0.16225       0.10076
                        -----------------------------------------
Magnitude (a.u.)       :      0.28266
Magnitude (Debye)      :      0.71846

Rotational constants in cm-1:     0.022496     0.006924     0.005658
Rotational constants in MHz :   674.427384   207.588023   169.615793

                             ****ORCA TERMINATED NORMALLY****
TOTAL RUN TIME: 0 days 0 hours 0 minutes 29 seconds 301 msec
