                         Program Version 4.2.1 -  RELEASE  -
|  1> ! wB97X-D3 SP def2-SVP
|  2> %pal
|  3> nprocs 16
|  4> end
|  5>
|  6> * xyz 0 1
|  7> S 	 -34.2344 	 42.9537 	 99.0851
|  8> C 	 -35.7929 	 43.091 	 99.9019
|  9> C 	 -36.0349 	 44.3599 	 100.335
| 10> C 	 -35.1422 	 45.3243 	 99.8002
| 11> C 	 -34.2642 	 44.7153 	 98.9171
| 12> H 	 -35.1598 	 46.4445 	 99.9236
| 13> C 	 -37.3681 	 44.8001 	 101.063
| 14> H 	 -37.1055 	 45.2922 	 101.984
| 15> H 	 -37.9557 	 43.9604 	 101.358
| 16> C 	 -38.315 	 45.8158 	 100.357
| 17> H 	 -37.7656 	 46.7103 	 100.097
| 18> H 	 -38.7095 	 45.444 	 99.4192
| 19> C 	 -39.498 	 46.1951 	 101.21
| 20> H 	 -40.0369 	 47.0236 	 100.692
| 21> H 	 -40.1793 	 45.3207 	 101.238
| 22> H 	 -39.2181 	 46.5286 	 102.182
| 23> S 	 -31.5905 	 45.1761 	 98.6419
| 24> C 	 -31.1299 	 46.2629 	 97.354
| 25> C 	 -32.1935 	 46.8719 	 96.7656
| 26> C 	 -33.4197 	 46.3893 	 97.2753
| 27> C 	 -33.2147 	 45.4015 	 98.1968
| 28> H 	 -32.0767 	 47.4832 	 95.8816
| 29> C 	 -34.7286 	 46.8887 	 96.7377
| 30> H 	 -34.5198 	 47.9572 	 96.3725
| 31> H 	 -35.3142 	 47.056 	 97.6666
| 32> C 	 -35.6384 	 45.9988 	 95.8628
| 33> H 	 -36.6329 	 46.5311 	 95.637
| 34> H 	 -35.9727 	 45.1373 	 96.4677
| 35> C 	 -35.048 	 45.4678 	 94.5864
| 36> H 	 -34.357 	 44.6373 	 94.7995
| 37> H 	 -34.6841 	 46.2382 	 93.9073
| 38> H 	 -35.9278 	 45.1623 	 94.0188
| 39> H 	 -36.2468 	 42.2156 	 100.387
| 40> H 	 -30.0602 	 46.5344 	 97.1023
| 41> *
| 42>
| 43>                          ****END OF INPUT****

CARTESIAN COORDINATES (ANGSTROEM)
---------------------------------
  S    -34.234400   42.953700   99.085100
  C    -35.792900   43.091000   99.901900
  C    -36.034900   44.359900  100.335000
  C    -35.142200   45.324300   99.800200
  C    -34.264200   44.715300   98.917100
  H    -35.159800   46.444500   99.923600
  C    -37.368100   44.800100  101.063000
  H    -37.105500   45.292200  101.984000
  H    -37.955700   43.960400  101.358000
  C    -38.315000   45.815800  100.357000
  H    -37.765600   46.710300  100.097000
  H    -38.709500   45.444000   99.419200
  C    -39.498000   46.195100  101.210000
  H    -40.036900   47.023600  100.692000
  H    -40.179300   45.320700  101.238000
  H    -39.218100   46.528600  102.182000
  S    -31.590500   45.176100   98.641900
  C    -31.129900   46.262900   97.354000
  C    -32.193500   46.871900   96.765600
  C    -33.419700   46.389300   97.275300
  C    -33.214700   45.401500   98.196800
  H    -32.076700   47.483200   95.881600
  C    -34.728600   46.888700   96.737700
  H    -34.519800   47.957200   96.372500
  H    -35.314200   47.056000   97.666600
  C    -35.638400   45.998800   95.862800
  H    -36.632900   46.531100   95.637000
  H    -35.972700   45.137300   96.467700
  C    -35.048000   45.467800   94.586400
  H    -34.357000   44.637300   94.799500
  H    -34.684100   46.238200   93.907300
  H    -35.927800   45.162300   94.018800
  H    -36.246800   42.215600  100.387000
  H    -30.060200   46.534400   97.102300

 Total Charge           Charge          ....    0
 Multiplicity           Mult            ....    1
 Number of Electrons    NEL             ....  134
 Basis Dimension        Dim             ....  322

ORBITAL ENERGIES
----------------

  NO   OCC          E(Eh)            E(eV)
   0   2.0000     -88.966594     -2420.9041
   1   2.0000     -88.965985     -2420.8875
   2   2.0000     -10.327736      -281.0320
   3   2.0000     -10.315231      -280.6917
   4   2.0000     -10.313311      -280.6394
   5   2.0000     -10.312327      -280.6127
   6   2.0000     -10.304101      -280.3888
   7   2.0000     -10.299507      -280.2638
   8   2.0000     -10.293685      -280.1054
   9   2.0000     -10.293514      -280.1008
  10   2.0000     -10.293490      -280.1001
  11   2.0000     -10.289891      -280.0022
  12   2.0000     -10.286677      -279.9147
  13   2.0000     -10.284062      -279.8436
  14   2.0000     -10.280511      -279.7469
  15   2.0000     -10.271472      -279.5010
  16   2.0000      -8.082390      -219.9330
  17   2.0000      -8.080523      -219.8822
  18   2.0000      -6.040784      -164.3781
  19   2.0000      -6.038874      -164.3261
  20   2.0000      -6.036880      -164.2719
  21   2.0000      -6.035481      -164.2338
  22   2.0000      -6.033089      -164.1687
  23   2.0000      -6.031039      -164.1129
  24   2.0000      -1.014559       -27.6075
  25   2.0000      -0.987490       -26.8710
  26   2.0000      -0.908686       -24.7266
  27   2.0000      -0.905395       -24.6370
  28   2.0000      -0.872586       -23.7443
  29   2.0000      -0.855334       -23.2748
  30   2.0000      -0.848334       -23.0843
  31   2.0000      -0.812620       -22.1125
  32   2.0000      -0.783161       -21.3109
  33   2.0000      -0.769835       -20.9483
  34   2.0000      -0.706172       -19.2159
  35   2.0000      -0.695076       -18.9140
  36   2.0000      -0.681591       -18.5470
  37   2.0000      -0.662226       -18.0201
  38   2.0000      -0.637893       -17.3580
  39   2.0000      -0.617784       -16.8108
  40   2.0000      -0.586325       -15.9547
  41   2.0000      -0.571180       -15.5426
  42   2.0000      -0.559096       -15.2138
  43   2.0000      -0.550460       -14.9788
  44   2.0000      -0.540079       -14.6963
  45   2.0000      -0.519980       -14.1494
  46   2.0000      -0.519476       -14.1357
  47   2.0000      -0.507008       -13.7964
  48   2.0000      -0.500801       -13.6275
  49   2.0000      -0.491172       -13.3655
  50   2.0000      -0.488379       -13.2895
  51   2.0000      -0.481170       -13.0933
  52   2.0000      -0.472146       -12.8477
  53   2.0000      -0.466339       -12.6897
  54   2.0000      -0.462464       -12.5843
  55   2.0000      -0.450597       -12.2614
  56   2.0000      -0.445370       -12.1191
  57   2.0000      -0.433669       -11.8007
  58   2.0000      -0.425956       -11.5908
  59   2.0000      -0.424126       -11.5411
  60   2.0000      -0.419460       -11.4141
  61   2.0000      -0.417163       -11.3516
  62   2.0000      -0.411143       -11.1878
  63   2.0000      -0.344048        -9.3620
  64   2.0000      -0.332643        -9.0517
  65   2.0000      -0.329361        -8.9624
  66   2.0000      -0.293986        -7.9998
  67   0.0000       0.030756         0.8369
  68   0.0000       0.065247         1.7755
  69   0.0000       0.105043         2.8584
  70   0.0000       0.118962         3.2371
  71   0.0000       0.130765         3.5583

MULLIKEN ATOMIC CHARGES
-----------------------
   0 S :    0.097494
   1 C :   -0.114250
   2 C :   -0.057069
   3 C :    0.017923
   4 C :   -0.195891
   5 H :    0.051194
   6 C :    0.068542
   7 H :    0.018191
   8 H :    0.005869
   9 C :   -0.067607
  10 H :    0.017639
  11 H :    0.025434
  12 C :   -0.056635
  13 H :    0.039762
  14 H :    0.037250
  15 H :    0.026172
  16 S :    0.128335
  17 C :   -0.116168
  18 C :   -0.030524
  19 C :   -0.059879
  20 C :   -0.155635
  21 H :    0.020762
  22 C :    0.074659
  23 H :    0.031533
  24 H :    0.010644
  25 C :   -0.093194
  26 H :    0.033864
  27 H :    0.040809
  28 C :   -0.029411
  29 H :    0.058010
  30 H :    0.022321
  31 H :    0.022466
  32 H :    0.057714
  33 H :    0.069678
Sum of atomic charges:   -0.0000000

LOEWDIN ATOMIC CHARGES
----------------------
   0 S :    0.383473
   1 C :   -0.197833
   2 C :   -0.060670
   3 C :   -0.062109
   4 C :   -0.178790
   5 H :    0.044683
   6 C :   -0.024774
   7 H :    0.027359
   8 H :    0.021550
   9 C :   -0.040811
  10 H :    0.016894
  11 H :    0.022341
  12 C :   -0.061318
  13 H :    0.033748
  14 H :    0.028476
  15 H :    0.017328
  16 S :    0.426721
  17 C :   -0.194402
  18 C :   -0.071271
  19 C :   -0.063835
  20 C :   -0.224436
  21 H :    0.033747
  22 C :   -0.045633
  23 H :    0.036849
  24 H :    0.033344
  25 C :   -0.047583
  26 H :    0.032029
  27 H :    0.031187
  28 C :   -0.073250
  29 H :    0.033563
  30 H :    0.023230
  31 H :    0.030227
  32 H :    0.030900
  33 H :    0.039067

  Mayer bond orders larger than 0.100000
B(  0-S ,  1-C ) :   1.1160 B(  0-S ,  4-C ) :   1.1449 B(  1-C ,  2-C ) :   1.6542
B(  1-C , 32-H ) :   0.9574 B(  2-C ,  3-C ) :   1.2169 B(  2-C ,  6-C ) :   1.0178
B(  3-C ,  4-C ) :   1.5935 B(  3-C ,  5-H ) :   0.9796 B(  4-C , 20-C ) :   1.0297
B(  6-C ,  7-H ) :   0.9363 B(  6-C ,  8-H ) :   0.9507 B(  6-C ,  9-C ) :   1.0617
B(  9-C , 10-H ) :   0.9519 B(  9-C , 11-H ) :   0.9554 B(  9-C , 12-C ) :   1.0896
B( 12-C , 13-H ) :   0.9723 B( 12-C , 14-H ) :   0.9761 B( 12-C , 15-H ) :   0.9754
B( 16-S , 17-C ) :   1.1465 B( 16-S , 20-C ) :   1.1583 B( 17-C , 18-C ) :   1.6244
B( 17-C , 33-H ) :   0.9574 B( 18-C , 19-C ) :   1.2445 B( 18-C , 21-H ) :   0.9906
B( 19-C , 20-C ) :   1.6054 B( 19-C , 22-C ) :   1.0380 B( 22-C , 23-H ) :   0.9363
B( 22-C , 24-H ) :   0.9140 B( 22-C , 25-C ) :   1.0735 B( 25-C , 26-H ) :   0.9545
B( 25-C , 27-H ) :   0.9492 B( 25-C , 28-C ) :   1.0852 B( 28-C , 29-H ) :   0.9720
B( 28-C , 30-H ) :   0.9725 B( 28-C , 31-H ) :   0.9688

Dispersion correction           -0.014921015
FINAL SINGLE POINT ENERGY     -1339.870543983440

DIPOLE MOMENT
-------------
                                X             Y             Z
Electronic contribution:     26.27895     -11.17525       4.44133
Nuclear contribution   :    -26.75530      11.60887      -4.43809
                        -----------------------------------------
Total Dipole Moment    :     -0.47635       0.43362       0.00323
                        -----------------------------------------
Magnitude (a.u.)       :      0.64416
Magnitude (Debye)      :      1.63733

Rotational constants in cm-1:     0.019045     0.008822     0.007411
Rotational constants in MHz :   570.956393   264.471603   222.181476

                             ****ORCA TERMINATED NORMALLY****
TOTAL RUN TIME: 0 days 0 hours 0 minutes 30 seconds 873 msec
