                         Program Version 4.2.1 -  RELEASE  -
|  1> ! wB97X-D3 SP def2-SVP
|  2> %pal
|  3> nprocs 16
|  4> end
|  5>
|  6> * xyz 0 1
|  7> S 	 42.8696 	 25.567 	 100.916
|  8> C 	 43.1616 	 26.523 	 99.445
|  9> C 	 43.8562 	 25.8365 	 98.4714
| 10> C 	 44.0767 	 24.4702 	 98.855
| 11> C 	 43.7372 	 24.2071 	 100.16
| 12> H 	 44.6083 	 23.7637 	 98.2542
| 13> C 	 44.1097 	 26.405 	 97.1021
| 14> H 	 44.7328 	 25.7304 	 96.5613
| 15> H 	 44.6811 	 27.3017 	 97.3308
| 16> C 	 42.8941 	 26.6654 	 96.2427
| 17> H 	 42.4636 	 25.6311 	 96.0549
| 18> H 	 42.0627 	 27.1051 	 96.82
| 19> C 	 43.2061 	 27.3356 	 94.8823
| 20> H 	 42.4363 	 27.8831 	 94.391
| 21> H 	 44.1215 	 27.8972 	 94.9345
| 22> H 	 43.3646 	 26.5488 	 94.083
| 23> S 	 44.9158 	 22.78 	 102.179
| 24> C 	 44.4008 	 21.1594 	 102.604
| 25> C 	 43.5259 	 20.6722 	 101.616
| 26> C 	 43.2454 	 21.662 	 100.609
| 27> C 	 43.8884 	 22.8706 	 100.77
| 28> H 	 42.9896 	 19.6819 	 101.658
| 29> C 	 42.2135 	 21.4104 	 99.5252
| 30> H 	 42.3662 	 22.0433 	 98.6497
| 31> H 	 41.2917 	 21.5169 	 100.083
| 32> C 	 42.1338 	 20.0511 	 98.869
| 33> H 	 41.3024 	 20.1434 	 98.1702
| 34> H 	 41.8216 	 19.2583 	 99.5309
| 35> C 	 43.44 	 19.6425 	 98.2119
| 36> H 	 44.1099 	 20.3798 	 97.7249
| 37> H 	 43.4156 	 18.7499 	 97.6067
| 38> H 	 44.0533 	 19.3779 	 99.0469
| 39> H 	 42.8892 	 27.5098 	 99.1845
| 40> H 	 44.6647 	 20.6734 	 103.546
| 41> *
| 42>
| 43>                          ****END OF INPUT****

CARTESIAN COORDINATES (ANGSTROEM)
---------------------------------
  S     42.869600   25.567000  100.916000
  C     43.161600   26.523000   99.445000
  C     43.856200   25.836500   98.471400
  C     44.076700   24.470200   98.855000
  C     43.737200   24.207100  100.160000
  H     44.608300   23.763700   98.254200
  C     44.109700   26.405000   97.102100
  H     44.732800   25.730400   96.561300
  H     44.681100   27.301700   97.330800
  C     42.894100   26.665400   96.242700
  H     42.463600   25.631100   96.054900
  H     42.062700   27.105100   96.820000
  C     43.206100   27.335600   94.882300
  H     42.436300   27.883100   94.391000
  H     44.121500   27.897200   94.934500
  H     43.364600   26.548800   94.083000
  S     44.915800   22.780000  102.179000
  C     44.400800   21.159400  102.604000
  C     43.525900   20.672200  101.616000
  C     43.245400   21.662000  100.609000
  C     43.888400   22.870600  100.770000
  H     42.989600   19.681900  101.658000
  C     42.213500   21.410400   99.525200
  H     42.366200   22.043300   98.649700
  H     41.291700   21.516900  100.083000
  C     42.133800   20.051100   98.869000
  H     41.302400   20.143400   98.170200
  H     41.821600   19.258300   99.530900
  C     43.440000   19.642500   98.211900
  H     44.109900   20.379800   97.724900
  H     43.415600   18.749900   97.606700
  H     44.053300   19.377900   99.046900
  H     42.889200   27.509800   99.184500
  H     44.664700   20.673400  103.546000

 Total Charge           Charge          ....    0
 Multiplicity           Mult            ....    1
 Number of Electrons    NEL             ....  134
 Basis Dimension        Dim             ....  322

ORBITAL ENERGIES
----------------

  NO   OCC          E(Eh)            E(eV)
   0   2.0000     -88.972856     -2421.0745
   1   2.0000     -88.961037     -2420.7529
   2   2.0000     -10.331817      -281.1430
   3   2.0000     -10.324323      -280.9391
   4   2.0000     -10.323092      -280.9056
   5   2.0000     -10.311988      -280.6035
   6   2.0000     -10.302828      -280.3542
   7   2.0000     -10.302576      -280.3474
   8   2.0000     -10.297729      -280.2154
   9   2.0000     -10.294307      -280.1223
  10   2.0000     -10.293302      -280.0950
  11   2.0000     -10.289448      -279.9901
  12   2.0000     -10.286033      -279.8972
  13   2.0000     -10.283731      -279.8345
  14   2.0000     -10.282592      -279.8036
  15   2.0000     -10.271277      -279.4957
  16   2.0000      -8.086045      -220.0325
  17   2.0000      -8.076007      -219.7593
  18   2.0000      -6.044728      -164.4854
  19   2.0000      -6.040899      -164.3812
  20   2.0000      -6.036573      -164.2635
  21   2.0000      -6.034484      -164.2067
  22   2.0000      -6.030273      -164.0921
  23   2.0000      -6.026993      -164.0028
  24   2.0000      -1.002493       -27.2792
  25   2.0000      -0.981278       -26.7019
  26   2.0000      -0.915554       -24.9135
  27   2.0000      -0.913770       -24.8649
  28   2.0000      -0.865636       -23.5552
  29   2.0000      -0.849029       -23.1032
  30   2.0000      -0.843996       -22.9663
  31   2.0000      -0.815057       -22.1788
  32   2.0000      -0.784604       -21.3502
  33   2.0000      -0.775535       -21.1034
  34   2.0000      -0.708072       -19.2676
  35   2.0000      -0.705297       -19.1921
  36   2.0000      -0.693969       -18.8839
  37   2.0000      -0.657864       -17.9014
  38   2.0000      -0.638185       -17.3659
  39   2.0000      -0.615912       -16.7598
  40   2.0000      -0.599218       -16.3055
  41   2.0000      -0.575571       -15.6621
  42   2.0000      -0.563215       -15.3259
  43   2.0000      -0.554665       -15.0932
  44   2.0000      -0.536433       -14.5971
  45   2.0000      -0.529753       -14.4153
  46   2.0000      -0.519953       -14.1486
  47   2.0000      -0.508961       -13.8495
  48   2.0000      -0.501638       -13.6503
  49   2.0000      -0.495873       -13.4934
  50   2.0000      -0.491676       -13.3792
  51   2.0000      -0.480672       -13.0798
  52   2.0000      -0.469475       -12.7751
  53   2.0000      -0.463434       -12.6107
  54   2.0000      -0.460496       -12.5307
  55   2.0000      -0.449092       -12.2204
  56   2.0000      -0.444096       -12.0845
  57   2.0000      -0.440745       -11.9933
  58   2.0000      -0.435558       -11.8521
  59   2.0000      -0.429752       -11.6942
  60   2.0000      -0.420899       -11.4532
  61   2.0000      -0.407706       -11.0942
  62   2.0000      -0.403926       -10.9914
  63   2.0000      -0.338509        -9.2113
  64   2.0000      -0.329188        -8.9577
  65   2.0000      -0.326981        -8.8976
  66   2.0000      -0.302047        -8.2191
  67   0.0000       0.035161         0.9568
  68   0.0000       0.059022         1.6061
  69   0.0000       0.111458         3.0329
  70   0.0000       0.121414         3.3039
  71   0.0000       0.126448         3.4408

MULLIKEN ATOMIC CHARGES
-----------------------
   0 S :    0.132928
   1 C :   -0.096530
   2 C :   -0.111703
   3 C :    0.037440
   4 C :   -0.128181
   5 H :    0.007391
   6 C :    0.087914
   7 H :    0.010265
   8 H :    0.034778
   9 C :   -0.092874
  10 H :    0.030321
  11 H :    0.029597
  12 C :   -0.030802
  13 H :    0.031616
  14 H :    0.032765
  15 H :    0.029914
  16 S :    0.095582
  17 C :   -0.105525
  18 C :   -0.042311
  19 C :   -0.054970
  20 C :   -0.196575
  21 H :    0.043309
  22 C :    0.078281
  23 H :    0.032757
  24 H :    0.039986
  25 C :   -0.062596
  26 H :    0.025839
  27 H :    0.016174
  28 C :   -0.046566
  29 H :    0.029895
  30 H :    0.032082
  31 H :    0.015890
  32 H :    0.023387
  33 H :    0.070524
Sum of atomic charges:    0.0000000

LOEWDIN ATOMIC CHARGES
----------------------
   0 S :    0.392277
   1 C :   -0.182443
   2 C :   -0.060751
   3 C :   -0.052130
   4 C :   -0.188101
   5 H :    0.028473
   6 C :   -0.033346
   7 H :    0.025770
   8 H :    0.032945
   9 C :   -0.047782
  10 H :    0.032134
  11 H :    0.022468
  12 C :   -0.070143
  13 H :    0.025092
  14 H :    0.023660
  15 H :    0.034870
  16 S :    0.406439
  17 C :   -0.183066
  18 C :   -0.083729
  19 C :   -0.058512
  20 C :   -0.210124
  21 H :    0.041369
  22 C :   -0.028796
  23 H :    0.033843
  24 H :    0.039233
  25 C :   -0.040641
  26 H :    0.024132
  27 H :    0.017965
  28 C :   -0.074896
  29 H :    0.028643
  30 H :    0.024418
  31 H :    0.026229
  32 H :    0.020865
  33 H :    0.033632

  Mayer bond orders larger than 0.100000
B(  0-S ,  1-C ) :   1.1252 B(  0-S ,  4-C ) :   1.1287 B(  1-C ,  2-C ) :   1.6392
B(  1-C , 32-H ) :   0.9648 B(  2-C ,  3-C ) :   1.2296 B(  2-C ,  6-C ) :   1.0231
B(  3-C ,  4-C ) :   1.5984 B(  3-C ,  5-H ) :   0.9938 B(  4-C , 20-C ) :   1.0227
B(  6-C ,  7-H ) :   0.9404 B(  6-C ,  8-H ) :   0.9272 B(  6-C ,  9-C ) :   1.0646
B(  9-C , 10-H ) :   0.9561 B(  9-C , 11-H ) :   0.9631 B(  9-C , 12-C ) :   1.0553
B( 12-C , 13-H ) :   0.9755 B( 12-C , 14-H ) :   0.9798 B( 12-C , 15-H ) :   0.9741
B( 16-S , 17-C ) :   1.1784 B( 16-S , 20-C ) :   1.1358 B( 17-C , 18-C ) :   1.5688
B( 17-C , 33-H ) :   0.9688 B( 18-C , 19-C ) :   1.2546 B( 18-C , 21-H ) :   0.9786
B( 19-C , 20-C ) :   1.6107 B( 19-C , 22-C ) :   1.0300 B( 22-C , 23-H ) :   0.9444
B( 22-C , 24-H ) :   0.9253 B( 22-C , 25-C ) :   1.0862 B( 25-C , 26-H ) :   0.9563
B( 25-C , 27-H ) :   0.9459 B( 25-C , 28-C ) :   1.0687 B( 28-C , 29-H ) :   0.9761
B( 28-C , 30-H ) :   0.9743 B( 28-C , 31-H ) :   0.9654

Dispersion correction           -0.014226955
FINAL SINGLE POINT ENERGY     -1339.868912075963

DIPOLE MOMENT
-------------
                                X             Y             Z
Electronic contribution:      5.45523       4.23056      27.65380
Nuclear contribution   :     -5.71458      -4.43990     -28.21523
                        -----------------------------------------
Total Dipole Moment    :     -0.25935      -0.20934      -0.56144
                        -----------------------------------------
Magnitude (a.u.)       :      0.65291
Magnitude (Debye)      :      1.65957

Rotational constants in cm-1:     0.019970     0.007903     0.006241
Rotational constants in MHz :   598.689028   236.931740   187.101947

                             ****ORCA TERMINATED NORMALLY****
TOTAL RUN TIME: 0 days 0 hours 0 minutes 30 seconds 130 msec
