                         Program Version 4.2.1 -  RELEASE  -
|  1> ! wB97X-D3 SP def2-SVP
|  2> %pal
|  3> nprocs 16
|  4> end
|  5>
|  6> * xyz 0 1
|  7> S 	 -69.5652 	 37.9074 	 122.971
|  8> C 	 -70.0993 	 39.5292 	 123.313
|  9> C 	 -69.103 	 40.4707 	 123.153
| 10> C 	 -67.8561 	 39.8019 	 122.805
| 11> C 	 -67.9403 	 38.4234 	 122.795
| 12> H 	 -66.8465 	 40.2629 	 122.786
| 13> C 	 -69.2836 	 41.9536 	 123.337
| 14> H 	 -69.9703 	 42.43 	 122.658
| 15> H 	 -68.2789 	 42.3572 	 122.993
| 16> C 	 -69.5301 	 42.3059 	 124.778
| 17> H 	 -70.481 	 41.7616 	 125.018
| 18> H 	 -68.7614 	 41.8869 	 125.453
| 19> C 	 -69.541 	 43.8598 	 124.952
| 20> H 	 -68.7075 	 44.3754 	 124.439
| 21> H 	 -70.4531 	 44.1744 	 124.402
| 22> H 	 -69.717 	 44.1692 	 126.039
| 23> S 	 -67.1085 	 36.2583 	 121.312
| 24> C 	 -65.5775 	 35.5702 	 121.721
| 25> C 	 -64.8673 	 36.3226 	 122.67
| 26> C 	 -65.6174 	 37.394 	 123.182
| 27> C 	 -66.8541 	 37.4954 	 122.583
| 28> H 	 -63.7797 	 36.1403 	 122.815
| 29> C 	 -65.0035 	 38.4264 	 124.122
| 30> H 	 -64.7305 	 37.9651 	 125.093
| 31> H 	 -65.6768 	 39.2275 	 124.424
| 32> C 	 -63.8318 	 39.2189 	 123.492
| 33> H 	 -63.2352 	 38.4789 	 122.97
| 34> H 	 -63.3041 	 39.6372 	 124.327
| 35> C 	 -64.0781 	 40.2556 	 122.317
| 36> H 	 -63.2344 	 40.6343 	 121.722
| 37> H 	 -64.5527 	 41.1475 	 122.671
| 38> H 	 -64.8532 	 39.8554 	 121.649
| 39> H 	 -71.1292 	 39.7269 	 123.605
| 40> H 	 -64.9747 	 34.8461 	 121.153
| 41> *
| 42>
| 43>                          ****END OF INPUT****

CARTESIAN COORDINATES (ANGSTROEM)
---------------------------------
  S    -69.565200   37.907400  122.971000
  C    -70.099300   39.529200  123.313000
  C    -69.103000   40.470700  123.153000
  C    -67.856100   39.801900  122.805000
  C    -67.940300   38.423400  122.795000
  H    -66.846500   40.262900  122.786000
  C    -69.283600   41.953600  123.337000
  H    -69.970300   42.430000  122.658000
  H    -68.278900   42.357200  122.993000
  C    -69.530100   42.305900  124.778000
  H    -70.481000   41.761600  125.018000
  H    -68.761400   41.886900  125.453000
  C    -69.541000   43.859800  124.952000
  H    -68.707500   44.375400  124.439000
  H    -70.453100   44.174400  124.402000
  H    -69.717000   44.169200  126.039000
  S    -67.108500   36.258300  121.312000
  C    -65.577500   35.570200  121.721000
  C    -64.867300   36.322600  122.670000
  C    -65.617400   37.394000  123.182000
  C    -66.854100   37.495400  122.583000
  H    -63.779700   36.140300  122.815000
  C    -65.003500   38.426400  124.122000
  H    -64.730500   37.965100  125.093000
  H    -65.676800   39.227500  124.424000
  C    -63.831800   39.218900  123.492000
  H    -63.235200   38.478900  122.970000
  H    -63.304100   39.637200  124.327000
  C    -64.078100   40.255600  122.317000
  H    -63.234400   40.634300  121.722000
  H    -64.552700   41.147500  122.671000
  H    -64.853200   39.855400  121.649000
  H    -71.129200   39.726900  123.605000
  H    -64.974700   34.846100  121.153000

 Total Charge           Charge          ....    0
 Multiplicity           Mult            ....    1
 Number of Electrons    NEL             ....  134
 Basis Dimension        Dim             ....  322

ORBITAL ENERGIES
----------------

  NO   OCC          E(Eh)            E(eV)
   0   2.0000     -88.970913     -2421.0216
   1   2.0000     -88.964677     -2420.8519
   2   2.0000     -10.327740      -281.0321
   3   2.0000     -10.323565      -280.9185
   4   2.0000     -10.318501      -280.7807
   5   2.0000     -10.311819      -280.5989
   6   2.0000     -10.303184      -280.3639
   7   2.0000     -10.302958      -280.3577
   8   2.0000     -10.296801      -280.1902
   9   2.0000     -10.296102      -280.1712
  10   2.0000     -10.295674      -280.1595
  11   2.0000     -10.293366      -280.0967
  12   2.0000     -10.292854      -280.0828
  13   2.0000     -10.290953      -280.0311
  14   2.0000     -10.290539      -280.0198
  15   2.0000     -10.282782      -279.8087
  16   2.0000      -8.085175      -220.0088
  17   2.0000      -8.080323      -219.8768
  18   2.0000      -6.043631      -164.4556
  19   2.0000      -6.039816      -164.3517
  20   2.0000      -6.038744      -164.3226
  21   2.0000      -6.035948      -164.2465
  22   2.0000      -6.034704      -164.2127
  23   2.0000      -6.031123      -164.1152
  24   2.0000      -1.009690       -27.4751
  25   2.0000      -0.985585       -26.8191
  26   2.0000      -0.916898       -24.9501
  27   2.0000      -0.906738       -24.6736
  28   2.0000      -0.867569       -23.6078
  29   2.0000      -0.849856       -23.1257
  30   2.0000      -0.843549       -22.9541
  31   2.0000      -0.809430       -22.0257
  32   2.0000      -0.787207       -21.4210
  33   2.0000      -0.771827       -21.0025
  34   2.0000      -0.706501       -19.2249
  35   2.0000      -0.702143       -19.1063
  36   2.0000      -0.692866       -18.8538
  37   2.0000      -0.658618       -17.9219
  38   2.0000      -0.642242       -17.4763
  39   2.0000      -0.617665       -16.8075
  40   2.0000      -0.601011       -16.3544
  41   2.0000      -0.566824       -15.4241
  42   2.0000      -0.559915       -15.2361
  43   2.0000      -0.548142       -14.9157
  44   2.0000      -0.535890       -14.5823
  45   2.0000      -0.524782       -14.2800
  46   2.0000      -0.517007       -14.0685
  47   2.0000      -0.509278       -13.8582
  48   2.0000      -0.500231       -13.6120
  49   2.0000      -0.496136       -13.5005
  50   2.0000      -0.487840       -13.2748
  51   2.0000      -0.477127       -12.9833
  52   2.0000      -0.471487       -12.8298
  53   2.0000      -0.467402       -12.7187
  54   2.0000      -0.462743       -12.5919
  55   2.0000      -0.453389       -12.3373
  56   2.0000      -0.449174       -12.2226
  57   2.0000      -0.444168       -12.0864
  58   2.0000      -0.438565       -11.9340
  59   2.0000      -0.424643       -11.5551
  60   2.0000      -0.421291       -11.4639
  61   2.0000      -0.411371       -11.1940
  62   2.0000      -0.400917       -10.9095
  63   2.0000      -0.346314        -9.4237
  64   2.0000      -0.337283        -9.1779
  65   2.0000      -0.329767        -8.9734
  66   2.0000      -0.289988        -7.8910
  67   0.0000       0.031645         0.8611
  68   0.0000       0.066376         1.8062
  69   0.0000       0.103595         2.8190
  70   0.0000       0.123506         3.3608
  71   0.0000       0.126822         3.4510

MULLIKEN ATOMIC CHARGES
-----------------------
   0 S :    0.119981
   1 C :   -0.141157
   2 C :   -0.078025
   3 C :    0.032289
   4 C :   -0.154292
   5 H :   -0.003834
   6 C :    0.056132
   7 H :    0.035402
   8 H :    0.016085
   9 C :   -0.096549
  10 H :    0.034699
  11 H :    0.039047
  12 C :   -0.060194
  13 H :    0.044581
  14 H :    0.025797
  15 H :    0.054030
  16 S :    0.120050
  17 C :   -0.083067
  18 C :   -0.087786
  19 C :   -0.002594
  20 C :   -0.175109
  21 H :    0.041919
  22 C :    0.046835
  23 H :    0.041515
  24 H :    0.022191
  25 C :   -0.067140
  26 H :    0.023258
  27 H :    0.033623
  28 C :   -0.069146
  29 H :    0.047982
  30 H :    0.023168
  31 H :    0.046711
  32 H :    0.051933
  33 H :    0.061665
Sum of atomic charges:    0.0000000

LOEWDIN ATOMIC CHARGES
----------------------
   0 S :    0.422854
   1 C :   -0.200583
   2 C :   -0.060129
   3 C :   -0.071085
   4 C :   -0.208871
   5 H :    0.031985
   6 C :   -0.037243
   7 H :    0.028900
   8 H :    0.032225
   9 C :   -0.044089
  10 H :    0.027847
  11 H :    0.026797
  12 C :   -0.076346
  13 H :    0.029495
  14 H :    0.026472
  15 H :    0.035360
  16 S :    0.403828
  17 C :   -0.199720
  18 C :   -0.076114
  19 C :   -0.059005
  20 C :   -0.182597
  21 H :    0.038788
  22 C :   -0.031517
  23 H :    0.038810
  24 H :    0.027982
  25 C :   -0.033443
  26 H :    0.020139
  27 H :    0.022664
  28 C :   -0.074401
  29 H :    0.034509
  30 H :    0.015010
  31 H :    0.030372
  32 H :    0.026114
  33 H :    0.034992

  Mayer bond orders larger than 0.100000
B(  0-S ,  1-C ) :   1.1431 B(  0-S ,  4-C ) :   1.1625 B(  1-C ,  2-C ) :   1.6010
B(  1-C , 32-H ) :   0.9700 B(  2-C ,  3-C ) :   1.2477 B(  2-C ,  6-C ) :   1.0134
B(  3-C ,  4-C ) :   1.5722 B(  3-C ,  5-H ) :   0.9759 B(  4-C , 20-C ) :   1.0381
B(  6-C ,  7-H ) :   0.9429 B(  6-C ,  8-H ) :   0.9385 B(  6-C ,  9-C ) :   1.0547
B(  9-C , 10-H ) :   0.9582 B(  9-C , 11-H ) :   0.9568 B(  9-C , 12-C ) :   1.0654
B( 12-C , 13-H ) :   0.9741 B( 12-C , 14-H ) :   0.9731 B( 12-C , 15-H ) :   0.9749
B( 16-S , 17-C ) :   1.1570 B( 16-S , 20-C ) :   1.1366 B( 17-C , 18-C ) :   1.6188
B( 17-C , 20-C ) :   0.1051 B( 17-C , 33-H ) :   0.9587 B( 18-C , 19-C ) :   1.2424
B( 18-C , 21-H ) :   0.9758 B( 19-C , 20-C ) :   1.6053 B( 19-C , 22-C ) :   1.0492
B( 22-C , 23-H ) :   0.9326 B( 22-C , 24-H ) :   0.9351 B( 22-C , 25-C ) :   1.0621
B( 25-C , 26-H ) :   0.9622 B( 25-C , 27-H ) :   0.9575 B( 25-C , 28-C ) :   1.0614
B( 28-C , 29-H ) :   0.9733 B( 28-C , 30-H ) :   0.9682 B( 28-C , 31-H ) :   0.9689

Dispersion correction           -0.014803921
FINAL SINGLE POINT ENERGY     -1339.875567379049

DIPOLE MOMENT
-------------
                                X             Y             Z
Electronic contribution:     -9.29674     -27.30183      -9.87247
Nuclear contribution   :      9.67755      27.88263      10.04318
                        -----------------------------------------
Total Dipole Moment    :      0.38081       0.58080       0.17071
                        -----------------------------------------
Magnitude (a.u.)       :      0.71518
Magnitude (Debye)      :      1.81785

Rotational constants in cm-1:     0.020511     0.008692     0.006580
Rotational constants in MHz :   614.907425   260.585336   197.262788

                             ****ORCA TERMINATED NORMALLY****
TOTAL RUN TIME: 0 days 0 hours 0 minutes 32 seconds 954 msec
