                         Program Version 4.2.1 -  RELEASE  -
|  1> ! wB97X-D3 SP def2-SVP
|  2> %pal
|  3> nprocs 16
|  4> end
|  5>
|  6> * xyz 0 1
|  7> S 	 -37.8723 	 0.136515 	 99.4586
|  8> C 	 -39.1935 	 -0.800376 	 100.022
|  9> C 	 -38.9325 	 -2.22003 	 99.9219
| 10> C 	 -37.6216 	 -2.50798 	 99.3072
| 11> C 	 -36.9667 	 -1.31659 	 98.9137
| 12> H 	 -37.1317 	 -3.45509 	 99.1668
| 13> C 	 -39.8508 	 -3.30977 	 100.364
| 14> H 	 -40.8939 	 -2.87074 	 100.519
| 15> H 	 -39.6691 	 -3.69355 	 101.354
| 16> C 	 -40.0584 	 -4.62037 	 99.5392
| 17> H 	 -39.0875 	 -5.078 	 99.2335
| 18> H 	 -40.6318 	 -5.31218 	 100.24
| 19> C 	 -40.9303 	 -4.38222 	 98.3242
| 20> H 	 -41.9933 	 -4.28748 	 98.5416
| 21> H 	 -40.5815 	 -3.59057 	 97.6986
| 22> H 	 -40.9357 	 -5.33822 	 97.7713
| 23> S 	 -34.3731 	 -1.00178 	 99.7804
| 24> C 	 -33.0978 	 -1.3705 	 98.5842
| 25> C 	 -33.5676 	 -1.53308 	 97.2829
| 26> C 	 -34.9909 	 -1.49062 	 97.2319
| 27> C 	 -35.5685 	 -1.22169 	 98.4703
| 28> H 	 -32.7554 	 -1.73036 	 96.5695
| 29> C 	 -35.7626 	 -1.85005 	 95.9774
| 30> H 	 -36.5361 	 -2.58805 	 96.2992
| 31> H 	 -35.0464 	 -2.42499 	 95.3027
| 32> C 	 -36.4084 	 -0.690285 	 95.2608
| 33> H 	 -35.5977 	 0.128946 	 95.1226
| 34> H 	 -37.1571 	 -0.274118 	 95.8336
| 35> C 	 -37.1176 	 -1.24108 	 93.8977
| 36> H 	 -37.4603 	 -0.438702 	 93.2876
| 37> H 	 -37.8668 	 -1.97185 	 94.0379
| 38> H 	 -36.4258 	 -1.71754 	 93.2562
| 39> H 	 -40.0748 	 -0.36011 	 100.61
| 40> H 	 -32.0885 	 -1.20289 	 98.7161
| 41> *
| 42>
| 43>                          ****END OF INPUT****

CARTESIAN COORDINATES (ANGSTROEM)
---------------------------------
  S    -37.872300    0.136515   99.458600
  C    -39.193500   -0.800376  100.022000
  C    -38.932500   -2.220030   99.921900
  C    -37.621600   -2.507980   99.307200
  C    -36.966700   -1.316590   98.913700
  H    -37.131700   -3.455090   99.166800
  C    -39.850800   -3.309770  100.364000
  H    -40.893900   -2.870740  100.519000
  H    -39.669100   -3.693550  101.354000
  C    -40.058400   -4.620370   99.539200
  H    -39.087500   -5.078000   99.233500
  H    -40.631800   -5.312180  100.240000
  C    -40.930300   -4.382220   98.324200
  H    -41.993300   -4.287480   98.541600
  H    -40.581500   -3.590570   97.698600
  H    -40.935700   -5.338220   97.771300
  S    -34.373100   -1.001780   99.780400
  C    -33.097800   -1.370500   98.584200
  C    -33.567600   -1.533080   97.282900
  C    -34.990900   -1.490620   97.231900
  C    -35.568500   -1.221690   98.470300
  H    -32.755400   -1.730360   96.569500
  C    -35.762600   -1.850050   95.977400
  H    -36.536100   -2.588050   96.299200
  H    -35.046400   -2.424990   95.302700
  C    -36.408400   -0.690285   95.260800
  H    -35.597700    0.128946   95.122600
  H    -37.157100   -0.274118   95.833600
  C    -37.117600   -1.241080   93.897700
  H    -37.460300   -0.438702   93.287600
  H    -37.866800   -1.971850   94.037900
  H    -36.425800   -1.717540   93.256200
  H    -40.074800   -0.360110  100.610000
  H    -32.088500   -1.202890   98.716100

 Total Charge           Charge          ....    0
 Multiplicity           Mult            ....    1
 Number of Electrons    NEL             ....  134
 Basis Dimension        Dim             ....  322

ORBITAL ENERGIES
----------------

  NO   OCC          E(Eh)            E(eV)
   0   2.0000     -88.970896     -2421.0212
   1   2.0000     -88.967187     -2420.9202
   2   2.0000     -10.335069      -281.2315
   3   2.0000     -10.328002      -281.0392
   4   2.0000     -10.326431      -280.9965
   5   2.0000     -10.314531      -280.6727
   6   2.0000     -10.313286      -280.6388
   7   2.0000     -10.306680      -280.4590
   8   2.0000     -10.305517      -280.4274
   9   2.0000     -10.297242      -280.2022
  10   2.0000     -10.296429      -280.1801
  11   2.0000     -10.294367      -280.1240
  12   2.0000     -10.293056      -280.0883
  13   2.0000     -10.289815      -280.0001
  14   2.0000     -10.271923      -279.5132
  15   2.0000     -10.271363      -279.4980
  16   2.0000      -8.085011      -220.0043
  17   2.0000      -8.080733      -219.8879
  18   2.0000      -6.043442      -164.4504
  19   2.0000      -6.039485      -164.3427
  20   2.0000      -6.039279      -164.3371
  21   2.0000      -6.036015      -164.2483
  22   2.0000      -6.035513      -164.2347
  23   2.0000      -6.031403      -164.1228
  24   2.0000      -0.996227       -27.1087
  25   2.0000      -0.973663       -26.4947
  26   2.0000      -0.907130       -24.6843
  27   2.0000      -0.901939       -24.5430
  28   2.0000      -0.865926       -23.5631
  29   2.0000      -0.847238       -23.0545
  30   2.0000      -0.842833       -22.9346
  31   2.0000      -0.811840       -22.0913
  32   2.0000      -0.780343       -21.2342
  33   2.0000      -0.767316       -20.8797
  34   2.0000      -0.710560       -19.3353
  35   2.0000      -0.695655       -18.9297
  36   2.0000      -0.684597       -18.6288
  37   2.0000      -0.658098       -17.9078
  38   2.0000      -0.639885       -17.4122
  39   2.0000      -0.617498       -16.8030
  40   2.0000      -0.588116       -16.0034
  41   2.0000      -0.566242       -15.4082
  42   2.0000      -0.558349       -15.1934
  43   2.0000      -0.546427       -14.8690
  44   2.0000      -0.537133       -14.6161
  45   2.0000      -0.518878       -14.1194
  46   2.0000      -0.514183       -13.9916
  47   2.0000      -0.507991       -13.8232
  48   2.0000      -0.499337       -13.5876
  49   2.0000      -0.494312       -13.4509
  50   2.0000      -0.491625       -13.3778
  51   2.0000      -0.474736       -12.9182
  52   2.0000      -0.465713       -12.6727
  53   2.0000      -0.463285       -12.6066
  54   2.0000      -0.457455       -12.4480
  55   2.0000      -0.447580       -12.1793
  56   2.0000      -0.443150       -12.0587
  57   2.0000      -0.440369       -11.9830
  58   2.0000      -0.427816       -11.6415
  59   2.0000      -0.421505       -11.4697
  60   2.0000      -0.419972       -11.4280
  61   2.0000      -0.415016       -11.2932
  62   2.0000      -0.413670       -11.2565
  63   2.0000      -0.341479        -9.2921
  64   2.0000      -0.330103        -8.9826
  65   2.0000      -0.314296        -8.5524
  66   2.0000      -0.303181        -8.2500
  67   0.0000       0.035349         0.9619
  68   0.0000       0.046639         1.2691
  69   0.0000       0.107615         2.9284
  70   0.0000       0.114868         3.1257
  71   0.0000       0.123515         3.3610

MULLIKEN ATOMIC CHARGES
-----------------------
   0 S :    0.120404
   1 C :   -0.136155
   2 C :   -0.082794
   3 C :    0.060498
   4 C :   -0.191960
   5 H :    0.025427
   6 C :    0.028701
   7 H :    0.017147
   8 H :    0.034396
   9 C :   -0.109677
  10 H :    0.041795
  11 H :    0.037205
  12 C :   -0.041913
  13 H :    0.027115
  14 H :    0.043060
  15 H :    0.025631
  16 S :    0.110393
  17 C :   -0.071247
  18 C :   -0.065858
  19 C :   -0.002288
  20 C :   -0.173441
  21 H :    0.033519
  22 C :    0.043313
  23 H :    0.032183
  24 H :    0.028999
  25 C :   -0.061635
  26 H :    0.043728
  27 H :    0.022549
  28 C :   -0.016491
  29 H :    0.027681
  30 H :    0.025645
  31 H :    0.008313
  32 H :    0.086375
  33 H :    0.029379
Sum of atomic charges:    0.0000000

LOEWDIN ATOMIC CHARGES
----------------------
   0 S :    0.411912
   1 C :   -0.227142
   2 C :   -0.063896
   3 C :   -0.047701
   4 C :   -0.195913
   5 H :    0.033637
   6 C :   -0.050840
   7 H :    0.036134
   8 H :    0.030716
   9 C :   -0.043043
  10 H :    0.024809
  11 H :    0.034291
  12 C :   -0.070472
  13 H :    0.024925
  14 H :    0.023468
  15 H :    0.028509
  16 S :    0.381530
  17 C :   -0.163477
  18 C :   -0.072195
  19 C :   -0.051427
  20 C :   -0.197485
  21 H :    0.041022
  22 C :   -0.039543
  23 H :    0.035085
  24 H :    0.033741
  25 C :   -0.028819
  26 H :    0.035543
  27 H :    0.012599
  28 C :   -0.058853
  29 H :    0.023470
  30 H :    0.021831
  31 H :    0.018178
  32 H :    0.048216
  33 H :    0.011189

  Mayer bond orders larger than 0.100000
B(  0-S ,  1-C ) :   1.1610 B(  0-S ,  4-C ) :   1.1497 B(  1-C ,  2-C ) :   1.5774
B(  1-C , 32-H ) :   0.9545 B(  2-C ,  3-C ) :   1.2330 B(  2-C ,  6-C ) :   1.0390
B(  3-C ,  4-C ) :   1.5732 B(  3-C ,  5-H ) :   0.9892 B(  4-C , 20-C ) :   1.0180
B(  6-C ,  7-H ) :   0.9404 B(  6-C ,  8-H ) :   0.9345 B(  6-C ,  9-C ) :   1.0682
B(  9-C , 10-H ) :   0.9552 B(  9-C , 11-H ) :   0.9538 B(  9-C , 12-C ) :   1.0832
B( 12-C , 13-H ) :   0.9718 B( 12-C , 14-H ) :   0.9781 B( 12-C , 15-H ) :   0.9717
B( 16-S , 17-C ) :   1.1449 B( 16-S , 20-C ) :   1.1330 B( 17-C , 18-C ) :   1.6540
B( 17-C , 20-C ) :   0.1009 B( 17-C , 33-H ) :   0.9655 B( 18-C , 19-C ) :   1.2125
B( 18-C , 21-H ) :   0.9867 B( 19-C , 20-C ) :   1.6160 B( 19-C , 22-C ) :   1.0296
B( 22-C , 23-H ) :   0.9258 B( 22-C , 24-H ) :   0.9431 B( 22-C , 25-C ) :   1.0665
B( 25-C , 26-H ) :   0.9576 B( 25-C , 27-H ) :   0.9561 B( 25-C , 28-C ) :   1.0636
B( 28-C , 29-H ) :   0.9772 B( 28-C , 30-H ) :   0.9769 B( 28-C , 31-H ) :   0.9763

Dispersion correction           -0.014205976
FINAL SINGLE POINT ENERGY     -1339.854236184882

DIPOLE MOMENT
-------------
                                X             Y             Z
Electronic contribution:     15.89707      14.81490      16.86737
Nuclear contribution   :    -16.03157     -15.28030     -17.04544
                        -----------------------------------------
Total Dipole Moment    :     -0.13450      -0.46541      -0.17807
                        -----------------------------------------
Magnitude (a.u.)       :      0.51614
Magnitude (Debye)      :      1.31193

Rotational constants in cm-1:     0.016353     0.009018     0.007324
Rotational constants in MHz :   490.242177   270.363150   219.573197

                             ****ORCA TERMINATED NORMALLY****
TOTAL RUN TIME: 0 days 0 hours 0 minutes 28 seconds 145 msec
