                         Program Version 4.2.1 -  RELEASE  -
|  1> ! wB97X-D3 SP def2-SVP
|  2> %pal
|  3> nprocs 16
|  4> end
|  5>
|  6> * xyz 0 1
|  7> S 	 -14.4384 	 36.5559 	 54.7483
|  8> C 	 -13.9805 	 37.3188 	 53.2841
|  9> C 	 -14.8272 	 38.3574 	 52.9122
| 10> C 	 -15.9585 	 38.3867 	 53.7893
| 11> C 	 -15.907 	 37.4808 	 54.8476
| 12> H 	 -16.8671 	 39.0168 	 53.7081
| 13> C 	 -14.6841 	 39.3345 	 51.7392
| 14> H 	 -15.6921 	 39.5924 	 51.5054
| 15> H 	 -14.3812 	 38.7919 	 50.821
| 16> C 	 -13.8736 	 40.5975 	 52.0688
| 17> H 	 -13.9765 	 41.4104 	 51.3294
| 18> H 	 -14.2591 	 41.1069 	 52.9609
| 19> C 	 -12.3597 	 40.3393 	 52.2471
| 20> H 	 -11.9476 	 41.3005 	 52.4327
| 21> H 	 -12.2584 	 39.6448 	 53.1002
| 22> H 	 -11.8188 	 39.7753 	 51.4213
| 23> S 	 -16.4319 	 36.1562 	 57.1875
| 24> C 	 -17.982 	 36.3998 	 58.1144
| 25> C 	 -18.7354 	 37.2961 	 57.3456
| 26> C 	 -18.2066 	 37.6838 	 56.0485
| 27> C 	 -16.8946 	 37.197 	 55.8471
| 28> H 	 -19.642 	 37.628 	 57.6819
| 29> C 	 -19.058 	 38.4553 	 55.0852
| 30> H 	 -20.0541 	 38.0008 	 55.1778
| 31> H 	 -18.6975 	 38.2619 	 54.0881
| 32> C 	 -19.0621 	 39.952 	 55.2295
| 33> H 	 -17.968 	 40.2472 	 55.2915
| 34> H 	 -19.4789 	 40.181 	 56.1984
| 35> C 	 -19.8087 	 40.76 	 54.1788
| 36> H 	 -20.9244 	 40.5799 	 54.3175
| 37> H 	 -19.4912 	 40.5203 	 53.1518
| 38> H 	 -19.6668 	 41.8883 	 54.2593
| 39> H 	 -13.1841 	 37.2153 	 52.6651
| 40> H 	 -18.274 	 35.8566 	 59.0127
| 41> *
| 42>
| 43>                          ****END OF INPUT****

CARTESIAN COORDINATES (ANGSTROEM)
---------------------------------
  S    -14.438400   36.555900   54.748300
  C    -13.980500   37.318800   53.284100
  C    -14.827200   38.357400   52.912200
  C    -15.958500   38.386700   53.789300
  C    -15.907000   37.480800   54.847600
  H    -16.867100   39.016800   53.708100
  C    -14.684100   39.334500   51.739200
  H    -15.692100   39.592400   51.505400
  H    -14.381200   38.791900   50.821000
  C    -13.873600   40.597500   52.068800
  H    -13.976500   41.410400   51.329400
  H    -14.259100   41.106900   52.960900
  C    -12.359700   40.339300   52.247100
  H    -11.947600   41.300500   52.432700
  H    -12.258400   39.644800   53.100200
  H    -11.818800   39.775300   51.421300
  S    -16.431900   36.156200   57.187500
  C    -17.982000   36.399800   58.114400
  C    -18.735400   37.296100   57.345600
  C    -18.206600   37.683800   56.048500
  C    -16.894600   37.197000   55.847100
  H    -19.642000   37.628000   57.681900
  C    -19.058000   38.455300   55.085200
  H    -20.054100   38.000800   55.177800
  H    -18.697500   38.261900   54.088100
  C    -19.062100   39.952000   55.229500
  H    -17.968000   40.247200   55.291500
  H    -19.478900   40.181000   56.198400
  C    -19.808700   40.760000   54.178800
  H    -20.924400   40.579900   54.317500
  H    -19.491200   40.520300   53.151800
  H    -19.666800   41.888300   54.259300
  H    -13.184100   37.215300   52.665100
  H    -18.274000   35.856600   59.012700

 Total Charge           Charge          ....    0
 Multiplicity           Mult            ....    1
 Number of Electrons    NEL             ....  134
 Basis Dimension        Dim             ....  322

ORBITAL ENERGIES
----------------

  NO   OCC          E(Eh)            E(eV)
   0   2.0000     -88.971844     -2421.0470
   1   2.0000     -88.964148     -2420.8375
   2   2.0000     -10.334585      -281.2184
   3   2.0000     -10.330886      -281.1177
   4   2.0000     -10.329355      -281.0760
   5   2.0000     -10.307643      -280.4852
   6   2.0000     -10.307588      -280.4837
   7   2.0000     -10.303671      -280.3771
   8   2.0000     -10.298677      -280.2412
   9   2.0000     -10.296956      -280.1944
  10   2.0000     -10.296373      -280.1785
  11   2.0000     -10.293661      -280.1048
  12   2.0000     -10.292307      -280.0679
  13   2.0000     -10.291384      -280.0428
  14   2.0000     -10.290288      -280.0130
  15   2.0000     -10.280255      -279.7400
  16   2.0000      -8.086985      -220.0580
  17   2.0000      -8.077797      -219.8080
  18   2.0000      -6.045528      -164.5072
  19   2.0000      -6.041416      -164.3953
  20   2.0000      -6.037694      -164.2940
  21   2.0000      -6.036573      -164.2635
  22   2.0000      -6.032404      -164.1501
  23   2.0000      -6.028392      -164.0409
  24   2.0000      -1.010143       -27.4874
  25   2.0000      -0.979596       -26.6562
  26   2.0000      -0.916546       -24.9405
  27   2.0000      -0.910762       -24.7831
  28   2.0000      -0.872840       -23.7512
  29   2.0000      -0.853604       -23.2278
  30   2.0000      -0.844481       -22.9795
  31   2.0000      -0.815731       -22.1972
  32   2.0000      -0.785416       -21.3722
  33   2.0000      -0.775528       -21.1032
  34   2.0000      -0.712639       -19.3919
  35   2.0000      -0.700255       -19.0549
  36   2.0000      -0.695002       -18.9120
  37   2.0000      -0.671509       -18.2727
  38   2.0000      -0.641115       -17.4456
  39   2.0000      -0.620680       -16.8896
  40   2.0000      -0.596692       -16.2368
  41   2.0000      -0.572599       -15.5812
  42   2.0000      -0.571796       -15.5594
  43   2.0000      -0.555663       -15.1204
  44   2.0000      -0.535379       -14.5684
  45   2.0000      -0.524075       -14.2608
  46   2.0000      -0.521965       -14.2034
  47   2.0000      -0.519038       -14.1237
  48   2.0000      -0.506352       -13.7785
  49   2.0000      -0.501996       -13.6600
  50   2.0000      -0.495792       -13.4912
  51   2.0000      -0.483764       -13.1639
  52   2.0000      -0.470141       -12.7932
  53   2.0000      -0.468508       -12.7488
  54   2.0000      -0.463112       -12.6019
  55   2.0000      -0.449810       -12.2400
  56   2.0000      -0.446837       -12.1591
  57   2.0000      -0.440737       -11.9931
  58   2.0000      -0.426777       -11.6132
  59   2.0000      -0.424110       -11.5406
  60   2.0000      -0.421704       -11.4751
  61   2.0000      -0.412953       -11.2370
  62   2.0000      -0.406905       -11.0724
  63   2.0000      -0.365621        -9.9491
  64   2.0000      -0.338023        -9.1981
  65   2.0000      -0.325356        -8.8534
  66   2.0000      -0.279814        -7.6141
  67   0.0000       0.012554         0.3416
  68   0.0000       0.086543         2.3549
  69   0.0000       0.091815         2.4984
  70   0.0000       0.115457         3.1417
  71   0.0000       0.124950         3.4001

MULLIKEN ATOMIC CHARGES
-----------------------
   0 S :    0.127128
   1 C :   -0.034164
   2 C :   -0.135946
   3 C :   -0.019686
   4 C :   -0.117190
   5 H :    0.004505
   6 C :    0.097516
   7 H :    0.008105
   8 H :    0.034362
   9 C :   -0.067704
  10 H :    0.029154
  11 H :    0.029419
  12 C :   -0.067043
  13 H :    0.036399
  14 H :    0.037303
  15 H :    0.037881
  16 S :    0.063573
  17 C :   -0.091876
  18 C :    0.013938
  19 C :   -0.086879
  20 C :   -0.088649
  21 H :   -0.017294
  22 C :    0.059398
  23 H :    0.029054
  24 H :    0.010907
  25 C :   -0.075877
  26 H :    0.038083
  27 H :    0.016878
  28 C :   -0.064255
  29 H :    0.043953
  30 H :    0.031060
  31 H :    0.050218
  32 H :   -0.007236
  33 H :    0.074963
Sum of atomic charges:   -0.0000000

LOEWDIN ATOMIC CHARGES
----------------------
   0 S :    0.432262
   1 C :   -0.193086
   2 C :   -0.058990
   3 C :   -0.068577
   4 C :   -0.196685
   5 H :    0.032099
   6 C :   -0.031231
   7 H :    0.027116
   8 H :    0.035449
   9 C :   -0.041569
  10 H :    0.024064
  11 H :    0.028977
  12 C :   -0.070196
  13 H :    0.022956
  14 H :    0.025957
  15 H :    0.029461
  16 S :    0.364256
  17 C :   -0.167146
  18 C :   -0.052641
  19 C :   -0.058833
  20 C :   -0.183274
  21 H :    0.012741
  22 C :   -0.036422
  23 H :    0.034032
  24 H :    0.024108
  25 C :   -0.050456
  26 H :    0.029995
  27 H :    0.021032
  28 C :   -0.075178
  29 H :    0.033749
  30 H :    0.022101
  31 H :    0.036792
  32 H :    0.009179
  33 H :    0.037953

  Mayer bond orders larger than 0.100000
B(  0-S ,  1-C ) :   1.1474 B(  0-S ,  4-C ) :   1.1379 B(  1-C ,  2-C ) :   1.6047
B(  1-C , 32-H ) :   0.9673 B(  2-C ,  3-C ) :   1.2676 B(  2-C ,  6-C ) :   1.0124
B(  3-C ,  4-C ) :   1.5580 B(  3-C ,  5-H ) :   0.9758 B(  4-C , 20-C ) :   1.1132
B(  6-C ,  7-H ) :   0.9338 B(  6-C ,  8-H ) :   0.9450 B(  6-C ,  9-C ) :   1.0650
B(  9-C , 10-H ) :   0.9585 B(  9-C , 11-H ) :   0.9522 B(  9-C , 12-C ) :   1.0730
B( 12-C , 13-H ) :   0.9738 B( 12-C , 14-H ) :   0.9731 B( 12-C , 15-H ) :   0.9765
B( 16-S , 17-C ) :   1.1218 B( 16-S , 20-C ) :   1.1294 B( 17-C , 18-C ) :   1.5952
B( 17-C , 20-C ) :   0.1005 B( 17-C , 33-H ) :   0.9726 B( 18-C , 19-C ) :   1.2552
B( 18-C , 21-H ) :   0.9962 B( 19-C , 20-C ) :   1.5579 B( 19-C , 22-C ) :   1.0467
B( 22-C , 23-H ) :   0.9274 B( 22-C , 24-H ) :   0.9312 B( 22-C , 25-C ) :   1.0620
B( 25-C , 26-H ) :   0.9492 B( 25-C , 27-H ) :   0.9493 B( 25-C , 28-C ) :   1.0814
B( 28-C , 29-H ) :   0.9719 B( 28-C , 30-H ) :   0.9727 B( 28-C , 31-H ) :   0.9733

Dispersion correction           -0.014388816
FINAL SINGLE POINT ENERGY     -1339.872299160920

DIPOLE MOMENT
-------------
                                X             Y             Z
Electronic contribution:      5.31699     -24.05275      16.20231
Nuclear contribution   :     -5.75429      24.59529     -16.53651
                        -----------------------------------------
Total Dipole Moment    :     -0.43731       0.54254      -0.33419
                        -----------------------------------------
Magnitude (a.u.)       :      0.77283
Magnitude (Debye)      :      1.96439

Rotational constants in cm-1:     0.018061     0.009285     0.006497
Rotational constants in MHz :   541.455195   278.370406   194.765143

                             ****ORCA TERMINATED NORMALLY****
TOTAL RUN TIME: 0 days 0 hours 0 minutes 34 seconds 881 msec
