                         Program Version 4.2.1 -  RELEASE  -
|  1> ! wB97X-D3 SP def2-SVP
|  2> %pal
|  3> nprocs 16
|  4> end
|  5>
|  6> * xyz 0 1
|  7> S 	 -38.6089 	 35.079 	 80.7726
|  8> C 	 -38.515 	 33.749 	 79.5992
|  9> C 	 -39.2319 	 32.6689 	 80.0629
| 10> C 	 -39.8773 	 32.8488 	 81.3593
| 11> C 	 -39.6714 	 34.1029 	 81.8915
| 12> H 	 -40.461 	 32.089 	 81.895
| 13> C 	 -39.2727 	 31.2721 	 79.3709
| 14> H 	 -39.4658 	 31.3274 	 78.295
| 15> H 	 -40.2812 	 30.9883 	 79.8116
| 16> C 	 -37.9246 	 30.487 	 79.6766
| 17> H 	 -37.2145 	 31.1949 	 79.4218
| 18> H 	 -37.9076 	 30.2254 	 80.7469
| 19> C 	 -37.8408 	 29.2307 	 78.7649
| 20> H 	 -36.7959 	 28.8627 	 78.8745
| 21> H 	 -38.4626 	 28.4762 	 79.3006
| 22> H 	 -38.1779 	 29.2505 	 77.7214
| 23> S 	 -41.1228 	 33.3702 	 84.148
| 24> C 	 -41.1759 	 34.4646 	 85.4808
| 25> C 	 -40.4898 	 35.6237 	 85.1814
| 26> C 	 -39.8264 	 35.6818 	 83.9197
| 27> C 	 -40.0172 	 34.4688 	 83.2379
| 28> H 	 -40.4706 	 36.3213 	 85.9793
| 29> C 	 -39.0752 	 36.8822 	 83.4062
| 30> H 	 -39.4324 	 37.0763 	 82.3867
| 31> H 	 -37.9117 	 36.5741 	 83.3063
| 32> C 	 -39.1038 	 38.0715 	 84.3344
| 33> H 	 -38.546 	 37.9624 	 85.2101
| 34> H 	 -40.095 	 38.2572 	 84.7455
| 35> C 	 -38.5918 	 39.2953 	 83.5622
| 36> H 	 -38.7272 	 40.1729 	 84.2216
| 37> H 	 -39.1539 	 39.4096 	 82.6642
| 38> H 	 -37.5383 	 39.3525 	 83.3285
| 39> H 	 -38.008 	 33.8108 	 78.6561
| 40> H 	 -41.702 	 34.3255 	 86.438
| 41> *
| 42>
| 43>                          ****END OF INPUT****

CARTESIAN COORDINATES (ANGSTROEM)
---------------------------------
  S    -38.608900   35.079000   80.772600
  C    -38.515000   33.749000   79.599200
  C    -39.231900   32.668900   80.062900
  C    -39.877300   32.848800   81.359300
  C    -39.671400   34.102900   81.891500
  H    -40.461000   32.089000   81.895000
  C    -39.272700   31.272100   79.370900
  H    -39.465800   31.327400   78.295000
  H    -40.281200   30.988300   79.811600
  C    -37.924600   30.487000   79.676600
  H    -37.214500   31.194900   79.421800
  H    -37.907600   30.225400   80.746900
  C    -37.840800   29.230700   78.764900
  H    -36.795900   28.862700   78.874500
  H    -38.462600   28.476200   79.300600
  H    -38.177900   29.250500   77.721400
  S    -41.122800   33.370200   84.148000
  C    -41.175900   34.464600   85.480800
  C    -40.489800   35.623700   85.181400
  C    -39.826400   35.681800   83.919700
  C    -40.017200   34.468800   83.237900
  H    -40.470600   36.321300   85.979300
  C    -39.075200   36.882200   83.406200
  H    -39.432400   37.076300   82.386700
  H    -37.911700   36.574100   83.306300
  C    -39.103800   38.071500   84.334400
  H    -38.546000   37.962400   85.210100
  H    -40.095000   38.257200   84.745500
  C    -38.591800   39.295300   83.562200
  H    -38.727200   40.172900   84.221600
  H    -39.153900   39.409600   82.664200
  H    -37.538300   39.352500   83.328500
  H    -38.008000   33.810800   78.656100
  H    -41.702000   34.325500   86.438000

 Total Charge           Charge          ....    0
 Multiplicity           Mult            ....    1
 Number of Electrons    NEL             ....  134
 Basis Dimension        Dim             ....  322

ORBITAL ENERGIES
----------------

  NO   OCC          E(Eh)            E(eV)
   0   2.0000     -88.968084     -2420.9446
   1   2.0000     -88.966732     -2420.9079
   2   2.0000     -10.335102      -281.2324
   3   2.0000     -10.330439      -281.1055
   4   2.0000     -10.318753      -280.7875
   5   2.0000     -10.313278      -280.6386
   6   2.0000     -10.306719      -280.4601
   7   2.0000     -10.304059      -280.3877
   8   2.0000     -10.303125      -280.3623
   9   2.0000     -10.297013      -280.1960
  10   2.0000     -10.295679      -280.1597
  11   2.0000     -10.290583      -280.0210
  12   2.0000     -10.290364      -280.0151
  13   2.0000     -10.284141      -279.8457
  14   2.0000     -10.282548      -279.8024
  15   2.0000     -10.274827      -279.5923
  16   2.0000      -8.082109      -219.9254
  17   2.0000      -8.079177      -219.8456
  18   2.0000      -6.040746      -164.3771
  19   2.0000      -6.038120      -164.3056
  20   2.0000      -6.036771      -164.2689
  21   2.0000      -6.033931      -164.1916
  22   2.0000      -6.032759      -164.1597
  23   2.0000      -6.029688      -164.0762
  24   2.0000      -1.001184       -27.2436
  25   2.0000      -0.975328       -26.5400
  26   2.0000      -0.916059       -24.9272
  27   2.0000      -0.900847       -24.5133
  28   2.0000      -0.871071       -23.7030
  29   2.0000      -0.854908       -23.2632
  30   2.0000      -0.839187       -22.8354
  31   2.0000      -0.810016       -22.0417
  32   2.0000      -0.778979       -21.1971
  33   2.0000      -0.763737       -20.7823
  34   2.0000      -0.715186       -19.4612
  35   2.0000      -0.701900       -19.0997
  36   2.0000      -0.701655       -19.0930
  37   2.0000      -0.659284       -17.9400
  38   2.0000      -0.629015       -17.1164
  39   2.0000      -0.613528       -16.6949
  40   2.0000      -0.599279       -16.3072
  41   2.0000      -0.570052       -15.5119
  42   2.0000      -0.561653       -15.2834
  43   2.0000      -0.556974       -15.1560
  44   2.0000      -0.535112       -14.5611
  45   2.0000      -0.520939       -14.1755
  46   2.0000      -0.513865       -13.9830
  47   2.0000      -0.509150       -13.8547
  48   2.0000      -0.507246       -13.8029
  49   2.0000      -0.500758       -13.6263
  50   2.0000      -0.481273       -13.0961
  51   2.0000      -0.476615       -12.9694
  52   2.0000      -0.474625       -12.9152
  53   2.0000      -0.463654       -12.6167
  54   2.0000      -0.459087       -12.4924
  55   2.0000      -0.452052       -12.3010
  56   2.0000      -0.444453       -12.0942
  57   2.0000      -0.439988       -11.9727
  58   2.0000      -0.433543       -11.7973
  59   2.0000      -0.425693       -11.5837
  60   2.0000      -0.420708       -11.4480
  61   2.0000      -0.410428       -11.1683
  62   2.0000      -0.397323       -10.8117
  63   2.0000      -0.367152        -9.9907
  64   2.0000      -0.332866        -9.0577
  65   2.0000      -0.326171        -8.8756
  66   2.0000      -0.276909        -7.5351
  67   0.0000       0.014392         0.3916
  68   0.0000       0.089272         2.4292
  69   0.0000       0.102567         2.7910
  70   0.0000       0.112462         3.0603
  71   0.0000       0.130335         3.5466

MULLIKEN ATOMIC CHARGES
-----------------------
   0 S :    0.062386
   1 C :   -0.107760
   2 C :   -0.091377
   3 C :   -0.039092
   4 C :   -0.091618
   5 H :    0.035244
   6 C :    0.001017
   7 H :    0.027837
   8 H :    0.033613
   9 C :   -0.026801
  10 H :    0.018448
  11 H :    0.047246
  12 C :   -0.066748
  13 H :    0.040036
  14 H :    0.032826
  15 H :    0.048577
  16 S :    0.078646
  17 C :   -0.077384
  18 C :   -0.052316
  19 C :   -0.036472
  20 C :   -0.113499
  21 H :    0.001627
  22 C :   -0.017507
  23 H :    0.049414
  24 H :    0.069532
  25 C :   -0.042879
  26 H :    0.017826
  27 H :    0.027073
  28 C :   -0.026931
  29 H :    0.025304
  30 H :    0.029071
  31 H :    0.031437
  32 H :    0.047971
  33 H :    0.065252
Sum of atomic charges:   -0.0000000

LOEWDIN ATOMIC CHARGES
----------------------
   0 S :    0.367577
   1 C :   -0.195307
   2 C :   -0.059162
   3 C :   -0.081551
   4 C :   -0.157993
   5 H :    0.029107
   6 C :   -0.039385
   7 H :    0.025415
   8 H :    0.034150
   9 C :   -0.023739
  10 H :    0.013039
  11 H :    0.034715
  12 C :   -0.075514
  13 H :    0.030101
  14 H :    0.030626
  15 H :    0.027138
  16 S :    0.395815
  17 C :   -0.193315
  18 C :   -0.075799
  19 C :   -0.055278
  20 C :   -0.173947
  21 H :    0.023265
  22 C :   -0.046915
  23 H :    0.025687
  24 H :    0.053006
  25 C :   -0.040131
  26 H :    0.019085
  27 H :    0.024574
  28 C :   -0.057747
  29 H :    0.028434
  30 H :    0.021426
  31 H :    0.024759
  32 H :    0.028361
  33 H :    0.039505

  Mayer bond orders larger than 0.100000
B(  0-S ,  1-C ) :   1.1014 B(  0-S ,  4-C ) :   1.1091 B(  1-C ,  2-C ) :   1.6371
B(  1-C , 32-H ) :   0.9703 B(  2-C ,  3-C ) :   1.2344 B(  2-C ,  6-C ) :   1.0050
B(  3-C ,  4-C ) :   1.5725 B(  3-C ,  5-H ) :   0.9757 B(  4-C , 20-C ) :   1.1469
B(  6-C ,  7-H ) :   0.9517 B(  6-C ,  8-H ) :   0.9502 B(  6-C ,  9-C ) :   1.0318
B(  9-C , 10-H ) :   0.9619 B(  9-C , 11-H ) :   0.9579 B(  9-C , 12-C ) :   1.0711
B( 12-C , 13-H ) :   0.9746 B( 12-C , 14-H ) :   0.9769 B( 12-C , 15-H ) :   0.9776
B( 16-S , 17-C ) :   1.1471 B( 16-S , 20-C ) :   1.1246 B( 17-C , 18-C ) :   1.6194
B( 17-C , 33-H ) :   0.9581 B( 18-C , 19-C ) :   1.2420 B( 18-C , 21-H ) :   0.9907
B( 19-C , 20-C ) :   1.5499 B( 19-C , 22-C ) :   1.0292 B( 22-C , 23-H ) :   0.9271
B( 22-C , 24-H ) :   0.9267 B( 22-C , 25-C ) :   1.0906 B( 25-C , 26-H ) :   0.9421
B( 25-C , 27-H ) :   0.9465 B( 25-C , 28-C ) :   1.0851 B( 28-C , 29-H ) :   0.9713
B( 28-C , 30-H ) :   0.9781 B( 28-C , 31-H ) :   0.9739

Dispersion correction           -0.013219267
FINAL SINGLE POINT ENERGY     -1339.862733814326

DIPOLE MOMENT
-------------
                                X             Y             Z
Electronic contribution:     -8.80757       0.10756       6.23876
Nuclear contribution   :      8.94029      -0.07859      -6.11038
                        -----------------------------------------
Total Dipole Moment    :      0.13272       0.02897       0.12838
                        -----------------------------------------
Magnitude (a.u.)       :      0.18691
Magnitude (Debye)      :      0.47509

Rotational constants in cm-1:     0.023284     0.007165     0.005684
Rotational constants in MHz :   698.050524   214.809507   170.389257

                             ****ORCA TERMINATED NORMALLY****
TOTAL RUN TIME: 0 days 0 hours 0 minutes 31 seconds 310 msec
