                         Program Version 4.2.1 -  RELEASE  -
|  1> ! wB97X-D3 SP def2-SVP
|  2> %pal
|  3> nprocs 16
|  4> end
|  5>
|  6> * xyz 0 1
|  7> S 	 30.5838 	 -1.81496 	 74.8171
|  8> C 	 30.4817 	 -0.0895999 	 75.0332
|  9> C 	 29.5167 	 0.417991 	 74.0983
| 10> C 	 29.2053 	 -0.558094 	 73.0949
| 11> C 	 29.6038 	 -1.87187 	 73.4034
| 12> H 	 28.5683 	 -0.354548 	 72.1922
| 13> C 	 28.8299 	 1.80661 	 74.033
| 14> H 	 29.1221 	 2.31928 	 73.0923
| 15> H 	 29.1965 	 2.32414 	 74.9449
| 16> C 	 27.3085 	 1.77677 	 74.0817
| 17> H 	 26.7464 	 1.06472 	 73.5336
| 18> H 	 26.9965 	 1.508 	 75.0936
| 19> C 	 26.69 	 3.16876 	 73.6875
| 20> H 	 27.1692 	 4.04454 	 74.154
| 21> H 	 26.6951 	 3.28377 	 72.6065
| 22> H 	 25.6502 	 3.20742 	 74.0448
| 23> S 	 27.8766 	 -3.1839 	 71.9061
| 24> C 	 28.401 	 -4.7335 	 71.184
| 25> C 	 29.5874 	 -5.26756 	 71.6864
| 26> C 	 30.2204 	 -4.20109 	 72.434
| 27> C 	 29.4326 	 -3.05385 	 72.5617
| 28> H 	 29.808 	 -6.29846 	 71.4815
| 29> C 	 31.7166 	 -4.42044 	 72.8108
| 30> H 	 32.0627 	 -5.37099 	 72.4491
| 31> H 	 31.8019 	 -4.48516 	 73.9208
| 32> C 	 32.6485 	 -3.32354 	 72.3315
| 33> H 	 32.415 	 -2.38848 	 72.8159
| 34> H 	 32.5046 	 -3.24633 	 71.2644
| 35> C 	 34.1596 	 -3.51801 	 72.6806
| 36> H 	 34.6584 	 -2.80795 	 72.0706
| 37> H 	 34.5769 	 -4.50808 	 72.5048
| 38> H 	 34.4237 	 -3.39058 	 73.697
| 39> H 	 30.8882 	 0.579396 	 75.7173
| 40> H 	 27.7164 	 -5.356 	 70.5398
| 41> *
| 42>
| 43>                          ****END OF INPUT****

CARTESIAN COORDINATES (ANGSTROEM)
---------------------------------
  S     30.583800   -1.814960   74.817100
  C     30.481700   -0.089600   75.033200
  C     29.516700    0.417991   74.098300
  C     29.205300   -0.558094   73.094900
  C     29.603800   -1.871870   73.403400
  H     28.568300   -0.354548   72.192200
  C     28.829900    1.806610   74.033000
  H     29.122100    2.319280   73.092300
  H     29.196500    2.324140   74.944900
  C     27.308500    1.776770   74.081700
  H     26.746400    1.064720   73.533600
  H     26.996500    1.508000   75.093600
  C     26.690000    3.168760   73.687500
  H     27.169200    4.044540   74.154000
  H     26.695100    3.283770   72.606500
  H     25.650200    3.207420   74.044800
  S     27.876600   -3.183900   71.906100
  C     28.401000   -4.733500   71.184000
  C     29.587400   -5.267560   71.686400
  C     30.220400   -4.201090   72.434000
  C     29.432600   -3.053850   72.561700
  H     29.808000   -6.298460   71.481500
  C     31.716600   -4.420440   72.810800
  H     32.062700   -5.370990   72.449100
  H     31.801900   -4.485160   73.920800
  C     32.648500   -3.323540   72.331500
  H     32.415000   -2.388480   72.815900
  H     32.504600   -3.246330   71.264400
  C     34.159600   -3.518010   72.680600
  H     34.658400   -2.807950   72.070600
  H     34.576900   -4.508080   72.504800
  H     34.423700   -3.390580   73.697000
  H     30.888200    0.579396   75.717300
  H     27.716400   -5.356000   70.539800

 Total Charge           Charge          ....    0
 Multiplicity           Mult            ....    1
 Number of Electrons    NEL             ....  134
 Basis Dimension        Dim             ....  322

ORBITAL ENERGIES
----------------

  NO   OCC          E(Eh)            E(eV)
   0   2.0000     -88.971246     -2421.0307
   1   2.0000     -88.971108     -2421.0269
   2   2.0000     -10.329847      -281.0894
   3   2.0000     -10.325699      -280.9765
   4   2.0000     -10.323447      -280.9153
   5   2.0000     -10.315838      -280.7082
   6   2.0000     -10.309472      -280.5350
   7   2.0000     -10.306972      -280.4670
   8   2.0000     -10.301081      -280.3067
   9   2.0000     -10.300628      -280.2943
  10   2.0000     -10.295960      -280.1673
  11   2.0000     -10.289375      -279.9881
  12   2.0000     -10.285455      -279.8814
  13   2.0000     -10.281615      -279.7770
  14   2.0000     -10.276035      -279.6251
  15   2.0000     -10.266644      -279.3696
  16   2.0000      -8.086130      -220.0348
  17   2.0000      -8.085208      -220.0097
  18   2.0000      -6.044481      -164.4787
  19   2.0000      -6.043814      -164.4605
  20   2.0000      -6.040880      -164.3807
  21   2.0000      -6.039551      -164.3445
  22   2.0000      -6.036734      -164.2679
  23   2.0000      -6.036175      -164.2527
  24   2.0000      -1.009434       -27.4681
  25   2.0000      -0.982917       -26.7465
  26   2.0000      -0.907604       -24.6972
  27   2.0000      -0.902581       -24.5605
  28   2.0000      -0.871872       -23.7248
  29   2.0000      -0.848914       -23.1001
  30   2.0000      -0.838812       -22.8252
  31   2.0000      -0.810497       -22.0547
  32   2.0000      -0.781181       -21.2570
  33   2.0000      -0.768723       -20.9180
  34   2.0000      -0.707430       -19.2501
  35   2.0000      -0.700006       -19.0481
  36   2.0000      -0.690290       -18.7837
  37   2.0000      -0.663613       -18.0578
  38   2.0000      -0.630976       -17.1697
  39   2.0000      -0.616449       -16.7744
  40   2.0000      -0.590565       -16.0701
  41   2.0000      -0.569543       -15.4981
  42   2.0000      -0.564513       -15.3612
  43   2.0000      -0.561745       -15.2859
  44   2.0000      -0.526954       -14.3391
  45   2.0000      -0.525025       -14.2867
  46   2.0000      -0.513156       -13.9637
  47   2.0000      -0.509458       -13.8630
  48   2.0000      -0.498729       -13.5711
  49   2.0000      -0.494830       -13.4650
  50   2.0000      -0.492436       -13.3999
  51   2.0000      -0.481464       -13.1013
  52   2.0000      -0.467647       -12.7253
  53   2.0000      -0.465561       -12.6686
  54   2.0000      -0.457553       -12.4507
  55   2.0000      -0.454413       -12.3652
  56   2.0000      -0.442447       -12.0396
  57   2.0000      -0.436356       -11.8738
  58   2.0000      -0.429395       -11.6844
  59   2.0000      -0.421934       -11.4814
  60   2.0000      -0.414709       -11.2848
  61   2.0000      -0.412984       -11.2379
  62   2.0000      -0.412486       -11.2243
  63   2.0000      -0.352068        -9.5803
  64   2.0000      -0.332586        -9.0501
  65   2.0000      -0.324019        -8.8170
  66   2.0000      -0.284214        -7.7339
  67   0.0000       0.021746         0.5917
  68   0.0000       0.072102         1.9620
  69   0.0000       0.106752         2.9049
  70   0.0000       0.114936         3.1276
  71   0.0000       0.127406         3.4669

MULLIKEN ATOMIC CHARGES
-----------------------
   0 S :    0.116291
   1 C :   -0.081105
   2 C :   -0.119765
   3 C :   -0.017772
   4 C :   -0.131329
   5 H :    0.035145
   6 C :    0.070018
   7 H :    0.045834
   8 H :    0.028224
   9 C :   -0.071119
  10 H :    0.025591
  11 H :    0.021218
  12 C :   -0.076709
  13 H :    0.033838
  14 H :    0.038980
  15 H :    0.034956
  16 S :    0.116590
  17 C :   -0.116289
  18 C :   -0.032674
  19 C :   -0.064291
  20 C :   -0.115589
  21 H :    0.029925
  22 C :    0.078793
  23 H :    0.005942
  24 H :    0.029791
  25 C :   -0.077727
  26 H :    0.037687
  27 H :    0.031179
  28 C :   -0.023443
  29 H :    0.028654
  30 H :    0.013861
  31 H :    0.019749
  32 H :    0.021131
  33 H :    0.064415
Sum of atomic charges:    0.0000000

LOEWDIN ATOMIC CHARGES
----------------------
   0 S :    0.445854
   1 C :   -0.207667
   2 C :   -0.057635
   3 C :   -0.079926
   4 C :   -0.210827
   5 H :    0.032877
   6 C :   -0.032227
   7 H :    0.035703
   8 H :    0.034669
   9 C :   -0.042214
  10 H :    0.019855
  11 H :    0.025014
  12 C :   -0.066925
  13 H :    0.024765
  14 H :    0.023465
  15 H :    0.029023
  16 S :    0.426942
  17 C :   -0.179032
  18 C :   -0.060062
  19 C :   -0.054612
  20 C :   -0.217376
  21 H :    0.037684
  22 C :   -0.033971
  23 H :    0.022728
  24 H :    0.027940
  25 C :   -0.037981
  26 H :    0.017346
  27 H :    0.022985
  28 C :   -0.060208
  29 H :    0.025121
  30 H :    0.019882
  31 H :    0.019429
  32 H :    0.018545
  33 H :    0.030836

  Mayer bond orders larger than 0.100000
B(  0-S ,  1-C ) :   1.1469 B(  0-S ,  4-C ) :   1.1592 B(  1-C ,  2-C ) :   1.5675
B(  1-C ,  4-C ) :   0.1010 B(  1-C , 32-H ) :   0.9765 B(  2-C ,  3-C ) :   1.2805
B(  2-C ,  6-C ) :   1.0218 B(  3-C ,  4-C ) :   1.5253 B(  3-C ,  5-H ) :   0.9755
B(  4-C , 20-C ) :   1.0468 B(  6-C ,  7-H ) :   0.9478 B(  6-C ,  8-H ) :   0.9392
B(  6-C ,  9-C ) :   1.0548 B(  9-C , 10-H ) :   0.9600 B(  9-C , 11-H ) :   0.9545
B(  9-C , 12-C ) :   1.0758 B( 12-C , 13-H ) :   0.9769 B( 12-C , 14-H ) :   0.9782
B( 12-C , 15-H ) :   0.9754 B( 16-S , 17-C ) :   1.1481 B( 16-S , 20-C ) :   1.1525
B( 17-C , 18-C ) :   1.6357 B( 17-C , 33-H ) :   0.9585 B( 18-C , 19-C ) :   1.2160
B( 18-C , 21-H ) :   0.9954 B( 19-C , 20-C ) :   1.5832 B( 19-C , 22-C ) :   1.0319
B( 22-C , 23-H ) :   0.9410 B( 22-C , 24-H ) :   0.9276 B( 22-C , 25-C ) :   1.0737
B( 25-C , 26-H ) :   0.9460 B( 25-C , 27-H ) :   0.9596 B( 25-C , 28-C ) :   1.0803
B( 28-C , 29-H ) :   0.9756 B( 28-C , 30-H ) :   0.9759 B( 28-C , 31-H ) :   0.9751

Dispersion correction           -0.014213897
FINAL SINGLE POINT ENERGY     -1339.855282190096

DIPOLE MOMENT
-------------
                                X             Y             Z
Electronic contribution:     -6.06422     -12.80053       0.56738
Nuclear contribution   :      6.00651      12.88072      -0.63598
                        -----------------------------------------
Total Dipole Moment    :     -0.05772       0.08019      -0.06860
                        -----------------------------------------
Magnitude (a.u.)       :      0.12028
Magnitude (Debye)      :      0.30573

Rotational constants in cm-1:     0.020168     0.008482     0.006457
Rotational constants in MHz :   604.621755   254.285077   193.577226

                             ****ORCA TERMINATED NORMALLY****
TOTAL RUN TIME: 0 days 0 hours 0 minutes 27 seconds 980 msec
