                         Program Version 4.2.1 -  RELEASE  -
|  1> ! wB97X-D3 SP def2-SVP
|  2> %pal
|  3> nprocs 16
|  4> end
|  5>
|  6> * xyz 0 1
|  7> S 	 -29.9184 	 59.6608 	 110.271
|  8> C 	 -28.6998 	 59.8137 	 109.003
|  9> C 	 -29.2083 	 59.8092 	 107.744
| 10> C 	 -30.6144 	 59.5229 	 107.788
| 11> C 	 -31.2091 	 59.4855 	 109.091
| 12> H 	 -31.1472 	 59.1766 	 106.9
| 13> C 	 -28.4758 	 59.6265 	 106.458
| 14> H 	 -28.6301 	 58.607 	 106.176
| 15> H 	 -27.4119 	 59.6414 	 106.611
| 16> C 	 -28.9039 	 60.5245 	 105.287
| 17> H 	 -29.9904 	 60.4557 	 105.137
| 18> H 	 -28.8357 	 61.5641 	 105.66
| 19> C 	 -28.1904 	 60.3072 	 103.962
| 20> H 	 -27.0895 	 60.2233 	 104.145
| 21> H 	 -28.5345 	 59.3097 	 103.524
| 22> H 	 -28.2923 	 61.049 	 103.208
| 23> S 	 -33.7676 	 59.7764 	 108.277
| 24> C 	 -35.0822 	 59.1151 	 109.235
| 25> C 	 -34.7149 	 58.4109 	 110.329
| 26> C 	 -33.2854 	 58.4201 	 110.323
| 27> C 	 -32.5916 	 59.2253 	 109.409
| 28> H 	 -35.4654 	 57.8629 	 110.895
| 29> C 	 -32.5857 	 57.6284 	 111.433
| 30> H 	 -33.1432 	 57.6079 	 112.387
| 31> H 	 -31.6137 	 58.1409 	 111.607
| 32> C 	 -32.2577 	 56.1862 	 111.063
| 33> H 	 -31.8207 	 56.1271 	 110.093
| 34> H 	 -33.1918 	 55.6521 	 110.954
| 35> C 	 -31.3949 	 55.4723 	 112.114
| 36> H 	 -31.9518 	 55.327 	 112.997
| 37> H 	 -30.5109 	 56.1181 	 112.28
| 38> H 	 -31.0636 	 54.5338 	 111.675
| 39> H 	 -27.6636 	 59.9543 	 109.094
| 40> H 	 -36.0907 	 59.2421 	 109.029
| 41> *
| 42>
| 43>                          ****END OF INPUT****

CARTESIAN COORDINATES (ANGSTROEM)
---------------------------------
  S    -29.918400   59.660800  110.271000
  C    -28.699800   59.813700  109.003000
  C    -29.208300   59.809200  107.744000
  C    -30.614400   59.522900  107.788000
  C    -31.209100   59.485500  109.091000
  H    -31.147200   59.176600  106.900000
  C    -28.475800   59.626500  106.458000
  H    -28.630100   58.607000  106.176000
  H    -27.411900   59.641400  106.611000
  C    -28.903900   60.524500  105.287000
  H    -29.990400   60.455700  105.137000
  H    -28.835700   61.564100  105.660000
  C    -28.190400   60.307200  103.962000
  H    -27.089500   60.223300  104.145000
  H    -28.534500   59.309700  103.524000
  H    -28.292300   61.049000  103.208000
  S    -33.767600   59.776400  108.277000
  C    -35.082200   59.115100  109.235000
  C    -34.714900   58.410900  110.329000
  C    -33.285400   58.420100  110.323000
  C    -32.591600   59.225300  109.409000
  H    -35.465400   57.862900  110.895000
  C    -32.585700   57.628400  111.433000
  H    -33.143200   57.607900  112.387000
  H    -31.613700   58.140900  111.607000
  C    -32.257700   56.186200  111.063000
  H    -31.820700   56.127100  110.093000
  H    -33.191800   55.652100  110.954000
  C    -31.394900   55.472300  112.114000
  H    -31.951800   55.327000  112.997000
  H    -30.510900   56.118100  112.280000
  H    -31.063600   54.533800  111.675000
  H    -27.663600   59.954300  109.094000
  H    -36.090700   59.242100  109.029000

 Total Charge           Charge          ....    0
 Multiplicity           Mult            ....    1
 Number of Electrons    NEL             ....  134
 Basis Dimension        Dim             ....  322

ORBITAL ENERGIES
----------------

  NO   OCC          E(Eh)            E(eV)
   0   2.0000     -88.972389     -2421.0618
   1   2.0000     -88.965640     -2420.8781
   2   2.0000     -10.339803      -281.3603
   3   2.0000     -10.327967      -281.0383
   4   2.0000     -10.311284      -280.5843
   5   2.0000     -10.311138      -280.5803
   6   2.0000     -10.306379      -280.4508
   7   2.0000     -10.298601      -280.2392
   8   2.0000     -10.298233      -280.2292
   9   2.0000     -10.294660      -280.1319
  10   2.0000     -10.290768      -280.0260
  11   2.0000     -10.289460      -279.9904
  12   2.0000     -10.286562      -279.9116
  13   2.0000     -10.285301      -279.8773
  14   2.0000     -10.273258      -279.5496
  15   2.0000     -10.271473      -279.5010
  16   2.0000      -8.085888      -220.0282
  17   2.0000      -8.080782      -219.8893
  18   2.0000      -6.044647      -164.4832
  19   2.0000      -6.040488      -164.3700
  20   2.0000      -6.039359      -164.3393
  21   2.0000      -6.036553      -164.2629
  22   2.0000      -6.035253      -164.2276
  23   2.0000      -6.031414      -164.1231
  24   2.0000      -1.010252       -27.4904
  25   2.0000      -0.987346       -26.8671
  26   2.0000      -0.916227       -24.9318
  27   2.0000      -0.905464       -24.6389
  28   2.0000      -0.879756       -23.9394
  29   2.0000      -0.854311       -23.2470
  30   2.0000      -0.841978       -22.9114
  31   2.0000      -0.816110       -22.2075
  32   2.0000      -0.785577       -21.3766
  33   2.0000      -0.767815       -20.8933
  34   2.0000      -0.716458       -19.4958
  35   2.0000      -0.700694       -19.0669
  36   2.0000      -0.689210       -18.7544
  37   2.0000      -0.669692       -18.2233
  38   2.0000      -0.633386       -17.2353
  39   2.0000      -0.623909       -16.9774
  40   2.0000      -0.594315       -16.1721
  41   2.0000      -0.581113       -15.8129
  42   2.0000      -0.566755       -15.4222
  43   2.0000      -0.560111       -15.2414
  44   2.0000      -0.530006       -14.4222
  45   2.0000      -0.525983       -14.3127
  46   2.0000      -0.517208       -14.0739
  47   2.0000      -0.513611       -13.9761
  48   2.0000      -0.503638       -13.7047
  49   2.0000      -0.503099       -13.6900
  50   2.0000      -0.489787       -13.3278
  51   2.0000      -0.483715       -13.1626
  52   2.0000      -0.472816       -12.8660
  53   2.0000      -0.464897       -12.6505
  54   2.0000      -0.460855       -12.5405
  55   2.0000      -0.450827       -12.2676
  56   2.0000      -0.444374       -12.0920
  57   2.0000      -0.436164       -11.8686
  58   2.0000      -0.433526       -11.7968
  59   2.0000      -0.430855       -11.7242
  60   2.0000      -0.413495       -11.2518
  61   2.0000      -0.411953       -11.2098
  62   2.0000      -0.405692       -11.0394
  63   2.0000      -0.360541        -9.8108
  64   2.0000      -0.332650        -9.0519
  65   2.0000      -0.329819        -8.9748
  66   2.0000      -0.284276        -7.7355
  67   0.0000       0.020009         0.5445
  68   0.0000       0.080155         2.1811
  69   0.0000       0.104025         2.8307
  70   0.0000       0.120308         3.2737
  71   0.0000       0.130060         3.5391

MULLIKEN ATOMIC CHARGES
-----------------------
   0 S :    0.111432
   1 C :   -0.095360
   2 C :   -0.051529
   3 C :   -0.025152
   4 C :   -0.130796
   5 H :    0.029136
   6 C :    0.066357
   7 H :    0.027599
   8 H :    0.005757
   9 C :   -0.093739
  10 H :    0.027533
  11 H :    0.028827
  12 C :   -0.044925
  13 H :    0.031183
  14 H :    0.037937
  15 H :    0.037646
  16 S :    0.098790
  17 C :   -0.050406
  18 C :   -0.018761
  19 C :   -0.068403
  20 C :   -0.103780
  21 H :    0.034544
  22 C :    0.025445
  23 H :    0.025170
  24 H :    0.011876
  25 C :   -0.070231
  26 H :    0.020486
  27 H :    0.009985
  28 C :   -0.011097
  29 H :    0.024491
  30 H :    0.032309
  31 H :    0.033074
  32 H :    0.022540
  33 H :    0.022063
Sum of atomic charges:   -0.0000000

LOEWDIN ATOMIC CHARGES
----------------------
   0 S :    0.410875
   1 C :   -0.183835
   2 C :   -0.063600
   3 C :   -0.067414
   4 C :   -0.190845
   5 H :    0.027184
   6 C :   -0.028213
   7 H :    0.032240
   8 H :    0.025282
   9 C :   -0.048868
  10 H :    0.023933
  11 H :    0.026926
  12 C :   -0.068137
  13 H :    0.028606
  14 H :    0.033204
  15 H :    0.023311
  16 S :    0.421039
  17 C :   -0.160604
  18 C :   -0.069722
  19 C :   -0.049692
  20 C :   -0.213981
  21 H :    0.043153
  22 C :   -0.040747
  23 H :    0.028541
  24 H :    0.013956
  25 C :   -0.040567
  26 H :    0.019293
  27 H :    0.016845
  28 C :   -0.055184
  29 H :    0.017489
  30 H :    0.028351
  31 H :    0.027693
  32 H :    0.020293
  33 H :    0.013196

  Mayer bond orders larger than 0.100000
B(  0-S ,  1-C ) :   1.1268 B(  0-S ,  4-C ) :   1.1402 B(  1-C ,  2-C ) :   1.6335
B(  1-C , 32-H ) :   0.9630 B(  2-C ,  3-C ) :   1.2394 B(  2-C ,  6-C ) :   1.0393
B(  3-C ,  4-C ) :   1.5541 B(  3-C ,  5-H ) :   0.9781 B(  4-C , 20-C ) :   1.0866
B(  6-C ,  7-H ) :   0.9393 B(  6-C ,  8-H ) :   0.9378 B(  6-C ,  9-C ) :   1.0429
B(  9-C , 10-H ) :   0.9562 B(  9-C , 11-H ) :   0.9555 B(  9-C , 12-C ) :   1.0792
B( 12-C , 13-H ) :   0.9740 B( 12-C , 14-H ) :   0.9730 B( 12-C , 15-H ) :   0.9756
B( 16-S , 17-C ) :   1.1678 B( 16-S , 20-C ) :   1.1192 B( 17-C , 18-C ) :   1.6168
B( 17-C , 33-H ) :   0.9672 B( 18-C , 19-C ) :   1.2316 B( 18-C , 21-H ) :   0.9940
B( 19-C , 20-C ) :   1.5689 B( 19-C , 22-C ) :   1.0441 B( 22-C , 23-H ) :   0.9420
B( 22-C , 24-H ) :   0.9381 B( 22-C , 25-C ) :   1.0604 B( 25-C , 26-H ) :   0.9554
B( 25-C , 27-H ) :   0.9504 B( 25-C , 28-C ) :   1.0857 B( 28-C , 29-H ) :   0.9747
B( 28-C , 30-H ) :   0.9757 B( 28-C , 31-H ) :   0.9734

Dispersion correction           -0.013776758
FINAL SINGLE POINT ENERGY     -1339.870129405244

DIPOLE MOMENT
-------------
                                X             Y             Z
Electronic contribution:    -11.09308      10.66606       7.09969
Nuclear contribution   :     11.10937     -11.08781      -7.34845
                        -----------------------------------------
Total Dipole Moment    :      0.01628      -0.42175      -0.24876
                        -----------------------------------------
Magnitude (a.u.)       :      0.48992
Magnitude (Debye)      :      1.24527

Rotational constants in cm-1:     0.019829     0.007912     0.006396
Rotational constants in MHz :   594.462042   237.201645   191.746042

                             ****ORCA TERMINATED NORMALLY****
TOTAL RUN TIME: 0 days 0 hours 0 minutes 29 seconds 532 msec
