                         Program Version 4.2.1 -  RELEASE  -
|  1> ! wB97X-D3 SP def2-SVP
|  2> %pal
|  3> nprocs 16
|  4> end
|  5>
|  6> * xyz 0 1
|  7> S 	 -81.0784 	 32.924 	 133.143
|  8> C 	 -79.3602 	 33.0295 	 133.235
|  9> C 	 -78.9331 	 34.1391 	 133.896
| 10> C 	 -79.9952 	 35.0588 	 134.013
| 11> C 	 -81.2528 	 34.5822 	 133.608
| 12> H 	 -79.8418 	 36.0738 	 134.292
| 13> C 	 -77.502 	 34.4731 	 134.262
| 14> H 	 -77.2684 	 35.5705 	 134.456
| 15> H 	 -76.9569 	 34.1577 	 133.355
| 16> C 	 -76.8884 	 33.8018 	 135.507
| 17> H 	 -77.202 	 32.7525 	 135.428
| 18> H 	 -75.8044 	 33.8015 	 135.464
| 19> C 	 -77.419 	 34.4496 	 136.768
| 20> H 	 -77.0913 	 35.4964 	 136.846
| 21> H 	 -78.4886 	 34.5975 	 136.813
| 22> H 	 -77.0714 	 33.9984 	 137.752
| 23> S 	 -83.4279 	 35.1359 	 132.141
| 24> C 	 -84.6883 	 36.1906 	 132.816
| 25> C 	 -84.3648 	 36.7795 	 133.978
| 26> C 	 -83.0068 	 36.3983 	 134.347
| 27> C 	 -82.4578 	 35.3654 	 133.537
| 28> H 	 -84.9362 	 37.5134 	 134.454
| 29> C 	 -82.4363 	 36.977 	 135.636
| 30> H 	 -81.5531 	 36.3314 	 135.895
| 31> H 	 -83.3045 	 36.8681 	 136.329
| 32> C 	 -82.1153 	 38.4758 	 135.567
| 33> H 	 -83.0012 	 39.0246 	 135.268
| 34> H 	 -81.3679 	 38.6139 	 134.789
| 35> C 	 -81.6512 	 39.0709 	 136.907
| 36> H 	 -80.765 	 38.5437 	 137.243
| 37> H 	 -82.4799 	 38.9718 	 137.631
| 38> H 	 -81.3938 	 40.1112 	 136.761
| 39> H 	 -78.7224 	 32.2004 	 132.928
| 40> H 	 -85.6157 	 36.5098 	 132.282
| 41> *
| 42>
| 43>                          ****END OF INPUT****

CARTESIAN COORDINATES (ANGSTROEM)
---------------------------------
  S    -81.078400   32.924000  133.143000
  C    -79.360200   33.029500  133.235000
  C    -78.933100   34.139100  133.896000
  C    -79.995200   35.058800  134.013000
  C    -81.252800   34.582200  133.608000
  H    -79.841800   36.073800  134.292000
  C    -77.502000   34.473100  134.262000
  H    -77.268400   35.570500  134.456000
  H    -76.956900   34.157700  133.355000
  C    -76.888400   33.801800  135.507000
  H    -77.202000   32.752500  135.428000
  H    -75.804400   33.801500  135.464000
  C    -77.419000   34.449600  136.768000
  H    -77.091300   35.496400  136.846000
  H    -78.488600   34.597500  136.813000
  H    -77.071400   33.998400  137.752000
  S    -83.427900   35.135900  132.141000
  C    -84.688300   36.190600  132.816000
  C    -84.364800   36.779500  133.978000
  C    -83.006800   36.398300  134.347000
  C    -82.457800   35.365400  133.537000
  H    -84.936200   37.513400  134.454000
  C    -82.436300   36.977000  135.636000
  H    -81.553100   36.331400  135.895000
  H    -83.304500   36.868100  136.329000
  C    -82.115300   38.475800  135.567000
  H    -83.001200   39.024600  135.268000
  H    -81.367900   38.613900  134.789000
  C    -81.651200   39.070900  136.907000
  H    -80.765000   38.543700  137.243000
  H    -82.479900   38.971800  137.631000
  H    -81.393800   40.111200  136.761000
  H    -78.722400   32.200400  132.928000
  H    -85.615700   36.509800  132.282000

 Total Charge           Charge          ....    0
 Multiplicity           Mult            ....    1
 Number of Electrons    NEL             ....  134
 Basis Dimension        Dim             ....  322

ORBITAL ENERGIES
----------------

  NO   OCC          E(Eh)            E(eV)
   0   2.0000     -88.969427     -2420.9812
   1   2.0000     -88.964522     -2420.8477
   2   2.0000     -10.328603      -281.0556
   3   2.0000     -10.326510      -280.9986
   4   2.0000     -10.317700      -280.7589
   5   2.0000     -10.311804      -280.5984
   6   2.0000     -10.306808      -280.4625
   7   2.0000     -10.299418      -280.2614
   8   2.0000     -10.298989      -280.2497
   9   2.0000     -10.294803      -280.1358
  10   2.0000     -10.290187      -280.0102
  11   2.0000     -10.289819      -280.0002
  12   2.0000     -10.288754      -279.9712
  13   2.0000     -10.286327      -279.9052
  14   2.0000     -10.280791      -279.7546
  15   2.0000     -10.279807      -279.7278
  16   2.0000      -8.084788      -219.9983
  17   2.0000      -8.079590      -219.8568
  18   2.0000      -6.043190      -164.4436
  19   2.0000      -6.039279      -164.3371
  20   2.0000      -6.038170      -164.3070
  21   2.0000      -6.035544      -164.2355
  22   2.0000      -6.034151      -164.1976
  23   2.0000      -6.030146      -164.0886
  24   2.0000      -1.012704       -27.5571
  25   2.0000      -0.988526       -26.8992
  26   2.0000      -0.915240       -24.9050
  27   2.0000      -0.908210       -24.7137
  28   2.0000      -0.876813       -23.8593
  29   2.0000      -0.852305       -23.1924
  30   2.0000      -0.847648       -23.0657
  31   2.0000      -0.816470       -22.2173
  32   2.0000      -0.781612       -21.2687
  33   2.0000      -0.766093       -20.8465
  34   2.0000      -0.706466       -19.2239
  35   2.0000      -0.703854       -19.1528
  36   2.0000      -0.689433       -18.7604
  37   2.0000      -0.666425       -18.1343
  38   2.0000      -0.641293       -17.4505
  39   2.0000      -0.617481       -16.8025
  40   2.0000      -0.588414       -16.0116
  41   2.0000      -0.579188       -15.7605
  42   2.0000      -0.571325       -15.5465
  43   2.0000      -0.555568       -15.1178
  44   2.0000      -0.544490       -14.8163
  45   2.0000      -0.522975       -14.2309
  46   2.0000      -0.518066       -14.0973
  47   2.0000      -0.505957       -13.7678
  48   2.0000      -0.502954       -13.6861
  49   2.0000      -0.499010       -13.5788
  50   2.0000      -0.488149       -13.2832
  51   2.0000      -0.482719       -13.1354
  52   2.0000      -0.473206       -12.8766
  53   2.0000      -0.463792       -12.6204
  54   2.0000      -0.461838       -12.5672
  55   2.0000      -0.454245       -12.3606
  56   2.0000      -0.443633       -12.0719
  57   2.0000      -0.435448       -11.8491
  58   2.0000      -0.431840       -11.7510
  59   2.0000      -0.428816       -11.6687
  60   2.0000      -0.424009       -11.5379
  61   2.0000      -0.416435       -11.3318
  62   2.0000      -0.414496       -11.2790
  63   2.0000      -0.355819        -9.6823
  64   2.0000      -0.333296        -9.0694
  65   2.0000      -0.326920        -8.8959
  66   2.0000      -0.284087        -7.7304
  67   0.0000       0.023397         0.6367
  68   0.0000       0.079433         2.1615
  69   0.0000       0.110408         3.0044
  70   0.0000       0.114987         3.1290
  71   0.0000       0.123364         3.3569

MULLIKEN ATOMIC CHARGES
-----------------------
   0 S :    0.132505
   1 C :   -0.143419
   2 C :   -0.037949
   3 C :    0.013045
   4 C :   -0.145025
   5 H :   -0.004597
   6 C :    0.000787
   7 H :    0.033258
   8 H :    0.037015
   9 C :   -0.025768
  10 H :    0.023852
  11 H :    0.034379
  12 C :   -0.072389
  13 H :    0.014075
  14 H :    0.032463
  15 H :    0.045257
  16 S :    0.104855
  17 C :   -0.089574
  18 C :   -0.002555
  19 C :   -0.055237
  20 C :   -0.143971
  21 H :    0.004077
  22 C :    0.025839
  23 H :    0.034281
  24 H :    0.032083
  25 C :   -0.088784
  26 H :    0.021413
  27 H :    0.026359
  28 C :   -0.020394
  29 H :    0.028043
  30 H :    0.033705
  31 H :    0.036326
  32 H :    0.050815
  33 H :    0.065232
Sum of atomic charges:    0.0000000

LOEWDIN ATOMIC CHARGES
----------------------
   0 S :    0.429269
   1 C :   -0.201143
   2 C :   -0.068033
   3 C :   -0.060693
   4 C :   -0.206186
   5 H :    0.022500
   6 C :   -0.036226
   7 H :    0.034024
   8 H :    0.036293
   9 C :   -0.040726
  10 H :    0.023309
  11 H :    0.025873
  12 C :   -0.076501
  13 H :    0.023249
  14 H :    0.024830
  15 H :    0.033539
  16 S :    0.405952
  17 C :   -0.177196
  18 C :   -0.064103
  19 C :   -0.048821
  20 C :   -0.214130
  21 H :    0.025168
  22 C :   -0.039871
  23 H :    0.032247
  24 H :    0.034564
  25 C :   -0.041462
  26 H :    0.020492
  27 H :    0.020929
  28 C :   -0.059895
  29 H :    0.023152
  30 H :    0.027470
  31 H :    0.026412
  32 H :    0.028319
  33 H :    0.037396

  Mayer bond orders larger than 0.100000
B(  0-S ,  1-C ) :   1.1527 B(  0-S ,  4-C ) :   1.1600 B(  1-C ,  2-C ) :   1.5847
B(  1-C , 32-H ) :   0.9647 B(  2-C ,  3-C ) :   1.2713 B(  2-C ,  6-C ) :   1.0103
B(  3-C ,  4-C ) :   1.5250 B(  3-C ,  5-H ) :   0.9994 B(  4-C , 20-C ) :   1.0815
B(  6-C ,  7-H ) :   0.9535 B(  6-C ,  8-H ) :   0.9389 B(  6-C ,  9-C ) :   1.0666
B(  9-C , 10-H ) :   0.9540 B(  9-C , 11-H ) :   0.9552 B(  9-C , 12-C ) :   1.0707
B( 12-C , 13-H ) :   0.9695 B( 12-C , 14-H ) :   0.9773 B( 12-C , 15-H ) :   0.9732
B( 16-S , 17-C ) :   1.1346 B( 16-S , 20-C ) :   1.1377 B( 17-C , 18-C ) :   1.6445
B( 17-C , 33-H ) :   0.9567 B( 18-C , 19-C ) :   1.2231 B( 18-C , 21-H ) :   0.9943
B( 19-C , 20-C ) :   1.5720 B( 19-C , 22-C ) :   1.0475 B( 22-C , 23-H ) :   0.9349
B( 22-C , 24-H ) :   0.9363 B( 22-C , 25-C ) :   1.0619 B( 25-C , 26-H ) :   0.9537
B( 25-C , 27-H ) :   0.9534 B( 25-C , 28-C ) :   1.0882 B( 28-C , 29-H ) :   0.9741
B( 28-C , 30-H ) :   0.9742 B( 28-C , 31-H ) :   0.9739

Dispersion correction           -0.014008453
FINAL SINGLE POINT ENERGY     -1339.880175528966

DIPOLE MOMENT
-------------
                                X             Y             Z
Electronic contribution:    -16.79061     -15.05238     -21.70466
Nuclear contribution   :     17.09012      15.53774      22.02985
                        -----------------------------------------
Total Dipole Moment    :      0.29951       0.48536       0.32519
                        -----------------------------------------
Magnitude (a.u.)       :      0.65653
Magnitude (Debye)      :      1.66877

Rotational constants in cm-1:     0.016798     0.009653     0.006445
Rotational constants in MHz :   503.601235   289.397490   193.221625

                             ****ORCA TERMINATED NORMALLY****
TOTAL RUN TIME: 0 days 0 hours 0 minutes 35 seconds 537 msec
