                         Program Version 4.2.1 -  RELEASE  -
|  1> ! wB97X-D3 SP def2-SVP
|  2> %pal
|  3> nprocs 16
|  4> end
|  5>
|  6> * xyz 0 1
|  7> S 	 -104.791 	 41.0008 	 131.133
|  8> C 	 -103.072 	 41.3753 	 131.022
|  9> C 	 -102.563 	 41.0406 	 129.827
| 10> C 	 -103.577 	 40.5292 	 128.944
| 11> C 	 -104.822 	 40.4132 	 129.539
| 12> H 	 -103.356 	 40.2051 	 127.941
| 13> C 	 -101.13 	 41.2835 	 129.334
| 14> H 	 -100.605 	 40.3711 	 129.178
| 15> H 	 -100.596 	 41.6358 	 130.211
| 16> C 	 -100.827 	 42.2415 	 128.164
| 17> H 	 -101.414 	 41.9677 	 127.249
| 18> H 	 -101.069 	 43.2359 	 128.493
| 19> C 	 -99.3466 	 42.2769 	 127.753
| 20> H 	 -98.6141 	 42.7385 	 128.352
| 21> H 	 -98.9413 	 41.2509 	 127.499
| 22> H 	 -99.2375 	 42.7372 	 126.781
| 23> S 	 -106.557 	 38.2798 	 129.824
| 24> C 	 -107.972 	 38.1522 	 128.796
| 25> C 	 -107.914 	 39.1365 	 127.852
| 26> C 	 -106.723 	 39.9663 	 127.854
| 27> C 	 -105.998 	 39.7332 	 129.038
| 28> H 	 -108.718 	 39.144 	 127.073
| 29> C 	 -106.394 	 41.0031 	 126.741
| 30> H 	 -105.594 	 41.6907 	 127.028
| 31> H 	 -107.164 	 41.7553 	 126.602
| 32> C 	 -105.935 	 40.4363 	 125.405
| 33> H 	 -106.804 	 40.1318 	 124.817
| 34> H 	 -105.317 	 39.5317 	 125.644
| 35> C 	 -104.933 	 41.294 	 124.571
| 36> H 	 -103.991 	 41.3693 	 125.087
| 37> H 	 -105.408 	 42.2512 	 124.449
| 38> H 	 -104.729 	 40.863 	 123.675
| 39> H 	 -102.439 	 41.536 	 131.888
| 40> H 	 -108.769 	 37.4473 	 128.787
| 41> *
| 42>
| 43>                          ****END OF INPUT****

CARTESIAN COORDINATES (ANGSTROEM)
---------------------------------
  S    -104.791000   41.000800  131.133000
  C    -103.072000   41.375300  131.022000
  C    -102.563000   41.040600  129.827000
  C    -103.577000   40.529200  128.944000
  C    -104.822000   40.413200  129.539000
  H    -103.356000   40.205100  127.941000
  C    -101.130000   41.283500  129.334000
  H    -100.605000   40.371100  129.178000
  H    -100.596000   41.635800  130.211000
  C    -100.827000   42.241500  128.164000
  H    -101.414000   41.967700  127.249000
  H    -101.069000   43.235900  128.493000
  C    -99.346600   42.276900  127.753000
  H    -98.614100   42.738500  128.352000
  H    -98.941300   41.250900  127.499000
  H    -99.237500   42.737200  126.781000
  S    -106.557000   38.279800  129.824000
  C    -107.972000   38.152200  128.796000
  C    -107.914000   39.136500  127.852000
  C    -106.723000   39.966300  127.854000
  C    -105.998000   39.733200  129.038000
  H    -108.718000   39.144000  127.073000
  C    -106.394000   41.003100  126.741000
  H    -105.594000   41.690700  127.028000
  H    -107.164000   41.755300  126.602000
  C    -105.935000   40.436300  125.405000
  H    -106.804000   40.131800  124.817000
  H    -105.317000   39.531700  125.644000
  C    -104.933000   41.294000  124.571000
  H    -103.991000   41.369300  125.087000
  H    -105.408000   42.251200  124.449000
  H    -104.729000   40.863000  123.675000
  H    -102.439000   41.536000  131.888000
  H    -108.769000   37.447300  128.787000

 Total Charge           Charge          ....    0
 Multiplicity           Mult            ....    1
 Number of Electrons    NEL             ....  134
 Basis Dimension        Dim             ....  322

ORBITAL ENERGIES
----------------

  NO   OCC          E(Eh)            E(eV)
   0   2.0000     -88.966180     -2420.8928
   1   2.0000     -88.964845     -2420.8565
   2   2.0000     -10.328795      -281.0608
   3   2.0000     -10.325699      -280.9765
   4   2.0000     -10.314428      -280.6699
   5   2.0000     -10.311514      -280.5906
   6   2.0000     -10.309870      -280.5458
   7   2.0000     -10.299055      -280.2515
   8   2.0000     -10.296345      -280.1778
   9   2.0000     -10.295172      -280.1459
  10   2.0000     -10.292105      -280.0624
  11   2.0000     -10.292079      -280.0617
  12   2.0000     -10.290613      -280.0218
  13   2.0000     -10.287700      -279.9426
  14   2.0000     -10.280030      -279.7339
  15   2.0000     -10.271709      -279.5074
  16   2.0000      -8.080791      -219.8895
  17   2.0000      -8.080583      -219.8838
  18   2.0000      -6.039386      -164.3401
  19   2.0000      -6.039056      -164.3311
  20   2.0000      -6.035294      -164.2287
  21   2.0000      -6.034931      -164.2188
  22   2.0000      -6.031455      -164.1242
  23   2.0000      -6.031317      -164.1205
  24   2.0000      -1.011139       -27.5145
  25   2.0000      -0.985889       -26.8274
  26   2.0000      -0.911249       -24.7963
  27   2.0000      -0.905490       -24.6396
  28   2.0000      -0.874367       -23.7927
  29   2.0000      -0.849144       -23.1064
  30   2.0000      -0.843797       -22.9609
  31   2.0000      -0.816036       -22.2055
  32   2.0000      -0.788555       -21.4577
  33   2.0000      -0.779316       -21.2063
  34   2.0000      -0.712222       -19.3805
  35   2.0000      -0.699315       -19.0293
  36   2.0000      -0.693650       -18.8752
  37   2.0000      -0.652643       -17.7593
  38   2.0000      -0.640082       -17.4175
  39   2.0000      -0.623747       -16.9730
  40   2.0000      -0.598496       -16.2859
  41   2.0000      -0.572819       -15.5872
  42   2.0000      -0.566161       -15.4060
  43   2.0000      -0.562709       -15.3121
  44   2.0000      -0.529943       -14.4205
  45   2.0000      -0.521571       -14.1927
  46   2.0000      -0.519563       -14.1380
  47   2.0000      -0.510276       -13.8853
  48   2.0000      -0.508060       -13.8250
  49   2.0000      -0.501250       -13.6397
  50   2.0000      -0.492522       -13.4022
  51   2.0000      -0.479780       -13.0555
  52   2.0000      -0.471163       -12.8210
  53   2.0000      -0.469162       -12.7665
  54   2.0000      -0.463473       -12.6117
  55   2.0000      -0.451506       -12.2861
  56   2.0000      -0.449001       -12.2179
  57   2.0000      -0.430097       -11.7035
  58   2.0000      -0.427957       -11.6453
  59   2.0000      -0.425086       -11.5672
  60   2.0000      -0.422971       -11.5096
  61   2.0000      -0.416443       -11.3320
  62   2.0000      -0.411041       -11.1850
  63   2.0000      -0.342609        -9.3229
  64   2.0000      -0.335366        -9.1258
  65   2.0000      -0.326100        -8.8736
  66   2.0000      -0.300351        -8.1730
  67   0.0000       0.032996         0.8979
  68   0.0000       0.071539         1.9467
  69   0.0000       0.117306         3.1921
  70   0.0000       0.120680         3.2839
  71   0.0000       0.126075         3.4307

MULLIKEN ATOMIC CHARGES
-----------------------
   0 S :    0.114383
   1 C :   -0.124728
   2 C :   -0.086386
   3 C :    0.045454
   4 C :   -0.163162
   5 H :   -0.001255
   6 C :    0.087645
   7 H :    0.016710
   8 H :   -0.000381
   9 C :   -0.054477
  10 H :    0.039753
  11 H :    0.033030
  12 C :   -0.061600
  13 H :    0.032122
  14 H :    0.022997
  15 H :    0.024122
  16 S :    0.118788
  17 C :   -0.077296
  18 C :   -0.049056
  19 C :   -0.016554
  20 C :   -0.156169
  21 H :    0.030915
  22 C :    0.075433
  23 H :    0.009039
  24 H :    0.026768
  25 C :   -0.121598
  26 H :    0.034119
  27 H :    0.033590
  28 C :    0.000528
  29 H :    0.026623
  30 H :    0.028133
  31 H :    0.015126
  32 H :    0.052281
  33 H :    0.045103
Sum of atomic charges:    0.0000000

LOEWDIN ATOMIC CHARGES
----------------------
   0 S :    0.425765
   1 C :   -0.195727
   2 C :   -0.063391
   3 C :   -0.058898
   4 C :   -0.209707
   5 H :    0.025618
   6 C :   -0.034379
   7 H :    0.025509
   8 H :    0.028655
   9 C :   -0.033817
  10 H :    0.029601
  11 H :    0.025509
  12 C :   -0.070258
  13 H :    0.018193
  14 H :    0.028939
  15 H :    0.028220
  16 S :    0.409837
  17 C :   -0.187784
  18 C :   -0.074527
  19 C :   -0.047536
  20 C :   -0.203576
  21 H :    0.035814
  22 C :   -0.040374
  23 H :    0.030844
  24 H :    0.029850
  25 C :   -0.043151
  26 H :    0.020597
  27 H :    0.027829
  28 C :   -0.049059
  29 H :    0.024010
  30 H :    0.022998
  31 H :    0.014055
  32 H :    0.030754
  33 H :    0.029588

  Mayer bond orders larger than 0.100000
B(  0-S ,  1-C ) :   1.1259 B(  0-S ,  4-C ) :   1.1724 B(  1-C ,  2-C ) :   1.6558
B(  1-C , 32-H ) :   0.9564 B(  2-C ,  3-C ) :   1.2390 B(  2-C ,  6-C ) :   1.0195
B(  3-C ,  4-C ) :   1.5618 B(  3-C ,  5-H ) :   1.0007 B(  4-C , 20-C ) :   1.0256
B(  6-C ,  7-H ) :   0.9348 B(  6-C ,  8-H ) :   0.9350 B(  6-C ,  9-C ) :   1.0614
B(  9-C , 10-H ) :   0.9552 B(  9-C , 11-H ) :   0.9558 B(  9-C , 12-C ) :   1.0827
B( 12-C , 13-H ) :   0.9791 B( 12-C , 14-H ) :   0.9711 B( 12-C , 15-H ) :   0.9719
B( 16-S , 17-C ) :   1.1325 B( 16-S , 20-C ) :   1.1561 B( 17-C , 18-C ) :   1.6395
B( 17-C , 33-H ) :   0.9713 B( 18-C , 19-C ) :   1.2294 B( 18-C , 21-H ) :   0.9787
B( 19-C , 20-C ) :   1.5831 B( 19-C , 22-C ) :   1.0518 B( 22-C , 23-H ) :   0.9326
B( 22-C , 24-H ) :   0.9344 B( 22-C , 25-C ) :   1.0460 B( 25-C , 26-H ) :   0.9572
B( 25-C , 27-H ) :   0.9598 B( 25-C , 28-C ) :   1.0905 B( 28-C , 29-H ) :   0.9731
B( 28-C , 30-H ) :   0.9762 B( 28-C , 31-H ) :   0.9722

Dispersion correction           -0.013974929
FINAL SINGLE POINT ENERGY     -1339.870256221057

DIPOLE MOMENT
-------------
                                X             Y             Z
Electronic contribution:    -19.16856     -11.58646      24.03352
Nuclear contribution   :     19.55089      11.69048     -24.64598
                        -----------------------------------------
Total Dipole Moment    :      0.38233       0.10401      -0.61246
                        -----------------------------------------
Magnitude (a.u.)       :      0.72945
Magnitude (Debye)      :      1.85412

Rotational constants in cm-1:     0.017279     0.009007     0.006414
Rotational constants in MHz :   518.019913   270.026109   192.278753

                             ****ORCA TERMINATED NORMALLY****
TOTAL RUN TIME: 0 days 0 hours 0 minutes 33 seconds 869 msec
