                         Program Version 4.2.1 -  RELEASE  -
|  1> ! wB97X-D3 SP def2-SVP
|  2> %pal
|  3> nprocs 16
|  4> end
|  5>
|  6> * xyz 0 1
|  7> S 	 -3.04156 	 -22.2814 	 58.4195
|  8> C 	 -1.70456 	 -21.4348 	 59.0698
|  9> C 	 -0.862915 	 -22.3029 	 59.7546
| 10> C 	 -1.42804 	 -23.62 	 59.8935
| 11> C 	 -2.45293 	 -23.7487 	 58.9572
| 12> H 	 -1.10765 	 -24.4996 	 60.487
| 13> C 	 0.342815 	 -21.8729 	 60.6719
| 14> H 	 0.178737 	 -22.2938 	 61.654
| 15> H 	 0.365792 	 -20.8186 	 60.8866
| 16> C 	 1.75476 	 -22.4485 	 60.2922
| 17> H 	 2.4373 	 -22.0936 	 61.0599
| 18> H 	 1.66306 	 -23.4918 	 60.469
| 19> C 	 2.25242 	 -22.1053 	 58.8206
| 20> H 	 3.29776 	 -22.3721 	 58.9161
| 21> H 	 1.8273 	 -22.8313 	 58.085
| 22> H 	 2.09397 	 -21.0014 	 58.6145
| 23> S 	 -4.66857 	 -25.2386 	 59.7212
| 24> C 	 -4.92381 	 -26.8168 	 58.9838
| 25> C 	 -4.00489 	 -27.1005 	 57.9822
| 26> C 	 -3.02833 	 -26.0864 	 57.78
| 27> C 	 -3.16153 	 -25.0173 	 58.6977
| 28> H 	 -4.17323 	 -27.9642 	 57.3105
| 29> C 	 -2.07884 	 -26.1002 	 56.6608
| 30> H 	 -2.1111 	 -27.0448 	 56.1616
| 31> H 	 -1.04994 	 -26.1631 	 57.0074
| 32> C 	 -2.17098 	 -24.9172 	 55.5702
| 33> H 	 -1.76986 	 -23.9694 	 55.8529
| 34> H 	 -3.21314 	 -24.6189 	 55.3385
| 35> C 	 -1.4241 	 -25.3108 	 54.3019
| 36> H 	 -1.7425 	 -26.1988 	 53.7862
| 37> H 	 -0.331195 	 -25.4789 	 54.5386
| 38> H 	 -1.51755 	 -24.5331 	 53.5325
| 39> H 	 -1.52561 	 -20.3898 	 58.9125
| 40> H 	 -5.6051 	 -27.5883 	 59.3107
| 41> *
| 42>
| 43>                          ****END OF INPUT****

CARTESIAN COORDINATES (ANGSTROEM)
---------------------------------
  S     -3.041560  -22.281400   58.419500
  C     -1.704560  -21.434800   59.069800
  C     -0.862915  -22.302900   59.754600
  C     -1.428040  -23.620000   59.893500
  C     -2.452930  -23.748700   58.957200
  H     -1.107650  -24.499600   60.487000
  C      0.342815  -21.872900   60.671900
  H      0.178737  -22.293800   61.654000
  H      0.365792  -20.818600   60.886600
  C      1.754760  -22.448500   60.292200
  H      2.437300  -22.093600   61.059900
  H      1.663060  -23.491800   60.469000
  C      2.252420  -22.105300   58.820600
  H      3.297760  -22.372100   58.916100
  H      1.827300  -22.831300   58.085000
  H      2.093970  -21.001400   58.614500
  S     -4.668570  -25.238600   59.721200
  C     -4.923810  -26.816800   58.983800
  C     -4.004890  -27.100500   57.982200
  C     -3.028330  -26.086400   57.780000
  C     -3.161530  -25.017300   58.697700
  H     -4.173230  -27.964200   57.310500
  C     -2.078840  -26.100200   56.660800
  H     -2.111100  -27.044800   56.161600
  H     -1.049940  -26.163100   57.007400
  C     -2.170980  -24.917200   55.570200
  H     -1.769860  -23.969400   55.852900
  H     -3.213140  -24.618900   55.338500
  C     -1.424100  -25.310800   54.301900
  H     -1.742500  -26.198800   53.786200
  H     -0.331195  -25.478900   54.538600
  H     -1.517550  -24.533100   53.532500
  H     -1.525610  -20.389800   58.912500
  H     -5.605100  -27.588300   59.310700

 Total Charge           Charge          ....    0
 Multiplicity           Mult            ....    1
 Number of Electrons    NEL             ....  134
 Basis Dimension        Dim             ....  322

ORBITAL ENERGIES
----------------

  NO   OCC          E(Eh)            E(eV)
   0   2.0000     -88.967014     -2420.9155
   1   2.0000     -88.964496     -2420.8470
   2   2.0000     -10.330949      -281.1194
   3   2.0000     -10.323146      -280.9071
   4   2.0000     -10.317548      -280.7547
   5   2.0000     -10.310589      -280.5654
   6   2.0000     -10.306128      -280.4440
   7   2.0000     -10.306049      -280.4419
   8   2.0000     -10.297533      -280.2101
   9   2.0000     -10.294035      -280.1149
  10   2.0000     -10.290463      -280.0177
  11   2.0000     -10.290071      -280.0071
  12   2.0000     -10.287788      -279.9449
  13   2.0000     -10.286442      -279.9083
  14   2.0000     -10.285847      -279.8921
  15   2.0000     -10.277933      -279.6768
  16   2.0000      -8.083770      -219.9706
  17   2.0000      -8.077821      -219.8087
  18   2.0000      -6.042014      -164.4116
  19   2.0000      -6.037926      -164.3003
  20   2.0000      -6.036338      -164.2571
  21   2.0000      -6.034740      -164.2136
  22   2.0000      -6.032553      -164.1541
  23   2.0000      -6.028641      -164.0477
  24   2.0000      -1.012151       -27.5420
  25   2.0000      -0.977686       -26.6042
  26   2.0000      -0.901120       -24.5207
  27   2.0000      -0.898969       -24.4622
  28   2.0000      -0.862720       -23.4758
  29   2.0000      -0.850834       -23.1524
  30   2.0000      -0.845465       -23.0063
  31   2.0000      -0.807219       -21.9655
  32   2.0000      -0.781790       -21.2736
  33   2.0000      -0.768276       -20.9058
  34   2.0000      -0.708712       -19.2850
  35   2.0000      -0.695821       -18.9343
  36   2.0000      -0.688642       -18.7389
  37   2.0000      -0.655848       -17.8465
  38   2.0000      -0.645307       -17.5597
  39   2.0000      -0.612087       -16.6557
  40   2.0000      -0.595089       -16.1932
  41   2.0000      -0.562200       -15.2982
  42   2.0000      -0.550095       -14.9688
  43   2.0000      -0.542855       -14.7718
  44   2.0000      -0.535393       -14.5688
  45   2.0000      -0.523368       -14.2416
  46   2.0000      -0.517079       -14.0704
  47   2.0000      -0.510515       -13.8918
  48   2.0000      -0.501096       -13.6355
  49   2.0000      -0.495996       -13.4967
  50   2.0000      -0.487201       -13.2574
  51   2.0000      -0.481978       -13.1153
  52   2.0000      -0.468423       -12.7464
  53   2.0000      -0.459955       -12.5160
  54   2.0000      -0.454594       -12.3701
  55   2.0000      -0.451310       -12.2808
  56   2.0000      -0.443982       -12.0814
  57   2.0000      -0.433141       -11.7864
  58   2.0000      -0.430455       -11.7133
  59   2.0000      -0.425617       -11.5816
  60   2.0000      -0.418578       -11.3901
  61   2.0000      -0.414481       -11.2786
  62   2.0000      -0.411147       -11.1879
  63   2.0000      -0.334447        -9.1008
  64   2.0000      -0.326331        -8.8799
  65   2.0000      -0.318009        -8.6535
  66   2.0000      -0.304863        -8.2957
  67   0.0000       0.041619         1.1325
  68   0.0000       0.048633         1.3234
  69   0.0000       0.108872         2.9626
  70   0.0000       0.113635         3.0922
  71   0.0000       0.131760         3.5854

MULLIKEN ATOMIC CHARGES
-----------------------
   0 S :    0.141443
   1 C :   -0.126121
   2 C :   -0.054873
   3 C :    0.020687
   4 C :   -0.174435
   5 H :    0.041091
   6 C :    0.041094
   7 H :    0.021257
   8 H :    0.016164
   9 C :   -0.086948
  10 H :    0.029375
  11 H :    0.017775
  12 C :   -0.064941
  13 H :    0.034849
  14 H :    0.054128
  15 H :    0.052875
  16 S :    0.095658
  17 C :   -0.079023
  18 C :   -0.063825
  19 C :    0.000772
  20 C :   -0.198107
  21 H :    0.032996
  22 C :    0.097291
  23 H :   -0.004998
  24 H :    0.026473
  25 C :   -0.049087
  26 H :    0.028221
  27 H :    0.032119
  28 C :   -0.079453
  29 H :    0.025178
  30 H :    0.034626
  31 H :    0.034231
  32 H :    0.046962
  33 H :    0.056547
Sum of atomic charges:    0.0000000

LOEWDIN ATOMIC CHARGES
----------------------
   0 S :    0.463366
   1 C :   -0.212643
   2 C :   -0.059304
   3 C :   -0.058257
   4 C :   -0.233814
   5 H :    0.041949
   6 C :   -0.033141
   7 H :    0.030760
   8 H :    0.020654
   9 C :   -0.039535
  10 H :    0.022854
  11 H :    0.016071
  12 C :   -0.073187
  13 H :    0.025789
  14 H :    0.034369
  15 H :    0.034530
  16 S :    0.369570
  17 C :   -0.180537
  18 C :   -0.080515
  19 C :   -0.052490
  20 C :   -0.176445
  21 H :    0.038080
  22 C :   -0.033860
  23 H :    0.026484
  24 H :    0.037501
  25 C :   -0.034582
  26 H :    0.020842
  27 H :    0.026767
  28 C :   -0.071959
  29 H :    0.017684
  30 H :    0.029787
  31 H :    0.027903
  32 H :    0.025407
  33 H :    0.029903

  Mayer bond orders larger than 0.100000
B(  0-S ,  1-C ) :   1.1547 B(  0-S ,  4-C ) :   1.1978 B(  1-C ,  2-C ) :   1.5852
B(  1-C , 32-H ) :   0.9743 B(  2-C ,  3-C ) :   1.2442 B(  2-C ,  6-C ) :   1.0152
B(  3-C ,  4-C ) :   1.5565 B(  3-C ,  5-H ) :   0.9858 B(  4-C , 20-C ) :   1.0052
B(  6-C ,  7-H ) :   0.9461 B(  6-C ,  8-H ) :   0.9528 B(  6-C ,  9-C ) :   1.0688
B(  9-C , 10-H ) :   0.9599 B(  9-C , 11-H ) :   0.9592 B(  9-C , 12-C ) :   1.0609
B( 12-C , 13-H ) :   0.9768 B( 12-C , 14-H ) :   0.9743 B( 12-C , 15-H ) :   0.9784
B( 16-S , 17-C ) :   1.1528 B( 16-S , 20-C ) :   1.1316 B( 17-C , 18-C ) :   1.6251
B( 17-C , 20-C ) :   0.1095 B( 17-C , 33-H ) :   0.9607 B( 18-C , 19-C ) :   1.2491
B( 18-C , 21-H ) :   0.9775 B( 19-C , 20-C ) :   1.5882 B( 19-C , 22-C ) :   1.0695
B( 22-C , 23-H ) :   0.9306 B( 22-C , 24-H ) :   0.9153 B( 22-C , 25-C ) :   1.0343
B( 25-C , 26-H ) :   0.9516 B( 25-C , 27-H ) :   0.9619 B( 25-C , 28-C ) :   1.0856
B( 28-C , 29-H ) :   0.9771 B( 28-C , 30-H ) :   0.9738 B( 28-C , 31-H ) :   0.9732

Dispersion correction           -0.014461701
FINAL SINGLE POINT ENERGY     -1339.859186251361

DIPOLE MOMENT
-------------
                                X             Y             Z
Electronic contribution:    -24.16090      -0.23667      10.79639
Nuclear contribution   :     24.62129       0.10209     -10.86999
                        -----------------------------------------
Total Dipole Moment    :      0.46039      -0.13458      -0.07360
                        -----------------------------------------
Magnitude (a.u.)       :      0.48527
Magnitude (Debye)      :      1.23346

Rotational constants in cm-1:     0.017655     0.008995     0.007316
Rotational constants in MHz :   529.294311   269.677841   219.332399

                             ****ORCA TERMINATED NORMALLY****
TOTAL RUN TIME: 0 days 0 hours 0 minutes 34 seconds 675 msec
