                         Program Version 4.2.1 -  RELEASE  -
|  1> ! wB97X-D3 SP def2-SVP
|  2> %pal
|  3> nprocs 16
|  4> end
|  5>
|  6> * xyz 0 1
|  7> S 	 28.3155 	 3.03388 	 79.1875
|  8> C 	 29.2632 	 4.53898 	 79.1931
|  9> C 	 29.4546 	 5.02341 	 77.8976
| 10> C 	 28.7601 	 4.22319 	 76.9336
| 11> C 	 27.9632 	 3.20344 	 77.4745
| 12> H 	 28.7483 	 4.33961 	 75.8253
| 13> C 	 30.2969 	 6.19444 	 77.5778
| 14> H 	 31.304 	 6.00495 	 78.0703
| 15> H 	 29.9845 	 7.09225 	 78.2019
| 16> C 	 30.5079 	 6.69101 	 76.1848
| 17> H 	 31.4284 	 7.33048 	 76.125
| 18> H 	 30.7284 	 5.92383 	 75.5209
| 19> C 	 29.3026 	 7.43249 	 75.5755
| 20> H 	 28.4766 	 6.86137 	 75.2011
| 21> H 	 29.0049 	 8.09456 	 76.3571
| 22> H 	 29.6326 	 7.96966 	 74.7186
| 23> S 	 28.018 	 0.542791 	 76.8008
| 24> C 	 26.6997 	 -0.0780869 	 75.7832
| 25> C 	 25.7503 	 0.914518 	 75.4487
| 26> C 	 26.1283 	 2.19613 	 75.9427
| 27> C 	 27.213 	 2.14027 	 76.8308
| 28> H 	 24.8781 	 0.751857 	 74.8129
| 29> C 	 25.4379 	 3.44933 	 75.6297
| 30> H 	 25.8412 	 4.31435 	 76.208
| 31> H 	 24.459 	 3.26662 	 76.0626
| 32> C 	 25.5244 	 3.86962 	 74.1635
| 33> H 	 25.5004 	 3.08038 	 73.4681
| 34> H 	 26.5803 	 4.28852 	 74.1428
| 35> C 	 24.6043 	 4.94727 	 73.678
| 36> H 	 24.846 	 5.88276 	 74.163
| 37> H 	 23.5599 	 4.59526 	 73.6961
| 38> H 	 24.8708 	 5.20961 	 72.7106
| 39> H 	 29.6824 	 4.96324 	 80.096
| 40> H 	 26.7378 	 -1.10035 	 75.4078
| 41> *
| 42>
| 43>                          ****END OF INPUT****

CARTESIAN COORDINATES (ANGSTROEM)
---------------------------------
  S     28.315500    3.033880   79.187500
  C     29.263200    4.538980   79.193100
  C     29.454600    5.023410   77.897600
  C     28.760100    4.223190   76.933600
  C     27.963200    3.203440   77.474500
  H     28.748300    4.339610   75.825300
  C     30.296900    6.194440   77.577800
  H     31.304000    6.004950   78.070300
  H     29.984500    7.092250   78.201900
  C     30.507900    6.691010   76.184800
  H     31.428400    7.330480   76.125000
  H     30.728400    5.923830   75.520900
  C     29.302600    7.432490   75.575500
  H     28.476600    6.861370   75.201100
  H     29.004900    8.094560   76.357100
  H     29.632600    7.969660   74.718600
  S     28.018000    0.542791   76.800800
  C     26.699700   -0.078087   75.783200
  C     25.750300    0.914518   75.448700
  C     26.128300    2.196130   75.942700
  C     27.213000    2.140270   76.830800
  H     24.878100    0.751857   74.812900
  C     25.437900    3.449330   75.629700
  H     25.841200    4.314350   76.208000
  H     24.459000    3.266620   76.062600
  C     25.524400    3.869620   74.163500
  H     25.500400    3.080380   73.468100
  H     26.580300    4.288520   74.142800
  C     24.604300    4.947270   73.678000
  H     24.846000    5.882760   74.163000
  H     23.559900    4.595260   73.696100
  H     24.870800    5.209610   72.710600
  H     29.682400    4.963240   80.096000
  H     26.737800   -1.100350   75.407800

 Total Charge           Charge          ....    0
 Multiplicity           Mult            ....    1
 Number of Electrons    NEL             ....  134
 Basis Dimension        Dim             ....  322

ORBITAL ENERGIES
----------------

  NO   OCC          E(Eh)            E(eV)
   0   2.0000     -88.965950     -2420.8866
   1   2.0000     -88.963595     -2420.8225
   2   2.0000     -10.328521      -281.0533
   3   2.0000     -10.325897      -280.9819
   4   2.0000     -10.324494      -280.9438
   5   2.0000     -10.314918      -280.6832
   6   2.0000     -10.304655      -280.4039
   7   2.0000     -10.302736      -280.3517
   8   2.0000     -10.300915      -280.3021
   9   2.0000     -10.300215      -280.2831
  10   2.0000     -10.297274      -280.2031
  11   2.0000     -10.286797      -279.9180
  12   2.0000     -10.285242      -279.8757
  13   2.0000     -10.284860      -279.8653
  14   2.0000     -10.272328      -279.5242
  15   2.0000     -10.271580      -279.5039
  16   2.0000      -8.079664      -219.8588
  17   2.0000      -8.077789      -219.8078
  18   2.0000      -6.038181      -164.3073
  19   2.0000      -6.036262      -164.2550
  20   2.0000      -6.034406      -164.2045
  21   2.0000      -6.032328      -164.1480
  22   2.0000      -6.030377      -164.0949
  23   2.0000      -6.028662      -164.0482
  24   2.0000      -0.999612       -27.2008
  25   2.0000      -0.976420       -26.5697
  26   2.0000      -0.918082       -24.9823
  27   2.0000      -0.914419       -24.8826
  28   2.0000      -0.868080       -23.6217
  29   2.0000      -0.858819       -23.3696
  30   2.0000      -0.841513       -22.8987
  31   2.0000      -0.812626       -22.1127
  32   2.0000      -0.787582       -21.4312
  33   2.0000      -0.771285       -20.9877
  34   2.0000      -0.711161       -19.3517
  35   2.0000      -0.699222       -19.0268
  36   2.0000      -0.691105       -18.8059
  37   2.0000      -0.659279       -17.9399
  38   2.0000      -0.641028       -17.4433
  39   2.0000      -0.618319       -16.8253
  40   2.0000      -0.601156       -16.3583
  41   2.0000      -0.571300       -15.5459
  42   2.0000      -0.570497       -15.5240
  43   2.0000      -0.550516       -14.9803
  44   2.0000      -0.535407       -14.5692
  45   2.0000      -0.528437       -14.3795
  46   2.0000      -0.521732       -14.1971
  47   2.0000      -0.518694       -14.1144
  48   2.0000      -0.504608       -13.7311
  49   2.0000      -0.494381       -13.4528
  50   2.0000      -0.493759       -13.4359
  51   2.0000      -0.486601       -13.2411
  52   2.0000      -0.467342       -12.7170
  53   2.0000      -0.462279       -12.5792
  54   2.0000      -0.458599       -12.4791
  55   2.0000      -0.450677       -12.2636
  56   2.0000      -0.440766       -11.9939
  57   2.0000      -0.436656       -11.8820
  58   2.0000      -0.431200       -11.7336
  59   2.0000      -0.427390       -11.6299
  60   2.0000      -0.420303       -11.4370
  61   2.0000      -0.417829       -11.3697
  62   2.0000      -0.411932       -11.2092
  63   2.0000      -0.338278        -9.2050
  64   2.0000      -0.326001        -8.8710
  65   2.0000      -0.323807        -8.8112
  66   2.0000      -0.291086        -7.9209
  67   0.0000       0.031900         0.8680
  68   0.0000       0.052862         1.4384
  69   0.0000       0.110188         2.9984
  70   0.0000       0.111947         3.0462
  71   0.0000       0.118869         3.2346

MULLIKEN ATOMIC CHARGES
-----------------------
   0 S :    0.101511
   1 C :   -0.124799
   2 C :   -0.044185
   3 C :    0.024554
   4 C :   -0.188089
   5 H :    0.027907
   6 C :   -0.006933
   7 H :    0.044120
   8 H :    0.038843
   9 C :   -0.045713
  10 H :    0.034467
  11 H :    0.009244
  12 C :   -0.027035
  13 H :    0.029163
  14 H :    0.021417
  15 H :    0.023769
  16 S :    0.104166
  17 C :   -0.105950
  18 C :   -0.014278
  19 C :   -0.043300
  20 C :   -0.148306
  21 H :    0.025243
  22 C :    0.060423
  23 H :    0.035391
  24 H :    0.030898
  25 C :   -0.109678
  26 H :    0.019458
  27 H :    0.022716
  28 C :    0.022110
  29 H :    0.019220
  30 H :    0.042435
  31 H :    0.007200
  32 H :    0.046191
  33 H :    0.067819
Sum of atomic charges:    0.0000000

LOEWDIN ATOMIC CHARGES
----------------------
   0 S :    0.397312
   1 C :   -0.187948
   2 C :   -0.064119
   3 C :   -0.067689
   4 C :   -0.197943
   5 H :    0.036113
   6 C :   -0.050772
   7 H :    0.044145
   8 H :    0.040087
   9 C :   -0.042790
  10 H :    0.037004
  11 H :    0.013195
  12 C :   -0.058127
  13 H :    0.020815
  14 H :    0.021493
  15 H :    0.024303
  16 S :    0.384350
  17 C :   -0.171408
  18 C :   -0.069457
  19 C :   -0.047984
  20 C :   -0.202432
  21 H :    0.034749
  22 C :   -0.039794
  23 H :    0.037659
  24 H :    0.031682
  25 C :   -0.039232
  26 H :    0.013224
  27 H :    0.030593
  28 C :   -0.058838
  29 H :    0.026947
  30 H :    0.030547
  31 H :    0.019516
  32 H :    0.026045
  33 H :    0.028756

  Mayer bond orders larger than 0.100000
B(  0-S ,  1-C ) :   1.1423 B(  0-S ,  4-C ) :   1.1595 B(  1-C ,  2-C ) :   1.5858
B(  1-C ,  4-C ) :   0.1091 B(  1-C , 32-H ) :   0.9760 B(  2-C ,  3-C ) :   1.2506
B(  2-C ,  6-C ) :   1.0170 B(  3-C ,  4-C ) :   1.5565 B(  3-C ,  5-H ) :   0.9827
B(  4-C , 20-C ) :   1.0249 B(  6-C ,  7-H ) :   0.9314 B(  6-C ,  8-H ) :   0.9350
B(  6-C ,  9-C ) :   1.1009 B(  9-C , 10-H ) :   0.9490 B(  9-C , 11-H ) :   0.9448
B(  9-C , 12-C ) :   1.0715 B( 12-C , 13-H ) :   0.9766 B( 12-C , 14-H ) :   0.9767
B( 12-C , 15-H ) :   0.9722 B( 16-S , 17-C ) :   1.1640 B( 16-S , 20-C ) :   1.1281
B( 17-C , 18-C ) :   1.5823 B( 17-C , 20-C ) :   0.1058 B( 17-C , 33-H ) :   0.9679
B( 18-C , 19-C ) :   1.2398 B( 18-C , 21-H ) :   0.9874 B( 19-C , 20-C ) :   1.5982
B( 19-C , 22-C ) :   1.0563 B( 22-C , 23-H ) :   0.9320 B( 22-C , 24-H ) :   0.9341
B( 22-C , 25-C ) :   1.0383 B( 25-C , 26-H ) :   0.9652 B( 25-C , 27-H ) :   0.9490
B( 25-C , 28-C ) :   1.1028 B( 28-C , 29-H ) :   0.9664 B( 28-C , 30-H ) :   0.9727
B( 28-C , 31-H ) :   0.9641

Dispersion correction           -0.014512229
FINAL SINGLE POINT ENERGY     -1339.864724548844

DIPOLE MOMENT
-------------
                                X             Y             Z
Electronic contribution:      3.40041     -24.86045      17.85730
Nuclear contribution   :     -3.35070      25.35402     -18.46791
                        -----------------------------------------
Total Dipole Moment    :      0.04971       0.49356      -0.61061
                        -----------------------------------------
Magnitude (a.u.)       :      0.78672
Magnitude (Debye)      :      1.99967

Rotational constants in cm-1:     0.015778     0.010259     0.007046
Rotational constants in MHz :   473.002908   307.554130   211.226496

                             ****ORCA TERMINATED NORMALLY****
TOTAL RUN TIME: 0 days 0 hours 0 minutes 36 seconds 181 msec
