                         Program Version 4.2.1 -  RELEASE  -
|  1> ! wB97X-D3 SP def2-SVP
|  2> %pal
|  3> nprocs 16
|  4> end
|  5>
|  6> * xyz 0 1
|  7> S 	 67.6536 	 13.1471 	 75.5148
|  8> C 	 66.3042 	 13.7021 	 74.6124
|  9> C 	 66.467 	 15.0048 	 74.1436
| 10> C 	 67.6336 	 15.571 	 74.7435
| 11> C 	 68.2658 	 14.7706 	 75.6702
| 12> H 	 68.0666 	 16.4787 	 74.4295
| 13> C 	 65.5384 	 15.6919 	 73.117
| 14> H 	 65.2618 	 14.9132 	 72.3925
| 15> H 	 66.0903 	 16.4438 	 72.5014
| 16> C 	 64.3963 	 16.3771 	 73.8233
| 17> H 	 64.6706 	 17.0492 	 74.6575
| 18> H 	 63.8855 	 16.9327 	 73.0025
| 19> C 	 63.3202 	 15.4492 	 74.3633
| 20> H 	 63.6891 	 14.8528 	 75.2235
| 21> H 	 62.4514 	 16.0481 	 74.6696
| 22> H 	 62.9717 	 14.7447 	 73.6021
| 23> S 	 70.6271 	 13.7986 	 76.6168
| 24> C 	 71.7801 	 14.7572 	 77.5684
| 25> C 	 71.3192 	 16.0617 	 77.6333
| 26> C 	 70.0526 	 16.2606 	 76.9532
| 27> C 	 69.4941 	 15.0826 	 76.4205
| 28> H 	 71.8117 	 16.9409 	 78.0954
| 29> C 	 69.3033 	 17.6196 	 77.1052
| 30> H 	 68.4818 	 17.6094 	 76.4939
| 31> H 	 69.9303 	 18.4463 	 76.7361
| 32> C 	 68.8578 	 17.9415 	 78.5686
| 33> H 	 68.5367 	 18.9581 	 78.7608
| 34> H 	 69.6259 	 17.7053 	 79.2512
| 35> C 	 67.6537 	 17.0823 	 78.9662
| 36> H 	 67.875 	 16.0095 	 79.002
| 37> H 	 66.7629 	 17.1907 	 78.3402
| 38> H 	 67.225 	 17.4794 	 79.8884
| 39> H 	 65.5733 	 13.024 	 74.1342
| 40> H 	 72.709 	 14.3334 	 77.8586
| 41> *
| 42>
| 43>                          ****END OF INPUT****

CARTESIAN COORDINATES (ANGSTROEM)
---------------------------------
  S     67.653600   13.147100   75.514800
  C     66.304200   13.702100   74.612400
  C     66.467000   15.004800   74.143600
  C     67.633600   15.571000   74.743500
  C     68.265800   14.770600   75.670200
  H     68.066600   16.478700   74.429500
  C     65.538400   15.691900   73.117000
  H     65.261800   14.913200   72.392500
  H     66.090300   16.443800   72.501400
  C     64.396300   16.377100   73.823300
  H     64.670600   17.049200   74.657500
  H     63.885500   16.932700   73.002500
  C     63.320200   15.449200   74.363300
  H     63.689100   14.852800   75.223500
  H     62.451400   16.048100   74.669600
  H     62.971700   14.744700   73.602100
  S     70.627100   13.798600   76.616800
  C     71.780100   14.757200   77.568400
  C     71.319200   16.061700   77.633300
  C     70.052600   16.260600   76.953200
  C     69.494100   15.082600   76.420500
  H     71.811700   16.940900   78.095400
  C     69.303300   17.619600   77.105200
  H     68.481800   17.609400   76.493900
  H     69.930300   18.446300   76.736100
  C     68.857800   17.941500   78.568600
  H     68.536700   18.958100   78.760800
  H     69.625900   17.705300   79.251200
  C     67.653700   17.082300   78.966200
  H     67.875000   16.009500   79.002000
  H     66.762900   17.190700   78.340200
  H     67.225000   17.479400   79.888400
  H     65.573300   13.024000   74.134200
  H     72.709000   14.333400   77.858600

 Total Charge           Charge          ....    0
 Multiplicity           Mult            ....    1
 Number of Electrons    NEL             ....  134
 Basis Dimension        Dim             ....  322

ORBITAL ENERGIES
----------------

  NO   OCC          E(Eh)            E(eV)
   0   2.0000     -88.969036     -2420.9706
   1   2.0000     -88.963080     -2420.8085
   2   2.0000     -10.332793      -281.1696
   3   2.0000     -10.331828      -281.1433
   4   2.0000     -10.322603      -280.8923
   5   2.0000     -10.314343      -280.6675
   6   2.0000     -10.308238      -280.5014
   7   2.0000     -10.303622      -280.3758
   8   2.0000     -10.302978      -280.3583
   9   2.0000     -10.300781      -280.2985
  10   2.0000     -10.291743      -280.0526
  11   2.0000     -10.289518      -279.9920
  12   2.0000     -10.288165      -279.9552
  13   2.0000     -10.281222      -279.7663
  14   2.0000     -10.277011      -279.6517
  15   2.0000     -10.268355      -279.4161
  16   2.0000      -8.084352      -219.9864
  17   2.0000      -8.078262      -219.8207
  18   2.0000      -6.042821      -164.4335
  19   2.0000      -6.038990      -164.3293
  20   2.0000      -6.036845      -164.2709
  21   2.0000      -6.034904      -164.2181
  22   2.0000      -6.032555      -164.1542
  23   2.0000      -6.029079      -164.0596
  24   2.0000      -1.010582       -27.4993
  25   2.0000      -0.985575       -26.8189
  26   2.0000      -0.915619       -24.9153
  27   2.0000      -0.902966       -24.5710
  28   2.0000      -0.869719       -23.6662
  29   2.0000      -0.851332       -23.1659
  30   2.0000      -0.839862       -22.8538
  31   2.0000      -0.814630       -22.1672
  32   2.0000      -0.782604       -21.2957
  33   2.0000      -0.772349       -21.0167
  34   2.0000      -0.704129       -19.1603
  35   2.0000      -0.698819       -19.0158
  36   2.0000      -0.688981       -18.7481
  37   2.0000      -0.661947       -18.0125
  38   2.0000      -0.640881       -17.4393
  39   2.0000      -0.623060       -16.9543
  40   2.0000      -0.601512       -16.3680
  41   2.0000      -0.573164       -15.5966
  42   2.0000      -0.555165       -15.1068
  43   2.0000      -0.545315       -14.8388
  44   2.0000      -0.543564       -14.7911
  45   2.0000      -0.532481       -14.4896
  46   2.0000      -0.521667       -14.1953
  47   2.0000      -0.512707       -13.9515
  48   2.0000      -0.500845       -13.6287
  49   2.0000      -0.493922       -13.4403
  50   2.0000      -0.488379       -13.2895
  51   2.0000      -0.478713       -13.0264
  52   2.0000      -0.471217       -12.8225
  53   2.0000      -0.466718       -12.7001
  54   2.0000      -0.460519       -12.5313
  55   2.0000      -0.447553       -12.1785
  56   2.0000      -0.441962       -12.0264
  57   2.0000      -0.439992       -11.9728
  58   2.0000      -0.431042       -11.7292
  59   2.0000      -0.424941       -11.5632
  60   2.0000      -0.418309       -11.3828
  61   2.0000      -0.412100       -11.2138
  62   2.0000      -0.408242       -11.1088
  63   2.0000      -0.360323        -9.8049
  64   2.0000      -0.333402        -9.0723
  65   2.0000      -0.325716        -8.8632
  66   2.0000      -0.286355        -7.7921
  67   0.0000       0.019439         0.5290
  68   0.0000       0.076109         2.0710
  69   0.0000       0.096814         2.6344
  70   0.0000       0.123621         3.3639
  71   0.0000       0.132384         3.6024

MULLIKEN ATOMIC CHARGES
-----------------------
   0 S :    0.118157
   1 C :   -0.117616
   2 C :   -0.122113
   3 C :    0.018531
   4 C :   -0.115413
   5 H :    0.004053
   6 C :    0.063182
   7 H :    0.032189
   8 H :    0.033388
   9 C :   -0.069588
  10 H :    0.045706
  11 H :    0.031911
  12 C :   -0.074216
  13 H :    0.046970
  14 H :    0.038973
  15 H :    0.021787
  16 S :    0.073519
  17 C :   -0.080905
  18 C :   -0.019664
  19 C :   -0.100377
  20 C :   -0.121258
  21 H :    0.037528
  22 C :    0.106242
  23 H :   -0.018254
  24 H :    0.028909
  25 C :   -0.035329
  26 H :    0.026059
  27 H :    0.018440
  28 C :   -0.078916
  29 H :    0.051725
  30 H :    0.019711
  31 H :    0.021371
  32 H :    0.058820
  33 H :    0.056475
Sum of atomic charges:   -0.0000000

LOEWDIN ATOMIC CHARGES
----------------------
   0 S :    0.424618
   1 C :   -0.216045
   2 C :   -0.060334
   3 C :   -0.058723
   4 C :   -0.195740
   5 H :    0.023223
   6 C :   -0.032129
   7 H :    0.033137
   8 H :    0.035832
   9 C :   -0.046034
  10 H :    0.032240
  11 H :    0.028098
  12 C :   -0.071213
  13 H :    0.027093
  14 H :    0.028870
  15 H :    0.020654
  16 S :    0.399290
  17 C :   -0.171543
  18 C :   -0.069182
  19 C :   -0.062927
  20 C :   -0.198744
  21 H :    0.038898
  22 C :   -0.022956
  23 H :    0.010663
  24 H :    0.032229
  25 C :   -0.032276
  26 H :    0.024507
  27 H :    0.017287
  28 C :   -0.070403
  29 H :    0.028490
  30 H :    0.022218
  31 H :    0.024271
  32 H :    0.032545
  33 H :    0.024086

  Mayer bond orders larger than 0.100000
B(  0-S ,  1-C ) :   1.1558 B(  0-S ,  4-C ) :   1.1585 B(  1-C ,  2-C ) :   1.5937
B(  1-C , 32-H ) :   0.9587 B(  2-C ,  3-C ) :   1.2776 B(  2-C ,  6-C ) :   1.0093
B(  3-C ,  4-C ) :   1.5407 B(  3-C ,  5-H ) :   0.9987 B(  4-C , 20-C ) :   1.0573
B(  6-C ,  7-H ) :   0.9424 B(  6-C ,  8-H ) :   0.9451 B(  6-C ,  9-C ) :   1.0686
B(  9-C , 10-H ) :   0.9547 B(  9-C , 11-H ) :   0.9530 B(  9-C , 12-C ) :   1.0872
B( 12-C , 13-H ) :   0.9700 B( 12-C , 14-H ) :   0.9728 B( 12-C , 15-H ) :   0.9742
B( 16-S , 17-C ) :   1.1485 B( 16-S , 20-C ) :   1.1504 B( 17-C , 18-C ) :   1.5700
B( 17-C , 33-H ) :   0.9808 B( 18-C , 19-C ) :   1.2645 B( 18-C , 21-H ) :   0.9812
B( 19-C , 20-C ) :   1.5742 B( 19-C , 22-C ) :   1.0469 B( 22-C , 23-H ) :   0.9373
B( 22-C , 24-H ) :   0.9333 B( 22-C , 25-C ) :   1.0644 B( 25-C , 26-H ) :   0.9571
B( 25-C , 27-H ) :   0.9579 B( 25-C , 28-C ) :   1.0771 B( 28-C , 29-H ) :   0.9783
B( 28-C , 30-H ) :   0.9738 B( 28-C , 31-H ) :   0.9728

Dispersion correction           -0.014789279
FINAL SINGLE POINT ENERGY     -1339.879786700961

DIPOLE MOMENT
-------------
                                X             Y             Z
Electronic contribution:     19.49522     -18.80913      -1.14665
Nuclear contribution   :    -19.67721      19.38986       0.86866
                        -----------------------------------------
Total Dipole Moment    :     -0.18199       0.58073      -0.27800
                        -----------------------------------------
Magnitude (a.u.)       :      0.66907
Magnitude (Debye)      :      1.70064

Rotational constants in cm-1:     0.021093     0.008751     0.006957
Rotational constants in MHz :   632.339085   262.356358   208.557495

                             ****ORCA TERMINATED NORMALLY****
TOTAL RUN TIME: 0 days 0 hours 0 minutes 30 seconds 947 msec
