                         Program Version 4.2.1 -  RELEASE  -
|  1> ! wB97X-D3 SP def2-SVP
|  2> %pal
|  3> nprocs 16
|  4> end
|  5>
|  6> * xyz 0 1
|  7> S 	 10.0283 	 -5.80274 	 65.3045
|  8> C 	 8.26527 	 -5.77805 	 64.9506
|  9> C 	 7.66316 	 -7.00536 	 64.7468
| 10> C 	 8.67391 	 -8.01202 	 64.7202
| 11> C 	 9.97493 	 -7.57902 	 65.015
| 12> H 	 8.51536 	 -9.09365 	 64.626
| 13> C 	 6.17039 	 -7.19958 	 64.4932
| 14> H 	 5.55554 	 -6.95582 	 65.3509
| 15> H 	 6.06048 	 -8.33099 	 64.4853
| 16> C 	 5.57911 	 -6.68689 	 63.1372
| 17> H 	 4.48274 	 -6.71068 	 63.1284
| 18> H 	 5.81 	 -5.61026 	 63.2512
| 19> C 	 6.09204 	 -7.36818 	 61.8436
| 20> H 	 5.81091 	 -8.40262 	 61.6909
| 21> H 	 5.78443 	 -6.77279 	 60.9412
| 22> H 	 7.23036 	 -7.32433 	 61.7863
| 23> S 	 12.7537 	 -7.64851 	 65.2886
| 24> C 	 13.5528 	 -9.06515 	 65.8585
| 25> C 	 12.7174 	 -10.1549 	 65.7308
| 26> C 	 11.3949 	 -9.8417 	 65.3087
| 27> C 	 11.1729 	 -8.42608 	 65.2901
| 28> H 	 13.1131 	 -11.1505 	 66.0218
| 29> C 	 10.4043 	 -11.0072 	 65.2784
| 30> H 	 9.40739 	 -10.6288 	 65.6233
| 31> H 	 10.8604 	 -11.696 	 65.94
| 32> C 	 10.2125 	 -11.7354 	 63.9984
| 33> H 	 9.61989 	 -12.6212 	 64.1266
| 34> H 	 11.1158 	 -12.2359 	 63.7253
| 35> C 	 9.74029 	 -10.8585 	 62.8452
| 36> H 	 10.3679 	 -9.92952 	 62.8275
| 37> H 	 8.674 	 -10.6579 	 62.9799
| 38> H 	 9.80561 	 -11.4425 	 61.9039
| 39> H 	 7.67245 	 -4.83158 	 65.0327
| 40> H 	 14.5682 	 -9.04501 	 66.1435
| 41> *
| 42>
| 43>                          ****END OF INPUT****

CARTESIAN COORDINATES (ANGSTROEM)
---------------------------------
  S     10.028300   -5.802740   65.304500
  C      8.265270   -5.778050   64.950600
  C      7.663160   -7.005360   64.746800
  C      8.673910   -8.012020   64.720200
  C      9.974930   -7.579020   65.015000
  H      8.515360   -9.093650   64.626000
  C      6.170390   -7.199580   64.493200
  H      5.555540   -6.955820   65.350900
  H      6.060480   -8.330990   64.485300
  C      5.579110   -6.686890   63.137200
  H      4.482740   -6.710680   63.128400
  H      5.810000   -5.610260   63.251200
  C      6.092040   -7.368180   61.843600
  H      5.810910   -8.402620   61.690900
  H      5.784430   -6.772790   60.941200
  H      7.230360   -7.324330   61.786300
  S     12.753700   -7.648510   65.288600
  C     13.552800   -9.065150   65.858500
  C     12.717400  -10.154900   65.730800
  C     11.394900   -9.841700   65.308700
  C     11.172900   -8.426080   65.290100
  H     13.113100  -11.150500   66.021800
  C     10.404300  -11.007200   65.278400
  H      9.407390  -10.628800   65.623300
  H     10.860400  -11.696000   65.940000
  C     10.212500  -11.735400   63.998400
  H      9.619890  -12.621200   64.126600
  H     11.115800  -12.235900   63.725300
  C      9.740290  -10.858500   62.845200
  H     10.367900   -9.929520   62.827500
  H      8.674000  -10.657900   62.979900
  H      9.805610  -11.442500   61.903900
  H      7.672450   -4.831580   65.032700
  H     14.568200   -9.045010   66.143500

 Total Charge           Charge          ....    0
 Multiplicity           Mult            ....    1
 Number of Electrons    NEL             ....  134
 Basis Dimension        Dim             ....  322

ORBITAL ENERGIES
----------------

  NO   OCC          E(Eh)            E(eV)
   0   2.0000     -88.971828     -2421.0465
   1   2.0000     -88.964116     -2420.8367
   2   2.0000     -10.340224      -281.3718
   3   2.0000     -10.338369      -281.3213
   4   2.0000     -10.321948      -280.8745
   5   2.0000     -10.313278      -280.6386
   6   2.0000     -10.309499      -280.5357
   7   2.0000     -10.307196      -280.4731
   8   2.0000     -10.302077      -280.3338
   9   2.0000     -10.300341      -280.2865
  10   2.0000     -10.297081      -280.1978
  11   2.0000     -10.296863      -280.1919
  12   2.0000     -10.290822      -280.0275
  13   2.0000     -10.287683      -279.9421
  14   2.0000     -10.278633      -279.6958
  15   2.0000     -10.276765      -279.6450
  16   2.0000      -8.084813      -219.9990
  17   2.0000      -8.079381      -219.8511
  18   2.0000      -6.043426      -164.4500
  19   2.0000      -6.039837      -164.3523
  20   2.0000      -6.037923      -164.3002
  21   2.0000      -6.035293      -164.2287
  22   2.0000      -6.033839      -164.1891
  23   2.0000      -6.030071      -164.0866
  24   2.0000      -1.002119       -27.2691
  25   2.0000      -0.979612       -26.6566
  26   2.0000      -0.918658       -24.9980
  27   2.0000      -0.904312       -24.6076
  28   2.0000      -0.862401       -23.4671
  29   2.0000      -0.850400       -23.1406
  30   2.0000      -0.842993       -22.9390
  31   2.0000      -0.810460       -22.0537
  32   2.0000      -0.783437       -21.3184
  33   2.0000      -0.774432       -21.0734
  34   2.0000      -0.707023       -19.2391
  35   2.0000      -0.704818       -19.1791
  36   2.0000      -0.690634       -18.7931
  37   2.0000      -0.660096       -17.9621
  38   2.0000      -0.631591       -17.1865
  39   2.0000      -0.617479       -16.8025
  40   2.0000      -0.594323       -16.1724
  41   2.0000      -0.569090       -15.4857
  42   2.0000      -0.561844       -15.2885
  43   2.0000      -0.547384       -14.8951
  44   2.0000      -0.543747       -14.7961
  45   2.0000      -0.534487       -14.5441
  46   2.0000      -0.516446       -14.0532
  47   2.0000      -0.506774       -13.7900
  48   2.0000      -0.497920       -13.5491
  49   2.0000      -0.492420       -13.3994
  50   2.0000      -0.489310       -13.3148
  51   2.0000      -0.478379       -13.0174
  52   2.0000      -0.468899       -12.7594
  53   2.0000      -0.464376       -12.6363
  54   2.0000      -0.460137       -12.5210
  55   2.0000      -0.448246       -12.1974
  56   2.0000      -0.444860       -12.1053
  57   2.0000      -0.440804       -11.9949
  58   2.0000      -0.432974       -11.7818
  59   2.0000      -0.426380       -11.6024
  60   2.0000      -0.417395       -11.3579
  61   2.0000      -0.409081       -11.1317
  62   2.0000      -0.407677       -11.0935
  63   2.0000      -0.358462        -9.7543
  64   2.0000      -0.338269        -9.2048
  65   2.0000      -0.328560        -8.9406
  66   2.0000      -0.279491        -7.6053
  67   0.0000       0.011755         0.3199
  68   0.0000       0.080203         2.1824
  69   0.0000       0.087654         2.3852
  70   0.0000       0.113612         3.0915
  71   0.0000       0.130042         3.5386

MULLIKEN ATOMIC CHARGES
-----------------------
   0 S :    0.102396
   1 C :   -0.138882
   2 C :   -0.070852
   3 C :   -0.005202
   4 C :   -0.103215
   5 H :   -0.013161
   6 C :    0.039689
   7 H :    0.042693
   8 H :    0.015642
   9 C :   -0.060884
  10 H :    0.033941
  11 H :    0.028089
  12 C :   -0.078624
  13 H :    0.040106
  14 H :    0.042915
  15 H :    0.049196
  16 S :    0.082817
  17 C :   -0.073215
  18 C :   -0.053188
  19 C :   -0.064235
  20 C :   -0.120288
  21 H :    0.033844
  22 C :    0.059490
  23 H :    0.039748
  24 H :    0.012456
  25 C :   -0.034523
  26 H :    0.017086
  27 H :    0.001055
  28 C :   -0.073470
  29 H :    0.065897
  30 H :    0.034773
  31 H :    0.037460
  32 H :    0.064288
  33 H :    0.046157
Sum of atomic charges:    0.0000000

LOEWDIN ATOMIC CHARGES
----------------------
   0 S :    0.366718
   1 C :   -0.179333
   2 C :   -0.067143
   3 C :   -0.064449
   4 C :   -0.173790
   5 H :    0.027344
   6 C :   -0.037878
   7 H :    0.034478
   8 H :    0.031040
   9 C :   -0.043563
  10 H :    0.026182
  11 H :    0.025914
  12 C :   -0.075148
  13 H :    0.023956
  14 H :    0.034636
  15 H :    0.035804
  16 S :    0.405278
  17 C :   -0.185817
  18 C :   -0.075836
  19 C :   -0.061350
  20 C :   -0.188520
  21 H :    0.037393
  22 C :   -0.028375
  23 H :    0.032202
  24 H :    0.028792
  25 C :   -0.046967
  26 H :    0.023449
  27 H :    0.018076
  28 C :   -0.067579
  29 H :    0.037825
  30 H :    0.021353
  31 H :    0.030147
  32 H :    0.033196
  33 H :    0.021968

  Mayer bond orders larger than 0.100000
B(  0-S ,  1-C ) :   1.1285 B(  0-S ,  4-C ) :   1.1248 B(  1-C ,  2-C ) :   1.6312
B(  1-C , 32-H ) :   0.9562 B(  2-C ,  3-C ) :   1.2391 B(  2-C ,  6-C ) :   1.0104
B(  3-C ,  4-C ) :   1.5898 B(  3-C ,  5-H ) :   0.9750 B(  4-C , 20-C ) :   1.0790
B(  6-C ,  7-H ) :   0.9417 B(  6-C ,  8-H ) :   0.9417 B(  6-C ,  9-C ) :   1.0579
B(  9-C , 10-H ) :   0.9554 B(  9-C , 11-H ) :   0.9592 B(  9-C , 12-C ) :   1.0686
B( 12-C , 13-H ) :   0.9757 B( 12-C , 14-H ) :   0.9728 B( 12-C , 15-H ) :   0.9760
B( 16-S , 17-C ) :   1.1601 B( 16-S , 20-C ) :   1.1530 B( 17-C , 18-C ) :   1.5870
B( 17-C , 20-C ) :   0.1054 B( 17-C , 33-H ) :   0.9771 B( 18-C , 19-C ) :   1.2638
B( 18-C , 21-H ) :   0.9825 B( 19-C , 20-C ) :   1.5271 B( 19-C , 22-C ) :   1.0295
B( 22-C , 23-H ) :   0.9341 B( 22-C , 24-H ) :   0.9305 B( 22-C , 25-C ) :   1.0939
B( 25-C , 26-H ) :   0.9462 B( 25-C , 27-H ) :   0.9427 B( 25-C , 28-C ) :   1.0825
B( 28-C , 29-H ) :   0.9714 B( 28-C , 30-H ) :   0.9670 B( 28-C , 31-H ) :   0.9705

Dispersion correction           -0.015051332
FINAL SINGLE POINT ENERGY     -1339.868170401592

DIPOLE MOMENT
-------------
                                X             Y             Z
Electronic contribution:     21.12420      14.89091      13.54591
Nuclear contribution   :    -21.54098     -15.44940     -13.58977
                        -----------------------------------------
Total Dipole Moment    :     -0.41678      -0.55849      -0.04387
                        -----------------------------------------
Magnitude (a.u.)       :      0.69824
Magnitude (Debye)      :      1.77479

Rotational constants in cm-1:     0.019894     0.009207     0.006849
Rotational constants in MHz :   596.394886   276.021067   205.333069

                             ****ORCA TERMINATED NORMALLY****
TOTAL RUN TIME: 0 days 0 hours 0 minutes 38 seconds 204 msec
