                         Program Version 4.2.1 -  RELEASE  -
|  1> ! wB97X-D3 SP def2-SVP
|  2> %pal
|  3> nprocs 16
|  4> end
|  5>
|  6> * xyz 0 1
|  7> S 	 -13.0813 	 59.1515 	 54.5133
|  8> C 	 -12.0399 	 59.1491 	 53.0305
|  9> C 	 -11.0609 	 60.135 	 53.0858
| 10> C 	 -11.2975 	 60.9606 	 54.2224
| 11> C 	 -12.2543 	 60.5864 	 55.1366
| 12> H 	 -10.7421 	 61.8916 	 54.4112
| 13> C 	 -9.96989 	 60.3699 	 52.0694
| 14> H 	 -10.4827 	 60.4141 	 51.0273
| 15> H 	 -9.23555 	 59.5418 	 52.0499
| 16> C 	 -9.20763 	 61.725 	 52.2243
| 17> H 	 -8.82265 	 61.9208 	 51.2187
| 18> H 	 -9.82115 	 62.6111 	 52.4733
| 19> C 	 -7.99339 	 61.6561 	 53.1846
| 20> H 	 -8.27855 	 61.3461 	 54.2279
| 21> H 	 -7.37822 	 60.7897 	 52.8499
| 22> H 	 -7.30556 	 62.5169 	 53.1122
| 23> S 	 -12.6933 	 60.1655 	 57.842
| 24> C 	 -13.037 	 61.5241 	 58.8562
| 25> C 	 -12.941 	 62.7153 	 58.1192
| 26> C 	 -12.7121 	 62.6005 	 56.6938
| 27> C 	 -12.6134 	 61.247 	 56.4121
| 28> H 	 -13.0863 	 63.6509 	 58.6098
| 29> C 	 -12.6236 	 63.7897 	 55.7493
| 30> H 	 -13.5986 	 64.1797 	 55.7201
| 31> H 	 -12.276 	 63.4062 	 54.7428
| 32> C 	 -11.653 	 64.9938 	 56.1999
| 33> H 	 -11.7042 	 65.2459 	 57.2579
| 34> H 	 -12.1134 	 65.8065 	 55.6589
| 35> C 	 -10.1605 	 64.7891 	 55.7247
| 36> H 	 -9.6122 	 65.7018 	 55.7352
| 37> H 	 -10.168 	 64.4803 	 54.6711
| 38> H 	 -9.65846 	 64.0398 	 56.3608
| 39> H 	 -12.1638 	 58.4785 	 52.2036
| 40> H 	 -13.197 	 61.5354 	 59.9223
| 41> *
| 42>
| 43>                          ****END OF INPUT****

CARTESIAN COORDINATES (ANGSTROEM)
---------------------------------
  S    -13.081300   59.151500   54.513300
  C    -12.039900   59.149100   53.030500
  C    -11.060900   60.135000   53.085800
  C    -11.297500   60.960600   54.222400
  C    -12.254300   60.586400   55.136600
  H    -10.742100   61.891600   54.411200
  C     -9.969890   60.369900   52.069400
  H    -10.482700   60.414100   51.027300
  H     -9.235550   59.541800   52.049900
  C     -9.207630   61.725000   52.224300
  H     -8.822650   61.920800   51.218700
  H     -9.821150   62.611100   52.473300
  C     -7.993390   61.656100   53.184600
  H     -8.278550   61.346100   54.227900
  H     -7.378220   60.789700   52.849900
  H     -7.305560   62.516900   53.112200
  S    -12.693300   60.165500   57.842000
  C    -13.037000   61.524100   58.856200
  C    -12.941000   62.715300   58.119200
  C    -12.712100   62.600500   56.693800
  C    -12.613400   61.247000   56.412100
  H    -13.086300   63.650900   58.609800
  C    -12.623600   63.789700   55.749300
  H    -13.598600   64.179700   55.720100
  H    -12.276000   63.406200   54.742800
  C    -11.653000   64.993800   56.199900
  H    -11.704200   65.245900   57.257900
  H    -12.113400   65.806500   55.658900
  C    -10.160500   64.789100   55.724700
  H     -9.612200   65.701800   55.735200
  H    -10.168000   64.480300   54.671100
  H     -9.658460   64.039800   56.360800
  H    -12.163800   58.478500   52.203600
  H    -13.197000   61.535400   59.922300

 Total Charge           Charge          ....    0
 Multiplicity           Mult            ....    1
 Number of Electrons    NEL             ....  134
 Basis Dimension        Dim             ....  322

ORBITAL ENERGIES
----------------

  NO   OCC          E(Eh)            E(eV)
   0   2.0000     -88.967356     -2420.9248
   1   2.0000     -88.964509     -2420.8474
   2   2.0000     -10.330774      -281.1146
   3   2.0000     -10.328991      -281.0661
   4   2.0000     -10.317050      -280.7412
   5   2.0000     -10.316027      -280.7134
   6   2.0000     -10.308146      -280.4989
   7   2.0000     -10.306625      -280.4575
   8   2.0000     -10.302869      -280.3553
   9   2.0000     -10.301685      -280.3231
  10   2.0000     -10.297246      -280.2023
  11   2.0000     -10.295421      -280.1527
  12   2.0000     -10.293168      -280.0914
  13   2.0000     -10.291101      -280.0351
  14   2.0000     -10.286790      -279.9178
  15   2.0000     -10.283960      -279.8408
  16   2.0000      -8.081548      -219.9101
  17   2.0000      -8.077843      -219.8093
  18   2.0000      -6.040136      -164.3605
  19   2.0000      -6.036480      -164.2610
  20   2.0000      -6.036219      -164.2539
  21   2.0000      -6.032566      -164.1545
  22   2.0000      -6.032172      -164.1438
  23   2.0000      -6.028525      -164.0445
  24   2.0000      -0.998124       -27.1603
  25   2.0000      -0.976379       -26.5686
  26   2.0000      -0.907593       -24.6969
  27   2.0000      -0.901984       -24.5442
  28   2.0000      -0.863415       -23.4947
  29   2.0000      -0.849366       -23.1124
  30   2.0000      -0.835421       -22.7329
  31   2.0000      -0.809037       -22.0150
  32   2.0000      -0.784918       -21.3587
  33   2.0000      -0.772428       -21.0188
  34   2.0000      -0.710765       -19.3409
  35   2.0000      -0.700096       -19.0506
  36   2.0000      -0.691855       -18.8263
  37   2.0000      -0.654544       -17.8111
  38   2.0000      -0.637464       -17.3463
  39   2.0000      -0.620739       -16.8912
  40   2.0000      -0.595579       -16.2065
  41   2.0000      -0.565285       -15.3822
  42   2.0000      -0.556139       -15.1333
  43   2.0000      -0.545152       -14.8343
  44   2.0000      -0.539136       -14.6706
  45   2.0000      -0.523127       -14.2350
  46   2.0000      -0.517155       -14.0725
  47   2.0000      -0.515351       -14.0234
  48   2.0000      -0.496706       -13.5160
  49   2.0000      -0.494975       -13.4690
  50   2.0000      -0.489067       -13.3082
  51   2.0000      -0.481833       -13.1113
  52   2.0000      -0.463782       -12.6201
  53   2.0000      -0.463588       -12.6149
  54   2.0000      -0.461197       -12.5498
  55   2.0000      -0.447398       -12.1743
  56   2.0000      -0.440977       -11.9996
  57   2.0000      -0.438401       -11.9295
  58   2.0000      -0.435700       -11.8560
  59   2.0000      -0.427645       -11.6368
  60   2.0000      -0.424755       -11.5582
  61   2.0000      -0.418466       -11.3870
  62   2.0000      -0.413801       -11.2601
  63   2.0000      -0.344114        -9.3638
  64   2.0000      -0.330349        -8.9893
  65   2.0000      -0.328084        -8.9276
  66   2.0000      -0.287305        -7.8180
  67   0.0000       0.029833         0.8118
  68   0.0000       0.068451         1.8627
  69   0.0000       0.106689         2.9032
  70   0.0000       0.119498         3.2517
  71   0.0000       0.122350         3.3293

MULLIKEN ATOMIC CHARGES
-----------------------
   0 S :    0.096054
   1 C :   -0.133995
   2 C :   -0.059336
   3 C :    0.008444
   4 C :   -0.135605
   5 H :   -0.000632
   6 C :    0.025929
   7 H :    0.054439
   8 H :    0.051365
   9 C :   -0.093488
  10 H :    0.027893
  11 H :    0.037771
  12 C :   -0.075090
  13 H :    0.049971
  14 H :    0.021319
  15 H :    0.048759
  16 S :    0.112846
  17 C :   -0.079517
  18 C :   -0.050555
  19 C :   -0.018779
  20 C :   -0.170185
  21 H :    0.002805
  22 C :    0.070179
  23 H :    0.034221
  24 H :    0.033154
  25 C :   -0.087562
  26 H :    0.038767
  27 H :    0.027666
  28 C :   -0.048639
  29 H :    0.033628
  30 H :    0.027925
  31 H :    0.054452
  32 H :    0.039632
  33 H :    0.056164
Sum of atomic charges:   -0.0000000

LOEWDIN ATOMIC CHARGES
----------------------
   0 S :    0.372412
   1 C :   -0.175252
   2 C :   -0.066460
   3 C :   -0.073707
   4 C :   -0.190323
   5 H :    0.027472
   6 C :   -0.034560
   7 H :    0.047108
   8 H :    0.037914
   9 C :   -0.048651
  10 H :    0.027236
  11 H :    0.023465
  12 C :   -0.077819
  13 H :    0.030717
  14 H :    0.026010
  15 H :    0.029617
  16 S :    0.398448
  17 C :   -0.195551
  18 C :   -0.067921
  19 C :   -0.055044
  20 C :   -0.183380
  21 H :    0.020270
  22 C :   -0.022556
  23 H :    0.030064
  24 H :    0.037617
  25 C :   -0.031456
  26 H :    0.022841
  27 H :    0.023270
  28 C :   -0.065302
  29 H :    0.023149
  30 H :    0.023774
  31 H :    0.032585
  32 H :    0.022889
  33 H :    0.031127

  Mayer bond orders larger than 0.100000
B(  0-S ,  1-C ) :   1.1320 B(  0-S ,  4-C ) :   1.1337 B(  1-C ,  2-C ) :   1.6113
B(  1-C ,  4-C ) :   0.1017 B(  1-C , 32-H ) :   0.9755 B(  2-C ,  3-C ) :   1.2606
B(  2-C ,  6-C ) :   1.0043 B(  3-C ,  4-C ) :   1.5880 B(  3-C ,  5-H ) :   0.9727
B(  4-C , 20-C ) :   1.0186 B(  6-C ,  7-H ) :   0.9437 B(  6-C ,  8-H ) :   0.9387
B(  6-C ,  9-C ) :   1.0764 B(  9-C , 10-H ) :   0.9538 B(  9-C , 11-H ) :   0.9547
B(  9-C , 12-C ) :   1.0698 B( 12-C , 13-H ) :   0.9763 B( 12-C , 14-H ) :   0.9702
B( 12-C , 15-H ) :   0.9746 B( 16-S , 17-C ) :   1.1392 B( 16-S , 20-C ) :   1.1430
B( 17-C , 18-C ) :   1.6242 B( 17-C , 33-H ) :   0.9690 B( 18-C , 19-C ) :   1.2190
B( 18-C , 21-H ) :   0.9864 B( 19-C , 20-C ) :   1.6090 B( 19-C , 22-C ) :   1.0300
B( 22-C , 23-H ) :   0.9305 B( 22-C , 24-H ) :   0.9377 B( 22-C , 25-C ) :   1.0603
B( 25-C , 26-H ) :   0.9605 B( 25-C , 27-H ) :   0.9581 B( 25-C , 28-C ) :   1.0723
B( 28-C , 29-H ) :   0.9736 B( 28-C , 30-H ) :   0.9716 B( 28-C , 31-H ) :   0.9776

Dispersion correction           -0.015145540
FINAL SINGLE POINT ENERGY     -1339.879041609564

DIPOLE MOMENT
-------------
                                X             Y             Z
Electronic contribution:    -19.56273     -20.97765      12.13556
Nuclear contribution   :     20.00626      21.70455     -12.45836
                        -----------------------------------------
Total Dipole Moment    :      0.44353       0.72691      -0.32279
                        -----------------------------------------
Magnitude (a.u.)       :      0.91066
Magnitude (Debye)      :      2.31471

Rotational constants in cm-1:     0.016073     0.010757     0.007314
Rotational constants in MHz :   481.862156   322.474714   219.256435

                             ****ORCA TERMINATED NORMALLY****
TOTAL RUN TIME: 0 days 0 hours 0 minutes 33 seconds 313 msec
