                         Program Version 4.2.1 -  RELEASE  -
|  1> ! wB97X-D3 SP def2-SVP
|  2> %pal
|  3> nprocs 16
|  4> end
|  5>
|  6> * xyz 0 1
|  7> S 	 -45.0349 	 29.0477 	 87.029
|  8> C 	 -45.9662 	 30.3714 	 86.2734
|  9> C 	 -46.0707 	 30.1296 	 84.9695
| 10> C 	 -45.5521 	 28.8909 	 84.5751
| 11> C 	 -44.8513 	 28.1844 	 85.5013
| 12> H 	 -45.7435 	 28.4866 	 83.6064
| 13> C 	 -46.7026 	 31.077 	 84.0278
| 14> H 	 -47.2328 	 31.8666 	 84.5752
| 15> H 	 -47.2922 	 30.4737 	 83.3876
| 16> C 	 -45.7512 	 31.8949 	 83.0833
| 17> H 	 -45.1753 	 32.5604 	 83.7911
| 18> H 	 -44.9547 	 31.3121 	 82.5706
| 19> C 	 -46.4952 	 32.7366 	 82.0988
| 20> H 	 -46.8932 	 33.6311 	 82.6328
| 21> H 	 -45.9312 	 33.0638 	 81.2775
| 22> H 	 -47.256 	 32.102 	 81.6467
| 23> S 	 -44.6878 	 25.7172 	 84.1214
| 24> C 	 -43.2748 	 24.7054 	 84.2719
| 25> C 	 -42.3447 	 25.3916 	 85.0865
| 26> C 	 -42.8097 	 26.6269 	 85.6568
| 27> C 	 -44.1012 	 26.9615 	 85.2447
| 28> H 	 -41.3921 	 24.9447 	 85.3679
| 29> C 	 -41.9666 	 27.493 	 86.5964
| 30> H 	 -41.3787 	 26.7286 	 87.1433
| 31> H 	 -42.4064 	 27.8981 	 87.4788
| 32> C 	 -40.9263 	 28.4684 	 86.0015
| 33> H 	 -40.1529 	 28.4421 	 86.7959
| 34> H 	 -41.3601 	 29.44 	 86.0135
| 35> C 	 -40.3409 	 28.2267 	 84.6111
| 36> H 	 -39.8664 	 29.1066 	 84.3126
| 37> H 	 -41.1572 	 28.0559 	 83.8865
| 38> H 	 -39.5781 	 27.3848 	 84.5713
| 39> H 	 -46.3069 	 31.2193 	 86.8437
| 40> H 	 -43.1097 	 23.7335 	 83.823
| 41> *
| 42>
| 43>                          ****END OF INPUT****

CARTESIAN COORDINATES (ANGSTROEM)
---------------------------------
  S    -45.034900   29.047700   87.029000
  C    -45.966200   30.371400   86.273400
  C    -46.070700   30.129600   84.969500
  C    -45.552100   28.890900   84.575100
  C    -44.851300   28.184400   85.501300
  H    -45.743500   28.486600   83.606400
  C    -46.702600   31.077000   84.027800
  H    -47.232800   31.866600   84.575200
  H    -47.292200   30.473700   83.387600
  C    -45.751200   31.894900   83.083300
  H    -45.175300   32.560400   83.791100
  H    -44.954700   31.312100   82.570600
  C    -46.495200   32.736600   82.098800
  H    -46.893200   33.631100   82.632800
  H    -45.931200   33.063800   81.277500
  H    -47.256000   32.102000   81.646700
  S    -44.687800   25.717200   84.121400
  C    -43.274800   24.705400   84.271900
  C    -42.344700   25.391600   85.086500
  C    -42.809700   26.626900   85.656800
  C    -44.101200   26.961500   85.244700
  H    -41.392100   24.944700   85.367900
  C    -41.966600   27.493000   86.596400
  H    -41.378700   26.728600   87.143300
  H    -42.406400   27.898100   87.478800
  C    -40.926300   28.468400   86.001500
  H    -40.152900   28.442100   86.795900
  H    -41.360100   29.440000   86.013500
  C    -40.340900   28.226700   84.611100
  H    -39.866400   29.106600   84.312600
  H    -41.157200   28.055900   83.886500
  H    -39.578100   27.384800   84.571300
  H    -46.306900   31.219300   86.843700
  H    -43.109700   23.733500   83.823000

 Total Charge           Charge          ....    0
 Multiplicity           Mult            ....    1
 Number of Electrons    NEL             ....  134
 Basis Dimension        Dim             ....  322

ORBITAL ENERGIES
----------------

  NO   OCC          E(Eh)            E(eV)
   0   2.0000     -88.969437     -2420.9815
   1   2.0000     -88.962732     -2420.7990
   2   2.0000     -10.332092      -281.1505
   3   2.0000     -10.331820      -281.1431
   4   2.0000     -10.325239      -280.9640
   5   2.0000     -10.311215      -280.5824
   6   2.0000     -10.306949      -280.4664
   7   2.0000     -10.300329      -280.2862
   8   2.0000     -10.290511      -280.0190
   9   2.0000     -10.289498      -279.9915
  10   2.0000     -10.289198      -279.9833
  11   2.0000     -10.288165      -279.9552
  12   2.0000     -10.285285      -279.8768
  13   2.0000     -10.281844      -279.7832
  14   2.0000     -10.275153      -279.6011
  15   2.0000     -10.274605      -279.5862
  16   2.0000      -8.083316      -219.9582
  17   2.0000      -8.076634      -219.7764
  18   2.0000      -6.041904      -164.4086
  19   2.0000      -6.037791      -164.2966
  20   2.0000      -6.035391      -164.2313
  21   2.0000      -6.034195      -164.1988
  22   2.0000      -6.031241      -164.1184
  23   2.0000      -6.027178      -164.0079
  24   2.0000      -1.008082       -27.4313
  25   2.0000      -0.985289       -26.8111
  26   2.0000      -0.915019       -24.8989
  27   2.0000      -0.903988       -24.5988
  28   2.0000      -0.874665       -23.8009
  29   2.0000      -0.850268       -23.1370
  30   2.0000      -0.844839       -22.9893
  31   2.0000      -0.815247       -22.1840
  32   2.0000      -0.787645       -21.4329
  33   2.0000      -0.775935       -21.1143
  34   2.0000      -0.710953       -19.3460
  35   2.0000      -0.694744       -18.9050
  36   2.0000      -0.687881       -18.7182
  37   2.0000      -0.668055       -18.1787
  38   2.0000      -0.639506       -17.4018
  39   2.0000      -0.621061       -16.8999
  40   2.0000      -0.592562       -16.1244
  41   2.0000      -0.574093       -15.6219
  42   2.0000      -0.567683       -15.4474
  43   2.0000      -0.554820       -15.0974
  44   2.0000      -0.541177       -14.7262
  45   2.0000      -0.528090       -14.3701
  46   2.0000      -0.518836       -14.1183
  47   2.0000      -0.516657       -14.0589
  48   2.0000      -0.507402       -13.8071
  49   2.0000      -0.502893       -13.6844
  50   2.0000      -0.491776       -13.3819
  51   2.0000      -0.478681       -13.0256
  52   2.0000      -0.471361       -12.8264
  53   2.0000      -0.464819       -12.6484
  54   2.0000      -0.459227       -12.4962
  55   2.0000      -0.453413       -12.3380
  56   2.0000      -0.445569       -12.1246
  57   2.0000      -0.433294       -11.7905
  58   2.0000      -0.425205       -11.5704
  59   2.0000      -0.419918       -11.4265
  60   2.0000      -0.417892       -11.3714
  61   2.0000      -0.415318       -11.3014
  62   2.0000      -0.395861       -10.7719
  63   2.0000      -0.355042        -9.6612
  64   2.0000      -0.331160        -9.0113
  65   2.0000      -0.327667        -8.9163
  66   2.0000      -0.290898        -7.9157
  67   0.0000       0.024886         0.6772
  68   0.0000       0.075526         2.0552
  69   0.0000       0.113738         3.0950
  70   0.0000       0.120617         3.2822
  71   0.0000       0.123915         3.3719

MULLIKEN ATOMIC CHARGES
-----------------------
   0 S :    0.081852
   1 C :   -0.147366
   2 C :   -0.032624
   3 C :   -0.002297
   4 C :   -0.099904
   5 H :   -0.002471
   6 C :    0.087081
   7 H :    0.020259
   8 H :    0.012667
   9 C :   -0.118169
  10 H :    0.023452
  11 H :    0.033557
  12 C :   -0.009205
  13 H :    0.038987
  14 H :    0.022891
  15 H :    0.022696
  16 S :    0.103280
  17 C :   -0.096455
  18 C :   -0.030818
  19 C :   -0.070616
  20 C :   -0.126628
  21 H :    0.021648
  22 C :    0.069074
  23 H :    0.006782
  24 H :    0.022179
  25 C :   -0.073316
  26 H :    0.026764
  27 H :    0.026885
  28 C :   -0.032337
  29 H :    0.021807
  30 H :    0.047918
  31 H :    0.036536
  32 H :    0.047068
  33 H :    0.068824
Sum of atomic charges:    0.0000000

LOEWDIN ATOMIC CHARGES
----------------------
   0 S :    0.381097
   1 C :   -0.174910
   2 C :   -0.071979
   3 C :   -0.065602
   4 C :   -0.175941
   5 H :    0.022697
   6 C :   -0.022276
   7 H :    0.033160
   8 H :    0.023556
   9 C :   -0.046953
  10 H :    0.023940
  11 H :    0.023565
  12 C :   -0.064688
  13 H :    0.032246
  14 H :    0.021061
  15 H :    0.025787
  16 S :    0.404982
  17 C :   -0.191247
  18 C :   -0.069492
  19 C :   -0.058500
  20 C :   -0.187430
  21 H :    0.029592
  22 C :   -0.044649
  23 H :    0.033249
  24 H :    0.024849
  25 C :   -0.037687
  26 H :    0.028712
  27 H :    0.020229
  28 C :   -0.064919
  29 H :    0.019641
  30 H :    0.032775
  31 H :    0.029649
  32 H :    0.029181
  33 H :    0.036306

  Mayer bond orders larger than 0.100000
B(  0-S ,  1-C ) :   1.1112 B(  0-S ,  4-C ) :   1.1345 B(  1-C ,  2-C ) :   1.6196
B(  1-C , 32-H ) :   0.9754 B(  2-C ,  3-C ) :   1.2381 B(  2-C ,  6-C ) :   1.0389
B(  3-C ,  4-C ) :   1.5753 B(  3-C ,  5-H ) :   0.9979 B(  4-C , 20-C ) :   1.0611
B(  6-C ,  7-H ) :   0.9436 B(  6-C ,  8-H ) :   0.9288 B(  6-C ,  9-C ) :   1.0532
B(  9-C , 10-H ) :   0.9561 B(  9-C , 11-H ) :   0.9590 B(  9-C , 12-C ) :   1.0844
B( 12-C , 13-H ) :   0.9741 B( 12-C , 14-H ) :   0.9717 B( 12-C , 15-H ) :   0.9714
B( 16-S , 17-C ) :   1.1620 B( 16-S , 20-C ) :   1.1378 B( 17-C , 18-C ) :   1.5708
B( 17-C , 20-C ) :   0.1008 B( 17-C , 33-H ) :   0.9716 B( 18-C , 19-C ) :   1.2784
B( 18-C , 21-H ) :   0.9829 B( 19-C , 20-C ) :   1.5517 B( 19-C , 22-C ) :   1.0347
B( 22-C , 23-H ) :   0.9280 B( 22-C , 24-H ) :   0.9400 B( 22-C , 25-C ) :   1.0501
B( 25-C , 26-H ) :   0.9558 B( 25-C , 27-H ) :   0.9583 B( 25-C , 28-C ) :   1.1010
B( 28-C , 29-H ) :   0.9715 B( 28-C , 30-H ) :   0.9639 B( 28-C , 31-H ) :   0.9741

Dispersion correction           -0.014377858
FINAL SINGLE POINT ENERGY     -1339.870942785464

DIPOLE MOMENT
-------------
                                X             Y             Z
Electronic contribution:     -8.61798     -18.01739       9.59484
Nuclear contribution   :      8.88172      18.32723      -9.84024
                        -----------------------------------------
Total Dipole Moment    :      0.26375       0.30984      -0.24540
                        -----------------------------------------
Magnitude (a.u.)       :      0.47517
Magnitude (Debye)      :      1.20779

Rotational constants in cm-1:     0.019095     0.007909     0.007471
Rotational constants in MHz :   572.465568   237.091336   223.962623

                             ****ORCA TERMINATED NORMALLY****
TOTAL RUN TIME: 0 days 0 hours 0 minutes 28 seconds 371 msec
