                         Program Version 4.2.1 -  RELEASE  -
|  1> ! wB97X-D3 SP def2-SVP
|  2> %pal
|  3> nprocs 16
|  4> end
|  5>
|  6> * xyz 0 1
|  7> S 	 -24.2663 	 -4.71173 	 99.6957
|  8> C 	 -24.2327 	 -5.82459 	 100.984
|  9> C 	 -25.4875 	 -5.92066 	 101.624
| 10> C 	 -26.3361 	 -4.82683 	 101.217
| 11> C 	 -25.8239 	 -4.13124 	 100.173
| 12> H 	 -27.2975 	 -4.54251 	 101.655
| 13> C 	 -25.8772 	 -6.92395 	 102.639
| 14> H 	 -26.6504 	 -6.49317 	 103.253
| 15> H 	 -25.1091 	 -7.11042 	 103.337
| 16> C 	 -26.3324 	 -8.23945 	 101.963
| 17> H 	 -25.5478 	 -8.4684 	 101.22
| 18> H 	 -26.4174 	 -9.14436 	 102.622
| 19> C 	 -27.6842 	 -8.13768 	 101.146
| 20> H 	 -28.3517 	 -7.59261 	 101.806
| 21> H 	 -27.6528 	 -7.46957 	 100.265
| 22> H 	 -27.9912 	 -9.13419 	 100.842
| 23> S 	 -25.8072 	 -1.3974 	 99.9232
| 24> C 	 -27.1297 	 -0.659988 	 99.0605
| 25> C 	 -27.8851 	 -1.6383 	 98.4308
| 26> C 	 -27.557 	 -2.98925 	 98.7306
| 27> C 	 -26.4468 	 -3.02835 	 99.5409
| 28> H 	 -28.7368 	 -1.38125 	 97.7527
| 29> C 	 -28.4278 	 -4.21696 	 98.3682
| 30> H 	 -27.7768 	 -5.11608 	 98.1178
| 31> H 	 -29.0238 	 -3.86342 	 97.5415
| 32> C 	 -29.4976 	 -4.6877 	 99.3926
| 33> H 	 -30.2102 	 -3.92852 	 99.6424
| 34> H 	 -28.9012 	 -4.79128 	 100.337
| 35> C 	 -30.2377 	 -5.93324 	 99.076
| 36> H 	 -31.0177 	 -5.64096 	 98.3183
| 37> H 	 -30.7234 	 -6.33188 	 99.9628
| 38> H 	 -29.5862 	 -6.6996 	 98.6955
| 39> H 	 -23.2959 	 -6.32037 	 101.207
| 40> H 	 -27.3497 	 0.387325 	 98.8034
| 41> *
| 42>
| 43>                          ****END OF INPUT****

CARTESIAN COORDINATES (ANGSTROEM)
---------------------------------
  S    -24.266300   -4.711730   99.695700
  C    -24.232700   -5.824590  100.984000
  C    -25.487500   -5.920660  101.624000
  C    -26.336100   -4.826830  101.217000
  C    -25.823900   -4.131240  100.173000
  H    -27.297500   -4.542510  101.655000
  C    -25.877200   -6.923950  102.639000
  H    -26.650400   -6.493170  103.253000
  H    -25.109100   -7.110420  103.337000
  C    -26.332400   -8.239450  101.963000
  H    -25.547800   -8.468400  101.220000
  H    -26.417400   -9.144360  102.622000
  C    -27.684200   -8.137680  101.146000
  H    -28.351700   -7.592610  101.806000
  H    -27.652800   -7.469570  100.265000
  H    -27.991200   -9.134190  100.842000
  S    -25.807200   -1.397400   99.923200
  C    -27.129700   -0.659988   99.060500
  C    -27.885100   -1.638300   98.430800
  C    -27.557000   -2.989250   98.730600
  C    -26.446800   -3.028350   99.540900
  H    -28.736800   -1.381250   97.752700
  C    -28.427800   -4.216960   98.368200
  H    -27.776800   -5.116080   98.117800
  H    -29.023800   -3.863420   97.541500
  C    -29.497600   -4.687700   99.392600
  H    -30.210200   -3.928520   99.642400
  H    -28.901200   -4.791280  100.337000
  C    -30.237700   -5.933240   99.076000
  H    -31.017700   -5.640960   98.318300
  H    -30.723400   -6.331880   99.962800
  H    -29.586200   -6.699600   98.695500
  H    -23.295900   -6.320370  101.207000
  H    -27.349700    0.387325   98.803400

 Total Charge           Charge          ....    0
 Multiplicity           Mult            ....    1
 Number of Electrons    NEL             ....  134
 Basis Dimension        Dim             ....  322

ORBITAL ENERGIES
----------------

  NO   OCC          E(Eh)            E(eV)
   0   2.0000     -88.966025     -2420.8886
   1   2.0000     -88.964131     -2420.8371
   2   2.0000     -10.320685      -280.8401
   3   2.0000     -10.318565      -280.7824
   4   2.0000     -10.316771      -280.7336
   5   2.0000     -10.314381      -280.6686
   6   2.0000     -10.304216      -280.3920
   7   2.0000     -10.303092      -280.3614
   8   2.0000     -10.299686      -280.2687
   9   2.0000     -10.294599      -280.1303
  10   2.0000     -10.293931      -280.1121
  11   2.0000     -10.293437      -280.0987
  12   2.0000     -10.286952      -279.9222
  13   2.0000     -10.282683      -279.8060
  14   2.0000     -10.280286      -279.7408
  15   2.0000     -10.278338      -279.6878
  16   2.0000      -8.080343      -219.8773
  17   2.0000      -8.080126      -219.8714
  18   2.0000      -6.038714      -164.3218
  19   2.0000      -6.038578      -164.3181
  20   2.0000      -6.034711      -164.2128
  21   2.0000      -6.034565      -164.2089
  22   2.0000      -6.031396      -164.1226
  23   2.0000      -6.030838      -164.1074
  24   2.0000      -1.011965       -27.5370
  25   2.0000      -0.984442       -26.7880
  26   2.0000      -0.912586       -24.8327
  27   2.0000      -0.908670       -24.7262
  28   2.0000      -0.871627       -23.7182
  29   2.0000      -0.853597       -23.2275
  30   2.0000      -0.846111       -23.0239
  31   2.0000      -0.812070       -22.0975
  32   2.0000      -0.784418       -21.3451
  33   2.0000      -0.770780       -20.9740
  34   2.0000      -0.702819       -19.1247
  35   2.0000      -0.699374       -19.0309
  36   2.0000      -0.688639       -18.7388
  37   2.0000      -0.659075       -17.9343
  38   2.0000      -0.651647       -17.7322
  39   2.0000      -0.614174       -16.7125
  40   2.0000      -0.592130       -16.1127
  41   2.0000      -0.571703       -15.5568
  42   2.0000      -0.567060       -15.4305
  43   2.0000      -0.552993       -15.0477
  44   2.0000      -0.537863       -14.6360
  45   2.0000      -0.522534       -14.2189
  46   2.0000      -0.518403       -14.1065
  47   2.0000      -0.512704       -13.9514
  48   2.0000      -0.511326       -13.9139
  49   2.0000      -0.494090       -13.4449
  50   2.0000      -0.489517       -13.3204
  51   2.0000      -0.481986       -13.1155
  52   2.0000      -0.471818       -12.8388
  53   2.0000      -0.462209       -12.5773
  54   2.0000      -0.459698       -12.5090
  55   2.0000      -0.448215       -12.1965
  56   2.0000      -0.446934       -12.1617
  57   2.0000      -0.436390       -11.8748
  58   2.0000      -0.433738       -11.8026
  59   2.0000      -0.429366       -11.6836
  60   2.0000      -0.425333       -11.5739
  61   2.0000      -0.411997       -11.2110
  62   2.0000      -0.402851       -10.9621
  63   2.0000      -0.339956        -9.2507
  64   2.0000      -0.328899        -8.9498
  65   2.0000      -0.320441        -8.7197
  66   2.0000      -0.304577        -8.2880
  67   0.0000       0.037263         1.0140
  68   0.0000       0.059268         1.6128
  69   0.0000       0.115764         3.1501
  70   0.0000       0.118230         3.2172
  71   0.0000       0.127656         3.4737

MULLIKEN ATOMIC CHARGES
-----------------------
   0 S :    0.130311
   1 C :   -0.132812
   2 C :   -0.102844
   3 C :    0.034858
   4 C :   -0.179876
   5 H :    0.037940
   6 C :    0.113642
   7 H :    0.013315
   8 H :    0.016453
   9 C :   -0.097508
  10 H :    0.030243
  11 H :    0.041088
  12 C :   -0.061756
  13 H :    0.020873
  14 H :    0.039379
  15 H :    0.043755
  16 S :    0.119883
  17 C :   -0.084680
  18 C :   -0.075317
  19 C :    0.005379
  20 C :   -0.210307
  21 H :    0.028025
  22 C :    0.073871
  23 H :    0.048406
  24 H :    0.011132
  25 C :   -0.077328
  26 H :    0.018206
  27 H :   -0.003152
  28 C :   -0.024836
  29 H :    0.037796
  30 H :    0.038485
  31 H :    0.027959
  32 H :    0.055542
  33 H :    0.063876
Sum of atomic charges:   -0.0000000

LOEWDIN ATOMIC CHARGES
----------------------
   0 S :    0.434949
   1 C :   -0.206904
   2 C :   -0.057838
   3 C :   -0.054055
   4 C :   -0.216398
   5 H :    0.035140
   6 C :   -0.033605
   7 H :    0.026389
   8 H :    0.028398
   9 C :   -0.039468
  10 H :    0.023932
  11 H :    0.027168
  12 C :   -0.067177
  13 H :    0.020166
  14 H :    0.025456
  15 H :    0.027271
  16 S :    0.396350
  17 C :   -0.198761
  18 C :   -0.079456
  19 C :   -0.053844
  20 C :   -0.189575
  21 H :    0.034102
  22 C :   -0.027204
  23 H :    0.041024
  24 H :    0.025369
  25 C :   -0.049084
  26 H :    0.020258
  27 H :    0.018757
  28 C :   -0.062074
  29 H :    0.032463
  30 H :    0.031125
  31 H :    0.020805
  32 H :    0.026436
  33 H :    0.039883

  Mayer bond orders larger than 0.100000
B(  0-S ,  1-C ) :   1.1677 B(  0-S ,  4-C ) :   1.1600 B(  1-C ,  2-C ) :   1.5650
B(  1-C , 32-H ) :   0.9742 B(  2-C ,  3-C ) :   1.2428 B(  2-C ,  6-C ) :   1.0377
B(  3-C ,  4-C ) :   1.5852 B(  3-C ,  5-H ) :   0.9792 B(  4-C , 20-C ) :   1.0376
B(  6-C ,  7-H ) :   0.9408 B(  6-C ,  8-H ) :   0.9331 B(  6-C ,  9-C ) :   1.0544
B(  9-C , 10-H ) :   0.9581 B(  9-C , 11-H ) :   0.9609 B(  9-C , 12-C ) :   1.0668
B( 12-C , 13-H ) :   0.9771 B( 12-C , 14-H ) :   0.9728 B( 12-C , 15-H ) :   0.9753
B( 16-S , 17-C ) :   1.1431 B( 16-S , 20-C ) :   1.1366 B( 17-C , 18-C ) :   1.6292
B( 17-C , 20-C ) :   0.1029 B( 17-C , 33-H ) :   0.9605 B( 18-C , 19-C ) :   1.2454
B( 18-C , 21-H ) :   0.9721 B( 19-C , 20-C ) :   1.6078 B( 19-C , 22-C ) :   1.0527
B( 22-C , 23-H ) :   0.9282 B( 22-C , 24-H ) :   0.9266 B( 22-C , 25-C ) :   1.0669
B( 25-C , 26-H ) :   0.9493 B( 25-C , 27-H ) :   0.9450 B( 25-C , 28-C ) :   1.0944
B( 28-C , 29-H ) :   0.9728 B( 28-C , 30-H ) :   0.9681 B( 28-C , 31-H ) :   0.9700

Dispersion correction           -0.016523356
FINAL SINGLE POINT ENERGY     -1339.879722888431

DIPOLE MOMENT
-------------
                                X             Y             Z
Electronic contribution:     20.96128      22.30271      -3.46866
Nuclear contribution   :    -21.41545     -22.66357       3.62033
                        -----------------------------------------
Total Dipole Moment    :     -0.45417      -0.36086       0.15167
                        -----------------------------------------
Magnitude (a.u.)       :      0.59958
Magnitude (Debye)      :      1.52400

Rotational constants in cm-1:     0.018267     0.010787     0.007537
Rotational constants in MHz :   547.638720   323.387686   225.957740

                             ****ORCA TERMINATED NORMALLY****
TOTAL RUN TIME: 0 days 0 hours 0 minutes 32 seconds 715 msec
