                         Program Version 4.2.1 -  RELEASE  -
|  1> ! wB97X-D3 SP def2-SVP
|  2> %pal
|  3> nprocs 16
|  4> end
|  5>
|  6> * xyz 0 1
|  7> S 	 -3.85869 	 -21.0504 	 84.1823
|  8> C 	 -3.22173 	 -20.2351 	 82.7876
|  9> C 	 -2.43216 	 -19.171 	 83.1682
| 10> C 	 -2.39325 	 -18.9645 	 84.5979
| 11> C 	 -3.12645 	 -19.8809 	 85.2772
| 12> H 	 -1.78482 	 -18.195 	 85.135
| 13> C 	 -1.64344 	 -18.3688 	 82.1881
| 14> H 	 -2.39721 	 -17.7566 	 81.6495
| 15> H 	 -1.22772 	 -19.1156 	 81.4934
| 16> C 	 -0.727144 	 -17.3021 	 82.7309
| 17> H 	 -0.553572 	 -16.5703 	 81.946
| 18> H 	 -1.3785 	 -16.7473 	 83.4034
| 19> C 	 0.661059 	 -17.8267 	 83.1705
| 20> H 	 1.25259 	 -18.0466 	 82.2187
| 21> H 	 1.04456 	 -16.9291 	 83.5494
| 22> H 	 0.560341 	 -18.648 	 83.9148
| 23> S 	 -3.32019 	 -21.7873 	 87.373
| 24> C 	 -3.74868 	 -21.2282 	 88.972
| 25> C 	 -3.728 	 -19.8606 	 89.0819
| 26> C 	 -3.58767 	 -19.2225 	 87.7664
| 27> C 	 -3.32467 	 -20.1301 	 86.7355
| 28> H 	 -3.8843 	 -19.5058 	 90.0591
| 29> C 	 -3.64936 	 -17.6955 	 87.5593
| 30> H 	 -4.44065 	 -17.2619 	 88.1244
| 31> H 	 -4.04293 	 -17.6243 	 86.5274
| 32> C 	 -2.34482 	 -16.8706 	 87.6811
| 33> H 	 -1.60101 	 -17.2711 	 87.0242
| 34> H 	 -1.8949 	 -17.0588 	 88.6244
| 35> C 	 -2.47061 	 -15.3812 	 87.3057
| 36> H 	 -2.72815 	 -15.246 	 86.267
| 37> H 	 -1.51245 	 -14.8923 	 87.5231
| 38> H 	 -3.26933 	 -14.9698 	 87.8978
| 39> H 	 -3.17995 	 -20.6584 	 81.7897
| 40> H 	 -3.74046 	 -21.7798 	 89.9135
| 41> *
| 42>
| 43>                          ****END OF INPUT****

CARTESIAN COORDINATES (ANGSTROEM)
---------------------------------
  S     -3.858690  -21.050400   84.182300
  C     -3.221730  -20.235100   82.787600
  C     -2.432160  -19.171000   83.168200
  C     -2.393250  -18.964500   84.597900
  C     -3.126450  -19.880900   85.277200
  H     -1.784820  -18.195000   85.135000
  C     -1.643440  -18.368800   82.188100
  H     -2.397210  -17.756600   81.649500
  H     -1.227720  -19.115600   81.493400
  C     -0.727144  -17.302100   82.730900
  H     -0.553572  -16.570300   81.946000
  H     -1.378500  -16.747300   83.403400
  C      0.661059  -17.826700   83.170500
  H      1.252590  -18.046600   82.218700
  H      1.044560  -16.929100   83.549400
  H      0.560341  -18.648000   83.914800
  S     -3.320190  -21.787300   87.373000
  C     -3.748680  -21.228200   88.972000
  C     -3.728000  -19.860600   89.081900
  C     -3.587670  -19.222500   87.766400
  C     -3.324670  -20.130100   86.735500
  H     -3.884300  -19.505800   90.059100
  C     -3.649360  -17.695500   87.559300
  H     -4.440650  -17.261900   88.124400
  H     -4.042930  -17.624300   86.527400
  C     -2.344820  -16.870600   87.681100
  H     -1.601010  -17.271100   87.024200
  H     -1.894900  -17.058800   88.624400
  C     -2.470610  -15.381200   87.305700
  H     -2.728150  -15.246000   86.267000
  H     -1.512450  -14.892300   87.523100
  H     -3.269330  -14.969800   87.897800
  H     -3.179950  -20.658400   81.789700
  H     -3.740460  -21.779800   89.913500

 Total Charge           Charge          ....    0
 Multiplicity           Mult            ....    1
 Number of Electrons    NEL             ....  134
 Basis Dimension        Dim             ....  322

ORBITAL ENERGIES
----------------

  NO   OCC          E(Eh)            E(eV)
   0   2.0000     -88.967540     -2420.9298
   1   2.0000     -88.962642     -2420.7966
   2   2.0000     -10.333438      -281.1871
   3   2.0000     -10.332671      -281.1663
   4   2.0000     -10.315966      -280.7117
   5   2.0000     -10.311386      -280.5871
   6   2.0000     -10.308618      -280.5118
   7   2.0000     -10.299580      -280.2658
   8   2.0000     -10.298232      -280.2291
   9   2.0000     -10.293526      -280.1011
  10   2.0000     -10.290310      -280.0136
  11   2.0000     -10.287687      -279.9422
  12   2.0000     -10.286873      -279.9200
  13   2.0000     -10.284773      -279.8629
  14   2.0000     -10.283477      -279.8276
  15   2.0000     -10.279997      -279.7329
  16   2.0000      -8.081655      -219.9130
  17   2.0000      -8.077556      -219.8015
  18   2.0000      -6.040321      -164.3655
  19   2.0000      -6.036290      -164.2558
  20   2.0000      -6.036141      -164.2517
  21   2.0000      -6.032236      -164.1455
  22   2.0000      -6.032014      -164.1394
  23   2.0000      -6.028245      -164.0369
  24   2.0000      -1.004437       -27.3321
  25   2.0000      -0.982152       -26.7257
  26   2.0000      -0.917597       -24.9691
  27   2.0000      -0.905329       -24.6353
  28   2.0000      -0.869793       -23.6683
  29   2.0000      -0.850257       -23.1367
  30   2.0000      -0.842197       -22.9173
  31   2.0000      -0.824373       -22.4323
  32   2.0000      -0.784302       -21.3420
  33   2.0000      -0.771485       -20.9932
  34   2.0000      -0.712941       -19.4001
  35   2.0000      -0.703239       -19.1361
  36   2.0000      -0.687194       -18.6995
  37   2.0000      -0.655185       -17.8285
  38   2.0000      -0.637695       -17.3526
  39   2.0000      -0.625719       -17.0267
  40   2.0000      -0.588557       -16.0155
  41   2.0000      -0.570216       -15.5164
  42   2.0000      -0.561605       -15.2821
  43   2.0000      -0.552127       -15.0241
  44   2.0000      -0.543236       -14.7822
  45   2.0000      -0.528429       -14.3793
  46   2.0000      -0.517686       -14.0870
  47   2.0000      -0.512546       -13.9471
  48   2.0000      -0.505021       -13.7423
  49   2.0000      -0.499724       -13.5982
  50   2.0000      -0.491227       -13.3670
  51   2.0000      -0.481041       -13.0898
  52   2.0000      -0.475575       -12.9410
  53   2.0000      -0.467040       -12.7088
  54   2.0000      -0.462135       -12.5753
  55   2.0000      -0.451149       -12.2764
  56   2.0000      -0.443399       -12.0655
  57   2.0000      -0.441873       -12.0240
  58   2.0000      -0.436348       -11.8736
  59   2.0000      -0.423520       -11.5246
  60   2.0000      -0.416928       -11.3452
  61   2.0000      -0.414784       -11.2869
  62   2.0000      -0.404614       -11.0101
  63   2.0000      -0.351930        -9.5765
  64   2.0000      -0.330075        -8.9818
  65   2.0000      -0.327510        -8.9120
  66   2.0000      -0.292258        -7.9527
  67   0.0000       0.027480         0.7478
  68   0.0000       0.075314         2.0494
  69   0.0000       0.109293         2.9740
  70   0.0000       0.120801         3.2872
  71   0.0000       0.126296         3.4367

MULLIKEN ATOMIC CHARGES
-----------------------
   0 S :    0.099788
   1 C :   -0.119515
   2 C :   -0.117974
   3 C :    0.001917
   4 C :   -0.130003
   5 H :    0.024956
   6 C :    0.054656
   7 H :    0.040047
   8 H :    0.030361
   9 C :   -0.100900
  10 H :    0.019676
  11 H :    0.022856
  12 C :   -0.027939
  13 H :    0.049179
  14 H :    0.025519
  15 H :    0.057045
  16 S :    0.105483
  17 C :   -0.092627
  18 C :   -0.023029
  19 C :   -0.051490
  20 C :   -0.131845
  21 H :    0.005435
  22 C :    0.058152
  23 H :    0.013233
  24 H :    0.025120
  25 C :   -0.038962
  26 H :    0.003930
  27 H :    0.013825
  28 C :   -0.029884
  29 H :    0.030720
  30 H :    0.042303
  31 H :    0.028122
  32 H :    0.050533
  33 H :    0.061310
Sum of atomic charges:    0.0000000

LOEWDIN ATOMIC CHARGES
----------------------
   0 S :    0.403425
   1 C :   -0.208524
   2 C :   -0.062478
   3 C :   -0.077993
   4 C :   -0.178414
   5 H :    0.038787
   6 C :   -0.043244
   7 H :    0.042078
   8 H :    0.031488
   9 C :   -0.049190
  10 H :    0.025910
  11 H :    0.023214
  12 C :   -0.063561
  13 H :    0.039962
  14 H :    0.020182
  15 H :    0.031419
  16 S :    0.392013
  17 C :   -0.188641
  18 C :   -0.066858
  19 C :   -0.049163
  20 C :   -0.193519
  21 H :    0.026215
  22 C :   -0.035328
  23 H :    0.023328
  24 H :    0.034147
  25 C :   -0.037327
  26 H :    0.015325
  27 H :    0.019271
  28 C :   -0.056556
  29 H :    0.023576
  30 H :    0.031814
  31 H :    0.022223
  32 H :    0.030569
  33 H :    0.035849

  Mayer bond orders larger than 0.100000
B(  0-S ,  1-C ) :   1.1269 B(  0-S ,  4-C ) :   1.1577 B(  1-C ,  2-C ) :   1.6300
B(  1-C , 32-H ) :   0.9692 B(  2-C ,  3-C ) :   1.2324 B(  2-C ,  6-C ) :   1.0115
B(  3-C ,  4-C ) :   1.5844 B(  3-C ,  5-H ) :   0.9783 B(  4-C , 20-C ) :   1.0239
B(  6-C ,  7-H ) :   0.9281 B(  6-C ,  8-H ) :   0.9410 B(  6-C ,  9-C ) :   1.0946
B(  9-C , 10-H ) :   0.9515 B(  9-C , 11-H ) :   0.9431 B(  9-C , 12-C ) :   1.0608
B( 12-C , 13-H ) :   0.9713 B( 12-C , 14-H ) :   0.9752 B( 12-C , 15-H ) :   0.9775
B( 16-S , 17-C ) :   1.1398 B( 16-S , 20-C ) :   1.1254 B( 17-C , 18-C ) :   1.6616
B( 17-C , 33-H ) :   0.9573 B( 18-C , 19-C ) :   1.1966 B( 18-C , 21-H ) :   0.9973
B( 19-C , 20-C ) :   1.6159 B( 19-C , 22-C ) :   1.0461 B( 22-C , 23-H ) :   0.9360
B( 22-C , 24-H ) :   0.9283 B( 22-C , 25-C ) :   1.0576 B( 25-C , 26-H ) :   0.9498
B( 25-C , 27-H ) :   0.9493 B( 25-C , 28-C ) :   1.0777 B( 28-C , 29-H ) :   0.9754
B( 28-C , 30-H ) :   0.9733 B( 28-C , 31-H ) :   0.9771

Dispersion correction           -0.014692822
FINAL SINGLE POINT ENERGY     -1339.871745297054

DIPOLE MOMENT
-------------
                                X             Y             Z
Electronic contribution:    -13.85722     -27.40519       4.54747
Nuclear contribution   :     14.24968      28.09529      -4.53285
                        -----------------------------------------
Total Dipole Moment    :      0.39246       0.69010       0.01462
                        -----------------------------------------
Magnitude (a.u.)       :      0.79402
Magnitude (Debye)      :      2.01825

Rotational constants in cm-1:     0.016649     0.010272     0.007136
Rotational constants in MHz :   499.125920   307.935009   213.933144

                             ****ORCA TERMINATED NORMALLY****
TOTAL RUN TIME: 0 days 0 hours 0 minutes 35 seconds 657 msec
