                         Program Version 4.2.1 -  RELEASE  -
|  1> ! wB97X-D3 SP def2-SVP
|  2> %pal
|  3> nprocs 16
|  4> end
|  5>
|  6> * xyz 0 1
|  7> S 	 -31.4902 	 61.3456 	 114.11
|  8> C 	 -31.3 	 59.6238 	 113.9
|  9> C 	 -31.7997 	 58.8046 	 114.925
| 10> C 	 -32.3511 	 59.5745 	 115.964
| 11> C 	 -32.2424 	 60.9622 	 115.711
| 12> H 	 -32.7615 	 59.2386 	 116.891
| 13> C 	 -31.9013 	 57.1979 	 115.04
| 14> H 	 -31.8952 	 56.8918 	 116.128
| 15> H 	 -30.8675 	 56.9603 	 114.631
| 16> C 	 -33.1729 	 56.5655 	 114.388
| 17> H 	 -33.9967 	 56.9178 	 115.083
| 18> H 	 -33.3686 	 57.0857 	 113.439
| 19> C 	 -33.1966 	 55.0421 	 114.353
| 20> H 	 -32.8611 	 54.6925 	 115.362
| 21> H 	 -34.2411 	 54.7735 	 114.167
| 22> H 	 -32.5226 	 54.5988 	 113.574
| 23> S 	 -31.3029 	 62.897 	 117.392
| 24> C 	 -32.4174 	 63.9093 	 118.253
| 25> C 	 -33.7361 	 63.5844 	 117.974
| 26> C 	 -33.8443 	 62.4977 	 116.997
| 27> C 	 -32.6329 	 62.0626 	 116.556
| 28> H 	 -34.5019 	 64.084 	 118.525
| 29> C 	 -35.1777 	 61.8978 	 116.627
| 30> H 	 -35.9047 	 61.8602 	 117.485
| 31> H 	 -35.0061 	 60.8861 	 116.412
| 32> C 	 -35.9179 	 62.5474 	 115.442
| 33> H 	 -35.2241 	 62.5963 	 114.648
| 34> H 	 -36.2947 	 63.5894 	 115.588
| 35> C 	 -37.1619 	 61.7659 	 115.117
| 36> H 	 -37.888 	 61.8465 	 115.942
| 37> H 	 -37.0973 	 60.6713 	 114.986
| 38> H 	 -37.6624 	 62.1606 	 114.291
| 39> H 	 -30.6915 	 59.1976 	 113.046
| 40> H 	 -32.0519 	 64.7375 	 118.839
| 41> *
| 42>
| 43>                          ****END OF INPUT****

CARTESIAN COORDINATES (ANGSTROEM)
---------------------------------
  S    -31.490200   61.345600  114.110000
  C    -31.300000   59.623800  113.900000
  C    -31.799700   58.804600  114.925000
  C    -32.351100   59.574500  115.964000
  C    -32.242400   60.962200  115.711000
  H    -32.761500   59.238600  116.891000
  C    -31.901300   57.197900  115.040000
  H    -31.895200   56.891800  116.128000
  H    -30.867500   56.960300  114.631000
  C    -33.172900   56.565500  114.388000
  H    -33.996700   56.917800  115.083000
  H    -33.368600   57.085700  113.439000
  C    -33.196600   55.042100  114.353000
  H    -32.861100   54.692500  115.362000
  H    -34.241100   54.773500  114.167000
  H    -32.522600   54.598800  113.574000
  S    -31.302900   62.897000  117.392000
  C    -32.417400   63.909300  118.253000
  C    -33.736100   63.584400  117.974000
  C    -33.844300   62.497700  116.997000
  C    -32.632900   62.062600  116.556000
  H    -34.501900   64.084000  118.525000
  C    -35.177700   61.897800  116.627000
  H    -35.904700   61.860200  117.485000
  H    -35.006100   60.886100  116.412000
  C    -35.917900   62.547400  115.442000
  H    -35.224100   62.596300  114.648000
  H    -36.294700   63.589400  115.588000
  C    -37.161900   61.765900  115.117000
  H    -37.888000   61.846500  115.942000
  H    -37.097300   60.671300  114.986000
  H    -37.662400   62.160600  114.291000
  H    -30.691500   59.197600  113.046000
  H    -32.051900   64.737500  118.839000

 Total Charge           Charge          ....    0
 Multiplicity           Mult            ....    1
 Number of Electrons    NEL             ....  134
 Basis Dimension        Dim             ....  322

ORBITAL ENERGIES
----------------

  NO   OCC          E(Eh)            E(eV)
   0   2.0000     -88.972711     -2421.0706
   1   2.0000     -88.958062     -2420.6719
   2   2.0000     -10.331490      -281.1341
   3   2.0000     -10.322121      -280.8792
   4   2.0000     -10.320095      -280.8241
   5   2.0000     -10.315764      -280.7062
   6   2.0000     -10.310167      -280.5539
   7   2.0000     -10.307215      -280.4736
   8   2.0000     -10.303659      -280.3768
   9   2.0000     -10.296983      -280.1952
  10   2.0000     -10.296299      -280.1765
  11   2.0000     -10.293592      -280.1029
  12   2.0000     -10.289373      -279.9881
  13   2.0000     -10.287426      -279.9351
  14   2.0000     -10.281444      -279.7723
  15   2.0000     -10.270428      -279.4726
  16   2.0000      -8.086393      -220.0419
  17   2.0000      -8.073273      -219.6849
  18   2.0000      -6.044677      -164.4840
  19   2.0000      -6.041248      -164.3907
  20   2.0000      -6.037257      -164.2821
  21   2.0000      -6.031727      -164.1316
  22   2.0000      -6.027743      -164.0232
  23   2.0000      -6.024026      -163.9221
  24   2.0000      -1.000423       -27.2229
  25   2.0000      -0.976472       -26.5712
  26   2.0000      -0.909674       -24.7535
  27   2.0000      -0.900819       -24.5125
  28   2.0000      -0.866337       -23.5742
  29   2.0000      -0.853808       -23.2333
  30   2.0000      -0.847957       -23.0741
  31   2.0000      -0.805451       -21.9174
  32   2.0000      -0.780482       -21.2380
  33   2.0000      -0.767196       -20.8765
  34   2.0000      -0.703892       -19.1539
  35   2.0000      -0.693382       -18.8679
  36   2.0000      -0.691829       -18.8256
  37   2.0000      -0.662344       -18.0233
  38   2.0000      -0.639581       -17.4039
  39   2.0000      -0.613529       -16.6950
  40   2.0000      -0.595797       -16.2125
  41   2.0000      -0.569002       -15.4833
  42   2.0000      -0.563300       -15.3282
  43   2.0000      -0.547274       -14.8921
  44   2.0000      -0.528228       -14.3738
  45   2.0000      -0.525624       -14.3029
  46   2.0000      -0.515819       -14.0362
  47   2.0000      -0.505382       -13.7521
  48   2.0000      -0.501920       -13.6579
  49   2.0000      -0.491605       -13.3772
  50   2.0000      -0.486874       -13.2485
  51   2.0000      -0.480551       -13.0765
  52   2.0000      -0.471953       -12.8425
  53   2.0000      -0.462049       -12.5730
  54   2.0000      -0.455727       -12.4009
  55   2.0000      -0.449086       -12.2202
  56   2.0000      -0.442664       -12.0455
  57   2.0000      -0.437999       -11.9186
  58   2.0000      -0.433912       -11.8073
  59   2.0000      -0.425821       -11.5872
  60   2.0000      -0.420963       -11.4550
  61   2.0000      -0.412609       -11.2277
  62   2.0000      -0.409188       -11.1346
  63   2.0000      -0.342660        -9.3243
  64   2.0000      -0.325465        -8.8564
  65   2.0000      -0.323433        -8.8010
  66   2.0000      -0.300828        -8.1859
  67   0.0000       0.033892         0.9222
  68   0.0000       0.059291         1.6134
  69   0.0000       0.104223         2.8361
  70   0.0000       0.114082         3.1043
  71   0.0000       0.128920         3.5081

MULLIKEN ATOMIC CHARGES
-----------------------
   0 S :    0.125802
   1 C :   -0.146754
   2 C :   -0.086370
   3 C :    0.071503
   4 C :   -0.202925
   5 H :    0.010154
   6 C :    0.007188
   7 H :    0.035289
   8 H :    0.041470
   9 C :   -0.084683
  10 H :    0.030833
  11 H :    0.039197
  12 C :   -0.037445
  13 H :    0.033387
  14 H :    0.044134
  15 H :    0.048843
  16 S :    0.096636
  17 C :   -0.097069
  18 C :   -0.020713
  19 C :   -0.006920
  20 C :   -0.173405
  21 H :    0.012640
  22 C :    0.070301
  23 H :    0.023064
  24 H :   -0.000831
  25 C :   -0.041777
  26 H :    0.018765
  27 H :    0.031928
  28 C :   -0.032683
  29 H :    0.016539
  30 H :    0.027146
  31 H :    0.019207
  32 H :    0.066730
  33 H :    0.060815
Sum of atomic charges:    0.0000000

LOEWDIN ATOMIC CHARGES
----------------------
   0 S :    0.396993
   1 C :   -0.210019
   2 C :   -0.068819
   3 C :   -0.048676
   4 C :   -0.182338
   5 H :    0.030677
   6 C :   -0.036577
   7 H :    0.031477
   8 H :    0.033027
   9 C :   -0.049977
  10 H :    0.031337
  11 H :    0.025477
  12 C :   -0.067407
  13 H :    0.029906
  14 H :    0.030596
  15 H :    0.031520
  16 S :    0.392431
  17 C :   -0.181298
  18 C :   -0.069368
  19 C :   -0.048421
  20 C :   -0.205251
  21 H :    0.028101
  22 C :   -0.029490
  23 H :    0.033821
  24 H :    0.021826
  25 C :   -0.033136
  26 H :    0.017037
  27 H :    0.031003
  28 C :   -0.066009
  29 H :    0.025371
  30 H :    0.025122
  31 H :    0.018035
  32 H :    0.035869
  33 H :    0.027158

  Mayer bond orders larger than 0.100000
B(  0-S ,  1-C ) :   1.1516 B(  0-S ,  4-C ) :   1.1453 B(  1-C ,  2-C ) :   1.6169
B(  1-C ,  4-C ) :   0.1123 B(  1-C , 32-H ) :   0.9554 B(  2-C ,  3-C ) :   1.2516
B(  2-C ,  6-C ) :   0.9940 B(  3-C ,  4-C ) :   1.5759 B(  3-C ,  5-H ) :   0.9930
B(  4-C , 20-C ) :   1.0301 B(  6-C ,  7-H ) :   0.9484 B(  6-C ,  8-H ) :   0.9481
B(  6-C ,  9-C ) :   1.0465 B(  9-C , 10-H ) :   0.9532 B(  9-C , 11-H ) :   0.9590
B(  9-C , 12-C ) :   1.0735 B( 12-C , 13-H ) :   0.9707 B( 12-C , 14-H ) :   0.9742
B( 12-C , 15-H ) :   0.9761 B( 16-S , 17-C ) :   1.1584 B( 16-S , 20-C ) :   1.1267
B( 17-C , 18-C ) :   1.6206 B( 17-C , 33-H ) :   0.9682 B( 18-C , 19-C ) :   1.1975
B( 18-C , 21-H ) :   0.9990 B( 19-C , 20-C ) :   1.6388 B( 19-C , 22-C ) :   1.0483
B( 22-C , 23-H ) :   0.9386 B( 22-C , 24-H ) :   0.9253 B( 22-C , 25-C ) :   1.0664
B( 25-C , 26-H ) :   0.9541 B( 25-C , 27-H ) :   0.9528 B( 25-C , 28-C ) :   1.0867
B( 28-C , 29-H ) :   0.9702 B( 28-C , 30-H ) :   0.9735 B( 28-C , 31-H ) :   0.9720

Dispersion correction           -0.013803251
FINAL SINGLE POINT ENERGY     -1339.872037268158

DIPOLE MOMENT
-------------
                                X             Y             Z
Electronic contribution:     20.75985      20.02031       4.58933
Nuclear contribution   :    -21.22284     -20.41299      -4.49209
                        -----------------------------------------
Total Dipole Moment    :     -0.46300      -0.39268       0.09724
                        -----------------------------------------
Magnitude (a.u.)       :      0.61483
Magnitude (Debye)      :      1.56277

Rotational constants in cm-1:     0.017581     0.008174     0.006612
Rotational constants in MHz :   527.050878   245.060241   198.233085

                             ****ORCA TERMINATED NORMALLY****
TOTAL RUN TIME: 0 days 0 hours 0 minutes 29 seconds 266 msec
