                         Program Version 4.2.1 -  RELEASE  -
|  1> ! wB97X-D3 SP def2-SVP
|  2> %pal
|  3> nprocs 16
|  4> end
|  5>
|  6> * xyz 0 1
|  7> S 	 49.9909 	 23.6903 	 46.0697
|  8> C 	 50.508 	 22.4715 	 44.9405
|  9> C 	 49.9452 	 22.6699 	 43.6953
| 10> C 	 49.2227 	 23.9208 	 43.6527
| 11> C 	 49.1266 	 24.5985 	 44.8367
| 12> H 	 48.7626 	 24.2729 	 42.7559
| 13> C 	 50.1701 	 21.8037 	 42.4541
| 14> H 	 51.1889 	 21.5798 	 42.3564
| 15> H 	 49.9328 	 22.5261 	 41.5966
| 16> C 	 49.1517 	 20.6325 	 42.3487
| 17> H 	 48.9448 	 20.4435 	 43.331
| 18> H 	 48.2514 	 21.1235 	 41.9436
| 19> C 	 49.5531 	 19.2771 	 41.6293
| 20> H 	 49.7385 	 19.4763 	 40.5597
| 21> H 	 50.3517 	 18.767 	 42.1416
| 22> H 	 48.7185 	 18.5357 	 41.6466
| 23> S 	 49.0003 	 27.335 	 45.4284
| 24> C 	 47.4483 	 28.0501 	 45.9438
| 25> C 	 46.5709 	 26.9869 	 46.1947
| 26> C 	 46.9831 	 25.6917 	 45.7244
| 27> C 	 48.3033 	 25.7381 	 45.2221
| 28> H 	 45.6926 	 27.1821 	 46.7978
| 29> C 	 46.2047 	 24.3897 	 45.8629
| 30> H 	 46.7567 	 23.6837 	 45.2908
| 31> H 	 45.281 	 24.5524 	 45.3119
| 32> C 	 45.9233 	 23.8475 	 47.285
| 33> H 	 46.79 	 23.5021 	 47.7399
| 34> H 	 45.3692 	 22.9062 	 47.2248
| 35> C 	 45.2372 	 24.8055 	 48.241
| 36> H 	 44.4104 	 25.386 	 47.6873
| 37> H 	 46.038 	 25.3224 	 48.7115
| 38> H 	 44.762 	 24.1894 	 49.0503
| 39> H 	 50.9678 	 21.5212 	 45.1937
| 40> H 	 47.0869 	 29.0635 	 46.2853
| 41> *
| 42>
| 43>                          ****END OF INPUT****

CARTESIAN COORDINATES (ANGSTROEM)
---------------------------------
  S     49.990900   23.690300   46.069700
  C     50.508000   22.471500   44.940500
  C     49.945200   22.669900   43.695300
  C     49.222700   23.920800   43.652700
  C     49.126600   24.598500   44.836700
  H     48.762600   24.272900   42.755900
  C     50.170100   21.803700   42.454100
  H     51.188900   21.579800   42.356400
  H     49.932800   22.526100   41.596600
  C     49.151700   20.632500   42.348700
  H     48.944800   20.443500   43.331000
  H     48.251400   21.123500   41.943600
  C     49.553100   19.277100   41.629300
  H     49.738500   19.476300   40.559700
  H     50.351700   18.767000   42.141600
  H     48.718500   18.535700   41.646600
  S     49.000300   27.335000   45.428400
  C     47.448300   28.050100   45.943800
  C     46.570900   26.986900   46.194700
  C     46.983100   25.691700   45.724400
  C     48.303300   25.738100   45.222100
  H     45.692600   27.182100   46.797800
  C     46.204700   24.389700   45.862900
  H     46.756700   23.683700   45.290800
  H     45.281000   24.552400   45.311900
  C     45.923300   23.847500   47.285000
  H     46.790000   23.502100   47.739900
  H     45.369200   22.906200   47.224800
  C     45.237200   24.805500   48.241000
  H     44.410400   25.386000   47.687300
  H     46.038000   25.322400   48.711500
  H     44.762000   24.189400   49.050300
  H     50.967800   21.521200   45.193700
  H     47.086900   29.063500   46.285300

 Total Charge           Charge          ....    0
 Multiplicity           Mult            ....    1
 Number of Electrons    NEL             ....  134
 Basis Dimension        Dim             ....  322

ORBITAL ENERGIES
----------------

  NO   OCC          E(Eh)            E(eV)
   0   2.0000     -88.968763     -2420.9631
   1   2.0000     -88.965649     -2420.8784
   2   2.0000     -10.329333      -281.0754
   3   2.0000     -10.328283      -281.0469
   4   2.0000     -10.325674      -280.9759
   5   2.0000     -10.315280      -280.6930
   6   2.0000     -10.306407      -280.4516
   7   2.0000     -10.302297      -280.3398
   8   2.0000     -10.295184      -280.1462
   9   2.0000     -10.294641      -280.1314
  10   2.0000     -10.293961      -280.1129
  11   2.0000     -10.289095      -279.9805
  12   2.0000     -10.287257      -279.9305
  13   2.0000     -10.286092      -279.8988
  14   2.0000     -10.282360      -279.7972
  15   2.0000     -10.278009      -279.6788
  16   2.0000      -8.082255      -219.9293
  17   2.0000      -8.080384      -219.8784
  18   2.0000      -6.040988      -164.3837
  19   2.0000      -6.038905      -164.3270
  20   2.0000      -6.036907      -164.2726
  21   2.0000      -6.034786      -164.2149
  22   2.0000      -6.032851      -164.1622
  23   2.0000      -6.031207      -164.1175
  24   2.0000      -1.004372       -27.3304
  25   2.0000      -0.979668       -26.6581
  26   2.0000      -0.907115       -24.6839
  27   2.0000      -0.906454       -24.6659
  28   2.0000      -0.867142       -23.5961
  29   2.0000      -0.845742       -23.0138
  30   2.0000      -0.844171       -22.9710
  31   2.0000      -0.816371       -22.2146
  32   2.0000      -0.784550       -21.3487
  33   2.0000      -0.771374       -20.9902
  34   2.0000      -0.708561       -19.2809
  35   2.0000      -0.704232       -19.1631
  36   2.0000      -0.691482       -18.8162
  37   2.0000      -0.652936       -17.7673
  38   2.0000      -0.643332       -17.5060
  39   2.0000      -0.620015       -16.8715
  40   2.0000      -0.584599       -15.9078
  41   2.0000      -0.571176       -15.5425
  42   2.0000      -0.558522       -15.1982
  43   2.0000      -0.552746       -15.0410
  44   2.0000      -0.539997       -14.6941
  45   2.0000      -0.524930       -14.2841
  46   2.0000      -0.518620       -14.1124
  47   2.0000      -0.510689       -13.8966
  48   2.0000      -0.504986       -13.7414
  49   2.0000      -0.500910       -13.6305
  50   2.0000      -0.483758       -13.1637
  51   2.0000      -0.476902       -12.9772
  52   2.0000      -0.472700       -12.8628
  53   2.0000      -0.468937       -12.7604
  54   2.0000      -0.463970       -12.6253
  55   2.0000      -0.444518       -12.0960
  56   2.0000      -0.435936       -11.8624
  57   2.0000      -0.432377       -11.7656
  58   2.0000      -0.431552       -11.7431
  59   2.0000      -0.427428       -11.6309
  60   2.0000      -0.425217       -11.5707
  61   2.0000      -0.412174       -11.2158
  62   2.0000      -0.409953       -11.1554
  63   2.0000      -0.335555        -9.1309
  64   2.0000      -0.327183        -8.9031
  65   2.0000      -0.323622        -8.8062
  66   2.0000      -0.309529        -8.4227
  67   0.0000       0.041990         1.1426
  68   0.0000       0.046456         1.2641
  69   0.0000       0.108474         2.9517
  70   0.0000       0.120398         3.2762
  71   0.0000       0.127795         3.4775

MULLIKEN ATOMIC CHARGES
-----------------------
   0 S :    0.114624
   1 C :   -0.104462
   2 C :   -0.142910
   3 C :    0.065413
   4 C :   -0.177742
   5 H :   -0.000374
   6 C :    0.049523
   7 H :    0.023718
   8 H :    0.029756
   9 C :   -0.038884
  10 H :    0.008385
  11 H :    0.027850
  12 C :   -0.054899
  13 H :    0.043648
  14 H :    0.036781
  15 H :    0.037976
  16 S :    0.118500
  17 C :   -0.104117
  18 C :   -0.067240
  19 C :   -0.042918
  20 C :   -0.172143
  21 H :    0.023265
  22 C :    0.112040
  23 H :    0.016074
  24 H :    0.028718
  25 C :   -0.040383
  26 H :    0.001396
  27 H :    0.021731
  28 C :   -0.075070
  29 H :    0.052600
  30 H :    0.044536
  31 H :    0.035393
  32 H :    0.051710
  33 H :    0.077508
Sum of atomic charges:   -0.0000000

LOEWDIN ATOMIC CHARGES
----------------------
   0 S :    0.409090
   1 C :   -0.198508
   2 C :   -0.067158
   3 C :   -0.053471
   4 C :   -0.197780
   5 H :    0.027304
   6 C :   -0.029317
   7 H :    0.021217
   8 H :    0.037001
   9 C :   -0.036773
  10 H :    0.008382
  11 H :    0.029453
  12 C :   -0.066394
  13 H :    0.028559
  14 H :    0.023982
  15 H :    0.032535
  16 S :    0.402527
  17 C :   -0.198629
  18 C :   -0.075568
  19 C :   -0.048505
  20 C :   -0.212106
  21 H :    0.028524
  22 C :   -0.027846
  23 H :    0.028375
  24 H :    0.032042
  25 C :   -0.038105
  26 H :    0.013944
  27 H :    0.025342
  28 C :   -0.071229
  29 H :    0.033420
  30 H :    0.025224
  31 H :    0.032769
  32 H :    0.030796
  33 H :    0.050900

  Mayer bond orders larger than 0.100000
B(  0-S ,  1-C ) :   1.1485 B(  0-S ,  4-C ) :   1.1452 B(  1-C ,  2-C ) :   1.6173
B(  1-C , 32-H ) :   0.9633 B(  2-C ,  3-C ) :   1.2474 B(  2-C ,  6-C ) :   1.0157
B(  3-C ,  4-C ) :   1.5981 B(  3-C ,  5-H ) :   0.9981 B(  4-C , 20-C ) :   1.0112
B(  6-C ,  7-H ) :   0.9526 B(  6-C ,  8-H ) :   0.9506 B(  6-C ,  9-C ) :   1.0291
B(  9-C , 10-H ) :   0.9666 B(  9-C , 11-H ) :   0.9567 B(  9-C , 12-C ) :   1.0722
B( 12-C , 13-H ) :   0.9783 B( 12-C , 14-H ) :   0.9774 B( 12-C , 15-H ) :   0.9751
B( 16-S , 17-C ) :   1.1434 B( 16-S , 20-C ) :   1.1484 B( 17-C , 18-C ) :   1.6175
B( 17-C , 20-C ) :   0.1059 B( 17-C , 33-H ) :   0.9579 B( 18-C , 19-C ) :   1.2546
B( 18-C , 21-H ) :   0.9788 B( 19-C , 20-C ) :   1.5698 B( 19-C , 22-C ) :   1.0381
B( 22-C , 23-H ) :   0.9191 B( 22-C , 24-H ) :   0.9325 B( 22-C , 25-C ) :   1.0756
B( 25-C , 26-H ) :   0.9496 B( 25-C , 27-H ) :   0.9540 B( 25-C , 28-C ) :   1.0806
B( 28-C , 29-H ) :   0.9717 B( 28-C , 30-H ) :   0.9729 B( 28-C , 31-H ) :   0.9692

Dispersion correction           -0.014676453
FINAL SINGLE POINT ENERGY     -1339.857268291290

DIPOLE MOMENT
-------------
                                X             Y             Z
Electronic contribution:     12.32076      20.76949       5.44735
Nuclear contribution   :    -12.74089     -21.34300      -5.49035
                        -----------------------------------------
Total Dipole Moment    :     -0.42013      -0.57351      -0.04300
                        -----------------------------------------
Magnitude (a.u.)       :      0.71222
Magnitude (Debye)      :      1.81033

Rotational constants in cm-1:     0.021940     0.007457     0.006501
Rotational constants in MHz :   657.745391   223.556901   194.904342

                             ****ORCA TERMINATED NORMALLY****
TOTAL RUN TIME: 0 days 0 hours 0 minutes 35 seconds 819 msec
