                         Program Version 4.2.1 -  RELEASE  -
|  1> ! wB97X-D3 SP def2-SVP
|  2> %pal
|  3> nprocs 16
|  4> end
|  5>
|  6> * xyz 0 1
|  7> S 	 -40.5102 	 21.6892 	 79.4242
|  8> C 	 -40.4374 	 23.0138 	 80.5623
|  9> C 	 -39.4797 	 23.9617 	 80.2402
| 10> C 	 -38.7135 	 23.6145 	 79.112
| 11> C 	 -39.2515 	 22.5222 	 78.4804
| 12> H 	 -37.8871 	 24.184 	 78.7122
| 13> C 	 -39.058 	 25.1232 	 81.1323
| 14> H 	 -37.9593 	 25.3152 	 81.027
| 15> H 	 -39.2894 	 24.8173 	 82.1805
| 16> C 	 -39.7926 	 26.459 	 80.8755
| 17> H 	 -39.6383 	 26.736 	 79.8418
| 18> H 	 -40.8535 	 26.314 	 81.1657
| 19> C 	 -39.2041 	 27.5507 	 81.7051
| 20> H 	 -39.6964 	 28.4897 	 81.617
| 21> H 	 -39.3378 	 27.1729 	 82.6906
| 22> H 	 -38.1571 	 27.6878 	 81.4894
| 23> S 	 -38.3662 	 20.2247 	 77.124
| 24> C 	 -37.9903 	 20.3353 	 75.4271
| 25> C 	 -38.2612 	 21.6023 	 74.9396
| 26> C 	 -38.7435 	 22.5798 	 75.9012
| 27> C 	 -38.7842 	 21.9669 	 77.1829
| 28> H 	 -38.0867 	 21.6275 	 73.8513
| 29> C 	 -38.9883 	 24.0351 	 75.5549
| 30> H 	 -38.3958 	 24.3567 	 74.7241
| 31> H 	 -38.5426 	 24.7538 	 76.2451
| 32> C 	 -40.4519 	 24.433 	 75.1044
| 33> H 	 -41.1674 	 24.0935 	 75.8615
| 34> H 	 -40.6776 	 23.6215 	 74.3949
| 35> C 	 -40.812 	 25.7197 	 74.4917
| 36> H 	 -40.4901 	 25.6627 	 73.4531
| 37> H 	 -40.335 	 26.5964 	 74.9924
| 38> H 	 -41.9191 	 25.835 	 74.4393
| 39> H 	 -41.0441 	 23.0079 	 81.5144
| 40> H 	 -37.6694 	 19.5688 	 74.732
| 41> *
| 42>
| 43>                          ****END OF INPUT****

CARTESIAN COORDINATES (ANGSTROEM)
---------------------------------
  S    -40.510200   21.689200   79.424200
  C    -40.437400   23.013800   80.562300
  C    -39.479700   23.961700   80.240200
  C    -38.713500   23.614500   79.112000
  C    -39.251500   22.522200   78.480400
  H    -37.887100   24.184000   78.712200
  C    -39.058000   25.123200   81.132300
  H    -37.959300   25.315200   81.027000
  H    -39.289400   24.817300   82.180500
  C    -39.792600   26.459000   80.875500
  H    -39.638300   26.736000   79.841800
  H    -40.853500   26.314000   81.165700
  C    -39.204100   27.550700   81.705100
  H    -39.696400   28.489700   81.617000
  H    -39.337800   27.172900   82.690600
  H    -38.157100   27.687800   81.489400
  S    -38.366200   20.224700   77.124000
  C    -37.990300   20.335300   75.427100
  C    -38.261200   21.602300   74.939600
  C    -38.743500   22.579800   75.901200
  C    -38.784200   21.966900   77.182900
  H    -38.086700   21.627500   73.851300
  C    -38.988300   24.035100   75.554900
  H    -38.395800   24.356700   74.724100
  H    -38.542600   24.753800   76.245100
  C    -40.451900   24.433000   75.104400
  H    -41.167400   24.093500   75.861500
  H    -40.677600   23.621500   74.394900
  C    -40.812000   25.719700   74.491700
  H    -40.490100   25.662700   73.453100
  H    -40.335000   26.596400   74.992400
  H    -41.919100   25.835000   74.439300
  H    -41.044100   23.007900   81.514400
  H    -37.669400   19.568800   74.732000

 Total Charge           Charge          ....    0
 Multiplicity           Mult            ....    1
 Number of Electrons    NEL             ....  134
 Basis Dimension        Dim             ....  322

ORBITAL ENERGIES
----------------

  NO   OCC          E(Eh)            E(eV)
   0   2.0000     -88.970070     -2420.9987
   1   2.0000     -88.967944     -2420.9408
   2   2.0000     -10.335545      -281.2445
   3   2.0000     -10.330784      -281.1149
   4   2.0000     -10.317356      -280.7495
   5   2.0000     -10.316312      -280.7211
   6   2.0000     -10.315281      -280.6931
   7   2.0000     -10.298654      -280.2406
   8   2.0000     -10.296620      -280.1853
   9   2.0000     -10.296571      -280.1839
  10   2.0000     -10.294346      -280.1234
  11   2.0000     -10.292052      -280.0610
  12   2.0000     -10.282729      -279.8073
  13   2.0000     -10.281440      -279.7722
  14   2.0000     -10.281024      -279.7609
  15   2.0000     -10.267602      -279.3957
  16   2.0000      -8.084221      -219.9828
  17   2.0000      -8.081931      -219.9205
  18   2.0000      -6.042661      -164.4292
  19   2.0000      -6.040493      -164.3702
  20   2.0000      -6.038942      -164.3280
  21   2.0000      -6.036543      -164.2627
  22   2.0000      -6.034967      -164.2198
  23   2.0000      -6.032689      -164.1578
  24   2.0000      -1.001527       -27.2529
  25   2.0000      -0.979189       -26.6451
  26   2.0000      -0.914184       -24.8762
  27   2.0000      -0.905537       -24.6409
  28   2.0000      -0.865761       -23.5586
  29   2.0000      -0.857854       -23.3434
  30   2.0000      -0.850115       -23.1328
  31   2.0000      -0.813899       -22.1473
  32   2.0000      -0.784367       -21.3437
  33   2.0000      -0.767392       -20.8818
  34   2.0000      -0.701663       -19.0932
  35   2.0000      -0.692656       -18.8481
  36   2.0000      -0.690737       -18.7959
  37   2.0000      -0.652473       -17.7547
  38   2.0000      -0.637078       -17.3358
  39   2.0000      -0.623607       -16.9692
  40   2.0000      -0.596131       -16.2216
  41   2.0000      -0.578320       -15.7369
  42   2.0000      -0.562010       -15.2931
  43   2.0000      -0.551302       -15.0017
  44   2.0000      -0.525154       -14.2902
  45   2.0000      -0.523226       -14.2377
  46   2.0000      -0.515903       -14.0384
  47   2.0000      -0.513002       -13.9595
  48   2.0000      -0.505337       -13.7509
  49   2.0000      -0.495409       -13.4808
  50   2.0000      -0.490629       -13.3507
  51   2.0000      -0.484883       -13.1943
  52   2.0000      -0.468813       -12.7570
  53   2.0000      -0.461779       -12.5656
  54   2.0000      -0.459170       -12.4947
  55   2.0000      -0.452044       -12.3007
  56   2.0000      -0.448878       -12.2146
  57   2.0000      -0.431869       -11.7518
  58   2.0000      -0.428562       -11.6618
  59   2.0000      -0.425250       -11.5716
  60   2.0000      -0.424133       -11.5412
  61   2.0000      -0.419937       -11.4271
  62   2.0000      -0.393709       -10.7134
  63   2.0000      -0.343738        -9.3536
  64   2.0000      -0.332412        -9.0454
  65   2.0000      -0.331284        -9.0147
  66   2.0000      -0.291781        -7.9398
  67   0.0000       0.028173         0.7666
  68   0.0000       0.065824         1.7912
  69   0.0000       0.104984         2.8568
  70   0.0000       0.123346         3.3564
  71   0.0000       0.125388         3.4120

MULLIKEN ATOMIC CHARGES
-----------------------
   0 S :    0.119035
   1 C :   -0.149022
   2 C :   -0.042348
   3 C :    0.034266
   4 C :   -0.141189
   5 H :    0.019483
   6 C :   -0.007835
   7 H :    0.032189
   8 H :    0.027524
   9 C :   -0.069126
  10 H :    0.022595
  11 H :    0.034816
  12 C :   -0.000566
  13 H :    0.030868
  14 H :    0.011219
  15 H :    0.023137
  16 S :    0.107047
  17 C :   -0.097619
  18 C :   -0.059813
  19 C :    0.009501
  20 C :   -0.183509
  21 H :    0.027055
  22 C :    0.092450
  23 H :   -0.001813
  24 H :    0.013493
  25 C :   -0.105083
  26 H :    0.026560
  27 H :    0.012581
  28 C :   -0.022975
  29 H :    0.028668
  30 H :    0.041156
  31 H :    0.044729
  32 H :    0.067059
  33 H :    0.055468
Sum of atomic charges:   -0.0000000

LOEWDIN ATOMIC CHARGES
----------------------
   0 S :    0.396578
   1 C :   -0.207009
   2 C :   -0.066206
   3 C :   -0.054228
   4 C :   -0.180889
   5 H :    0.034819
   6 C :   -0.033284
   7 H :    0.032337
   8 H :    0.030433
   9 C :   -0.038979
  10 H :    0.018698
  11 H :    0.027784
  12 C :   -0.058690
  13 H :    0.022944
  14 H :    0.020754
  15 H :    0.022283
  16 S :    0.391844
  17 C :   -0.198004
  18 C :   -0.076271
  19 C :   -0.049440
  20 C :   -0.180598
  21 H :    0.036195
  22 C :   -0.036318
  23 H :    0.027664
  24 H :    0.026935
  25 C :   -0.056122
  26 H :    0.023584
  27 H :    0.025958
  28 C :   -0.069192
  29 H :    0.026600
  30 H :    0.029628
  31 H :    0.039019
  32 H :    0.037314
  33 H :    0.033856

  Mayer bond orders larger than 0.100000
B(  0-S ,  1-C ) :   1.1337 B(  0-S ,  4-C ) :   1.1488 B(  1-C ,  2-C ) :   1.6164
B(  1-C , 32-H ) :   0.9577 B(  2-C ,  3-C ) :   1.2417 B(  2-C ,  6-C ) :   1.0163
B(  3-C ,  4-C ) :   1.5837 B(  3-C ,  5-H ) :   0.9935 B(  4-C , 20-C ) :   1.0346
B(  6-C ,  7-H ) :   0.9502 B(  6-C ,  8-H ) :   0.9426 B(  6-C ,  9-C ) :   1.0634
B(  9-C , 10-H ) :   0.9565 B(  9-C , 11-H ) :   0.9540 B(  9-C , 12-C ) :   1.0877
B( 12-C , 13-H ) :   0.9723 B( 12-C , 14-H ) :   0.9713 B( 12-C , 15-H ) :   0.9723
B( 16-S , 17-C ) :   1.1344 B( 16-S , 20-C ) :   1.1479 B( 17-C , 18-C ) :   1.6582
B( 17-C , 33-H ) :   0.9634 B( 18-C , 19-C ) :   1.2105 B( 18-C , 21-H ) :   0.9811
B( 19-C , 20-C ) :   1.5834 B( 19-C , 22-C ) :   1.0463 B( 22-C , 23-H ) :   0.9290
B( 22-C , 24-H ) :   0.9334 B( 22-C , 25-C ) :   1.0401 B( 25-C , 26-H ) :   0.9568
B( 25-C , 27-H ) :   0.9505 B( 25-C , 28-C ) :   1.0879 B( 28-C , 29-H ) :   0.9718
B( 28-C , 30-H ) :   0.9737 B( 28-C , 31-H ) :   0.9673

Dispersion correction           -0.013478194
FINAL SINGLE POINT ENERGY     -1339.868068789655

DIPOLE MOMENT
-------------
                                X             Y             Z
Electronic contribution:      2.92227     -30.73730       0.91354
Nuclear contribution   :     -2.84483      31.30678      -1.08477
                        -----------------------------------------
Total Dipole Moment    :      0.07743       0.56948      -0.17123
                        -----------------------------------------
Magnitude (a.u.)       :      0.59968
Magnitude (Debye)      :      1.52427

Rotational constants in cm-1:     0.017095     0.008530     0.006462
Rotational constants in MHz :   512.500386   255.715760   193.715376

                             ****ORCA TERMINATED NORMALLY****
TOTAL RUN TIME: 0 days 0 hours 0 minutes 27 seconds 579 msec
