                         Program Version 4.2.1 -  RELEASE  -
|  1> ! wB97X-D3 SP def2-SVP
|  2> %pal
|  3> nprocs 16
|  4> end
|  5>
|  6> * xyz 0 1
|  7> S 	 -63.5582 	 36.0492 	 117.193
|  8> C 	 -63.8132 	 34.511 	 118.043
|  9> C 	 -64.6125 	 34.7487 	 119.165
| 10> C 	 -65.1858 	 36.0458 	 119.193
| 11> C 	 -64.7073 	 36.8753 	 118.216
| 12> H 	 -65.8541 	 36.4463 	 119.911
| 13> C 	 -64.972 	 33.6124 	 120.202
| 14> H 	 -64.2108 	 33.5024 	 121.021
| 15> H 	 -64.8835 	 32.6109 	 119.752
| 16> C 	 -66.4389 	 33.805 	 120.753
| 17> H 	 -66.8856 	 32.9752 	 121.281
| 18> H 	 -66.382 	 34.5951 	 121.511
| 19> C 	 -67.5446 	 34.1531 	 119.692
| 20> H 	 -67.8834 	 35.1602 	 119.858
| 21> H 	 -67.1892 	 34.0675 	 118.666
| 22> H 	 -68.3576 	 33.4716 	 119.726
| 23> S 	 -63.5981 	 39.3665 	 118.577
| 24> C 	 -64.5614 	 40.7157 	 118.15
| 25> C 	 -65.8762 	 40.3644 	 117.907
| 26> C 	 -66.1136 	 38.9567 	 117.855
| 27> C 	 -64.9125 	 38.2433 	 118.084
| 28> H 	 -66.4505 	 41.135 	 117.485
| 29> C 	 -67.4991 	 38.3471 	 117.504
| 30> H 	 -68.1866 	 38.6914 	 118.25
| 31> H 	 -67.4914 	 37.2775 	 117.606
| 32> C 	 -68.0309 	 38.8805 	 116.215
| 33> H 	 -68.0102 	 39.9688 	 116.093
| 34> H 	 -69.0962 	 38.5577 	 116.314
| 35> C 	 -67.5305 	 38.3764 	 114.882
| 36> H 	 -67.5737 	 37.2442 	 114.885
| 37> H 	 -66.5124 	 38.8045 	 114.755
| 38> H 	 -68.1891 	 38.6885 	 114.09
| 39> H 	 -63.3319 	 33.6311 	 117.756
| 40> H 	 -64.223 	 41.7121 	 118.219
| 41> *
| 42>
| 43>                          ****END OF INPUT****

CARTESIAN COORDINATES (ANGSTROEM)
---------------------------------
  S    -63.558200   36.049200  117.193000
  C    -63.813200   34.511000  118.043000
  C    -64.612500   34.748700  119.165000
  C    -65.185800   36.045800  119.193000
  C    -64.707300   36.875300  118.216000
  H    -65.854100   36.446300  119.911000
  C    -64.972000   33.612400  120.202000
  H    -64.210800   33.502400  121.021000
  H    -64.883500   32.610900  119.752000
  C    -66.438900   33.805000  120.753000
  H    -66.885600   32.975200  121.281000
  H    -66.382000   34.595100  121.511000
  C    -67.544600   34.153100  119.692000
  H    -67.883400   35.160200  119.858000
  H    -67.189200   34.067500  118.666000
  H    -68.357600   33.471600  119.726000
  S    -63.598100   39.366500  118.577000
  C    -64.561400   40.715700  118.150000
  C    -65.876200   40.364400  117.907000
  C    -66.113600   38.956700  117.855000
  C    -64.912500   38.243300  118.084000
  H    -66.450500   41.135000  117.485000
  C    -67.499100   38.347100  117.504000
  H    -68.186600   38.691400  118.250000
  H    -67.491400   37.277500  117.606000
  C    -68.030900   38.880500  116.215000
  H    -68.010200   39.968800  116.093000
  H    -69.096200   38.557700  116.314000
  C    -67.530500   38.376400  114.882000
  H    -67.573700   37.244200  114.885000
  H    -66.512400   38.804500  114.755000
  H    -68.189100   38.688500  114.090000
  H    -63.331900   33.631100  117.756000
  H    -64.223000   41.712100  118.219000

 Total Charge           Charge          ....    0
 Multiplicity           Mult            ....    1
 Number of Electrons    NEL             ....  134
 Basis Dimension        Dim             ....  322

ORBITAL ENERGIES
----------------

  NO   OCC          E(Eh)            E(eV)
   0   2.0000     -88.963112     -2420.8094
   1   2.0000     -88.962196     -2420.7844
   2   2.0000     -10.321989      -280.8756
   3   2.0000     -10.319607      -280.8108
   4   2.0000     -10.314878      -280.6821
   5   2.0000     -10.311544      -280.5914
   6   2.0000     -10.308350      -280.5045
   7   2.0000     -10.307873      -280.4915
   8   2.0000     -10.304713      -280.4055
   9   2.0000     -10.291470      -280.0451
  10   2.0000     -10.290844      -280.0281
  11   2.0000     -10.290767      -280.0260
  12   2.0000     -10.287102      -279.9263
  13   2.0000     -10.282925      -279.8126
  14   2.0000     -10.276459      -279.6367
  15   2.0000     -10.273086      -279.5449
  16   2.0000      -8.078048      -219.8149
  17   2.0000      -8.076907      -219.7838
  18   2.0000      -6.036455      -164.2603
  19   2.0000      -6.035308      -164.2291
  20   2.0000      -6.032588      -164.1551
  21   2.0000      -6.031383      -164.1223
  22   2.0000      -6.028833      -164.0529
  23   2.0000      -6.027803      -164.0249
  24   2.0000      -1.006496       -27.3882
  25   2.0000      -0.980260       -26.6742
  26   2.0000      -0.914286       -24.8790
  27   2.0000      -0.901051       -24.5189
  28   2.0000      -0.873011       -23.7558
  29   2.0000      -0.847528       -23.0624
  30   2.0000      -0.838844       -22.8261
  31   2.0000      -0.813586       -22.1388
  32   2.0000      -0.791114       -21.5273
  33   2.0000      -0.774362       -21.0715
  34   2.0000      -0.711380       -19.3576
  35   2.0000      -0.695208       -18.9176
  36   2.0000      -0.688448       -18.7336
  37   2.0000      -0.650694       -17.7063
  38   2.0000      -0.648607       -17.6495
  39   2.0000      -0.623799       -16.9744
  40   2.0000      -0.605451       -16.4751
  41   2.0000      -0.561681       -15.2841
  42   2.0000      -0.553039       -15.0490
  43   2.0000      -0.546149       -14.8615
  44   2.0000      -0.540974       -14.7207
  45   2.0000      -0.536987       -14.6122
  46   2.0000      -0.526428       -14.3248
  47   2.0000      -0.516681       -14.0596
  48   2.0000      -0.503320       -13.6960
  49   2.0000      -0.498402       -13.5622
  50   2.0000      -0.487573       -13.2675
  51   2.0000      -0.479581       -13.0501
  52   2.0000      -0.474087       -12.9006
  53   2.0000      -0.466946       -12.7062
  54   2.0000      -0.455227       -12.3873
  55   2.0000      -0.446280       -12.1439
  56   2.0000      -0.440998       -12.0002
  57   2.0000      -0.437856       -11.9147
  58   2.0000      -0.434219       -11.8157
  59   2.0000      -0.420784       -11.4501
  60   2.0000      -0.416690       -11.3387
  61   2.0000      -0.411896       -11.2082
  62   2.0000      -0.400870       -10.9082
  63   2.0000      -0.339212        -9.2304
  64   2.0000      -0.330380        -8.9901
  65   2.0000      -0.326776        -8.8920
  66   2.0000      -0.295287        -8.0352
  67   0.0000       0.032369         0.8808
  68   0.0000       0.060190         1.6379
  69   0.0000       0.112146         3.0516
  70   0.0000       0.125257         3.4084
  71   0.0000       0.128011         3.4834

MULLIKEN ATOMIC CHARGES
-----------------------
   0 S :    0.104561
   1 C :   -0.104490
   2 C :   -0.079981
   3 C :    0.061688
   4 C :   -0.185842
   5 H :   -0.001681
   6 C :    0.068008
   7 H :    0.050017
   8 H :    0.024392
   9 C :   -0.117314
  10 H :    0.030772
  11 H :    0.034245
  12 C :   -0.045633
  13 H :    0.027625
  14 H :    0.044311
  15 H :    0.024395
  16 S :    0.111821
  17 C :   -0.081665
  18 C :   -0.032633
  19 C :   -0.040537
  20 C :   -0.173360
  21 H :    0.010351
  22 C :    0.159618
  23 H :    0.023112
  24 H :    0.020298
  25 C :   -0.142425
  26 H :    0.033807
  27 H :    0.023462
  28 C :   -0.035316
  29 H :    0.033268
  30 H :    0.046206
  31 H :    0.033148
  32 H :    0.031337
  33 H :    0.044437
Sum of atomic charges:   -0.0000000

LOEWDIN ATOMIC CHARGES
----------------------
   0 S :    0.400682
   1 C :   -0.177310
   2 C :   -0.057411
   3 C :   -0.051326
   4 C :   -0.202311
   5 H :    0.028755
   6 C :   -0.033105
   7 H :    0.037807
   8 H :    0.028049
   9 C :   -0.048460
  10 H :    0.025132
  11 H :    0.022013
  12 C :   -0.064570
  13 H :    0.021733
  14 H :    0.029597
  15 H :    0.019952
  16 S :    0.402950
  17 C :   -0.181512
  18 C :   -0.078485
  19 C :   -0.042054
  20 C :   -0.200580
  21 H :    0.022653
  22 C :   -0.022340
  23 H :    0.035692
  24 H :    0.029387
  25 C :   -0.052201
  26 H :    0.024744
  27 H :    0.026779
  28 C :   -0.065525
  29 H :    0.029225
  30 H :    0.030880
  31 H :    0.024280
  32 H :    0.015821
  33 H :    0.021059

  Mayer bond orders larger than 0.100000
B(  0-S ,  1-C ) :   1.1425 B(  0-S ,  4-C ) :   1.1488 B(  1-C ,  2-C ) :   1.5972
B(  1-C ,  4-C ) :   0.1053 B(  1-C , 32-H ) :   0.9842 B(  2-C ,  3-C ) :   1.2385
B(  2-C ,  6-C ) :   0.9979 B(  3-C ,  4-C ) :   1.5738 B(  3-C ,  5-H ) :   1.0010
B(  4-C , 20-C ) :   1.0693 B(  6-C ,  7-H ) :   0.9461 B(  6-C ,  8-H ) :   0.9521
B(  6-C ,  9-C ) :   1.0564 B(  9-C , 10-H ) :   0.9679 B(  9-C , 11-H ) :   0.9629
B(  9-C , 12-C ) :   1.0543 B( 12-C , 13-H ) :   0.9784 B( 12-C , 14-H ) :   0.9774
B( 12-C , 15-H ) :   0.9799 B( 16-S , 17-C ) :   1.1658 B( 16-S , 20-C ) :   1.1334
B( 17-C , 18-C ) :   1.6193 B( 17-C , 20-C ) :   0.1044 B( 17-C , 33-H ) :   0.9700
B( 18-C , 19-C ) :   1.2320 B( 18-C , 21-H ) :   0.9874 B( 19-C , 20-C ) :   1.5831
B( 19-C , 22-C ) :   1.0348 B( 22-C , 23-H ) :   0.9244 B( 22-C , 24-H ) :   0.9306
B( 22-C , 25-C ) :   1.0717 B( 25-C , 26-H ) :   0.9573 B( 25-C , 27-H ) :   0.9507
B( 25-C , 28-C ) :   1.0853 B( 28-C , 29-H ) :   0.9726 B( 28-C , 30-H ) :   0.9737
B( 28-C , 31-H ) :   0.9716

Dispersion correction           -0.015244073
FINAL SINGLE POINT ENERGY     -1339.862706998767

DIPOLE MOMENT
-------------
                                X             Y             Z
Electronic contribution:     22.84567       9.13744       0.04203
Nuclear contribution   :    -23.41768      -9.29036       0.15274
                        -----------------------------------------
Total Dipole Moment    :     -0.57201      -0.15292       0.19477
                        -----------------------------------------
Magnitude (a.u.)       :      0.62331
Magnitude (Debye)      :      1.58433

Rotational constants in cm-1:     0.018156     0.009449     0.007959
Rotational constants in MHz :   544.298735   283.263469   238.589835

                             ****ORCA TERMINATED NORMALLY****
TOTAL RUN TIME: 0 days 0 hours 0 minutes 33 seconds 289 msec
