                         Program Version 4.2.1 -  RELEASE  -
|  1> ! wB97X-D3 SP def2-SVP
|  2> %pal
|  3> nprocs 16
|  4> end
|  5>
|  6> * xyz 0 1
|  7> S 	 -101.269 	 44.4939 	 123.598
|  8> C 	 -102.58 	 44.6294 	 124.61
|  9> C 	 -103.702 	 45.0559 	 123.989
| 10> C 	 -103.513 	 45.2177 	 122.585
| 11> C 	 -102.222 	 44.841 	 122.188
| 12> H 	 -104.26 	 45.5507 	 121.839
| 13> C 	 -104.948 	 45.2438 	 124.776
| 14> H 	 -105.003 	 44.5948 	 125.613
| 15> H 	 -105.797 	 44.9529 	 124.095
| 16> C 	 -105.27 	 46.6931 	 125.174
| 17> H 	 -104.408 	 47.0824 	 125.699
| 18> H 	 -105.266 	 47.3644 	 124.305
| 19> C 	 -106.517 	 46.8153 	 126.069
| 20> H 	 -106.324 	 47.8454 	 126.556
| 21> H 	 -107.544 	 46.8352 	 125.57
| 22> H 	 -106.507 	 46.1632 	 126.922
| 23> S 	 -100.109 	 45.6563 	 120.614
| 24> C 	 -100.125 	 45.4879 	 118.919
| 25> C 	 -101.266 	 44.8123 	 118.506
| 26> C 	 -102.153 	 44.4583 	 119.665
| 27> C 	 -101.654 	 44.9258 	 120.886
| 28> H 	 -101.442 	 44.6477 	 117.494
| 29> C 	 -103.44 	 43.6451 	 119.506
| 30> H 	 -103.906 	 43.5619 	 120.478
| 31> H 	 -103.171 	 42.6789 	 119.065
| 32> C 	 -104.432 	 44.1918 	 118.572
| 33> H 	 -105.285 	 43.5414 	 118.416
| 34> H 	 -104.062 	 44.3298 	 117.516
| 35> C 	 -105.113 	 45.5344 	 119.014
| 36> H 	 -105.507 	 45.4953 	 120.02
| 37> H 	 -105.94 	 45.991 	 118.449
| 38> H 	 -104.274 	 46.222 	 119.015
| 39> H 	 -102.501 	 44.3689 	 125.667
| 40> H 	 -99.297 	 45.6071 	 118.237
| 41> *
| 42>
| 43>                          ****END OF INPUT****

CARTESIAN COORDINATES (ANGSTROEM)
---------------------------------
  S    -101.269000   44.493900  123.598000
  C    -102.580000   44.629400  124.610000
  C    -103.702000   45.055900  123.989000
  C    -103.513000   45.217700  122.585000
  C    -102.222000   44.841000  122.188000
  H    -104.260000   45.550700  121.839000
  C    -104.948000   45.243800  124.776000
  H    -105.003000   44.594800  125.613000
  H    -105.797000   44.952900  124.095000
  C    -105.270000   46.693100  125.174000
  H    -104.408000   47.082400  125.699000
  H    -105.266000   47.364400  124.305000
  C    -106.517000   46.815300  126.069000
  H    -106.324000   47.845400  126.556000
  H    -107.544000   46.835200  125.570000
  H    -106.507000   46.163200  126.922000
  S    -100.109000   45.656300  120.614000
  C    -100.125000   45.487900  118.919000
  C    -101.266000   44.812300  118.506000
  C    -102.153000   44.458300  119.665000
  C    -101.654000   44.925800  120.886000
  H    -101.442000   44.647700  117.494000
  C    -103.440000   43.645100  119.506000
  H    -103.906000   43.561900  120.478000
  H    -103.171000   42.678900  119.065000
  C    -104.432000   44.191800  118.572000
  H    -105.285000   43.541400  118.416000
  H    -104.062000   44.329800  117.516000
  C    -105.113000   45.534400  119.014000
  H    -105.507000   45.495300  120.020000
  H    -105.940000   45.991000  118.449000
  H    -104.274000   46.222000  119.015000
  H    -102.501000   44.368900  125.667000
  H    -99.297000   45.607100  118.237000

 Total Charge           Charge          ....    0
 Multiplicity           Mult            ....    1
 Number of Electrons    NEL             ....  134
 Basis Dimension        Dim             ....  322

ORBITAL ENERGIES
----------------

  NO   OCC          E(Eh)            E(eV)
   0   2.0000     -88.965303     -2420.8690
   1   2.0000     -88.963066     -2420.8081
   2   2.0000     -10.328080      -281.0413
   3   2.0000     -10.324715      -280.9498
   4   2.0000     -10.315719      -280.7050
   5   2.0000     -10.309440      -280.5341
   6   2.0000     -10.305144      -280.4172
   7   2.0000     -10.300532      -280.2917
   8   2.0000     -10.296072      -280.1704
   9   2.0000     -10.294913      -280.1388
  10   2.0000     -10.290239      -280.0116
  11   2.0000     -10.288947      -279.9765
  12   2.0000     -10.287751      -279.9439
  13   2.0000     -10.287107      -279.9264
  14   2.0000     -10.286606      -279.9128
  15   2.0000     -10.275025      -279.5976
  16   2.0000      -8.082223      -219.9285
  17   2.0000      -8.078990      -219.8405
  18   2.0000      -6.040448      -164.3690
  19   2.0000      -6.037546      -164.2900
  20   2.0000      -6.036374      -164.2581
  21   2.0000      -6.033201      -164.1717
  22   2.0000      -6.033192      -164.1715
  23   2.0000      -6.029748      -164.0778
  24   2.0000      -1.017676       -27.6924
  25   2.0000      -0.991435       -26.9783
  26   2.0000      -0.915055       -24.8999
  27   2.0000      -0.914177       -24.8760
  28   2.0000      -0.877553       -23.8794
  29   2.0000      -0.853647       -23.2289
  30   2.0000      -0.838614       -22.8198
  31   2.0000      -0.818997       -22.2860
  32   2.0000      -0.784463       -21.3463
  33   2.0000      -0.772171       -21.0118
  34   2.0000      -0.711921       -19.3723
  35   2.0000      -0.697438       -18.9782
  36   2.0000      -0.695055       -18.9134
  37   2.0000      -0.660514       -17.9735
  38   2.0000      -0.644420       -17.5356
  39   2.0000      -0.623530       -16.9671
  40   2.0000      -0.595285       -16.1985
  41   2.0000      -0.573746       -15.6124
  42   2.0000      -0.560806       -15.2603
  43   2.0000      -0.556013       -15.1299
  44   2.0000      -0.545967       -14.8565
  45   2.0000      -0.522809       -14.2264
  46   2.0000      -0.517925       -14.0935
  47   2.0000      -0.513312       -13.9679
  48   2.0000      -0.508746       -13.8437
  49   2.0000      -0.506971       -13.7954
  50   2.0000      -0.492922       -13.4131
  51   2.0000      -0.479541       -13.0490
  52   2.0000      -0.470855       -12.8126
  53   2.0000      -0.469455       -12.7745
  54   2.0000      -0.460936       -12.5427
  55   2.0000      -0.452806       -12.3215
  56   2.0000      -0.450639       -12.2625
  57   2.0000      -0.443204       -12.0602
  58   2.0000      -0.430355       -11.7106
  59   2.0000      -0.421457       -11.4684
  60   2.0000      -0.416984       -11.3467
  61   2.0000      -0.412002       -11.2111
  62   2.0000      -0.400180       -10.8895
  63   2.0000      -0.356270        -9.6946
  64   2.0000      -0.330448        -8.9920
  65   2.0000      -0.324129        -8.8200
  66   2.0000      -0.291348        -7.9280
  67   0.0000       0.030924         0.8415
  68   0.0000       0.077509         2.1091
  69   0.0000       0.116023         3.1571
  70   0.0000       0.121475         3.3055
  71   0.0000       0.128068         3.4849

MULLIKEN ATOMIC CHARGES
-----------------------
   0 S :    0.128759
   1 C :   -0.124711
   2 C :   -0.073507
   3 C :    0.036992
   4 C :   -0.183041
   5 H :    0.004811
   6 C :    0.074125
   7 H :    0.010028
   8 H :    0.021561
   9 C :   -0.072266
  10 H :    0.015515
  11 H :    0.027436
  12 C :   -0.068383
  13 H :    0.038746
  14 H :    0.058710
  15 H :    0.029675
  16 S :    0.110186
  17 C :   -0.082418
  18 C :   -0.025230
  19 C :   -0.087896
  20 C :   -0.127015
  21 H :    0.000858
  22 C :    0.133994
  23 H :    0.021336
  24 H :    0.037977
  25 C :   -0.103013
  26 H :    0.025812
  27 H :    0.032187
  28 C :   -0.081904
  29 H :    0.028252
  30 H :    0.039535
  31 H :    0.036871
  32 H :    0.052431
  33 H :    0.063585
Sum of atomic charges:    0.0000000

LOEWDIN ATOMIC CHARGES
----------------------
   0 S :    0.450020
   1 C :   -0.218721
   2 C :   -0.073398
   3 C :   -0.057232
   4 C :   -0.201362
   5 H :    0.034977
   6 C :   -0.033285
   7 H :    0.022766
   8 H :    0.033699
   9 C :   -0.044782
  10 H :    0.020680
  11 H :    0.027068
  12 C :   -0.076580
  13 H :    0.039860
  14 H :    0.034960
  15 H :    0.020419
  16 S :    0.426783
  17 C :   -0.201486
  18 C :   -0.065005
  19 C :   -0.050459
  20 C :   -0.213714
  21 H :    0.018176
  22 C :   -0.030420
  23 H :    0.031166
  24 H :    0.041481
  25 C :   -0.045772
  26 H :    0.021684
  27 H :    0.025904
  28 C :   -0.074807
  29 H :    0.016542
  30 H :    0.029540
  31 H :    0.024714
  32 H :    0.031703
  33 H :    0.034883

  Mayer bond orders larger than 0.100000
B(  0-S ,  1-C ) :   1.1656 B(  0-S ,  4-C ) :   1.1717 B(  1-C ,  2-C ) :   1.5824
B(  1-C , 32-H ) :   0.9667 B(  2-C ,  3-C ) :   1.2680 B(  2-C ,  6-C ) :   1.0323
B(  3-C ,  4-C ) :   1.5226 B(  3-C ,  5-H ) :   0.9890 B(  4-C , 20-C ) :   1.0790
B(  6-C ,  7-H ) :   0.9424 B(  6-C ,  8-H ) :   0.9346 B(  6-C ,  9-C ) :   1.0610
B(  9-C , 10-H ) :   0.9555 B(  9-C , 11-H ) :   0.9524 B(  9-C , 12-C ) :   1.0744
B( 12-C , 13-H ) :   0.9745 B( 12-C , 14-H ) :   0.9753 B( 12-C , 15-H ) :   0.9729
B( 16-S , 17-C ) :   1.1640 B( 16-S , 20-C ) :   1.1344 B( 17-C , 18-C ) :   1.6138
B( 17-C , 33-H ) :   0.9648 B( 18-C , 19-C ) :   1.2182 B( 18-C , 21-H ) :   0.9995
B( 19-C , 20-C ) :   1.5787 B( 19-C , 22-C ) :   1.0500 B( 22-C , 23-H ) :   0.9298
B( 22-C , 24-H ) :   0.9230 B( 22-C , 25-C ) :   1.0818 B( 25-C , 26-H ) :   0.9548
B( 25-C , 27-H ) :   0.9535 B( 25-C , 28-C ) :   1.0581 B( 28-C , 29-H ) :   0.9669
B( 28-C , 30-H ) :   0.9729 B( 28-C , 31-H ) :   0.9792

Dispersion correction           -0.014509304
FINAL SINGLE POINT ENERGY     -1339.877440772390

DIPOLE MOMENT
-------------
                                X             Y             Z
Electronic contribution:     28.66405      -4.45299      -1.52809
Nuclear contribution   :    -29.17006       4.36710       1.48664
                        -----------------------------------------
Total Dipole Moment    :     -0.50601      -0.08589      -0.04145
                        -----------------------------------------
Magnitude (a.u.)       :      0.51492
Magnitude (Debye)      :      1.30882

Rotational constants in cm-1:     0.020156     0.008378     0.006559
Rotational constants in MHz :   604.265434   251.166351   196.626872

                             ****ORCA TERMINATED NORMALLY****
TOTAL RUN TIME: 0 days 0 hours 0 minutes 34 seconds 495 msec
