                         Program Version 4.2.1 -  RELEASE  -
|  1> ! wB97X-D3 SP def2-SVP
|  2> %pal
|  3> nprocs 16
|  4> end
|  5>
|  6> * xyz 0 1
|  7> S 	 -14.9159 	 38.4515 	 33.4366
|  8> C 	 -16.4792 	 38.0572 	 32.6702
|  9> C 	 -16.5862 	 38.6673 	 31.4489
| 10> C 	 -15.4009 	 39.453 	 31.0831
| 11> C 	 -14.465 	 39.4419 	 32.0258
| 12> H 	 -15.3711 	 39.8933 	 30.0926
| 13> C 	 -17.8391 	 38.3823 	 30.4919
| 14> H 	 -18.2646 	 39.3043 	 30.1357
| 15> H 	 -18.6162 	 38.1291 	 31.2442
| 16> C 	 -17.7246 	 37.3268 	 29.347
| 17> H 	 -18.6833 	 37.1097 	 28.93
| 18> H 	 -17.178 	 37.9023 	 28.5769
| 19> C 	 -17.164 	 35.9479 	 29.6676
| 20> H 	 -17.2015 	 35.2808 	 28.838
| 21> H 	 -16.0659 	 36.0722 	 29.8471
| 22> H 	 -17.5144 	 35.5494 	 30.5889
| 23> S 	 -11.7828 	 39.6138 	 32.4077
| 24> C 	 -11.0329 	 41.0975 	 32.1441
| 25> C 	 -11.925 	 42.0797 	 31.6737
| 26> C 	 -13.2278 	 41.5978 	 31.5098
| 27> C 	 -13.3302 	 40.3212 	 32.0191
| 28> H 	 -11.4922 	 43.0389 	 31.4781
| 29> C 	 -14.3437 	 42.4799 	 31.0082
| 30> H 	 -14.2436 	 43.5206 	 31.4494
| 31> H 	 -15.2143 	 42.0754 	 31.3919
| 32> C 	 -14.3978 	 42.6636 	 29.4368
| 33> H 	 -15.3038 	 43.2455 	 29.1186
| 34> H 	 -14.539 	 41.6705 	 28.9883
| 35> C 	 -13.1783 	 43.468 	 28.8678
| 36> H 	 -12.2984 	 42.9657 	 29.1041
| 37> H 	 -13.1642 	 44.5206 	 29.1977
| 38> H 	 -13.1998 	 43.4682 	 27.759
| 39> H 	 -17.2441 	 37.3968 	 33.0091
| 40> H 	 -10.0095 	 41.3319 	 32.4694
| 41> *
| 42>
| 43>                          ****END OF INPUT****

CARTESIAN COORDINATES (ANGSTROEM)
---------------------------------
  S    -14.915900   38.451500   33.436600
  C    -16.479200   38.057200   32.670200
  C    -16.586200   38.667300   31.448900
  C    -15.400900   39.453000   31.083100
  C    -14.465000   39.441900   32.025800
  H    -15.371100   39.893300   30.092600
  C    -17.839100   38.382300   30.491900
  H    -18.264600   39.304300   30.135700
  H    -18.616200   38.129100   31.244200
  C    -17.724600   37.326800   29.347000
  H    -18.683300   37.109700   28.930000
  H    -17.178000   37.902300   28.576900
  C    -17.164000   35.947900   29.667600
  H    -17.201500   35.280800   28.838000
  H    -16.065900   36.072200   29.847100
  H    -17.514400   35.549400   30.588900
  S    -11.782800   39.613800   32.407700
  C    -11.032900   41.097500   32.144100
  C    -11.925000   42.079700   31.673700
  C    -13.227800   41.597800   31.509800
  C    -13.330200   40.321200   32.019100
  H    -11.492200   43.038900   31.478100
  C    -14.343700   42.479900   31.008200
  H    -14.243600   43.520600   31.449400
  H    -15.214300   42.075400   31.391900
  C    -14.397800   42.663600   29.436800
  H    -15.303800   43.245500   29.118600
  H    -14.539000   41.670500   28.988300
  C    -13.178300   43.468000   28.867800
  H    -12.298400   42.965700   29.104100
  H    -13.164200   44.520600   29.197700
  H    -13.199800   43.468200   27.759000
  H    -17.244100   37.396800   33.009100
  H    -10.009500   41.331900   32.469400

 Total Charge           Charge          ....    0
 Multiplicity           Mult            ....    1
 Number of Electrons    NEL             ....  134
 Basis Dimension        Dim             ....  322

ORBITAL ENERGIES
----------------

  NO   OCC          E(Eh)            E(eV)
   0   2.0000     -88.967054     -2420.9166
   1   2.0000     -88.965623     -2420.8777
   2   2.0000     -10.324579      -280.9461
   3   2.0000     -10.320665      -280.8396
   4   2.0000     -10.314330      -280.6672
   5   2.0000     -10.313735      -280.6510
   6   2.0000     -10.304956      -280.4121
   7   2.0000     -10.301357      -280.3142
   8   2.0000     -10.299754      -280.2706
   9   2.0000     -10.298178      -280.2277
  10   2.0000     -10.292441      -280.0716
  11   2.0000     -10.291845      -280.0553
  12   2.0000     -10.290099      -280.0078
  13   2.0000     -10.289521      -279.9921
  14   2.0000     -10.279123      -279.7091
  15   2.0000     -10.273857      -279.5659
  16   2.0000      -8.083200      -219.9551
  17   2.0000      -8.079465      -219.8534
  18   2.0000      -6.041397      -164.3948
  19   2.0000      -6.038257      -164.3093
  20   2.0000      -6.037524      -164.2894
  21   2.0000      -6.034275      -164.2010
  22   2.0000      -6.034214      -164.1993
  23   2.0000      -6.029794      -164.0790
  24   2.0000      -1.013576       -27.5808
  25   2.0000      -0.983295       -26.7568
  26   2.0000      -0.906835       -24.6762
  27   2.0000      -0.902169       -24.5493
  28   2.0000      -0.871913       -23.7260
  29   2.0000      -0.852800       -23.2059
  30   2.0000      -0.840867       -22.8812
  31   2.0000      -0.814081       -22.1523
  32   2.0000      -0.788540       -21.4573
  33   2.0000      -0.776016       -21.1165
  34   2.0000      -0.709354       -19.3025
  35   2.0000      -0.698000       -18.9935
  36   2.0000      -0.693607       -18.8740
  37   2.0000      -0.664260       -18.0754
  38   2.0000      -0.634670       -17.2702
  39   2.0000      -0.622972       -16.9519
  40   2.0000      -0.592725       -16.1289
  41   2.0000      -0.563460       -15.3325
  42   2.0000      -0.552921       -15.0458
  43   2.0000      -0.550789       -14.9877
  44   2.0000      -0.546304       -14.8657
  45   2.0000      -0.543585       -14.7917
  46   2.0000      -0.518110       -14.0985
  47   2.0000      -0.505166       -13.7463
  48   2.0000      -0.502956       -13.6861
  49   2.0000      -0.497083       -13.5263
  50   2.0000      -0.486624       -13.2417
  51   2.0000      -0.478370       -13.0171
  52   2.0000      -0.473777       -12.8921
  53   2.0000      -0.464893       -12.6504
  54   2.0000      -0.458255       -12.4698
  55   2.0000      -0.447759       -12.1842
  56   2.0000      -0.446636       -12.1536
  57   2.0000      -0.437080       -11.8936
  58   2.0000      -0.432922       -11.7804
  59   2.0000      -0.430500       -11.7145
  60   2.0000      -0.420929       -11.4541
  61   2.0000      -0.418481       -11.3875
  62   2.0000      -0.403441       -10.9782
  63   2.0000      -0.350450        -9.5362
  64   2.0000      -0.336352        -9.1526
  65   2.0000      -0.331067        -9.0088
  66   2.0000      -0.292243        -7.9523
  67   0.0000       0.028638         0.7793
  68   0.0000       0.076452         2.0804
  69   0.0000       0.109488         2.9793
  70   0.0000       0.120120         3.2686
  71   0.0000       0.128874         3.5068

MULLIKEN ATOMIC CHARGES
-----------------------
   0 S :    0.096542
   1 C :   -0.101033
   2 C :   -0.125384
   3 C :    0.000270
   4 C :   -0.083055
   5 H :    0.005599
   6 C :    0.049901
   7 H :    0.022207
   8 H :    0.012890
   9 C :   -0.058295
  10 H :    0.025608
  11 H :    0.029670
  12 C :   -0.028836
  13 H :    0.033635
  14 H :    0.033473
  15 H :    0.024419
  16 S :    0.126878
  17 C :   -0.103925
  18 C :   -0.050166
  19 C :   -0.013258
  20 C :   -0.164387
  21 H :    0.011754
  22 C :    0.073165
  23 H :    0.035764
  24 H :    0.014728
  25 C :   -0.090083
  26 H :    0.038140
  27 H :    0.032177
  28 C :   -0.048957
  29 H :    0.027230
  30 H :    0.039440
  31 H :    0.034268
  32 H :    0.036330
  33 H :    0.063288
Sum of atomic charges:    0.0000000

LOEWDIN ATOMIC CHARGES
----------------------
   0 S :    0.367236
   1 C :   -0.181612
   2 C :   -0.059699
   3 C :   -0.064393
   4 C :   -0.182664
   5 H :    0.032678
   6 C :   -0.034125
   7 H :    0.026635
   8 H :    0.028332
   9 C :   -0.041689
  10 H :    0.022430
  11 H :    0.026428
  12 C :   -0.063564
  13 H :    0.024930
  14 H :    0.033276
  15 H :    0.021101
  16 S :    0.440806
  17 C :   -0.210348
  18 C :   -0.070366
  19 C :   -0.051885
  20 C :   -0.200188
  21 H :    0.028260
  22 C :   -0.025694
  23 H :    0.038600
  24 H :    0.018730
  25 C :   -0.037014
  26 H :    0.028451
  27 H :    0.019253
  28 C :   -0.064966
  29 H :    0.014256
  30 H :    0.028888
  31 H :    0.031125
  32 H :    0.025064
  33 H :    0.031730

  Mayer bond orders larger than 0.100000
B(  0-S ,  1-C ) :   1.1032 B(  0-S ,  4-C ) :   1.1141 B(  1-C ,  2-C ) :   1.6793
B(  1-C , 32-H ) :   0.9654 B(  2-C ,  3-C ) :   1.1959 B(  2-C ,  6-C ) :   1.0075
B(  3-C ,  4-C ) :   1.6062 B(  3-C ,  5-H ) :   1.0028 B(  4-C , 20-C ) :   1.0296
B(  6-C ,  7-H ) :   0.9457 B(  6-C ,  8-H ) :   0.9411 B(  6-C ,  9-C ) :   1.0601
B(  9-C , 10-H ) :   0.9554 B(  9-C , 11-H ) :   0.9585 B(  9-C , 12-C ) :   1.0772
B( 12-C , 13-H ) :   0.9741 B( 12-C , 14-H ) :   0.9701 B( 12-C , 15-H ) :   0.9753
B( 16-S , 17-C ) :   1.1855 B( 16-S , 20-C ) :   1.1579 B( 17-C , 18-C ) :   1.5773
B( 17-C , 20-C ) :   0.1053 B( 17-C , 33-H ) :   0.9623 B( 18-C , 19-C ) :   1.2498
B( 18-C , 21-H ) :   0.9971 B( 19-C , 20-C ) :   1.5773 B( 19-C , 22-C ) :   1.0318
B( 22-C , 23-H ) :   0.9425 B( 22-C , 24-H ) :   0.9282 B( 22-C , 25-C ) :   1.0632
B( 25-C , 26-H ) :   0.9587 B( 25-C , 27-H ) :   0.9525 B( 25-C , 28-C ) :   1.0747
B( 28-C , 29-H ) :   0.9737 B( 28-C , 30-H ) :   0.9757 B( 28-C , 31-H ) :   0.9716

Dispersion correction           -0.014941299
FINAL SINGLE POINT ENERGY     -1339.871135284143

DIPOLE MOMENT
-------------
                                X             Y             Z
Electronic contribution:     14.14358      -5.28562      21.11188
Nuclear contribution   :    -14.43147       5.58462     -21.64132
                        -----------------------------------------
Total Dipole Moment    :     -0.28789       0.29900      -0.52943
                        -----------------------------------------
Magnitude (a.u.)       :      0.67274
Magnitude (Debye)      :      1.70997

Rotational constants in cm-1:     0.019222     0.008839     0.006881
Rotational constants in MHz :   576.270185   265.001166   206.274391

                             ****ORCA TERMINATED NORMALLY****
TOTAL RUN TIME: 0 days 0 hours 0 minutes 34 seconds 191 msec
