                         Program Version 4.2.1 -  RELEASE  -
|  1> ! wB97X-D3 SP def2-SVP
|  2> %pal
|  3> nprocs 16
|  4> end
|  5>
|  6> * xyz 0 1
|  7> S 	 -8.84563 	 -4.19202 	 87.4449
|  8> C 	 -8.6458 	 -4.25429 	 89.1808
|  9> C 	 -9.68463 	 -4.83205 	 89.8392
| 10> C 	 -10.7162 	 -5.30446 	 88.9427
| 11> C 	 -10.3303 	 -5.08984 	 87.6258
| 12> H 	 -11.7032 	 -5.76951 	 89.2425
| 13> C 	 -9.8465 	 -5.01783 	 91.3206
| 14> H 	 -10.6748 	 -5.67585 	 91.5318
| 15> H 	 -10.0876 	 -4.04862 	 91.7245
| 16> C 	 -8.61994 	 -5.50021 	 92.0412
| 17> H 	 -7.97824 	 -6.03245 	 91.3288
| 18> H 	 -8.01077 	 -4.67176 	 92.4632
| 19> C 	 -8.92122 	 -6.43665 	 93.2349
| 20> H 	 -9.39715 	 -7.22222 	 92.8162
| 21> H 	 -8.09483 	 -6.79977 	 93.8035
| 22> H 	 -9.69361 	 -6.03415 	 93.8873
| 23> S 	 -11.814 	 -4.14855 	 85.456
| 24> C 	 -12.3986 	 -5.28535 	 84.2544
| 25> C 	 -12.0139 	 -6.58206 	 84.5568
| 26> C 	 -11.2586 	 -6.64885 	 85.7143
| 27> C 	 -11.0528 	 -5.4035 	 86.3767
| 28> H 	 -12.2693 	 -7.40979 	 83.9647
| 29> C 	 -10.8695 	 -8.02592 	 86.2206
| 30> H 	 -11.7541 	 -8.661 	 86.1746
| 31> H 	 -10.5582 	 -7.90072 	 87.1923
| 32> C 	 -9.72386 	 -8.71495 	 85.4353
| 33> H 	 -8.88886 	 -8.00028 	 85.4743
| 34> H 	 -9.93991 	 -8.63107 	 84.3917
| 35> C 	 -9.37732 	 -10.1912 	 85.6932
| 36> H 	 -10.1965 	 -10.8041 	 85.4587
| 37> H 	 -8.99793 	 -10.269 	 86.7171
| 38> H 	 -8.49001 	 -10.3873 	 85.0371
| 39> H 	 -7.84583 	 -3.77244 	 89.6195
| 40> H 	 -12.9679 	 -5.1173 	 83.3378
| 41> *
| 42>
| 43>                          ****END OF INPUT****

CARTESIAN COORDINATES (ANGSTROEM)
---------------------------------
  S     -8.845630   -4.192020   87.444900
  C     -8.645800   -4.254290   89.180800
  C     -9.684630   -4.832050   89.839200
  C    -10.716200   -5.304460   88.942700
  C    -10.330300   -5.089840   87.625800
  H    -11.703200   -5.769510   89.242500
  C     -9.846500   -5.017830   91.320600
  H    -10.674800   -5.675850   91.531800
  H    -10.087600   -4.048620   91.724500
  C     -8.619940   -5.500210   92.041200
  H     -7.978240   -6.032450   91.328800
  H     -8.010770   -4.671760   92.463200
  C     -8.921220   -6.436650   93.234900
  H     -9.397150   -7.222220   92.816200
  H     -8.094830   -6.799770   93.803500
  H     -9.693610   -6.034150   93.887300
  S    -11.814000   -4.148550   85.456000
  C    -12.398600   -5.285350   84.254400
  C    -12.013900   -6.582060   84.556800
  C    -11.258600   -6.648850   85.714300
  C    -11.052800   -5.403500   86.376700
  H    -12.269300   -7.409790   83.964700
  C    -10.869500   -8.025920   86.220600
  H    -11.754100   -8.661000   86.174600
  H    -10.558200   -7.900720   87.192300
  C     -9.723860   -8.714950   85.435300
  H     -8.888860   -8.000280   85.474300
  H     -9.939910   -8.631070   84.391700
  C     -9.377320  -10.191200   85.693200
  H    -10.196500  -10.804100   85.458700
  H     -8.997930  -10.269000   86.717100
  H     -8.490010  -10.387300   85.037100
  H     -7.845830   -3.772440   89.619500
  H    -12.967900   -5.117300   83.337800

 Total Charge           Charge          ....    0
 Multiplicity           Mult            ....    1
 Number of Electrons    NEL             ....  134
 Basis Dimension        Dim             ....  322

ORBITAL ENERGIES
----------------

  NO   OCC          E(Eh)            E(eV)
   0   2.0000     -88.968688     -2420.9611
   1   2.0000     -88.966260     -2420.8950
   2   2.0000     -10.331053      -281.1222
   3   2.0000     -10.325353      -280.9671
   4   2.0000     -10.316320      -280.7213
   5   2.0000     -10.305754      -280.4338
   6   2.0000     -10.303175      -280.3637
   7   2.0000     -10.300230      -280.2835
   8   2.0000     -10.296930      -280.1937
   9   2.0000     -10.287590      -279.9396
  10   2.0000     -10.285740      -279.8892
  11   2.0000     -10.282934      -279.8129
  12   2.0000     -10.278440      -279.6906
  13   2.0000     -10.278400      -279.6895
  14   2.0000     -10.277858      -279.6747
  15   2.0000     -10.267530      -279.3937
  16   2.0000      -8.083109      -219.9526
  17   2.0000      -8.081411      -219.9064
  18   2.0000      -6.041554      -164.3991
  19   2.0000      -6.039767      -164.3504
  20   2.0000      -6.037486      -164.2883
  21   2.0000      -6.036014      -164.2483
  22   2.0000      -6.034129      -164.1970
  23   2.0000      -6.032152      -164.1432
  24   2.0000      -1.006200       -27.3801
  25   2.0000      -0.985825       -26.8257
  26   2.0000      -0.918348       -24.9895
  27   2.0000      -0.904254       -24.6060
  28   2.0000      -0.868353       -23.6291
  29   2.0000      -0.851123       -23.1602
  30   2.0000      -0.849635       -23.1197
  31   2.0000      -0.815445       -22.1894
  32   2.0000      -0.787261       -21.4225
  33   2.0000      -0.769763       -20.9463
  34   2.0000      -0.709964       -19.3191
  35   2.0000      -0.699168       -19.0253
  36   2.0000      -0.691374       -18.8132
  37   2.0000      -0.660588       -17.9755
  38   2.0000      -0.647087       -17.6081
  39   2.0000      -0.615133       -16.7386
  40   2.0000      -0.592182       -16.1141
  41   2.0000      -0.572875       -15.5887
  42   2.0000      -0.571492       -15.5511
  43   2.0000      -0.561639       -15.2830
  44   2.0000      -0.527011       -14.3407
  45   2.0000      -0.522112       -14.2074
  46   2.0000      -0.520514       -14.1639
  47   2.0000      -0.514060       -13.9883
  48   2.0000      -0.505984       -13.7685
  49   2.0000      -0.498073       -13.5533
  50   2.0000      -0.490250       -13.3404
  51   2.0000      -0.484654       -13.1881
  52   2.0000      -0.476491       -12.9660
  53   2.0000      -0.461876       -12.5683
  54   2.0000      -0.459556       -12.5052
  55   2.0000      -0.452123       -12.3029
  56   2.0000      -0.447199       -12.1689
  57   2.0000      -0.440824       -11.9954
  58   2.0000      -0.427687       -11.6380
  59   2.0000      -0.425448       -11.5770
  60   2.0000      -0.421487       -11.4692
  61   2.0000      -0.415222       -11.2988
  62   2.0000      -0.410266       -11.1639
  63   2.0000      -0.339962        -9.2508
  64   2.0000      -0.330450        -8.9920
  65   2.0000      -0.324950        -8.8423
  66   2.0000      -0.300201        -8.1689
  67   0.0000       0.040768         1.1093
  68   0.0000       0.058595         1.5944
  69   0.0000       0.112847         3.0707
  70   0.0000       0.125218         3.4074
  71   0.0000       0.130955         3.5635

MULLIKEN ATOMIC CHARGES
-----------------------
   0 S :    0.118222
   1 C :   -0.098438
   2 C :   -0.106587
   3 C :    0.027187
   4 C :   -0.182907
   5 H :    0.044422
   6 C :    0.128559
   7 H :    0.009412
   8 H :    0.036226
   9 C :   -0.111800
  10 H :    0.035992
  11 H :    0.032595
  12 C :   -0.013044
  13 H :    0.001006
  14 H :    0.034692
  15 H :    0.022459
  16 S :    0.129349
  17 C :   -0.093687
  18 C :   -0.022586
  19 C :   -0.039921
  20 C :   -0.184783
  21 H :    0.000210
  22 C :    0.142199
  23 H :    0.018636
  24 H :   -0.008194
  25 C :   -0.117776
  26 H :    0.020939
  27 H :    0.003400
  28 C :   -0.007720
  29 H :    0.033286
  30 H :    0.035261
  31 H :    0.041002
  32 H :    0.015504
  33 H :    0.056885
Sum of atomic charges:   -0.0000000

LOEWDIN ATOMIC CHARGES
----------------------
   0 S :    0.412836
   1 C :   -0.185819
   2 C :   -0.059037
   3 C :   -0.061805
   4 C :   -0.194512
   5 H :    0.047029
   6 C :   -0.029643
   7 H :    0.026678
   8 H :    0.038810
   9 C :   -0.041837
  10 H :    0.023697
  11 H :    0.024347
  12 C :   -0.056432
  13 H :    0.009574
  14 H :    0.025454
  15 H :    0.025485
  16 S :    0.425550
  17 C :   -0.190391
  18 C :   -0.067502
  19 C :   -0.052978
  20 C :   -0.225893
  21 H :    0.024913
  22 C :   -0.022648
  23 H :    0.028129
  24 H :    0.014158
  25 C :   -0.047794
  26 H :    0.025701
  27 H :    0.013588
  28 C :   -0.057511
  29 H :    0.018916
  30 H :    0.026811
  31 H :    0.037700
  32 H :    0.010078
  33 H :    0.034348

  Mayer bond orders larger than 0.100000
B(  0-S ,  1-C ) :   1.1279 B(  0-S ,  4-C ) :   1.1704 B(  1-C ,  2-C ) :   1.6361
B(  1-C , 32-H ) :   0.9794 B(  2-C ,  3-C ) :   1.2193 B(  2-C ,  6-C ) :   1.0239
B(  3-C ,  4-C ) :   1.6000 B(  3-C ,  5-H ) :   0.9851 B(  4-C , 20-C ) :   0.9972
B(  6-C ,  7-H ) :   0.9487 B(  6-C ,  8-H ) :   0.9144 B(  6-C ,  9-C ) :   1.0559
B(  9-C , 10-H ) :   0.9689 B(  9-C , 11-H ) :   0.9508 B(  9-C , 12-C ) :   1.0844
B( 12-C , 13-H ) :   0.9726 B( 12-C , 14-H ) :   0.9744 B( 12-C , 15-H ) :   0.9735
B( 16-S , 17-C ) :   1.1703 B( 16-S , 20-C ) :   1.1638 B( 17-C , 18-C ) :   1.5662
B( 17-C , 20-C ) :   0.1112 B( 17-C , 33-H ) :   0.9637 B( 18-C , 19-C ) :   1.2989
B( 18-C , 21-H ) :   0.9952 B( 19-C , 20-C ) :   1.5433 B( 19-C , 22-C ) :   1.0463
B( 22-C , 23-H ) :   0.9388 B( 22-C , 24-H ) :   0.9204 B( 22-C , 25-C ) :   1.0569
B( 25-C , 26-H ) :   0.9508 B( 25-C , 27-H ) :   0.9584 B( 25-C , 28-C ) :   1.0782
B( 28-C , 29-H ) :   0.9738 B( 28-C , 30-H ) :   0.9766 B( 28-C , 31-H ) :   0.9720

Dispersion correction           -0.013527503
FINAL SINGLE POINT ENERGY     -1339.869741490594

DIPOLE MOMENT
-------------
                                X             Y             Z
Electronic contribution:     -6.44859      21.64626     -16.54935
Nuclear contribution   :      6.36621     -22.05582      16.87752
                        -----------------------------------------
Total Dipole Moment    :     -0.08238      -0.40956       0.32818
                        -----------------------------------------
Magnitude (a.u.)       :      0.53125
Magnitude (Debye)      :      1.35032

Rotational constants in cm-1:     0.018236     0.007861     0.006264
Rotational constants in MHz :   546.711730   235.665449   187.778251

                             ****ORCA TERMINATED NORMALLY****
TOTAL RUN TIME: 0 days 0 hours 0 minutes 32 seconds 360 msec
