                         Program Version 4.2.1 -  RELEASE  -
|  1> ! wB97X-D3 SP def2-SVP
|  2> %pal
|  3> nprocs 16
|  4> end
|  5>
|  6> * xyz 0 1
|  7> S 	 -68.0739 	 41.3115 	 125.607
|  8> C 	 -67.9148 	 41.6366 	 127.329
|  9> C 	 -68.6384 	 40.6943 	 128.045
| 10> C 	 -69.357 	 39.8118 	 127.155
| 11> C 	 -69.1251 	 39.9523 	 125.849
| 12> H 	 -70.1354 	 39.077 	 127.575
| 13> C 	 -68.6666 	 40.7035 	 129.525
| 14> H 	 -69.5435 	 41.2523 	 129.871
| 15> H 	 -67.8258 	 41.3249 	 129.802
| 16> C 	 -68.6694 	 39.4441 	 130.334
| 17> H 	 -69.5164 	 38.8577 	 129.987
| 18> H 	 -67.85 	 38.8484 	 129.981
| 19> C 	 -68.6237 	 39.5411 	 131.867
| 20> H 	 -68.3717 	 38.6478 	 132.495
| 21> H 	 -67.9586 	 40.3474 	 132.19
| 22> H 	 -69.7284 	 39.804 	 132.126
| 23> S 	 -71.0203 	 39.9016 	 123.933
| 24> C 	 -71.5663 	 38.3993 	 123.22
| 25> C 	 -70.7142 	 37.3285 	 123.527
| 26> C 	 -69.7297 	 37.7832 	 124.472
| 27> C 	 -69.7625 	 39.1686 	 124.779
| 28> H 	 -70.8517 	 36.407 	 122.952
| 29> C 	 -68.825 	 36.7193 	 124.999
| 30> H 	 -67.817 	 36.9876 	 124.78
| 31> H 	 -69.0635 	 35.7735 	 124.459
| 32> C 	 -68.7789 	 36.5879 	 126.539
| 33> H 	 -69.7874 	 36.6066 	 126.888
| 34> H 	 -68.1893 	 37.387 	 127.074
| 35> C 	 -68.1317 	 35.2957 	 127.056
| 36> H 	 -67.0521 	 35.3374 	 127.164
| 37> H 	 -68.4289 	 34.5253 	 126.318
| 38> H 	 -68.5459 	 35.0868 	 128.022
| 39> H 	 -67.273 	 42.402 	 127.693
| 40> H 	 -72.386 	 38.2616 	 122.58
| 41> *
| 42>
| 43>                          ****END OF INPUT****

CARTESIAN COORDINATES (ANGSTROEM)
---------------------------------
  S    -68.073900   41.311500  125.607000
  C    -67.914800   41.636600  127.329000
  C    -68.638400   40.694300  128.045000
  C    -69.357000   39.811800  127.155000
  C    -69.125100   39.952300  125.849000
  H    -70.135400   39.077000  127.575000
  C    -68.666600   40.703500  129.525000
  H    -69.543500   41.252300  129.871000
  H    -67.825800   41.324900  129.802000
  C    -68.669400   39.444100  130.334000
  H    -69.516400   38.857700  129.987000
  H    -67.850000   38.848400  129.981000
  C    -68.623700   39.541100  131.867000
  H    -68.371700   38.647800  132.495000
  H    -67.958600   40.347400  132.190000
  H    -69.728400   39.804000  132.126000
  S    -71.020300   39.901600  123.933000
  C    -71.566300   38.399300  123.220000
  C    -70.714200   37.328500  123.527000
  C    -69.729700   37.783200  124.472000
  C    -69.762500   39.168600  124.779000
  H    -70.851700   36.407000  122.952000
  C    -68.825000   36.719300  124.999000
  H    -67.817000   36.987600  124.780000
  H    -69.063500   35.773500  124.459000
  C    -68.778900   36.587900  126.539000
  H    -69.787400   36.606600  126.888000
  H    -68.189300   37.387000  127.074000
  C    -68.131700   35.295700  127.056000
  H    -67.052100   35.337400  127.164000
  H    -68.428900   34.525300  126.318000
  H    -68.545900   35.086800  128.022000
  H    -67.273000   42.402000  127.693000
  H    -72.386000   38.261600  122.580000

 Total Charge           Charge          ....    0
 Multiplicity           Mult            ....    1
 Number of Electrons    NEL             ....  134
 Basis Dimension        Dim             ....  322

ORBITAL ENERGIES
----------------

  NO   OCC          E(Eh)            E(eV)
   0   2.0000     -88.967160     -2420.9195
   1   2.0000     -88.962680     -2420.7976
   2   2.0000     -10.326206      -280.9904
   3   2.0000     -10.325001      -280.9576
   4   2.0000     -10.315323      -280.6942
   5   2.0000     -10.315114      -280.6885
   6   2.0000     -10.306219      -280.4465
   7   2.0000     -10.303164      -280.3633
   8   2.0000     -10.297760      -280.2163
   9   2.0000     -10.295418      -280.1526
  10   2.0000     -10.294209      -280.1197
  11   2.0000     -10.288142      -279.9546
  12   2.0000     -10.285509      -279.8829
  13   2.0000     -10.284156      -279.8461
  14   2.0000     -10.280494      -279.7465
  15   2.0000     -10.272800      -279.5371
  16   2.0000      -8.082828      -219.9449
  17   2.0000      -8.077807      -219.8083
  18   2.0000      -6.041205      -164.3895
  19   2.0000      -6.036947      -164.2737
  20   2.0000      -6.036304      -164.2562
  21   2.0000      -6.033923      -164.1914
  22   2.0000      -6.032226      -164.1452
  23   2.0000      -6.028572      -164.0458
  24   2.0000      -1.011677       -27.5291
  25   2.0000      -0.988706       -26.9041
  26   2.0000      -0.919266       -25.0145
  27   2.0000      -0.907456       -24.6931
  28   2.0000      -0.873932       -23.7809
  29   2.0000      -0.850708       -23.1489
  30   2.0000      -0.845158       -22.9979
  31   2.0000      -0.821311       -22.3490
  32   2.0000      -0.781113       -21.2552
  33   2.0000      -0.767752       -20.8916
  34   2.0000      -0.712299       -19.3826
  35   2.0000      -0.698448       -19.0057
  36   2.0000      -0.683936       -18.6108
  37   2.0000      -0.662185       -18.0190
  38   2.0000      -0.646604       -17.5950
  39   2.0000      -0.620554       -16.8861
  40   2.0000      -0.595333       -16.1998
  41   2.0000      -0.577072       -15.7029
  42   2.0000      -0.568447       -15.4682
  43   2.0000      -0.563975       -15.3465
  44   2.0000      -0.528002       -14.3677
  45   2.0000      -0.523160       -14.2359
  46   2.0000      -0.515523       -14.0281
  47   2.0000      -0.513392       -13.9701
  48   2.0000      -0.509148       -13.8546
  49   2.0000      -0.502789       -13.6816
  50   2.0000      -0.496375       -13.5071
  51   2.0000      -0.479097       -13.0369
  52   2.0000      -0.477656       -12.9977
  53   2.0000      -0.469621       -12.7790
  54   2.0000      -0.458671       -12.4811
  55   2.0000      -0.456679       -12.4269
  56   2.0000      -0.436395       -11.8749
  57   2.0000      -0.429875       -11.6975
  58   2.0000      -0.426176       -11.5968
  59   2.0000      -0.422158       -11.4875
  60   2.0000      -0.417856       -11.3704
  61   2.0000      -0.413893       -11.2626
  62   2.0000      -0.407499       -11.0886
  63   2.0000      -0.344356        -9.3704
  64   2.0000      -0.326140        -8.8747
  65   2.0000      -0.322077        -8.7642
  66   2.0000      -0.302390        -8.2284
  67   0.0000       0.041756         1.1362
  68   0.0000       0.059994         1.6325
  69   0.0000       0.118008         3.2112
  70   0.0000       0.124359         3.3840
  71   0.0000       0.130517         3.5515

MULLIKEN ATOMIC CHARGES
-----------------------
   0 S :    0.101064
   1 C :   -0.124078
   2 C :   -0.091258
   3 C :    0.021249
   4 C :   -0.159852
   5 H :    0.045920
   6 C :    0.087987
   7 H :    0.032118
   8 H :    0.005875
   9 C :   -0.075445
  10 H :    0.022239
  11 H :    0.016977
  12 C :   -0.079516
  13 H :    0.054377
  14 H :    0.038058
  15 H :    0.040220
  16 S :    0.128874
  17 C :   -0.084595
  18 C :   -0.060549
  19 C :   -0.053718
  20 C :   -0.138556
  21 H :    0.039729
  22 C :    0.104344
  23 H :    0.024289
  24 H :    0.020815
  25 C :   -0.133667
  26 H :    0.020009
  27 H :    0.061632
  28 C :   -0.029655
  29 H :    0.035453
  30 H :    0.022423
  31 H :    0.027267
  32 H :    0.044629
  33 H :    0.035341
Sum of atomic charges:   -0.0000000

LOEWDIN ATOMIC CHARGES
----------------------
   0 S :    0.402050
   1 C :   -0.183306
   2 C :   -0.062627
   3 C :   -0.067110
   4 C :   -0.209099
   5 H :    0.044497
   6 C :   -0.036539
   7 H :    0.034293
   8 H :    0.028665
   9 C :   -0.050385
  10 H :    0.021713
  11 H :    0.017768
  12 C :   -0.072317
  13 H :    0.035513
  14 H :    0.025226
  15 H :    0.036071
  16 S :    0.450681
  17 C :   -0.179647
  18 C :   -0.076033
  19 C :   -0.049634
  20 C :   -0.232217
  21 H :    0.041028
  22 C :   -0.034466
  23 H :    0.031463
  24 H :    0.031981
  25 C :   -0.044365
  26 H :    0.013482
  27 H :    0.034101
  28 C :   -0.062551
  29 H :    0.022682
  30 H :    0.024189
  31 H :    0.023991
  32 H :    0.023347
  33 H :    0.017554

  Mayer bond orders larger than 0.100000
B(  0-S ,  1-C ) :   1.1402 B(  0-S ,  4-C ) :   1.1481 B(  1-C ,  2-C ) :   1.6005
B(  1-C , 32-H ) :   0.9756 B(  2-C ,  3-C ) :   1.2282 B(  2-C ,  6-C ) :   1.0423
B(  3-C ,  4-C ) :   1.6133 B(  3-C ,  5-H ) :   0.9783 B(  4-C , 20-C ) :   0.9854
B(  6-C ,  7-H ) :   0.9253 B(  6-C ,  8-H ) :   0.9306 B(  6-C ,  9-C ) :   1.0641
B(  9-C , 10-H ) :   0.9510 B(  9-C , 11-H ) :   0.9552 B(  9-C , 12-C ) :   1.0710
B( 12-C , 13-H ) :   0.9758 B( 12-C , 14-H ) :   0.9768 B( 12-C , 15-H ) :   0.9755
B( 16-S , 17-C ) :   1.1911 B( 16-S , 20-C ) :   1.1668 B( 17-C , 18-C ) :   1.5808
B( 17-C , 20-C ) :   0.1005 B( 17-C , 33-H ) :   0.9704 B( 18-C , 19-C ) :   1.2632
B( 18-C , 21-H ) :   0.9883 B( 19-C , 20-C ) :   1.5604 B( 19-C , 22-C ) :   1.0587
B( 22-C , 23-H ) :   0.9211 B( 22-C , 24-H ) :   0.9382 B( 22-C , 25-C ) :   1.0619
B( 25-C , 26-H ) :   0.9614 B( 25-C , 27-H ) :   0.9451 B( 25-C , 28-C ) :   1.0815
B( 28-C , 29-H ) :   0.9782 B( 28-C , 30-H ) :   0.9746 B( 28-C , 31-H ) :   0.9748

Dispersion correction           -0.014580963
FINAL SINGLE POINT ENERGY     -1339.863072855010

DIPOLE MOMENT
-------------
                                X             Y             Z
Electronic contribution:     -5.90475      17.34518     -25.82579
Nuclear contribution   :      5.86820     -17.76146      26.29505
                        -----------------------------------------
Total Dipole Moment    :     -0.03655      -0.41628       0.46926
                        -----------------------------------------
Magnitude (a.u.)       :      0.62836
Magnitude (Debye)      :      1.59715

Rotational constants in cm-1:     0.017742     0.009144     0.006979
Rotational constants in MHz :   531.905663   274.127696   209.230395

                             ****ORCA TERMINATED NORMALLY****
TOTAL RUN TIME: 0 days 0 hours 0 minutes 34 seconds 899 msec
