                         Program Version 4.2.1 -  RELEASE  -
|  1> ! wB97X-D3 SP def2-SVP
|  2> %pal
|  3> nprocs 16
|  4> end
|  5>
|  6> * xyz 0 1
|  7> S 	 -50.0913 	 32.0135 	 95.5108
|  8> C 	 -49.5645 	 33.2667 	 94.4271
|  9> C 	 -48.6831 	 34.1308 	 95.0405
| 10> C 	 -48.3196 	 33.6181 	 96.2956
| 11> C 	 -49.0531 	 32.5503 	 96.7126
| 12> H 	 -47.6447 	 34.0427 	 96.9426
| 13> C 	 -48.0898 	 35.3577 	 94.4017
| 14> H 	 -48.1893 	 35.4365 	 93.2746
| 15> H 	 -47.0195 	 35.226 	 94.7383
| 16> C 	 -48.6678 	 36.6553 	 94.9972
| 17> H 	 -48.5446 	 37.3499 	 94.1638
| 18> H 	 -49.76 	 36.4881 	 95.1208
| 19> C 	 -48.2227 	 36.9778 	 96.4734
| 20> H 	 -47.2609 	 37.3912 	 96.329
| 21> H 	 -48.8102 	 37.7092 	 96.9294
| 22> H 	 -48.2283 	 36.1552 	 97.1237
| 23> S 	 -48.4097 	 30.189 	 97.9202
| 24> C 	 -48.2761 	 30.0598 	 99.6964
| 25> C 	 -48.7547 	 31.2405 	 100.251
| 26> C 	 -49.1158 	 32.281 	 99.3346
| 27> C 	 -48.9211 	 31.8695 	 98.0079
| 28> H 	 -48.7455 	 31.2957 	 101.329
| 29> C 	 -49.6637 	 33.6045 	 99.7983
| 30> H 	 -50.7055 	 33.4049 	 100.119
| 31> H 	 -49.7422 	 34.3569 	 98.9764
| 32> C 	 -48.8625 	 34.4044 	 100.782
| 33> H 	 -48.5204 	 33.806 	 101.531
| 34> H 	 -49.4909 	 35.1876 	 101.168
| 35> C 	 -47.5912 	 35.0413 	 100.152
| 36> H 	 -46.9733 	 35.4799 	 100.926
| 37> H 	 -47.9754 	 35.8479 	 99.5037
| 38> H 	 -47.0228 	 34.2115 	 99.6914
| 39> H 	 -50.0108 	 33.6437 	 93.5177
| 40> H 	 -47.8884 	 29.1418 	 100.19
| 41> *
| 42>
| 43>                          ****END OF INPUT****

CARTESIAN COORDINATES (ANGSTROEM)
---------------------------------
  S    -50.091300   32.013500   95.510800
  C    -49.564500   33.266700   94.427100
  C    -48.683100   34.130800   95.040500
  C    -48.319600   33.618100   96.295600
  C    -49.053100   32.550300   96.712600
  H    -47.644700   34.042700   96.942600
  C    -48.089800   35.357700   94.401700
  H    -48.189300   35.436500   93.274600
  H    -47.019500   35.226000   94.738300
  C    -48.667800   36.655300   94.997200
  H    -48.544600   37.349900   94.163800
  H    -49.760000   36.488100   95.120800
  C    -48.222700   36.977800   96.473400
  H    -47.260900   37.391200   96.329000
  H    -48.810200   37.709200   96.929400
  H    -48.228300   36.155200   97.123700
  S    -48.409700   30.189000   97.920200
  C    -48.276100   30.059800   99.696400
  C    -48.754700   31.240500  100.251000
  C    -49.115800   32.281000   99.334600
  C    -48.921100   31.869500   98.007900
  H    -48.745500   31.295700  101.329000
  C    -49.663700   33.604500   99.798300
  H    -50.705500   33.404900  100.119000
  H    -49.742200   34.356900   98.976400
  C    -48.862500   34.404400  100.782000
  H    -48.520400   33.806000  101.531000
  H    -49.490900   35.187600  101.168000
  C    -47.591200   35.041300  100.152000
  H    -46.973300   35.479900  100.926000
  H    -47.975400   35.847900   99.503700
  H    -47.022800   34.211500   99.691400
  H    -50.010800   33.643700   93.517700
  H    -47.888400   29.141800  100.190000

 Total Charge           Charge          ....    0
 Multiplicity           Mult            ....    1
 Number of Electrons    NEL             ....  134
 Basis Dimension        Dim             ....  322

ORBITAL ENERGIES
----------------

  NO   OCC          E(Eh)            E(eV)
   0   2.0000     -88.966518     -2420.9020
   1   2.0000     -88.962903     -2420.8037
   2   2.0000     -10.330607      -281.1101
   3   2.0000     -10.325820      -280.9799
   4   2.0000     -10.320377      -280.8317
   5   2.0000     -10.308877      -280.5188
   6   2.0000     -10.304792      -280.4076
   7   2.0000     -10.299963      -280.2762
   8   2.0000     -10.298243      -280.2294
   9   2.0000     -10.293625      -280.1038
  10   2.0000     -10.293113      -280.0898
  11   2.0000     -10.290935      -280.0306
  12   2.0000     -10.281606      -279.7767
  13   2.0000     -10.279828      -279.7284
  14   2.0000     -10.276266      -279.6314
  15   2.0000     -10.271542      -279.5029
  16   2.0000      -8.082577      -219.9381
  17   2.0000      -8.077214      -219.7922
  18   2.0000      -6.040934      -164.3822
  19   2.0000      -6.036873      -164.2717
  20   2.0000      -6.035749      -164.2411
  21   2.0000      -6.033430      -164.1780
  22   2.0000      -6.031710      -164.1312
  23   2.0000      -6.028039      -164.0313
  24   2.0000      -1.015037       -27.6206
  25   2.0000      -0.984594       -26.7922
  26   2.0000      -0.917274       -24.9603
  27   2.0000      -0.913362       -24.8538
  28   2.0000      -0.867912       -23.6171
  29   2.0000      -0.850408       -23.1408
  30   2.0000      -0.845359       -23.0034
  31   2.0000      -0.817506       -22.2455
  32   2.0000      -0.787916       -21.4403
  33   2.0000      -0.775918       -21.1138
  34   2.0000      -0.706155       -19.2155
  35   2.0000      -0.703210       -19.1353
  36   2.0000      -0.694325       -18.8935
  37   2.0000      -0.656339       -17.8599
  38   2.0000      -0.641895       -17.4669
  39   2.0000      -0.621800       -16.9200
  40   2.0000      -0.606786       -16.5115
  41   2.0000      -0.574480       -15.6324
  42   2.0000      -0.560257       -15.2454
  43   2.0000      -0.550889       -14.9904
  44   2.0000      -0.544719       -14.8225
  45   2.0000      -0.541526       -14.7357
  46   2.0000      -0.522961       -14.2305
  47   2.0000      -0.518041       -14.0966
  48   2.0000      -0.499107       -13.5814
  49   2.0000      -0.497845       -13.5470
  50   2.0000      -0.490833       -13.3562
  51   2.0000      -0.480544       -13.0763
  52   2.0000      -0.474315       -12.9068
  53   2.0000      -0.466104       -12.6833
  54   2.0000      -0.459795       -12.5117
  55   2.0000      -0.446994       -12.1633
  56   2.0000      -0.445066       -12.1109
  57   2.0000      -0.441174       -12.0050
  58   2.0000      -0.439959       -11.9719
  59   2.0000      -0.430353       -11.7105
  60   2.0000      -0.421789       -11.4775
  61   2.0000      -0.408664       -11.1203
  62   2.0000      -0.401355       -10.9214
  63   2.0000      -0.341611        -9.2957
  64   2.0000      -0.331803        -9.0288
  65   2.0000      -0.327856        -8.9214
  66   2.0000      -0.297922        -8.1069
  67   0.0000       0.038599         1.0503
  68   0.0000       0.065005         1.7689
  69   0.0000       0.115520         3.1435
  70   0.0000       0.125702         3.4205
  71   0.0000       0.128089         3.4855

MULLIKEN ATOMIC CHARGES
-----------------------
   0 S :    0.133131
   1 C :   -0.103201
   2 C :   -0.104390
   3 C :    0.066360
   4 C :   -0.155173
   5 H :   -0.033153
   6 C :    0.019659
   7 H :    0.041009
   8 H :    0.043661
   9 C :   -0.089528
  10 H :    0.034291
  11 H :    0.029433
  12 C :    0.008333
  13 H :    0.025324
  14 H :    0.020405
  15 H :    0.014622
  16 S :    0.092467
  17 C :   -0.120514
  18 C :   -0.039215
  19 C :   -0.014657
  20 C :   -0.171114
  21 H :    0.022154
  22 C :    0.055780
  23 H :    0.048762
  24 H :    0.017519
  25 C :   -0.037005
  26 H :    0.001047
  27 H :    0.025774
  28 C :   -0.085886
  29 H :    0.035660
  30 H :    0.044454
  31 H :    0.056614
  32 H :    0.037119
  33 H :    0.080259
Sum of atomic charges:   -0.0000000

LOEWDIN ATOMIC CHARGES
----------------------
   0 S :    0.446996
   1 C :   -0.212550
   2 C :   -0.061503
   3 C :   -0.061245
   4 C :   -0.219550
   5 H :    0.013363
   6 C :   -0.037710
   7 H :    0.038069
   8 H :    0.039632
   9 C :   -0.042185
  10 H :    0.025092
  11 H :    0.025767
  12 C :   -0.050697
  13 H :    0.023646
  14 H :    0.020832
  15 H :    0.016358
  16 S :    0.387194
  17 C :   -0.180148
  18 C :   -0.072353
  19 C :   -0.060457
  20 C :   -0.190192
  21 H :    0.029760
  22 C :   -0.036770
  23 H :    0.040163
  24 H :    0.033325
  25 C :   -0.032777
  26 H :    0.004327
  27 H :    0.025079
  28 C :   -0.063774
  29 H :    0.025650
  30 H :    0.026794
  31 H :    0.031685
  32 H :    0.028086
  33 H :    0.040095

  Mayer bond orders larger than 0.100000
B(  0-S ,  1-C ) :   1.1411 B(  0-S ,  4-C ) :   1.1853 B(  1-C ,  2-C ) :   1.6150
B(  1-C , 32-H ) :   0.9584 B(  2-C ,  3-C ) :   1.2528 B(  2-C ,  6-C ) :   1.0144
B(  3-C ,  4-C ) :   1.5636 B(  3-C ,  5-H ) :   1.0031 B(  4-C , 20-C ) :   0.9935
B(  6-C ,  7-H ) :   0.9489 B(  6-C ,  8-H ) :   0.9431 B(  6-C ,  9-C ) :   1.0509
B(  9-C , 10-H ) :   0.9661 B(  9-C , 11-H ) :   0.9579 B(  9-C , 12-C ) :   1.0577
B( 12-C , 13-H ) :   0.9755 B( 12-C , 14-H ) :   0.9729 B( 12-C , 15-H ) :   0.9693
B( 16-S , 17-C ) :   1.1440 B( 16-S , 20-C ) :   1.1591 B( 17-C , 18-C ) :   1.6062
B( 17-C , 20-C ) :   0.1060 B( 17-C , 33-H ) :   0.9669 B( 18-C , 19-C ) :   1.2207
B( 18-C , 21-H ) :   0.9901 B( 19-C , 20-C ) :   1.5901 B( 19-C , 22-C ) :   1.0485
B( 22-C , 23-H ) :   0.9307 B( 22-C , 24-H ) :   0.9351 B( 22-C , 25-C ) :   1.0668
B( 25-C , 26-H ) :   0.9574 B( 25-C , 27-H ) :   0.9523 B( 25-C , 28-C ) :   1.0779
B( 28-C , 29-H ) :   0.9718 B( 28-C , 30-H ) :   0.9710 B( 28-C , 31-H ) :   0.9733

Dispersion correction           -0.015896148
FINAL SINGLE POINT ENERGY     -1339.861073158398

DIPOLE MOMENT
-------------
                                X             Y             Z
Electronic contribution:     -5.85051     -28.33745      -7.64390
Nuclear contribution   :      5.93284      28.98658       8.04244
                        -----------------------------------------
Total Dipole Moment    :      0.08233       0.64913       0.39854
                        -----------------------------------------
Magnitude (a.u.)       :      0.76615
Magnitude (Debye)      :      1.94740

Rotational constants in cm-1:     0.018032     0.010758     0.007394
Rotational constants in MHz :   540.598000   322.515592   221.662591

                             ****ORCA TERMINATED NORMALLY****
TOTAL RUN TIME: 0 days 0 hours 0 minutes 32 seconds 981 msec
