                         Program Version 4.2.1 -  RELEASE  -
|  1> ! wB97X-D3 SP def2-SVP
|  2> %pal
|  3> nprocs 16
|  4> end
|  5>
|  6> * xyz 0 1
|  7> S 	 1.01599 	 14.5577 	 47.1368
|  8> C 	 1.38127 	 12.9489 	 46.4851
|  9> C 	 2.73067 	 12.6611 	 46.6548
| 10> C 	 3.41604 	 13.6648 	 47.4158
| 11> C 	 2.60902 	 14.7961 	 47.6118
| 12> H 	 4.43395 	 13.6814 	 47.7548
| 13> C 	 3.49462 	 11.4739 	 46.0428
| 14> H 	 2.77035 	 10.6859 	 45.6564
| 15> H 	 4.02547 	 10.9086 	 46.7919
| 16> C 	 4.29893 	 11.779 	 44.8265
| 17> H 	 3.60513 	 11.9971 	 43.9725
| 18> H 	 4.82819 	 12.6817 	 45.0528
| 19> C 	 5.26966 	 10.7545 	 44.3074
| 20> H 	 5.92933 	 11.2633 	 43.5877
| 21> H 	 5.99054 	 10.3616 	 45.0498
| 22> H 	 4.84486 	 9.96096 	 43.6902
| 23> S 	 2.38885 	 16.5182 	 49.8118
| 24> C 	 3.56627 	 17.8496 	 49.8811
| 25> C 	 4.58439 	 17.7748 	 48.9354
| 26> C 	 4.29615 	 16.6844 	 48.013
| 27> C 	 3.11581 	 15.9844 	 48.2826
| 28> H 	 5.2677 	 18.5628 	 48.9986
| 29> C 	 5.30677 	 16.5768 	 46.9198
| 30> H 	 6.05832 	 15.7949 	 47.1733
| 31> H 	 5.80489 	 17.5542 	 46.8701
| 32> C 	 4.63208 	 16.3922 	 45.5852
| 33> H 	 3.86107 	 17.0297 	 45.4412
| 34> H 	 4.16038 	 15.3882 	 45.5632
| 35> C 	 5.55267 	 16.6533 	 44.4486
| 36> H 	 6.23563 	 17.4904 	 44.518
| 37> H 	 4.97376 	 16.9079 	 43.4891
| 38> H 	 6.14095 	 15.7652 	 44.271
| 39> H 	 0.688053 	 12.3824 	 45.9064
| 40> H 	 3.5691 	 18.6174 	 50.662
| 41> *
| 42>
| 43>                          ****END OF INPUT****

CARTESIAN COORDINATES (ANGSTROEM)
---------------------------------
  S      1.015990   14.557700   47.136800
  C      1.381270   12.948900   46.485100
  C      2.730670   12.661100   46.654800
  C      3.416040   13.664800   47.415800
  C      2.609020   14.796100   47.611800
  H      4.433950   13.681400   47.754800
  C      3.494620   11.473900   46.042800
  H      2.770350   10.685900   45.656400
  H      4.025470   10.908600   46.791900
  C      4.298930   11.779000   44.826500
  H      3.605130   11.997100   43.972500
  H      4.828190   12.681700   45.052800
  C      5.269660   10.754500   44.307400
  H      5.929330   11.263300   43.587700
  H      5.990540   10.361600   45.049800
  H      4.844860    9.960960   43.690200
  S      2.388850   16.518200   49.811800
  C      3.566270   17.849600   49.881100
  C      4.584390   17.774800   48.935400
  C      4.296150   16.684400   48.013000
  C      3.115810   15.984400   48.282600
  H      5.267700   18.562800   48.998600
  C      5.306770   16.576800   46.919800
  H      6.058320   15.794900   47.173300
  H      5.804890   17.554200   46.870100
  C      4.632080   16.392200   45.585200
  H      3.861070   17.029700   45.441200
  H      4.160380   15.388200   45.563200
  C      5.552670   16.653300   44.448600
  H      6.235630   17.490400   44.518000
  H      4.973760   16.907900   43.489100
  H      6.140950   15.765200   44.271000
  H      0.688053   12.382400   45.906400
  H      3.569100   18.617400   50.662000

 Total Charge           Charge          ....    0
 Multiplicity           Mult            ....    1
 Number of Electrons    NEL             ....  134
 Basis Dimension        Dim             ....  322

ORBITAL ENERGIES
----------------

  NO   OCC          E(Eh)            E(eV)
   0   2.0000     -88.970058     -2420.9984
   1   2.0000     -88.966153     -2420.8921
   2   2.0000     -10.327875      -281.0358
   3   2.0000     -10.326359      -280.9945
   4   2.0000     -10.320203      -280.8270
   5   2.0000     -10.316508      -280.7265
   6   2.0000     -10.307860      -280.4911
   7   2.0000     -10.306038      -280.4416
   8   2.0000     -10.293561      -280.1020
   9   2.0000     -10.293154      -280.0910
  10   2.0000     -10.292773      -280.0806
  11   2.0000     -10.289491      -279.9913
  12   2.0000     -10.284093      -279.8444
  13   2.0000     -10.281126      -279.7637
  14   2.0000     -10.272698      -279.5343
  15   2.0000     -10.265908      -279.3496
  16   2.0000      -8.085529      -220.0184
  17   2.0000      -8.080073      -219.8700
  18   2.0000      -6.043840      -164.4612
  19   2.0000      -6.039854      -164.3528
  20   2.0000      -6.038620      -164.3192
  21   2.0000      -6.036532      -164.2624
  22   2.0000      -6.034861      -164.2169
  23   2.0000      -6.030688      -164.1034
  24   2.0000      -1.007986       -27.4287
  25   2.0000      -0.980045       -26.6684
  26   2.0000      -0.917810       -24.9749
  27   2.0000      -0.915635       -24.9157
  28   2.0000      -0.870604       -23.6903
  29   2.0000      -0.852242       -23.1907
  30   2.0000      -0.849861       -23.1259
  31   2.0000      -0.812496       -22.1091
  32   2.0000      -0.786841       -21.4110
  33   2.0000      -0.768707       -20.9176
  34   2.0000      -0.710298       -19.3282
  35   2.0000      -0.696535       -18.9537
  36   2.0000      -0.688080       -18.7236
  37   2.0000      -0.660963       -17.9857
  38   2.0000      -0.644754       -17.5447
  39   2.0000      -0.619911       -16.8686
  40   2.0000      -0.592400       -16.1200
  41   2.0000      -0.573117       -15.5953
  42   2.0000      -0.571670       -15.5559
  43   2.0000      -0.566634       -15.4189
  44   2.0000      -0.529596       -14.4110
  45   2.0000      -0.521184       -14.1821
  46   2.0000      -0.518401       -14.1064
  47   2.0000      -0.512264       -13.9394
  48   2.0000      -0.509665       -13.8687
  49   2.0000      -0.498143       -13.5551
  50   2.0000      -0.494855       -13.4657
  51   2.0000      -0.485868       -13.2211
  52   2.0000      -0.470383       -12.7998
  53   2.0000      -0.466879       -12.7044
  54   2.0000      -0.456491       -12.4218
  55   2.0000      -0.451031       -12.2732
  56   2.0000      -0.448064       -12.1924
  57   2.0000      -0.431962       -11.7543
  58   2.0000      -0.430422       -11.7124
  59   2.0000      -0.425907       -11.5895
  60   2.0000      -0.423512       -11.5243
  61   2.0000      -0.405624       -11.0376
  62   2.0000      -0.399730       -10.8772
  63   2.0000      -0.341147        -9.2831
  64   2.0000      -0.335665        -9.1339
  65   2.0000      -0.326566        -8.8863
  66   2.0000      -0.294337        -8.0093
  67   0.0000       0.029107         0.7920
  68   0.0000       0.069727         1.8974
  69   0.0000       0.107534         2.9262
  70   0.0000       0.116220         3.1625
  71   0.0000       0.127838         3.4787

MULLIKEN ATOMIC CHARGES
-----------------------
   0 S :    0.124478
   1 C :   -0.111132
   2 C :   -0.066081
   3 C :    0.025599
   4 C :   -0.187726
   5 H :    0.011462
   6 C :    0.055483
   7 H :    0.015552
   8 H :    0.025226
   9 C :   -0.070963
  10 H :    0.033251
  11 H :    0.018004
  12 C :   -0.045966
  13 H :    0.026304
  14 H :    0.033286
  15 H :    0.036574
  16 S :    0.103282
  17 C :   -0.104096
  18 C :   -0.020742
  19 C :   -0.046251
  20 C :   -0.125868
  21 H :    0.006791
  22 C :    0.068244
  23 H :    0.047478
  24 H :    0.017694
  25 C :   -0.044433
  26 H :   -0.000401
  27 H :    0.047933
  28 C :   -0.046587
  29 H :    0.020671
  30 H :    0.033508
  31 H :    0.022575
  32 H :    0.040838
  33 H :    0.056015
Sum of atomic charges:    0.0000000

LOEWDIN ATOMIC CHARGES
----------------------
   0 S :    0.435777
   1 C :   -0.190291
   2 C :   -0.053845
   3 C :   -0.062049
   4 C :   -0.218484
   5 H :    0.029671
   6 C :   -0.038763
   7 H :    0.033180
   8 H :    0.026925
   9 C :   -0.048759
  10 H :    0.033599
  11 H :    0.017413
  12 C :   -0.070380
  13 H :    0.032334
  14 H :    0.026915
  15 H :    0.025645
  16 S :    0.379502
  17 C :   -0.167646
  18 C :   -0.066708
  19 C :   -0.045438
  20 C :   -0.201706
  21 H :    0.027138
  22 C :   -0.029642
  23 H :    0.036194
  24 H :    0.031487
  25 C :   -0.044576
  26 H :    0.012232
  27 H :    0.032396
  28 C :   -0.066702
  29 H :    0.019523
  30 H :    0.033585
  31 H :    0.020689
  32 H :    0.023232
  33 H :    0.027551

  Mayer bond orders larger than 0.100000
B(  0-S ,  1-C ) :   1.1325 B(  0-S ,  4-C ) :   1.1894 B(  1-C ,  2-C ) :   1.6054
B(  1-C , 32-H ) :   0.9743 B(  2-C ,  3-C ) :   1.2366 B(  2-C ,  6-C ) :   1.0277
B(  3-C ,  4-C ) :   1.5348 B(  3-C ,  5-H ) :   0.9990 B(  4-C , 20-C ) :   1.0367
B(  6-C ,  7-H ) :   0.9386 B(  6-C ,  8-H ) :   0.9414 B(  6-C ,  9-C ) :   1.0664
B(  9-C , 10-H ) :   0.9493 B(  9-C , 11-H ) :   0.9554 B(  9-C , 12-C ) :   1.0937
B( 12-C , 13-H ) :   0.9690 B( 12-C , 14-H ) :   0.9709 B( 12-C , 15-H ) :   0.9749
B( 16-S , 17-C ) :   1.1479 B( 16-S , 20-C ) :   1.1171 B( 17-C , 18-C ) :   1.6517
B( 17-C , 33-H ) :   0.9610 B( 18-C , 19-C ) :   1.1989 B( 18-C , 21-H ) :   0.9988
B( 19-C , 20-C ) :   1.6174 B( 19-C , 22-C ) :   1.0399 B( 22-C , 23-H ) :   0.9207
B( 22-C , 24-H ) :   0.9397 B( 22-C , 25-C ) :   1.0758 B( 25-C , 26-H ) :   0.9536
B( 25-C , 27-H ) :   0.9382 B( 25-C , 28-C ) :   1.0944 B( 28-C , 29-H ) :   0.9720
B( 28-C , 30-H ) :   0.9749 B( 28-C , 31-H ) :   0.9727

Dispersion correction           -0.015166308
FINAL SINGLE POINT ENERGY     -1339.862859802925

DIPOLE MOMENT
-------------
                                X             Y             Z
Electronic contribution:    -20.59924      10.33677      22.74832
Nuclear contribution   :     21.18090     -10.40182     -23.10637
                        -----------------------------------------
Total Dipole Moment    :      0.58166      -0.06505      -0.35806
                        -----------------------------------------
Magnitude (a.u.)       :      0.68612
Magnitude (Debye)      :      1.74398

Rotational constants in cm-1:     0.019079     0.009359     0.007185
Rotational constants in MHz :   571.984946   280.574116   215.389015

                             ****ORCA TERMINATED NORMALLY****
TOTAL RUN TIME: 0 days 0 hours 0 minutes 36 seconds 970 msec
