                         Program Version 4.2.1 -  RELEASE  -
|  1> ! wB97X-D3 SP def2-SVP
|  2> %pal
|  3> nprocs 16
|  4> end
|  5>
|  6> * xyz 0 1
|  7> S 	 -34.1458 	 40.5007 	 97.7817
|  8> C 	 -32.8149 	 39.8406 	 96.731
|  9> C 	 -33.2425 	 38.7216 	 96.0047
| 10> C 	 -34.5914 	 38.3039 	 96.3625
| 11> C 	 -35.1995 	 39.159 	 97.2145
| 12> H 	 -35.1541 	 37.4136 	 96.0382
| 13> C 	 -32.3977 	 38.0511 	 94.9545
| 14> H 	 -33.0952 	 37.743 	 94.1464
| 15> H 	 -32.0776 	 37.0931 	 95.308
| 16> C 	 -31.2472 	 38.8655 	 94.3694
| 17> H 	 -31.6102 	 39.8073 	 93.963
| 18> H 	 -30.5732 	 39.1293 	 95.1839
| 19> C 	 -30.543 	 38.1441 	 93.2167
| 20> H 	 -30.222 	 37.141 	 93.6108
| 21> H 	 -31.2159 	 38.1058 	 92.3816
| 22> H 	 -29.6819 	 38.798 	 92.8306
| 23> S 	 -37.9058 	 39.5522 	 96.6711
| 24> C 	 -39.1526 	 38.8535 	 97.6969
| 25> C 	 -38.5181 	 37.9706 	 98.5732
| 26> C 	 -37.0927 	 38.1109 	 98.6514
| 27> C 	 -36.5824 	 38.9298 	 97.6433
| 28> H 	 -39.1636 	 37.3672 	 99.2102
| 29> C 	 -36.2642 	 37.2669 	 99.5996
| 30> H 	 -35.5722 	 36.5999 	 99.0561
| 31> H 	 -36.9787 	 36.5748 	 100.043
| 32> C 	 -35.4694 	 37.9473 	 100.684
| 33> H 	 -34.9883 	 38.7716 	 100.22
| 34> H 	 -34.7063 	 37.1667 	 100.935
| 35> C 	 -36.4488 	 38.4161 	 101.815
| 36> H 	 -37.1877 	 39.1172 	 101.589
| 37> H 	 -35.8183 	 38.9403 	 102.55
| 38> H 	 -36.8764 	 37.529 	 102.327
| 39> H 	 -31.8571 	 40.3448 	 96.6352
| 40> H 	 -40.1919 	 38.8086 	 97.54
| 41> *
| 42>
| 43>                          ****END OF INPUT****

CARTESIAN COORDINATES (ANGSTROEM)
---------------------------------
  S    -34.145800   40.500700   97.781700
  C    -32.814900   39.840600   96.731000
  C    -33.242500   38.721600   96.004700
  C    -34.591400   38.303900   96.362500
  C    -35.199500   39.159000   97.214500
  H    -35.154100   37.413600   96.038200
  C    -32.397700   38.051100   94.954500
  H    -33.095200   37.743000   94.146400
  H    -32.077600   37.093100   95.308000
  C    -31.247200   38.865500   94.369400
  H    -31.610200   39.807300   93.963000
  H    -30.573200   39.129300   95.183900
  C    -30.543000   38.144100   93.216700
  H    -30.222000   37.141000   93.610800
  H    -31.215900   38.105800   92.381600
  H    -29.681900   38.798000   92.830600
  S    -37.905800   39.552200   96.671100
  C    -39.152600   38.853500   97.696900
  C    -38.518100   37.970600   98.573200
  C    -37.092700   38.110900   98.651400
  C    -36.582400   38.929800   97.643300
  H    -39.163600   37.367200   99.210200
  C    -36.264200   37.266900   99.599600
  H    -35.572200   36.599900   99.056100
  H    -36.978700   36.574800  100.043000
  C    -35.469400   37.947300  100.684000
  H    -34.988300   38.771600  100.220000
  H    -34.706300   37.166700  100.935000
  C    -36.448800   38.416100  101.815000
  H    -37.187700   39.117200  101.589000
  H    -35.818300   38.940300  102.550000
  H    -36.876400   37.529000  102.327000
  H    -31.857100   40.344800   96.635200
  H    -40.191900   38.808600   97.540000

 Total Charge           Charge          ....    0
 Multiplicity           Mult            ....    1
 Number of Electrons    NEL             ....  134
 Basis Dimension        Dim             ....  322

ORBITAL ENERGIES
----------------

  NO   OCC          E(Eh)            E(eV)
   0   2.0000     -88.968497     -2420.9559
   1   2.0000     -88.964500     -2420.8471
   2   2.0000     -10.331600      -281.1371
   3   2.0000     -10.325937      -280.9830
   4   2.0000     -10.322559      -280.8911
   5   2.0000     -10.315406      -280.6965
   6   2.0000     -10.310285      -280.5571
   7   2.0000     -10.302356      -280.3414
   8   2.0000     -10.299671      -280.2683
   9   2.0000     -10.294685      -280.1326
  10   2.0000     -10.293650      -280.1045
  11   2.0000     -10.289426      -279.9895
  12   2.0000     -10.288287      -279.9585
  13   2.0000     -10.282671      -279.8057
  14   2.0000     -10.281039      -279.7613
  15   2.0000     -10.272930      -279.5406
  16   2.0000      -8.081060      -219.8968
  17   2.0000      -8.078760      -219.8342
  18   2.0000      -6.039796      -164.3512
  19   2.0000      -6.037371      -164.2852
  20   2.0000      -6.036040      -164.2490
  21   2.0000      -6.033171      -164.1709
  22   2.0000      -6.031540      -164.1265
  23   2.0000      -6.029596      -164.0737
  24   2.0000      -0.999997       -27.2113
  25   2.0000      -0.976009       -26.5585
  26   2.0000      -0.914854       -24.8944
  27   2.0000      -0.906732       -24.6734
  28   2.0000      -0.867175       -23.5970
  29   2.0000      -0.847880       -23.0720
  30   2.0000      -0.840045       -22.8588
  31   2.0000      -0.813958       -22.1489
  32   2.0000      -0.779511       -21.2116
  33   2.0000      -0.769694       -20.9444
  34   2.0000      -0.714863       -19.4524
  35   2.0000      -0.702172       -19.1071
  36   2.0000      -0.684512       -18.6265
  37   2.0000      -0.658306       -17.9134
  38   2.0000      -0.642663       -17.4877
  39   2.0000      -0.609699       -16.5908
  40   2.0000      -0.590389       -16.0653
  41   2.0000      -0.573961       -15.6183
  42   2.0000      -0.567916       -15.4538
  43   2.0000      -0.546472       -14.8703
  44   2.0000      -0.540715       -14.7136
  45   2.0000      -0.525904       -14.3106
  46   2.0000      -0.514380       -13.9970
  47   2.0000      -0.514280       -13.9943
  48   2.0000      -0.506123       -13.7723
  49   2.0000      -0.497385       -13.5345
  50   2.0000      -0.487452       -13.2642
  51   2.0000      -0.476324       -12.9614
  52   2.0000      -0.471478       -12.8296
  53   2.0000      -0.465263       -12.6604
  54   2.0000      -0.455396       -12.3920
  55   2.0000      -0.448749       -12.2111
  56   2.0000      -0.437686       -11.9100
  57   2.0000      -0.434079       -11.8119
  58   2.0000      -0.427141       -11.6231
  59   2.0000      -0.424640       -11.5550
  60   2.0000      -0.421659       -11.4739
  61   2.0000      -0.418884       -11.3984
  62   2.0000      -0.408191       -11.1074
  63   2.0000      -0.335936        -9.1413
  64   2.0000      -0.327448        -8.9103
  65   2.0000      -0.316546        -8.6137
  66   2.0000      -0.314472        -8.5572
  67   0.0000       0.044158         1.2016
  68   0.0000       0.047111         1.2820
  69   0.0000       0.104740         2.8501
  70   0.0000       0.115134         3.1330
  71   0.0000       0.124145         3.3782

MULLIKEN ATOMIC CHARGES
-----------------------
   0 S :    0.099833
   1 C :   -0.143647
   2 C :   -0.071435
   3 C :    0.038563
   4 C :   -0.153800
   5 H :    0.034099
   6 C :    0.072722
   7 H :    0.023743
   8 H :    0.024507
   9 C :   -0.103357
  10 H :    0.030794
  11 H :    0.035245
  12 C :   -0.050513
  13 H :    0.043807
  14 H :    0.032680
  15 H :    0.046108
  16 S :    0.107771
  17 C :   -0.077654
  18 C :   -0.057905
  19 C :   -0.022023
  20 C :   -0.190504
  21 H :    0.023198
  22 C :    0.063397
  23 H :    0.026184
  24 H :   -0.001082
  25 C :   -0.035640
  26 H :    0.017325
  27 H :    0.037358
  28 C :   -0.051510
  29 H :    0.035686
  30 H :    0.028323
  31 H :    0.032234
  32 H :    0.058967
  33 H :    0.046527
Sum of atomic charges:    0.0000000

LOEWDIN ATOMIC CHARGES
----------------------
   0 S :    0.355879
   1 C :   -0.179119
   2 C :   -0.053839
   3 C :   -0.053990
   4 C :   -0.180110
   5 H :    0.042944
   6 C :   -0.036677
   7 H :    0.035460
   8 H :    0.029099
   9 C :   -0.045833
  10 H :    0.024978
  11 H :    0.021032
  12 C :   -0.064559
  13 H :    0.030371
  14 H :    0.021944
  15 H :    0.037184
  16 S :    0.407276
  17 C :   -0.183874
  18 C :   -0.071466
  19 C :   -0.057841
  20 C :   -0.201788
  21 H :    0.029915
  22 C :   -0.037930
  23 H :    0.030365
  24 H :    0.023551
  25 C :   -0.034170
  26 H :    0.012828
  27 H :    0.034319
  28 C :   -0.063581
  29 H :    0.020099
  30 H :    0.027753
  31 H :    0.027724
  32 H :    0.027921
  33 H :    0.024134

  Mayer bond orders larger than 0.100000
B(  0-S ,  1-C ) :   1.1036 B(  0-S ,  4-C ) :   1.1091 B(  1-C ,  2-C ) :   1.6589
B(  1-C , 32-H ) :   0.9624 B(  2-C ,  3-C ) :   1.1778 B(  2-C ,  6-C ) :   1.0195
B(  3-C ,  4-C ) :   1.6588 B(  3-C ,  5-H ) :   0.9851 B(  4-C , 20-C ) :   1.0188
B(  6-C ,  7-H ) :   0.9396 B(  6-C ,  8-H ) :   0.9219 B(  6-C ,  9-C ) :   1.0752
B(  9-C , 10-H ) :   0.9563 B(  9-C , 11-H ) :   0.9455 B(  9-C , 12-C ) :   1.0876
B( 12-C , 13-H ) :   0.9740 B( 12-C , 14-H ) :   0.9753 B( 12-C , 15-H ) :   0.9718
B( 16-S , 17-C ) :   1.1579 B( 16-S , 20-C ) :   1.1536 B( 17-C , 18-C ) :   1.6065
B( 17-C , 20-C ) :   0.1030 B( 17-C , 33-H ) :   0.9696 B( 18-C , 19-C ) :   1.2617
B( 18-C , 21-H ) :   0.9800 B( 19-C , 20-C ) :   1.5728 B( 19-C , 22-C ) :   1.0373
B( 22-C , 23-H ) :   0.9334 B( 22-C , 24-H ) :   0.9304 B( 22-C , 25-C ) :   1.0706
B( 25-C , 26-H ) :   0.9550 B( 25-C , 27-H ) :   0.9557 B( 25-C , 28-C ) :   1.0672
B( 28-C , 29-H ) :   0.9787 B( 28-C , 30-H ) :   0.9749 B( 28-C , 31-H ) :   0.9759

Dispersion correction           -0.014422810
FINAL SINGLE POINT ENERGY     -1339.874955801227

DIPOLE MOMENT
-------------
                                X             Y             Z
Electronic contribution:    -15.21363      11.44456      -1.34233
Nuclear contribution   :     15.46936     -12.02811       1.14568
                        -----------------------------------------
Total Dipole Moment    :      0.25572      -0.58355      -0.19665
                        -----------------------------------------
Magnitude (a.u.)       :      0.66678
Magnitude (Debye)      :      1.69482

Rotational constants in cm-1:     0.022823     0.007188     0.006353
Rotational constants in MHz :   684.230280   215.479922   190.465108

                             ****ORCA TERMINATED NORMALLY****
TOTAL RUN TIME: 0 days 0 hours 0 minutes 28 seconds 46 msec
