                         Program Version 4.2.1 -  RELEASE  -
|  1> ! wB97X-D3 SP def2-SVP
|  2> %pal
|  3> nprocs 16
|  4> end
|  5>
|  6> * xyz 0 1
|  7> S 	 -5.22742 	 74.5079 	 48.4757
|  8> C 	 -3.75064 	 75.2766 	 48.8774
|  9> C 	 -2.79242 	 74.405 	 49.3475
| 10> C 	 -3.44448 	 73.1359 	 49.6421
| 11> C 	 -4.76924 	 73.096 	 49.287
| 12> H 	 -2.9588 	 72.2328 	 50.1118
| 13> C 	 -1.40879 	 74.7884 	 49.7564
| 14> H 	 -0.853238 	 73.9206 	 50.0431
| 15> H 	 -1.50525 	 75.4113 	 50.7042
| 16> C 	 -0.616765 	 75.5262 	 48.6915
| 17> H 	 -0.820952 	 75.0555 	 47.656
| 18> H 	 -0.94101 	 76.5456 	 48.6101
| 19> C 	 0.904715 	 75.6275 	 49.0804
| 20> H 	 1.41114 	 76.3517 	 48.4683
| 21> H 	 0.929733 	 76.2452 	 49.9766
| 22> H 	 1.46708 	 74.7471 	 49.2602
| 23> S 	 -7.14254 	 72.4525 	 50.5249
| 24> C 	 -7.88635 	 70.881 	 50.2325
| 25> C 	 -6.9596 	 70.0189 	 49.6587
| 26> C 	 -5.7815 	 70.6264 	 49.1905
| 27> C 	 -5.73169 	 71.9772 	 49.6073
| 28> H 	 -7.23895 	 69.0101 	 49.6474
| 29> C 	 -4.71121 	 69.8619 	 48.3859
| 30> H 	 -4.29062 	 69.0324 	 49.0454
| 31> H 	 -3.8849 	 70.5346 	 48.3197
| 32> C 	 -5.17492 	 69.3701 	 47.0333
| 33> H 	 -4.34999 	 68.8404 	 46.5799
| 34> H 	 -5.32698 	 70.2938 	 46.4613
| 35> C 	 -6.38705 	 68.3878 	 47.0121
| 36> H 	 -6.42163 	 67.5082 	 47.6553
| 37> H 	 -6.64482 	 68.0534 	 45.9652
| 38> H 	 -7.25199 	 69.0017 	 47.2219
| 39> H 	 -3.56004 	 76.3229 	 48.7847
| 40> H 	 -8.87682 	 70.6376 	 50.4528
| 41> *
| 42>
| 43>                          ****END OF INPUT****

CARTESIAN COORDINATES (ANGSTROEM)
---------------------------------
  S     -5.227420   74.507900   48.475700
  C     -3.750640   75.276600   48.877400
  C     -2.792420   74.405000   49.347500
  C     -3.444480   73.135900   49.642100
  C     -4.769240   73.096000   49.287000
  H     -2.958800   72.232800   50.111800
  C     -1.408790   74.788400   49.756400
  H     -0.853238   73.920600   50.043100
  H     -1.505250   75.411300   50.704200
  C     -0.616765   75.526200   48.691500
  H     -0.820952   75.055500   47.656000
  H     -0.941010   76.545600   48.610100
  C      0.904715   75.627500   49.080400
  H      1.411140   76.351700   48.468300
  H      0.929733   76.245200   49.976600
  H      1.467080   74.747100   49.260200
  S     -7.142540   72.452500   50.524900
  C     -7.886350   70.881000   50.232500
  C     -6.959600   70.018900   49.658700
  C     -5.781500   70.626400   49.190500
  C     -5.731690   71.977200   49.607300
  H     -7.238950   69.010100   49.647400
  C     -4.711210   69.861900   48.385900
  H     -4.290620   69.032400   49.045400
  H     -3.884900   70.534600   48.319700
  C     -5.174920   69.370100   47.033300
  H     -4.349990   68.840400   46.579900
  H     -5.326980   70.293800   46.461300
  C     -6.387050   68.387800   47.012100
  H     -6.421630   67.508200   47.655300
  H     -6.644820   68.053400   45.965200
  H     -7.251990   69.001700   47.221900
  H     -3.560040   76.322900   48.784700
  H     -8.876820   70.637600   50.452800

 Total Charge           Charge          ....    0
 Multiplicity           Mult            ....    1
 Number of Electrons    NEL             ....  134
 Basis Dimension        Dim             ....  322

ORBITAL ENERGIES
----------------

  NO   OCC          E(Eh)            E(eV)
   0   2.0000     -88.964727     -2420.8533
   1   2.0000     -88.964497     -2420.8470
   2   2.0000     -10.329523      -281.0806
   3   2.0000     -10.323147      -280.9071
   4   2.0000     -10.312125      -280.6072
   5   2.0000     -10.305748      -280.4337
   6   2.0000     -10.304165      -280.3906
   7   2.0000     -10.299378      -280.2603
   8   2.0000     -10.296005      -280.1686
   9   2.0000     -10.294332      -280.1230
  10   2.0000     -10.293460      -280.0993
  11   2.0000     -10.292758      -280.0802
  12   2.0000     -10.287782      -279.9448
  13   2.0000     -10.286716      -279.9158
  14   2.0000     -10.280833      -279.7557
  15   2.0000     -10.277138      -279.6551
  16   2.0000      -8.080921      -219.8930
  17   2.0000      -8.079177      -219.8456
  18   2.0000      -6.039305      -164.3378
  19   2.0000      -6.037564      -164.2905
  20   2.0000      -6.035192      -164.2259
  21   2.0000      -6.033685      -164.1849
  22   2.0000      -6.031715      -164.1313
  23   2.0000      -6.030131      -164.0882
  24   2.0000      -1.009552       -27.4713
  25   2.0000      -0.985136       -26.8069
  26   2.0000      -0.914064       -24.8729
  27   2.0000      -0.906332       -24.6626
  28   2.0000      -0.863396       -23.4942
  29   2.0000      -0.848040       -23.0763
  30   2.0000      -0.842059       -22.9136
  31   2.0000      -0.813960       -22.1490
  32   2.0000      -0.786018       -21.3886
  33   2.0000      -0.774767       -21.0825
  34   2.0000      -0.707428       -19.2501
  35   2.0000      -0.700563       -19.0633
  36   2.0000      -0.688293       -18.7294
  37   2.0000      -0.659810       -17.9543
  38   2.0000      -0.641268       -17.4498
  39   2.0000      -0.610719       -16.6185
  40   2.0000      -0.592236       -16.1156
  41   2.0000      -0.575257       -15.6535
  42   2.0000      -0.565183       -15.3794
  43   2.0000      -0.556153       -15.1337
  44   2.0000      -0.538643       -14.6572
  45   2.0000      -0.517868       -14.0919
  46   2.0000      -0.515058       -14.0154
  47   2.0000      -0.512440       -13.9442
  48   2.0000      -0.504256       -13.7215
  49   2.0000      -0.493411       -13.4264
  50   2.0000      -0.489795       -13.3280
  51   2.0000      -0.478969       -13.0334
  52   2.0000      -0.472035       -12.8447
  53   2.0000      -0.468539       -12.7496
  54   2.0000      -0.459245       -12.4967
  55   2.0000      -0.449171       -12.2226
  56   2.0000      -0.438289       -11.9265
  57   2.0000      -0.435428       -11.8486
  58   2.0000      -0.429201       -11.6792
  59   2.0000      -0.427309       -11.6277
  60   2.0000      -0.423594       -11.5266
  61   2.0000      -0.419592       -11.4177
  62   2.0000      -0.410221       -11.1627
  63   2.0000      -0.336276        -9.1505
  64   2.0000      -0.329948        -8.9784
  65   2.0000      -0.323011        -8.7896
  66   2.0000      -0.297966        -8.1081
  67   0.0000       0.033061         0.8996
  68   0.0000       0.071671         1.9503
  69   0.0000       0.114186         3.1071
  70   0.0000       0.117508         3.1975
  71   0.0000       0.134392         3.6570

MULLIKEN ATOMIC CHARGES
-----------------------
   0 S :    0.141258
   1 C :   -0.129717
   2 C :   -0.086257
   3 C :    0.013082
   4 C :   -0.165636
   5 H :    0.032974
   6 C :    0.072290
   7 H :    0.010620
   8 H :    0.052767
   9 C :   -0.110976
  10 H :    0.051536
  11 H :    0.023446
  12 C :   -0.022054
  13 H :    0.021710
  14 H :    0.010613
  15 H :    0.040761
  16 S :    0.112181
  17 C :   -0.087632
  18 C :   -0.021194
  19 C :   -0.033390
  20 C :   -0.188526
  21 H :    0.001339
  22 C :    0.087989
  23 H :    0.039231
  24 H :    0.004548
  25 C :   -0.051116
  26 H :    0.029410
  27 H :    0.039347
  28 C :   -0.075395
  29 H :    0.042528
  30 H :    0.034550
  31 H :    0.034751
  32 H :    0.038250
  33 H :    0.036713
Sum of atomic charges:   -0.0000000

LOEWDIN ATOMIC CHARGES
----------------------
   0 S :    0.444544
   1 C :   -0.204202
   2 C :   -0.064827
   3 C :   -0.070526
   4 C :   -0.225357
   5 H :    0.038812
   6 C :   -0.039311
   7 H :    0.025644
   8 H :    0.045004
   9 C :   -0.041509
  10 H :    0.033454
  11 H :    0.019630
  12 C :   -0.067367
  13 H :    0.026806
  14 H :    0.028177
  15 H :    0.019998
  16 S :    0.406599
  17 C :   -0.173685
  18 C :   -0.062567
  19 C :   -0.056394
  20 C :   -0.200125
  21 H :    0.023214
  22 C :   -0.032356
  23 H :    0.037458
  24 H :    0.024756
  25 C :   -0.037594
  26 H :    0.023241
  27 H :    0.033675
  28 C :   -0.076332
  29 H :    0.024632
  30 H :    0.033362
  31 H :    0.024921
  32 H :    0.021830
  33 H :    0.016395

  Mayer bond orders larger than 0.100000
B(  0-S ,  1-C ) :   1.1548 B(  0-S ,  4-C ) :   1.1710 B(  1-C ,  2-C ) :   1.5928
B(  1-C , 32-H ) :   0.9743 B(  2-C ,  3-C ) :   1.2389 B(  2-C ,  6-C ) :   1.0335
B(  3-C ,  4-C ) :   1.5843 B(  3-C ,  5-H ) :   0.9846 B(  4-C , 20-C ) :   0.9925
B(  6-C ,  7-H ) :   0.9427 B(  6-C ,  8-H ) :   0.9307 B(  6-C ,  9-C ) :   1.0544
B(  9-C , 10-H ) :   0.9634 B(  9-C , 11-H ) :   0.9495 B(  9-C , 12-C ) :   1.0826
B( 12-C , 13-H ) :   0.9712 B( 12-C , 14-H ) :   0.9651 B( 12-C , 15-H ) :   0.9806
B( 16-S , 17-C ) :   1.1554 B( 16-S , 20-C ) :   1.1700 B( 17-C , 18-C ) :   1.5901
B( 17-C , 20-C ) :   0.1063 B( 17-C , 33-H ) :   0.9759 B( 18-C , 19-C ) :   1.2509
B( 18-C , 21-H ) :   0.9932 B( 19-C , 20-C ) :   1.5755 B( 19-C , 22-C ) :   1.0250
B( 22-C , 23-H ) :   0.9381 B( 22-C , 24-H ) :   0.9244 B( 22-C , 25-C ) :   1.0771
B( 25-C , 26-H ) :   0.9553 B( 25-C , 27-H ) :   0.9519 B( 25-C , 28-C ) :   1.0763
B( 28-C , 29-H ) :   0.9759 B( 28-C , 30-H ) :   0.9699 B( 28-C , 31-H ) :   0.9662

Dispersion correction           -0.013905987
FINAL SINGLE POINT ENERGY     -1339.866877489365

DIPOLE MOMENT
-------------
                                X             Y             Z
Electronic contribution:    -20.61591       7.04280       8.11998
Nuclear contribution   :     21.04000      -7.22339      -8.14996
                        -----------------------------------------
Total Dipole Moment    :      0.42409      -0.18060      -0.02998
                        -----------------------------------------
Magnitude (a.u.)       :      0.46191
Magnitude (Debye)      :      1.17409

Rotational constants in cm-1:     0.023355     0.006921     0.005926
Rotational constants in MHz :   700.168312   207.480895   177.651291

                             ****ORCA TERMINATED NORMALLY****
TOTAL RUN TIME: 0 days 0 hours 0 minutes 32 seconds 751 msec
