                         Program Version 4.2.1 -  RELEASE  -
|  1> ! wB97X-D3 SP def2-SVP
|  2> %pal
|  3> nprocs 16
|  4> end
|  5>
|  6> * xyz 0 1
|  7> S 	 -40.9259 	 -8.53965 	 97.6691
|  8> C 	 -40.7578 	 -8.7073 	 95.9407
|  9> C 	 -41.3848 	 -7.68073 	 95.2315
| 10> C 	 -42.0303 	 -6.78727 	 96.1403
| 11> C 	 -41.7738 	 -7.01015 	 97.4945
| 12> H 	 -42.7163 	 -5.89803 	 95.9259
| 13> C 	 -41.3747 	 -7.61172 	 93.7147
| 14> H 	 -42.4197 	 -7.53237 	 93.2978
| 15> H 	 -41.0389 	 -8.51198 	 93.1592
| 16> C 	 -40.522 	 -6.43526 	 93.3148
| 17> H 	 -40.7859 	 -6.35349 	 92.2624
| 18> H 	 -40.8859 	 -5.53572 	 93.8134
| 19> C 	 -38.954 	 -6.69831 	 93.4132
| 20> H 	 -38.8396 	 -7.78759 	 93.2817
| 21> H 	 -38.4689 	 -6.34135 	 92.5048
| 22> H 	 -38.3826 	 -6.29311 	 94.3364
| 23> S 	 -40.8171 	 -5.56203 	 99.6527
| 24> C 	 -41.9619 	 -4.85559 	 100.776
| 25> C 	 -43.2123 	 -5.20495 	 100.434
| 26> C 	 -43.3022 	 -6.09892 	 99.3332
| 27> C 	 -42.1623 	 -6.21112 	 98.6545
| 28> H 	 -44.1355 	 -4.86562 	 100.973
| 29> C 	 -44.6202 	 -6.65864 	 98.7657
| 30> H 	 -45.4135 	 -6.87201 	 99.587
| 31> H 	 -44.3701 	 -7.69353 	 98.4651
| 32> C 	 -45.2798 	 -5.85972 	 97.6141
| 33> H 	 -44.5542 	 -5.70769 	 96.8162
| 34> H 	 -45.5363 	 -4.868 	 98.0061
| 35> C 	 -46.5028 	 -6.45735 	 96.9347
| 36> H 	 -46.3395 	 -7.38538 	 96.4046
| 37> H 	 -46.9193 	 -5.83591 	 96.1462
| 38> H 	 -47.43 	 -6.64383 	 97.6109
| 39> H 	 -40.2822 	 -9.54903 	 95.4844
| 40> H 	 -41.7585 	 -4.35005 	 101.704
| 41> *
| 42>
| 43>                          ****END OF INPUT****

CARTESIAN COORDINATES (ANGSTROEM)
---------------------------------
  S    -40.925900   -8.539650   97.669100
  C    -40.757800   -8.707300   95.940700
  C    -41.384800   -7.680730   95.231500
  C    -42.030300   -6.787270   96.140300
  C    -41.773800   -7.010150   97.494500
  H    -42.716300   -5.898030   95.925900
  C    -41.374700   -7.611720   93.714700
  H    -42.419700   -7.532370   93.297800
  H    -41.038900   -8.511980   93.159200
  C    -40.522000   -6.435260   93.314800
  H    -40.785900   -6.353490   92.262400
  H    -40.885900   -5.535720   93.813400
  C    -38.954000   -6.698310   93.413200
  H    -38.839600   -7.787590   93.281700
  H    -38.468900   -6.341350   92.504800
  H    -38.382600   -6.293110   94.336400
  S    -40.817100   -5.562030   99.652700
  C    -41.961900   -4.855590  100.776000
  C    -43.212300   -5.204950  100.434000
  C    -43.302200   -6.098920   99.333200
  C    -42.162300   -6.211120   98.654500
  H    -44.135500   -4.865620  100.973000
  C    -44.620200   -6.658640   98.765700
  H    -45.413500   -6.872010   99.587000
  H    -44.370100   -7.693530   98.465100
  C    -45.279800   -5.859720   97.614100
  H    -44.554200   -5.707690   96.816200
  H    -45.536300   -4.868000   98.006100
  C    -46.502800   -6.457350   96.934700
  H    -46.339500   -7.385380   96.404600
  H    -46.919300   -5.835910   96.146200
  H    -47.430000   -6.643830   97.610900
  H    -40.282200   -9.549030   95.484400
  H    -41.758500   -4.350050  101.704000

 Total Charge           Charge          ....    0
 Multiplicity           Mult            ....    1
 Number of Electrons    NEL             ....  134
 Basis Dimension        Dim             ....  322

ORBITAL ENERGIES
----------------

  NO   OCC          E(Eh)            E(eV)
   0   2.0000     -88.966053     -2420.8894
   1   2.0000     -88.960641     -2420.7421
   2   2.0000     -10.330439      -281.1055
   3   2.0000     -10.323894      -280.9274
   4   2.0000     -10.314667      -280.6764
   5   2.0000     -10.313934      -280.6564
   6   2.0000     -10.305660      -280.4313
   7   2.0000     -10.304563      -280.4014
   8   2.0000     -10.300820      -280.2996
   9   2.0000     -10.299215      -280.2559
  10   2.0000     -10.298862      -280.2463
  11   2.0000     -10.291586      -280.0483
  12   2.0000     -10.290830      -280.0277
  13   2.0000     -10.288318      -279.9594
  14   2.0000     -10.287996      -279.9506
  15   2.0000     -10.283140      -279.8185
  16   2.0000      -8.080626      -219.8850
  17   2.0000      -8.075163      -219.7363
  18   2.0000      -6.039012      -164.3299
  19   2.0000      -6.035159      -164.2250
  20   2.0000      -6.033814      -164.1884
  21   2.0000      -6.031519      -164.1260
  22   2.0000      -6.029805      -164.0793
  23   2.0000      -6.025648      -163.9662
  24   2.0000      -1.008319       -27.4378
  25   2.0000      -0.985849       -26.8263
  26   2.0000      -0.913563       -24.8593
  27   2.0000      -0.902599       -24.5610
  28   2.0000      -0.868407       -23.6306
  29   2.0000      -0.848251       -23.0821
  30   2.0000      -0.839830       -22.8529
  31   2.0000      -0.813186       -22.1279
  32   2.0000      -0.780599       -21.2412
  33   2.0000      -0.772985       -21.0340
  34   2.0000      -0.708725       -19.2854
  35   2.0000      -0.697155       -18.9705
  36   2.0000      -0.688993       -18.7485
  37   2.0000      -0.660235       -17.9659
  38   2.0000      -0.647079       -17.6079
  39   2.0000      -0.615338       -16.7442
  40   2.0000      -0.594678       -16.1820
  41   2.0000      -0.571754       -15.5582
  42   2.0000      -0.558348       -15.1934
  43   2.0000      -0.545043       -14.8314
  44   2.0000      -0.534628       -14.5480
  45   2.0000      -0.519104       -14.1256
  46   2.0000      -0.517027       -14.0690
  47   2.0000      -0.509821       -13.8729
  48   2.0000      -0.503456       -13.6997
  49   2.0000      -0.496010       -13.4971
  50   2.0000      -0.486357       -13.2345
  51   2.0000      -0.473381       -12.8814
  52   2.0000      -0.470165       -12.7938
  53   2.0000      -0.466425       -12.6921
  54   2.0000      -0.456249       -12.4152
  55   2.0000      -0.447720       -12.1831
  56   2.0000      -0.444527       -12.0962
  57   2.0000      -0.436746       -11.8845
  58   2.0000      -0.429022       -11.6743
  59   2.0000      -0.427702       -11.6384
  60   2.0000      -0.417922       -11.3722
  61   2.0000      -0.412020       -11.2116
  62   2.0000      -0.405601       -11.0370
  63   2.0000      -0.336460        -9.1555
  64   2.0000      -0.333598        -9.0777
  65   2.0000      -0.326610        -8.8875
  66   2.0000      -0.306580        -8.3425
  67   0.0000       0.038015         1.0344
  68   0.0000       0.058275         1.5857
  69   0.0000       0.113184         3.0799
  70   0.0000       0.117597         3.2000
  71   0.0000       0.136042         3.7019

MULLIKEN ATOMIC CHARGES
-----------------------
   0 S :    0.122542
   1 C :   -0.116539
   2 C :   -0.054433
   3 C :    0.008029
   4 C :   -0.180557
   5 H :    0.049143
   6 C :    0.018107
   7 H :    0.040043
   8 H :    0.024594
   9 C :   -0.070986
  10 H :    0.021691
  11 H :    0.039159
  12 C :   -0.063106
  13 H :    0.017259
  14 H :    0.032483
  15 H :    0.072469
  16 S :    0.088510
  17 C :   -0.067670
  18 C :   -0.038077
  19 C :   -0.018079
  20 C :   -0.182062
  21 H :    0.031036
  22 C :    0.029313
  23 H :    0.031987
  24 H :    0.031848
  25 C :   -0.022883
  26 H :    0.009294
  27 H :    0.027432
  28 C :   -0.072805
  29 H :    0.029863
  30 H :    0.029310
  31 H :    0.036459
  32 H :    0.042159
  33 H :    0.054469
Sum of atomic charges:   -0.0000000

LOEWDIN ATOMIC CHARGES
----------------------
   0 S :    0.408339
   1 C :   -0.191136
   2 C :   -0.064067
   3 C :   -0.066554
   4 C :   -0.200567
   5 H :    0.041315
   6 C :   -0.039425
   7 H :    0.036609
   8 H :    0.030274
   9 C :   -0.041102
  10 H :    0.023879
  11 H :    0.024512
  12 C :   -0.076262
  13 H :    0.024258
  14 H :    0.026449
  15 H :    0.043143
  16 S :    0.378052
  17 C :   -0.176133
  18 C :   -0.079207
  19 C :   -0.058529
  20 C :   -0.183261
  21 H :    0.038834
  22 C :   -0.037650
  23 H :    0.035967
  24 H :    0.032184
  25 C :   -0.040758
  26 H :    0.021930
  27 H :    0.026854
  28 C :   -0.076317
  29 H :    0.023184
  30 H :    0.027290
  31 H :    0.031637
  32 H :    0.022806
  33 H :    0.033452

  Mayer bond orders larger than 0.100000
B(  0-S ,  1-C ) :   1.1510 B(  0-S ,  4-C ) :   1.1523 B(  1-C ,  2-C ) :   1.5967
B(  1-C ,  4-C ) :   0.1034 B(  1-C , 32-H ) :   0.9718 B(  2-C ,  3-C ) :   1.2441
B(  2-C ,  6-C ) :   1.0206 B(  3-C ,  4-C ) :   1.5937 B(  3-C ,  5-H ) :   0.9670
B(  4-C , 20-C ) :   1.0262 B(  6-C ,  7-H ) :   0.9434 B(  6-C ,  8-H ) :   0.9440
B(  6-C ,  9-C ) :   1.0795 B(  9-C , 10-H ) :   0.9551 B(  9-C , 11-H ) :   0.9619
B(  9-C , 12-C ) :   1.0491 B( 12-C , 13-H ) :   0.9739 B( 12-C , 14-H ) :   0.9779
B( 12-C , 15-H ) :   0.9750 B( 16-S , 17-C ) :   1.1389 B( 16-S , 20-C ) :   1.1101
B( 17-C , 18-C ) :   1.6400 B( 17-C , 33-H ) :   0.9660 B( 18-C , 19-C ) :   1.2226
B( 18-C , 21-H ) :   0.9786 B( 19-C , 20-C ) :   1.6530 B( 19-C , 22-C ) :   1.0466
B( 22-C , 23-H ) :   0.9392 B( 22-C , 24-H ) :   0.9241 B( 22-C , 25-C ) :   1.0620
B( 25-C , 26-H ) :   0.9478 B( 25-C , 27-H ) :   0.9520 B( 25-C , 28-C ) :   1.0870
B( 28-C , 29-H ) :   0.9734 B( 28-C , 30-H ) :   0.9716 B( 28-C , 31-H ) :   0.9738

Dispersion correction           -0.014757023
FINAL SINGLE POINT ENERGY     -1339.871564719097

DIPOLE MOMENT
-------------
                                X             Y             Z
Electronic contribution:     12.18295      -2.52617      20.71401
Nuclear contribution   :    -12.64220       2.54444     -21.18029
                        -----------------------------------------
Total Dipole Moment    :     -0.45925       0.01828      -0.46628
                        -----------------------------------------
Magnitude (a.u.)       :      0.65472
Magnitude (Debye)      :      1.66418

Rotational constants in cm-1:     0.018096     0.009038     0.007225
Rotational constants in MHz :   542.495860   270.957783   216.613772

                             ****ORCA TERMINATED NORMALLY****
TOTAL RUN TIME: 0 days 0 hours 0 minutes 30 seconds 444 msec
