                         Program Version 4.2.1 -  RELEASE  -
|  1> ! wB97X-D3 SP def2-SVP
|  2> %pal
|  3> nprocs 16
|  4> end
|  5>
|  6> * xyz 0 1
|  7> S 	 13.3473 	 -9.4483 	 78.8331
|  8> C 	 13.5112 	 -8.34003 	 77.5595
|  9> C 	 14.6467 	 -8.59809 	 76.7785
| 10> C 	 15.1409 	 -9.90051 	 76.9784
| 11> C 	 14.681 	 -10.4386 	 78.1626
| 12> H 	 15.7917 	 -10.4919 	 76.3309
| 13> C 	 14.9718 	 -7.73015 	 75.593
| 14> H 	 14.0693 	 -7.78383 	 74.9952
| 15> H 	 15.7487 	 -8.28328 	 75.0511
| 16> C 	 15.3945 	 -6.27929 	 75.7893
| 17> H 	 15.4394 	 -5.74461 	 74.8202
| 18> H 	 14.8211 	 -5.74677 	 76.5406
| 19> C 	 16.7598 	 -6.43402 	 76.4837
| 20> H 	 17.557 	 -6.64587 	 75.7049
| 21> H 	 17.1091 	 -5.46553 	 76.8128
| 22> H 	 16.9074 	 -7.06126 	 77.3383
| 23> S 	 13.557 	 -12.793 	 78.8842
| 24> C 	 14.6188 	 -14.1649 	 79.1338
| 25> C 	 15.9191 	 -13.8937 	 78.9125
| 26> C 	 16.1468 	 -12.5353 	 78.5703
| 27> C 	 14.9341 	 -11.8138 	 78.612
| 28> H 	 16.6886 	 -14.6385 	 78.9944
| 29> C 	 17.5184 	 -11.9245 	 78.3219
| 30> H 	 17.5198 	 -10.8781 	 78.1358
| 31> H 	 17.997 	 -12.3367 	 77.3988
| 32> C 	 18.5798 	 -12.1464 	 79.3361
| 33> H 	 18.6463 	 -13.1982 	 79.7565
| 34> H 	 18.2673 	 -11.5921 	 80.2415
| 35> C 	 20.016 	 -11.6396 	 79.0627
| 36> H 	 20.6217 	 -11.8429 	 79.9545
| 37> H 	 20.1381 	 -10.597 	 78.657
| 38> H 	 20.404 	 -12.2423 	 78.3092
| 39> H 	 12.9256 	 -7.4294 	 77.4266
| 40> H 	 14.3004 	 -15.1209 	 79.3651
| 41> *
| 42>
| 43>                          ****END OF INPUT****

CARTESIAN COORDINATES (ANGSTROEM)
---------------------------------
  S     13.347300   -9.448300   78.833100
  C     13.511200   -8.340030   77.559500
  C     14.646700   -8.598090   76.778500
  C     15.140900   -9.900510   76.978400
  C     14.681000  -10.438600   78.162600
  H     15.791700  -10.491900   76.330900
  C     14.971800   -7.730150   75.593000
  H     14.069300   -7.783830   74.995200
  H     15.748700   -8.283280   75.051100
  C     15.394500   -6.279290   75.789300
  H     15.439400   -5.744610   74.820200
  H     14.821100   -5.746770   76.540600
  C     16.759800   -6.434020   76.483700
  H     17.557000   -6.645870   75.704900
  H     17.109100   -5.465530   76.812800
  H     16.907400   -7.061260   77.338300
  S     13.557000  -12.793000   78.884200
  C     14.618800  -14.164900   79.133800
  C     15.919100  -13.893700   78.912500
  C     16.146800  -12.535300   78.570300
  C     14.934100  -11.813800   78.612000
  H     16.688600  -14.638500   78.994400
  C     17.518400  -11.924500   78.321900
  H     17.519800  -10.878100   78.135800
  H     17.997000  -12.336700   77.398800
  C     18.579800  -12.146400   79.336100
  H     18.646300  -13.198200   79.756500
  H     18.267300  -11.592100   80.241500
  C     20.016000  -11.639600   79.062700
  H     20.621700  -11.842900   79.954500
  H     20.138100  -10.597000   78.657000
  H     20.404000  -12.242300   78.309200
  H     12.925600   -7.429400   77.426600
  H     14.300400  -15.120900   79.365100

 Total Charge           Charge          ....    0
 Multiplicity           Mult            ....    1
 Number of Electrons    NEL             ....  134
 Basis Dimension        Dim             ....  322

ORBITAL ENERGIES
----------------

  NO   OCC          E(Eh)            E(eV)
   0   2.0000     -88.968072     -2420.9443
   1   2.0000     -88.966840     -2420.9108
   2   2.0000     -10.327206      -281.0175
   3   2.0000     -10.324334      -280.9394
   4   2.0000     -10.310556      -280.5645
   5   2.0000     -10.307140      -280.4716
   6   2.0000     -10.304373      -280.3962
   7   2.0000     -10.297669      -280.2138
   8   2.0000     -10.294399      -280.1248
   9   2.0000     -10.291281      -280.0400
  10   2.0000     -10.289596      -279.9942
  11   2.0000     -10.289231      -279.9842
  12   2.0000     -10.286228      -279.9025
  13   2.0000     -10.286209      -279.9020
  14   2.0000     -10.278820      -279.7009
  15   2.0000     -10.274348      -279.5792
  16   2.0000      -8.082874      -219.9462
  17   2.0000      -8.082249      -219.9292
  18   2.0000      -6.041228      -164.3902
  19   2.0000      -6.040648      -164.3744
  20   2.0000      -6.037357      -164.2848
  21   2.0000      -6.036774      -164.2690
  22   2.0000      -6.033826      -164.1888
  23   2.0000      -6.032966      -164.1654
  24   2.0000      -1.010731       -27.5034
  25   2.0000      -0.989068       -26.9139
  26   2.0000      -0.915230       -24.9047
  27   2.0000      -0.912188       -24.8219
  28   2.0000      -0.871514       -23.7151
  29   2.0000      -0.856460       -23.3055
  30   2.0000      -0.847782       -23.0693
  31   2.0000      -0.815855       -22.2005
  32   2.0000      -0.784256       -21.3407
  33   2.0000      -0.767087       -20.8735
  34   2.0000      -0.706088       -19.2136
  35   2.0000      -0.700289       -19.0558
  36   2.0000      -0.693617       -18.8743
  37   2.0000      -0.660356       -17.9692
  38   2.0000      -0.639299       -17.3962
  39   2.0000      -0.616391       -16.7729
  40   2.0000      -0.603429       -16.4201
  41   2.0000      -0.576406       -15.6848
  42   2.0000      -0.560614       -15.2551
  43   2.0000      -0.556682       -15.1481
  44   2.0000      -0.539198       -14.6723
  45   2.0000      -0.525388       -14.2965
  46   2.0000      -0.511282       -13.9127
  47   2.0000      -0.510575       -13.8935
  48   2.0000      -0.506991       -13.7959
  49   2.0000      -0.498043       -13.5524
  50   2.0000      -0.487379       -13.2622
  51   2.0000      -0.479998       -13.0614
  52   2.0000      -0.475388       -12.9360
  53   2.0000      -0.462119       -12.5749
  54   2.0000      -0.461869       -12.5681
  55   2.0000      -0.456489       -12.4217
  56   2.0000      -0.446360       -12.1461
  57   2.0000      -0.438519       -11.9327
  58   2.0000      -0.431325       -11.7370
  59   2.0000      -0.428663       -11.6645
  60   2.0000      -0.420570       -11.4443
  61   2.0000      -0.413579       -11.2541
  62   2.0000      -0.400556       -10.8997
  63   2.0000      -0.354716        -9.6523
  64   2.0000      -0.333283        -9.0691
  65   2.0000      -0.324479        -8.8295
  66   2.0000      -0.284541        -7.7428
  67   0.0000       0.026823         0.7299
  68   0.0000       0.075993         2.0679
  69   0.0000       0.108930         2.9641
  70   0.0000       0.120969         3.2917
  71   0.0000       0.129937         3.5358

MULLIKEN ATOMIC CHARGES
-----------------------
   0 S :    0.116635
   1 C :   -0.124435
   2 C :   -0.106554
   3 C :    0.016166
   4 C :   -0.155836
   5 H :    0.033885
   6 C :    0.050570
   7 H :    0.034671
   8 H :    0.012785
   9 C :   -0.027990
  10 H :    0.046244
  11 H :    0.031587
  12 C :   -0.087423
  13 H :    0.025695
  14 H :    0.010954
  15 H :    0.050982
  16 S :    0.118219
  17 C :   -0.054569
  18 C :   -0.020340
  19 C :   -0.024097
  20 C :   -0.147208
  21 H :    0.011199
  22 C :    0.101774
  23 H :    0.013392
  24 H :    0.017867
  25 C :   -0.133808
  26 H :    0.029998
  27 H :    0.025178
  28 C :   -0.036520
  29 H :    0.042486
  30 H :    0.041765
  31 H :    0.009929
  32 H :    0.057295
  33 H :    0.019507
Sum of atomic charges:   -0.0000000

LOEWDIN ATOMIC CHARGES
----------------------
   0 S :    0.410437
   1 C :   -0.213870
   2 C :   -0.067956
   3 C :   -0.055287
   4 C :   -0.186943
   5 H :    0.038393
   6 C :   -0.037451
   7 H :    0.029620
   8 H :    0.028187
   9 C :   -0.036434
  10 H :    0.034758
  11 H :    0.023991
  12 C :   -0.071302
  13 H :    0.028431
  14 H :    0.017267
  15 H :    0.025941
  16 S :    0.423411
  17 C :   -0.172213
  18 C :   -0.060881
  19 C :   -0.053710
  20 C :   -0.207267
  21 H :    0.030917
  22 C :   -0.039561
  23 H :    0.026727
  24 H :    0.031910
  25 C :   -0.052412
  26 H :    0.026198
  27 H :    0.022940
  28 C :   -0.065057
  29 H :    0.034259
  30 H :    0.032100
  31 H :    0.012061
  32 H :    0.029973
  33 H :    0.012821

  Mayer bond orders larger than 0.100000
B(  0-S ,  1-C ) :   1.1608 B(  0-S ,  4-C ) :   1.1461 B(  1-C ,  2-C ) :   1.5736
B(  1-C , 32-H ) :   0.9654 B(  2-C ,  3-C ) :   1.2530 B(  2-C ,  6-C ) :   1.0172
B(  3-C ,  4-C ) :   1.5680 B(  3-C ,  5-H ) :   0.9826 B(  4-C , 20-C ) :   1.0341
B(  6-C ,  7-H ) :   0.9384 B(  6-C ,  8-H ) :   0.9440 B(  6-C ,  9-C ) :   1.0711
B(  9-C , 10-H ) :   0.9527 B(  9-C , 11-H ) :   0.9597 B(  9-C , 12-C ) :   1.0642
B( 12-C , 13-H ) :   0.9738 B( 12-C , 14-H ) :   0.9729 B( 12-C , 15-H ) :   0.9788
B( 16-S , 17-C ) :   1.1416 B( 16-S , 20-C ) :   1.1631 B( 17-C , 18-C ) :   1.6210
B( 17-C , 33-H ) :   0.9746 B( 18-C , 19-C ) :   1.2460 B( 18-C , 21-H ) :   0.9926
B( 19-C , 20-C ) :   1.5794 B( 19-C , 22-C ) :   1.0440 B( 22-C , 23-H ) :   0.9312
B( 22-C , 24-H ) :   0.9275 B( 22-C , 25-C ) :   1.0609 B( 25-C , 26-H ) :   0.9516
B( 25-C , 27-H ) :   0.9524 B( 25-C , 28-C ) :   1.0826 B( 28-C , 29-H ) :   0.9720
B( 28-C , 30-H ) :   0.9739 B( 28-C , 31-H ) :   0.9725

Dispersion correction           -0.013928874
FINAL SINGLE POINT ENERGY     -1339.862727699809

DIPOLE MOMENT
-------------
                                X             Y             Z
Electronic contribution:    -26.36922     -12.05877       8.26246
Nuclear contribution   :     26.81990      12.13208      -8.67424
                        -----------------------------------------
Total Dipole Moment    :      0.45067       0.07331      -0.41177
                        -----------------------------------------
Magnitude (a.u.)       :      0.61485
Magnitude (Debye)      :      1.56282

Rotational constants in cm-1:     0.017128     0.009281     0.006511
Rotational constants in MHz :   513.482091   278.243721   195.187946

                             ****ORCA TERMINATED NORMALLY****
TOTAL RUN TIME: 0 days 0 hours 0 minutes 29 seconds 743 msec
