                         Program Version 4.2.1 -  RELEASE  -
|  1> ! wB97X-D3 SP def2-SVP
|  2> %pal
|  3> nprocs 16
|  4> end
|  5>
|  6> * xyz 0 1
|  7> S 	 13.2819 	 22.1372 	 50.5552
|  8> C 	 13.2355 	 21.4516 	 52.1888
|  9> C 	 12.0697 	 21.8056 	 52.8167
| 10> C 	 11.317 	 22.7473 	 52.0412
| 11> C 	 11.7264 	 22.8525 	 50.8062
| 12> H 	 10.2972 	 23.1326 	 52.361
| 13> C 	 11.6402 	 21.348 	 54.255
| 14> H 	 10.5705 	 21.5854 	 54.4154
| 15> H 	 12.2619 	 21.9427 	 54.8985
| 16> C 	 11.9667 	 19.8985 	 54.5774
| 17> H 	 11.551 	 19.2883 	 53.814
| 18> H 	 12.9784 	 19.7285 	 54.5437
| 19> C 	 11.5183 	 19.4233 	 55.9396
| 20> H 	 10.4608 	 19.2738 	 55.9098
| 21> H 	 12.0722 	 18.5457 	 56.2173
| 22> H 	 11.8341 	 20.1621 	 56.6571
| 23> S 	 10.7335 	 22.3014 	 48.3355
| 24> C 	 9.75839 	 23.5479 	 47.4556
| 25> C 	 9.9498 	 24.7439 	 48.0753
| 26> C 	 10.6696 	 24.7078 	 49.3033
| 27> C 	 11.0437 	 23.3972 	 49.6548
| 28> H 	 9.59776 	 25.6689 	 47.5894
| 29> C 	 10.8071 	 25.9068 	 50.1669
| 30> H 	 10.2754 	 25.6908 	 51.1511
| 31> H 	 10.2333 	 26.6987 	 49.6892
| 32> C 	 12.2708 	 26.3254 	 50.3961
| 33> H 	 12.6981 	 26.2323 	 49.4303
| 34> H 	 12.779 	 25.6938 	 51.1848
| 35> C 	 12.4874 	 27.808 	 50.8302
| 36> H 	 11.8043 	 28.5027 	 50.3346
| 37> H 	 13.4717 	 28.2082 	 50.6258
| 38> H 	 12.3545 	 27.9766 	 51.8627
| 39> H 	 13.9361 	 20.7805 	 52.5955
| 40> H 	 9.1951 	 23.518 	 46.5472
| 41> *
| 42>
| 43>                          ****END OF INPUT****

CARTESIAN COORDINATES (ANGSTROEM)
---------------------------------
  S     13.281900   22.137200   50.555200
  C     13.235500   21.451600   52.188800
  C     12.069700   21.805600   52.816700
  C     11.317000   22.747300   52.041200
  C     11.726400   22.852500   50.806200
  H     10.297200   23.132600   52.361000
  C     11.640200   21.348000   54.255000
  H     10.570500   21.585400   54.415400
  H     12.261900   21.942700   54.898500
  C     11.966700   19.898500   54.577400
  H     11.551000   19.288300   53.814000
  H     12.978400   19.728500   54.543700
  C     11.518300   19.423300   55.939600
  H     10.460800   19.273800   55.909800
  H     12.072200   18.545700   56.217300
  H     11.834100   20.162100   56.657100
  S     10.733500   22.301400   48.335500
  C      9.758390   23.547900   47.455600
  C      9.949800   24.743900   48.075300
  C     10.669600   24.707800   49.303300
  C     11.043700   23.397200   49.654800
  H      9.597760   25.668900   47.589400
  C     10.807100   25.906800   50.166900
  H     10.275400   25.690800   51.151100
  H     10.233300   26.698700   49.689200
  C     12.270800   26.325400   50.396100
  H     12.698100   26.232300   49.430300
  H     12.779000   25.693800   51.184800
  C     12.487400   27.808000   50.830200
  H     11.804300   28.502700   50.334600
  H     13.471700   28.208200   50.625800
  H     12.354500   27.976600   51.862700
  H     13.936100   20.780500   52.595500
  H      9.195100   23.518000   46.547200

 Total Charge           Charge          ....    0
 Multiplicity           Mult            ....    1
 Number of Electrons    NEL             ....  134
 Basis Dimension        Dim             ....  322

ORBITAL ENERGIES
----------------

  NO   OCC          E(Eh)            E(eV)
   0   2.0000     -88.965924     -2420.8859
   1   2.0000     -88.962374     -2420.7893
   2   2.0000     -10.325337      -280.9667
   3   2.0000     -10.320531      -280.8359
   4   2.0000     -10.316625      -280.7296
   5   2.0000     -10.308479      -280.5080
   6   2.0000     -10.302343      -280.3410
   7   2.0000     -10.300183      -280.2822
   8   2.0000     -10.295324      -280.1500
   9   2.0000     -10.292327      -280.0685
  10   2.0000     -10.291909      -280.0571
  11   2.0000     -10.291107      -280.0353
  12   2.0000     -10.285401      -279.8800
  13   2.0000     -10.272743      -279.5355
  14   2.0000     -10.272236      -279.5218
  15   2.0000     -10.270508      -279.4747
  16   2.0000      -8.079633      -219.8580
  17   2.0000      -8.077442      -219.7984
  18   2.0000      -6.038352      -164.3119
  19   2.0000      -6.036052      -164.2493
  20   2.0000      -6.034255      -164.2004
  21   2.0000      -6.032043      -164.1402
  22   2.0000      -6.030227      -164.0908
  23   2.0000      -6.027924      -164.0281
  24   2.0000      -1.012811       -27.5600
  25   2.0000      -0.983782       -26.7701
  26   2.0000      -0.916793       -24.9472
  27   2.0000      -0.904739       -24.6192
  28   2.0000      -0.874803       -23.8046
  29   2.0000      -0.849382       -23.1129
  30   2.0000      -0.844121       -22.9697
  31   2.0000      -0.822134       -22.3714
  32   2.0000      -0.783146       -21.3105
  33   2.0000      -0.768664       -20.9164
  34   2.0000      -0.712640       -19.3919
  35   2.0000      -0.705113       -19.1871
  36   2.0000      -0.689607       -18.7652
  37   2.0000      -0.659344       -17.9417
  38   2.0000      -0.643768       -17.5178
  39   2.0000      -0.615725       -16.7547
  40   2.0000      -0.589198       -16.0329
  41   2.0000      -0.582891       -15.8613
  42   2.0000      -0.564999       -15.3744
  43   2.0000      -0.561970       -15.2920
  44   2.0000      -0.524401       -14.2697
  45   2.0000      -0.521485       -14.1903
  46   2.0000      -0.517831       -14.0909
  47   2.0000      -0.515323       -14.0226
  48   2.0000      -0.508460       -13.8359
  49   2.0000      -0.503328       -13.6963
  50   2.0000      -0.495352       -13.4792
  51   2.0000      -0.480172       -13.0661
  52   2.0000      -0.473245       -12.8777
  53   2.0000      -0.462839       -12.5945
  54   2.0000      -0.454857       -12.3773
  55   2.0000      -0.447422       -12.1750
  56   2.0000      -0.444239       -12.0883
  57   2.0000      -0.433514       -11.7965
  58   2.0000      -0.429582       -11.6895
  59   2.0000      -0.425670       -11.5831
  60   2.0000      -0.420657       -11.4467
  61   2.0000      -0.418069       -11.3762
  62   2.0000      -0.416372       -11.3301
  63   2.0000      -0.347147        -9.4464
  64   2.0000      -0.329630        -8.9697
  65   2.0000      -0.326212        -8.8767
  66   2.0000      -0.296987        -8.0814
  67   0.0000       0.035349         0.9619
  68   0.0000       0.063146         1.7183
  69   0.0000       0.110422         3.0047
  70   0.0000       0.119903         3.2627
  71   0.0000       0.132950         3.6177

MULLIKEN ATOMIC CHARGES
-----------------------
   0 S :    0.106618
   1 C :   -0.114843
   2 C :   -0.111791
   3 C :    0.017487
   4 C :   -0.137566
   5 H :    0.032546
   6 C :    0.089776
   7 H :    0.028127
   8 H :    0.032178
   9 C :   -0.083839
  10 H :    0.022515
  11 H :    0.003730
  12 C :   -0.003915
  13 H :    0.035116
  14 H :    0.026369
  15 H :    0.017733
  16 S :    0.106830
  17 C :   -0.075839
  18 C :   -0.051532
  19 C :   -0.030022
  20 C :   -0.170628
  21 H :    0.026562
  22 C :    0.069706
  23 H :    0.044380
  24 H :    0.007393
  25 C :   -0.079256
  26 H :    0.028213
  27 H :    0.060431
  28 C :   -0.034542
  29 H :    0.015906
  30 H :    0.028006
  31 H :    0.017988
  32 H :    0.030063
  33 H :    0.046098
Sum of atomic charges:    0.0000000

LOEWDIN ATOMIC CHARGES
----------------------
   0 S :    0.395923
   1 C :   -0.187856
   2 C :   -0.054835
   3 C :   -0.074236
   4 C :   -0.195465
   5 H :    0.043164
   6 C :   -0.022777
   7 H :    0.030575
   8 H :    0.031479
   9 C :   -0.039321
  10 H :    0.020833
  11 H :    0.010832
  12 C :   -0.052063
  13 H :    0.023524
  14 H :    0.026942
  15 H :    0.023492
  16 S :    0.392899
  17 C :   -0.172067
  18 C :   -0.073622
  19 C :   -0.061560
  20 C :   -0.197623
  21 H :    0.034956
  22 C :   -0.037358
  23 H :    0.039596
  24 H :    0.026901
  25 C :   -0.037453
  26 H :    0.021622
  27 H :    0.037516
  28 C :   -0.067459
  29 H :    0.021773
  30 H :    0.025997
  31 H :    0.017201
  32 H :    0.017344
  33 H :    0.031126

  Mayer bond orders larger than 0.100000
B(  0-S ,  1-C ) :   1.1062 B(  0-S ,  4-C ) :   1.1330 B(  1-C ,  2-C ) :   1.6615
B(  1-C , 32-H ) :   0.9764 B(  2-C ,  3-C ) :   1.2082 B(  2-C ,  6-C ) :   1.0027
B(  3-C ,  4-C ) :   1.6583 B(  3-C ,  5-H ) :   0.9781 B(  4-C , 20-C ) :   1.0203
B(  6-C ,  7-H ) :   0.9502 B(  6-C ,  8-H ) :   0.9290 B(  6-C ,  9-C ) :   1.0736
B(  9-C , 10-H ) :   0.9598 B(  9-C , 11-H ) :   0.9462 B(  9-C , 12-C ) :   1.0988
B( 12-C , 13-H ) :   0.9771 B( 12-C , 14-H ) :   0.9724 B( 12-C , 15-H ) :   0.9700
B( 16-S , 17-C ) :   1.1263 B( 16-S , 20-C ) :   1.1437 B( 17-C , 18-C ) :   1.6359
B( 17-C , 20-C ) :   0.1061 B( 17-C , 33-H ) :   0.9677 B( 18-C , 19-C ) :   1.2510
B( 18-C , 21-H ) :   0.9754 B( 19-C , 20-C ) :   1.5658 B( 19-C , 22-C ) :   1.0566
B( 22-C , 23-H ) :   0.9306 B( 22-C , 24-H ) :   0.9295 B( 22-C , 25-C ) :   1.0513
B( 25-C , 26-H ) :   0.9608 B( 25-C , 27-H ) :   0.9536 B( 25-C , 28-C ) :   1.0831
B( 28-C , 29-H ) :   0.9740 B( 28-C , 30-H ) :   0.9769 B( 28-C , 31-H ) :   0.9755

Dispersion correction           -0.013912721
FINAL SINGLE POINT ENERGY     -1339.865278467179

DIPOLE MOMENT
-------------
                                X             Y             Z
Electronic contribution:      0.38496      -7.47869     -21.70586
Nuclear contribution   :     -0.58807       7.72130      22.15046
                        -----------------------------------------
Total Dipole Moment    :     -0.20311       0.24261       0.44460
                        -----------------------------------------
Magnitude (a.u.)       :      0.54569
Magnitude (Debye)      :      1.38705

Rotational constants in cm-1:     0.020311     0.007539     0.006407
Rotational constants in MHz :   608.901287   226.019752   192.063093

                             ****ORCA TERMINATED NORMALLY****
TOTAL RUN TIME: 0 days 0 hours 0 minutes 31 seconds 662 msec
