                         Program Version 4.2.1 -  RELEASE  -
|  1> ! wB97X-D3 SP def2-SVP
|  2> %pal
|  3> nprocs 16
|  4> end
|  5>
|  6> * xyz 0 1
|  7> S 	 32.9816 	 27.3383 	 53.6485
|  8> C 	 33.4414 	 28.6161 	 52.628
|  9> C 	 34.5426 	 28.2489 	 51.883
| 10> C 	 34.9476 	 26.9324 	 52.0832
| 11> C 	 34.1335 	 26.2222 	 52.9505
| 12> H 	 35.8107 	 26.4972 	 51.6563
| 13> C 	 35.3979 	 29.2343 	 51.1267
| 14> H 	 35.1445 	 30.235 	 51.5121
| 15> H 	 35.176 	 29.2363 	 50.0566
| 16> C 	 36.8728 	 29.1205 	 51.197
| 17> H 	 37.1248 	 28.1686 	 50.7426
| 18> H 	 37.4535 	 29.8868 	 50.5996
| 19> C 	 37.3543 	 29.1014 	 52.6274
| 20> H 	 37.0964 	 29.9884 	 53.1116
| 21> H 	 37.1857 	 28.2487 	 53.2787
| 22> H 	 38.4416 	 29.1829 	 52.5986
| 23> S 	 34.3205 	 24.5659 	 55.1717
| 24> C 	 34.8922 	 22.9787 	 54.9923
| 25> C 	 35.0022 	 22.5606 	 53.6475
| 26> C 	 34.7568 	 23.6605 	 52.7454
| 27> C 	 34.3325 	 24.8072 	 53.4237
| 28> H 	 35.3758 	 21.5366 	 53.5182
| 29> C 	 35.0819 	 23.5135 	 51.3145
| 30> H 	 35.6719 	 22.6311 	 51.1348
| 31> H 	 35.5958 	 24.4069 	 51.156
| 32> C 	 33.8073 	 23.361 	 50.4192
| 33> H 	 33.1117 	 24.1926 	 50.7118
| 34> H 	 33.2397 	 22.3863 	 50.4858
| 35> C 	 34.0265 	 23.5001 	 48.9038
| 36> H 	 34.8346 	 22.8465 	 48.651
| 37> H 	 34.3236 	 24.5156 	 48.7149
| 38> H 	 33.0466 	 23.2151 	 48.5128
| 39> H 	 32.9962 	 29.6048 	 52.6375
| 40> H 	 35.1094 	 22.2978 	 55.7737
| 41> *
| 42>
| 43>                          ****END OF INPUT****

CARTESIAN COORDINATES (ANGSTROEM)
---------------------------------
  S     32.981600   27.338300   53.648500
  C     33.441400   28.616100   52.628000
  C     34.542600   28.248900   51.883000
  C     34.947600   26.932400   52.083200
  C     34.133500   26.222200   52.950500
  H     35.810700   26.497200   51.656300
  C     35.397900   29.234300   51.126700
  H     35.144500   30.235000   51.512100
  H     35.176000   29.236300   50.056600
  C     36.872800   29.120500   51.197000
  H     37.124800   28.168600   50.742600
  H     37.453500   29.886800   50.599600
  C     37.354300   29.101400   52.627400
  H     37.096400   29.988400   53.111600
  H     37.185700   28.248700   53.278700
  H     38.441600   29.182900   52.598600
  S     34.320500   24.565900   55.171700
  C     34.892200   22.978700   54.992300
  C     35.002200   22.560600   53.647500
  C     34.756800   23.660500   52.745400
  C     34.332500   24.807200   53.423700
  H     35.375800   21.536600   53.518200
  C     35.081900   23.513500   51.314500
  H     35.671900   22.631100   51.134800
  H     35.595800   24.406900   51.156000
  C     33.807300   23.361000   50.419200
  H     33.111700   24.192600   50.711800
  H     33.239700   22.386300   50.485800
  C     34.026500   23.500100   48.903800
  H     34.834600   22.846500   48.651000
  H     34.323600   24.515600   48.714900
  H     33.046600   23.215100   48.512800
  H     32.996200   29.604800   52.637500
  H     35.109400   22.297800   55.773700

 Total Charge           Charge          ....    0
 Multiplicity           Mult            ....    1
 Number of Electrons    NEL             ....  134
 Basis Dimension        Dim             ....  322

ORBITAL ENERGIES
----------------

  NO   OCC          E(Eh)            E(eV)
   0   2.0000     -88.968654     -2420.9602
   1   2.0000     -88.967554     -2420.9302
   2   2.0000     -10.333497      -281.1887
   3   2.0000     -10.330842      -281.1165
   4   2.0000     -10.312879      -280.6277
   5   2.0000     -10.310374      -280.5595
   6   2.0000     -10.306625      -280.4575
   7   2.0000     -10.296755      -280.1889
   8   2.0000     -10.295061      -280.1428
   9   2.0000     -10.288382      -279.9611
  10   2.0000     -10.287991      -279.9505
  11   2.0000     -10.286153      -279.9005
  12   2.0000     -10.286138      -279.9000
  13   2.0000     -10.285026      -279.8698
  14   2.0000     -10.271647      -279.5057
  15   2.0000     -10.264953      -279.3236
  16   2.0000      -8.083897      -219.9740
  17   2.0000      -8.083017      -219.9501
  18   2.0000      -6.042305      -164.4195
  19   2.0000      -6.041441      -164.3960
  20   2.0000      -6.038297      -164.3104
  21   2.0000      -6.037301      -164.2833
  22   2.0000      -6.034787      -164.2149
  23   2.0000      -6.033957      -164.1923
  24   2.0000      -1.011205       -27.5163
  25   2.0000      -0.990457       -26.9517
  26   2.0000      -0.920822       -25.0568
  27   2.0000      -0.912389       -24.8274
  28   2.0000      -0.866355       -23.5747
  29   2.0000      -0.856954       -23.3189
  30   2.0000      -0.848930       -23.1006
  31   2.0000      -0.816083       -22.2067
  32   2.0000      -0.787063       -21.4171
  33   2.0000      -0.774983       -21.0884
  34   2.0000      -0.706002       -19.2113
  35   2.0000      -0.691722       -18.8227
  36   2.0000      -0.685854       -18.6630
  37   2.0000      -0.661901       -18.0113
  38   2.0000      -0.642196       -17.4751
  39   2.0000      -0.630377       -17.1534
  40   2.0000      -0.591558       -16.0971
  41   2.0000      -0.574093       -15.6219
  42   2.0000      -0.563594       -15.3362
  43   2.0000      -0.559469       -15.2239
  44   2.0000      -0.544577       -14.8187
  45   2.0000      -0.538711       -14.6591
  46   2.0000      -0.520324       -14.1587
  47   2.0000      -0.513448       -13.9716
  48   2.0000      -0.503379       -13.6976
  49   2.0000      -0.497597       -13.5403
  50   2.0000      -0.494250       -13.4492
  51   2.0000      -0.488145       -13.2831
  52   2.0000      -0.472955       -12.8698
  53   2.0000      -0.469385       -12.7726
  54   2.0000      -0.462270       -12.5790
  55   2.0000      -0.447933       -12.1889
  56   2.0000      -0.439014       -11.9462
  57   2.0000      -0.435016       -11.8374
  58   2.0000      -0.427185       -11.6243
  59   2.0000      -0.422506       -11.4970
  60   2.0000      -0.417947       -11.3729
  61   2.0000      -0.413900       -11.2628
  62   2.0000      -0.409821       -11.1518
  63   2.0000      -0.351677        -9.5696
  64   2.0000      -0.332387        -9.0447
  65   2.0000      -0.329226        -8.9587
  66   2.0000      -0.286189        -7.7876
  67   0.0000       0.030169         0.8210
  68   0.0000       0.070500         1.9184
  69   0.0000       0.110150         2.9973
  70   0.0000       0.125979         3.4281
  71   0.0000       0.133417         3.6305

MULLIKEN ATOMIC CHARGES
-----------------------
   0 S :    0.116098
   1 C :   -0.128675
   2 C :   -0.075592
   3 C :    0.013925
   4 C :   -0.139466
   5 H :    0.002187
   6 C :    0.093443
   7 H :    0.010652
   8 H :    0.032586
   9 C :   -0.099874
  10 H :    0.016319
  11 H :    0.042247
  12 C :   -0.025678
  13 H :    0.008386
  14 H :    0.047797
  15 H :    0.014184
  16 S :    0.121676
  17 C :   -0.089562
  18 C :   -0.059448
  19 C :   -0.060721
  20 C :   -0.141051
  21 H :    0.028700
  22 C :    0.157860
  23 H :    0.016448
  24 H :   -0.006533
  25 C :   -0.161838
  26 H :    0.044565
  27 H :    0.038147
  28 C :   -0.002441
  29 H :    0.021390
  30 H :    0.027246
  31 H :    0.042203
  32 H :    0.052015
  33 H :    0.042804
Sum of atomic charges:    0.0000000

LOEWDIN ATOMIC CHARGES
----------------------
   0 S :    0.432080
   1 C :   -0.211845
   2 C :   -0.067975
   3 C :   -0.066674
   4 C :   -0.192998
   5 H :    0.022340
   6 C :   -0.035422
   7 H :    0.026288
   8 H :    0.031799
   9 C :   -0.046423
  10 H :    0.017557
  11 H :    0.037412
  12 C :   -0.066566
  13 H :    0.016095
  14 H :    0.030082
  15 H :    0.026601
  16 S :    0.427498
  17 C :   -0.197369
  18 C :   -0.076371
  19 C :   -0.045633
  20 C :   -0.203037
  21 H :    0.036709
  22 C :   -0.027183
  23 H :    0.030350
  24 H :    0.023770
  25 C :   -0.043058
  26 H :    0.028244
  27 H :    0.028544
  28 C :   -0.058742
  29 H :    0.018140
  30 H :    0.020344
  31 H :    0.031644
  32 H :    0.032247
  33 H :    0.021554

  Mayer bond orders larger than 0.100000
B(  0-S ,  1-C ) :   1.1619 B(  0-S ,  4-C ) :   1.1800 B(  1-C ,  2-C ) :   1.5711
B(  1-C ,  4-C ) :   0.1030 B(  1-C , 32-H ) :   0.9697 B(  2-C ,  3-C ) :   1.2996
B(  2-C ,  6-C ) :   1.0082 B(  3-C ,  4-C ) :   1.5242 B(  3-C ,  5-H ) :   0.9941
B(  4-C , 20-C ) :   1.0206 B(  6-C ,  7-H ) :   0.9462 B(  6-C ,  8-H ) :   0.9265
B(  6-C ,  9-C ) :   1.0962 B(  9-C , 10-H ) :   0.9412 B(  9-C , 11-H ) :   0.9511
B(  9-C , 12-C ) :   1.0884 B( 12-C , 13-H ) :   0.9724 B( 12-C , 14-H ) :   0.9700
B( 12-C , 15-H ) :   0.9684 B( 16-S , 17-C ) :   1.1851 B( 16-S , 20-C ) :   1.1399
B( 17-C , 18-C ) :   1.6026 B( 17-C , 33-H ) :   0.9678 B( 18-C , 19-C ) :   1.2390
B( 18-C , 21-H ) :   0.9891 B( 19-C , 20-C ) :   1.5886 B( 19-C , 22-C ) :   1.0431
B( 22-C , 23-H ) :   0.9249 B( 22-C , 24-H ) :   0.9236 B( 22-C , 25-C ) :   1.0600
B( 25-C , 26-H ) :   0.9616 B( 25-C , 27-H ) :   0.9617 B( 25-C , 28-C ) :   1.0730
B( 28-C , 29-H ) :   0.9738 B( 28-C , 30-H ) :   0.9777 B( 28-C , 31-H ) :   0.9768

Dispersion correction           -0.014586714
FINAL SINGLE POINT ENERGY     -1339.866506855944

DIPOLE MOMENT
-------------
                                X             Y             Z
Electronic contribution:    -12.37651      -2.91991      21.45489
Nuclear contribution   :     12.89492       2.87631     -21.79588
                        -----------------------------------------
Total Dipole Moment    :      0.51841      -0.04360      -0.34099
                        -----------------------------------------
Magnitude (a.u.)       :      0.62204
Magnitude (Debye)      :      1.58109

Rotational constants in cm-1:     0.016590     0.009712     0.007873
Rotational constants in MHz :   497.347307   291.157301   236.013976

                             ****ORCA TERMINATED NORMALLY****
TOTAL RUN TIME: 0 days 0 hours 0 minutes 36 seconds 621 msec
