                         Program Version 4.2.1 -  RELEASE  -
|  1> ! wB97X-D3 SP def2-SVP
|  2> %pal
|  3> nprocs 16
|  4> end
|  5>
|  6> * xyz 0 1
|  7> S 	 10.7516 	 -12.3566 	 97.7725
|  8> C 	 11.222 	 -12.7035 	 99.4045
|  9> C 	 10.4132 	 -12.0881 	 100.368
| 10> C 	 9.37947 	 -11.3161 	 99.7635
| 11> C 	 9.45867 	 -11.273 	 98.3511
| 12> H 	 8.59289 	 -10.801 	 100.211
| 13> C 	 10.6646 	 -12.1561 	 101.841
| 14> H 	 11.4951 	 -11.4693 	 102.143
| 15> H 	 11.0113 	 -13.1646 	 102.036
| 16> C 	 9.44115 	 -11.8606 	 102.749
| 17> H 	 9.7273 	 -11.9338 	 103.8
| 18> H 	 9.09874 	 -10.9024 	 102.412
| 19> C 	 8.33441 	 -12.8657 	 102.525
| 20> H 	 8.72096 	 -13.8699 	 102.824
| 21> H 	 7.53928 	 -12.5312 	 103.202
| 22> H 	 7.84911 	 -12.8749 	 101.523
| 23> S 	 9.41024 	 -9.16066 	 96.5504
| 24> C 	 7.78373 	 -8.56586 	 96.0264
| 25> C 	 6.77668 	 -9.44894 	 96.3959
| 26> C 	 7.23424 	 -10.4904 	 97.2547
| 27> C 	 8.6303 	 -10.4809 	 97.452
| 28> H 	 5.77393 	 -9.23194 	 95.9746
| 29> C 	 6.22907 	 -11.4565 	 97.8296
| 30> H 	 5.30914 	 -11.2562 	 97.191
| 31> H 	 5.90666 	 -11.2514 	 98.8577
| 32> C 	 6.50859 	 -12.8876 	 97.673
| 33> H 	 7.50329 	 -13.0495 	 98.1426
| 34> H 	 6.568 	 -13.1502 	 96.6054
| 35> C 	 5.52704 	 -13.7559 	 98.4711
| 36> H 	 5.77287 	 -13.7255 	 99.5566
| 37> H 	 5.4692 	 -14.8061 	 98.1042
| 38> H 	 4.45487 	 -13.329 	 98.3748
| 39> H 	 12.117 	 -13.2753 	 99.6165
| 40> H 	 7.61488 	 -7.80501 	 95.35
| 41> *
| 42>
| 43>                          ****END OF INPUT****

CARTESIAN COORDINATES (ANGSTROEM)
---------------------------------
  S     10.751600  -12.356600   97.772500
  C     11.222000  -12.703500   99.404500
  C     10.413200  -12.088100  100.368000
  C      9.379470  -11.316100   99.763500
  C      9.458670  -11.273000   98.351100
  H      8.592890  -10.801000  100.211000
  C     10.664600  -12.156100  101.841000
  H     11.495100  -11.469300  102.143000
  H     11.011300  -13.164600  102.036000
  C      9.441150  -11.860600  102.749000
  H      9.727300  -11.933800  103.800000
  H      9.098740  -10.902400  102.412000
  C      8.334410  -12.865700  102.525000
  H      8.720960  -13.869900  102.824000
  H      7.539280  -12.531200  103.202000
  H      7.849110  -12.874900  101.523000
  S      9.410240   -9.160660   96.550400
  C      7.783730   -8.565860   96.026400
  C      6.776680   -9.448940   96.395900
  C      7.234240  -10.490400   97.254700
  C      8.630300  -10.480900   97.452000
  H      5.773930   -9.231940   95.974600
  C      6.229070  -11.456500   97.829600
  H      5.309140  -11.256200   97.191000
  H      5.906660  -11.251400   98.857700
  C      6.508590  -12.887600   97.673000
  H      7.503290  -13.049500   98.142600
  H      6.568000  -13.150200   96.605400
  C      5.527040  -13.755900   98.471100
  H      5.772870  -13.725500   99.556600
  H      5.469200  -14.806100   98.104200
  H      4.454870  -13.329000   98.374800
  H     12.117000  -13.275300   99.616500
  H      7.614880   -7.805010   95.350000

 Total Charge           Charge          ....    0
 Multiplicity           Mult            ....    1
 Number of Electrons    NEL             ....  134
 Basis Dimension        Dim             ....  322

ORBITAL ENERGIES
----------------

  NO   OCC          E(Eh)            E(eV)
   0   2.0000     -88.969364     -2420.9795
   1   2.0000     -88.967975     -2420.9417
   2   2.0000     -10.333687      -281.1939
   3   2.0000     -10.331599      -281.1371
   4   2.0000     -10.317910      -280.7646
   5   2.0000     -10.314698      -280.6772
   6   2.0000     -10.307577      -280.4834
   7   2.0000     -10.303588      -280.3749
   8   2.0000     -10.299185      -280.2551
   9   2.0000     -10.295979      -280.1678
  10   2.0000     -10.291715      -280.0518
  11   2.0000     -10.289942      -280.0036
  12   2.0000     -10.286941      -279.9219
  13   2.0000     -10.286530      -279.9107
  14   2.0000     -10.281440      -279.7722
  15   2.0000     -10.277985      -279.6782
  16   2.0000      -8.083532      -219.9641
  17   2.0000      -8.081257      -219.9022
  18   2.0000      -6.041875      -164.4078
  19   2.0000      -6.039848      -164.3526
  20   2.0000      -6.038078      -164.3045
  21   2.0000      -6.036012      -164.2482
  22   2.0000      -6.034554      -164.2086
  23   2.0000      -6.031964      -164.1381
  24   2.0000      -0.999152       -27.1883
  25   2.0000      -0.977643       -26.6030
  26   2.0000      -0.915627       -24.9155
  27   2.0000      -0.913532       -24.8585
  28   2.0000      -0.869145       -23.6506
  29   2.0000      -0.848768       -23.0962
  30   2.0000      -0.844830       -22.9890
  31   2.0000      -0.815198       -22.1827
  32   2.0000      -0.779219       -21.2036
  33   2.0000      -0.765482       -20.8298
  34   2.0000      -0.712102       -19.3773
  35   2.0000      -0.692238       -18.8368
  36   2.0000      -0.682228       -18.5644
  37   2.0000      -0.659882       -17.9563
  38   2.0000      -0.645015       -17.5518
  39   2.0000      -0.625239       -17.0136
  40   2.0000      -0.597778       -16.2664
  41   2.0000      -0.568504       -15.4698
  42   2.0000      -0.567209       -15.4346
  43   2.0000      -0.552732       -15.0406
  44   2.0000      -0.541516       -14.7354
  45   2.0000      -0.521423       -14.1886
  46   2.0000      -0.516181       -14.0460
  47   2.0000      -0.512053       -13.9337
  48   2.0000      -0.501432       -13.6447
  49   2.0000      -0.495247       -13.4764
  50   2.0000      -0.492861       -13.4114
  51   2.0000      -0.483990       -13.1700
  52   2.0000      -0.469860       -12.7855
  53   2.0000      -0.461942       -12.5701
  54   2.0000      -0.455386       -12.3917
  55   2.0000      -0.445186       -12.1141
  56   2.0000      -0.440121       -11.9763
  57   2.0000      -0.434244       -11.8164
  58   2.0000      -0.432578       -11.7711
  59   2.0000      -0.429517       -11.6877
  60   2.0000      -0.424937       -11.5631
  61   2.0000      -0.415298       -11.3008
  62   2.0000      -0.401317       -10.9204
  63   2.0000      -0.342364        -9.3162
  64   2.0000      -0.332064        -9.0359
  65   2.0000      -0.324769        -8.8374
  66   2.0000      -0.294662        -8.0182
  67   0.0000       0.026989         0.7344
  68   0.0000       0.055790         1.5181
  69   0.0000       0.107349         2.9211
  70   0.0000       0.113357         3.0846
  71   0.0000       0.124277         3.3818

MULLIKEN ATOMIC CHARGES
-----------------------
   0 S :    0.122363
   1 C :   -0.126379
   2 C :   -0.080379
   3 C :    0.058108
   4 C :   -0.202023
   5 H :   -0.011759
   6 C :    0.066745
   7 H :    0.054103
   8 H :    0.013656
   9 C :   -0.070573
  10 H :    0.040075
  11 H :    0.027393
  12 C :   -0.081317
  13 H :    0.037544
  14 H :    0.033027
  15 H :    0.047775
  16 S :    0.103779
  17 C :   -0.068582
  18 C :   -0.058939
  19 C :    0.002475
  20 C :   -0.158914
  21 H :    0.039401
  22 C :    0.044665
  23 H :    0.018138
  24 H :    0.033787
  25 C :   -0.080611
  26 H :    0.047916
  27 H :    0.035046
  28 C :   -0.085251
  29 H :    0.044876
  30 H :    0.046848
  31 H :    0.028761
  32 H :    0.048697
  33 H :    0.029550
Sum of atomic charges:   -0.0000000

LOEWDIN ATOMIC CHARGES
----------------------
   0 S :    0.407168
   1 C :   -0.199849
   2 C :   -0.063406
   3 C :   -0.050891
   4 C :   -0.190614
   5 H :    0.020587
   6 C :   -0.036465
   7 H :    0.039525
   8 H :    0.025763
   9 C :   -0.039117
  10 H :    0.031394
  11 H :    0.018907
  12 C :   -0.070803
  13 H :    0.028574
  14 H :    0.027622
  15 H :    0.027261
  16 S :    0.378412
  17 C :   -0.155200
  18 C :   -0.070782
  19 C :   -0.053136
  20 C :   -0.196212
  21 H :    0.041695
  22 C :   -0.040408
  23 H :    0.034930
  24 H :    0.030582
  25 C :   -0.052054
  26 H :    0.028880
  27 H :    0.026955
  28 C :   -0.074111
  29 H :    0.028126
  30 H :    0.030513
  31 H :    0.026982
  32 H :    0.026605
  33 H :    0.012566

  Mayer bond orders larger than 0.100000
B(  0-S ,  1-C ) :   1.1544 B(  0-S ,  4-C ) :   1.1548 B(  1-C ,  2-C ) :   1.5908
B(  1-C ,  4-C ) :   0.1053 B(  1-C , 32-H ) :   0.9696 B(  2-C ,  3-C ) :   1.2456
B(  2-C ,  6-C ) :   1.0113 B(  3-C ,  4-C ) :   1.5588 B(  3-C ,  5-H ) :   1.0008
B(  4-C , 20-C ) :   1.0449 B(  6-C ,  7-H ) :   0.9361 B(  6-C ,  8-H ) :   0.9371
B(  6-C ,  9-C ) :   1.0841 B(  9-C , 10-H ) :   0.9542 B(  9-C , 11-H ) :   0.9463
B(  9-C , 12-C ) :   1.0871 B( 12-C , 13-H ) :   0.9736 B( 12-C , 14-H ) :   0.9727
B( 12-C , 15-H ) :   0.9706 B( 16-S , 17-C ) :   1.1418 B( 16-S , 20-C ) :   1.1332
B( 17-C , 18-C ) :   1.6381 B( 17-C , 20-C ) :   0.1047 B( 17-C , 33-H ) :   0.9705
B( 18-C , 19-C ) :   1.2377 B( 18-C , 21-H ) :   0.9790 B( 19-C , 20-C ) :   1.5814
B( 19-C , 22-C ) :   1.0265 B( 22-C , 23-H ) :   0.9299 B( 22-C , 24-H ) :   0.9311
B( 22-C , 25-C ) :   1.0721 B( 25-C , 26-H ) :   0.9507 B( 25-C , 27-H ) :   0.9551
B( 25-C , 28-C ) :   1.0748 B( 28-C , 29-H ) :   0.9733 B( 28-C , 30-H ) :   0.9739
B( 28-C , 31-H ) :   0.9716

Dispersion correction           -0.015281250
FINAL SINGLE POINT ENERGY     -1339.879015682446

DIPOLE MOMENT
-------------
                                X             Y             Z
Electronic contribution:     16.30216      12.83274     -19.64342
Nuclear contribution   :    -16.63553     -12.90241      20.06475
                        -----------------------------------------
Total Dipole Moment    :     -0.33338      -0.06967       0.42133
                        -----------------------------------------
Magnitude (a.u.)       :      0.54177
Magnitude (Debye)      :      1.37707

Rotational constants in cm-1:     0.017321     0.009900     0.007913
Rotational constants in MHz :   519.281755   296.786827   237.238338

                             ****ORCA TERMINATED NORMALLY****
TOTAL RUN TIME: 0 days 0 hours 0 minutes 36 seconds 249 msec
