                         Program Version 4.2.1 -  RELEASE  -
|  1> ! wB97X-D3 SP def2-SVP
|  2> %pal
|  3> nprocs 16
|  4> end
|  5>
|  6> * xyz 0 1
|  7> S 	 -58.7551 	 40.2804 	 115.193
|  8> C 	 -58.9648 	 40.346 	 113.392
|  9> C 	 -57.8325 	 40.7655 	 112.759
| 10> C 	 -56.7403 	 40.896 	 113.66
| 11> C 	 -57.0549 	 40.7417 	 115.014
| 12> H 	 -55.6798 	 41.156 	 113.333
| 13> C 	 -57.6928 	 40.7079 	 111.245
| 14> H 	 -57.4238 	 41.7169 	 110.896
| 15> H 	 -58.6336 	 40.5161 	 110.798
| 16> C 	 -56.6491 	 39.7813 	 110.564
| 17> H 	 -56.674 	 40.0127 	 109.496
| 18> H 	 -55.6586 	 40.207 	 110.81
| 19> C 	 -56.6275 	 38.3359 	 110.977
| 20> H 	 -55.6785 	 37.9462 	 110.705
| 21> H 	 -56.7014 	 38.1705 	 112.079
| 22> H 	 -57.4129 	 37.8017 	 110.511
| 23> S 	 -56.4704 	 42.2248 	 117.294
| 24> C 	 -55.0308 	 41.7898 	 118.197
| 25> C 	 -54.429 	 40.6458 	 117.69
| 26> C 	 -55.0836 	 40.0508 	 116.562
| 27> C 	 -56.1585 	 40.8736 	 116.149
| 28> H 	 -53.3834 	 40.3597 	 118.059
| 29> C 	 -54.5225 	 38.9121 	 115.742
| 30> H 	 -53.4676 	 39.168 	 115.687
| 31> H 	 -54.7594 	 38.9091 	 114.713
| 32> C 	 -54.8955 	 37.5306 	 116.379
| 33> H 	 -54.49 	 37.4184 	 117.362
| 34> H 	 -54.3774 	 36.8479 	 115.691
| 35> C 	 -56.378 	 37.1838 	 116.348
| 36> H 	 -56.8705 	 37.3995 	 115.421
| 37> H 	 -56.9897 	 37.8388 	 117
| 38> H 	 -56.348 	 36.2055 	 116.701
| 39> H 	 -59.8213 	 40.1096 	 112.945
| 40> H 	 -54.6171 	 42.2367 	 119.103
| 41> *
| 42>
| 43>                          ****END OF INPUT****

CARTESIAN COORDINATES (ANGSTROEM)
---------------------------------
  S    -58.755100   40.280400  115.193000
  C    -58.964800   40.346000  113.392000
  C    -57.832500   40.765500  112.759000
  C    -56.740300   40.896000  113.660000
  C    -57.054900   40.741700  115.014000
  H    -55.679800   41.156000  113.333000
  C    -57.692800   40.707900  111.245000
  H    -57.423800   41.716900  110.896000
  H    -58.633600   40.516100  110.798000
  C    -56.649100   39.781300  110.564000
  H    -56.674000   40.012700  109.496000
  H    -55.658600   40.207000  110.810000
  C    -56.627500   38.335900  110.977000
  H    -55.678500   37.946200  110.705000
  H    -56.701400   38.170500  112.079000
  H    -57.412900   37.801700  110.511000
  S    -56.470400   42.224800  117.294000
  C    -55.030800   41.789800  118.197000
  C    -54.429000   40.645800  117.690000
  C    -55.083600   40.050800  116.562000
  C    -56.158500   40.873600  116.149000
  H    -53.383400   40.359700  118.059000
  C    -54.522500   38.912100  115.742000
  H    -53.467600   39.168000  115.687000
  H    -54.759400   38.909100  114.713000
  C    -54.895500   37.530600  116.379000
  H    -54.490000   37.418400  117.362000
  H    -54.377400   36.847900  115.691000
  C    -56.378000   37.183800  116.348000
  H    -56.870500   37.399500  115.421000
  H    -56.989700   37.838800  117.000000
  H    -56.348000   36.205500  116.701000
  H    -59.821300   40.109600  112.945000
  H    -54.617100   42.236700  119.103000

 Total Charge           Charge          ....    0
 Multiplicity           Mult            ....    1
 Number of Electrons    NEL             ....  134
 Basis Dimension        Dim             ....  322

ORBITAL ENERGIES
----------------

  NO   OCC          E(Eh)            E(eV)
   0   2.0000     -88.967844     -2420.9381
   1   2.0000     -88.967005     -2420.9153
   2   2.0000     -10.332697      -281.1670
   3   2.0000     -10.329275      -281.0739
   4   2.0000     -10.319249      -280.8011
   5   2.0000     -10.310619      -280.5662
   6   2.0000     -10.307370      -280.4778
   7   2.0000     -10.302040      -280.3328
   8   2.0000     -10.301294      -280.3125
   9   2.0000     -10.299502      -280.2637
  10   2.0000     -10.291644      -280.0499
  11   2.0000     -10.289914      -280.0028
  12   2.0000     -10.288025      -279.9514
  13   2.0000     -10.284702      -279.8610
  14   2.0000     -10.273093      -279.5451
  15   2.0000     -10.266323      -279.3609
  16   2.0000      -8.081535      -219.9097
  17   2.0000      -8.080366      -219.8779
  18   2.0000      -6.040068      -164.3586
  19   2.0000      -6.038946      -164.3281
  20   2.0000      -6.036219      -164.2539
  21   2.0000      -6.035117      -164.2239
  22   2.0000      -6.032295      -164.1471
  23   2.0000      -6.031074      -164.1139
  24   2.0000      -0.997990       -27.1567
  25   2.0000      -0.976674       -26.5766
  26   2.0000      -0.910780       -24.7836
  27   2.0000      -0.907076       -24.6828
  28   2.0000      -0.869020       -23.6472
  29   2.0000      -0.849139       -23.1062
  30   2.0000      -0.841531       -22.8992
  31   2.0000      -0.812282       -22.1033
  32   2.0000      -0.790129       -21.5005
  33   2.0000      -0.776803       -21.1379
  34   2.0000      -0.710895       -19.3444
  35   2.0000      -0.698518       -19.0076
  36   2.0000      -0.694474       -18.8976
  37   2.0000      -0.649491       -17.6736
  38   2.0000      -0.641325       -17.4513
  39   2.0000      -0.618323       -16.8254
  40   2.0000      -0.598718       -16.2920
  41   2.0000      -0.562003       -15.2929
  42   2.0000      -0.556904       -15.1541
  43   2.0000      -0.552194       -15.0260
  44   2.0000      -0.540832       -14.7168
  45   2.0000      -0.534860       -14.5543
  46   2.0000      -0.521346       -14.1866
  47   2.0000      -0.513776       -13.9806
  48   2.0000      -0.502375       -13.6703
  49   2.0000      -0.495131       -13.4732
  50   2.0000      -0.491292       -13.3687
  51   2.0000      -0.479615       -13.0510
  52   2.0000      -0.469605       -12.7786
  53   2.0000      -0.464445       -12.6382
  54   2.0000      -0.461957       -12.5705
  55   2.0000      -0.448021       -12.1913
  56   2.0000      -0.442250       -12.0342
  57   2.0000      -0.434712       -11.8291
  58   2.0000      -0.429139       -11.6775
  59   2.0000      -0.424662       -11.5556
  60   2.0000      -0.420757       -11.4494
  61   2.0000      -0.413308       -11.2467
  62   2.0000      -0.405376       -11.0309
  63   2.0000      -0.335592        -9.1319
  64   2.0000      -0.330533        -8.9943
  65   2.0000      -0.328694        -8.9442
  66   2.0000      -0.299343        -8.1455
  67   0.0000       0.034713         0.9446
  68   0.0000       0.053746         1.4625
  69   0.0000       0.110187         2.9983
  70   0.0000       0.114050         3.1035
  71   0.0000       0.124752         3.3947

MULLIKEN ATOMIC CHARGES
-----------------------
   0 S :    0.097888
   1 C :   -0.082258
   2 C :   -0.052006
   3 C :    0.010962
   4 C :   -0.162154
   5 H :    0.038423
   6 C :    0.075511
   7 H :    0.027691
   8 H :    0.005704
   9 C :   -0.092297
  10 H :    0.031029
  11 H :    0.011751
  12 C :   -0.009870
  13 H :    0.023163
  14 H :    0.046451
  15 H :    0.026074
  16 S :    0.114176
  17 C :   -0.084989
  18 C :   -0.076511
  19 C :   -0.005366
  20 C :   -0.199356
  21 H :    0.044717
  22 C :    0.070910
  23 H :    0.024268
  24 H :    0.006724
  25 C :   -0.075976
  26 H :    0.028418
  27 H :    0.026638
  28 C :   -0.012132
  29 H :    0.027555
  30 H :    0.030648
  31 H :    0.031242
  32 H :   -0.006843
  33 H :    0.059815
Sum of atomic charges:   -0.0000000

LOEWDIN ATOMIC CHARGES
----------------------
   0 S :    0.372065
   1 C :   -0.146756
   2 C :   -0.064656
   3 C :   -0.064522
   4 C :   -0.192643
   5 H :    0.041502
   6 C :   -0.028218
   7 H :    0.035187
   8 H :    0.020433
   9 C :   -0.044689
  10 H :    0.029510
  11 H :    0.020439
  12 C :   -0.061841
  13 H :    0.024054
  14 H :    0.035515
  15 H :    0.019886
  16 S :    0.389834
  17 C :   -0.190645
  18 C :   -0.084302
  19 C :   -0.046500
  20 C :   -0.194392
  21 H :    0.042208
  22 C :   -0.031928
  23 H :    0.033443
  24 H :    0.023203
  25 C :   -0.029169
  26 H :    0.020112
  27 H :    0.024783
  28 C :   -0.059320
  29 H :    0.023258
  30 H :    0.028119
  31 H :    0.022583
  32 H :   -0.001835
  33 H :    0.035283

  Mayer bond orders larger than 0.100000
B(  0-S ,  1-C ) :   1.1228 B(  0-S ,  4-C ) :   1.1355 B(  1-C ,  2-C ) :   1.6167
B(  1-C , 32-H ) :   0.9847 B(  2-C ,  3-C ) :   1.2197 B(  2-C ,  6-C ) :   1.0323
B(  3-C ,  4-C ) :   1.5997 B(  3-C ,  5-H ) :   0.9807 B(  4-C , 20-C ) :   1.0469
B(  6-C ,  7-H ) :   0.9286 B(  6-C ,  8-H ) :   0.9462 B(  6-C ,  9-C ) :   1.0763
B(  9-C , 10-H ) :   0.9510 B(  9-C , 11-H ) :   0.9521 B(  9-C , 12-C ) :   1.0748
B( 12-C , 13-H ) :   0.9721 B( 12-C , 14-H ) :   0.9701 B( 12-C , 15-H ) :   0.9761
B( 16-S , 17-C ) :   1.1437 B( 16-S , 20-C ) :   1.1343 B( 17-C , 18-C ) :   1.6398
B( 17-C , 20-C ) :   0.1028 B( 17-C , 33-H ) :   0.9617 B( 18-C , 19-C ) :   1.2379
B( 18-C , 21-H ) :   0.9674 B( 19-C , 20-C ) :   1.5742 B( 19-C , 22-C ) :   1.0303
B( 22-C , 23-H ) :   0.9372 B( 22-C , 24-H ) :   0.9390 B( 22-C , 25-C ) :   1.0625
B( 25-C , 26-H ) :   0.9606 B( 25-C , 27-H ) :   0.9565 B( 25-C , 28-C ) :   1.0724
B( 28-C , 29-H ) :   0.9725 B( 28-C , 30-H ) :   0.9698 B( 28-C , 31-H ) :   0.9723

Dispersion correction           -0.016044077
FINAL SINGLE POINT ENERGY     -1339.863758096410

DIPOLE MOMENT
-------------
                                X             Y             Z
Electronic contribution:     -8.95662      17.90254      16.88736
Nuclear contribution   :      9.46092     -18.21775     -17.40296
                        -----------------------------------------
Total Dipole Moment    :      0.50430      -0.31520      -0.51561
                        -----------------------------------------
Magnitude (a.u.)       :      0.78710
Magnitude (Debye)      :      2.00064

Rotational constants in cm-1:     0.019583     0.009342     0.007915
Rotational constants in MHz :   587.092072   280.054704   237.282122

                             ****ORCA TERMINATED NORMALLY****
TOTAL RUN TIME: 0 days 0 hours 0 minutes 32 seconds 251 msec
