                         Program Version 4.2.1 -  RELEASE  -
|  1> ! wB97X-D3 SP def2-SVP
|  2> %pal
|  3> nprocs 16
|  4> end
|  5>
|  6> * xyz 0 1
|  7> S 	 -45.6263 	 58.5377 	 99.0092
|  8> C 	 -46.6202 	 58.0792 	 100.338
|  9> C 	 -47.3402 	 56.9203 	 99.9956
| 10> C 	 -46.976 	 56.4363 	 98.6954
| 11> C 	 -45.8699 	 57.0801 	 98.1197
| 12> H 	 -47.4469 	 55.6328 	 98.1189
| 13> C 	 -48.4474 	 56.1892 	 100.827
| 14> H 	 -49.1662 	 55.8191 	 100.136
| 15> H 	 -48.9701 	 56.9536 	 101.419
| 16> C 	 -47.8696 	 55.0946 	 101.803
| 17> H 	 -47.0944 	 54.4459 	 101.323
| 18> H 	 -47.3832 	 55.3756 	 102.669
| 19> C 	 -49.0189 	 54.1246 	 102.348
| 20> H 	 -49.9143 	 54.7044 	 102.67
| 21> H 	 -49.3539 	 53.4471 	 101.659
| 22> H 	 -48.7254 	 53.5749 	 103.236
| 23> S 	 -46.0201 	 58.1821 	 95.5633
| 24> C 	 -45.0184 	 57.5501 	 94.2365
| 25> C 	 -44.261 	 56.4828 	 94.7103
| 26> C 	 -44.5165 	 56.1714 	 96.0908
| 27> C 	 -45.4256 	 57.0485 	 96.6961
| 28> H 	 -43.6488 	 55.8647 	 94.0409
| 29> C 	 -43.7569 	 55.045 	 96.7839
| 30> H 	 -44.1026 	 54.1211 	 96.2633
| 31> H 	 -44.0443 	 54.9319 	 97.7961
| 32> C 	 -42.2058 	 55.1051 	 96.6181
| 33> H 	 -41.8504 	 55.1531 	 95.5575
| 34> H 	 -41.7864 	 54.1957 	 97.076
| 35> C 	 -41.6011 	 56.238 	 97.3937
| 36> H 	 -41.9435 	 56.2647 	 98.4603
| 37> H 	 -41.9755 	 57.0737 	 96.8906
| 38> H 	 -40.4834 	 56.0359 	 97.5392
| 39> H 	 -46.7363 	 58.5028 	 101.334
| 40> H 	 -45.2999 	 57.6137 	 93.1775
| 41> *
| 42>
| 43>                          ****END OF INPUT****

CARTESIAN COORDINATES (ANGSTROEM)
---------------------------------
  S    -45.626300   58.537700   99.009200
  C    -46.620200   58.079200  100.338000
  C    -47.340200   56.920300   99.995600
  C    -46.976000   56.436300   98.695400
  C    -45.869900   57.080100   98.119700
  H    -47.446900   55.632800   98.118900
  C    -48.447400   56.189200  100.827000
  H    -49.166200   55.819100  100.136000
  H    -48.970100   56.953600  101.419000
  C    -47.869600   55.094600  101.803000
  H    -47.094400   54.445900  101.323000
  H    -47.383200   55.375600  102.669000
  C    -49.018900   54.124600  102.348000
  H    -49.914300   54.704400  102.670000
  H    -49.353900   53.447100  101.659000
  H    -48.725400   53.574900  103.236000
  S    -46.020100   58.182100   95.563300
  C    -45.018400   57.550100   94.236500
  C    -44.261000   56.482800   94.710300
  C    -44.516500   56.171400   96.090800
  C    -45.425600   57.048500   96.696100
  H    -43.648800   55.864700   94.040900
  C    -43.756900   55.045000   96.783900
  H    -44.102600   54.121100   96.263300
  H    -44.044300   54.931900   97.796100
  C    -42.205800   55.105100   96.618100
  H    -41.850400   55.153100   95.557500
  H    -41.786400   54.195700   97.076000
  C    -41.601100   56.238000   97.393700
  H    -41.943500   56.264700   98.460300
  H    -41.975500   57.073700   96.890600
  H    -40.483400   56.035900   97.539200
  H    -46.736300   58.502800  101.334000
  H    -45.299900   57.613700   93.177500

 Total Charge           Charge          ....    0
 Multiplicity           Mult            ....    1
 Number of Electrons    NEL             ....  134
 Basis Dimension        Dim             ....  322

ORBITAL ENERGIES
----------------

  NO   OCC          E(Eh)            E(eV)
   0   2.0000     -88.967952     -2420.9410
   1   2.0000     -88.966575     -2420.9036
   2   2.0000     -10.330806      -281.1155
   3   2.0000     -10.329043      -281.0675
   4   2.0000     -10.321019      -280.8492
   5   2.0000     -10.318716      -280.7865
   6   2.0000     -10.307358      -280.4775
   7   2.0000     -10.304555      -280.4012
   8   2.0000     -10.302145      -280.3356
   9   2.0000     -10.299829      -280.2726
  10   2.0000     -10.299657      -280.2679
  11   2.0000     -10.292008      -280.0598
  12   2.0000     -10.290208      -280.0108
  13   2.0000     -10.285923      -279.8942
  14   2.0000     -10.275321      -279.6057
  15   2.0000     -10.270920      -279.4859
  16   2.0000      -8.083192      -219.9548
  17   2.0000      -8.081398      -219.9060
  18   2.0000      -6.041638      -164.4013
  19   2.0000      -6.039963      -164.3557
  20   2.0000      -6.037477      -164.2881
  21   2.0000      -6.035728      -164.2405
  22   2.0000      -6.034098      -164.1961
  23   2.0000      -6.032238      -164.1455
  24   2.0000      -1.008861       -27.4525
  25   2.0000      -0.985644       -26.8207
  26   2.0000      -0.907282       -24.6884
  27   2.0000      -0.900357       -24.5000
  28   2.0000      -0.866484       -23.5782
  29   2.0000      -0.846540       -23.0355
  30   2.0000      -0.844010       -22.9667
  31   2.0000      -0.814899       -22.1745
  32   2.0000      -0.780904       -21.2495
  33   2.0000      -0.768990       -20.9253
  34   2.0000      -0.711544       -19.3621
  35   2.0000      -0.697474       -18.9792
  36   2.0000      -0.688467       -18.7341
  37   2.0000      -0.654131       -17.7998
  38   2.0000      -0.643338       -17.5061
  39   2.0000      -0.614635       -16.7251
  40   2.0000      -0.595747       -16.2111
  41   2.0000      -0.569117       -15.4865
  42   2.0000      -0.556957       -15.1556
  43   2.0000      -0.555767       -15.1232
  44   2.0000      -0.536625       -14.6023
  45   2.0000      -0.521091       -14.1796
  46   2.0000      -0.517445       -14.0804
  47   2.0000      -0.514767       -14.0075
  48   2.0000      -0.507600       -13.8125
  49   2.0000      -0.497289       -13.5319
  50   2.0000      -0.485769       -13.2184
  51   2.0000      -0.480345       -13.0708
  52   2.0000      -0.469010       -12.7624
  53   2.0000      -0.461794       -12.5660
  54   2.0000      -0.458216       -12.4687
  55   2.0000      -0.447209       -12.1692
  56   2.0000      -0.440463       -11.9856
  57   2.0000      -0.437693       -11.9102
  58   2.0000      -0.432773       -11.7763
  59   2.0000      -0.423247       -11.5171
  60   2.0000      -0.417366       -11.3571
  61   2.0000      -0.416796       -11.3416
  62   2.0000      -0.406319       -11.0565
  63   2.0000      -0.344141        -9.3645
  64   2.0000      -0.327365        -8.9081
  65   2.0000      -0.325794        -8.8653
  66   2.0000      -0.302539        -8.2325
  67   0.0000       0.038762         1.0548
  68   0.0000       0.047108         1.2819
  69   0.0000       0.113758         3.0955
  70   0.0000       0.118859         3.2343
  71   0.0000       0.131794         3.5863

MULLIKEN ATOMIC CHARGES
-----------------------
   0 S :    0.118731
   1 C :   -0.097910
   2 C :   -0.126476
   3 C :    0.025366
   4 C :   -0.158321
   5 H :    0.025223
   6 C :    0.088484
   7 H :    0.027167
   8 H :    0.027269
   9 C :   -0.052308
  10 H :    0.035571
  11 H :    0.015444
  12 C :   -0.061636
  13 H :    0.027062
  14 H :    0.020473
  15 H :    0.029911
  16 S :    0.113353
  17 C :   -0.105461
  18 C :   -0.044336
  19 C :   -0.075851
  20 C :   -0.164025
  21 H :    0.032337
  22 C :    0.096559
  23 H :    0.034369
  24 H :    0.015408
  25 C :   -0.100597
  26 H :    0.039143
  27 H :    0.022999
  28 C :   -0.049117
  29 H :    0.027715
  30 H :    0.036342
  31 H :    0.046192
  32 H :    0.051137
  33 H :    0.079783
Sum of atomic charges:    0.0000000

LOEWDIN ATOMIC CHARGES
----------------------
   0 S :    0.441882
   1 C :   -0.209977
   2 C :   -0.066866
   3 C :   -0.060190
   4 C :   -0.213931
   5 H :    0.033884
   6 C :   -0.021988
   7 H :    0.028789
   8 H :    0.031916
   9 C :   -0.032796
  10 H :    0.029519
  11 H :    0.013900
  12 C :   -0.063901
  13 H :    0.027292
  14 H :    0.009168
  15 H :    0.025460
  16 S :    0.416375
  17 C :   -0.193688
  18 C :   -0.067968
  19 C :   -0.063011
  20 C :   -0.223162
  21 H :    0.033933
  22 C :   -0.027368
  23 H :    0.037544
  24 H :    0.023494
  25 C :   -0.045437
  26 H :    0.026144
  27 H :    0.022602
  28 C :   -0.070190
  29 H :    0.027940
  30 H :    0.019180
  31 H :    0.036312
  32 H :    0.035859
  33 H :    0.039279

  Mayer bond orders larger than 0.100000
B(  0-S ,  1-C ) :   1.1715 B(  0-S ,  4-C ) :   1.1727 B(  1-C ,  2-C ) :   1.5676
B(  1-C ,  4-C ) :   0.1083 B(  1-C , 32-H ) :   0.9692 B(  2-C ,  3-C ) :   1.2813
B(  2-C ,  6-C ) :   1.0188 B(  3-C ,  4-C ) :   1.5424 B(  3-C ,  5-H ) :   0.9913
B(  4-C , 20-C ) :   0.9944 B(  6-C ,  7-H ) :   0.9522 B(  6-C ,  8-H ) :   0.9411
B(  6-C ,  9-C ) :   1.0436 B(  9-C , 10-H ) :   0.9633 B(  9-C , 11-H ) :   0.9636
B(  9-C , 12-C ) :   1.0680 B( 12-C , 13-H ) :   0.9759 B( 12-C , 14-H ) :   0.9820
B( 12-C , 15-H ) :   0.9782 B( 16-S , 17-C ) :   1.1528 B( 16-S , 20-C ) :   1.1652
B( 17-C , 18-C ) :   1.5982 B( 17-C , 33-H ) :   0.9585 B( 18-C , 19-C ) :   1.2687
B( 18-C , 21-H ) :   0.9809 B( 19-C , 20-C ) :   1.5753 B( 19-C , 22-C ) :   1.0445
B( 22-C , 23-H ) :   0.9295 B( 22-C , 24-H ) :   0.9346 B( 22-C , 25-C ) :   1.0742
B( 25-C , 26-H ) :   0.9545 B( 25-C , 27-H ) :   0.9543 B( 25-C , 28-C ) :   1.0698
B( 28-C , 29-H ) :   0.9716 B( 28-C , 30-H ) :   0.9778 B( 28-C , 31-H ) :   0.9727

Dispersion correction           -0.014014094
FINAL SINGLE POINT ENERGY     -1339.856117795444

DIPOLE MOMENT
-------------
                                X             Y             Z
Electronic contribution:     -2.39547      19.75299     -14.16597
Nuclear contribution   :      2.16172     -20.39894      14.34835
                        -----------------------------------------
Total Dipole Moment    :     -0.23375      -0.64596       0.18238
                        -----------------------------------------
Magnitude (a.u.)       :      0.71075
Magnitude (Debye)      :      1.80659

Rotational constants in cm-1:     0.020613     0.007365     0.006579
Rotational constants in MHz :   617.967360   220.799435   197.243171

                             ****ORCA TERMINATED NORMALLY****
TOTAL RUN TIME: 0 days 0 hours 0 minutes 28 seconds 688 msec
