                         Program Version 4.2.1 -  RELEASE  -
|  1> ! wB97X-D3 SP def2-SVP
|  2> %pal
|  3> nprocs 16
|  4> end
|  5>
|  6> * xyz 0 1
|  7> S 	 8.6425 	 22.1344 	 65.5134
|  8> C 	 10.3278 	 22.2819 	 65.6201
|  9> C 	 10.7157 	 23.6306 	 65.4886
| 10> C 	 9.66492 	 24.5361 	 65.1525
| 11> C 	 8.40993 	 23.847 	 65.0466
| 12> H 	 9.82787 	 25.5858 	 64.9434
| 13> C 	 12.1599 	 23.94 	 65.5761
| 14> H 	 12.2694 	 24.6551 	 64.7565
| 15> H 	 12.7388 	 23.0037 	 65.3622
| 16> C 	 12.6566 	 24.5936 	 66.8301
| 17> H 	 13.6287 	 25.0492 	 66.6802
| 18> H 	 11.9956 	 25.3644 	 67.0702
| 19> C 	 12.9393 	 23.5655 	 67.8332
| 20> H 	 12.0384 	 22.8601 	 68.1043
| 21> H 	 13.7195 	 22.905 	 67.5755
| 22> H 	 13.2141 	 24.1363 	 68.7344
| 23> S 	 5.82351 	 24.4551 	 65.7292
| 24> C 	 4.85767 	 25.2664 	 64.5725
| 25> C 	 5.50841 	 25.3386 	 63.3804
| 26> C 	 6.85405 	 24.8721 	 63.3469
| 27> C 	 7.15956 	 24.3002 	 64.5547
| 28> H 	 4.91883 	 25.8139 	 62.5921
| 29> C 	 7.68437 	 24.8232 	 62.0564
| 30> H 	 8.53955 	 24.1967 	 62.3151
| 31> H 	 8.17194 	 25.7483 	 61.8298
| 32> C 	 6.85044 	 24.4193 	 60.8324
| 33> H 	 6.14193 	 25.3254 	 60.6411
| 34> H 	 6.31924 	 23.4294 	 61.0264
| 35> C 	 7.71224 	 24.3291 	 59.5736
| 36> H 	 7.94329 	 25.2523 	 59.0855
| 37> H 	 7.23467 	 23.6574 	 58.8204
| 38> H 	 8.65812 	 23.8023 	 59.7617
| 39> H 	 10.9836 	 21.4733 	 65.9189
| 40> H 	 3.82637 	 25.4877 	 64.8461
| 41> *
| 42>
| 43>                          ****END OF INPUT****

CARTESIAN COORDINATES (ANGSTROEM)
---------------------------------
  S      8.642500   22.134400   65.513400
  C     10.327800   22.281900   65.620100
  C     10.715700   23.630600   65.488600
  C      9.664920   24.536100   65.152500
  C      8.409930   23.847000   65.046600
  H      9.827870   25.585800   64.943400
  C     12.159900   23.940000   65.576100
  H     12.269400   24.655100   64.756500
  H     12.738800   23.003700   65.362200
  C     12.656600   24.593600   66.830100
  H     13.628700   25.049200   66.680200
  H     11.995600   25.364400   67.070200
  C     12.939300   23.565500   67.833200
  H     12.038400   22.860100   68.104300
  H     13.719500   22.905000   67.575500
  H     13.214100   24.136300   68.734400
  S      5.823510   24.455100   65.729200
  C      4.857670   25.266400   64.572500
  C      5.508410   25.338600   63.380400
  C      6.854050   24.872100   63.346900
  C      7.159560   24.300200   64.554700
  H      4.918830   25.813900   62.592100
  C      7.684370   24.823200   62.056400
  H      8.539550   24.196700   62.315100
  H      8.171940   25.748300   61.829800
  C      6.850440   24.419300   60.832400
  H      6.141930   25.325400   60.641100
  H      6.319240   23.429400   61.026400
  C      7.712240   24.329100   59.573600
  H      7.943290   25.252300   59.085500
  H      7.234670   23.657400   58.820400
  H      8.658120   23.802300   59.761700
  H     10.983600   21.473300   65.918900
  H      3.826370   25.487700   64.846100

 Total Charge           Charge          ....    0
 Multiplicity           Mult            ....    1
 Number of Electrons    NEL             ....  134
 Basis Dimension        Dim             ....  322

ORBITAL ENERGIES
----------------

  NO   OCC          E(Eh)            E(eV)
   0   2.0000     -88.964395     -2420.8442
   1   2.0000     -88.958170     -2420.6749
   2   2.0000     -10.332516      -281.1621
   3   2.0000     -10.321161      -280.8531
   4   2.0000     -10.312767      -280.6247
   5   2.0000     -10.310658      -280.5673
   6   2.0000     -10.303927      -280.3841
   7   2.0000     -10.303537      -280.3735
   8   2.0000     -10.300936      -280.3027
   9   2.0000     -10.297518      -280.2097
  10   2.0000     -10.290920      -280.0302
  11   2.0000     -10.289286      -279.9857
  12   2.0000     -10.284182      -279.8468
  13   2.0000     -10.278426      -279.6902
  14   2.0000     -10.275559      -279.6122
  15   2.0000     -10.273104      -279.5454
  16   2.0000      -8.079464      -219.8534
  17   2.0000      -8.073850      -219.7006
  18   2.0000      -6.037723      -164.2948
  19   2.0000      -6.033769      -164.1872
  20   2.0000      -6.032220      -164.1451
  21   2.0000      -6.030622      -164.1016
  22   2.0000      -6.028229      -164.0365
  23   2.0000      -6.024693      -163.9402
  24   2.0000      -1.006324       -27.3835
  25   2.0000      -0.984460       -26.7885
  26   2.0000      -0.924474       -25.1562
  27   2.0000      -0.908755       -24.7285
  28   2.0000      -0.874262       -23.7899
  29   2.0000      -0.854389       -23.2491
  30   2.0000      -0.847370       -23.0581
  31   2.0000      -0.811246       -22.0751
  32   2.0000      -0.783859       -21.3299
  33   2.0000      -0.767383       -20.8815
  34   2.0000      -0.711430       -19.3590
  35   2.0000      -0.696956       -18.9651
  36   2.0000      -0.689297       -18.7567
  37   2.0000      -0.651705       -17.7338
  38   2.0000      -0.640414       -17.4265
  39   2.0000      -0.621441       -16.9103
  40   2.0000      -0.601141       -16.3579
  41   2.0000      -0.570817       -15.5327
  42   2.0000      -0.567582       -15.4447
  43   2.0000      -0.554581       -15.0909
  44   2.0000      -0.544702       -14.8221
  45   2.0000      -0.526736       -14.3332
  46   2.0000      -0.518554       -14.1106
  47   2.0000      -0.513356       -13.9691
  48   2.0000      -0.504215       -13.7204
  49   2.0000      -0.499473       -13.5914
  50   2.0000      -0.490035       -13.3345
  51   2.0000      -0.485434       -13.2093
  52   2.0000      -0.468732       -12.7549
  53   2.0000      -0.462130       -12.5752
  54   2.0000      -0.459850       -12.5131
  55   2.0000      -0.446359       -12.1460
  56   2.0000      -0.444395       -12.0926
  57   2.0000      -0.432614       -11.7720
  58   2.0000      -0.429184       -11.6787
  59   2.0000      -0.423753       -11.5309
  60   2.0000      -0.419749       -11.4220
  61   2.0000      -0.414794       -11.2871
  62   2.0000      -0.402835       -10.9617
  63   2.0000      -0.339288        -9.2325
  64   2.0000      -0.330607        -8.9963
  65   2.0000      -0.325983        -8.8704
  66   2.0000      -0.292636        -7.9630
  67   0.0000       0.033152         0.9021
  68   0.0000       0.060615         1.6494
  69   0.0000       0.119839         3.2610
  70   0.0000       0.124821         3.3966
  71   0.0000       0.131557         3.5798

MULLIKEN ATOMIC CHARGES
-----------------------
   0 S :    0.119779
   1 C :   -0.115428
   2 C :   -0.122693
   3 C :    0.064999
   4 C :   -0.185653
   5 H :    0.017643
   6 C :    0.030419
   7 H :    0.015686
   8 H :    0.024077
   9 C :    0.013971
  10 H :    0.019783
  11 H :    0.010807
  12 C :   -0.073721
  13 H :    0.039805
  14 H :    0.020701
  15 H :    0.032993
  16 S :    0.096520
  17 C :   -0.101029
  18 C :   -0.052127
  19 C :    0.006968
  20 C :   -0.181869
  21 H :    0.020269
  22 C :    0.104914
  23 H :    0.027720
  24 H :    0.017915
  25 C :   -0.137749
  26 H :    0.053106
  27 H :    0.060596
  28 C :   -0.042190
  29 H :    0.032697
  30 H :    0.035407
  31 H :    0.026516
  32 H :    0.054316
  33 H :    0.064851
Sum of atomic charges:   -0.0000000

LOEWDIN ATOMIC CHARGES
----------------------
   0 S :    0.422107
   1 C :   -0.218837
   2 C :   -0.068985
   3 C :   -0.053897
   4 C :   -0.189541
   5 H :    0.033939
   6 C :   -0.035903
   7 H :    0.028854
   8 H :    0.033328
   9 C :   -0.039965
  10 H :    0.028335
  11 H :    0.017919
  12 C :   -0.067313
  13 H :    0.031795
  14 H :    0.016552
  15 H :    0.028695
  16 S :    0.399147
  17 C :   -0.190078
  18 C :   -0.080698
  19 C :   -0.046840
  20 C :   -0.201701
  21 H :    0.031817
  22 C :   -0.031769
  23 H :    0.031514
  24 H :    0.028265
  25 C :   -0.047106
  26 H :    0.037528
  27 H :    0.037353
  28 C :   -0.073314
  29 H :    0.021206
  30 H :    0.032493
  31 H :    0.025613
  32 H :    0.028431
  33 H :    0.031056

  Mayer bond orders larger than 0.100000
B(  0-S ,  1-C ) :   1.1658 B(  0-S ,  4-C ) :   1.1729 B(  1-C ,  2-C ) :   1.5508
B(  1-C ,  4-C ) :   0.1094 B(  1-C , 32-H ) :   0.9684 B(  2-C ,  3-C ) :   1.2809
B(  2-C ,  6-C ) :   1.0320 B(  3-C ,  4-C ) :   1.5071 B(  3-C ,  5-H ) :   0.9962
B(  4-C , 20-C ) :   1.0383 B(  6-C ,  7-H ) :   0.9288 B(  6-C ,  8-H ) :   0.9452
B(  6-C ,  9-C ) :   1.0798 B(  9-C , 10-H ) :   0.9439 B(  9-C , 11-H ) :   0.9500
B(  9-C , 12-C ) :   1.0859 B( 12-C , 13-H ) :   0.9722 B( 12-C , 14-H ) :   0.9722
B( 12-C , 15-H ) :   0.9702 B( 16-S , 17-C ) :   1.1611 B( 16-S , 20-C ) :   1.1415
B( 17-C , 18-C ) :   1.6138 B( 17-C , 33-H ) :   0.9670 B( 18-C , 19-C ) :   1.2081
B( 18-C , 21-H ) :   0.9898 B( 19-C , 20-C ) :   1.6143 B( 19-C , 22-C ) :   1.0328
B( 22-C , 23-H ) :   0.9315 B( 22-C , 24-H ) :   0.9247 B( 22-C , 25-C ) :   1.0658
B( 25-C , 26-H ) :   0.9452 B( 25-C , 27-H ) :   0.9596 B( 25-C , 28-C ) :   1.0819
B( 28-C , 29-H ) :   0.9752 B( 28-C , 30-H ) :   0.9740 B( 28-C , 31-H ) :   0.9727

Dispersion correction           -0.013898427
FINAL SINGLE POINT ENERGY     -1339.868253330707

DIPOLE MOMENT
-------------
                                X             Y             Z
Electronic contribution:    -18.20606      -4.73470      11.45350
Nuclear contribution   :     18.58609       5.05983     -11.88475
                        -----------------------------------------
Total Dipole Moment    :      0.38003       0.32513      -0.43125
                        -----------------------------------------
Magnitude (a.u.)       :      0.66039
Magnitude (Debye)      :      1.67857

Rotational constants in cm-1:     0.020137     0.007676     0.006411
Rotational constants in MHz :   603.687532   230.116785   192.197194

                             ****ORCA TERMINATED NORMALLY****
TOTAL RUN TIME: 0 days 0 hours 0 minutes 33 seconds 866 msec
