                         Program Version 4.2.1 -  RELEASE  -
|  1> ! wB97X-D3 SP def2-SVP
|  2> %pal
|  3> nprocs 16
|  4> end
|  5>
|  6> * xyz 0 1
|  7> S 	 -38.9239 	 48.6071 	 104.069
|  8> C 	 -37.4604 	 47.6864 	 103.808
|  9> C 	 -36.6759 	 48.2903 	 102.833
| 10> C 	 -37.402 	 49.2788 	 102.062
| 11> C 	 -38.6638 	 49.5652 	 102.599
| 12> H 	 -37.0493 	 49.7782 	 101.187
| 13> C 	 -35.2863 	 47.8793 	 102.469
| 14> H 	 -34.7602 	 47.6163 	 103.465
| 15> H 	 -34.7843 	 48.8168 	 102.158
| 16> C 	 -35.0843 	 46.8258 	 101.363
| 17> H 	 -34.0525 	 46.5453 	 101.266
| 18> H 	 -35.4952 	 45.9082 	 101.696
| 19> C 	 -35.7365 	 47.2321 	 100.073
| 20> H 	 -35.6706 	 46.4991 	 99.2123
| 21> H 	 -36.7553 	 47.2533 	 100.363
| 22> H 	 -35.5071 	 48.244 	 99.6614
| 23> S 	 -40.4601 	 51.3735 	 103.185
| 24> C 	 -41.4579 	 52.0589 	 101.983
| 25> C 	 -41.2663 	 51.4631 	 100.738
| 26> C 	 -40.2169 	 50.4774 	 100.743
| 27> C 	 -39.6693 	 50.4095 	 101.97
| 28> H 	 -41.7182 	 51.8533 	 99.8792
| 29> C 	 -39.8288 	 49.8465 	 99.4313
| 30> H 	 -40.6063 	 49.5323 	 98.8103
| 31> H 	 -39.5303 	 48.8671 	 99.7931
| 32> C 	 -38.75 	 50.4601 	 98.5155
| 33> H 	 -37.8212 	 50.4483 	 99.0643
| 34> H 	 -39.074 	 51.4341 	 98.5066
| 35> C 	 -38.6615 	 49.786 	 97.1249
| 36> H 	 -39.6612 	 49.9186 	 96.6803
| 37> H 	 -38.3495 	 48.7089 	 97.3064
| 38> H 	 -38.0149 	 50.3932 	 96.4877
| 39> H 	 -37.1745 	 46.8488 	 104.343
| 40> H 	 -42.2203 	 52.8145 	 102.223
| 41> *
| 42>
| 43>                          ****END OF INPUT****

CARTESIAN COORDINATES (ANGSTROEM)
---------------------------------
  S    -38.923900   48.607100  104.069000
  C    -37.460400   47.686400  103.808000
  C    -36.675900   48.290300  102.833000
  C    -37.402000   49.278800  102.062000
  C    -38.663800   49.565200  102.599000
  H    -37.049300   49.778200  101.187000
  C    -35.286300   47.879300  102.469000
  H    -34.760200   47.616300  103.465000
  H    -34.784300   48.816800  102.158000
  C    -35.084300   46.825800  101.363000
  H    -34.052500   46.545300  101.266000
  H    -35.495200   45.908200  101.696000
  C    -35.736500   47.232100  100.073000
  H    -35.670600   46.499100   99.212300
  H    -36.755300   47.253300  100.363000
  H    -35.507100   48.244000   99.661400
  S    -40.460100   51.373500  103.185000
  C    -41.457900   52.058900  101.983000
  C    -41.266300   51.463100  100.738000
  C    -40.216900   50.477400  100.743000
  C    -39.669300   50.409500  101.970000
  H    -41.718200   51.853300   99.879200
  C    -39.828800   49.846500   99.431300
  H    -40.606300   49.532300   98.810300
  H    -39.530300   48.867100   99.793100
  C    -38.750000   50.460100   98.515500
  H    -37.821200   50.448300   99.064300
  H    -39.074000   51.434100   98.506600
  C    -38.661500   49.786000   97.124900
  H    -39.661200   49.918600   96.680300
  H    -38.349500   48.708900   97.306400
  H    -38.014900   50.393200   96.487700
  H    -37.174500   46.848800  104.343000
  H    -42.220300   52.814500  102.223000

 Total Charge           Charge          ....    0
 Multiplicity           Mult            ....    1
 Number of Electrons    NEL             ....  134
 Basis Dimension        Dim             ....  322

ORBITAL ENERGIES
----------------

  NO   OCC          E(Eh)            E(eV)
   0   2.0000     -88.967421     -2420.9266
   1   2.0000     -88.963742     -2420.8265
   2   2.0000     -10.330492      -281.1070
   3   2.0000     -10.323138      -280.9069
   4   2.0000     -10.315443      -280.6975
   5   2.0000     -10.311177      -280.5814
   6   2.0000     -10.302486      -280.3449
   7   2.0000     -10.301981      -280.3312
   8   2.0000     -10.297846      -280.2186
   9   2.0000     -10.294600      -280.1303
  10   2.0000     -10.291553      -280.0474
  11   2.0000     -10.288788      -279.9722
  12   2.0000     -10.283173      -279.8194
  13   2.0000     -10.283080      -279.8168
  14   2.0000     -10.281144      -279.7642
  15   2.0000     -10.279300      -279.7140
  16   2.0000      -8.081590      -219.9112
  17   2.0000      -8.080017      -219.8684
  18   2.0000      -6.040203      -164.3623
  19   2.0000      -6.038317      -164.3109
  20   2.0000      -6.036219      -164.2539
  21   2.0000      -6.034400      -164.2044
  22   2.0000      -6.032225      -164.1452
  23   2.0000      -6.030812      -164.1067
  24   2.0000      -1.011958       -27.5368
  25   2.0000      -0.983943       -26.7744
  26   2.0000      -0.915898       -24.9228
  27   2.0000      -0.913634       -24.8613
  28   2.0000      -0.870431       -23.6856
  29   2.0000      -0.858759       -23.3680
  30   2.0000      -0.845047       -22.9949
  31   2.0000      -0.813134       -22.1265
  32   2.0000      -0.785263       -21.3681
  33   2.0000      -0.772083       -21.0095
  34   2.0000      -0.711022       -19.3479
  35   2.0000      -0.709018       -19.2934
  36   2.0000      -0.696214       -18.9449
  37   2.0000      -0.671872       -18.2826
  38   2.0000      -0.643704       -17.5161
  39   2.0000      -0.613235       -16.6870
  40   2.0000      -0.599481       -16.3127
  41   2.0000      -0.572189       -15.5700
  42   2.0000      -0.570004       -15.5106
  43   2.0000      -0.551926       -15.0187
  44   2.0000      -0.541566       -14.7368
  45   2.0000      -0.528910       -14.3924
  46   2.0000      -0.517330       -14.0773
  47   2.0000      -0.514541       -14.0014
  48   2.0000      -0.509212       -13.8564
  49   2.0000      -0.500006       -13.6059
  50   2.0000      -0.493425       -13.4268
  51   2.0000      -0.484106       -13.1732
  52   2.0000      -0.466797       -12.7022
  53   2.0000      -0.464858       -12.6494
  54   2.0000      -0.458322       -12.4716
  55   2.0000      -0.452523       -12.3138
  56   2.0000      -0.440485       -11.9862
  57   2.0000      -0.437501       -11.9050
  58   2.0000      -0.434998       -11.8369
  59   2.0000      -0.432493       -11.7687
  60   2.0000      -0.421122       -11.4593
  61   2.0000      -0.412638       -11.2284
  62   2.0000      -0.409789       -11.1509
  63   2.0000      -0.349368        -9.5068
  64   2.0000      -0.333376        -9.0716
  65   2.0000      -0.328926        -8.9505
  66   2.0000      -0.289056        -7.8656
  67   0.0000       0.032401         0.8817
  68   0.0000       0.063626         1.7314
  69   0.0000       0.102545         2.7904
  70   0.0000       0.120652         3.2831
  71   0.0000       0.123841         3.3699

MULLIKEN ATOMIC CHARGES
-----------------------
   0 S :    0.115114
   1 C :   -0.091690
   2 C :   -0.098458
   3 C :    0.020505
   4 C :   -0.113529
   5 H :   -0.006111
   6 C :    0.006258
   7 H :    0.041239
   8 H :    0.031340
   9 C :    0.019512
  10 H :    0.020504
  11 H :    0.006482
  12 C :   -0.089750
  13 H :    0.044203
  14 H :    0.036716
  15 H :    0.033975
  16 S :    0.101832
  17 C :   -0.090804
  18 C :   -0.017804
  19 C :   -0.027265
  20 C :   -0.178160
  21 H :   -0.000753
  22 C :    0.066067
  23 H :   -0.006551
  24 H :    0.008412
  25 C :   -0.018047
  26 H :    0.016368
  27 H :    0.001420
  28 C :   -0.054977
  29 H :    0.035299
  30 H :    0.060355
  31 H :    0.042426
  32 H :    0.021492
  33 H :    0.064381
Sum of atomic charges:   -0.0000000

LOEWDIN ATOMIC CHARGES
----------------------
   0 S :    0.394343
   1 C :   -0.183866
   2 C :   -0.065285
   3 C :   -0.059941
   4 C :   -0.191796
   5 H :    0.024027
   6 C :   -0.041328
   7 H :    0.040502
   8 H :    0.033083
   9 C :   -0.035091
  10 H :    0.020538
  11 H :    0.020330
  12 C :   -0.073242
  13 H :    0.033311
  14 H :    0.023930
  15 H :    0.024784
  16 S :    0.424405
  17 C :   -0.196629
  18 C :   -0.063399
  19 C :   -0.054539
  20 C :   -0.189233
  21 H :    0.020417
  22 C :   -0.035369
  23 H :    0.021635
  24 H :    0.029743
  25 C :   -0.030905
  26 H :    0.017352
  27 H :    0.011617
  28 C :   -0.063819
  29 H :    0.028778
  30 H :    0.039548
  31 H :    0.029836
  32 H :    0.014854
  33 H :    0.031409

  Mayer bond orders larger than 0.100000
B(  0-S ,  1-C ) :   1.1333 B(  0-S ,  4-C ) :   1.1374 B(  1-C ,  2-C ) :   1.6047
B(  1-C , 32-H ) :   0.9809 B(  2-C ,  3-C ) :   1.2142 B(  2-C ,  6-C ) :   1.0303
B(  3-C ,  4-C ) :   1.5742 B(  3-C ,  5-H ) :   1.0027 B(  4-C , 20-C ) :   1.0314
B(  6-C ,  7-H ) :   0.9423 B(  6-C ,  8-H ) :   0.9407 B(  6-C ,  9-C ) :   1.0650
B(  9-C , 10-H ) :   0.9531 B(  9-C , 11-H ) :   0.9502 B(  9-C , 12-C ) :   1.0703
B( 12-C , 13-H ) :   0.9706 B( 12-C , 14-H ) :   0.9702 B( 12-C , 15-H ) :   0.9747
B( 16-S , 17-C ) :   1.1627 B( 16-S , 20-C ) :   1.1394 B( 17-C , 18-C ) :   1.6106
B( 17-C , 33-H ) :   0.9663 B( 18-C , 19-C ) :   1.2099 B( 18-C , 21-H ) :   0.9985
B( 19-C , 20-C ) :   1.6397 B( 19-C , 22-C ) :   1.0469 B( 22-C , 23-H ) :   0.9298
B( 22-C , 24-H ) :   0.9147 B( 22-C , 25-C ) :   1.0497 B( 25-C , 26-H ) :   0.9505
B( 25-C , 27-H ) :   0.9504 B( 25-C , 28-C ) :   1.0800 B( 28-C , 29-H ) :   0.9719
B( 28-C , 30-H ) :   0.9751 B( 28-C , 31-H ) :   0.9726

Dispersion correction           -0.015248323
FINAL SINGLE POINT ENERGY     -1339.858105681343

DIPOLE MOMENT
-------------
                                X             Y             Z
Electronic contribution:    -15.52370       8.90338      26.08901
Nuclear contribution   :     15.75637      -9.02244     -26.69241
                        -----------------------------------------
Total Dipole Moment    :      0.23267      -0.11906      -0.60339
                        -----------------------------------------
Magnitude (a.u.)       :      0.65757
Magnitude (Debye)      :      1.67140

Rotational constants in cm-1:     0.016408     0.010952     0.006931
Rotational constants in MHz :   491.896204   328.345860   207.791616

                             ****ORCA TERMINATED NORMALLY****
TOTAL RUN TIME: 0 days 0 hours 0 minutes 31 seconds 759 msec
