                         Program Version 4.2.1 -  RELEASE  -
|  1> ! wB97X-D3 SP def2-SVP
|  2> %pal
|  3> nprocs 16
|  4> end
|  5>
|  6> * xyz 0 1
|  7> S 	 -107.265 	 42.6298 	 131.661
|  8> C 	 -106 	 41.9147 	 132.629
|  9> C 	 -105.1 	 41.3066 	 131.738
| 10> C 	 -105.346 	 41.6394 	 130.348
| 11> C 	 -106.475 	 42.3841 	 130.109
| 12> H 	 -104.702 	 41.3203 	 129.537
| 13> C 	 -103.865 	 40.5009 	 132.156
| 14> H 	 -103.766 	 39.4664 	 131.743
| 15> H 	 -104.02 	 40.2945 	 133.229
| 16> C 	 -102.427 	 41.1214 	 131.844
| 17> H 	 -101.611 	 40.3475 	 132.009
| 18> H 	 -102.373 	 41.3215 	 130.796
| 19> C 	 -102.272 	 42.3774 	 132.68
| 20> H 	 -101.35 	 42.9013 	 132.429
| 21> H 	 -103.137 	 42.9623 	 132.622
| 22> H 	 -102.217 	 42.0979 	 133.732
| 23> S 	 -108.223 	 44.0283 	 128.806
| 24> C 	 -108.455 	 43.9046 	 127.11
| 25> C 	 -107.599 	 43.0202 	 126.521
| 26> C 	 -106.735 	 42.4497 	 127.492
| 27> C 	 -106.991 	 42.7619 	 128.813
| 28> H 	 -107.622 	 42.7356 	 125.449
| 29> C 	 -105.668 	 41.5106 	 126.981
| 30> H 	 -106.048 	 41.101 	 126.008
| 31> H 	 -105.703 	 40.6802 	 127.634
| 32> C 	 -104.3 	 42.1493 	 126.922
| 33> H 	 -103.621 	 41.3453 	 126.804
| 34> H 	 -103.958 	 42.5896 	 127.854
| 35> C 	 -104.043 	 43.2068 	 125.828
| 36> H 	 -104.245 	 42.8579 	 124.815
| 37> H 	 -103.051 	 43.613 	 125.871
| 38> H 	 -104.744 	 44.0459 	 125.963
| 39> H 	 -105.839 	 41.9394 	 133.712
| 40> H 	 -109.204 	 44.4403 	 126.534
| 41> *
| 42>
| 43>                          ****END OF INPUT****

CARTESIAN COORDINATES (ANGSTROEM)
---------------------------------
  S    -107.265000   42.629800  131.661000
  C    -106.000000   41.914700  132.629000
  C    -105.100000   41.306600  131.738000
  C    -105.346000   41.639400  130.348000
  C    -106.475000   42.384100  130.109000
  H    -104.702000   41.320300  129.537000
  C    -103.865000   40.500900  132.156000
  H    -103.766000   39.466400  131.743000
  H    -104.020000   40.294500  133.229000
  C    -102.427000   41.121400  131.844000
  H    -101.611000   40.347500  132.009000
  H    -102.373000   41.321500  130.796000
  C    -102.272000   42.377400  132.680000
  H    -101.350000   42.901300  132.429000
  H    -103.137000   42.962300  132.622000
  H    -102.217000   42.097900  133.732000
  S    -108.223000   44.028300  128.806000
  C    -108.455000   43.904600  127.110000
  C    -107.599000   43.020200  126.521000
  C    -106.735000   42.449700  127.492000
  C    -106.991000   42.761900  128.813000
  H    -107.622000   42.735600  125.449000
  C    -105.668000   41.510600  126.981000
  H    -106.048000   41.101000  126.008000
  H    -105.703000   40.680200  127.634000
  C    -104.300000   42.149300  126.922000
  H    -103.621000   41.345300  126.804000
  H    -103.958000   42.589600  127.854000
  C    -104.043000   43.206800  125.828000
  H    -104.245000   42.857900  124.815000
  H    -103.051000   43.613000  125.871000
  H    -104.744000   44.045900  125.963000
  H    -105.839000   41.939400  133.712000
  H    -109.204000   44.440300  126.534000

 Total Charge           Charge          ....    0
 Multiplicity           Mult            ....    1
 Number of Electrons    NEL             ....  134
 Basis Dimension        Dim             ....  322

ORBITAL ENERGIES
----------------

  NO   OCC          E(Eh)            E(eV)
   0   2.0000     -88.968622     -2420.9593
   1   2.0000     -88.964893     -2420.8578
   2   2.0000     -10.335439      -281.2416
   3   2.0000     -10.330601      -281.1099
   4   2.0000     -10.322944      -280.9016
   5   2.0000     -10.316969      -280.7390
   6   2.0000     -10.308831      -280.5175
   7   2.0000     -10.302229      -280.3379
   8   2.0000     -10.298264      -280.2300
   9   2.0000     -10.294606      -280.1305
  10   2.0000     -10.293760      -280.1074
  11   2.0000     -10.291921      -280.0574
  12   2.0000     -10.291209      -280.0380
  13   2.0000     -10.284858      -279.8652
  14   2.0000     -10.277110      -279.6544
  15   2.0000     -10.268112      -279.4095
  16   2.0000      -8.082907      -219.9471
  17   2.0000      -8.080239      -219.8745
  18   2.0000      -6.041721      -164.4036
  19   2.0000      -6.038761      -164.3230
  20   2.0000      -6.037372      -164.2852
  21   2.0000      -6.034588      -164.2095
  22   2.0000      -6.033427      -164.1779
  23   2.0000      -6.031031      -164.1127
  24   2.0000      -1.012183       -27.5429
  25   2.0000      -0.988404       -26.8958
  26   2.0000      -0.915199       -24.9038
  27   2.0000      -0.905645       -24.6438
  28   2.0000      -0.875205       -23.8155
  29   2.0000      -0.852145       -23.1881
  30   2.0000      -0.841226       -22.8909
  31   2.0000      -0.818463       -22.2715
  32   2.0000      -0.785395       -21.3717
  33   2.0000      -0.772202       -21.0127
  34   2.0000      -0.716222       -19.4894
  35   2.0000      -0.703045       -19.1308
  36   2.0000      -0.693558       -18.8727
  37   2.0000      -0.667181       -18.1549
  38   2.0000      -0.638178       -17.3657
  39   2.0000      -0.622229       -16.9317
  40   2.0000      -0.594975       -16.1901
  41   2.0000      -0.569722       -15.5029
  42   2.0000      -0.557845       -15.1797
  43   2.0000      -0.547643       -14.9021
  44   2.0000      -0.547313       -14.8931
  45   2.0000      -0.532980       -14.5031
  46   2.0000      -0.523444       -14.2436
  47   2.0000      -0.520448       -14.1621
  48   2.0000      -0.504173       -13.7192
  49   2.0000      -0.502025       -13.6608
  50   2.0000      -0.492185       -13.3930
  51   2.0000      -0.476156       -12.9569
  52   2.0000      -0.474155       -12.9024
  53   2.0000      -0.471830       -12.8391
  54   2.0000      -0.456199       -12.4138
  55   2.0000      -0.454279       -12.3616
  56   2.0000      -0.446429       -12.1479
  57   2.0000      -0.440463       -11.9856
  58   2.0000      -0.428516       -11.6605
  59   2.0000      -0.422631       -11.5004
  60   2.0000      -0.421189       -11.4611
  61   2.0000      -0.411925       -11.2091
  62   2.0000      -0.405345       -11.0300
  63   2.0000      -0.366179        -9.9642
  64   2.0000      -0.334214        -9.0944
  65   2.0000      -0.326369        -8.8809
  66   2.0000      -0.286409        -7.7936
  67   0.0000       0.017875         0.4864
  68   0.0000       0.085900         2.3375
  69   0.0000       0.101683         2.7669
  70   0.0000       0.116014         3.1569
  71   0.0000       0.131527         3.5790

MULLIKEN ATOMIC CHARGES
-----------------------
   0 S :    0.106916
   1 C :   -0.114409
   2 C :   -0.089617
   3 C :   -0.026527
   4 C :   -0.061749
   5 H :    0.001878
   6 C :    0.006086
   7 H :    0.040660
   8 H :    0.015884
   9 C :   -0.078485
  10 H :    0.037652
  11 H :    0.023189
  12 C :   -0.013764
  13 H :    0.035301
  14 H :    0.027913
  15 H :    0.015497
  16 S :    0.095706
  17 C :   -0.071200
  18 C :   -0.042214
  19 C :   -0.099915
  20 C :   -0.120685
  21 H :    0.034133
  22 C :    0.062806
  23 H :    0.023495
  24 H :    0.019538
  25 C :   -0.050595
  26 H :    0.014040
  27 H :    0.033665
  28 C :   -0.037293
  29 H :    0.021802
  30 H :    0.033950
  31 H :    0.036069
  32 H :    0.064437
  33 H :    0.055834
Sum of atomic charges:   -0.0000000

LOEWDIN ATOMIC CHARGES
----------------------
   0 S :    0.403180
   1 C :   -0.205194
   2 C :   -0.062600
   3 C :   -0.073142
   4 C :   -0.185581
   5 H :    0.027527
   6 C :   -0.041999
   7 H :    0.035891
   8 H :    0.026412
   9 C :   -0.038103
  10 H :    0.029796
  11 H :    0.015446
  12 C :   -0.062027
  13 H :    0.025691
  14 H :    0.019292
  15 H :    0.024822
  16 S :    0.411192
  17 C :   -0.185705
  18 C :   -0.082508
  19 C :   -0.053454
  20 C :   -0.190136
  21 H :    0.041077
  22 C :   -0.030166
  23 H :    0.035028
  24 H :    0.024571
  25 C :   -0.040333
  26 H :    0.018892
  27 H :    0.026693
  28 C :   -0.062011
  29 H :    0.021282
  30 H :    0.025851
  31 H :    0.028394
  32 H :    0.040047
  33 H :    0.031875

  Mayer bond orders larger than 0.100000
B(  0-S ,  1-C ) :   1.1315 B(  0-S ,  4-C ) :   1.1333 B(  1-C ,  2-C ) :   1.5844
B(  1-C , 32-H ) :   0.9661 B(  2-C ,  3-C ) :   1.2403 B(  2-C ,  6-C ) :   1.0392
B(  3-C ,  4-C ) :   1.5586 B(  3-C ,  5-H ) :   0.9945 B(  4-C , 20-C ) :   1.0976
B(  6-C ,  7-H ) :   0.9425 B(  6-C ,  8-H ) :   0.9464 B(  6-C ,  9-C ) :   1.0554
B(  9-C , 10-H ) :   0.9568 B(  9-C , 11-H ) :   0.9576 B(  9-C , 12-C ) :   1.0699
B( 12-C , 13-H ) :   0.9732 B( 12-C , 14-H ) :   0.9770 B( 12-C , 15-H ) :   0.9729
B( 16-S , 17-C ) :   1.1772 B( 16-S , 20-C ) :   1.1169 B( 17-C , 18-C ) :   1.5875
B( 17-C , 33-H ) :   0.9632 B( 18-C , 19-C ) :   1.2674 B( 18-C , 21-H ) :   0.9848
B( 19-C , 20-C ) :   1.5846 B( 19-C , 22-C ) :   1.0317 B( 22-C , 23-H ) :   0.9373
B( 22-C , 24-H ) :   0.9306 B( 22-C , 25-C ) :   1.0691 B( 25-C , 26-H ) :   0.9523
B( 25-C , 27-H ) :   0.9504 B( 25-C , 28-C ) :   1.0787 B( 28-C , 29-H ) :   0.9757
B( 28-C , 30-H ) :   0.9730 B( 28-C , 31-H ) :   0.9743

Dispersion correction           -0.014966310
FINAL SINGLE POINT ENERGY     -1339.881174105288

DIPOLE MOMENT
-------------
                                X             Y             Z
Electronic contribution:    -26.84820       7.25418       5.04426
Nuclear contribution   :     27.37398      -7.56616      -5.43406
                        -----------------------------------------
Total Dipole Moment    :      0.52577      -0.31199      -0.38980
                        -----------------------------------------
Magnitude (a.u.)       :      0.72507
Magnitude (Debye)      :      1.84297

Rotational constants in cm-1:     0.019309     0.009457     0.006941
Rotational constants in MHz :   578.860864   283.515530   208.072949

                             ****ORCA TERMINATED NORMALLY****
TOTAL RUN TIME: 0 days 0 hours 0 minutes 35 seconds 110 msec
