                         Program Version 4.2.1 -  RELEASE  -
|  1> ! wB97X-D3 SP def2-SVP
|  2> %pal
|  3> nprocs 16
|  4> end
|  5>
|  6> * xyz 0 1
|  7> S 	 50.0291 	 4.84451 	 85.4968
|  8> C 	 51.4348 	 5.62844 	 84.8793
|  9> C 	 51.3088 	 5.92376 	 83.5409
| 10> C 	 50.1784 	 5.26673 	 82.9533
| 11> C 	 49.3757 	 4.60254 	 83.922
| 12> H 	 49.8948 	 5.1784 	 81.9505
| 13> C 	 52.3158 	 6.70925 	 82.6902
| 14> H 	 52.3232 	 7.69747 	 83.1999
| 15> H 	 52.0184 	 6.93915 	 81.6874
| 16> C 	 53.6476 	 6.0743 	 82.4934
| 17> H 	 54.2516 	 5.9735 	 83.4539
| 18> H 	 53.4688 	 5.09407 	 82.2777
| 19> C 	 54.5834 	 6.72983 	 81.4809
| 20> H 	 55.4985 	 6.11462 	 81.526
| 21> H 	 54.2086 	 6.74104 	 80.4628
| 22> H 	 54.9865 	 7.72086 	 81.7357
| 23> S 	 46.6909 	 4.49832 	 83.7234
| 24> C 	 45.9193 	 2.9645 	 83.3731
| 25> C 	 46.8409 	 1.96284 	 83.1246
| 26> C 	 48.1927 	 2.40703 	 83.3919
| 27> C 	 48.2732 	 3.74402 	 83.6985
| 28> H 	 46.604 	 0.965299 	 82.7249
| 29> C 	 49.4384 	 1.56964 	 83.0875
| 30> H 	 49.1792 	 0.563293 	 83.3698
| 31> H 	 50.2288 	 1.92424 	 83.8134
| 32> C 	 49.9448 	 1.62122 	 81.61
| 33> H 	 50.4045 	 2.58111 	 81.5391
| 34> H 	 49.0482 	 1.49259 	 81.0282
| 35> C 	 51.0361 	 0.598872 	 81.1976
| 36> H 	 51.4782 	 0.780272 	 80.2026
| 37> H 	 50.7187 	 -0.395043 	 81.1712
| 38> H 	 51.9013 	 0.684193 	 81.9399
| 39> H 	 52.2223 	 6.0447 	 85.4854
| 40> H 	 44.8188 	 2.92786 	 83.1721
| 41> *
| 42>
| 43>                          ****END OF INPUT****

CARTESIAN COORDINATES (ANGSTROEM)
---------------------------------
  S     50.029100    4.844510   85.496800
  C     51.434800    5.628440   84.879300
  C     51.308800    5.923760   83.540900
  C     50.178400    5.266730   82.953300
  C     49.375700    4.602540   83.922000
  H     49.894800    5.178400   81.950500
  C     52.315800    6.709250   82.690200
  H     52.323200    7.697470   83.199900
  H     52.018400    6.939150   81.687400
  C     53.647600    6.074300   82.493400
  H     54.251600    5.973500   83.453900
  H     53.468800    5.094070   82.277700
  C     54.583400    6.729830   81.480900
  H     55.498500    6.114620   81.526000
  H     54.208600    6.741040   80.462800
  H     54.986500    7.720860   81.735700
  S     46.690900    4.498320   83.723400
  C     45.919300    2.964500   83.373100
  C     46.840900    1.962840   83.124600
  C     48.192700    2.407030   83.391900
  C     48.273200    3.744020   83.698500
  H     46.604000    0.965299   82.724900
  C     49.438400    1.569640   83.087500
  H     49.179200    0.563293   83.369800
  H     50.228800    1.924240   83.813400
  C     49.944800    1.621220   81.610000
  H     50.404500    2.581110   81.539100
  H     49.048200    1.492590   81.028200
  C     51.036100    0.598872   81.197600
  H     51.478200    0.780272   80.202600
  H     50.718700   -0.395043   81.171200
  H     51.901300    0.684193   81.939900
  H     52.222300    6.044700   85.485400
  H     44.818800    2.927860   83.172100

 Total Charge           Charge          ....    0
 Multiplicity           Mult            ....    1
 Number of Electrons    NEL             ....  134
 Basis Dimension        Dim             ....  322

ORBITAL ENERGIES
----------------

  NO   OCC          E(Eh)            E(eV)
   0   2.0000     -88.967777     -2420.9363
   1   2.0000     -88.962305     -2420.7874
   2   2.0000     -10.323934      -280.9285
   3   2.0000     -10.322417      -280.8873
   4   2.0000     -10.318521      -280.7812
   5   2.0000     -10.311666      -280.5947
   6   2.0000     -10.303169      -280.3635
   7   2.0000     -10.302674      -280.3500
   8   2.0000     -10.299548      -280.2650
   9   2.0000     -10.294606      -280.1305
  10   2.0000     -10.291796      -280.0540
  11   2.0000     -10.289610      -279.9945
  12   2.0000     -10.285303      -279.8773
  13   2.0000     -10.282168      -279.7920
  14   2.0000     -10.281765      -279.7810
  15   2.0000     -10.280868      -279.7566
  16   2.0000      -8.083128      -219.9531
  17   2.0000      -8.077395      -219.7971
  18   2.0000      -6.041457      -164.3964
  19   2.0000      -6.037382      -164.2855
  20   2.0000      -6.035910      -164.2455
  21   2.0000      -6.034200      -164.1989
  22   2.0000      -6.031852      -164.1350
  23   2.0000      -6.028127      -164.0337
  24   2.0000      -1.009610       -27.4729
  25   2.0000      -0.984424       -26.7875
  26   2.0000      -0.917888       -24.9770
  27   2.0000      -0.901111       -24.5205
  28   2.0000      -0.873608       -23.7721
  29   2.0000      -0.850337       -23.1389
  30   2.0000      -0.846773       -23.0419
  31   2.0000      -0.811475       -22.0814
  32   2.0000      -0.785354       -21.3706
  33   2.0000      -0.770556       -20.9679
  34   2.0000      -0.705617       -19.2008
  35   2.0000      -0.704602       -19.1732
  36   2.0000      -0.692109       -18.8332
  37   2.0000      -0.662970       -18.0403
  38   2.0000      -0.650893       -17.7117
  39   2.0000      -0.611635       -16.6434
  40   2.0000      -0.590374       -16.0649
  41   2.0000      -0.577322       -15.7097
  42   2.0000      -0.568043       -15.4572
  43   2.0000      -0.558362       -15.1938
  44   2.0000      -0.523586       -14.2475
  45   2.0000      -0.522706       -14.2236
  46   2.0000      -0.514668       -14.0048
  47   2.0000      -0.512182       -13.9372
  48   2.0000      -0.504382       -13.7249
  49   2.0000      -0.503034       -13.6883
  50   2.0000      -0.498925       -13.5764
  51   2.0000      -0.477688       -12.9985
  52   2.0000      -0.472307       -12.8521
  53   2.0000      -0.465441       -12.6653
  54   2.0000      -0.460693       -12.5361
  55   2.0000      -0.453921       -12.3518
  56   2.0000      -0.445407       -12.1201
  57   2.0000      -0.432892       -11.7796
  58   2.0000      -0.427530       -11.6337
  59   2.0000      -0.426390       -11.6026
  60   2.0000      -0.425081       -11.5670
  61   2.0000      -0.414114       -11.2686
  62   2.0000      -0.410905       -11.1813
  63   2.0000      -0.335780        -9.1370
  64   2.0000      -0.329043        -8.9537
  65   2.0000      -0.315437        -8.5835
  66   2.0000      -0.314504        -8.5581
  67   0.0000       0.045218         1.2304
  68   0.0000       0.050733         1.3805
  69   0.0000       0.115437         3.1412
  70   0.0000       0.119023         3.2388
  71   0.0000       0.127044         3.4570

MULLIKEN ATOMIC CHARGES
-----------------------
   0 S :    0.143753
   1 C :   -0.126159
   2 C :   -0.085849
   3 C :    0.074539
   4 C :   -0.200742
   5 H :   -0.004875
   6 C :    0.092139
   7 H :    0.034071
   8 H :    0.004198
   9 C :   -0.058141
  10 H :    0.022582
  11 H :    0.006640
  12 C :   -0.052352
  13 H :    0.031464
  14 H :    0.036712
  15 H :    0.033762
  16 S :    0.107682
  17 C :   -0.106826
  18 C :   -0.038808
  19 C :   -0.032921
  20 C :   -0.194184
  21 H :    0.029959
  22 C :    0.049904
  23 H :    0.010778
  24 H :    0.039235
  25 C :   -0.034077
  26 H :    0.025026
  27 H :    0.026395
  28 C :   -0.051999
  29 H :    0.037266
  30 H :    0.021340
  31 H :    0.035536
  32 H :    0.046067
  33 H :    0.077886
Sum of atomic charges:   -0.0000000

LOEWDIN ATOMIC CHARGES
----------------------
   0 S :    0.442966
   1 C :   -0.206289
   2 C :   -0.061524
   3 C :   -0.048247
   4 C :   -0.217030
   5 H :    0.021639
   6 C :   -0.034256
   7 H :    0.035973
   8 H :    0.026067
   9 C :   -0.042131
  10 H :    0.028515
  11 H :    0.013782
  12 C :   -0.067260
  13 H :    0.033252
  14 H :    0.022430
  15 H :    0.027334
  16 S :    0.404578
  17 C :   -0.187814
  18 C :   -0.075338
  19 C :   -0.052354
  20 C :   -0.211093
  21 H :    0.036067
  22 C :   -0.032043
  23 H :    0.020942
  24 H :    0.036141
  25 C :   -0.032902
  26 H :    0.022434
  27 H :    0.021802
  28 C :   -0.066624
  29 H :    0.030041
  30 H :    0.013000
  31 H :    0.033354
  32 H :    0.027133
  33 H :    0.037451

  Mayer bond orders larger than 0.100000
B(  0-S ,  1-C ) :   1.1607 B(  0-S ,  4-C ) :   1.1772 B(  1-C ,  2-C ) :   1.5868
B(  1-C ,  4-C ) :   0.1055 B(  1-C , 32-H ) :   0.9704 B(  2-C ,  3-C ) :   1.2493
B(  2-C ,  6-C ) :   1.0205 B(  3-C ,  4-C ) :   1.5467 B(  3-C ,  5-H ) :   1.0021
B(  4-C , 20-C ) :   1.0272 B(  6-C ,  7-H ) :   0.9305 B(  6-C ,  8-H ) :   0.9441
B(  6-C ,  9-C ) :   1.0678 B(  9-C , 10-H ) :   0.9481 B(  9-C , 11-H ) :   0.9495
B(  9-C , 12-C ) :   1.0936 B( 12-C , 13-H ) :   0.9716 B( 12-C , 14-H ) :   0.9732
B( 12-C , 15-H ) :   0.9745 B( 16-S , 17-C ) :   1.1602 B( 16-S , 20-C ) :   1.1437
B( 17-C , 18-C ) :   1.6051 B( 17-C , 33-H ) :   0.9615 B( 18-C , 19-C ) :   1.2295
B( 18-C , 21-H ) :   0.9863 B( 19-C , 20-C ) :   1.6183 B( 19-C , 22-C ) :   1.0592
B( 22-C , 23-H ) :   0.9318 B( 22-C , 24-H ) :   0.9255 B( 22-C , 25-C ) :   1.0585
B( 25-C , 26-H ) :   0.9523 B( 25-C , 27-H ) :   0.9581 B( 25-C , 28-C ) :   1.0818
B( 28-C , 29-H ) :   0.9745 B( 28-C , 30-H ) :   0.9778 B( 28-C , 31-H ) :   0.9740

Dispersion correction           -0.014526044
FINAL SINGLE POINT ENERGY     -1339.876423191452

DIPOLE MOMENT
-------------
                                X             Y             Z
Electronic contribution:    -24.96983       5.21707      17.59661
Nuclear contribution   :     25.39357      -5.36033     -18.12349
                        -----------------------------------------
Total Dipole Moment    :      0.42375      -0.14326      -0.52688
                        -----------------------------------------
Magnitude (a.u.)       :      0.69115
Magnitude (Debye)      :      1.75676

Rotational constants in cm-1:     0.018592     0.008524     0.006732
Rotational constants in MHz :   557.387617   255.547760   201.824636

                             ****ORCA TERMINATED NORMALLY****
TOTAL RUN TIME: 0 days 0 hours 0 minutes 31 seconds 386 msec
