                         Program Version 4.2.1 -  RELEASE  -
|  1> ! wB97X-D3 SP def2-SVP
|  2> %pal
|  3> nprocs 16
|  4> end
|  5>
|  6> * xyz 0 1
|  7> S 	 26.8662 	 13.3632 	 67.048
|  8> C 	 26.2848 	 14.9549 	 67.5885
|  9> C 	 25.413 	 14.766 	 68.6954
| 10> C 	 25.6546 	 13.4488 	 69.2827
| 11> C 	 26.5543 	 12.65 	 68.6107
| 12> H 	 25.2983 	 13.2047 	 70.2372
| 13> C 	 24.53 	 15.7953 	 69.2562
| 14> H 	 23.5596 	 15.5723 	 68.7704
| 15> H 	 24.7952 	 16.7707 	 68.871
| 16> C 	 24.3116 	 15.8895 	 70.7601
| 17> H 	 23.9314 	 14.95 	 71.2301
| 18> H 	 25.3083 	 16.0685 	 71.1901
| 19> C 	 23.2624 	 16.9637 	 71.103
| 20> H 	 23.3934 	 17.9666 	 70.6726
| 21> H 	 22.2513 	 16.6338 	 70.8195
| 22> H 	 23.0406 	 17.0297 	 72.1382
| 23> S 	 27.3512 	 10.2979 	 67.5393
| 24> C 	 27.482 	 8.90676 	 68.5485
| 25> C 	 27.3999 	 9.23106 	 69.8712
| 26> C 	 27.1673 	 10.6106 	 70.1486
| 27> C 	 26.9717 	 11.2865 	 68.9465
| 28> H 	 27.5501 	 8.43972 	 70.5422
| 29> C 	 26.862 	 11.0714 	 71.6014
| 30> H 	 27.0096 	 12.1674 	 71.4623
| 31> H 	 27.5455 	 10.7023 	 72.302
| 32> C 	 25.419 	 10.7151 	 71.9849
| 33> H 	 25.3433 	 9.70331 	 72.1797
| 34> H 	 24.7208 	 10.9497 	 71.1967
| 35> C 	 24.9675 	 11.4974 	 73.2827
| 36> H 	 23.9945 	 11.1472 	 73.6976
| 37> H 	 24.7686 	 12.5152 	 73.0795
| 38> H 	 25.7488 	 11.4583 	 74.1454
| 39> H 	 26.0898 	 15.805 	 66.9543
| 40> H 	 27.6741 	 7.92861 	 68.1304
| 41> *
| 42>
| 43>                          ****END OF INPUT****

CARTESIAN COORDINATES (ANGSTROEM)
---------------------------------
  S     26.866200   13.363200   67.048000
  C     26.284800   14.954900   67.588500
  C     25.413000   14.766000   68.695400
  C     25.654600   13.448800   69.282700
  C     26.554300   12.650000   68.610700
  H     25.298300   13.204700   70.237200
  C     24.530000   15.795300   69.256200
  H     23.559600   15.572300   68.770400
  H     24.795200   16.770700   68.871000
  C     24.311600   15.889500   70.760100
  H     23.931400   14.950000   71.230100
  H     25.308300   16.068500   71.190100
  C     23.262400   16.963700   71.103000
  H     23.393400   17.966600   70.672600
  H     22.251300   16.633800   70.819500
  H     23.040600   17.029700   72.138200
  S     27.351200   10.297900   67.539300
  C     27.482000    8.906760   68.548500
  C     27.399900    9.231060   69.871200
  C     27.167300   10.610600   70.148600
  C     26.971700   11.286500   68.946500
  H     27.550100    8.439720   70.542200
  C     26.862000   11.071400   71.601400
  H     27.009600   12.167400   71.462300
  H     27.545500   10.702300   72.302000
  C     25.419000   10.715100   71.984900
  H     25.343300    9.703310   72.179700
  H     24.720800   10.949700   71.196700
  C     24.967500   11.497400   73.282700
  H     23.994500   11.147200   73.697600
  H     24.768600   12.515200   73.079500
  H     25.748800   11.458300   74.145400
  H     26.089800   15.805000   66.954300
  H     27.674100    7.928610   68.130400

 Total Charge           Charge          ....    0
 Multiplicity           Mult            ....    1
 Number of Electrons    NEL             ....  134
 Basis Dimension        Dim             ....  322

ORBITAL ENERGIES
----------------

  NO   OCC          E(Eh)            E(eV)
   0   2.0000     -88.964459     -2420.8460
   1   2.0000     -88.962812     -2420.8012
   2   2.0000     -10.331817      -281.1430
   3   2.0000     -10.331286      -281.1286
   4   2.0000     -10.313115      -280.6341
   5   2.0000     -10.312887      -280.6279
   6   2.0000     -10.308009      -280.4952
   7   2.0000     -10.306882      -280.4645
   8   2.0000     -10.297102      -280.1984
   9   2.0000     -10.297003      -280.1957
  10   2.0000     -10.292896      -280.0839
  11   2.0000     -10.290990      -280.0321
  12   2.0000     -10.288691      -279.9695
  13   2.0000     -10.287571      -279.9390
  14   2.0000     -10.287285      -279.9312
  15   2.0000     -10.281686      -279.7789
  16   2.0000      -8.079960      -219.8669
  17   2.0000      -8.077180      -219.7912
  18   2.0000      -6.038428      -164.3140
  19   2.0000      -6.035973      -164.2472
  20   2.0000      -6.034503      -164.2072
  21   2.0000      -6.032001      -164.1391
  22   2.0000      -6.030600      -164.1010
  23   2.0000      -6.027413      -164.0142
  24   2.0000      -1.008212       -27.4348
  25   2.0000      -0.982559       -26.7368
  26   2.0000      -0.918311       -24.9885
  27   2.0000      -0.909994       -24.7622
  28   2.0000      -0.870137       -23.6776
  29   2.0000      -0.851222       -23.1629
  30   2.0000      -0.842845       -22.9350
  31   2.0000      -0.816902       -22.2290
  32   2.0000      -0.783965       -21.3328
  33   2.0000      -0.774059       -21.0632
  34   2.0000      -0.716331       -19.4924
  35   2.0000      -0.707435       -19.2503
  36   2.0000      -0.693800       -18.8793
  37   2.0000      -0.664713       -18.0878
  38   2.0000      -0.636453       -17.3188
  39   2.0000      -0.624409       -16.9910
  40   2.0000      -0.597963       -16.2714
  41   2.0000      -0.574457       -15.6318
  42   2.0000      -0.569716       -15.5028
  43   2.0000      -0.564771       -15.3682
  44   2.0000      -0.527620       -14.3573
  45   2.0000      -0.522692       -14.2232
  46   2.0000      -0.512295       -13.9403
  47   2.0000      -0.511858       -13.9284
  48   2.0000      -0.504187       -13.7196
  49   2.0000      -0.502238       -13.6666
  50   2.0000      -0.494820       -13.4647
  51   2.0000      -0.481525       -13.1030
  52   2.0000      -0.473554       -12.8861
  53   2.0000      -0.466564       -12.6958
  54   2.0000      -0.459342       -12.4993
  55   2.0000      -0.451132       -12.2759
  56   2.0000      -0.445140       -12.1129
  57   2.0000      -0.442430       -12.0391
  58   2.0000      -0.435976       -11.8635
  59   2.0000      -0.433240       -11.7891
  60   2.0000      -0.423423       -11.5219
  61   2.0000      -0.419373       -11.4117
  62   2.0000      -0.412034       -11.2120
  63   2.0000      -0.357085        -9.7168
  64   2.0000      -0.335478        -9.1288
  65   2.0000      -0.319865        -8.7040
  66   2.0000      -0.282946        -7.6993
  67   0.0000       0.018599         0.5061
  68   0.0000       0.073659         2.0044
  69   0.0000       0.095739         2.6052
  70   0.0000       0.116688         3.1752
  71   0.0000       0.124745         3.3945

MULLIKEN ATOMIC CHARGES
-----------------------
   0 S :    0.078433
   1 C :   -0.085321
   2 C :   -0.124119
   3 C :    0.025805
   4 C :   -0.080150
   5 H :   -0.033060
   6 C :    0.062506
   7 H :    0.040838
   8 H :    0.016364
   9 C :   -0.091397
  10 H :    0.041797
  11 H :    0.041143
  12 C :   -0.037154
  13 H :    0.039703
  14 H :    0.017427
  15 H :    0.020840
  16 S :    0.091691
  17 C :   -0.081392
  18 C :   -0.020304
  19 C :   -0.050144
  20 C :   -0.150393
  21 H :   -0.002923
  22 C :    0.071976
  23 H :    0.037533
  24 H :    0.020300
  25 C :   -0.026488
  26 H :    0.015886
  27 H :    0.036093
  28 C :   -0.080901
  29 H :    0.035775
  30 H :    0.022262
  31 H :    0.043791
  32 H :    0.049252
  33 H :    0.054333
Sum of atomic charges:    0.0000000

LOEWDIN ATOMIC CHARGES
----------------------
   0 S :    0.381562
   1 C :   -0.202563
   2 C :   -0.046465
   3 C :   -0.069481
   4 C :   -0.180372
   5 H :    0.013254
   6 C :   -0.042471
   7 H :    0.042751
   8 H :    0.031768
   9 C :   -0.041604
  10 H :    0.028791
  11 H :    0.027154
  12 C :   -0.069560
  13 H :    0.027153
  14 H :    0.028908
  15 H :    0.023672
  16 S :    0.404224
  17 C :   -0.184960
  18 C :   -0.069173
  19 C :   -0.052574
  20 C :   -0.183409
  21 H :    0.022975
  22 C :   -0.020130
  23 H :    0.035537
  24 H :    0.024000
  25 C :   -0.027612
  26 H :    0.015613
  27 H :    0.026548
  28 C :   -0.072539
  29 H :    0.028185
  30 H :    0.013865
  31 H :    0.033981
  32 H :    0.025054
  33 H :    0.027918

  Mayer bond orders larger than 0.100000
B(  0-S ,  1-C ) :   1.1092 B(  0-S ,  4-C ) :   1.1414 B(  1-C ,  2-C ) :   1.6160
B(  1-C , 32-H ) :   0.9612 B(  2-C ,  3-C ) :   1.2279 B(  2-C ,  6-C ) :   1.0446
B(  3-C ,  4-C ) :   1.5645 B(  3-C ,  5-H ) :   0.9959 B(  4-C , 20-C ) :   1.0695
B(  6-C ,  7-H ) :   0.9172 B(  6-C ,  8-H ) :   0.9392 B(  6-C ,  9-C ) :   1.0682
B(  9-C , 10-H ) :   0.9446 B(  9-C , 11-H ) :   0.9600 B(  9-C , 12-C ) :   1.0839
B( 12-C , 13-H ) :   0.9767 B( 12-C , 14-H ) :   0.9686 B( 12-C , 15-H ) :   0.9707
B( 16-S , 17-C ) :   1.1501 B( 16-S , 20-C ) :   1.1436 B( 17-C , 18-C ) :   1.6244
B( 17-C , 33-H ) :   0.9702 B( 18-C , 19-C ) :   1.2081 B( 18-C , 21-H ) :   1.0008
B( 19-C , 20-C ) :   1.5934 B( 19-C , 22-C ) :   1.0450 B( 22-C , 23-H ) :   0.9394
B( 22-C , 24-H ) :   0.9318 B( 22-C , 25-C ) :   1.0618 B( 25-C , 26-H ) :   0.9546
B( 25-C , 27-H ) :   0.9555 B( 25-C , 28-C ) :   1.0708 B( 28-C , 29-H ) :   0.9743
B( 28-C , 30-H ) :   0.9796 B( 28-C , 31-H ) :   0.9742

Dispersion correction           -0.014286510
FINAL SINGLE POINT ENERGY     -1339.861328077977

DIPOLE MOMENT
-------------
                                X             Y             Z
Electronic contribution:     16.78897     -12.85956     -26.73154
Nuclear contribution   :    -17.36022      12.87129      27.41314
                        -----------------------------------------
Total Dipole Moment    :     -0.57125       0.01173       0.68161
                        -----------------------------------------
Magnitude (a.u.)       :      0.88941
Magnitude (Debye)      :      2.26071

Rotational constants in cm-1:     0.017447     0.009628     0.006389
Rotational constants in MHz :   523.062860   288.646067   191.541301

                             ****ORCA TERMINATED NORMALLY****
TOTAL RUN TIME: 0 days 0 hours 0 minutes 28 seconds 632 msec
