                         Program Version 4.2.1 -  RELEASE  -
|  1> ! wB97X-D3 SP def2-SVP
|  2> %pal
|  3> nprocs 16
|  4> end
|  5>
|  6> * xyz 0 1
|  7> S 	 43.54 	 14.5671 	 86.5875
|  8> C 	 44.7581 	 15.7872 	 87.1105
|  9> C 	 45.9946 	 15.3787 	 86.7604
| 10> C 	 45.9657 	 14.2102 	 85.9168
| 11> C 	 44.715 	 13.7666 	 85.633
| 12> H 	 46.8631 	 13.6905 	 85.5466
| 13> C 	 47.2771 	 16.0606 	 87.267
| 14> H 	 47.975 	 15.2223 	 87.4422
| 15> H 	 46.9266 	 16.3751 	 88.2705
| 16> C 	 48.0173 	 17.2078 	 86.5182
| 17> H 	 48.8389 	 17.5391 	 87.2254
| 18> H 	 48.581 	 16.8621 	 85.6407
| 19> C 	 47.0884 	 18.3343 	 86.2591
| 20> H 	 46.8607 	 18.6504 	 87.2307
| 21> H 	 47.5799 	 19.1871 	 85.8266
| 22> H 	 46.2612 	 18.1398 	 85.5986
| 23> S 	 43.3096 	 11.5188 	 85.3737
| 24> C 	 43.4081 	 10.6038 	 83.8574
| 25> C 	 44.1688 	 11.2507 	 82.9272
| 26> C 	 44.883 	 12.3649 	 83.4919
| 27> C 	 44.3964 	 12.7041 	 84.7324
| 28> H 	 44.2024 	 10.8823 	 81.9493
| 29> C 	 45.7364 	 13.2714 	 82.7042
| 30> H 	 46.0614 	 12.6845 	 81.9665
| 31> H 	 46.701 	 13.4843 	 83.2309
| 32> C 	 45.0638 	 14.5027 	 82.0056
| 33> H 	 44.1655 	 14.2523 	 81.3918
| 34> H 	 45.918 	 14.7787 	 81.3388
| 35> C 	 44.7006 	 15.6343 	 82.969
| 36> H 	 43.85 	 15.3325 	 83.5998
| 37> H 	 44.2763 	 16.5164 	 82.5389
| 38> H 	 45.5561 	 15.8824 	 83.5563
| 39> H 	 44.4573 	 16.6419 	 87.7669
| 40> H 	 42.7111 	 9.84535 	 83.5427
| 41> *
| 42>
| 43>                          ****END OF INPUT****

CARTESIAN COORDINATES (ANGSTROEM)
---------------------------------
  S     43.540000   14.567100   86.587500
  C     44.758100   15.787200   87.110500
  C     45.994600   15.378700   86.760400
  C     45.965700   14.210200   85.916800
  C     44.715000   13.766600   85.633000
  H     46.863100   13.690500   85.546600
  C     47.277100   16.060600   87.267000
  H     47.975000   15.222300   87.442200
  H     46.926600   16.375100   88.270500
  C     48.017300   17.207800   86.518200
  H     48.838900   17.539100   87.225400
  H     48.581000   16.862100   85.640700
  C     47.088400   18.334300   86.259100
  H     46.860700   18.650400   87.230700
  H     47.579900   19.187100   85.826600
  H     46.261200   18.139800   85.598600
  S     43.309600   11.518800   85.373700
  C     43.408100   10.603800   83.857400
  C     44.168800   11.250700   82.927200
  C     44.883000   12.364900   83.491900
  C     44.396400   12.704100   84.732400
  H     44.202400   10.882300   81.949300
  C     45.736400   13.271400   82.704200
  H     46.061400   12.684500   81.966500
  H     46.701000   13.484300   83.230900
  C     45.063800   14.502700   82.005600
  H     44.165500   14.252300   81.391800
  H     45.918000   14.778700   81.338800
  C     44.700600   15.634300   82.969000
  H     43.850000   15.332500   83.599800
  H     44.276300   16.516400   82.538900
  H     45.556100   15.882400   83.556300
  H     44.457300   16.641900   87.766900
  H     42.711100    9.845350   83.542700

 Total Charge           Charge          ....    0
 Multiplicity           Mult            ....    1
 Number of Electrons    NEL             ....  134
 Basis Dimension        Dim             ....  322

ORBITAL ENERGIES
----------------

  NO   OCC          E(Eh)            E(eV)
   0   2.0000     -88.962705     -2420.7983
   1   2.0000     -88.962077     -2420.7812
   2   2.0000     -10.321463      -280.8613
   3   2.0000     -10.318910      -280.7918
   4   2.0000     -10.316588      -280.7286
   5   2.0000     -10.312212      -280.6095
   6   2.0000     -10.300988      -280.3041
   7   2.0000     -10.297405      -280.2066
   8   2.0000     -10.296548      -280.1833
   9   2.0000     -10.293489      -280.1001
  10   2.0000     -10.292091      -280.0620
  11   2.0000     -10.290322      -280.0139
  12   2.0000     -10.290039      -280.0062
  13   2.0000     -10.280271      -279.7404
  14   2.0000     -10.267113      -279.3823
  15   2.0000     -10.263549      -279.2854
  16   2.0000      -8.077581      -219.8022
  17   2.0000      -8.077125      -219.7897
  18   2.0000      -6.036134      -164.2516
  19   2.0000      -6.035679      -164.2392
  20   2.0000      -6.032256      -164.1460
  21   2.0000      -6.031647      -164.1295
  22   2.0000      -6.028080      -164.0324
  23   2.0000      -6.027768      -164.0239
  24   2.0000      -1.013154       -27.5693
  25   2.0000      -0.985248       -26.8100
  26   2.0000      -0.914284       -24.8789
  27   2.0000      -0.907918       -24.7057
  28   2.0000      -0.877468       -23.8771
  29   2.0000      -0.848020       -23.0758
  30   2.0000      -0.844871       -22.9901
  31   2.0000      -0.817630       -22.2488
  32   2.0000      -0.785527       -21.3753
  33   2.0000      -0.776578       -21.1318
  34   2.0000      -0.710326       -19.3290
  35   2.0000      -0.697635       -18.9836
  36   2.0000      -0.690922       -18.8009
  37   2.0000      -0.665909       -18.1203
  38   2.0000      -0.636040       -17.3075
  39   2.0000      -0.617640       -16.8068
  40   2.0000      -0.594882       -16.1876
  41   2.0000      -0.568452       -15.4684
  42   2.0000      -0.557529       -15.1711
  43   2.0000      -0.554310       -15.0835
  44   2.0000      -0.541161       -14.7257
  45   2.0000      -0.534313       -14.5394
  46   2.0000      -0.525532       -14.3004
  47   2.0000      -0.505686       -13.7604
  48   2.0000      -0.503179       -13.6922
  49   2.0000      -0.500806       -13.6276
  50   2.0000      -0.490513       -13.3475
  51   2.0000      -0.473722       -12.8906
  52   2.0000      -0.468368       -12.7449
  53   2.0000      -0.465575       -12.6690
  54   2.0000      -0.459232       -12.4963
  55   2.0000      -0.449095       -12.2205
  56   2.0000      -0.446923       -12.1614
  57   2.0000      -0.436580       -11.8799
  58   2.0000      -0.429406       -11.6847
  59   2.0000      -0.422171       -11.4879
  60   2.0000      -0.419504       -11.4153
  61   2.0000      -0.411360       -11.1937
  62   2.0000      -0.406615       -11.0645
  63   2.0000      -0.351111        -9.5542
  64   2.0000      -0.329220        -8.9585
  65   2.0000      -0.328522        -8.9395
  66   2.0000      -0.289908        -7.8888
  67   0.0000       0.027294         0.7427
  68   0.0000       0.073588         2.0024
  69   0.0000       0.104731         2.8499
  70   0.0000       0.121728         3.3124
  71   0.0000       0.126896         3.4530

MULLIKEN ATOMIC CHARGES
-----------------------
   0 S :    0.091938
   1 C :   -0.162081
   2 C :   -0.069762
   3 C :    0.007177
   4 C :   -0.124024
   5 H :    0.020323
   6 C :    0.028132
   7 H :    0.029962
   8 H :    0.026914
   9 C :   -0.055774
  10 H :    0.036303
  11 H :    0.027845
  12 C :   -0.007629
  13 H :    0.006460
  14 H :    0.018341
  15 H :    0.048219
  16 S :    0.091688
  17 C :   -0.072735
  18 C :   -0.027792
  19 C :   -0.068078
  20 C :   -0.136413
  21 H :    0.002130
  22 C :    0.115023
  23 H :   -0.030196
  24 H :    0.023369
  25 C :   -0.080465
  26 H :    0.037181
  27 H :    0.033712
  28 C :   -0.008859
  29 H :    0.033540
  30 H :    0.019645
  31 H :    0.025058
  32 H :    0.067403
  33 H :    0.053443
Sum of atomic charges:   -0.0000000

LOEWDIN ATOMIC CHARGES
----------------------
   0 S :    0.388332
   1 C :   -0.185235
   2 C :   -0.066481
   3 C :   -0.068231
   4 C :   -0.200071
   5 H :    0.033632
   6 C :   -0.035458
   7 H :    0.033671
   8 H :    0.033041
   9 C :   -0.040987
  10 H :    0.034575
  11 H :    0.020461
  12 C :   -0.062728
  13 H :    0.020394
  14 H :    0.025322
  15 H :    0.027945
  16 S :    0.396719
  17 C :   -0.179869
  18 C :   -0.055193
  19 C :   -0.061968
  20 C :   -0.192140
  21 H :    0.024937
  22 C :   -0.035671
  23 H :    0.012564
  24 H :    0.037285
  25 C :   -0.029817
  26 H :    0.029328
  27 H :    0.027886
  28 C :   -0.067620
  29 H :    0.028361
  30 H :    0.020911
  31 H :    0.020581
  32 H :    0.037605
  33 H :    0.027919

  Mayer bond orders larger than 0.100000
B(  0-S ,  1-C ) :   1.1049 B(  0-S ,  4-C ) :   1.1417 B(  1-C ,  2-C ) :   1.6382
B(  1-C , 32-H ) :   0.9681 B(  2-C ,  3-C ) :   1.2095 B(  2-C ,  6-C ) :   0.9973
B(  3-C ,  4-C ) :   1.5853 B(  3-C ,  5-H ) :   0.9982 B(  4-C , 20-C ) :   1.0447
B(  6-C ,  7-H ) :   0.9404 B(  6-C ,  8-H ) :   0.9460 B(  6-C ,  9-C ) :   1.0677
B(  9-C , 10-H ) :   0.9505 B(  9-C , 11-H ) :   0.9558 B(  9-C , 12-C ) :   1.0801
B( 12-C , 13-H ) :   0.9722 B( 12-C , 14-H ) :   0.9665 B( 12-C , 15-H ) :   0.9738
B( 16-S , 17-C ) :   1.1302 B( 16-S , 20-C ) :   1.1441 B( 17-C , 18-C ) :   1.6547
B( 17-C , 33-H ) :   0.9613 B( 18-C , 19-C ) :   1.2053 B( 18-C , 21-H ) :   0.9943
B( 19-C , 20-C ) :   1.6011 B( 19-C , 22-C ) :   1.0688 B( 22-C , 23-H ) :   0.8985
B( 22-C , 24-H ) :   0.9216 B( 22-C , 25-C ) :   1.0607 B( 25-C , 26-H ) :   0.9550
B( 25-C , 27-H ) :   0.9542 B( 25-C , 28-C ) :   1.0922 B( 28-C , 29-H ) :   0.9609
B( 28-C , 30-H ) :   0.9701 B( 28-C , 31-H ) :   0.9705

Dispersion correction           -0.016512530
FINAL SINGLE POINT ENERGY     -1339.861312468450

DIPOLE MOMENT
-------------
                                X             Y             Z
Electronic contribution:    -16.85777     -20.60944       7.98609
Nuclear contribution   :     17.37704      20.94286      -8.30698
                        -----------------------------------------
Total Dipole Moment    :      0.51927       0.33342      -0.32089
                        -----------------------------------------
Magnitude (a.u.)       :      0.69554
Magnitude (Debye)      :      1.76792

Rotational constants in cm-1:     0.023814     0.009183     0.007669
Rotational constants in MHz :   713.937600   275.292565   229.901765

                             ****ORCA TERMINATED NORMALLY****
TOTAL RUN TIME: 0 days 0 hours 0 minutes 31 seconds 558 msec
