                         Program Version 4.2.1 -  RELEASE  -
|  1> ! wB97X-D3 SP def2-SVP
|  2> %pal
|  3> nprocs 16
|  4> end
|  5>
|  6> * xyz 0 1
|  7> S 	 68.0474 	 18.0636 	 71.8631
|  8> C 	 69.0168 	 19.4141 	 71.3357
|  9> C 	 69.5957 	 20.0535 	 72.4171
| 10> C 	 69.2467 	 19.4416 	 73.6851
| 11> C 	 68.4674 	 18.3128 	 73.5435
| 12> H 	 69.5928 	 19.8507 	 74.6207
| 13> C 	 70.5716 	 21.1862 	 72.4742
| 14> H 	 70.9495 	 21.4909 	 71.5342
| 15> H 	 71.4272 	 20.7358 	 72.9961
| 16> C 	 70.1395 	 22.4835 	 73.166
| 17> H 	 69.4343 	 22.3173 	 74.0028
| 18> H 	 70.984 	 23.019 	 73.6531
| 19> C 	 69.3416 	 23.5517 	 72.3222
| 20> H 	 70.042 	 23.9369 	 71.6058
| 21> H 	 68.4933 	 23.182 	 71.8281
| 22> H 	 69.0485 	 24.4528 	 72.9176
| 23> S 	 66.2719 	 17.686 	 75.1265
| 24> C 	 66.3394 	 16.298 	 76.15
| 25> C 	 67.6917 	 15.8905 	 76.2313
| 26> C 	 68.5743 	 16.6163 	 75.3892
| 27> C 	 67.8745 	 17.4874 	 74.5673
| 28> H 	 68.0136 	 15.0839 	 76.9117
| 29> C 	 70.096 	 16.3294 	 75.2706
| 30> H 	 70.6493 	 16.8974 	 74.485
| 31> H 	 70.2741 	 15.2562 	 75.158
| 32> C 	 70.7355 	 16.889 	 76.567
| 33> H 	 70.4575 	 16.2673 	 77.4112
| 34> H 	 70.322 	 17.8903 	 76.744
| 35> C 	 72.2442 	 16.8499 	 76.4024
| 36> H 	 72.6498 	 17.5158 	 75.6703
| 37> H 	 72.706 	 15.8782 	 76.26
| 38> H 	 72.7306 	 17.0815 	 77.3662
| 39> H 	 69.113 	 19.7599 	 70.3087
| 40> H 	 65.5779 	 15.8327 	 76.6987
| 41> *
| 42>
| 43>                          ****END OF INPUT****

CARTESIAN COORDINATES (ANGSTROEM)
---------------------------------
  S     68.047400   18.063600   71.863100
  C     69.016800   19.414100   71.335700
  C     69.595700   20.053500   72.417100
  C     69.246700   19.441600   73.685100
  C     68.467400   18.312800   73.543500
  H     69.592800   19.850700   74.620700
  C     70.571600   21.186200   72.474200
  H     70.949500   21.490900   71.534200
  H     71.427200   20.735800   72.996100
  C     70.139500   22.483500   73.166000
  H     69.434300   22.317300   74.002800
  H     70.984000   23.019000   73.653100
  C     69.341600   23.551700   72.322200
  H     70.042000   23.936900   71.605800
  H     68.493300   23.182000   71.828100
  H     69.048500   24.452800   72.917600
  S     66.271900   17.686000   75.126500
  C     66.339400   16.298000   76.150000
  C     67.691700   15.890500   76.231300
  C     68.574300   16.616300   75.389200
  C     67.874500   17.487400   74.567300
  H     68.013600   15.083900   76.911700
  C     70.096000   16.329400   75.270600
  H     70.649300   16.897400   74.485000
  H     70.274100   15.256200   75.158000
  C     70.735500   16.889000   76.567000
  H     70.457500   16.267300   77.411200
  H     70.322000   17.890300   76.744000
  C     72.244200   16.849900   76.402400
  H     72.649800   17.515800   75.670300
  H     72.706000   15.878200   76.260000
  H     72.730600   17.081500   77.366200
  H     69.113000   19.759900   70.308700
  H     65.577900   15.832700   76.698700

 Total Charge           Charge          ....    0
 Multiplicity           Mult            ....    1
 Number of Electrons    NEL             ....  134
 Basis Dimension        Dim             ....  322

ORBITAL ENERGIES
----------------

  NO   OCC          E(Eh)            E(eV)
   0   2.0000     -88.966297     -2420.8960
   1   2.0000     -88.963903     -2420.8309
   2   2.0000     -10.327105      -281.0148
   3   2.0000     -10.317632      -280.7570
   4   2.0000     -10.315209      -280.6911
   5   2.0000     -10.314940      -280.6838
   6   2.0000     -10.300955      -280.3032
   7   2.0000     -10.300852      -280.3004
   8   2.0000     -10.296356      -280.1781
   9   2.0000     -10.294086      -280.1163
  10   2.0000     -10.293381      -280.0971
  11   2.0000     -10.292677      -280.0780
  12   2.0000     -10.291632      -280.0495
  13   2.0000     -10.285691      -279.8879
  14   2.0000     -10.275919      -279.6220
  15   2.0000     -10.274428      -279.5814
  16   2.0000      -8.081758      -219.9158
  17   2.0000      -8.078805      -219.8355
  18   2.0000      -6.040156      -164.3610
  19   2.0000      -6.037385      -164.2856
  20   2.0000      -6.036074      -164.2499
  21   2.0000      -6.033210      -164.1720
  22   2.0000      -6.032679      -164.1575
  23   2.0000      -6.029558      -164.0726
  24   2.0000      -1.010055       -27.4850
  25   2.0000      -0.985815       -26.8254
  26   2.0000      -0.909976       -24.7617
  27   2.0000      -0.909285       -24.7429
  28   2.0000      -0.868280       -23.6271
  29   2.0000      -0.848648       -23.0929
  30   2.0000      -0.845011       -22.9939
  31   2.0000      -0.811260       -22.0755
  32   2.0000      -0.783420       -21.3179
  33   2.0000      -0.772714       -21.0266
  34   2.0000      -0.707113       -19.2415
  35   2.0000      -0.697465       -18.9790
  36   2.0000      -0.695991       -18.9389
  37   2.0000      -0.657393       -17.8886
  38   2.0000      -0.641191       -17.4477
  39   2.0000      -0.625671       -17.0254
  40   2.0000      -0.598336       -16.2816
  41   2.0000      -0.570135       -15.5142
  42   2.0000      -0.567511       -15.4428
  43   2.0000      -0.552830       -15.0433
  44   2.0000      -0.535404       -14.5691
  45   2.0000      -0.520328       -14.1588
  46   2.0000      -0.515104       -14.0167
  47   2.0000      -0.511556       -13.9201
  48   2.0000      -0.506443       -13.7810
  49   2.0000      -0.500978       -13.6323
  50   2.0000      -0.490583       -13.3495
  51   2.0000      -0.479731       -13.0541
  52   2.0000      -0.473187       -12.8761
  53   2.0000      -0.466894       -12.7048
  54   2.0000      -0.459060       -12.4917
  55   2.0000      -0.450370       -12.2552
  56   2.0000      -0.445209       -12.1148
  57   2.0000      -0.440213       -11.9788
  58   2.0000      -0.433708       -11.8018
  59   2.0000      -0.426764       -11.6128
  60   2.0000      -0.417787       -11.3686
  61   2.0000      -0.410607       -11.1732
  62   2.0000      -0.406138       -11.0516
  63   2.0000      -0.335484        -9.1290
  64   2.0000      -0.327073        -8.9001
  65   2.0000      -0.322304        -8.7703
  66   2.0000      -0.306297        -8.3348
  67   0.0000       0.039156         1.0655
  68   0.0000       0.063504         1.7280
  69   0.0000       0.113242         3.0815
  70   0.0000       0.122969         3.3462
  71   0.0000       0.128872         3.5068

MULLIKEN ATOMIC CHARGES
-----------------------
   0 S :    0.115209
   1 C :   -0.122600
   2 C :   -0.099489
   3 C :    0.042207
   4 C :   -0.178010
   5 H :    0.011480
   6 C :    0.110405
   7 H :   -0.000844
   8 H :    0.038331
   9 C :   -0.113047
  10 H :    0.030930
  11 H :    0.033226
  12 C :   -0.051377
  13 H :    0.019316
  14 H :    0.033887
  15 H :    0.039612
  16 S :    0.137960
  17 C :   -0.078509
  18 C :   -0.051202
  19 C :   -0.023600
  20 C :   -0.164388
  21 H :    0.025525
  22 C :    0.065768
  23 H :    0.038030
  24 H :    0.036511
  25 C :   -0.094591
  26 H :    0.026315
  27 H :    0.038495
  28 C :   -0.029782
  29 H :    0.031186
  30 H :    0.022166
  31 H :    0.021018
  32 H :    0.049193
  33 H :    0.040668
Sum of atomic charges:   -0.0000000

LOEWDIN ATOMIC CHARGES
----------------------
   0 S :    0.411507
   1 C :   -0.202511
   2 C :   -0.065769
   3 C :   -0.053951
   4 C :   -0.192188
   5 H :    0.028969
   6 C :   -0.032900
   7 H :    0.022158
   8 H :    0.041510
   9 C :   -0.045771
  10 H :    0.023238
  11 H :    0.028434
  12 C :   -0.063354
  13 H :    0.017885
  14 H :    0.017519
  15 H :    0.033899
  16 S :    0.442013
  17 C :   -0.191944
  18 C :   -0.073482
  19 C :   -0.052835
  20 C :   -0.230544
  21 H :    0.032263
  22 C :   -0.026156
  23 H :    0.034545
  24 H :    0.029854
  25 C :   -0.037651
  26 H :    0.021255
  27 H :    0.026783
  28 C :   -0.072130
  29 H :    0.020815
  30 H :    0.026492
  31 H :    0.028135
  32 H :    0.031698
  33 H :    0.022211

  Mayer bond orders larger than 0.100000
B(  0-S ,  1-C ) :   1.1351 B(  0-S ,  4-C ) :   1.1528 B(  1-C ,  2-C ) :   1.6192
B(  1-C , 32-H ) :   0.9687 B(  2-C ,  3-C ) :   1.2244 B(  2-C ,  6-C ) :   1.0289
B(  3-C ,  4-C ) :   1.5863 B(  3-C ,  5-H ) :   0.9978 B(  4-C , 20-C ) :   1.0228
B(  6-C ,  7-H ) :   0.9412 B(  6-C ,  8-H ) :   0.9367 B(  6-C ,  9-C ) :   1.0495
B(  9-C , 10-H ) :   0.9641 B(  9-C , 11-H ) :   0.9572 B(  9-C , 12-C ) :   1.0720
B( 12-C , 13-H ) :   0.9764 B( 12-C , 14-H ) :   0.9804 B( 12-C , 15-H ) :   0.9750
B( 16-S , 17-C ) :   1.1722 B( 16-S , 20-C ) :   1.1701 B( 17-C , 18-C ) :   1.5608
B( 17-C , 20-C ) :   0.1078 B( 17-C , 33-H ) :   0.9797 B( 18-C , 19-C ) :   1.2811
B( 18-C , 21-H ) :   0.9841 B( 19-C , 20-C ) :   1.5523 B( 19-C , 22-C ) :   1.0407
B( 22-C , 23-H ) :   0.9415 B( 22-C , 24-H ) :   0.9421 B( 22-C , 25-C ) :   1.0460
B( 25-C , 26-H ) :   0.9548 B( 25-C , 27-H ) :   0.9569 B( 25-C , 28-C ) :   1.0935
B( 28-C , 29-H ) :   0.9742 B( 28-C , 30-H ) :   0.9677 B( 28-C , 31-H ) :   0.9687

Dispersion correction           -0.014402376
FINAL SINGLE POINT ENERGY     -1339.879146313326

DIPOLE MOMENT
-------------
                                X             Y             Z
Electronic contribution:    -22.09993     -12.80672      -6.17039
Nuclear contribution   :     22.67448      12.98031       6.47698
                        -----------------------------------------
Total Dipole Moment    :      0.57454       0.17359       0.30659
                        -----------------------------------------
Magnitude (a.u.)       :      0.67397
Magnitude (Debye)      :      1.71309

Rotational constants in cm-1:     0.017739     0.008669     0.007130
Rotational constants in MHz :   531.800234   259.885087   213.759761

                             ****ORCA TERMINATED NORMALLY****
TOTAL RUN TIME: 0 days 0 hours 0 minutes 28 seconds 412 msec
