                         Program Version 4.2.1 -  RELEASE  -
|  1> ! wB97X-D3 SP def2-SVP
|  2> %pal
|  3> nprocs 16
|  4> end
|  5>
|  6> * xyz 0 1
|  7> S 	 -5.08438 	 19.5573 	 52.8098
|  8> C 	 -3.43207 	 19.1822 	 52.4435
|  9> C 	 -2.59119 	 20.1498 	 52.8771
| 10> C 	 -3.21271 	 21.1026 	 53.6969
| 11> C 	 -4.57501 	 20.9793 	 53.599
| 12> H 	 -2.79747 	 21.9627 	 54.1618
| 13> C 	 -1.08641 	 20.0835 	 52.7293
| 14> H 	 -0.671695 	 19.3428 	 51.9963
| 15> H 	 -0.688237 	 19.7868 	 53.6506
| 16> C 	 -0.33322 	 21.4126 	 52.3616
| 17> H 	 -0.519984 	 21.6506 	 51.3232
| 18> H 	 -0.666363 	 22.1537 	 53.0828
| 19> C 	 1.20568 	 21.2802 	 52.5846
| 20> H 	 1.63073 	 20.638 	 51.8243
| 21> H 	 1.75786 	 22.1986 	 52.5706
| 22> H 	 1.32761 	 20.8923 	 53.5528
| 23> S 	 -6.59609 	 21.0886 	 55.521
| 24> C 	 -7.25569 	 22.6705 	 55.9153
| 25> C 	 -6.61489 	 23.7083 	 55.1573
| 26> C 	 -5.51726 	 23.2973 	 54.3663
| 27> C 	 -5.48408 	 21.8779 	 54.3461
| 28> H 	 -6.87844 	 24.7136 	 55.257
| 29> C 	 -4.64442 	 24.1357 	 53.4607
| 30> H 	 -5.44014 	 24.7068 	 52.9293
| 31> H 	 -4.18708 	 23.5216 	 52.6863
| 32> C 	 -3.7155 	 25.1752 	 54.1396
| 33> H 	 -4.40269 	 25.8445 	 54.6997
| 34> H 	 -3.21391 	 25.9105 	 53.492
| 35> C 	 -2.76034 	 24.7382 	 55.2725
| 36> H 	 -2.09328 	 25.5491 	 55.6061
| 37> H 	 -2.05476 	 23.8713 	 55.0807
| 38> H 	 -3.29894 	 24.3512 	 56.0956
| 39> H 	 -3.16451 	 18.3757 	 51.82
| 40> H 	 -8.00543 	 22.9677 	 56.6485
| 41> *
| 42>
| 43>                          ****END OF INPUT****

CARTESIAN COORDINATES (ANGSTROEM)
---------------------------------
  S     -5.084380   19.557300   52.809800
  C     -3.432070   19.182200   52.443500
  C     -2.591190   20.149800   52.877100
  C     -3.212710   21.102600   53.696900
  C     -4.575010   20.979300   53.599000
  H     -2.797470   21.962700   54.161800
  C     -1.086410   20.083500   52.729300
  H     -0.671695   19.342800   51.996300
  H     -0.688237   19.786800   53.650600
  C     -0.333220   21.412600   52.361600
  H     -0.519984   21.650600   51.323200
  H     -0.666363   22.153700   53.082800
  C      1.205680   21.280200   52.584600
  H      1.630730   20.638000   51.824300
  H      1.757860   22.198600   52.570600
  H      1.327610   20.892300   53.552800
  S     -6.596090   21.088600   55.521000
  C     -7.255690   22.670500   55.915300
  C     -6.614890   23.708300   55.157300
  C     -5.517260   23.297300   54.366300
  C     -5.484080   21.877900   54.346100
  H     -6.878440   24.713600   55.257000
  C     -4.644420   24.135700   53.460700
  H     -5.440140   24.706800   52.929300
  H     -4.187080   23.521600   52.686300
  C     -3.715500   25.175200   54.139600
  H     -4.402690   25.844500   54.699700
  H     -3.213910   25.910500   53.492000
  C     -2.760340   24.738200   55.272500
  H     -2.093280   25.549100   55.606100
  H     -2.054760   23.871300   55.080700
  H     -3.298940   24.351200   56.095600
  H     -3.164510   18.375700   51.820000
  H     -8.005430   22.967700   56.648500

 Total Charge           Charge          ....    0
 Multiplicity           Mult            ....    1
 Number of Electrons    NEL             ....  134
 Basis Dimension        Dim             ....  322

ORBITAL ENERGIES
----------------

  NO   OCC          E(Eh)            E(eV)
   0   2.0000     -88.972281     -2421.0588
   1   2.0000     -88.966493     -2420.9013
   2   2.0000     -10.330588      -281.1096
   3   2.0000     -10.323167      -280.9077
   4   2.0000     -10.322762      -280.8966
   5   2.0000     -10.307473      -280.4806
   6   2.0000     -10.303730      -280.3788
   7   2.0000     -10.299746      -280.2703
   8   2.0000     -10.297172      -280.2003
   9   2.0000     -10.295665      -280.1593
  10   2.0000     -10.294498      -280.1275
  11   2.0000     -10.289080      -279.9801
  12   2.0000     -10.287253      -279.9304
  13   2.0000     -10.285185      -279.8741
  14   2.0000     -10.281898      -279.7847
  15   2.0000     -10.272797      -279.5370
  16   2.0000      -8.085446      -220.0162
  17   2.0000      -8.082467      -219.9351
  18   2.0000      -6.043941      -164.4640
  19   2.0000      -6.040762      -164.3775
  20   2.0000      -6.040168      -164.3613
  21   2.0000      -6.036873      -164.2717
  22   2.0000      -6.036339      -164.2571
  23   2.0000      -6.033321      -164.1750
  24   2.0000      -1.012841       -27.5608
  25   2.0000      -0.979707       -26.6592
  26   2.0000      -0.909167       -24.7397
  27   2.0000      -0.906037       -24.6545
  28   2.0000      -0.865575       -23.5535
  29   2.0000      -0.855537       -23.2803
  30   2.0000      -0.849710       -23.1218
  31   2.0000      -0.810821       -22.0636
  32   2.0000      -0.786404       -21.3991
  33   2.0000      -0.772866       -21.0307
  34   2.0000      -0.709187       -19.2980
  35   2.0000      -0.698339       -19.0028
  36   2.0000      -0.693769       -18.8784
  37   2.0000      -0.659202       -17.9378
  38   2.0000      -0.647249       -17.6125
  39   2.0000      -0.622600       -16.9418
  40   2.0000      -0.589121       -16.0308
  41   2.0000      -0.574673       -15.6377
  42   2.0000      -0.561699       -15.2846
  43   2.0000      -0.554046       -15.0764
  44   2.0000      -0.542522       -14.7628
  45   2.0000      -0.519757       -14.1433
  46   2.0000      -0.515000       -14.0139
  47   2.0000      -0.511435       -13.9168
  48   2.0000      -0.503850       -13.7104
  49   2.0000      -0.492656       -13.4059
  50   2.0000      -0.490423       -13.3451
  51   2.0000      -0.480617       -13.0782
  52   2.0000      -0.469195       -12.7675
  53   2.0000      -0.468893       -12.7592
  54   2.0000      -0.462726       -12.5914
  55   2.0000      -0.454792       -12.3755
  56   2.0000      -0.449280       -12.2255
  57   2.0000      -0.442923       -12.0525
  58   2.0000      -0.438578       -11.9343
  59   2.0000      -0.424479       -11.5507
  60   2.0000      -0.423439       -11.5223
  61   2.0000      -0.414527       -11.2798
  62   2.0000      -0.408430       -11.1139
  63   2.0000      -0.341608        -9.2956
  64   2.0000      -0.334687        -9.1073
  65   2.0000      -0.331985        -9.0338
  66   2.0000      -0.287493        -7.8231
  67   0.0000       0.029875         0.8129
  68   0.0000       0.069582         1.8934
  69   0.0000       0.110058         2.9948
  70   0.0000       0.118396         3.2217
  71   0.0000       0.128438         3.4950

MULLIKEN ATOMIC CHARGES
-----------------------
   0 S :    0.120065
   1 C :   -0.118235
   2 C :   -0.016618
   3 C :    0.054111
   4 C :   -0.163538
   5 H :   -0.026984
   6 C :    0.048719
   7 H :    0.021408
   8 H :    0.015889
   9 C :   -0.103370
  10 H :    0.037692
  11 H :    0.028913
  12 C :   -0.025559
  13 H :    0.030110
  14 H :    0.030573
  15 H :    0.013522
  16 S :    0.122083
  17 C :   -0.092024
  18 C :   -0.028219
  19 C :   -0.033982
  20 C :   -0.174858
  21 H :   -0.007055
  22 C :    0.062923
  23 H :    0.039231
  24 H :    0.046066
  25 C :   -0.065241
  26 H :    0.020416
  27 H :    0.038665
  28 C :   -0.074457
  29 H :    0.039209
  30 H :    0.036400
  31 H :    0.033043
  32 H :    0.029770
  33 H :    0.061332
Sum of atomic charges:    0.0000000

LOEWDIN ATOMIC CHARGES
----------------------
   0 S :    0.429072
   1 C :   -0.195175
   2 C :   -0.060565
   3 C :   -0.057183
   4 C :   -0.206209
   5 H :    0.023746
   6 C :   -0.030310
   7 H :    0.031429
   8 H :    0.022641
   9 C :   -0.033179
  10 H :    0.021892
  11 H :    0.019049
  12 C :   -0.058313
  13 H :    0.023613
  14 H :    0.024835
  15 H :    0.017136
  16 S :    0.393742
  17 C :   -0.194765
  18 C :   -0.063613
  19 C :   -0.055635
  20 C :   -0.179511
  21 H :    0.017816
  22 C :   -0.033514
  23 H :    0.044307
  24 H :    0.032610
  25 C :   -0.046416
  26 H :    0.028969
  27 H :    0.029055
  28 C :   -0.075401
  29 H :    0.032437
  30 H :    0.023468
  31 H :    0.021482
  32 H :    0.018969
  33 H :    0.033517

  Mayer bond orders larger than 0.100000
B(  0-S ,  1-C ) :   1.1297 B(  0-S ,  4-C ) :   1.1785 B(  1-C ,  2-C ) :   1.6138
B(  1-C , 32-H ) :   0.9750 B(  2-C ,  3-C ) :   1.2288 B(  2-C ,  6-C ) :   1.0236
B(  3-C ,  4-C ) :   1.5590 B(  3-C ,  5-H ) :   0.9910 B(  4-C , 20-C ) :   1.0260
B(  6-C ,  7-H ) :   0.9489 B(  6-C ,  8-H ) :   0.9385 B(  6-C ,  9-C ) :   1.0567
B(  9-C , 10-H ) :   0.9618 B(  9-C , 11-H ) :   0.9563 B(  9-C , 12-C ) :   1.0833
B( 12-C , 13-H ) :   0.9771 B( 12-C , 14-H ) :   0.9750 B( 12-C , 15-H ) :   0.9741
B( 16-S , 17-C ) :   1.1476 B( 16-S , 20-C ) :   1.1527 B( 17-C , 18-C ) :   1.5890
B( 17-C , 20-C ) :   0.1152 B( 17-C , 33-H ) :   0.9663 B( 18-C , 19-C ) :   1.2665
B( 18-C , 21-H ) :   0.9876 B( 19-C , 20-C ) :   1.5567 B( 19-C , 22-C ) :   1.0267
B( 22-C , 23-H ) :   0.9365 B( 22-C , 24-H ) :   0.9394 B( 22-C , 25-C ) :   1.0552
B( 25-C , 26-H ) :   0.9515 B( 25-C , 27-H ) :   0.9626 B( 25-C , 28-C ) :   1.0747
B( 28-C , 29-H ) :   0.9707 B( 28-C , 30-H ) :   0.9666 B( 28-C , 31-H ) :   0.9715

Dispersion correction           -0.014909860
FINAL SINGLE POINT ENERGY     -1339.865620731623

DIPOLE MOMENT
-------------
                                X             Y             Z
Electronic contribution:    -27.64342     -16.20161       3.03406
Nuclear contribution   :     28.13044      16.70227      -3.06709
                        -----------------------------------------
Total Dipole Moment    :      0.48702       0.50065      -0.03302
                        -----------------------------------------
Magnitude (a.u.)       :      0.69923
Magnitude (Debye)      :      1.77731

Rotational constants in cm-1:     0.017961     0.009797     0.006904
Rotational constants in MHz :   538.463068   293.697398   206.987171

                             ****ORCA TERMINATED NORMALLY****
TOTAL RUN TIME: 0 days 0 hours 0 minutes 34 seconds 378 msec
