                         Program Version 4.2.1 -  RELEASE  -
|  1> ! wB97X-D3 SP def2-SVP
|  2> %pal
|  3> nprocs 16
|  4> end
|  5>
|  6> * xyz 0 1
|  7> S 	 -45.5201 	 22.3379 	 88.5379
|  8> C 	 -44.4029 	 22.2242 	 89.9201
|  9> C 	 -43.086 	 22.3592 	 89.4475
| 10> C 	 -43.0503 	 22.5178 	 88.0241
| 11> C 	 -44.2088 	 22.2229 	 87.3617
| 12> H 	 -42.1622 	 22.63 	 87.4053
| 13> C 	 -41.8494 	 22.1731 	 90.2975
| 14> H 	 -41.822 	 22.7912 	 91.1461
| 15> H 	 -40.9428 	 22.4275 	 89.706
| 16> C 	 -41.6284 	 20.676 	 90.6701
| 17> H 	 -40.7655 	 20.6855 	 91.3741
| 18> H 	 -42.5082 	 20.3125 	 91.2224
| 19> C 	 -41.1368 	 19.7938 	 89.429
| 20> H 	 -40.773 	 18.9147 	 89.8551
| 21> H 	 -42.076 	 19.6517 	 88.792
| 22> H 	 -40.3437 	 20.1714 	 88.85
| 23> S 	 -45.749 	 23.3223 	 85.2987
| 24> C 	 -45.6217 	 22.5114 	 83.6867
| 25> C 	 -44.4706 	 21.7659 	 83.5734
| 26> C 	 -43.8195 	 21.5372 	 84.8367
| 27> C 	 -44.5156 	 22.0825 	 85.9036
| 28> H 	 -44.263 	 21.4833 	 82.5905
| 29> C 	 -42.5297 	 20.7413 	 84.8932
| 30> H 	 -42.879 	 19.7455 	 84.8509
| 31> H 	 -42.2759 	 20.9588 	 85.9481
| 32> C 	 -41.4005 	 21.1533 	 83.9265
| 33> H 	 -41.1885 	 22.1971 	 84.0869
| 34> H 	 -41.8362 	 21.0599 	 82.946
| 35> C 	 -40.1533 	 20.3142 	 84.0897
| 36> H 	 -40.3265 	 19.195 	 83.9353
| 37> H 	 -39.8644 	 20.4512 	 85.1424
| 38> H 	 -39.4424 	 20.689 	 83.3096
| 39> H 	 -44.6443 	 22.1156 	 90.9972
| 40> H 	 -46.2851 	 22.7093 	 82.8732
| 41> *
| 42>
| 43>                          ****END OF INPUT****

CARTESIAN COORDINATES (ANGSTROEM)
---------------------------------
  S    -45.520100   22.337900   88.537900
  C    -44.402900   22.224200   89.920100
  C    -43.086000   22.359200   89.447500
  C    -43.050300   22.517800   88.024100
  C    -44.208800   22.222900   87.361700
  H    -42.162200   22.630000   87.405300
  C    -41.849400   22.173100   90.297500
  H    -41.822000   22.791200   91.146100
  H    -40.942800   22.427500   89.706000
  C    -41.628400   20.676000   90.670100
  H    -40.765500   20.685500   91.374100
  H    -42.508200   20.312500   91.222400
  C    -41.136800   19.793800   89.429000
  H    -40.773000   18.914700   89.855100
  H    -42.076000   19.651700   88.792000
  H    -40.343700   20.171400   88.850000
  S    -45.749000   23.322300   85.298700
  C    -45.621700   22.511400   83.686700
  C    -44.470600   21.765900   83.573400
  C    -43.819500   21.537200   84.836700
  C    -44.515600   22.082500   85.903600
  H    -44.263000   21.483300   82.590500
  C    -42.529700   20.741300   84.893200
  H    -42.879000   19.745500   84.850900
  H    -42.275900   20.958800   85.948100
  C    -41.400500   21.153300   83.926500
  H    -41.188500   22.197100   84.086900
  H    -41.836200   21.059900   82.946000
  C    -40.153300   20.314200   84.089700
  H    -40.326500   19.195000   83.935300
  H    -39.864400   20.451200   85.142400
  H    -39.442400   20.689000   83.309600
  H    -44.644300   22.115600   90.997200
  H    -46.285100   22.709300   82.873200

 Total Charge           Charge          ....    0
 Multiplicity           Mult            ....    1
 Number of Electrons    NEL             ....  134
 Basis Dimension        Dim             ....  322

ORBITAL ENERGIES
----------------

  NO   OCC          E(Eh)            E(eV)
   0   2.0000     -88.962689     -2420.7978
   1   2.0000     -88.961851     -2420.7750
   2   2.0000     -10.336434      -281.2687
   3   2.0000     -10.332376      -281.1582
   4   2.0000     -10.320629      -280.8386
   5   2.0000     -10.320510      -280.8353
   6   2.0000     -10.311087      -280.5789
   7   2.0000     -10.304513      -280.4001
   8   2.0000     -10.295757      -280.1618
   9   2.0000     -10.294774      -280.1351
  10   2.0000     -10.292238      -280.0660
  11   2.0000     -10.291376      -280.0426
  12   2.0000     -10.290571      -280.0207
  13   2.0000     -10.289657      -279.9958
  14   2.0000     -10.289602      -279.9943
  15   2.0000     -10.279040      -279.7069
  16   2.0000      -8.076692      -219.7780
  17   2.0000      -8.074706      -219.7239
  18   2.0000      -6.035373      -164.2308
  19   2.0000      -6.033460      -164.1788
  20   2.0000      -6.031301      -164.1200
  21   2.0000      -6.030015      -164.0851
  22   2.0000      -6.027285      -164.0108
  23   2.0000      -6.024766      -163.9422
  24   2.0000      -0.997976       -27.1563
  25   2.0000      -0.975822       -26.5535
  26   2.0000      -0.912330       -24.8258
  27   2.0000      -0.905656       -24.6442
  28   2.0000      -0.862386       -23.4667
  29   2.0000      -0.851213       -23.1627
  30   2.0000      -0.837246       -22.7826
  31   2.0000      -0.816020       -22.2050
  32   2.0000      -0.782809       -21.3013
  33   2.0000      -0.771014       -20.9803
  34   2.0000      -0.705738       -19.2041
  35   2.0000      -0.700940       -19.0735
  36   2.0000      -0.696590       -18.9552
  37   2.0000      -0.658131       -17.9087
  38   2.0000      -0.639170       -17.3927
  39   2.0000      -0.613221       -16.6866
  40   2.0000      -0.588917       -16.0252
  41   2.0000      -0.575975       -15.6731
  42   2.0000      -0.573443       -15.6042
  43   2.0000      -0.550742       -14.9864
  44   2.0000      -0.542908       -14.7733
  45   2.0000      -0.534042       -14.5320
  46   2.0000      -0.515703       -14.0330
  47   2.0000      -0.507301       -13.8044
  48   2.0000      -0.505178       -13.7466
  49   2.0000      -0.497920       -13.5491
  50   2.0000      -0.490216       -13.3395
  51   2.0000      -0.478303       -13.0153
  52   2.0000      -0.469472       -12.7750
  53   2.0000      -0.468520       -12.7491
  54   2.0000      -0.451778       -12.2935
  55   2.0000      -0.447905       -12.1881
  56   2.0000      -0.443036       -12.0556
  57   2.0000      -0.435961       -11.8631
  58   2.0000      -0.430765       -11.7217
  59   2.0000      -0.424778       -11.5588
  60   2.0000      -0.420597       -11.4450
  61   2.0000      -0.414058       -11.2671
  62   2.0000      -0.409602       -11.1458
  63   2.0000      -0.341755        -9.2996
  64   2.0000      -0.327289        -8.9060
  65   2.0000      -0.324760        -8.8372
  66   2.0000      -0.292315        -7.9543
  67   0.0000       0.019521         0.5312
  68   0.0000       0.059950         1.6313
  69   0.0000       0.085816         2.3352
  70   0.0000       0.117215         3.1896
  71   0.0000       0.125105         3.4043

MULLIKEN ATOMIC CHARGES
-----------------------
   0 S :    0.097881
   1 C :   -0.119663
   2 C :   -0.110401
   3 C :    0.056492
   4 C :   -0.191513
   5 H :    0.013921
   6 C :    0.080934
   7 H :    0.023172
   8 H :    0.017291
   9 C :   -0.109514
  10 H :    0.029184
  11 H :    0.038859
  12 C :   -0.043538
  13 H :    0.025703
  14 H :    0.065459
  15 H :    0.022131
  16 S :    0.063900
  17 C :   -0.080869
  18 C :   -0.019581
  19 C :   -0.054377
  20 C :   -0.111910
  21 H :    0.001507
  22 C :    0.089278
  23 H :    0.034366
  24 H :   -0.000435
  25 C :   -0.068446
  26 H :    0.032399
  27 H :    0.026430
  28 C :   -0.054684
  29 H :    0.043972
  30 H :    0.036345
  31 H :    0.052679
  32 H :    0.063491
  33 H :    0.049538
Sum of atomic charges:   -0.0000000

LOEWDIN ATOMIC CHARGES
----------------------
   0 S :    0.386311
   1 C :   -0.194379
   2 C :   -0.064554
   3 C :   -0.067618
   4 C :   -0.189902
   5 H :    0.028740
   6 C :   -0.032707
   7 H :    0.022040
   8 H :    0.031964
   9 C :   -0.033159
  10 H :    0.022436
  11 H :    0.023387
  12 C :   -0.060704
  13 H :    0.018821
  14 H :    0.039951
  15 H :    0.016983
  16 S :    0.328261
  17 C :   -0.144776
  18 C :   -0.067977
  19 C :   -0.044871
  20 C :   -0.167900
  21 H :    0.024358
  22 C :   -0.031864
  23 H :    0.030429
  24 H :    0.028001
  25 C :   -0.037381
  26 H :    0.027283
  27 H :    0.019439
  28 C :   -0.068337
  29 H :    0.033375
  30 H :    0.027796
  31 H :    0.035504
  32 H :    0.038189
  33 H :    0.022858

  Mayer bond orders larger than 0.100000
B(  0-S ,  1-C ) :   1.1320 B(  0-S ,  4-C ) :   1.1466 B(  1-C ,  2-C ) :   1.5997
B(  1-C ,  4-C ) :   0.1059 B(  1-C , 32-H ) :   0.9672 B(  2-C ,  3-C ) :   1.2358
B(  2-C ,  6-C ) :   1.0300 B(  3-C ,  4-C ) :   1.5806 B(  3-C ,  5-H ) :   0.9816
B(  4-C , 20-C ) :   1.0213 B(  6-C ,  7-H ) :   0.9395 B(  6-C ,  8-H ) :   0.9447
B(  6-C ,  9-C ) :   1.0657 B(  9-C , 10-H ) :   0.9595 B(  9-C , 11-H ) :   0.9612
B(  9-C , 12-C ) :   1.0620 B( 12-C , 13-H ) :   0.9766 B( 12-C , 14-H ) :   0.9765
B( 12-C , 15-H ) :   0.9762 B( 16-S , 17-C ) :   1.1219 B( 16-S , 20-C ) :   1.1030
B( 17-C , 18-C ) :   1.6720 B( 17-C , 33-H ) :   0.9687 B( 18-C , 19-C ) :   1.1571
B( 18-C , 21-H ) :   1.0028 B( 19-C , 20-C ) :   1.6606 B( 19-C , 22-C ) :   1.0189
B( 22-C , 23-H ) :   0.9309 B( 22-C , 24-H ) :   0.9284 B( 22-C , 25-C ) :   1.0602
B( 25-C , 26-H ) :   0.9533 B( 25-C , 27-H ) :   0.9516 B( 25-C , 28-C ) :   1.0881
B( 28-C , 29-H ) :   0.9736 B( 28-C , 30-H ) :   0.9732 B( 28-C , 31-H ) :   0.9721

Dispersion correction           -0.014700367
FINAL SINGLE POINT ENERGY     -1339.840456265116

DIPOLE MOMENT
-------------
                                X             Y             Z
Electronic contribution:    -27.63324      14.05182      -1.26695
Nuclear contribution   :     28.46478     -14.34382       1.07955
                        -----------------------------------------
Total Dipole Moment    :      0.83155      -0.29200      -0.18740
                        -----------------------------------------
Magnitude (a.u.)       :      0.90103
Magnitude (Debye)      :      2.29023

Rotational constants in cm-1:     0.016217     0.010324     0.006671
Rotational constants in MHz :   486.163797   309.506876   200.004974

                             ****ORCA TERMINATED NORMALLY****
TOTAL RUN TIME: 0 days 0 hours 0 minutes 31 seconds 129 msec
