                         Program Version 4.2.1 -  RELEASE  -
|  1> ! wB97X-D3 SP def2-SVP
|  2> %pal
|  3> nprocs 16
|  4> end
|  5>
|  6> * xyz 0 1
|  7> S 	 29.7237 	 2.12931 	 71.8266
|  8> C 	 30.833 	 3.19013 	 71.0664
|  9> C 	 31.4859 	 4.03368 	 71.9622
| 10> C 	 31.2218 	 3.63464 	 73.2647
| 11> C 	 30.3914 	 2.57085 	 73.4311
| 12> H 	 31.4978 	 4.12199 	 74.1846
| 13> C 	 32.4 	 5.20063 	 71.5976
| 14> H 	 32.5878 	 5.98838 	 72.4073
| 15> H 	 31.9758 	 5.71663 	 70.7872
| 16> C 	 33.7871 	 4.6067 	 71.2233
| 17> H 	 33.6786 	 3.97818 	 70.2498
| 18> H 	 34.5064 	 5.46468 	 71.0093
| 19> C 	 34.3723 	 3.67547 	 72.2894
| 20> H 	 34.0794 	 2.66139 	 72.3413
| 21> H 	 35.4643 	 3.67776 	 72.2521
| 22> H 	 34.1274 	 4.17214 	 73.2415
| 23> S 	 28.1915 	 1.48681 	 74.5763
| 24> C 	 28.1981 	 0.752351 	 76.2019
| 25> C 	 29.5306 	 0.648397 	 76.5826
| 26> C 	 30.493 	 1.26917 	 75.7239
| 27> C 	 29.8993 	 1.82031 	 74.5855
| 28> H 	 29.715 	 0.148376 	 77.5218
| 29> C 	 31.9484 	 1.40395 	 76.0266
| 30> H 	 32.4797 	 1.83694 	 75.2223
| 31> H 	 32.4524 	 0.436333 	 76.0441
| 32> C 	 32.2393 	 2.17415 	 77.3583
| 33> H 	 33.3307 	 2.36 	 77.3024
| 34> H 	 32.0379 	 1.55089 	 78.2507
| 35> C 	 31.6117 	 3.55128 	 77.4528
| 36> H 	 31.9964 	 4.11778 	 78.317
| 37> H 	 30.579 	 3.56363 	 77.7362
| 38> H 	 31.7315 	 4.09954 	 76.6023
| 39> H 	 31.0005 	 3.24299 	 70.0436
| 40> H 	 27.447 	 0.31464 	 76.775
| 41> *
| 42>
| 43>                          ****END OF INPUT****

CARTESIAN COORDINATES (ANGSTROEM)
---------------------------------
  S     29.723700    2.129310   71.826600
  C     30.833000    3.190130   71.066400
  C     31.485900    4.033680   71.962200
  C     31.221800    3.634640   73.264700
  C     30.391400    2.570850   73.431100
  H     31.497800    4.121990   74.184600
  C     32.400000    5.200630   71.597600
  H     32.587800    5.988380   72.407300
  H     31.975800    5.716630   70.787200
  C     33.787100    4.606700   71.223300
  H     33.678600    3.978180   70.249800
  H     34.506400    5.464680   71.009300
  C     34.372300    3.675470   72.289400
  H     34.079400    2.661390   72.341300
  H     35.464300    3.677760   72.252100
  H     34.127400    4.172140   73.241500
  S     28.191500    1.486810   74.576300
  C     28.198100    0.752351   76.201900
  C     29.530600    0.648397   76.582600
  C     30.493000    1.269170   75.723900
  C     29.899300    1.820310   74.585500
  H     29.715000    0.148376   77.521800
  C     31.948400    1.403950   76.026600
  H     32.479700    1.836940   75.222300
  H     32.452400    0.436333   76.044100
  C     32.239300    2.174150   77.358300
  H     33.330700    2.360000   77.302400
  H     32.037900    1.550890   78.250700
  C     31.611700    3.551280   77.452800
  H     31.996400    4.117780   78.317000
  H     30.579000    3.563630   77.736200
  H     31.731500    4.099540   76.602300
  H     31.000500    3.242990   70.043600
  H     27.447000    0.314640   76.775000

 Total Charge           Charge          ....    0
 Multiplicity           Mult            ....    1
 Number of Electrons    NEL             ....  134
 Basis Dimension        Dim             ....  322

ORBITAL ENERGIES
----------------

  NO   OCC          E(Eh)            E(eV)
   0   2.0000     -88.965822     -2420.8831
   1   2.0000     -88.963405     -2420.8173
   2   2.0000     -10.330554      -281.1087
   3   2.0000     -10.329209      -281.0721
   4   2.0000     -10.316714      -280.7321
   5   2.0000     -10.309650      -280.5398
   6   2.0000     -10.303239      -280.3654
   7   2.0000     -10.301022      -280.3051
   8   2.0000     -10.300506      -280.2910
   9   2.0000     -10.298776      -280.2439
  10   2.0000     -10.294704      -280.1332
  11   2.0000     -10.290916      -280.0301
  12   2.0000     -10.290056      -280.0067
  13   2.0000     -10.286543      -279.9111
  14   2.0000     -10.274887      -279.5939
  15   2.0000     -10.266687      -279.3707
  16   2.0000      -8.080717      -219.8875
  17   2.0000      -8.077765      -219.8072
  18   2.0000      -6.039109      -164.3325
  19   2.0000      -6.036464      -164.2605
  20   2.0000      -6.035317      -164.2293
  21   2.0000      -6.032253      -164.1459
  22   2.0000      -6.031470      -164.1246
  23   2.0000      -6.028392      -164.0409
  24   2.0000      -1.009635       -27.4736
  25   2.0000      -0.985520       -26.8174
  26   2.0000      -0.911731       -24.8095
  27   2.0000      -0.907435       -24.6925
  28   2.0000      -0.869947       -23.6725
  29   2.0000      -0.851331       -23.1659
  30   2.0000      -0.843988       -22.9661
  31   2.0000      -0.820502       -22.3270
  32   2.0000      -0.786288       -21.3960
  33   2.0000      -0.776582       -21.1319
  34   2.0000      -0.708048       -19.2670
  35   2.0000      -0.700864       -19.0715
  36   2.0000      -0.692838       -18.8531
  37   2.0000      -0.659084       -17.9346
  38   2.0000      -0.649167       -17.6647
  39   2.0000      -0.620505       -16.8848
  40   2.0000      -0.599232       -16.3059
  41   2.0000      -0.575728       -15.6663
  42   2.0000      -0.558279       -15.1916
  43   2.0000      -0.553962       -15.0741
  44   2.0000      -0.542557       -14.7637
  45   2.0000      -0.534976       -14.5574
  46   2.0000      -0.523418       -14.2429
  47   2.0000      -0.511563       -13.9203
  48   2.0000      -0.506061       -13.7706
  49   2.0000      -0.496701       -13.5159
  50   2.0000      -0.490090       -13.3360
  51   2.0000      -0.477450       -12.9921
  52   2.0000      -0.471146       -12.8205
  53   2.0000      -0.469024       -12.7628
  54   2.0000      -0.459966       -12.5163
  55   2.0000      -0.450712       -12.2645
  56   2.0000      -0.444030       -12.0827
  57   2.0000      -0.438635       -11.9359
  58   2.0000      -0.432073       -11.7573
  59   2.0000      -0.424026       -11.5383
  60   2.0000      -0.419316       -11.4102
  61   2.0000      -0.412272       -11.2185
  62   2.0000      -0.406021       -11.0484
  63   2.0000      -0.354424        -9.6444
  64   2.0000      -0.335893        -9.1401
  65   2.0000      -0.325401        -8.8546
  66   2.0000      -0.284646        -7.7456
  67   0.0000       0.026446         0.7196
  68   0.0000       0.062771         1.7081
  69   0.0000       0.105149         2.8613
  70   0.0000       0.122302         3.3280
  71   0.0000       0.131283         3.5724

MULLIKEN ATOMIC CHARGES
-----------------------
   0 S :    0.110369
   1 C :   -0.089826
   2 C :   -0.078872
   3 C :    0.022991
   4 C :   -0.143410
   5 H :   -0.003623
   6 C :    0.083532
   7 H :    0.044231
   8 H :    0.021073
   9 C :   -0.137267
  10 H :    0.039574
  11 H :    0.044621
  12 C :   -0.029449
  13 H :    0.046096
  14 H :    0.031255
  15 H :    0.012723
  16 S :    0.086316
  17 C :   -0.061120
  18 C :   -0.053694
  19 C :   -0.017940
  20 C :   -0.146862
  21 H :    0.016075
  22 C :    0.094297
  23 H :   -0.000961
  24 H :    0.028617
  25 C :   -0.100307
  26 H :    0.032619
  27 H :    0.038684
  28 C :   -0.000212
  29 H :    0.024582
  30 H :    0.026458
  31 H :    0.004330
  32 H :    0.019573
  33 H :    0.035529
Sum of atomic charges:    0.0000000

LOEWDIN ATOMIC CHARGES
----------------------
   0 S :    0.405402
   1 C :   -0.190032
   2 C :   -0.061611
   3 C :   -0.065095
   4 C :   -0.175456
   5 H :    0.029571
   6 C :   -0.031191
   7 H :    0.039677
   8 H :    0.023868
   9 C :   -0.047522
  10 H :    0.027861
  11 H :    0.028614
  12 C :   -0.069490
  13 H :    0.023119
  14 H :    0.028600
  15 H :    0.023526
  16 S :    0.393450
  17 C :   -0.171489
  18 C :   -0.065272
  19 C :   -0.061606
  20 C :   -0.196387
  21 H :    0.029111
  22 C :   -0.034684
  23 H :    0.023810
  24 H :    0.036418
  25 C :   -0.037800
  26 H :    0.028852
  27 H :    0.024931
  28 C :   -0.062280
  29 H :    0.032391
  30 H :    0.026070
  31 H :    0.009162
  32 H :    0.013330
  33 H :    0.022151

  Mayer bond orders larger than 0.100000
B(  0-S ,  1-C ) :   1.1660 B(  0-S ,  4-C ) :   1.1368 B(  1-C ,  2-C ) :   1.5822
B(  1-C ,  4-C ) :   0.1126 B(  1-C , 32-H ) :   0.9737 B(  2-C ,  3-C ) :   1.2487
B(  2-C ,  6-C ) :   1.0165 B(  3-C ,  4-C ) :   1.5872 B(  3-C ,  5-H ) :   1.0020
B(  4-C , 20-C ) :   1.0294 B(  6-C ,  7-H ) :   0.9470 B(  6-C ,  8-H ) :   0.9377
B(  6-C ,  9-C ) :   1.0708 B(  9-C , 10-H ) :   0.9568 B(  9-C , 11-H ) :   0.9591
B(  9-C , 12-C ) :   1.0667 B( 12-C , 13-H ) :   0.9726 B( 12-C , 14-H ) :   0.9719
B( 12-C , 15-H ) :   0.9730 B( 16-S , 17-C ) :   1.1313 B( 16-S , 20-C ) :   1.1437
B( 17-C , 18-C ) :   1.6229 B( 17-C , 20-C ) :   0.1045 B( 17-C , 33-H ) :   0.9761
B( 18-C , 19-C ) :   1.2241 B( 18-C , 21-H ) :   0.9890 B( 19-C , 20-C ) :   1.5740
B( 19-C , 22-C ) :   1.0645 B( 22-C , 23-H ) :   0.9291 B( 22-C , 24-H ) :   0.9244
B( 22-C , 25-C ) :   1.0691 B( 25-C , 26-H ) :   0.9568 B( 25-C , 27-H ) :   0.9562
B( 25-C , 28-C ) :   1.0820 B( 28-C , 29-H ) :   0.9667 B( 28-C , 30-H ) :   0.9658
B( 28-C , 31-H ) :   0.9757

Dispersion correction           -0.015747983
FINAL SINGLE POINT ENERGY     -1339.866759152713

DIPOLE MOMENT
-------------
                                X             Y             Z
Electronic contribution:    -24.51506     -10.77660      -8.17698
Nuclear contribution   :     25.10609      11.00985       8.46897
                        -----------------------------------------
Total Dipole Moment    :      0.59103       0.23324       0.29198
                        -----------------------------------------
Magnitude (a.u.)       :      0.69927
Magnitude (Debye)      :      1.77739

Rotational constants in cm-1:     0.019866     0.009921     0.007253
Rotational constants in MHz :   595.552806   297.428515   217.432487

                             ****ORCA TERMINATED NORMALLY****
TOTAL RUN TIME: 0 days 0 hours 0 minutes 32 seconds 199 msec
