                         Program Version 4.2.1 -  RELEASE  -
|  1> ! wB97X-D3 SP def2-SVP
|  2> %pal
|  3> nprocs 16
|  4> end
|  5>
|  6> * xyz 0 1
|  7> S 	 -37.4403 	 28.9253 	 83.8069
|  8> C 	 -36.1079 	 28.3914 	 82.8632
|  9> C 	 -36.2193 	 28.7893 	 81.5635
| 10> C 	 -37.4695 	 29.43 	 81.3924
| 11> C 	 -38.3334 	 29.4828 	 82.4271
| 12> H 	 -37.7974 	 29.9014 	 80.5117
| 13> C 	 -35.1191 	 28.6611 	 80.5676
| 14> H 	 -34.1761 	 28.5961 	 81.0779
| 15> H 	 -35.1285 	 29.6247 	 80.0069
| 16> C 	 -35.1752 	 27.5361 	 79.5745
| 17> H 	 -35.1638 	 26.6227 	 80.2142
| 18> H 	 -36.103 	 27.4274 	 79.0359
| 19> C 	 -34.0429 	 27.6878 	 78.5829
| 20> H 	 -33.3076 	 28.3587 	 79.0418
| 21> H 	 -33.5211 	 26.7775 	 78.418
| 22> H 	 -34.4146 	 28.1287 	 77.6779
| 23> S 	 -40.2249 	 31.0027 	 83.7901
| 24> C 	 -41.7832 	 31.2331 	 83.0456
| 25> C 	 -41.8016 	 30.6517 	 81.7999
| 26> C 	 -40.6439 	 29.9311 	 81.4144
| 27> C 	 -39.677 	 29.9248 	 82.459
| 28> H 	 -42.6689 	 30.726 	 81.216
| 29> C 	 -40.5448 	 29.3752 	 80.0376
| 30> H 	 -41.4092 	 28.6579 	 79.8543
| 31> H 	 -39.6691 	 28.7783 	 80.0436
| 32> C 	 -40.3718 	 30.2712 	 78.7787
| 33> H 	 -39.4691 	 30.9983 	 78.8248
| 34> H 	 -41.2642 	 30.8509 	 78.526
| 35> C 	 -40.134 	 29.3575 	 77.5502
| 36> H 	 -40.1568 	 30.0033 	 76.6499
| 37> H 	 -40.8811 	 28.6627 	 77.3653
| 38> H 	 -39.151 	 28.8817 	 77.482
| 39> H 	 -35.1489 	 28.0288 	 83.3228
| 40> H 	 -42.5032 	 31.9034 	 83.3761
| 41> *
| 42>
| 43>                          ****END OF INPUT****

CARTESIAN COORDINATES (ANGSTROEM)
---------------------------------
  S    -37.440300   28.925300   83.806900
  C    -36.107900   28.391400   82.863200
  C    -36.219300   28.789300   81.563500
  C    -37.469500   29.430000   81.392400
  C    -38.333400   29.482800   82.427100
  H    -37.797400   29.901400   80.511700
  C    -35.119100   28.661100   80.567600
  H    -34.176100   28.596100   81.077900
  H    -35.128500   29.624700   80.006900
  C    -35.175200   27.536100   79.574500
  H    -35.163800   26.622700   80.214200
  H    -36.103000   27.427400   79.035900
  C    -34.042900   27.687800   78.582900
  H    -33.307600   28.358700   79.041800
  H    -33.521100   26.777500   78.418000
  H    -34.414600   28.128700   77.677900
  S    -40.224900   31.002700   83.790100
  C    -41.783200   31.233100   83.045600
  C    -41.801600   30.651700   81.799900
  C    -40.643900   29.931100   81.414400
  C    -39.677000   29.924800   82.459000
  H    -42.668900   30.726000   81.216000
  C    -40.544800   29.375200   80.037600
  H    -41.409200   28.657900   79.854300
  H    -39.669100   28.778300   80.043600
  C    -40.371800   30.271200   78.778700
  H    -39.469100   30.998300   78.824800
  H    -41.264200   30.850900   78.526000
  C    -40.134000   29.357500   77.550200
  H    -40.156800   30.003300   76.649900
  H    -40.881100   28.662700   77.365300
  H    -39.151000   28.881700   77.482000
  H    -35.148900   28.028800   83.322800
  H    -42.503200   31.903400   83.376100

 Total Charge           Charge          ....    0
 Multiplicity           Mult            ....    1
 Number of Electrons    NEL             ....  134
 Basis Dimension        Dim             ....  322

ORBITAL ENERGIES
----------------

  NO   OCC          E(Eh)            E(eV)
   0   2.0000     -88.967073     -2420.9171
   1   2.0000     -88.959212     -2420.7032
   2   2.0000     -10.332850      -281.1712
   3   2.0000     -10.321129      -280.8522
   4   2.0000     -10.313907      -280.6557
   5   2.0000     -10.312079      -280.6059
   6   2.0000     -10.306312      -280.4490
   7   2.0000     -10.302828      -280.3542
   8   2.0000     -10.294941      -280.1396
   9   2.0000     -10.294385      -280.1244
  10   2.0000     -10.290422      -280.0166
  11   2.0000     -10.287200      -279.9290
  12   2.0000     -10.284034      -279.8428
  13   2.0000     -10.282525      -279.8017
  14   2.0000     -10.277948      -279.6772
  15   2.0000     -10.273827      -279.5650
  16   2.0000      -8.081218      -219.9011
  17   2.0000      -8.075268      -219.7392
  18   2.0000      -6.039783      -164.3509
  19   2.0000      -6.035829      -164.2433
  20   2.0000      -6.033740      -164.1864
  21   2.0000      -6.031932      -164.1372
  22   2.0000      -6.029621      -164.0743
  23   2.0000      -6.025943      -163.9743
  24   2.0000      -1.014214       -27.5982
  25   2.0000      -0.986806       -26.8524
  26   2.0000      -0.923034       -25.1170
  27   2.0000      -0.909680       -24.7536
  28   2.0000      -0.879441       -23.9308
  29   2.0000      -0.856778       -23.3141
  30   2.0000      -0.848266       -23.0825
  31   2.0000      -0.818326       -22.2678
  32   2.0000      -0.785530       -21.3753
  33   2.0000      -0.772454       -21.0196
  34   2.0000      -0.712845       -19.3975
  35   2.0000      -0.701334       -19.0843
  36   2.0000      -0.700029       -19.0488
  37   2.0000      -0.664355       -18.0780
  38   2.0000      -0.645215       -17.5572
  39   2.0000      -0.626716       -17.0538
  40   2.0000      -0.602111       -16.3843
  41   2.0000      -0.575119       -15.6498
  42   2.0000      -0.570510       -15.5244
  43   2.0000      -0.565400       -15.3853
  44   2.0000      -0.529117       -14.3980
  45   2.0000      -0.527834       -14.3631
  46   2.0000      -0.518300       -14.1037
  47   2.0000      -0.513984       -13.9862
  48   2.0000      -0.511092       -13.9075
  49   2.0000      -0.501555       -13.6480
  50   2.0000      -0.496742       -13.5170
  51   2.0000      -0.482779       -13.1371
  52   2.0000      -0.469674       -12.7805
  53   2.0000      -0.467312       -12.7162
  54   2.0000      -0.463138       -12.6026
  55   2.0000      -0.447205       -12.1691
  56   2.0000      -0.444182       -12.0868
  57   2.0000      -0.439489       -11.9591
  58   2.0000      -0.437147       -11.8954
  59   2.0000      -0.426170       -11.5967
  60   2.0000      -0.423804       -11.5323
  61   2.0000      -0.418429       -11.3860
  62   2.0000      -0.410312       -11.1652
  63   2.0000      -0.358623        -9.7586
  64   2.0000      -0.331146        -9.0109
  65   2.0000      -0.327330        -8.9071
  66   2.0000      -0.285791        -7.7768
  67   0.0000       0.020915         0.5691
  68   0.0000       0.077897         2.1197
  69   0.0000       0.107710         2.9309
  70   0.0000       0.121274         3.3000
  71   0.0000       0.127025         3.4565

MULLIKEN ATOMIC CHARGES
-----------------------
   0 S :    0.101286
   1 C :   -0.138956
   2 C :   -0.065439
   3 C :    0.017988
   4 C :   -0.139621
   5 H :   -0.031852
   6 C :    0.046556
   7 H :    0.016958
   8 H :    0.029064
   9 C :   -0.073742
  10 H :    0.024175
  11 H :    0.022392
  12 C :   -0.007313
  13 H :    0.021872
  14 H :    0.029508
  15 H :    0.037935
  16 S :    0.095494
  17 C :   -0.052791
  18 C :   -0.021117
  19 C :   -0.019106
  20 C :   -0.115637
  21 H :   -0.004055
  22 C :    0.039903
  23 H :    0.042659
  24 H :    0.007122
  25 C :   -0.082832
  26 H :    0.051409
  27 H :    0.034077
  28 C :   -0.050209
  29 H :    0.025874
  30 H :    0.019718
  31 H :    0.035017
  32 H :    0.065037
  33 H :    0.038630
Sum of atomic charges:    0.0000000

LOEWDIN ATOMIC CHARGES
----------------------
   0 S :    0.414055
   1 C :   -0.205489
   2 C :   -0.071150
   3 C :   -0.061778
   4 C :   -0.200175
   5 H :    0.018666
   6 C :   -0.033679
   7 H :    0.027872
   8 H :    0.034454
   9 C :   -0.044511
  10 H :    0.026012
  11 H :    0.020175
  12 C :   -0.056659
  13 H :    0.026357
  14 H :    0.024653
  15 H :    0.027398
  16 S :    0.393034
  17 C :   -0.172291
  18 C :   -0.062468
  19 C :   -0.050073
  20 C :   -0.182052
  21 H :    0.021892
  22 C :   -0.043009
  23 H :    0.042781
  24 H :    0.023870
  25 C :   -0.037816
  26 H :    0.034446
  27 H :    0.023321
  28 C :   -0.064696
  29 H :    0.030296
  30 H :    0.013823
  31 H :    0.025235
  32 H :    0.038347
  33 H :    0.019156

  Mayer bond orders larger than 0.100000
B(  0-S ,  1-C ) :   1.1551 B(  0-S ,  4-C ) :   1.1326 B(  1-C ,  2-C ) :   1.5957
B(  1-C , 32-H ) :   0.9592 B(  2-C ,  3-C ) :   1.2521 B(  2-C ,  6-C ) :   1.0211
B(  3-C ,  4-C ) :   1.5676 B(  3-C ,  5-H ) :   1.0058 B(  4-C , 20-C ) :   1.0812
B(  6-C ,  7-H ) :   0.9315 B(  6-C ,  8-H ) :   0.9385 B(  6-C ,  9-C ) :   1.0731
B(  9-C , 10-H ) :   0.9529 B(  9-C , 11-H ) :   0.9610 B(  9-C , 12-C ) :   1.0637
B( 12-C , 13-H ) :   0.9747 B( 12-C , 14-H ) :   0.9725 B( 12-C , 15-H ) :   0.9758
B( 16-S , 17-C ) :   1.1492 B( 16-S , 20-C ) :   1.1357 B( 17-C , 18-C ) :   1.5939
B( 17-C , 20-C ) :   0.1037 B( 17-C , 33-H ) :   0.9752 B( 18-C , 19-C ) :   1.2542
B( 18-C , 21-H ) :   0.9990 B( 19-C , 20-C ) :   1.5467 B( 19-C , 22-C ) :   1.0621
B( 22-C , 23-H ) :   0.9280 B( 22-C , 24-H ) :   0.9289 B( 22-C , 25-C ) :   1.0578
B( 25-C , 26-H ) :   0.9526 B( 25-C , 27-H ) :   0.9528 B( 25-C , 28-C ) :   1.0795
B( 28-C , 29-H ) :   0.9727 B( 28-C , 30-H ) :   0.9753 B( 28-C , 31-H ) :   0.9758

Dispersion correction           -0.013713099
FINAL SINGLE POINT ENERGY     -1339.870041522383

DIPOLE MOMENT
-------------
                                X             Y             Z
Electronic contribution:     -9.73811       7.29578      31.84447
Nuclear contribution   :      9.81259      -7.21412     -32.72230
                        -----------------------------------------
Total Dipole Moment    :      0.07448       0.08166      -0.87782
                        -----------------------------------------
Magnitude (a.u.)       :      0.88475
Magnitude (Debye)      :      2.24887

Rotational constants in cm-1:     0.017541     0.009269     0.006286
Rotational constants in MHz :   525.863716   277.880296   188.443862

                             ****ORCA TERMINATED NORMALLY****
TOTAL RUN TIME: 0 days 0 hours 0 minutes 30 seconds 121 msec
