                         Program Version 4.2.1 -  RELEASE  -
|  1> ! wB97X-D3 SP def2-SVP
|  2> %pal
|  3> nprocs 16
|  4> end
|  5>
|  6> * xyz 0 1
|  7> S 	 56.5268 	 15.3443 	 54.6861
|  8> C 	 56.016 	 17.0184 	 54.6588
|  9> C 	 57.0465 	 17.8273 	 55.1529
| 10> C 	 58.2296 	 17.0665 	 55.5761
| 11> C 	 58.0374 	 15.7182 	 55.5128
| 12> H 	 59.1452 	 17.4755 	 55.9366
| 13> C 	 56.8543 	 19.2758 	 55.3874
| 14> H 	 55.9855 	 19.5992 	 54.7607
| 15> H 	 57.8283 	 19.7334 	 55.0744
| 16> C 	 56.592 	 19.6224 	 56.8104
| 17> H 	 55.714 	 19.1564 	 57.187
| 18> H 	 57.327 	 19.1564 	 57.4322
| 19> C 	 56.4893 	 21.1782 	 57.1006
| 20> H 	 56.4224 	 21.3991 	 58.2009
| 21> H 	 57.5161 	 21.6004 	 56.9466
| 22> H 	 55.6925 	 21.6493 	 56.5596
| 23> S 	 59.2443 	 14.059 	 57.3132
| 24> C 	 60.1167 	 12.6157 	 56.7986
| 25> C 	 60.4398 	 12.7645 	 55.4934
| 26> C 	 59.7052 	 13.7916 	 54.794
| 27> C 	 59.0009 	 14.6084 	 55.7331
| 28> H 	 61.0193 	 12.0018 	 55.079
| 29> C 	 59.6275 	 13.7245 	 53.2239
| 30> H 	 60.4401 	 14.2881 	 52.7576
| 31> H 	 58.6319 	 14.1827 	 52.9113
| 32> C 	 59.4653 	 12.2667 	 52.7689
| 33> H 	 60.3656 	 11.7427 	 52.8708
| 34> H 	 59.2922 	 12.3342 	 51.7044
| 35> C 	 58.1549 	 11.5712 	 53.341
| 36> H 	 57.2617 	 12.0832 	 52.9744
| 37> H 	 58.1986 	 11.5963 	 54.4264
| 38> H 	 58.0735 	 10.5172 	 52.9943
| 39> H 	 55.1437 	 17.354 	 54.1706
| 40> H 	 60.5517 	 11.8167 	 57.3743
| 41> *
| 42>
| 43>                          ****END OF INPUT****

CARTESIAN COORDINATES (ANGSTROEM)
---------------------------------
  S     56.526800   15.344300   54.686100
  C     56.016000   17.018400   54.658800
  C     57.046500   17.827300   55.152900
  C     58.229600   17.066500   55.576100
  C     58.037400   15.718200   55.512800
  H     59.145200   17.475500   55.936600
  C     56.854300   19.275800   55.387400
  H     55.985500   19.599200   54.760700
  H     57.828300   19.733400   55.074400
  C     56.592000   19.622400   56.810400
  H     55.714000   19.156400   57.187000
  H     57.327000   19.156400   57.432200
  C     56.489300   21.178200   57.100600
  H     56.422400   21.399100   58.200900
  H     57.516100   21.600400   56.946600
  H     55.692500   21.649300   56.559600
  S     59.244300   14.059000   57.313200
  C     60.116700   12.615700   56.798600
  C     60.439800   12.764500   55.493400
  C     59.705200   13.791600   54.794000
  C     59.000900   14.608400   55.733100
  H     61.019300   12.001800   55.079000
  C     59.627500   13.724500   53.223900
  H     60.440100   14.288100   52.757600
  H     58.631900   14.182700   52.911300
  C     59.465300   12.266700   52.768900
  H     60.365600   11.742700   52.870800
  H     59.292200   12.334200   51.704400
  C     58.154900   11.571200   53.341000
  H     57.261700   12.083200   52.974400
  H     58.198600   11.596300   54.426400
  H     58.073500   10.517200   52.994300
  H     55.143700   17.354000   54.170600
  H     60.551700   11.816700   57.374300

 Total Charge           Charge          ....    0
 Multiplicity           Mult            ....    1
 Number of Electrons    NEL             ....  134
 Basis Dimension        Dim             ....  322

ORBITAL ENERGIES
----------------

  NO   OCC          E(Eh)            E(eV)
   0   2.0000     -88.964715     -2420.8530
   1   2.0000     -88.963029     -2420.8071
   2   2.0000     -10.331745      -281.1411
   3   2.0000     -10.328519      -281.0533
   4   2.0000     -10.313625      -280.6480
   5   2.0000     -10.313530      -280.6454
   6   2.0000     -10.309808      -280.5441
   7   2.0000     -10.304114      -280.3892
   8   2.0000     -10.298791      -280.2443
   9   2.0000     -10.297429      -280.2073
  10   2.0000     -10.292324      -280.0684
  11   2.0000     -10.286380      -279.9066
  12   2.0000     -10.285512      -279.8830
  13   2.0000     -10.282366      -279.7974
  14   2.0000     -10.279619      -279.7226
  15   2.0000     -10.278979      -279.7052
  16   2.0000      -8.080192      -219.8732
  17   2.0000      -8.077413      -219.7976
  18   2.0000      -6.038706      -164.3215
  19   2.0000      -6.035990      -164.2476
  20   2.0000      -6.034462      -164.2060
  21   2.0000      -6.031901      -164.1364
  22   2.0000      -6.031014      -164.1122
  23   2.0000      -6.028192      -164.0354
  24   2.0000      -1.006378       -27.3849
  25   2.0000      -0.984602       -26.7924
  26   2.0000      -0.915639       -24.9158
  27   2.0000      -0.902432       -24.5564
  28   2.0000      -0.870218       -23.6798
  29   2.0000      -0.842655       -22.9298
  30   2.0000      -0.835532       -22.7360
  31   2.0000      -0.819994       -22.3132
  32   2.0000      -0.778006       -21.1706
  33   2.0000      -0.767234       -20.8775
  34   2.0000      -0.709127       -19.2963
  35   2.0000      -0.700294       -19.0560
  36   2.0000      -0.690766       -18.7967
  37   2.0000      -0.655676       -17.8419
  38   2.0000      -0.646119       -17.5818
  39   2.0000      -0.622165       -16.9300
  40   2.0000      -0.594059       -16.1652
  41   2.0000      -0.571347       -15.5471
  42   2.0000      -0.565292       -15.3824
  43   2.0000      -0.552736       -15.0407
  44   2.0000      -0.537792       -14.6341
  45   2.0000      -0.522777       -14.2255
  46   2.0000      -0.518477       -14.1085
  47   2.0000      -0.511959       -13.9311
  48   2.0000      -0.503778       -13.7085
  49   2.0000      -0.500549       -13.6206
  50   2.0000      -0.484172       -13.1750
  51   2.0000      -0.473320       -12.8797
  52   2.0000      -0.471526       -12.8309
  53   2.0000      -0.461309       -12.5528
  54   2.0000      -0.457950       -12.4615
  55   2.0000      -0.446798       -12.1580
  56   2.0000      -0.443357       -12.0643
  57   2.0000      -0.436754       -11.8847
  58   2.0000      -0.432320       -11.7640
  59   2.0000      -0.423868       -11.5340
  60   2.0000      -0.420825       -11.4512
  61   2.0000      -0.409231       -11.1358
  62   2.0000      -0.406864       -11.0713
  63   2.0000      -0.342168        -9.3109
  64   2.0000      -0.331708        -9.0262
  65   2.0000      -0.316312        -8.6073
  66   2.0000      -0.306409        -8.3378
  67   0.0000       0.044077         1.1994
  68   0.0000       0.057259         1.5581
  69   0.0000       0.108653         2.9566
  70   0.0000       0.122421         3.3313
  71   0.0000       0.130262         3.5446

MULLIKEN ATOMIC CHARGES
-----------------------
   0 S :    0.098238
   1 C :   -0.102209
   2 C :   -0.108931
   3 C :    0.062124
   4 C :   -0.138343
   5 H :    0.006869
   6 C :    0.064395
   7 H :    0.024709
   8 H :    0.029405
   9 C :   -0.047732
  10 H :    0.012266
  11 H :    0.011448
  12 C :   -0.060881
  13 H :    0.036616
  14 H :    0.031361
  15 H :    0.044534
  16 S :    0.119071
  17 C :   -0.096866
  18 C :   -0.016402
  19 C :   -0.053438
  20 C :   -0.183388
  21 H :    0.000501
  22 C :    0.064556
  23 H :    0.049907
  24 H :    0.030968
  25 C :   -0.085474
  26 H :    0.022358
  27 H :    0.026101
  28 C :   -0.061167
  29 H :    0.035798
  30 H :    0.049851
  31 H :    0.039693
  32 H :    0.039662
  33 H :    0.054400
Sum of atomic charges:   -0.0000000

LOEWDIN ATOMIC CHARGES
----------------------
   0 S :    0.401934
   1 C :   -0.192274
   2 C :   -0.057833
   3 C :   -0.055412
   4 C :   -0.186066
   5 H :    0.029618
   6 C :   -0.038525
   7 H :    0.033929
   8 H :    0.035717
   9 C :   -0.041000
  10 H :    0.019374
  11 H :    0.020905
  12 C :   -0.069461
  13 H :    0.032670
  14 H :    0.029122
  15 H :    0.022109
  16 S :    0.430336
  17 C :   -0.184976
  18 C :   -0.066171
  19 C :   -0.055891
  20 C :   -0.230071
  21 H :    0.021044
  22 C :   -0.031687
  23 H :    0.033597
  24 H :    0.031355
  25 C :   -0.040707
  26 H :    0.009888
  27 H :    0.025258
  28 C :   -0.061921
  29 H :    0.026539
  30 H :    0.024963
  31 H :    0.030273
  32 H :    0.021026
  33 H :    0.032336

  Mayer bond orders larger than 0.100000
B(  0-S ,  1-C ) :   1.1312 B(  0-S ,  4-C ) :   1.1467 B(  1-C ,  2-C ) :   1.6135
B(  1-C , 32-H ) :   0.9759 B(  2-C ,  3-C ) :   1.2024 B(  2-C ,  6-C ) :   1.0497
B(  3-C ,  4-C ) :   1.6246 B(  3-C ,  5-H ) :   0.9961 B(  4-C , 20-C ) :   0.9799
B(  6-C ,  7-H ) :   0.9365 B(  6-C ,  8-H ) :   0.9285 B(  6-C ,  9-C ) :   1.0731
B(  9-C , 10-H ) :   0.9492 B(  9-C , 11-H ) :   0.9515 B(  9-C , 12-C ) :   1.0753
B( 12-C , 13-H ) :   0.9745 B( 12-C , 14-H ) :   0.9755 B( 12-C , 15-H ) :   0.9778
B( 16-S , 17-C ) :   1.1455 B( 16-S , 20-C ) :   1.1795 B( 17-C , 18-C ) :   1.6334
B( 17-C , 33-H ) :   0.9674 B( 18-C , 19-C ) :   1.2396 B( 18-C , 21-H ) :   0.9875
B( 19-C , 20-C ) :   1.5732 B( 19-C , 22-C ) :   1.0203 B( 22-C , 23-H ) :   0.9402
B( 22-C , 24-H ) :   0.9416 B( 22-C , 25-C ) :   1.0699 B( 25-C , 26-H ) :   0.9558
B( 25-C , 27-H ) :   0.9552 B( 25-C , 28-C ) :   1.0617 B( 28-C , 29-H ) :   0.9747
B( 28-C , 30-H ) :   0.9774 B( 28-C , 31-H ) :   0.9753

Dispersion correction           -0.014809346
FINAL SINGLE POINT ENERGY     -1339.866128082676

DIPOLE MOMENT
-------------
                                X             Y             Z
Electronic contribution:      2.19697      -9.28736       6.55853
Nuclear contribution   :     -2.01732       9.39329      -6.82010
                        -----------------------------------------
Total Dipole Moment    :      0.17965       0.10593      -0.26158
                        -----------------------------------------
Magnitude (a.u.)       :      0.33454
Magnitude (Debye)      :      0.85034

Rotational constants in cm-1:     0.026656     0.007190     0.006241
Rotational constants in MHz :   799.134886   215.544649   187.091344

                             ****ORCA TERMINATED NORMALLY****
TOTAL RUN TIME: 0 days 0 hours 0 minutes 30 seconds 15 msec
