                         Program Version 4.2.1 -  RELEASE  -
|  1> ! wB97X-D3 SP def2-SVP
|  2> %pal
|  3> nprocs 16
|  4> end
|  5>
|  6> * xyz 0 1
|  7> S 	 26.3481 	 6.17892 	 73.8262
|  8> C 	 26.0904 	 6.31357 	 75.579
|  9> C 	 25.5036 	 5.14155 	 76.0698
| 10> C 	 25.1789 	 4.20963 	 75.0185
| 11> C 	 25.5795 	 4.54249 	 73.7495
| 12> H 	 24.6398 	 3.25029 	 75.2863
| 13> C 	 25.3068 	 4.87867 	 77.5343
| 14> H 	 26.2227 	 4.95477 	 78.1111
| 15> H 	 25.2603 	 3.81846 	 77.6861
| 16> C 	 24.1806 	 5.64263 	 78.1789
| 17> H 	 24.2374 	 6.69837 	 78.1219
| 18> H 	 23.2984 	 5.56587 	 77.502
| 19> C 	 23.8023 	 5.10575 	 79.5699
| 20> H 	 22.9264 	 5.74018 	 79.9248
| 21> H 	 23.6219 	 4.04615 	 79.6107
| 22> H 	 24.6487 	 5.33215 	 80.2068
| 23> S 	 27.0049 	 3.21744 	 71.7884
| 24> C 	 26.0954 	 2.25114 	 70.5325
| 25> C 	 24.7595 	 2.16849 	 70.8602
| 26> C 	 24.4477 	 2.89214 	 72.0671
| 27> C 	 25.4811 	 3.65803 	 72.5943
| 28> H 	 24.1205 	 1.53159 	 70.2827
| 29> C 	 23.0945 	 2.74434 	 72.7522
| 30> H 	 22.9287 	 3.70953 	 73.2332
| 31> H 	 23.0575 	 2.00656 	 73.6428
| 32> C 	 21.8907 	 2.47005 	 71.867
| 33> H 	 22.1128 	 1.5995 	 71.1903
| 34> H 	 21.6669 	 3.35124 	 71.2784
| 35> C 	 20.5812 	 2.24674 	 72.7711
| 36> H 	 20.2507 	 3.07612 	 73.4457
| 37> H 	 20.7282 	 1.43997 	 73.5025
| 38> H 	 19.7112 	 2.06854 	 72.0932
| 39> H 	 26.0411 	 7.22992 	 76.2257
| 40> H 	 26.5446 	 1.78112 	 69.683
| 41> *
| 42>
| 43>                          ****END OF INPUT****

CARTESIAN COORDINATES (ANGSTROEM)
---------------------------------
  S     26.348100    6.178920   73.826200
  C     26.090400    6.313570   75.579000
  C     25.503600    5.141550   76.069800
  C     25.178900    4.209630   75.018500
  C     25.579500    4.542490   73.749500
  H     24.639800    3.250290   75.286300
  C     25.306800    4.878670   77.534300
  H     26.222700    4.954770   78.111100
  H     25.260300    3.818460   77.686100
  C     24.180600    5.642630   78.178900
  H     24.237400    6.698370   78.121900
  H     23.298400    5.565870   77.502000
  C     23.802300    5.105750   79.569900
  H     22.926400    5.740180   79.924800
  H     23.621900    4.046150   79.610700
  H     24.648700    5.332150   80.206800
  S     27.004900    3.217440   71.788400
  C     26.095400    2.251140   70.532500
  C     24.759500    2.168490   70.860200
  C     24.447700    2.892140   72.067100
  C     25.481100    3.658030   72.594300
  H     24.120500    1.531590   70.282700
  C     23.094500    2.744340   72.752200
  H     22.928700    3.709530   73.233200
  H     23.057500    2.006560   73.642800
  C     21.890700    2.470050   71.867000
  H     22.112800    1.599500   71.190300
  H     21.666900    3.351240   71.278400
  C     20.581200    2.246740   72.771100
  H     20.250700    3.076120   73.445700
  H     20.728200    1.439970   73.502500
  H     19.711200    2.068540   72.093200
  H     26.041100    7.229920   76.225700
  H     26.544600    1.781120   69.683000

 Total Charge           Charge          ....    0
 Multiplicity           Mult            ....    1
 Number of Electrons    NEL             ....  134
 Basis Dimension        Dim             ....  322

ORBITAL ENERGIES
----------------

  NO   OCC          E(Eh)            E(eV)
   0   2.0000     -88.970804     -2421.0187
   1   2.0000     -88.963722     -2420.8259
   2   2.0000     -10.337473      -281.2969
   3   2.0000     -10.332425      -281.1596
   4   2.0000     -10.323500      -280.9167
   5   2.0000     -10.323070      -280.9050
   6   2.0000     -10.307874      -280.4915
   7   2.0000     -10.303857      -280.3822
   8   2.0000     -10.302509      -280.3455
   9   2.0000     -10.297655      -280.2134
  10   2.0000     -10.295270      -280.1485
  11   2.0000     -10.295131      -280.1448
  12   2.0000     -10.289682      -279.9965
  13   2.0000     -10.288746      -279.9710
  14   2.0000     -10.286675      -279.9147
  15   2.0000     -10.285006      -279.8692
  16   2.0000      -8.083783      -219.9709
  17   2.0000      -8.077049      -219.7877
  18   2.0000      -6.042592      -164.4273
  19   2.0000      -6.038483      -164.3155
  20   2.0000      -6.035791      -164.2422
  21   2.0000      -6.034328      -164.2024
  22   2.0000      -6.031846      -164.1349
  23   2.0000      -6.027544      -164.0178
  24   2.0000      -0.998132       -27.1605
  25   2.0000      -0.975886       -26.5552
  26   2.0000      -0.916507       -24.9394
  27   2.0000      -0.901512       -24.5314
  28   2.0000      -0.871359       -23.7109
  29   2.0000      -0.846944       -23.0465
  30   2.0000      -0.837664       -22.7940
  31   2.0000      -0.816314       -22.2130
  32   2.0000      -0.779250       -21.2045
  33   2.0000      -0.766563       -20.8592
  34   2.0000      -0.713882       -19.4257
  35   2.0000      -0.706137       -19.2150
  36   2.0000      -0.699575       -19.0364
  37   2.0000      -0.655576       -17.8391
  38   2.0000      -0.636451       -17.3187
  39   2.0000      -0.618125       -16.8200
  40   2.0000      -0.595438       -16.2027
  41   2.0000      -0.571935       -15.5631
  42   2.0000      -0.563076       -15.3221
  43   2.0000      -0.557987       -15.1836
  44   2.0000      -0.533525       -14.5179
  45   2.0000      -0.528598       -14.3839
  46   2.0000      -0.515858       -14.0372
  47   2.0000      -0.510934       -13.9032
  48   2.0000      -0.501603       -13.6493
  49   2.0000      -0.492188       -13.3931
  50   2.0000      -0.486308       -13.2331
  51   2.0000      -0.476495       -12.9661
  52   2.0000      -0.470424       -12.8009
  53   2.0000      -0.469899       -12.7866
  54   2.0000      -0.457935       -12.4611
  55   2.0000      -0.450743       -12.2653
  56   2.0000      -0.442780       -12.0486
  57   2.0000      -0.440320       -11.9817
  58   2.0000      -0.433498       -11.7961
  59   2.0000      -0.420396       -11.4396
  60   2.0000      -0.419485       -11.4148
  61   2.0000      -0.411273       -11.1913
  62   2.0000      -0.404447       -11.0056
  63   2.0000      -0.350440        -9.5360
  64   2.0000      -0.330247        -8.9865
  65   2.0000      -0.326034        -8.8718
  66   2.0000      -0.292861        -7.9691
  67   0.0000       0.023198         0.6312
  68   0.0000       0.057937         1.5765
  69   0.0000       0.104151         2.8341
  70   0.0000       0.117327         3.1926
  71   0.0000       0.124832         3.3968

MULLIKEN ATOMIC CHARGES
-----------------------
   0 S :    0.113147
   1 C :   -0.123269
   2 C :   -0.117560
   3 C :    0.020604
   4 C :   -0.147249
   5 H :    0.035547
   6 C :    0.083664
   7 H :    0.022727
   8 H :   -0.002426
   9 C :   -0.075420
  10 H :    0.013927
  11 H :    0.019391
  12 C :   -0.040390
  13 H :    0.046659
  14 H :    0.038567
  15 H :    0.028364
  16 S :    0.082260
  17 C :   -0.088252
  18 C :   -0.019263
  19 C :   -0.013123
  20 C :   -0.139288
  21 H :    0.018467
  22 C :    0.002164
  23 H :    0.031107
  24 H :    0.050674
  25 C :   -0.088229
  26 H :    0.046317
  27 H :    0.040535
  28 C :   -0.084710
  29 H :    0.037666
  30 H :    0.030531
  31 H :    0.045525
  32 H :    0.078468
  33 H :    0.052869
Sum of atomic charges:    0.0000000

LOEWDIN ATOMIC CHARGES
----------------------
   0 S :    0.379621
   1 C :   -0.197167
   2 C :   -0.064091
   3 C :   -0.060133
   4 C :   -0.187799
   5 H :    0.041582
   6 C :   -0.042799
   7 H :    0.033481
   8 H :    0.029025
   9 C :   -0.046948
  10 H :    0.018098
  11 H :    0.026466
  12 C :   -0.061882
  13 H :    0.037688
  14 H :    0.023542
  15 H :    0.023277
  16 S :    0.361813
  17 C :   -0.152170
  18 C :   -0.067571
  19 C :   -0.056119
  20 C :   -0.182650
  21 H :    0.031012
  22 C :   -0.047511
  23 H :    0.032812
  24 H :    0.036388
  25 C :   -0.041207
  26 H :    0.026704
  27 H :    0.026900
  28 C :   -0.075863
  29 H :    0.030058
  30 H :    0.021964
  31 H :    0.030559
  32 H :    0.046832
  33 H :    0.026087

  Mayer bond orders larger than 0.100000
B(  0-S ,  1-C ) :   1.1348 B(  0-S ,  4-C ) :   1.1223 B(  1-C ,  2-C ) :   1.6113
B(  1-C , 32-H ) :   0.9556 B(  2-C ,  3-C ) :   1.2641 B(  2-C ,  6-C ) :   1.0223
B(  3-C ,  4-C ) :   1.5618 B(  3-C ,  5-H ) :   0.9781 B(  4-C , 20-C ) :   1.0586
B(  6-C ,  7-H ) :   0.9339 B(  6-C ,  8-H ) :   0.9351 B(  6-C ,  9-C ) :   1.0493
B(  9-C , 10-H ) :   0.9544 B(  9-C , 11-H ) :   0.9524 B(  9-C , 12-C ) :   1.0782
B( 12-C , 13-H ) :   0.9731 B( 12-C , 14-H ) :   0.9771 B( 12-C , 15-H ) :   0.9751
B( 16-S , 17-C ) :   1.1320 B( 16-S , 20-C ) :   1.1198 B( 17-C , 18-C ) :   1.6373
B( 17-C , 33-H ) :   0.9677 B( 18-C , 19-C ) :   1.2101 B( 18-C , 21-H ) :   0.9907
B( 19-C , 20-C ) :   1.6214 B( 19-C , 22-C ) :   1.0345 B( 22-C , 23-H ) :   0.9304
B( 22-C , 24-H ) :   0.9366 B( 22-C , 25-C ) :   1.0701 B( 25-C , 26-H ) :   0.9506
B( 25-C , 27-H ) :   0.9572 B( 25-C , 28-C ) :   1.0692 B( 28-C , 29-H ) :   0.9765
B( 28-C , 30-H ) :   0.9764 B( 28-C , 31-H ) :   0.9763

Dispersion correction           -0.013432229
FINAL SINGLE POINT ENERGY     -1339.857608024475

DIPOLE MOMENT
-------------
                                X             Y             Z
Electronic contribution:     24.60269       5.53037     -18.74788
Nuclear contribution   :    -25.21418      -5.82649      19.23246
                        -----------------------------------------
Total Dipole Moment    :     -0.61149      -0.29611       0.48458
                        -----------------------------------------
Magnitude (a.u.)       :      0.83452
Magnitude (Debye)      :      2.12118

Rotational constants in cm-1:     0.016759     0.008151     0.005998
Rotational constants in MHz :   502.424456   244.363982   179.819988

                             ****ORCA TERMINATED NORMALLY****
TOTAL RUN TIME: 0 days 0 hours 0 minutes 32 seconds 857 msec
