                         Program Version 4.2.1 -  RELEASE  -
|  1> ! wB97X-D3 SP def2-SVP
|  2> %pal
|  3> nprocs 16
|  4> end
|  5>
|  6> * xyz 0 1
|  7> S 	 -104.247 	 41.2293 	 130.659
|  8> C 	 -103.064 	 40.168 	 131.374
|  9> C 	 -102.38 	 39.5044 	 130.378
| 10> C 	 -102.753 	 39.8834 	 129.046
| 11> C 	 -103.844 	 40.7921 	 129.034
| 12> H 	 -102.399 	 39.5239 	 128.096
| 13> C 	 -101.129 	 38.6383 	 130.576
| 14> H 	 -101.085 	 37.7603 	 129.9
| 15> H 	 -101.14 	 38.0956 	 131.531
| 16> C 	 -99.7995 	 39.3942 	 130.435
| 17> H 	 -99.0057 	 38.6508 	 130.393
| 18> H 	 -99.7417 	 39.9199 	 129.485
| 19> C 	 -99.5525 	 40.4268 	 131.48
| 20> H 	 -100.41 	 41.1404 	 131.472
| 21> H 	 -99.4789 	 39.7627 	 132.405
| 22> H 	 -98.6166 	 40.9335 	 131.408
| 23> S 	 -105.315 	 42.9542 	 128.171
| 24> C 	 -105.358 	 43.4588 	 126.488
| 25> C 	 -104.913 	 42.3443 	 125.728
| 26> C 	 -104.457 	 41.2049 	 126.515
| 27> C 	 -104.374 	 41.4416 	 127.851
| 28> H 	 -104.89 	 42.4219 	 124.678
| 29> C 	 -103.986 	 40.0118 	 125.753
| 30> H 	 -104.598 	 39.9119 	 124.867
| 31> H 	 -104.06 	 39.0609 	 126.22
| 32> C 	 -102.549 	 40.1375 	 125.162
| 33> H 	 -101.861 	 40.7527 	 125.847
| 34> H 	 -102.822 	 40.7356 	 124.225
| 35> C 	 -101.939 	 38.8379 	 124.823
| 36> H 	 -101.804 	 38.2267 	 125.701
| 37> H 	 -100.941 	 39.0232 	 124.355
| 38> H 	 -102.676 	 38.2693 	 124.231
| 39> H 	 -102.913 	 40.0909 	 132.416
| 40> H 	 -105.606 	 44.3572 	 125.92
| 41> *
| 42>
| 43>                          ****END OF INPUT****

CARTESIAN COORDINATES (ANGSTROEM)
---------------------------------
  S    -104.247000   41.229300  130.659000
  C    -103.064000   40.168000  131.374000
  C    -102.380000   39.504400  130.378000
  C    -102.753000   39.883400  129.046000
  C    -103.844000   40.792100  129.034000
  H    -102.399000   39.523900  128.096000
  C    -101.129000   38.638300  130.576000
  H    -101.085000   37.760300  129.900000
  H    -101.140000   38.095600  131.531000
  C    -99.799500   39.394200  130.435000
  H    -99.005700   38.650800  130.393000
  H    -99.741700   39.919900  129.485000
  C    -99.552500   40.426800  131.480000
  H    -100.410000   41.140400  131.472000
  H    -99.478900   39.762700  132.405000
  H    -98.616600   40.933500  131.408000
  S    -105.315000   42.954200  128.171000
  C    -105.358000   43.458800  126.488000
  C    -104.913000   42.344300  125.728000
  C    -104.457000   41.204900  126.515000
  C    -104.374000   41.441600  127.851000
  H    -104.890000   42.421900  124.678000
  C    -103.986000   40.011800  125.753000
  H    -104.598000   39.911900  124.867000
  H    -104.060000   39.060900  126.220000
  C    -102.549000   40.137500  125.162000
  H    -101.861000   40.752700  125.847000
  H    -102.822000   40.735600  124.225000
  C    -101.939000   38.837900  124.823000
  H    -101.804000   38.226700  125.701000
  H    -100.941000   39.023200  124.355000
  H    -102.676000   38.269300  124.231000
  H    -102.913000   40.090900  132.416000
  H    -105.606000   44.357200  125.920000

 Total Charge           Charge          ....    0
 Multiplicity           Mult            ....    1
 Number of Electrons    NEL             ....  134
 Basis Dimension        Dim             ....  322

ORBITAL ENERGIES
----------------

  NO   OCC          E(Eh)            E(eV)
   0   2.0000     -88.970019     -2420.9973
   1   2.0000     -88.963249     -2420.8131
   2   2.0000     -10.337139      -281.2879
   3   2.0000     -10.334900      -281.2269
   4   2.0000     -10.325845      -280.9805
   5   2.0000     -10.316461      -280.7252
   6   2.0000     -10.307503      -280.4814
   7   2.0000     -10.307343      -280.4771
   8   2.0000     -10.299355      -280.2597
   9   2.0000     -10.297052      -280.1970
  10   2.0000     -10.295898      -280.1656
  11   2.0000     -10.295738      -280.1613
  12   2.0000     -10.288021      -279.9513
  13   2.0000     -10.283419      -279.8261
  14   2.0000     -10.281037      -279.7612
  15   2.0000     -10.276064      -279.6259
  16   2.0000      -8.085029      -220.0048
  17   2.0000      -8.077144      -219.7903
  18   2.0000      -6.043618      -164.4552
  19   2.0000      -6.039363      -164.3394
  20   2.0000      -6.036039      -164.2490
  21   2.0000      -6.035816      -164.2429
  22   2.0000      -6.031819      -164.1341
  23   2.0000      -6.027457      -164.0154
  24   2.0000      -1.008199       -27.4345
  25   2.0000      -0.983160       -26.7531
  26   2.0000      -0.917846       -24.9759
  27   2.0000      -0.913825       -24.8664
  28   2.0000      -0.872935       -23.7538
  29   2.0000      -0.857070       -23.3221
  30   2.0000      -0.846365       -23.0308
  31   2.0000      -0.813595       -22.1391
  32   2.0000      -0.781507       -21.2659
  33   2.0000      -0.778869       -21.1941
  34   2.0000      -0.709843       -19.3158
  35   2.0000      -0.692023       -18.8309
  36   2.0000      -0.689026       -18.7494
  37   2.0000      -0.667690       -18.1688
  38   2.0000      -0.647171       -17.6104
  39   2.0000      -0.621696       -16.9172
  40   2.0000      -0.599189       -16.3048
  41   2.0000      -0.575413       -15.6578
  42   2.0000      -0.569116       -15.4864
  43   2.0000      -0.552307       -15.0290
  44   2.0000      -0.544068       -14.8048
  45   2.0000      -0.532613       -14.4931
  46   2.0000      -0.524001       -14.2588
  47   2.0000      -0.521880       -14.2011
  48   2.0000      -0.509372       -13.8607
  49   2.0000      -0.499541       -13.5932
  50   2.0000      -0.492081       -13.3902
  51   2.0000      -0.488160       -13.2835
  52   2.0000      -0.475483       -12.9385
  53   2.0000      -0.468206       -12.7405
  54   2.0000      -0.457542       -12.4504
  55   2.0000      -0.447733       -12.1834
  56   2.0000      -0.440650       -11.9907
  57   2.0000      -0.437795       -11.9130
  58   2.0000      -0.429431       -11.6854
  59   2.0000      -0.421162       -11.4604
  60   2.0000      -0.413704       -11.2575
  61   2.0000      -0.408732       -11.1222
  62   2.0000      -0.403135       -10.9699
  63   2.0000      -0.364753        -9.9254
  64   2.0000      -0.335473        -9.1287
  65   2.0000      -0.322847        -8.7851
  66   2.0000      -0.284005        -7.7282
  67   0.0000       0.013899         0.3782
  68   0.0000       0.076564         2.0834
  69   0.0000       0.096631         2.6295
  70   0.0000       0.116289         3.1644
  71   0.0000       0.123908         3.3717

MULLIKEN ATOMIC CHARGES
-----------------------
   0 S :    0.109703
   1 C :   -0.107457
   2 C :   -0.055608
   3 C :    0.004527
   4 C :   -0.107689
   5 H :   -0.004132
   6 C :    0.041541
   7 H :    0.026508
   8 H :    0.016576
   9 C :   -0.057850
  10 H :    0.022243
  11 H :    0.017961
  12 C :   -0.055841
  13 H :    0.055576
  14 H :    0.021097
  15 H :    0.033712
  16 S :    0.073196
  17 C :   -0.069335
  18 C :   -0.056808
  19 C :   -0.029638
  20 C :   -0.106015
  21 H :    0.007641
  22 C :    0.047785
  23 H :    0.019225
  24 H :    0.012448
  25 C :   -0.140986
  26 H :    0.052059
  27 H :    0.036824
  28 C :   -0.021585
  29 H :    0.024500
  30 H :    0.053673
  31 H :    0.028496
  32 H :    0.042276
  33 H :    0.065377
Sum of atomic charges:   -0.0000000

LOEWDIN ATOMIC CHARGES
----------------------
   0 S :    0.421697
   1 C :   -0.191074
   2 C :   -0.062175
   3 C :   -0.060447
   4 C :   -0.194449
   5 H :    0.027623
   6 C :   -0.035421
   7 H :    0.033444
   8 H :    0.027471
   9 C :   -0.044167
  10 H :    0.021448
  11 H :    0.019099
  12 C :   -0.067845
  13 H :    0.032689
  14 H :    0.028765
  15 H :    0.021693
  16 S :    0.369043
  17 C :   -0.185775
  18 C :   -0.065055
  19 C :   -0.057542
  20 C :   -0.163430
  21 H :    0.019943
  22 C :   -0.037471
  23 H :    0.031913
  24 H :    0.018690
  25 C :   -0.051959
  26 H :    0.028177
  27 H :    0.029779
  28 C :   -0.069371
  29 H :    0.020636
  30 H :    0.037734
  31 H :    0.028809
  32 H :    0.024505
  33 H :    0.043025

  Mayer bond orders larger than 0.100000
B(  0-S ,  1-C ) :   1.1378 B(  0-S ,  4-C ) :   1.1610 B(  1-C ,  2-C ) :   1.5806
B(  1-C , 32-H ) :   0.9802 B(  2-C ,  3-C ) :   1.2498 B(  2-C ,  6-C ) :   1.0364
B(  3-C ,  4-C ) :   1.5288 B(  3-C ,  5-H ) :   0.9985 B(  4-C , 20-C ) :   1.0984
B(  6-C ,  7-H ) :   0.9394 B(  6-C ,  8-H ) :   0.9420 B(  6-C ,  9-C ) :   1.0685
B(  9-C , 10-H ) :   0.9539 B(  9-C , 11-H ) :   0.9524 B(  9-C , 12-C ) :   1.0773
B( 12-C , 13-H ) :   0.9714 B( 12-C , 14-H ) :   0.9756 B( 12-C , 15-H ) :   0.9717
B( 16-S , 17-C ) :   1.1405 B( 16-S , 20-C ) :   1.0917 B( 17-C , 18-C ) :   1.6313
B( 17-C , 33-H ) :   0.9663 B( 18-C , 19-C ) :   1.2014 B( 18-C , 21-H ) :   0.9913
B( 19-C , 20-C ) :   1.6148 B( 19-C , 22-C ) :   1.0702 B( 22-C , 23-H ) :   0.9269
B( 22-C , 24-H ) :   0.9450 B( 22-C , 25-C ) :   1.0280 B( 25-C , 26-H ) :   0.9594
B( 25-C , 27-H ) :   0.9563 B( 25-C , 28-C ) :   1.0936 B( 28-C , 29-H ) :   0.9723
B( 28-C , 30-H ) :   0.9672 B( 28-C , 31-H ) :   0.9637

Dispersion correction           -0.014542616
FINAL SINGLE POINT ENERGY     -1339.860023827300

DIPOLE MOMENT
-------------
                                X             Y             Z
Electronic contribution:    -23.07262      14.98485       8.55910
Nuclear contribution   :     23.60945     -15.36100      -9.05269
                        -----------------------------------------
Total Dipole Moment    :      0.53683      -0.37615      -0.49359
                        -----------------------------------------
Magnitude (a.u.)       :      0.82055
Magnitude (Debye)      :      2.08568

Rotational constants in cm-1:     0.017607     0.009658     0.006895
Rotational constants in MHz :   527.857455   289.540624   206.705980

                             ****ORCA TERMINATED NORMALLY****
TOTAL RUN TIME: 0 days 0 hours 0 minutes 34 seconds 338 msec
