                         Program Version 4.2.1 -  RELEASE  -
|  1> ! wB97X-D3 SP def2-SVP
|  2> %pal
|  3> nprocs 16
|  4> end
|  5>
|  6> * xyz 0 1
|  7> S 	 -11.4423 	 62.6697 	 54.0307
|  8> C 	 -10.9455 	 61.0035 	 53.9219
|  9> C 	 -9.80485 	 60.805 	 54.6973
| 10> C 	 -9.25855 	 62.0012 	 55.201
| 11> C 	 -10.0099 	 63.1222 	 54.9874
| 12> H 	 -8.3447 	 61.8988 	 55.8837
| 13> C 	 -9.21289 	 59.4362 	 54.9267
| 14> H 	 -10.1468 	 58.8544 	 55.0665
| 15> H 	 -8.66525 	 59.5193 	 55.8686
| 16> C 	 -8.43576 	 58.914 	 53.8169
| 17> H 	 -8.18412 	 57.9156 	 53.9253
| 18> H 	 -8.96545 	 58.8995 	 52.8486
| 19> C 	 -7.12273 	 59.7305 	 53.5604
| 20> H 	 -6.18882 	 59.4033 	 54.1262
| 21> H 	 -6.89643 	 59.3639 	 52.5209
| 22> H 	 -7.191 	 60.8354 	 53.3984
| 23> S 	 -11.1649 	 65.4031 	 55.9291
| 24> C 	 -10.0714 	 66.772 	 56.1382
| 25> C 	 -8.77402 	 66.357 	 56.2605
| 26> C 	 -8.52002 	 65.055 	 55.7474
| 27> C 	 -9.74682 	 64.4287 	 55.5412
| 28> H 	 -8.05147 	 67.133 	 56.4905
| 29> C 	 -7.079 	 64.502 	 55.5612
| 30> H 	 -6.36995 	 65.3099 	 55.4706
| 31> H 	 -6.96576 	 63.8748 	 54.6994
| 32> C 	 -6.59489 	 63.7119 	 56.7978
| 33> H 	 -5.72856 	 63.1687 	 56.4478
| 34> H 	 -7.3971 	 63.0754 	 57.2795
| 35> C 	 -6.0607 	 64.691 	 57.9621
| 36> H 	 -5.63475 	 64.1713 	 58.8106
| 37> H 	 -6.96208 	 65.2828 	 58.1849
| 38> H 	 -5.30646 	 65.4238 	 57.6683
| 39> H 	 -11.4638 	 60.2607 	 53.3447
| 40> H 	 -10.4215 	 67.7099 	 56.4453
| 41> *
| 42>
| 43>                          ****END OF INPUT****

CARTESIAN COORDINATES (ANGSTROEM)
---------------------------------
  S    -11.442300   62.669700   54.030700
  C    -10.945500   61.003500   53.921900
  C     -9.804850   60.805000   54.697300
  C     -9.258550   62.001200   55.201000
  C    -10.009900   63.122200   54.987400
  H     -8.344700   61.898800   55.883700
  C     -9.212890   59.436200   54.926700
  H    -10.146800   58.854400   55.066500
  H     -8.665250   59.519300   55.868600
  C     -8.435760   58.914000   53.816900
  H     -8.184120   57.915600   53.925300
  H     -8.965450   58.899500   52.848600
  C     -7.122730   59.730500   53.560400
  H     -6.188820   59.403300   54.126200
  H     -6.896430   59.363900   52.520900
  H     -7.191000   60.835400   53.398400
  S    -11.164900   65.403100   55.929100
  C    -10.071400   66.772000   56.138200
  C     -8.774020   66.357000   56.260500
  C     -8.520020   65.055000   55.747400
  C     -9.746820   64.428700   55.541200
  H     -8.051470   67.133000   56.490500
  C     -7.079000   64.502000   55.561200
  H     -6.369950   65.309900   55.470600
  H     -6.965760   63.874800   54.699400
  C     -6.594890   63.711900   56.797800
  H     -5.728560   63.168700   56.447800
  H     -7.397100   63.075400   57.279500
  C     -6.060700   64.691000   57.962100
  H     -5.634750   64.171300   58.810600
  H     -6.962080   65.282800   58.184900
  H     -5.306460   65.423800   57.668300
  H    -11.463800   60.260700   53.344700
  H    -10.421500   67.709900   56.445300

 Total Charge           Charge          ....    0
 Multiplicity           Mult            ....    1
 Number of Electrons    NEL             ....  134
 Basis Dimension        Dim             ....  322

ORBITAL ENERGIES
----------------

  NO   OCC          E(Eh)            E(eV)
   0   2.0000     -88.966040     -2420.8890
   1   2.0000     -88.965655     -2420.8786
   2   2.0000     -10.328297      -281.0473
   3   2.0000     -10.327300      -281.0201
   4   2.0000     -10.311623      -280.5935
   5   2.0000     -10.311475      -280.5895
   6   2.0000     -10.307558      -280.4829
   7   2.0000     -10.297565      -280.2110
   8   2.0000     -10.297095      -280.1982
   9   2.0000     -10.293908      -280.1115
  10   2.0000     -10.293408      -280.0979
  11   2.0000     -10.292391      -280.0702
  12   2.0000     -10.287047      -279.9248
  13   2.0000     -10.286484      -279.9095
  14   2.0000     -10.282881      -279.8114
  15   2.0000     -10.281223      -279.7663
  16   2.0000      -8.080647      -219.8856
  17   2.0000      -8.079784      -219.8621
  18   2.0000      -6.039104      -164.3324
  19   2.0000      -6.038370      -164.3124
  20   2.0000      -6.035479      -164.2337
  21   2.0000      -6.034330      -164.2025
  22   2.0000      -6.031168      -164.1164
  23   2.0000      -6.030548      -164.0995
  24   2.0000      -1.006880       -27.3986
  25   2.0000      -0.984366       -26.7860
  26   2.0000      -0.919949       -25.0331
  27   2.0000      -0.905699       -24.6453
  28   2.0000      -0.869588       -23.6627
  29   2.0000      -0.847772       -23.0690
  30   2.0000      -0.840555       -22.8727
  31   2.0000      -0.812546       -22.1105
  32   2.0000      -0.785120       -21.3642
  33   2.0000      -0.771433       -20.9918
  34   2.0000      -0.708544       -19.2805
  35   2.0000      -0.703621       -19.1465
  36   2.0000      -0.692183       -18.8353
  37   2.0000      -0.663098       -18.0438
  38   2.0000      -0.632787       -17.2190
  39   2.0000      -0.616680       -16.7807
  40   2.0000      -0.601897       -16.3784
  41   2.0000      -0.572414       -15.5762
  42   2.0000      -0.556924       -15.1547
  43   2.0000      -0.552478       -15.0337
  44   2.0000      -0.545756       -14.8508
  45   2.0000      -0.537112       -14.6156
  46   2.0000      -0.511345       -13.9144
  47   2.0000      -0.507454       -13.8085
  48   2.0000      -0.502540       -13.6748
  49   2.0000      -0.500396       -13.6165
  50   2.0000      -0.486326       -13.2336
  51   2.0000      -0.481205       -13.0943
  52   2.0000      -0.469380       -12.7725
  53   2.0000      -0.463452       -12.6112
  54   2.0000      -0.461064       -12.5462
  55   2.0000      -0.448186       -12.1958
  56   2.0000      -0.440538       -11.9876
  57   2.0000      -0.436285       -11.8719
  58   2.0000      -0.430283       -11.7086
  59   2.0000      -0.429169       -11.6783
  60   2.0000      -0.417951       -11.3730
  61   2.0000      -0.410824       -11.1791
  62   2.0000      -0.408181       -11.1072
  63   2.0000      -0.356229        -9.6935
  64   2.0000      -0.334457        -9.1011
  65   2.0000      -0.329733        -8.9725
  66   2.0000      -0.280906        -7.6438
  67   0.0000       0.020245         0.5509
  68   0.0000       0.076916         2.0930
  69   0.0000       0.096376         2.6225
  70   0.0000       0.128945         3.5088
  71   0.0000       0.131450         3.5769

MULLIKEN ATOMIC CHARGES
-----------------------
   0 S :    0.108014
   1 C :   -0.128681
   2 C :   -0.131043
   3 C :   -0.017868
   4 C :   -0.100642
   5 H :    0.024883
   6 C :    0.099022
   7 H :    0.030664
   8 H :    0.023489
   9 C :   -0.013154
  10 H :    0.011519
  11 H :    0.024241
  12 C :   -0.123880
  13 H :    0.048544
  14 H :    0.022704
  15 H :    0.060097
  16 S :    0.101027
  17 C :   -0.077097
  18 C :   -0.028812
  19 C :   -0.063752
  20 C :   -0.145106
  21 H :    0.023819
  22 C :    0.104471
  23 H :    0.016989
  24 H :    0.031979
  25 C :   -0.121849
  26 H :    0.035086
  27 H :    0.070426
  28 C :   -0.072709
  29 H :    0.043078
  30 H :    0.038384
  31 H :    0.025505
  32 H :    0.044700
  33 H :    0.035952
Sum of atomic charges:   -0.0000000

LOEWDIN ATOMIC CHARGES
----------------------
   0 S :    0.396902
   1 C :   -0.199230
   2 C :   -0.064878
   3 C :   -0.079097
   4 C :   -0.188387
   5 H :    0.043409
   6 C :   -0.036399
   7 H :    0.037394
   8 H :    0.031584
   9 C :   -0.038387
  10 H :    0.017855
  11 H :    0.029519
  12 C :   -0.086188
  13 H :    0.031500
  14 H :    0.031183
  15 H :    0.031846
  16 S :    0.387194
  17 C :   -0.169605
  18 C :   -0.068681
  19 C :   -0.052853
  20 C :   -0.180579
  21 H :    0.031969
  22 C :   -0.021974
  23 H :    0.030453
  24 H :    0.029816
  25 C :   -0.038255
  26 H :    0.020948
  27 H :    0.031906
  28 C :   -0.072734
  29 H :    0.024800
  30 H :    0.028074
  31 H :    0.020802
  32 H :    0.025452
  33 H :    0.014639

  Mayer bond orders larger than 0.100000
B(  0-S ,  1-C ) :   1.1417 B(  0-S ,  4-C ) :   1.1410 B(  1-C ,  2-C ) :   1.5798
B(  1-C ,  4-C ) :   0.1001 B(  1-C , 32-H ) :   0.9721 B(  2-C ,  3-C ) :   1.2954
B(  2-C ,  6-C ) :   1.0053 B(  3-C ,  4-C ) :   1.5300 B(  3-C ,  5-H ) :   0.9717
B(  4-C , 20-C ) :   1.0859 B(  6-C ,  7-H ) :   0.9319 B(  6-C ,  8-H ) :   0.9361
B(  6-C ,  9-C ) :   1.0971 B(  9-C , 10-H ) :   0.9461 B(  9-C , 11-H ) :   0.9567
B(  9-C , 12-C ) :   1.0620 B( 12-C , 13-H ) :   0.9752 B( 12-C , 14-H ) :   0.9745
B( 12-C , 15-H ) :   0.9725 B( 16-S , 17-C ) :   1.1305 B( 16-S , 20-C ) :   1.1382
B( 17-C , 18-C ) :   1.6497 B( 17-C , 33-H ) :   0.9703 B( 18-C , 19-C ) :   1.2209
B( 18-C , 21-H ) :   0.9760 B( 19-C , 20-C ) :   1.6018 B( 19-C , 22-C ) :   1.0478
B( 22-C , 23-H ) :   0.9328 B( 22-C , 24-H ) :   0.9347 B( 22-C , 25-C ) :   1.0561
B( 25-C , 26-H ) :   0.9583 B( 25-C , 27-H ) :   0.9493 B( 25-C , 28-C ) :   1.0636
B( 28-C , 29-H ) :   0.9771 B( 28-C , 30-H ) :   0.9777 B( 28-C , 31-H ) :   0.9764

Dispersion correction           -0.015149943
FINAL SINGLE POINT ENERGY     -1339.859946366676

DIPOLE MOMENT
-------------
                                X             Y             Z
Electronic contribution:    -26.02180      13.37575      -3.24654
Nuclear contribution   :     26.65916     -13.69734       3.33604
                        -----------------------------------------
Total Dipole Moment    :      0.63735      -0.32159       0.08950
                        -----------------------------------------
Magnitude (a.u.)       :      0.71948
Magnitude (Debye)      :      1.82877

Rotational constants in cm-1:     0.018540     0.010010     0.006938
Rotational constants in MHz :   555.827852   300.079221   207.986975

                             ****ORCA TERMINATED NORMALLY****
TOTAL RUN TIME: 0 days 0 hours 0 minutes 35 seconds 140 msec
