                         Program Version 4.2.1 -  RELEASE  -
|  1> ! wB97X-D3 SP def2-SVP
|  2> %pal
|  3> nprocs 16
|  4> end
|  5>
|  6> * xyz 0 1
|  7> S 	 25.0475 	 12.1817 	 70.5501
|  8> C 	 25.5135 	 13.3174 	 69.2345
|  9> C 	 24.3947 	 13.9776 	 68.7025
| 10> C 	 23.1933 	 13.5795 	 69.3412
| 11> C 	 23.3085 	 12.6139 	 70.3331
| 12> H 	 22.1569 	 14.0025 	 69.2404
| 13> C 	 24.3597 	 14.9473 	 67.5618
| 14> H 	 23.8669 	 14.3801 	 66.728
| 15> H 	 25.3793 	 15.2662 	 67.27
| 16> C 	 23.6451 	 16.3061 	 67.7926
| 17> H 	 22.6866 	 16.052 	 68.2012
| 18> H 	 24.1224 	 16.772 	 68.6285
| 19> C 	 23.5589 	 17.2579 	 66.6052
| 20> H 	 24.5766 	 17.4308 	 66.197
| 21> H 	 23.0668 	 16.8246 	 65.7313
| 22> H 	 23.3169 	 18.2264 	 66.9963
| 23> S 	 22.0053 	 10.2179 	 70.918
| 24> C 	 20.5981 	 10.2755 	 72.0485
| 25> C 	 20.3525 	 11.5802 	 72.4125
| 26> C 	 21.3483 	 12.4854 	 72.0018
| 27> C 	 22.2852 	 11.925 	 71.131
| 28> H 	 19.4764 	 11.7501 	 73.022
| 29> C 	 21.3561 	 13.9174 	 72.4837
| 30> H 	 20.529 	 14.4277 	 71.942
| 31> H 	 22.2169 	 14.5194 	 72.0733
| 32> C 	 21.3844 	 14.0609 	 74.0113
| 33> H 	 22.4314 	 13.8002 	 74.3444
| 34> H 	 20.6163 	 13.4186 	 74.4071
| 35> C 	 20.9311 	 15.4864 	 74.4367
| 36> H 	 21.5798 	 16.264 	 74.0587
| 37> H 	 21.0147 	 15.7029 	 75.4715
| 38> H 	 19.9103 	 15.8104 	 74.0761
| 39> H 	 26.5858 	 13.4856 	 68.9862
| 40> H 	 19.8281 	 9.45254 	 72.2795
| 41> *
| 42>
| 43>                          ****END OF INPUT****

CARTESIAN COORDINATES (ANGSTROEM)
---------------------------------
  S     25.047500   12.181700   70.550100
  C     25.513500   13.317400   69.234500
  C     24.394700   13.977600   68.702500
  C     23.193300   13.579500   69.341200
  C     23.308500   12.613900   70.333100
  H     22.156900   14.002500   69.240400
  C     24.359700   14.947300   67.561800
  H     23.866900   14.380100   66.728000
  H     25.379300   15.266200   67.270000
  C     23.645100   16.306100   67.792600
  H     22.686600   16.052000   68.201200
  H     24.122400   16.772000   68.628500
  C     23.558900   17.257900   66.605200
  H     24.576600   17.430800   66.197000
  H     23.066800   16.824600   65.731300
  H     23.316900   18.226400   66.996300
  S     22.005300   10.217900   70.918000
  C     20.598100   10.275500   72.048500
  C     20.352500   11.580200   72.412500
  C     21.348300   12.485400   72.001800
  C     22.285200   11.925000   71.131000
  H     19.476400   11.750100   73.022000
  C     21.356100   13.917400   72.483700
  H     20.529000   14.427700   71.942000
  H     22.216900   14.519400   72.073300
  C     21.384400   14.060900   74.011300
  H     22.431400   13.800200   74.344400
  H     20.616300   13.418600   74.407100
  C     20.931100   15.486400   74.436700
  H     21.579800   16.264000   74.058700
  H     21.014700   15.702900   75.471500
  H     19.910300   15.810400   74.076100
  H     26.585800   13.485600   68.986200
  H     19.828100    9.452540   72.279500

 Total Charge           Charge          ....    0
 Multiplicity           Mult            ....    1
 Number of Electrons    NEL             ....  134
 Basis Dimension        Dim             ....  322

ORBITAL ENERGIES
----------------

  NO   OCC          E(Eh)            E(eV)
   0   2.0000     -88.967431     -2420.9269
   1   2.0000     -88.964384     -2420.8440
   2   2.0000     -10.335065      -281.2314
   3   2.0000     -10.327973      -281.0384
   4   2.0000     -10.326867      -281.0083
   5   2.0000     -10.325353      -280.9671
   6   2.0000     -10.307232      -280.4740
   7   2.0000     -10.302565      -280.3471
   8   2.0000     -10.300569      -280.2927
   9   2.0000     -10.297210      -280.2013
  10   2.0000     -10.293372      -280.0969
  11   2.0000     -10.293315      -280.0953
  12   2.0000     -10.293229      -280.0930
  13   2.0000     -10.283909      -279.8394
  14   2.0000     -10.283110      -279.8176
  15   2.0000     -10.278304      -279.6869
  16   2.0000      -8.081283      -219.9029
  17   2.0000      -8.077669      -219.8045
  18   2.0000      -6.039889      -164.3537
  19   2.0000      -6.036248      -164.2547
  20   2.0000      -6.035888      -164.2449
  21   2.0000      -6.032380      -164.1494
  22   2.0000      -6.031981      -164.1386
  23   2.0000      -6.028442      -164.0423
  24   2.0000      -1.000134       -27.2150
  25   2.0000      -0.977029       -26.5863
  26   2.0000      -0.910831       -24.7850
  27   2.0000      -0.905172       -24.6310
  28   2.0000      -0.868645       -23.6370
  29   2.0000      -0.846698       -23.0398
  30   2.0000      -0.845436       -23.0055
  31   2.0000      -0.814516       -22.1641
  32   2.0000      -0.780815       -21.2471
  33   2.0000      -0.767621       -20.8880
  34   2.0000      -0.709738       -19.3130
  35   2.0000      -0.699212       -19.0265
  36   2.0000      -0.693516       -18.8715
  37   2.0000      -0.653900       -17.7935
  38   2.0000      -0.642452       -17.4820
  39   2.0000      -0.617020       -16.7900
  40   2.0000      -0.592857       -16.1325
  41   2.0000      -0.570098       -15.5132
  42   2.0000      -0.562456       -15.3052
  43   2.0000      -0.558891       -15.2082
  44   2.0000      -0.532757       -14.4971
  45   2.0000      -0.520812       -14.1720
  46   2.0000      -0.513250       -13.9662
  47   2.0000      -0.510120       -13.8811
  48   2.0000      -0.505040       -13.7428
  49   2.0000      -0.495112       -13.4727
  50   2.0000      -0.490324       -13.3424
  51   2.0000      -0.475665       -12.9435
  52   2.0000      -0.468009       -12.7352
  53   2.0000      -0.458633       -12.4800
  54   2.0000      -0.455392       -12.3919
  55   2.0000      -0.449941       -12.2435
  56   2.0000      -0.445230       -12.1153
  57   2.0000      -0.437635       -11.9087
  58   2.0000      -0.434736       -11.8298
  59   2.0000      -0.424051       -11.5390
  60   2.0000      -0.421563       -11.4713
  61   2.0000      -0.412617       -11.2279
  62   2.0000      -0.409817       -11.1517
  63   2.0000      -0.342884        -9.3303
  64   2.0000      -0.330173        -8.9845
  65   2.0000      -0.326578        -8.8867
  66   2.0000      -0.297037        -8.0828
  67   0.0000       0.031332         0.8526
  68   0.0000       0.058402         1.5892
  69   0.0000       0.110995         3.0203
  70   0.0000       0.117523         3.1980
  71   0.0000       0.125816         3.4236

MULLIKEN ATOMIC CHARGES
-----------------------
   0 S :    0.087697
   1 C :   -0.142330
   2 C :   -0.063908
   3 C :    0.024993
   4 C :   -0.189396
   5 H :    0.037473
   6 C :    0.044413
   7 H :    0.051203
   8 H :    0.017267
   9 C :   -0.084158
  10 H :    0.013465
  11 H :    0.019339
  12 C :   -0.008911
  13 H :    0.014214
  14 H :    0.039838
  15 H :    0.037753
  16 S :    0.112297
  17 C :   -0.130069
  18 C :   -0.045496
  19 C :   -0.004953
  20 C :   -0.150508
  21 H :    0.025199
  22 C :    0.022052
  23 H :    0.033592
  24 H :    0.032897
  25 C :   -0.059565
  26 H :    0.055922
  27 H :    0.032933
  28 C :   -0.052380
  29 H :    0.014489
  30 H :    0.024730
  31 H :    0.035404
  32 H :    0.068139
  33 H :    0.086366
Sum of atomic charges:   -0.0000000

LOEWDIN ATOMIC CHARGES
----------------------
   0 S :    0.361493
   1 C :   -0.183964
   2 C :   -0.068849
   3 C :   -0.066216
   4 C :   -0.175309
   5 H :    0.042543
   6 C :   -0.034885
   7 H :    0.040154
   8 H :    0.028193
   9 C :   -0.042031
  10 H :    0.014418
  11 H :    0.022844
  12 C :   -0.063677
  13 H :    0.027350
  14 H :    0.030323
  15 H :    0.030591
  16 S :    0.393555
  17 C :   -0.184923
  18 C :   -0.072563
  19 C :   -0.058553
  20 C :   -0.211014
  21 H :    0.033431
  22 C :   -0.043940
  23 H :    0.032941
  24 H :    0.034723
  25 C :   -0.034583
  26 H :    0.039711
  27 H :    0.020862
  28 C :   -0.073076
  29 H :    0.021394
  30 H :    0.020300
  31 H :    0.031460
  32 H :    0.036221
  33 H :    0.051077

  Mayer bond orders larger than 0.100000
B(  0-S ,  1-C ) :   1.1348 B(  0-S ,  4-C ) :   1.1363 B(  1-C ,  2-C ) :   1.6049
B(  1-C ,  4-C ) :   0.1056 B(  1-C , 32-H ) :   0.9645 B(  2-C ,  3-C ) :   1.2181
B(  2-C ,  6-C ) :   1.0317 B(  3-C ,  4-C ) :   1.6134 B(  3-C ,  5-H ) :   0.9792
B(  4-C , 20-C ) :   1.0225 B(  6-C ,  7-H ) :   0.9370 B(  6-C ,  8-H ) :   0.9426
B(  6-C ,  9-C ) :   1.0548 B(  9-C , 10-H ) :   0.9527 B(  9-C , 11-H ) :   0.9529
B(  9-C , 12-C ) :   1.0911 B( 12-C , 13-H ) :   0.9688 B( 12-C , 14-H ) :   0.9730
B( 12-C , 15-H ) :   0.9709 B( 16-S , 17-C ) :   1.1395 B( 16-S , 20-C ) :   1.1439
B( 17-C , 18-C ) :   1.6315 B( 17-C , 33-H ) :   0.9539 B( 18-C , 19-C ) :   1.2338
B( 18-C , 21-H ) :   0.9852 B( 19-C , 20-C ) :   1.5875 B( 19-C , 22-C ) :   1.0384
B( 22-C , 23-H ) :   0.9397 B( 22-C , 24-H ) :   0.9318 B( 22-C , 25-C ) :   1.0493
B( 25-C , 26-H ) :   0.9529 B( 25-C , 27-H ) :   0.9617 B( 25-C , 28-C ) :   1.0750
B( 28-C , 29-H ) :   0.9717 B( 28-C , 30-H ) :   0.9745 B( 28-C , 31-H ) :   0.9759

Dispersion correction           -0.013660767
FINAL SINGLE POINT ENERGY     -1339.872140181857

DIPOLE MOMENT
-------------
                                X             Y             Z
Electronic contribution:      6.54851     -28.53751       1.28745
Nuclear contribution   :     -6.90128      29.24160      -1.33829
                        -----------------------------------------
Total Dipole Moment    :     -0.35277       0.70410      -0.05085
                        -----------------------------------------
Magnitude (a.u.)       :      0.78917
Magnitude (Debye)      :      2.00591

Rotational constants in cm-1:     0.016434     0.008161     0.006505
Rotational constants in MHz :   492.680552   244.668342   195.008981

                             ****ORCA TERMINATED NORMALLY****
TOTAL RUN TIME: 0 days 0 hours 0 minutes 28 seconds 932 msec
