                         Program Version 4.2.1 -  RELEASE  -
|  1> ! wB97X-D3 SP def2-SVP
|  2> %pal
|  3> nprocs 16
|  4> end
|  5>
|  6> * xyz 0 1
|  7> S 	 38.5123 	 30.0912 	 93.6191
|  8> C 	 39.6427 	 30.2002 	 92.258
|  9> C 	 39.7899 	 29.0174 	 91.6632
| 10> C 	 39.2132 	 27.9654 	 92.5076
| 11> C 	 38.5865 	 28.4506 	 93.6438
| 12> H 	 39.2572 	 26.8871 	 92.3492
| 13> C 	 40.604 	 28.6873 	 90.3946
| 14> H 	 41.2099 	 27.8655 	 90.6174
| 15> H 	 41.2485 	 29.4971 	 90.2557
| 16> C 	 39.8221 	 28.3175 	 89.1701
| 17> H 	 39.1004 	 29.1276 	 89.1391
| 18> H 	 40.4309 	 28.2617 	 88.2318
| 19> C 	 39.0456 	 26.9664 	 89.3621
| 20> H 	 38.4903 	 26.9245 	 90.2306
| 21> H 	 38.331 	 26.7956 	 88.586
| 22> H 	 39.6667 	 26.1372 	 89.3596
| 23> S 	 36.5631 	 28.1845 	 95.5525
| 24> C 	 36.5558 	 26.8999 	 96.7132
| 25> C 	 37.6709 	 26.0812 	 96.5681
| 26> C 	 38.5069 	 26.4964 	 95.4474
| 27> C 	 38.0913 	 27.6607 	 94.7934
| 28> H 	 37.8277 	 25.1715 	 97.1104
| 29> C 	 39.7398 	 25.6973 	 95.0991
| 30> H 	 40.1713 	 25.4519 	 96.0686
| 31> H 	 40.3911 	 26.308 	 94.465
| 32> C 	 39.5864 	 24.4371 	 94.3018
| 33> H 	 39.1949 	 24.6571 	 93.2822
| 34> H 	 38.906 	 23.7183 	 94.7371
| 35> C 	 40.9544 	 23.8576 	 93.9971
| 36> H 	 40.9283 	 23.085 	 93.2102
| 37> H 	 41.3674 	 23.6771 	 94.9611
| 38> H 	 41.7348 	 24.3928 	 93.382
| 39> H 	 40.1012 	 31.0916 	 91.7615
| 40> H 	 35.8004 	 26.6981 	 97.4765
| 41> *
| 42>
| 43>                          ****END OF INPUT****

CARTESIAN COORDINATES (ANGSTROEM)
---------------------------------
  S     38.512300   30.091200   93.619100
  C     39.642700   30.200200   92.258000
  C     39.789900   29.017400   91.663200
  C     39.213200   27.965400   92.507600
  C     38.586500   28.450600   93.643800
  H     39.257200   26.887100   92.349200
  C     40.604000   28.687300   90.394600
  H     41.209900   27.865500   90.617400
  H     41.248500   29.497100   90.255700
  C     39.822100   28.317500   89.170100
  H     39.100400   29.127600   89.139100
  H     40.430900   28.261700   88.231800
  C     39.045600   26.966400   89.362100
  H     38.490300   26.924500   90.230600
  H     38.331000   26.795600   88.586000
  H     39.666700   26.137200   89.359600
  S     36.563100   28.184500   95.552500
  C     36.555800   26.899900   96.713200
  C     37.670900   26.081200   96.568100
  C     38.506900   26.496400   95.447400
  C     38.091300   27.660700   94.793400
  H     37.827700   25.171500   97.110400
  C     39.739800   25.697300   95.099100
  H     40.171300   25.451900   96.068600
  H     40.391100   26.308000   94.465000
  C     39.586400   24.437100   94.301800
  H     39.194900   24.657100   93.282200
  H     38.906000   23.718300   94.737100
  C     40.954400   23.857600   93.997100
  H     40.928300   23.085000   93.210200
  H     41.367400   23.677100   94.961100
  H     41.734800   24.392800   93.382000
  H     40.101200   31.091600   91.761500
  H     35.800400   26.698100   97.476500

 Total Charge           Charge          ....    0
 Multiplicity           Mult            ....    1
 Number of Electrons    NEL             ....  134
 Basis Dimension        Dim             ....  322

ORBITAL ENERGIES
----------------

  NO   OCC          E(Eh)            E(eV)
   0   2.0000     -88.965609     -2420.8773
   1   2.0000     -88.965407     -2420.8718
   2   2.0000     -10.334260      -281.2095
   3   2.0000     -10.327851      -281.0351
   4   2.0000     -10.322802      -280.8977
   5   2.0000     -10.314664      -280.6763
   6   2.0000     -10.307334      -280.4768
   7   2.0000     -10.302144      -280.3356
   8   2.0000     -10.297137      -280.1993
   9   2.0000     -10.295080      -280.1434
  10   2.0000     -10.290843      -280.0281
  11   2.0000     -10.288218      -279.9567
  12   2.0000     -10.287515      -279.9375
  13   2.0000     -10.284440      -279.8538
  14   2.0000     -10.280607      -279.7495
  15   2.0000     -10.264664      -279.3157
  16   2.0000      -8.082403      -219.9334
  17   2.0000      -8.079975      -219.8673
  18   2.0000      -6.040958      -164.3828
  19   2.0000      -6.038620      -164.3192
  20   2.0000      -6.036736      -164.2679
  21   2.0000      -6.034352      -164.2031
  22   2.0000      -6.032830      -164.1616
  23   2.0000      -6.030774      -164.1057
  24   2.0000      -1.016367       -27.6567
  25   2.0000      -0.986154       -26.8346
  26   2.0000      -0.920952       -25.0604
  27   2.0000      -0.918096       -24.9827
  28   2.0000      -0.872604       -23.7448
  29   2.0000      -0.853255       -23.2182
  30   2.0000      -0.840213       -22.8634
  31   2.0000      -0.815965       -22.2035
  32   2.0000      -0.795456       -21.6455
  33   2.0000      -0.775264       -21.0960
  34   2.0000      -0.708836       -19.2884
  35   2.0000      -0.704447       -19.1690
  36   2.0000      -0.693173       -18.8622
  37   2.0000      -0.666155       -18.1270
  38   2.0000      -0.637644       -17.3512
  39   2.0000      -0.618425       -16.8282
  40   2.0000      -0.598210       -16.2781
  41   2.0000      -0.582245       -15.8437
  42   2.0000      -0.580065       -15.7844
  43   2.0000      -0.553105       -15.0508
  44   2.0000      -0.548015       -14.9122
  45   2.0000      -0.528754       -14.3881
  46   2.0000      -0.520867       -14.1735
  47   2.0000      -0.512223       -13.9383
  48   2.0000      -0.507875       -13.8200
  49   2.0000      -0.499769       -13.5994
  50   2.0000      -0.494894       -13.4668
  51   2.0000      -0.487311       -13.2604
  52   2.0000      -0.475820       -12.9477
  53   2.0000      -0.467852       -12.7309
  54   2.0000      -0.464266       -12.6333
  55   2.0000      -0.449048       -12.2192
  56   2.0000      -0.440423       -11.9845
  57   2.0000      -0.435343       -11.8463
  58   2.0000      -0.431356       -11.7378
  59   2.0000      -0.426045       -11.5933
  60   2.0000      -0.422608       -11.4998
  61   2.0000      -0.420952       -11.4547
  62   2.0000      -0.398201       -10.8356
  63   2.0000      -0.358535        -9.7562
  64   2.0000      -0.328866        -8.9489
  65   2.0000      -0.328023        -8.9260
  66   2.0000      -0.294186        -8.0052
  67   0.0000       0.030136         0.8201
  68   0.0000       0.075827         2.0634
  69   0.0000       0.102861         2.7990
  70   0.0000       0.119507         3.2520
  71   0.0000       0.125767         3.4223

MULLIKEN ATOMIC CHARGES
-----------------------
   0 S :    0.117393
   1 C :   -0.139548
   2 C :   -0.108466
   3 C :   -0.006256
   4 C :   -0.108944
   5 H :    0.000116
   6 C :    0.141343
   7 H :    0.005047
   8 H :   -0.000481
   9 C :   -0.066043
  10 H :    0.024801
  11 H :    0.047503
  12 C :   -0.013701
  13 H :    0.015857
  14 H :    0.022502
  15 H :    0.008048
  16 S :    0.087780
  17 C :   -0.080106
  18 C :   -0.025031
  19 C :   -0.051845
  20 C :   -0.125028
  21 H :    0.015408
  22 C :    0.038246
  23 H :    0.023784
  24 H :    0.024347
  25 C :   -0.045075
  26 H :    0.022574
  27 H :    0.028706
  28 C :   -0.060288
  29 H :    0.029193
  30 H :    0.027122
  31 H :    0.029721
  32 H :    0.054636
  33 H :    0.066684
Sum of atomic charges:    0.0000000

LOEWDIN ATOMIC CHARGES
----------------------
   0 S :    0.437013
   1 C :   -0.197630
   2 C :   -0.057875
   3 C :   -0.074587
   4 C :   -0.223334
   5 H :    0.025276
   6 C :   -0.021351
   7 H :    0.021626
   8 H :    0.021658
   9 C :   -0.032325
  10 H :    0.023965
  11 H :    0.032278
  12 C :   -0.054843
  13 H :    0.016268
  14 H :    0.026629
  15 H :    0.014486
  16 S :    0.392954
  17 C :   -0.186356
  18 C :   -0.073727
  19 C :   -0.051932
  20 C :   -0.186255
  21 H :    0.028639
  22 C :   -0.035244
  23 H :    0.030561
  24 H :    0.032935
  25 C :   -0.039844
  26 H :    0.023346
  27 H :    0.022529
  28 C :   -0.077966
  29 H :    0.031270
  30 H :    0.019819
  31 H :    0.033955
  32 H :    0.041384
  33 H :    0.036681

  Mayer bond orders larger than 0.100000
B(  0-S ,  1-C ) :   1.1146 B(  0-S ,  4-C ) :   1.1705 B(  1-C ,  2-C ) :   1.6764
B(  1-C , 32-H ) :   0.9564 B(  2-C ,  3-C ) :   1.1950 B(  2-C ,  6-C ) :   1.0138
B(  3-C ,  4-C ) :   1.5743 B(  3-C ,  5-H ) :   0.9931 B(  4-C , 20-C ) :   1.0167
B(  6-C ,  7-H ) :   0.9371 B(  6-C ,  8-H ) :   0.9336 B(  6-C ,  9-C ) :   1.0645
B(  9-C , 10-H ) :   0.9542 B(  9-C , 11-H ) :   0.9579 B(  9-C , 12-C ) :   1.0789
B( 12-C , 13-H ) :   0.9703 B( 12-C , 14-H ) :   0.9698 B( 12-C , 15-H ) :   0.9750
B( 16-S , 17-C ) :   1.1644 B( 16-S , 20-C ) :   1.1159 B( 17-C , 18-C ) :   1.5998
B( 17-C , 33-H ) :   0.9645 B( 18-C , 19-C ) :   1.2382 B( 18-C , 21-H ) :   0.9900
B( 19-C , 20-C ) :   1.6157 B( 19-C , 22-C ) :   1.0483 B( 22-C , 23-H ) :   0.9288
B( 22-C , 24-H ) :   0.9347 B( 22-C , 25-C ) :   1.0802 B( 25-C , 26-H ) :   0.9469
B( 25-C , 27-H ) :   0.9489 B( 25-C , 28-C ) :   1.0759 B( 28-C , 29-H ) :   0.9682
B( 28-C , 30-H ) :   0.9749 B( 28-C , 31-H ) :   0.9697

Dispersion correction           -0.014428627
FINAL SINGLE POINT ENERGY     -1339.849329734543

DIPOLE MOMENT
-------------
                                X             Y             Z
Electronic contribution:    -15.12162      19.91040      17.40569
Nuclear contribution   :     15.50808     -20.46777     -17.72803
                        -----------------------------------------
Total Dipole Moment    :      0.38646      -0.55736      -0.32234
                        -----------------------------------------
Magnitude (a.u.)       :      0.75094
Magnitude (Debye)      :      1.90873

Rotational constants in cm-1:     0.016962     0.009905     0.007051
Rotational constants in MHz :   508.503624   296.945800   211.378670

                             ****ORCA TERMINATED NORMALLY****
TOTAL RUN TIME: 0 days 0 hours 0 minutes 31 seconds 496 msec
