                         Program Version 4.2.1 -  RELEASE  -
|  1> ! wB97X-D3 SP def2-SVP
|  2> %pal
|  3> nprocs 16
|  4> end
|  5>
|  6> * xyz 0 1
|  7> S 	 1.7152 	 -21.1248 	 86.8198
|  8> C 	 2.0717 	 -22.4705 	 87.9255
|  9> C 	 3.21434 	 -22.2254 	 88.635
| 10> C 	 3.89055 	 -21.0283 	 88.1413
| 11> C 	 3.18187 	 -20.366 	 87.1432
| 12> H 	 4.80195 	 -20.5646 	 88.5256
| 13> C 	 3.85887 	 -22.9533 	 89.8193
| 14> H 	 4.82097 	 -22.5567 	 90.0734
| 15> H 	 4.10241 	 -23.9359 	 89.5065
| 16> C 	 2.97754 	 -23.0588 	 91.0863
| 17> H 	 3.51875 	 -23.584 	 91.8447
| 18> H 	 2.78931 	 -22.0561 	 91.5936
| 19> C 	 1.53842 	 -23.7176 	 90.9778
| 20> H 	 1.51485 	 -24.4138 	 90.1057
| 21> H 	 1.34895 	 -24.3487 	 91.8216
| 22> H 	 0.766967 	 -22.9771 	 90.9329
| 23> S 	 3.64679 	 -19.269 	 84.722
| 24> C 	 4.38923 	 -17.6817 	 84.5914
| 25> C 	 4.75903 	 -17.2115 	 85.8291
| 26> C 	 4.31138 	 -18.0016 	 86.942
| 27> C 	 3.78089 	 -19.2136 	 86.4659
| 28> H 	 5.2475 	 -16.2269 	 85.7959
| 29> C 	 4.62529 	 -17.8075 	 88.41
| 30> H 	 5.56403 	 -18.2172 	 88.5859
| 31> H 	 3.94211 	 -18.3176 	 89.0335
| 32> C 	 4.58549 	 -16.3758 	 88.9284
| 33> H 	 3.55255 	 -16.0646 	 88.8744
| 34> H 	 5.21209 	 -15.7615 	 88.3366
| 35> C 	 5.11899 	 -16.2489 	 90.3602
| 36> H 	 5.14802 	 -15.262 	 90.8139
| 37> H 	 6.16026 	 -16.6652 	 90.4119
| 38> H 	 4.31872 	 -16.8272 	 90.7918
| 39> H 	 1.42417 	 -23.2363 	 88.1082
| 40> H 	 4.67817 	 -17.2363 	 83.6364
| 41> *
| 42>
| 43>                          ****END OF INPUT****

CARTESIAN COORDINATES (ANGSTROEM)
---------------------------------
  S      1.715200  -21.124800   86.819800
  C      2.071700  -22.470500   87.925500
  C      3.214340  -22.225400   88.635000
  C      3.890550  -21.028300   88.141300
  C      3.181870  -20.366000   87.143200
  H      4.801950  -20.564600   88.525600
  C      3.858870  -22.953300   89.819300
  H      4.820970  -22.556700   90.073400
  H      4.102410  -23.935900   89.506500
  C      2.977540  -23.058800   91.086300
  H      3.518750  -23.584000   91.844700
  H      2.789310  -22.056100   91.593600
  C      1.538420  -23.717600   90.977800
  H      1.514850  -24.413800   90.105700
  H      1.348950  -24.348700   91.821600
  H      0.766967  -22.977100   90.932900
  S      3.646790  -19.269000   84.722000
  C      4.389230  -17.681700   84.591400
  C      4.759030  -17.211500   85.829100
  C      4.311380  -18.001600   86.942000
  C      3.780890  -19.213600   86.465900
  H      5.247500  -16.226900   85.795900
  C      4.625290  -17.807500   88.410000
  H      5.564030  -18.217200   88.585900
  H      3.942110  -18.317600   89.033500
  C      4.585490  -16.375800   88.928400
  H      3.552550  -16.064600   88.874400
  H      5.212090  -15.761500   88.336600
  C      5.118990  -16.248900   90.360200
  H      5.148020  -15.262000   90.813900
  H      6.160260  -16.665200   90.411900
  H      4.318720  -16.827200   90.791800
  H      1.424170  -23.236300   88.108200
  H      4.678170  -17.236300   83.636400

 Total Charge           Charge          ....    0
 Multiplicity           Mult            ....    1
 Number of Electrons    NEL             ....  134
 Basis Dimension        Dim             ....  322

ORBITAL ENERGIES
----------------

  NO   OCC          E(Eh)            E(eV)
   0   2.0000     -88.967697     -2420.9341
   1   2.0000     -88.962750     -2420.7995
   2   2.0000     -10.327609      -281.0285
   3   2.0000     -10.323106      -280.9060
   4   2.0000     -10.315858      -280.7088
   5   2.0000     -10.309050      -280.5235
   6   2.0000     -10.308328      -280.5039
   7   2.0000     -10.304587      -280.4021
   8   2.0000     -10.296911      -280.1932
   9   2.0000     -10.293324      -280.0956
  10   2.0000     -10.293275      -280.0942
  11   2.0000     -10.290692      -280.0240
  12   2.0000     -10.283568      -279.8301
  13   2.0000     -10.281501      -279.7739
  14   2.0000     -10.279787      -279.7272
  15   2.0000     -10.278557      -279.6937
  16   2.0000      -8.082997      -219.9495
  17   2.0000      -8.077631      -219.8035
  18   2.0000      -6.041563      -164.3993
  19   2.0000      -6.037388      -164.2857
  20   2.0000      -6.036040      -164.2490
  21   2.0000      -6.033690      -164.1850
  22   2.0000      -6.032109      -164.1420
  23   2.0000      -6.028495      -164.0437
  24   2.0000      -1.008348       -27.4385
  25   2.0000      -0.983142       -26.7527
  26   2.0000      -0.917568       -24.9683
  27   2.0000      -0.907553       -24.6958
  28   2.0000      -0.867164       -23.5967
  29   2.0000      -0.853308       -23.2197
  30   2.0000      -0.842777       -22.9331
  31   2.0000      -0.811196       -22.0738
  32   2.0000      -0.791281       -21.5318
  33   2.0000      -0.777029       -21.1440
  34   2.0000      -0.703766       -19.1505
  35   2.0000      -0.702258       -19.1094
  36   2.0000      -0.697138       -18.9701
  37   2.0000      -0.652928       -17.7671
  38   2.0000      -0.642256       -17.4767
  39   2.0000      -0.615464       -16.7476
  40   2.0000      -0.599581       -16.3154
  41   2.0000      -0.583781       -15.8855
  42   2.0000      -0.572116       -15.5681
  43   2.0000      -0.546477       -14.8704
  44   2.0000      -0.540328       -14.7031
  45   2.0000      -0.528688       -14.3863
  46   2.0000      -0.519196       -14.1281
  47   2.0000      -0.511396       -13.9158
  48   2.0000      -0.508880       -13.8473
  49   2.0000      -0.501620       -13.6498
  50   2.0000      -0.493418       -13.4266
  51   2.0000      -0.479228       -13.0405
  52   2.0000      -0.473479       -12.8840
  53   2.0000      -0.467181       -12.7126
  54   2.0000      -0.459147       -12.4940
  55   2.0000      -0.447043       -12.1647
  56   2.0000      -0.445862       -12.1325
  57   2.0000      -0.438290       -11.9265
  58   2.0000      -0.437221       -11.8974
  59   2.0000      -0.423778       -11.5316
  60   2.0000      -0.418944       -11.4000
  61   2.0000      -0.412575       -11.2267
  62   2.0000      -0.408600       -11.1186
  63   2.0000      -0.346062        -9.4168
  64   2.0000      -0.333345        -9.0708
  65   2.0000      -0.327264        -8.9053
  66   2.0000      -0.292063        -7.9474
  67   0.0000       0.031842         0.8665
  68   0.0000       0.076093         2.0706
  69   0.0000       0.113285         3.0827
  70   0.0000       0.121301         3.3008
  71   0.0000       0.132026         3.5926

MULLIKEN ATOMIC CHARGES
-----------------------
   0 S :    0.122758
   1 C :   -0.109849
   2 C :   -0.048313
   3 C :   -0.017576
   4 C :   -0.126856
   5 H :    0.014948
   6 C :    0.125358
   7 H :    0.012951
   8 H :    0.021430
   9 C :   -0.102255
  10 H :    0.022795
  11 H :    0.035684
  12 C :   -0.055970
  13 H :    0.030142
  14 H :    0.028244
  15 H :    0.042458
  16 S :    0.099035
  17 C :   -0.105898
  18 C :   -0.049355
  19 C :   -0.003265
  20 C :   -0.172785
  21 H :    0.032485
  22 C :    0.068281
  23 H :    0.025370
  24 H :    0.015522
  25 C :   -0.074395
  26 H :    0.032894
  27 H :    0.012998
  28 C :   -0.054954
  29 H :    0.041018
  30 H :    0.041228
  31 H :    0.025969
  32 H :    0.007516
  33 H :    0.062387
Sum of atomic charges:    0.0000000

LOEWDIN ATOMIC CHARGES
----------------------
   0 S :    0.425415
   1 C :   -0.178027
   2 C :   -0.050167
   3 C :   -0.068138
   4 C :   -0.224152
   5 H :    0.029633
   6 C :   -0.024709
   7 H :    0.030544
   8 H :    0.028516
   9 C :   -0.042196
  10 H :    0.018838
  11 H :    0.030389
  12 C :   -0.065252
  13 H :    0.024838
  14 H :    0.025263
  15 H :    0.023727
  16 S :    0.400446
  17 C :   -0.187839
  18 C :   -0.075199
  19 C :   -0.053007
  20 C :   -0.185077
  21 H :    0.036873
  22 C :   -0.024368
  23 H :    0.022482
  24 H :    0.026661
  25 C :   -0.033404
  26 H :    0.024725
  27 H :    0.009558
  28 C :   -0.066612
  29 H :    0.025980
  30 H :    0.030690
  31 H :    0.025976
  32 H :    0.005927
  33 H :    0.031666

  Mayer bond orders larger than 0.100000
B(  0-S ,  1-C ) :   1.1221 B(  0-S ,  4-C ) :   1.1687 B(  1-C ,  2-C ) :   1.6196
B(  1-C , 32-H ) :   0.9811 B(  2-C ,  3-C ) :   1.2323 B(  2-C ,  6-C ) :   1.0126
B(  3-C ,  4-C ) :   1.5529 B(  3-C ,  5-H ) :   0.9916 B(  4-C , 20-C ) :   1.0379
B(  6-C ,  7-H ) :   0.9395 B(  6-C ,  8-H ) :   0.9330 B(  6-C ,  9-C ) :   1.0785
B(  9-C , 10-H ) :   0.9607 B(  9-C , 11-H ) :   0.9605 B(  9-C , 12-C ) :   1.0594
B( 12-C , 13-H ) :   0.9776 B( 12-C , 14-H ) :   0.9743 B( 12-C , 15-H ) :   0.9801
B( 16-S , 17-C ) :   1.1462 B( 16-S , 20-C ) :   1.1548 B( 17-C , 18-C ) :   1.6329
B( 17-C , 33-H ) :   0.9643 B( 18-C , 19-C ) :   1.2145 B( 18-C , 21-H ) :   0.9823
B( 19-C , 20-C ) :   1.5826 B( 19-C , 22-C ) :   1.0504 B( 22-C , 23-H ) :   0.9327
B( 22-C , 24-H ) :   0.9243 B( 22-C , 25-C ) :   1.0615 B( 25-C , 26-H ) :   0.9639
B( 25-C , 27-H ) :   0.9526 B( 25-C , 28-C ) :   1.0681 B( 28-C , 29-H ) :   0.9749
B( 28-C , 30-H ) :   0.9741 B( 28-C , 31-H ) :   0.9808

Dispersion correction           -0.013781229
FINAL SINGLE POINT ENERGY     -1339.862853279647

DIPOLE MOMENT
-------------
                                X             Y             Z
Electronic contribution:     -5.69530      -1.00865     -28.04473
Nuclear contribution   :      6.05582       1.05826      28.68712
                        -----------------------------------------
Total Dipole Moment    :      0.36052       0.04961       0.64238
                        -----------------------------------------
Magnitude (a.u.)       :      0.73830
Magnitude (Debye)      :      1.87662

Rotational constants in cm-1:     0.018129     0.008619     0.006286
Rotational constants in MHz :   543.495364   258.384084   188.438149

                             ****ORCA TERMINATED NORMALLY****
TOTAL RUN TIME: 0 days 0 hours 0 minutes 33 seconds 769 msec
