                         Program Version 4.2.1 -  RELEASE  -
|  1> ! wB97X-D3 SP def2-SVP
|  2> %pal
|  3> nprocs 16
|  4> end
|  5>
|  6> * xyz 0 1
|  7> S 	 -28.9942 	 65.2614 	 101.393
|  8> C 	 -27.5722 	 64.3571 	 100.913
|  9> C 	 -26.6504 	 64.2678 	 101.901
| 10> C 	 -27.0203 	 65.0275 	 103.041
| 11> C 	 -28.124 	 65.7833 	 102.832
| 12> H 	 -26.5336 	 64.9548 	 104.041
| 13> C 	 -25.4803 	 63.3559 	 101.943
| 14> H 	 -25.2179 	 62.9637 	 100.901
| 15> H 	 -25.8056 	 62.4922 	 102.549
| 16> C 	 -24.1515 	 63.9369 	 102.496
| 17> H 	 -23.7676 	 64.6405 	 101.823
| 18> H 	 -24.2959 	 64.5729 	 103.459
| 19> C 	 -23.0738 	 63.0375 	 102.939
| 20> H 	 -22.5219 	 62.7267 	 102.083
| 21> H 	 -22.4457 	 63.4373 	 103.678
| 22> H 	 -23.4948 	 62.2114 	 103.44
| 23> S 	 -29.8193 	 67.9093 	 102.981
| 24> C 	 -30.1838 	 68.6751 	 104.468
| 25> C 	 -29.507 	 68.1135 	 105.488
| 26> C 	 -28.8266 	 66.8868 	 105.1
| 27> C 	 -28.8061 	 66.676 	 103.731
| 28> H 	 -29.5994 	 68.4957 	 106.452
| 29> C 	 -28.0837 	 66.2098 	 106.238
| 30> H 	 -27.9367 	 65.1749 	 105.899
| 31> H 	 -28.7845 	 66.2119 	 107.112
| 32> C 	 -26.6375 	 66.8244 	 106.469
| 33> H 	 -26.2246 	 67.0606 	 105.449
| 34> H 	 -26.0983 	 65.9645 	 106.911
| 35> C 	 -26.5725 	 68.0049 	 107.456
| 36> H 	 -27.0497 	 67.9613 	 108.453
| 37> H 	 -27.0401 	 68.8725 	 106.976
| 38> H 	 -25.4971 	 68.172 	 107.723
| 39> H 	 -27.6014 	 63.6233 	 100.148
| 40> H 	 -30.826 	 69.5415 	 104.507
| 41> *
| 42>
| 43>                          ****END OF INPUT****

CARTESIAN COORDINATES (ANGSTROEM)
---------------------------------
  S    -28.994200   65.261400  101.393000
  C    -27.572200   64.357100  100.913000
  C    -26.650400   64.267800  101.901000
  C    -27.020300   65.027500  103.041000
  C    -28.124000   65.783300  102.832000
  H    -26.533600   64.954800  104.041000
  C    -25.480300   63.355900  101.943000
  H    -25.217900   62.963700  100.901000
  H    -25.805600   62.492200  102.549000
  C    -24.151500   63.936900  102.496000
  H    -23.767600   64.640500  101.823000
  H    -24.295900   64.572900  103.459000
  C    -23.073800   63.037500  102.939000
  H    -22.521900   62.726700  102.083000
  H    -22.445700   63.437300  103.678000
  H    -23.494800   62.211400  103.440000
  S    -29.819300   67.909300  102.981000
  C    -30.183800   68.675100  104.468000
  C    -29.507000   68.113500  105.488000
  C    -28.826600   66.886800  105.100000
  C    -28.806100   66.676000  103.731000
  H    -29.599400   68.495700  106.452000
  C    -28.083700   66.209800  106.238000
  H    -27.936700   65.174900  105.899000
  H    -28.784500   66.211900  107.112000
  C    -26.637500   66.824400  106.469000
  H    -26.224600   67.060600  105.449000
  H    -26.098300   65.964500  106.911000
  C    -26.572500   68.004900  107.456000
  H    -27.049700   67.961300  108.453000
  H    -27.040100   68.872500  106.976000
  H    -25.497100   68.172000  107.723000
  H    -27.601400   63.623300  100.148000
  H    -30.826000   69.541500  104.507000

 Total Charge           Charge          ....    0
 Multiplicity           Mult            ....    1
 Number of Electrons    NEL             ....  134
 Basis Dimension        Dim             ....  322

ORBITAL ENERGIES
----------------

  NO   OCC          E(Eh)            E(eV)
   0   2.0000     -88.964171     -2420.8382
   1   2.0000     -88.958156     -2420.6745
   2   2.0000     -10.328032      -281.0400
   3   2.0000     -10.325361      -280.9674
   4   2.0000     -10.310772      -280.5704
   5   2.0000     -10.306088      -280.4429
   6   2.0000     -10.302291      -280.3396
   7   2.0000     -10.301490      -280.3178
   8   2.0000     -10.300672      -280.2955
   9   2.0000     -10.297523      -280.2099
  10   2.0000     -10.297031      -280.1965
  11   2.0000     -10.293145      -280.0907
  12   2.0000     -10.285721      -279.8887
  13   2.0000     -10.285103      -279.8719
  14   2.0000     -10.284623      -279.8588
  15   2.0000     -10.265182      -279.3298
  16   2.0000      -8.079048      -219.8421
  17   2.0000      -8.073974      -219.7040
  18   2.0000      -6.037573      -164.2907
  19   2.0000      -6.033902      -164.1908
  20   2.0000      -6.032534      -164.1536
  21   2.0000      -6.029394      -164.0681
  22   2.0000      -6.028231      -164.0365
  23   2.0000      -6.024708      -163.9406
  24   2.0000      -1.012796       -27.5596
  25   2.0000      -0.989697       -26.9310
  26   2.0000      -0.917381       -24.9632
  27   2.0000      -0.903466       -24.5846
  28   2.0000      -0.880100       -23.9488
  29   2.0000      -0.855254       -23.2726
  30   2.0000      -0.843873       -22.9629
  31   2.0000      -0.821979       -22.3672
  32   2.0000      -0.785075       -21.3630
  33   2.0000      -0.774171       -21.0663
  34   2.0000      -0.712258       -19.3815
  35   2.0000      -0.698725       -19.0133
  36   2.0000      -0.689978       -18.7752
  37   2.0000      -0.667357       -18.1597
  38   2.0000      -0.638212       -17.3666
  39   2.0000      -0.625658       -17.0250
  40   2.0000      -0.594456       -16.1760
  41   2.0000      -0.570673       -15.5288
  42   2.0000      -0.568100       -15.4588
  43   2.0000      -0.546599       -14.8737
  44   2.0000      -0.541832       -14.7440
  45   2.0000      -0.529875       -14.4186
  46   2.0000      -0.525821       -14.3083
  47   2.0000      -0.511260       -13.9121
  48   2.0000      -0.508327       -13.8323
  49   2.0000      -0.504012       -13.7149
  50   2.0000      -0.498455       -13.5637
  51   2.0000      -0.482290       -13.1238
  52   2.0000      -0.472001       -12.8438
  53   2.0000      -0.465730       -12.6732
  54   2.0000      -0.459898       -12.5145
  55   2.0000      -0.456780       -12.4296
  56   2.0000      -0.446588       -12.1523
  57   2.0000      -0.435435       -11.8488
  58   2.0000      -0.432590       -11.7714
  59   2.0000      -0.429570       -11.6892
  60   2.0000      -0.415608       -11.3093
  61   2.0000      -0.407818       -11.0973
  62   2.0000      -0.402738       -10.9590
  63   2.0000      -0.361058        -9.8249
  64   2.0000      -0.329887        -8.9767
  65   2.0000      -0.325047        -8.8450
  66   2.0000      -0.286663        -7.8005
  67   0.0000       0.024173         0.6578
  68   0.0000       0.080869         2.2005
  69   0.0000       0.098956         2.6927
  70   0.0000       0.119467         3.2509
  71   0.0000       0.127509         3.4697

MULLIKEN ATOMIC CHARGES
-----------------------
   0 S :    0.093473
   1 C :   -0.089596
   2 C :   -0.071350
   3 C :   -0.046922
   4 C :   -0.078214
   5 H :    0.029131
   6 C :    0.062097
   7 H :    0.032947
   8 H :    0.042156
   9 C :   -0.127640
  10 H :    0.020960
  11 H :    0.025728
  12 C :    0.026108
  13 H :    0.024399
  14 H :    0.021031
  15 H :    0.004598
  16 S :    0.082811
  17 C :   -0.066866
  18 C :   -0.020118
  19 C :   -0.083709
  20 C :   -0.122753
  21 H :   -0.002867
  22 C :    0.026011
  23 H :    0.023085
  24 H :    0.041874
  25 C :   -0.083753
  26 H :    0.058634
  27 H :    0.036305
  28 C :   -0.063676
  29 H :    0.034586
  30 H :    0.040330
  31 H :    0.042599
  32 H :    0.032572
  33 H :    0.056028
Sum of atomic charges:    0.0000000

LOEWDIN ATOMIC CHARGES
----------------------
   0 S :    0.393949
   1 C :   -0.190697
   2 C :   -0.064485
   3 C :   -0.068186
   4 C :   -0.176923
   5 H :    0.037602
   6 C :   -0.033572
   7 H :    0.037921
   8 H :    0.037032
   9 C :   -0.048504
  10 H :    0.017368
  11 H :    0.029843
  12 C :   -0.055735
  13 H :    0.021765
  14 H :    0.024234
  15 H :    0.020436
  16 S :    0.404037
  17 C :   -0.183444
  18 C :   -0.071688
  19 C :   -0.058696
  20 C :   -0.198270
  21 H :    0.020205
  22 C :   -0.038258
  23 H :    0.026151
  24 H :    0.036383
  25 C :   -0.040009
  26 H :    0.036514
  27 H :    0.025462
  28 C :   -0.078231
  29 H :    0.027820
  30 H :    0.026864
  31 H :    0.033505
  32 H :    0.020424
  33 H :    0.029183

  Mayer bond orders larger than 0.100000
B(  0-S ,  1-C ) :   1.1155 B(  0-S ,  4-C ) :   1.1405 B(  1-C ,  2-C ) :   1.6514
B(  1-C , 32-H ) :   0.9644 B(  2-C ,  3-C ) :   1.2163 B(  2-C ,  6-C ) :   1.0360
B(  3-C ,  4-C ) :   1.6041 B(  3-C ,  5-H ) :   0.9866 B(  4-C , 20-C ) :   1.0635
B(  6-C ,  7-H ) :   0.9404 B(  6-C ,  8-H ) :   0.9309 B(  6-C ,  9-C ) :   1.0496
B(  9-C , 10-H ) :   0.9582 B(  9-C , 11-H ) :   0.9587 B(  9-C , 12-C ) :   1.0915
B( 12-C , 13-H ) :   0.9715 B( 12-C , 14-H ) :   0.9716 B( 12-C , 15-H ) :   0.9664
B( 16-S , 17-C ) :   1.1562 B( 16-S , 20-C ) :   1.1247 B( 17-C , 18-C ) :   1.6143
B( 17-C , 33-H ) :   0.9685 B( 18-C , 19-C ) :   1.2169 B( 18-C , 21-H ) :   0.9985
B( 19-C , 20-C ) :   1.6033 B( 19-C , 22-C ) :   1.0572 B( 22-C , 23-H ) :   0.9367
B( 22-C , 24-H ) :   0.9383 B( 22-C , 25-C ) :   1.0424 B( 25-C , 26-H ) :   0.9519
B( 25-C , 27-H ) :   0.9614 B( 25-C , 28-C ) :   1.0762 B( 28-C , 29-H ) :   0.9771
B( 28-C , 30-H ) :   0.9712 B( 28-C , 31-H ) :   0.9723

Dispersion correction           -0.014288596
FINAL SINGLE POINT ENERGY     -1339.860983946110

DIPOLE MOMENT
-------------
                                X             Y             Z
Electronic contribution:    -25.49411       7.74557     -16.43510
Nuclear contribution   :     25.96368      -8.02727      17.07223
                        -----------------------------------------
Total Dipole Moment    :      0.46957      -0.28170       0.63712
                        -----------------------------------------
Magnitude (a.u.)       :      0.84011
Magnitude (Debye)      :      2.13538

Rotational constants in cm-1:     0.017504     0.009477     0.006452
Rotational constants in MHz :   524.763713   284.118312   193.411915

                             ****ORCA TERMINATED NORMALLY****
TOTAL RUN TIME: 0 days 0 hours 0 minutes 30 seconds 274 msec
