                         Program Version 4.2.1 -  RELEASE  -
|  1> ! wB97X-D3 SP def2-SVP
|  2> %pal
|  3> nprocs 16
|  4> end
|  5>
|  6> * xyz 0 1
|  7> S 	 -17.5995 	 -7.55631 	 82.2307
|  8> C 	 -17.584 	 -8.6202 	 80.8276
|  9> C 	 -17.9398 	 -9.9016 	 81.1343
| 10> C 	 -18.1078 	 -10.1458 	 82.4847
| 11> C 	 -18.0764 	 -8.92492 	 83.2328
| 12> H 	 -18.3718 	 -11.0798 	 82.968
| 13> C 	 -17.8173 	 -11.0407 	 80.146
| 14> H 	 -16.8548 	 -11.5183 	 80.4148
| 15> H 	 -17.7287 	 -10.6302 	 79.1835
| 16> C 	 -18.8695 	 -12.0965 	 80.2379
| 17> H 	 -18.6862 	 -12.493 	 81.1929
| 18> H 	 -19.8782 	 -11.6762 	 80.2706
| 19> C 	 -18.9401 	 -13.2011 	 79.1925
| 20> H 	 -18.0215 	 -13.6241 	 78.9282
| 21> H 	 -19.5916 	 -14.0773 	 79.5766
| 22> H 	 -19.4726 	 -12.9883 	 78.2915
| 23> S 	 -19.4823 	 -9.59058 	 85.5475
| 24> C 	 -18.9425 	 -8.83764 	 86.969
| 25> C 	 -17.7822 	 -8.10838 	 86.804
| 26> C 	 -17.2812 	 -8.09091 	 85.4749
| 27> C 	 -18.1606 	 -8.81701 	 84.6698
| 28> H 	 -17.3099 	 -7.62116 	 87.6347
| 29> C 	 -15.9303 	 -7.37544 	 85.1754
| 30> H 	 -15.5704 	 -7.69398 	 84.228
| 31> H 	 -15.1555 	 -7.66078 	 85.8783
| 32> C 	 -15.9111 	 -5.80889 	 85.2392
| 33> H 	 -16.3383 	 -5.48166 	 86.1737
| 34> H 	 -16.4256 	 -5.37669 	 84.3693
| 35> C 	 -14.4998 	 -5.31004 	 85.1257
| 36> H 	 -14.4014 	 -4.20524 	 85.1477
| 37> H 	 -14.0234 	 -5.81841 	 84.2803
| 38> H 	 -14.0583 	 -5.60495 	 86.1401
| 39> H 	 -17.3584 	 -8.22932 	 79.8883
| 40> H 	 -19.4661 	 -9.09574 	 87.8402
| 41> *
| 42>
| 43>                          ****END OF INPUT****

CARTESIAN COORDINATES (ANGSTROEM)
---------------------------------
  S    -17.599500   -7.556310   82.230700
  C    -17.584000   -8.620200   80.827600
  C    -17.939800   -9.901600   81.134300
  C    -18.107800  -10.145800   82.484700
  C    -18.076400   -8.924920   83.232800
  H    -18.371800  -11.079800   82.968000
  C    -17.817300  -11.040700   80.146000
  H    -16.854800  -11.518300   80.414800
  H    -17.728700  -10.630200   79.183500
  C    -18.869500  -12.096500   80.237900
  H    -18.686200  -12.493000   81.192900
  H    -19.878200  -11.676200   80.270600
  C    -18.940100  -13.201100   79.192500
  H    -18.021500  -13.624100   78.928200
  H    -19.591600  -14.077300   79.576600
  H    -19.472600  -12.988300   78.291500
  S    -19.482300   -9.590580   85.547500
  C    -18.942500   -8.837640   86.969000
  C    -17.782200   -8.108380   86.804000
  C    -17.281200   -8.090910   85.474900
  C    -18.160600   -8.817010   84.669800
  H    -17.309900   -7.621160   87.634700
  C    -15.930300   -7.375440   85.175400
  H    -15.570400   -7.693980   84.228000
  H    -15.155500   -7.660780   85.878300
  C    -15.911100   -5.808890   85.239200
  H    -16.338300   -5.481660   86.173700
  H    -16.425600   -5.376690   84.369300
  C    -14.499800   -5.310040   85.125700
  H    -14.401400   -4.205240   85.147700
  H    -14.023400   -5.818410   84.280300
  H    -14.058300   -5.604950   86.140100
  H    -17.358400   -8.229320   79.888300
  H    -19.466100   -9.095740   87.840200

 Total Charge           Charge          ....    0
 Multiplicity           Mult            ....    1
 Number of Electrons    NEL             ....  134
 Basis Dimension        Dim             ....  322

ORBITAL ENERGIES
----------------

  NO   OCC          E(Eh)            E(eV)
   0   2.0000     -88.968991     -2420.9693
   1   2.0000     -88.967666     -2420.9333
   2   2.0000     -10.329513      -281.0803
   3   2.0000     -10.324735      -280.9503
   4   2.0000     -10.309936      -280.5476
   5   2.0000     -10.305777      -280.4344
   6   2.0000     -10.304857      -280.4094
   7   2.0000     -10.294129      -280.1175
   8   2.0000     -10.293525      -280.1010
   9   2.0000     -10.291528      -280.0467
  10   2.0000     -10.290202      -280.0106
  11   2.0000     -10.283832      -279.8373
  12   2.0000     -10.283605      -279.8311
  13   2.0000     -10.283183      -279.8196
  14   2.0000     -10.278305      -279.6869
  15   2.0000     -10.276984      -279.6509
  16   2.0000      -8.083336      -219.9588
  17   2.0000      -8.082812      -219.9445
  18   2.0000      -6.041624      -164.4009
  19   2.0000      -6.041170      -164.3886
  20   2.0000      -6.037806      -164.2971
  21   2.0000      -6.037484      -164.2883
  22   2.0000      -6.034196      -164.1988
  23   2.0000      -6.033784      -164.1876
  24   2.0000      -1.007399       -27.4127
  25   2.0000      -0.986424       -26.8420
  26   2.0000      -0.917412       -24.9640
  27   2.0000      -0.910080       -24.7645
  28   2.0000      -0.869789       -23.6681
  29   2.0000      -0.857290       -23.3280
  30   2.0000      -0.849672       -23.1207
  31   2.0000      -0.808852       -22.0100
  32   2.0000      -0.785339       -21.3702
  33   2.0000      -0.773742       -21.0546
  34   2.0000      -0.710770       -19.3410
  35   2.0000      -0.693490       -18.8708
  36   2.0000      -0.689021       -18.7492
  37   2.0000      -0.667456       -18.1624
  38   2.0000      -0.639234       -17.3944
  39   2.0000      -0.619034       -16.8448
  40   2.0000      -0.606367       -16.5001
  41   2.0000      -0.576455       -15.6861
  42   2.0000      -0.572502       -15.5786
  43   2.0000      -0.555214       -15.1082
  44   2.0000      -0.533117       -14.5069
  45   2.0000      -0.524562       -14.2741
  46   2.0000      -0.517136       -14.0720
  47   2.0000      -0.512358       -13.9420
  48   2.0000      -0.506426       -13.7806
  49   2.0000      -0.491982       -13.3875
  50   2.0000      -0.490727       -13.3534
  51   2.0000      -0.480926       -13.0867
  52   2.0000      -0.470716       -12.8088
  53   2.0000      -0.467234       -12.7141
  54   2.0000      -0.462233       -12.5780
  55   2.0000      -0.452880       -12.3235
  56   2.0000      -0.442342       -12.0367
  57   2.0000      -0.435010       -11.8372
  58   2.0000      -0.434098       -11.8124
  59   2.0000      -0.431959       -11.7542
  60   2.0000      -0.423755       -11.5310
  61   2.0000      -0.413044       -11.2395
  62   2.0000      -0.409850       -11.1526
  63   2.0000      -0.345473        -9.4008
  64   2.0000      -0.335349        -9.1253
  65   2.0000      -0.334290        -9.0965
  66   2.0000      -0.282345        -7.6830
  67   0.0000       0.024808         0.6751
  68   0.0000       0.077855         2.1185
  69   0.0000       0.104095         2.8326
  70   0.0000       0.113654         3.0927
  71   0.0000       0.135181         3.6785

MULLIKEN ATOMIC CHARGES
-----------------------
   0 S :    0.108483
   1 C :   -0.127782
   2 C :   -0.039506
   3 C :   -0.011898
   4 C :   -0.154092
   5 H :    0.021504
   6 C :    0.113132
   7 H :    0.039192
   8 H :   -0.003619
   9 C :   -0.081965
  10 H :    0.014834
  11 H :    0.028861
  12 C :   -0.027718
  13 H :    0.014042
  14 H :    0.032232
  15 H :    0.026214
  16 S :    0.121211
  17 C :   -0.079623
  18 C :   -0.018223
  19 C :   -0.007978
  20 C :   -0.174553
  21 H :    0.009125
  22 C :    0.064687
  23 H :    0.011189
  24 H :    0.020633
  25 C :   -0.059649
  26 H :    0.025398
  27 H :    0.031090
  28 C :   -0.075850
  29 H :    0.045884
  30 H :    0.044666
  31 H :    0.026971
  32 H :    0.022982
  33 H :    0.040125
Sum of atomic charges:   -0.0000000

LOEWDIN ATOMIC CHARGES
----------------------
   0 S :    0.414976
   1 C :   -0.188587
   2 C :   -0.061910
   3 C :   -0.066974
   4 C :   -0.178501
   5 H :    0.030164
   6 C :   -0.022766
   7 H :    0.039635
   8 H :    0.016825
   9 C :   -0.045234
  10 H :    0.016962
  11 H :    0.028679
  12 C :   -0.063514
  13 H :    0.013488
  14 H :    0.039430
  15 H :    0.021872
  16 S :    0.425327
  17 C :   -0.191228
  18 C :   -0.065623
  19 C :   -0.052691
  20 C :   -0.200300
  21 H :    0.026856
  22 C :   -0.026417
  23 H :    0.015341
  24 H :    0.030915
  25 C :   -0.039279
  26 H :    0.018927
  27 H :    0.020446
  28 C :   -0.070499
  29 H :    0.030035
  30 H :    0.027812
  31 H :    0.028391
  32 H :    0.012167
  33 H :    0.015274

  Mayer bond orders larger than 0.100000
B(  0-S ,  1-C ) :   1.1346 B(  0-S ,  4-C ) :   1.1715 B(  1-C ,  2-C ) :   1.5824
B(  1-C ,  4-C ) :   0.1040 B(  1-C , 32-H ) :   0.9783 B(  2-C ,  3-C ) :   1.2658
B(  2-C ,  6-C ) :   1.0340 B(  3-C ,  4-C ) :   1.5291 B(  3-C ,  5-H ) :   0.9860
B(  4-C , 20-C ) :   1.0624 B(  6-C ,  7-H ) :   0.9334 B(  6-C ,  8-H ) :   0.9386
B(  6-C ,  9-C ) :   1.0565 B(  9-C , 10-H ) :   0.9505 B(  9-C , 11-H ) :   0.9596
B(  9-C , 12-C ) :   1.0930 B( 12-C , 13-H ) :   0.9733 B( 12-C , 14-H ) :   0.9719
B( 12-C , 15-H ) :   0.9750 B( 16-S , 17-C ) :   1.1661 B( 16-S , 20-C ) :   1.1538
B( 17-C , 18-C ) :   1.5774 B( 17-C , 33-H ) :   0.9781 B( 18-C , 19-C ) :   1.2483
B( 18-C , 21-H ) :   0.9955 B( 19-C , 20-C ) :   1.5678 B( 19-C , 22-C ) :   1.0310
B( 22-C , 23-H ) :   0.9259 B( 22-C , 24-H ) :   0.9413 B( 22-C , 25-C ) :   1.0615
B( 25-C , 26-H ) :   0.9588 B( 25-C , 27-H ) :   0.9508 B( 25-C , 28-C ) :   1.0822
B( 28-C , 29-H ) :   0.9723 B( 28-C , 30-H ) :   0.9726 B( 28-C , 31-H ) :   0.9740

Dispersion correction           -0.013666135
FINAL SINGLE POINT ENERGY     -1339.871773894779

DIPOLE MOMENT
-------------
                                X             Y             Z
Electronic contribution:    -10.41871       3.98670       9.08420
Nuclear contribution   :     10.69850      -4.14009      -9.07458
                        -----------------------------------------
Total Dipole Moment    :      0.27979      -0.15339       0.00962
                        -----------------------------------------
Magnitude (a.u.)       :      0.31922
Magnitude (Debye)      :      0.81140

Rotational constants in cm-1:     0.021072     0.007759     0.006029
Rotational constants in MHz :   631.709971   232.600242   180.730861

                             ****ORCA TERMINATED NORMALLY****
TOTAL RUN TIME: 0 days 0 hours 0 minutes 32 seconds 224 msec
