                         Program Version 4.2.1 -  RELEASE  -
|  1> ! wB97X-D3 SP def2-SVP
|  2> %pal
|  3> nprocs 16
|  4> end
|  5>
|  6> * xyz 0 1
|  7> S 	 -117.124 	 46.8979 	 132.904
|  8> C 	 -117.173 	 46.6974 	 134.73
|  9> C 	 -115.971 	 46.2632 	 135.2
| 10> C 	 -115.036 	 46.0456 	 134.097
| 11> C 	 -115.554 	 46.2017 	 132.774
| 12> H 	 -114.041 	 45.6496 	 134.168
| 13> C 	 -115.635 	 46.0101 	 136.705
| 14> H 	 -115.396 	 44.9178 	 136.88
| 15> H 	 -116.591 	 46.1611 	 137.156
| 16> C 	 -114.688 	 47.0248 	 137.374
| 17> H 	 -114.803 	 46.9016 	 138.465
| 18> H 	 -113.627 	 46.8986 	 137.006
| 19> C 	 -114.975 	 48.4639 	 137.119
| 20> H 	 -114.087 	 49.0317 	 137.376
| 21> H 	 -115.09 	 48.5699 	 135.98
| 22> H 	 -115.966 	 48.8809 	 137.52
| 23> S 	 -115.673 	 45.0964 	 130.316
| 24> C 	 -114.159 	 45.0108 	 129.473
| 25> C 	 -113.29 	 46.0179 	 129.797
| 26> C 	 -113.726 	 46.533 	 131.013
| 27> C 	 -114.89 	 45.9949 	 131.495
| 28> H 	 -112.411 	 46.3396 	 129.312
| 29> C 	 -112.894 	 47.5283 	 131.83
| 30> H 	 -112.098 	 46.9283 	 132.274
| 31> H 	 -113.52 	 47.9386 	 132.634
| 32> C 	 -112.132 	 48.5614 	 130.898
| 33> H 	 -111.441 	 48.063 	 130.276
| 34> H 	 -111.703 	 49.259 	 131.615
| 35> C 	 -113.046 	 49.4013 	 129.926
| 36> H 	 -113.294 	 48.7822 	 129.04
| 37> H 	 -112.644 	 50.3621 	 129.54
| 38> H 	 -113.902 	 49.8444 	 130.431
| 39> H 	 -118.033 	 46.863 	 135.435
| 40> H 	 -114.12 	 44.3821 	 128.648
| 41> *
| 42>
| 43>                          ****END OF INPUT****

CARTESIAN COORDINATES (ANGSTROEM)
---------------------------------
  S    -117.124000   46.897900  132.904000
  C    -117.173000   46.697400  134.730000
  C    -115.971000   46.263200  135.200000
  C    -115.036000   46.045600  134.097000
  C    -115.554000   46.201700  132.774000
  H    -114.041000   45.649600  134.168000
  C    -115.635000   46.010100  136.705000
  H    -115.396000   44.917800  136.880000
  H    -116.591000   46.161100  137.156000
  C    -114.688000   47.024800  137.374000
  H    -114.803000   46.901600  138.465000
  H    -113.627000   46.898600  137.006000
  C    -114.975000   48.463900  137.119000
  H    -114.087000   49.031700  137.376000
  H    -115.090000   48.569900  135.980000
  H    -115.966000   48.880900  137.520000
  S    -115.673000   45.096400  130.316000
  C    -114.159000   45.010800  129.473000
  C    -113.290000   46.017900  129.797000
  C    -113.726000   46.533000  131.013000
  C    -114.890000   45.994900  131.495000
  H    -112.411000   46.339600  129.312000
  C    -112.894000   47.528300  131.830000
  H    -112.098000   46.928300  132.274000
  H    -113.520000   47.938600  132.634000
  C    -112.132000   48.561400  130.898000
  H    -111.441000   48.063000  130.276000
  H    -111.703000   49.259000  131.615000
  C    -113.046000   49.401300  129.926000
  H    -113.294000   48.782200  129.040000
  H    -112.644000   50.362100  129.540000
  H    -113.902000   49.844400  130.431000
  H    -118.033000   46.863000  135.435000
  H    -114.120000   44.382100  128.648000

 Total Charge           Charge          ....    0
 Multiplicity           Mult            ....    1
 Number of Electrons    NEL             ....  134
 Basis Dimension        Dim             ....  322

ORBITAL ENERGIES
----------------

  NO   OCC          E(Eh)            E(eV)
   0   2.0000     -88.964662     -2420.8515
   1   2.0000     -88.964269     -2420.8408
   2   2.0000     -10.332007      -281.1482
   3   2.0000     -10.320780      -280.8427
   4   2.0000     -10.314511      -280.6721
   5   2.0000     -10.313896      -280.6554
   6   2.0000     -10.306451      -280.4528
   7   2.0000     -10.300240      -280.2838
   8   2.0000     -10.295553      -280.1562
   9   2.0000     -10.295296      -280.1492
  10   2.0000     -10.292541      -280.0743
  11   2.0000     -10.292446      -280.0717
  12   2.0000     -10.292245      -280.0662
  13   2.0000     -10.292058      -280.0611
  14   2.0000     -10.282151      -279.7915
  15   2.0000     -10.279979      -279.7325
  16   2.0000      -8.081378      -219.9055
  17   2.0000      -8.078544      -219.8284
  18   2.0000      -6.039523      -164.3438
  19   2.0000      -6.037279      -164.2827
  20   2.0000      -6.035987      -164.2476
  21   2.0000      -6.033180      -164.1712
  22   2.0000      -6.031921      -164.1369
  23   2.0000      -6.029085      -164.0598
  24   2.0000      -1.020938       -27.7811
  25   2.0000      -0.980348       -26.6766
  26   2.0000      -0.913102       -24.8468
  27   2.0000      -0.904226       -24.6052
  28   2.0000      -0.874238       -23.7892
  29   2.0000      -0.848525       -23.0895
  30   2.0000      -0.838758       -22.8238
  31   2.0000      -0.808296       -21.9948
  32   2.0000      -0.784260       -21.3408
  33   2.0000      -0.774027       -21.0623
  34   2.0000      -0.706075       -19.2133
  35   2.0000      -0.701174       -19.0799
  36   2.0000      -0.683875       -18.6092
  37   2.0000      -0.668027       -18.1779
  38   2.0000      -0.632380       -17.2079
  39   2.0000      -0.611810       -16.6482
  40   2.0000      -0.605303       -16.4711
  41   2.0000      -0.567678       -15.4473
  42   2.0000      -0.555473       -15.1152
  43   2.0000      -0.553966       -15.0742
  44   2.0000      -0.544507       -14.8168
  45   2.0000      -0.537831       -14.6351
  46   2.0000      -0.526260       -14.3203
  47   2.0000      -0.507899       -13.8206
  48   2.0000      -0.502559       -13.6753
  49   2.0000      -0.488870       -13.3028
  50   2.0000      -0.483926       -13.1683
  51   2.0000      -0.477196       -12.9852
  52   2.0000      -0.470565       -12.8047
  53   2.0000      -0.467773       -12.7288
  54   2.0000      -0.456838       -12.4312
  55   2.0000      -0.450160       -12.2495
  56   2.0000      -0.444313       -12.0904
  57   2.0000      -0.436095       -11.8667
  58   2.0000      -0.431797       -11.7498
  59   2.0000      -0.427434       -11.6311
  60   2.0000      -0.418249       -11.3811
  61   2.0000      -0.407207       -11.0807
  62   2.0000      -0.403938       -10.9917
  63   2.0000      -0.348448        -9.4818
  64   2.0000      -0.332829        -9.0567
  65   2.0000      -0.322771        -8.7831
  66   2.0000      -0.291030        -7.9193
  67   0.0000       0.030699         0.8354
  68   0.0000       0.061059         1.6615
  69   0.0000       0.103055         2.8043
  70   0.0000       0.122536         3.3344
  71   0.0000       0.126038         3.4297

MULLIKEN ATOMIC CHARGES
-----------------------
   0 S :    0.094284
   1 C :   -0.143726
   2 C :   -0.113718
   3 C :    0.022205
   4 C :   -0.160171
   5 H :    0.002490
   6 C :    0.095392
   7 H :    0.057436
   8 H :   -0.003123
   9 C :   -0.080103
  10 H :    0.041916
  11 H :    0.041421
  12 C :   -0.098573
  13 H :    0.041468
  14 H :    0.047128
  15 H :    0.042687
  16 S :    0.122787
  17 C :   -0.059988
  18 C :    0.002633
  19 C :   -0.051946
  20 C :   -0.168477
  21 H :    0.002011
  22 C :    0.074862
  23 H :    0.039248
  24 H :    0.045266
  25 C :   -0.074846
  26 H :    0.027952
  27 H :    0.037434
  28 C :   -0.078618
  29 H :    0.042329
  30 H :    0.029958
  31 H :    0.032681
  32 H :    0.063783
  33 H :    0.025917
Sum of atomic charges:   -0.0000000

LOEWDIN ATOMIC CHARGES
----------------------
   0 S :    0.377266
   1 C :   -0.188959
   2 C :   -0.064298
   3 C :   -0.075438
   4 C :   -0.195072
   5 H :    0.022528
   6 C :   -0.030706
   7 H :    0.042293
   8 H :    0.023479
   9 C :   -0.050216
  10 H :    0.030321
  11 H :    0.031548
  12 C :   -0.080137
  13 H :    0.027640
  14 H :    0.033709
  15 H :    0.029534
  16 S :    0.444033
  17 C :   -0.155913
  18 C :   -0.059899
  19 C :   -0.052589
  20 C :   -0.237792
  21 H :    0.028100
  22 C :   -0.027330
  23 H :    0.034158
  24 H :    0.032150
  25 C :   -0.033312
  26 H :    0.014792
  27 H :    0.029034
  28 C :   -0.079307
  29 H :    0.027130
  30 H :    0.028730
  31 H :    0.026774
  32 H :    0.040765
  33 H :    0.006984

  Mayer bond orders larger than 0.100000
B(  0-S ,  1-C ) :   1.1068 B(  0-S ,  4-C ) :   1.1547 B(  1-C ,  2-C ) :   1.6548
B(  1-C , 32-H ) :   0.9539 B(  2-C ,  3-C ) :   1.2021 B(  2-C ,  6-C ) :   1.0117
B(  3-C ,  4-C ) :   1.5819 B(  3-C ,  5-H ) :   0.9992 B(  4-C , 20-C ) :   1.0373
B(  6-C ,  7-H ) :   0.9472 B(  6-C ,  8-H ) :   0.9303 B(  6-C ,  9-C ) :   1.0616
B(  9-C , 10-H ) :   0.9558 B(  9-C , 11-H ) :   0.9563 B(  9-C , 12-C ) :   1.0827
B( 12-C , 13-H ) :   0.9717 B( 12-C , 14-H ) :   0.9657 B( 12-C , 15-H ) :   0.9726
B( 16-S , 17-C ) :   1.1919 B( 16-S , 20-C ) :   1.1442 B( 17-C , 18-C ) :   1.5473
B( 17-C , 20-C ) :   0.1038 B( 17-C , 33-H ) :   0.9805 B( 18-C , 19-C ) :   1.2621
B( 18-C , 21-H ) :   1.0068 B( 19-C , 20-C ) :   1.5796 B( 19-C , 22-C ) :   1.0299
B( 22-C , 23-H ) :   0.9359 B( 22-C , 24-H ) :   0.9347 B( 22-C , 25-C ) :   1.0638
B( 25-C , 26-H ) :   0.9561 B( 25-C , 27-H ) :   0.9577 B( 25-C , 28-C ) :   1.0736
B( 28-C , 29-H ) :   0.9739 B( 28-C , 30-H ) :   0.9757 B( 28-C , 31-H ) :   0.9760

Dispersion correction           -0.014775502
FINAL SINGLE POINT ENERGY     -1339.843869266609

DIPOLE MOMENT
-------------
                                X             Y             Z
Electronic contribution:    -15.02853     -14.57028     -13.98232
Nuclear contribution   :     15.59358      14.69942      14.21428
                        -----------------------------------------
Total Dipole Moment    :      0.56504       0.12914       0.23196
                        -----------------------------------------
Magnitude (a.u.)       :      0.62430
Magnitude (Debye)      :      1.58686

Rotational constants in cm-1:     0.020370     0.008512     0.006991
Rotational constants in MHz :   610.673500   255.180004   209.586464

                             ****ORCA TERMINATED NORMALLY****
TOTAL RUN TIME: 0 days 0 hours 0 minutes 34 seconds 564 msec
