                         Program Version 4.2.1 -  RELEASE  -
|  1> ! wB97X-D3 SP def2-SVP
|  2> %pal
|  3> nprocs 16
|  4> end
|  5>
|  6> * xyz 0 1
|  7> S 	 -100.723 	 52.6687 	 115.153
|  8> C 	 -100.276 	 52.0381 	 113.559
|  9> C 	 -101.188 	 52.4293 	 112.604
| 10> C 	 -102.256 	 53.1838 	 113.183
| 11> C 	 -102.159 	 53.3694 	 114.581
| 12> H 	 -102.995 	 53.7224 	 112.621
| 13> C 	 -100.993 	 52.1076 	 111.141
| 14> H 	 -100.086 	 51.5475 	 111.056
| 15> H 	 -100.904 	 53.0744 	 110.603
| 16> C 	 -102.177 	 51.4822 	 110.342
| 17> H 	 -101.888 	 51.4734 	 109.276
| 18> H 	 -102.31 	 50.4334 	 110.603
| 19> C 	 -103.597 	 52.0197 	 110.512
| 20> H 	 -104.289 	 51.458 	 109.84
| 21> H 	 -103.978 	 52.1227 	 111.536
| 22> H 	 -103.561 	 53.0413 	 110.013
| 23> S 	 -102.287 	 55.282 	 116.477
| 24> C 	 -103.833 	 55.883 	 116.987
| 25> C 	 -104.919 	 55.1867 	 116.564
| 26> C 	 -104.408 	 54.0995 	 115.768
| 27> C 	 -103.061 	 54.1312 	 115.428
| 28> H 	 -105.917 	 55.3526 	 116.932
| 29> C 	 -105.326 	 53.0099 	 115.184
| 30> H 	 -105.212 	 52.2278 	 115.886
| 31> H 	 -104.882 	 52.6208 	 114.24
| 32> C 	 -106.843 	 53.2388 	 114.999
| 33> H 	 -107.342 	 53.5893 	 115.878
| 34> H 	 -107.421 	 52.2436 	 114.883
| 35> C 	 -107.051 	 54.2096 	 113.837
| 36> H 	 -106.427 	 53.9515 	 112.872
| 37> H 	 -106.788 	 55.2037 	 114.21
| 38> H 	 -108.094 	 54.15 	 113.483
| 39> H 	 -99.4433 	 51.3639 	 113.296
| 40> H 	 -103.929 	 56.7097 	 117.7
| 41> *
| 42>
| 43>                          ****END OF INPUT****

CARTESIAN COORDINATES (ANGSTROEM)
---------------------------------
  S    -100.723000   52.668700  115.153000
  C    -100.276000   52.038100  113.559000
  C    -101.188000   52.429300  112.604000
  C    -102.256000   53.183800  113.183000
  C    -102.159000   53.369400  114.581000
  H    -102.995000   53.722400  112.621000
  C    -100.993000   52.107600  111.141000
  H    -100.086000   51.547500  111.056000
  H    -100.904000   53.074400  110.603000
  C    -102.177000   51.482200  110.342000
  H    -101.888000   51.473400  109.276000
  H    -102.310000   50.433400  110.603000
  C    -103.597000   52.019700  110.512000
  H    -104.289000   51.458000  109.840000
  H    -103.978000   52.122700  111.536000
  H    -103.561000   53.041300  110.013000
  S    -102.287000   55.282000  116.477000
  C    -103.833000   55.883000  116.987000
  C    -104.919000   55.186700  116.564000
  C    -104.408000   54.099500  115.768000
  C    -103.061000   54.131200  115.428000
  H    -105.917000   55.352600  116.932000
  C    -105.326000   53.009900  115.184000
  H    -105.212000   52.227800  115.886000
  H    -104.882000   52.620800  114.240000
  C    -106.843000   53.238800  114.999000
  H    -107.342000   53.589300  115.878000
  H    -107.421000   52.243600  114.883000
  C    -107.051000   54.209600  113.837000
  H    -106.427000   53.951500  112.872000
  H    -106.788000   55.203700  114.210000
  H    -108.094000   54.150000  113.483000
  H    -99.443300   51.363900  113.296000
  H    -103.929000   56.709700  117.700000

 Total Charge           Charge          ....    0
 Multiplicity           Mult            ....    1
 Number of Electrons    NEL             ....  134
 Basis Dimension        Dim             ....  322

ORBITAL ENERGIES
----------------

  NO   OCC          E(Eh)            E(eV)
   0   2.0000     -88.968697     -2420.9613
   1   2.0000     -88.963350     -2420.8158
   2   2.0000     -10.331683      -281.1394
   3   2.0000     -10.324415      -280.9416
   4   2.0000     -10.317940      -280.7654
   5   2.0000     -10.314878      -280.6821
   6   2.0000     -10.309471      -280.5350
   7   2.0000     -10.300941      -280.3028
   8   2.0000     -10.296501      -280.1820
   9   2.0000     -10.296404      -280.1794
  10   2.0000     -10.293288      -280.0946
  11   2.0000     -10.292115      -280.0627
  12   2.0000     -10.289648      -279.9955
  13   2.0000     -10.287532      -279.9380
  14   2.0000     -10.286544      -279.9111
  15   2.0000     -10.285520      -279.8832
  16   2.0000      -8.083751      -219.9700
  17   2.0000      -8.079032      -219.8416
  18   2.0000      -6.042232      -164.4175
  19   2.0000      -6.038079      -164.3045
  20   2.0000      -6.037472      -164.2880
  21   2.0000      -6.034651      -164.2112
  22   2.0000      -6.033499      -164.1798
  23   2.0000      -6.029713      -164.0768
  24   2.0000      -1.012563       -27.5532
  25   2.0000      -0.988652       -26.9026
  26   2.0000      -0.912689       -24.8355
  27   2.0000      -0.904625       -24.6161
  28   2.0000      -0.874272       -23.7901
  29   2.0000      -0.846398       -23.0317
  30   2.0000      -0.844352       -22.9760
  31   2.0000      -0.818233       -22.2653
  32   2.0000      -0.786690       -21.4069
  33   2.0000      -0.768709       -20.9176
  34   2.0000      -0.707492       -19.2518
  35   2.0000      -0.693829       -18.8801
  36   2.0000      -0.693478       -18.8705
  37   2.0000      -0.658481       -17.9182
  38   2.0000      -0.637579       -17.3494
  39   2.0000      -0.618577       -16.8323
  40   2.0000      -0.594660       -16.1815
  41   2.0000      -0.577311       -15.7094
  42   2.0000      -0.554930       -15.1004
  43   2.0000      -0.554346       -15.0845
  44   2.0000      -0.540769       -14.7151
  45   2.0000      -0.533987       -14.5305
  46   2.0000      -0.516558       -14.0562
  47   2.0000      -0.511342       -13.9143
  48   2.0000      -0.503641       -13.7048
  49   2.0000      -0.495534       -13.4842
  50   2.0000      -0.490725       -13.3533
  51   2.0000      -0.484814       -13.1925
  52   2.0000      -0.475727       -12.9452
  53   2.0000      -0.457698       -12.4546
  54   2.0000      -0.455621       -12.3981
  55   2.0000      -0.450716       -12.2646
  56   2.0000      -0.444555       -12.0969
  57   2.0000      -0.441075       -12.0023
  58   2.0000      -0.433778       -11.8037
  59   2.0000      -0.425846       -11.5879
  60   2.0000      -0.421101       -11.4587
  61   2.0000      -0.406586       -11.0638
  62   2.0000      -0.404367       -11.0034
  63   2.0000      -0.349384        -9.5072
  64   2.0000      -0.329800        -8.9743
  65   2.0000      -0.328747        -8.9457
  66   2.0000      -0.290003        -7.8914
  67   0.0000       0.031697         0.8625
  68   0.0000       0.067813         1.8453
  69   0.0000       0.108355         2.9485
  70   0.0000       0.117111         3.1868
  71   0.0000       0.127020         3.4564

MULLIKEN ATOMIC CHARGES
-----------------------
   0 S :    0.120092
   1 C :   -0.143329
   2 C :   -0.087330
   3 C :    0.019395
   4 C :   -0.143335
   5 H :    0.011934
   6 C :    0.102002
   7 H :    0.014808
   8 H :    0.038022
   9 C :   -0.092933
  10 H :    0.034978
  11 H :    0.024765
  12 C :   -0.095737
  13 H :    0.043842
  14 H :    0.063445
  15 H :    0.027506
  16 S :    0.098986
  17 C :   -0.074227
  18 C :   -0.022043
  19 C :   -0.059041
  20 C :   -0.156295
  21 H :    0.024447
  22 C :    0.065446
  23 H :    0.024530
  24 H :    0.030458
  25 C :   -0.078949
  26 H :    0.016526
  27 H :    0.035929
  28 C :   -0.076374
  29 H :    0.042530
  30 H :    0.042871
  31 H :    0.037700
  32 H :    0.054463
  33 H :    0.054917
Sum of atomic charges:   -0.0000000

LOEWDIN ATOMIC CHARGES
----------------------
   0 S :    0.423692
   1 C :   -0.204623
   2 C :   -0.062210
   3 C :   -0.069569
   4 C :   -0.210310
   5 H :    0.026930
   6 C :   -0.028168
   7 H :    0.028437
   8 H :    0.039657
   9 C :   -0.047048
  10 H :    0.028666
  11 H :    0.019406
  12 C :   -0.075662
  13 H :    0.033826
  14 H :    0.026388
  15 H :    0.026654
  16 S :    0.410617
  17 C :   -0.173621
  18 C :   -0.077619
  19 C :   -0.043798
  20 C :   -0.211022
  21 H :    0.036417
  22 C :   -0.035318
  23 H :    0.029328
  24 H :    0.032730
  25 C :   -0.051400
  26 H :    0.016528
  27 H :    0.034235
  28 C :   -0.073224
  29 H :    0.034639
  30 H :    0.026099
  31 H :    0.025251
  32 H :    0.035626
  33 H :    0.028467

  Mayer bond orders larger than 0.100000
B(  0-S ,  1-C ) :   1.1299 B(  0-S ,  4-C ) :   1.1782 B(  1-C ,  2-C ) :   1.6069
B(  1-C , 32-H ) :   0.9620 B(  2-C ,  3-C ) :   1.2542 B(  2-C ,  6-C ) :   1.0325
B(  3-C ,  4-C ) :   1.5350 B(  3-C ,  5-H ) :   0.9914 B(  4-C , 20-C ) :   1.0391
B(  6-C ,  7-H ) :   0.9384 B(  6-C ,  8-H ) :   0.9340 B(  6-C ,  9-C ) :   1.0572
B(  9-C , 10-H ) :   0.9570 B(  9-C , 11-H ) :   0.9544 B(  9-C , 12-C ) :   1.0855
B( 12-C , 13-H ) :   0.9680 B( 12-C , 14-H ) :   0.9644 B( 12-C , 15-H ) :   0.9732
B( 16-S , 17-C ) :   1.1759 B( 16-S , 20-C ) :   1.1165 B( 17-C , 18-C ) :   1.6135
B( 17-C , 33-H ) :   0.9584 B( 18-C , 19-C ) :   1.2229 B( 18-C , 21-H ) :   0.9938
B( 19-C , 20-C ) :   1.6127 B( 19-C , 22-C ) :   1.0164 B( 22-C , 23-H ) :   0.9191
B( 22-C , 24-H ) :   0.9459 B( 22-C , 25-C ) :   1.0833 B( 25-C , 26-H ) :   0.9459
B( 25-C , 27-H ) :   0.9542 B( 25-C , 28-C ) :   1.0665 B( 28-C , 29-H ) :   0.9760
B( 28-C , 30-H ) :   0.9747 B( 28-C , 31-H ) :   0.9748

Dispersion correction           -0.014720144
FINAL SINGLE POINT ENERGY     -1339.867750705920

DIPOLE MOMENT
-------------
                                X             Y             Z
Electronic contribution:     19.83865       7.39271      21.40481
Nuclear contribution   :    -20.30036      -7.55310     -21.72804
                        -----------------------------------------
Total Dipole Moment    :     -0.46171      -0.16039      -0.32323
                        -----------------------------------------
Magnitude (a.u.)       :      0.58598
Magnitude (Debye)      :      1.48946

Rotational constants in cm-1:     0.017313     0.010101     0.006934
Rotational constants in MHz :   519.026003   302.826269   207.874332

                             ****ORCA TERMINATED NORMALLY****
TOTAL RUN TIME: 0 days 0 hours 0 minutes 35 seconds 535 msec
