                         Program Version 4.2.1 -  RELEASE  -
|  1> ! wB97X-D3 SP def2-SVP
|  2> %pal
|  3> nprocs 16
|  4> end
|  5>
|  6> * xyz 0 1
|  7> S 	 -41.4766 	 24.9115 	 77.8503
|  8> C 	 -42.5781 	 25.2185 	 79.187
|  9> C 	 -42.3251 	 24.3457 	 80.1936
| 10> C 	 -41.1231 	 23.5471 	 79.983
| 11> C 	 -40.5653 	 23.6943 	 78.7371
| 12> H 	 -40.6776 	 22.7988 	 80.6174
| 13> C 	 -43.2753 	 24.0225 	 81.3048
| 14> H 	 -43.6264 	 24.9469 	 81.6385
| 15> H 	 -42.7665 	 23.6329 	 82.1628
| 16> C 	 -44.3393 	 22.9821 	 80.9388
| 17> H 	 -44.988 	 22.9349 	 81.7943
| 18> H 	 -44.9176 	 23.2976 	 80.0321
| 19> C 	 -43.73 	 21.6607 	 80.4515
| 20> H 	 -43.201 	 21.8605 	 79.5051
| 21> H 	 -42.9355 	 21.41 	 81.1324
| 22> H 	 -44.3652 	 20.8049 	 80.2773
| 23> S 	 -39.576 	 22.0309 	 76.6934
| 24> C 	 -37.9141 	 21.514 	 76.8607
| 25> C 	 -37.3113 	 22.0346 	 78.0007
| 26> C 	 -38.1159 	 23.0264 	 78.6276
| 27> C 	 -39.3835 	 23.0288 	 78.1253
| 28> H 	 -36.2937 	 21.7021 	 78.1957
| 29> C 	 -37.6694 	 23.8377 	 79.8533
| 30> H 	 -36.8757 	 23.278 	 80.3624
| 31> H 	 -38.4653 	 23.952 	 80.551
| 32> C 	 -37.0061 	 25.1953 	 79.4766
| 33> H 	 -37.5404 	 25.6883 	 78.6892
| 34> H 	 -36.091 	 24.9485 	 78.8836
| 35> C 	 -36.7763 	 26.0873 	 80.7252
| 36> H 	 -35.8868 	 26.7279 	 80.5606
| 37> H 	 -36.6208 	 25.4198 	 81.6136
| 38> H 	 -37.6057 	 26.7522 	 80.9025
| 39> H 	 -43.4439 	 25.8524 	 79.1554
| 40> H 	 -37.3927 	 20.7005 	 76.3614
| 41> *
| 42>
| 43>                          ****END OF INPUT****

CARTESIAN COORDINATES (ANGSTROEM)
---------------------------------
  S    -41.476600   24.911500   77.850300
  C    -42.578100   25.218500   79.187000
  C    -42.325100   24.345700   80.193600
  C    -41.123100   23.547100   79.983000
  C    -40.565300   23.694300   78.737100
  H    -40.677600   22.798800   80.617400
  C    -43.275300   24.022500   81.304800
  H    -43.626400   24.946900   81.638500
  H    -42.766500   23.632900   82.162800
  C    -44.339300   22.982100   80.938800
  H    -44.988000   22.934900   81.794300
  H    -44.917600   23.297600   80.032100
  C    -43.730000   21.660700   80.451500
  H    -43.201000   21.860500   79.505100
  H    -42.935500   21.410000   81.132400
  H    -44.365200   20.804900   80.277300
  S    -39.576000   22.030900   76.693400
  C    -37.914100   21.514000   76.860700
  C    -37.311300   22.034600   78.000700
  C    -38.115900   23.026400   78.627600
  C    -39.383500   23.028800   78.125300
  H    -36.293700   21.702100   78.195700
  C    -37.669400   23.837700   79.853300
  H    -36.875700   23.278000   80.362400
  H    -38.465300   23.952000   80.551000
  C    -37.006100   25.195300   79.476600
  H    -37.540400   25.688300   78.689200
  H    -36.091000   24.948500   78.883600
  C    -36.776300   26.087300   80.725200
  H    -35.886800   26.727900   80.560600
  H    -36.620800   25.419800   81.613600
  H    -37.605700   26.752200   80.902500
  H    -43.443900   25.852400   79.155400
  H    -37.392700   20.700500   76.361400

 Total Charge           Charge          ....    0
 Multiplicity           Mult            ....    1
 Number of Electrons    NEL             ....  134
 Basis Dimension        Dim             ....  322

ORBITAL ENERGIES
----------------

  NO   OCC          E(Eh)            E(eV)
   0   2.0000     -88.971264     -2421.0312
   1   2.0000     -88.961165     -2420.7564
   2   2.0000     -10.330940      -281.1192
   3   2.0000     -10.326938      -281.0103
   4   2.0000     -10.317962      -280.7660
   5   2.0000     -10.311998      -280.6037
   6   2.0000     -10.303221      -280.3649
   7   2.0000     -10.299340      -280.2593
   8   2.0000     -10.295654      -280.1590
   9   2.0000     -10.294547      -280.1289
  10   2.0000     -10.289908      -280.0026
  11   2.0000     -10.287689      -279.9423
  12   2.0000     -10.284257      -279.8489
  13   2.0000     -10.283577      -279.8304
  14   2.0000     -10.281875      -279.7840
  15   2.0000     -10.272237      -279.5218
  16   2.0000      -8.085683      -220.0226
  17   2.0000      -8.075820      -219.7542
  18   2.0000      -6.044164      -164.4701
  19   2.0000      -6.040325      -164.3656
  20   2.0000      -6.036396      -164.2587
  21   2.0000      -6.034446      -164.2056
  22   2.0000      -6.030243      -164.0913
  23   2.0000      -6.026543      -163.9906
  24   2.0000      -1.006877       -27.3985
  25   2.0000      -0.986147       -26.8344
  26   2.0000      -0.915225       -24.9045
  27   2.0000      -0.902899       -24.5691
  28   2.0000      -0.867743       -23.6125
  29   2.0000      -0.849595       -23.1186
  30   2.0000      -0.838728       -22.8229
  31   2.0000      -0.818601       -22.2753
  32   2.0000      -0.784312       -21.3422
  33   2.0000      -0.772684       -21.0258
  34   2.0000      -0.703048       -19.1309
  35   2.0000      -0.701614       -19.0919
  36   2.0000      -0.695082       -18.9141
  37   2.0000      -0.659814       -17.9544
  38   2.0000      -0.645168       -17.5559
  39   2.0000      -0.614042       -16.7089
  40   2.0000      -0.593452       -16.1486
  41   2.0000      -0.579290       -15.7633
  42   2.0000      -0.558392       -15.1946
  43   2.0000      -0.551432       -15.0052
  44   2.0000      -0.540820       -14.7165
  45   2.0000      -0.519622       -14.1396
  46   2.0000      -0.514530       -14.0011
  47   2.0000      -0.511143       -13.9089
  48   2.0000      -0.505057       -13.7433
  49   2.0000      -0.498945       -13.5770
  50   2.0000      -0.483942       -13.1687
  51   2.0000      -0.478724       -13.0268
  52   2.0000      -0.474789       -12.9197
  53   2.0000      -0.466708       -12.6998
  54   2.0000      -0.459908       -12.5147
  55   2.0000      -0.450210       -12.2508
  56   2.0000      -0.446232       -12.1426
  57   2.0000      -0.438635       -11.9359
  58   2.0000      -0.432617       -11.7721
  59   2.0000      -0.425260       -11.5719
  60   2.0000      -0.415873       -11.3165
  61   2.0000      -0.409969       -11.1558
  62   2.0000      -0.408789       -11.1237
  63   2.0000      -0.342665        -9.3244
  64   2.0000      -0.335687        -9.1345
  65   2.0000      -0.325794        -8.8653
  66   2.0000      -0.301282        -8.1983
  67   0.0000       0.036147         0.9836
  68   0.0000       0.064048         1.7428
  69   0.0000       0.113647         3.0925
  70   0.0000       0.124230         3.3805
  71   0.0000       0.127635         3.4731

MULLIKEN ATOMIC CHARGES
-----------------------
   0 S :    0.090930
   1 C :   -0.103755
   2 C :   -0.121324
   3 C :    0.042814
   4 C :   -0.173062
   5 H :    0.014063
   6 C :    0.099063
   7 H :    0.005909
   8 H :    0.010213
   9 C :   -0.052291
  10 H :    0.032411
  11 H :    0.030655
  12 C :   -0.054717
  13 H :    0.049386
  14 H :    0.010745
  15 H :    0.041874
  16 S :    0.128045
  17 C :   -0.089951
  18 C :   -0.058236
  19 C :   -0.027084
  20 C :   -0.164753
  21 H :    0.024112
  22 C :    0.091316
  23 H :    0.019714
  24 H :    0.014810
  25 C :   -0.086602
  26 H :    0.025008
  27 H :    0.021471
  28 C :   -0.043586
  29 H :    0.039563
  30 H :    0.037529
  31 H :    0.044751
  32 H :    0.043461
  33 H :    0.057518
Sum of atomic charges:    0.0000000

LOEWDIN ATOMIC CHARGES
----------------------
   0 S :    0.387702
   1 C :   -0.189164
   2 C :   -0.064116
   3 C :   -0.064166
   4 C :   -0.185199
   5 H :    0.029841
   6 C :   -0.028319
   7 H :    0.023303
   8 H :    0.026680
   9 C :   -0.033751
  10 H :    0.020632
  11 H :    0.027576
  12 C :   -0.066495
  13 H :    0.034003
  14 H :    0.016228
  15 H :    0.026306
  16 S :    0.408878
  17 C :   -0.190681
  18 C :   -0.069306
  19 C :   -0.052227
  20 C :   -0.202591
  21 H :    0.033725
  22 C :   -0.025009
  23 H :    0.029815
  24 H :    0.021290
  25 C :   -0.043530
  26 H :    0.019739
  27 H :    0.025468
  28 C :   -0.066389
  29 H :    0.031192
  30 H :    0.029610
  31 H :    0.027182
  32 H :    0.028657
  33 H :    0.033117

  Mayer bond orders larger than 0.100000
B(  0-S ,  1-C ) :   1.1208 B(  0-S ,  4-C ) :   1.1470 B(  1-C ,  2-C ) :   1.6439
B(  1-C , 32-H ) :   0.9711 B(  2-C ,  3-C ) :   1.2013 B(  2-C ,  6-C ) :   1.0316
B(  3-C ,  4-C ) :   1.6194 B(  3-C ,  5-H ) :   0.9915 B(  4-C , 20-C ) :   1.0003
B(  6-C ,  7-H ) :   0.9305 B(  6-C ,  8-H ) :   0.9363 B(  6-C ,  9-C ) :   1.0665
B(  9-C , 10-H ) :   0.9590 B(  9-C , 11-H ) :   0.9584 B(  9-C , 12-C ) :   1.0684
B( 12-C , 13-H ) :   0.9668 B( 12-C , 14-H ) :   0.9746 B( 12-C , 15-H ) :   0.9739
B( 16-S , 17-C ) :   1.1454 B( 16-S , 20-C ) :   1.1414 B( 17-C , 18-C ) :   1.6457
B( 17-C , 33-H ) :   0.9609 B( 18-C , 19-C ) :   1.2245 B( 18-C , 21-H ) :   0.9850
B( 19-C , 20-C ) :   1.6128 B( 19-C , 22-C ) :   1.0414 B( 22-C , 23-H ) :   0.9311
B( 22-C , 24-H ) :   0.9360 B( 22-C , 25-C ) :   1.0541 B( 25-C , 26-H ) :   0.9613
B( 25-C , 27-H ) :   0.9573 B( 25-C , 28-C ) :   1.0618 B( 28-C , 29-H ) :   0.9755
B( 28-C , 30-H ) :   0.9754 B( 28-C , 31-H ) :   0.9769

Dispersion correction           -0.015067273
FINAL SINGLE POINT ENERGY     -1339.880358872587

DIPOLE MOMENT
-------------
                                X             Y             Z
Electronic contribution:     -0.67853      -2.57168     -19.56570
Nuclear contribution   :      0.78862       2.38892      20.11584
                        -----------------------------------------
Total Dipole Moment    :      0.11009      -0.18277       0.55014
                        -----------------------------------------
Magnitude (a.u.)       :      0.59006
Magnitude (Debye)      :      1.49982

Rotational constants in cm-1:     0.017892     0.009298     0.007604
Rotational constants in MHz :   536.392545   278.735987   227.948295

                             ****ORCA TERMINATED NORMALLY****
TOTAL RUN TIME: 0 days 0 hours 0 minutes 30 seconds 667 msec
