                         Program Version 4.2.1 -  RELEASE  -
|  1> ! wB97X-D3 SP def2-SVP
|  2> %pal
|  3> nprocs 16
|  4> end
|  5>
|  6> * xyz 0 1
|  7> S 	 -18.6898 	 -4.84685 	 84.2864
|  8> C 	 -17.4843 	 -4.90323 	 83.0429
|  9> C 	 -16.3119 	 -5.53643 	 83.4822
| 10> C 	 -16.5792 	 -6.32419 	 84.6514
| 11> C 	 -17.8207 	 -6.00976 	 85.2311
| 12> H 	 -15.9398 	 -7.01117 	 85.0701
| 13> C 	 -15.0811 	 -5.76632 	 82.5594
| 14> H 	 -14.2165 	 -5.78652 	 83.203
| 15> H 	 -15.0975 	 -4.88672 	 81.9209
| 16> C 	 -15.1393 	 -7.17374 	 81.7306
| 17> H 	 -15.2957 	 -7.98918 	 82.4849
| 18> H 	 -15.9759 	 -7.13367 	 80.9871
| 19> C 	 -13.9565 	 -7.58376 	 80.882
| 20> H 	 -13.685 	 -8.61836 	 81.1202
| 21> H 	 -14.209 	 -7.65666 	 79.8448
| 22> H 	 -13.1492 	 -6.84168 	 81.1651
| 23> S 	 -19.8015 	 -7.2656 	 86.5578
| 24> C 	 -19.5302 	 -7.87299 	 88.1441
| 25> C 	 -18.3783 	 -7.32359 	 88.7348
| 26> C 	 -17.5836 	 -6.71659 	 87.7304
| 27> C 	 -18.2395 	 -6.5045 	 86.529
| 28> H 	 -18.1413 	 -7.50835 	 89.7541
| 29> C 	 -16.1774 	 -6.15435 	 88.0277
| 30> H 	 -15.7517 	 -5.77749 	 87.1232
| 31> H 	 -15.5563 	 -6.95955 	 88.444
| 32> C 	 -16.1817 	 -4.9468 	 88.9398
| 33> H 	 -16.5853 	 -5.29604 	 89.8725
| 34> H 	 -16.8411 	 -4.18015 	 88.6444
| 35> C 	 -14.7272 	 -4.60525 	 89.3038
| 36> H 	 -14.6055 	 -3.96166 	 90.1945
| 37> H 	 -14.277 	 -4.08072 	 88.4597
| 38> H 	 -14.1422 	 -5.43594 	 89.4263
| 39> H 	 -17.5017 	 -4.21735 	 82.1638
| 40> H 	 -20.2667 	 -8.48773 	 88.7071
| 41> *
| 42>
| 43>                          ****END OF INPUT****

CARTESIAN COORDINATES (ANGSTROEM)
---------------------------------
  S    -18.689800   -4.846850   84.286400
  C    -17.484300   -4.903230   83.042900
  C    -16.311900   -5.536430   83.482200
  C    -16.579200   -6.324190   84.651400
  C    -17.820700   -6.009760   85.231100
  H    -15.939800   -7.011170   85.070100
  C    -15.081100   -5.766320   82.559400
  H    -14.216500   -5.786520   83.203000
  H    -15.097500   -4.886720   81.920900
  C    -15.139300   -7.173740   81.730600
  H    -15.295700   -7.989180   82.484900
  H    -15.975900   -7.133670   80.987100
  C    -13.956500   -7.583760   80.882000
  H    -13.685000   -8.618360   81.120200
  H    -14.209000   -7.656660   79.844800
  H    -13.149200   -6.841680   81.165100
  S    -19.801500   -7.265600   86.557800
  C    -19.530200   -7.872990   88.144100
  C    -18.378300   -7.323590   88.734800
  C    -17.583600   -6.716590   87.730400
  C    -18.239500   -6.504500   86.529000
  H    -18.141300   -7.508350   89.754100
  C    -16.177400   -6.154350   88.027700
  H    -15.751700   -5.777490   87.123200
  H    -15.556300   -6.959550   88.444000
  C    -16.181700   -4.946800   88.939800
  H    -16.585300   -5.296040   89.872500
  H    -16.841100   -4.180150   88.644400
  C    -14.727200   -4.605250   89.303800
  H    -14.605500   -3.961660   90.194500
  H    -14.277000   -4.080720   88.459700
  H    -14.142200   -5.435940   89.426300
  H    -17.501700   -4.217350   82.163800
  H    -20.266700   -8.487730   88.707100

 Total Charge           Charge          ....    0
 Multiplicity           Mult            ....    1
 Number of Electrons    NEL             ....  134
 Basis Dimension        Dim             ....  322

ORBITAL ENERGIES
----------------

  NO   OCC          E(Eh)            E(eV)
   0   2.0000     -88.969155     -2420.9738
   1   2.0000     -88.964043     -2420.8347
   2   2.0000     -10.328044      -281.0404
   3   2.0000     -10.321556      -280.8638
   4   2.0000     -10.320846      -280.8445
   5   2.0000     -10.315773      -280.7065
   6   2.0000     -10.303645      -280.3764
   7   2.0000     -10.303464      -280.3715
   8   2.0000     -10.300808      -280.2992
   9   2.0000     -10.294947      -280.1398
  10   2.0000     -10.294414      -280.1253
  11   2.0000     -10.288913      -279.9756
  12   2.0000     -10.286231      -279.9026
  13   2.0000     -10.278567      -279.6940
  14   2.0000     -10.276257      -279.6312
  15   2.0000     -10.271093      -279.4907
  16   2.0000      -8.084243      -219.9834
  17   2.0000      -8.079772      -219.8618
  18   2.0000      -6.042632      -164.4284
  19   2.0000      -6.038648      -164.3200
  20   2.0000      -6.038091      -164.3048
  21   2.0000      -6.035185      -164.2257
  22   2.0000      -6.034079      -164.1956
  23   2.0000      -6.030725      -164.1044
  24   2.0000      -1.009655       -27.4741
  25   2.0000      -0.985638       -26.8206
  26   2.0000      -0.913651       -24.8617
  27   2.0000      -0.899262       -24.4702
  28   2.0000      -0.868476       -23.6324
  29   2.0000      -0.854370       -23.2486
  30   2.0000      -0.848884       -23.0993
  31   2.0000      -0.811001       -22.0685
  32   2.0000      -0.780918       -21.2498
  33   2.0000      -0.767515       -20.8852
  34   2.0000      -0.707131       -19.2420
  35   2.0000      -0.694537       -18.8993
  36   2.0000      -0.686180       -18.6719
  37   2.0000      -0.664942       -18.0940
  38   2.0000      -0.641522       -17.4567
  39   2.0000      -0.617798       -16.8111
  40   2.0000      -0.594770       -16.1845
  41   2.0000      -0.572540       -15.5796
  42   2.0000      -0.569242       -15.4899
  43   2.0000      -0.554404       -15.0861
  44   2.0000      -0.530301       -14.4302
  45   2.0000      -0.523381       -14.2419
  46   2.0000      -0.515901       -14.0384
  47   2.0000      -0.512801       -13.9540
  48   2.0000      -0.501440       -13.6449
  49   2.0000      -0.496806       -13.5188
  50   2.0000      -0.494648       -13.4600
  51   2.0000      -0.477050       -12.9812
  52   2.0000      -0.475473       -12.9383
  53   2.0000      -0.465388       -12.6639
  54   2.0000      -0.456114       -12.4115
  55   2.0000      -0.452853       -12.3228
  56   2.0000      -0.449963       -12.2441
  57   2.0000      -0.445738       -12.1292
  58   2.0000      -0.431553       -11.7432
  59   2.0000      -0.417769       -11.3681
  60   2.0000      -0.415422       -11.3042
  61   2.0000      -0.410311       -11.1651
  62   2.0000      -0.408068       -11.1041
  63   2.0000      -0.345388        -9.3985
  64   2.0000      -0.331425        -9.0185
  65   2.0000      -0.330388        -8.9903
  66   2.0000      -0.287508        -7.8235
  67   0.0000       0.030973         0.8428
  68   0.0000       0.067495         1.8366
  69   0.0000       0.108280         2.9465
  70   0.0000       0.123272         3.3544
  71   0.0000       0.129451         3.5225

MULLIKEN ATOMIC CHARGES
-----------------------
   0 S :    0.127303
   1 C :   -0.130588
   2 C :   -0.106198
   3 C :    0.048090
   4 C :   -0.134201
   5 H :   -0.012130
   6 C :    0.065875
   7 H :    0.025262
   8 H :    0.026708
   9 C :   -0.118590
  10 H :    0.040205
  11 H :    0.037108
  12 C :   -0.038326
  13 H :    0.029513
  14 H :    0.033828
  15 H :    0.043118
  16 S :    0.114074
  17 C :   -0.110981
  18 C :   -0.023783
  19 C :   -0.048429
  20 C :   -0.152286
  21 H :    0.014977
  22 C :    0.051513
  23 H :    0.012126
  24 H :    0.028977
  25 C :   -0.045526
  26 H :    0.004964
  27 H :    0.028708
  28 C :   -0.011527
  29 H :    0.037415
  30 H :    0.023283
  31 H :    0.003233
  32 H :    0.066042
  33 H :    0.070243
Sum of atomic charges:   -0.0000000

LOEWDIN ATOMIC CHARGES
----------------------
   0 S :    0.424057
   1 C :   -0.214031
   2 C :   -0.061371
   3 C :   -0.051726
   4 C :   -0.202758
   5 H :    0.015796
   6 C :   -0.027346
   7 H :    0.024734
   8 H :    0.027150
   9 C :   -0.046892
  10 H :    0.028311
  11 H :    0.029143
  12 C :   -0.075461
  13 H :    0.028754
  14 H :    0.023460
  15 H :    0.035081
  16 S :    0.428019
  17 C :   -0.193706
  18 C :   -0.068586
  19 C :   -0.051128
  20 C :   -0.211890
  21 H :    0.028028
  22 C :   -0.026166
  23 H :    0.022381
  24 H :    0.030964
  25 C :   -0.032002
  26 H :    0.016643
  27 H :    0.022303
  28 C :   -0.056642
  29 H :    0.029435
  30 H :    0.025050
  31 H :    0.011774
  32 H :    0.034068
  33 H :    0.034550

  Mayer bond orders larger than 0.100000
B(  0-S ,  1-C ) :   1.1497 B(  0-S ,  4-C ) :   1.1688 B(  1-C ,  2-C ) :   1.5836
B(  1-C , 32-H ) :   0.9598 B(  2-C ,  3-C ) :   1.2441 B(  2-C ,  6-C ) :   1.0439
B(  3-C ,  4-C ) :   1.5437 B(  3-C ,  5-H ) :   1.0051 B(  4-C , 20-C ) :   1.0290
B(  6-C ,  7-H ) :   0.9373 B(  6-C ,  8-H ) :   0.9449 B(  6-C ,  9-C ) :   1.0549
B(  9-C , 10-H ) :   0.9658 B(  9-C , 11-H ) :   0.9658 B(  9-C , 12-C ) :   1.0606
B( 12-C , 13-H ) :   0.9765 B( 12-C , 14-H ) :   0.9811 B( 12-C , 15-H ) :   0.9766
B( 16-S , 17-C ) :   1.1917 B( 16-S , 20-C ) :   1.1400 B( 17-C , 18-C ) :   1.5714
B( 17-C , 20-C ) :   0.1044 B( 17-C , 33-H ) :   0.9623 B( 18-C , 19-C ) :   1.2490
B( 18-C , 21-H ) :   0.9961 B( 19-C , 20-C ) :   1.5931 B( 19-C , 22-C ) :   1.0368
B( 22-C , 23-H ) :   0.9390 B( 22-C , 24-H ) :   0.9322 B( 22-C , 25-C ) :   1.0719
B( 25-C , 26-H ) :   0.9524 B( 25-C , 27-H ) :   0.9594 B( 25-C , 28-C ) :   1.0719
B( 28-C , 29-H ) :   0.9751 B( 28-C , 30-H ) :   0.9749 B( 28-C , 31-H ) :   0.9696

Dispersion correction           -0.013616584
FINAL SINGLE POINT ENERGY     -1339.856395734432

DIPOLE MOMENT
-------------
                                X             Y             Z
Electronic contribution:    -26.93580       0.19080       1.78348
Nuclear contribution   :     27.47923      -0.32548      -1.62610
                        -----------------------------------------
Total Dipole Moment    :      0.54342      -0.13468       0.15738
                        -----------------------------------------
Magnitude (a.u.)       :      0.58156
Magnitude (Debye)      :      1.47821

Rotational constants in cm-1:     0.017286     0.008013     0.006694
Rotational constants in MHz :   518.235687   240.231115   200.673125

                             ****ORCA TERMINATED NORMALLY****
TOTAL RUN TIME: 0 days 0 hours 0 minutes 32 seconds 924 msec
