                         Program Version 4.2.1 -  RELEASE  -
|  1> ! wB97X-D3 SP def2-SVP
|  2> %pal
|  3> nprocs 16
|  4> end
|  5>
|  6> * xyz 0 1
|  7> S 	 -44.6209 	 28.2775 	 85.6531
|  8> C 	 -44.7428 	 28.8796 	 83.9956
|  9> C 	 -44.1628 	 28.0067 	 83.1195
| 10> C 	 -43.573 	 26.9241 	 83.8297
| 11> C 	 -43.484 	 27.1113 	 85.2052
| 12> H 	 -43.1128 	 26.1756 	 83.3057
| 13> C 	 -44.1608 	 28.1311 	 81.6227
| 14> H 	 -43.2333 	 27.6407 	 81.2378
| 15> H 	 -43.9725 	 29.1283 	 81.3717
| 16> C 	 -45.4619 	 27.5822 	 80.8906
| 17> H 	 -45.521 	 27.9032 	 79.8346
| 18> H 	 -45.5512 	 26.4839 	 80.9811
| 19> C 	 -46.6956 	 28.1271 	 81.5755
| 20> H 	 -47.6097 	 27.9608 	 80.9356
| 21> H 	 -47.1349 	 27.6626 	 82.4257
| 22> H 	 -46.6516 	 29.1711 	 81.8116
| 23> S 	 -42.6141 	 24.6326 	 86.0396
| 24> C 	 -41.5291 	 24.4675 	 87.4114
| 25> C 	 -41.1201 	 25.7563 	 87.7783
| 26> C 	 -41.7474 	 26.8106 	 87.0551
| 27> C 	 -42.6144 	 26.4104 	 86.0788
| 28> H 	 -40.5478 	 25.9801 	 88.6498
| 29> C 	 -41.5874 	 28.3199 	 87.4252
| 30> H 	 -42.3543 	 28.5005 	 88.2687
| 31> H 	 -41.9621 	 28.8706 	 86.5746
| 32> C 	 -40.2508 	 28.9047 	 87.833
| 33> H 	 -39.8851 	 28.5508 	 88.8713
| 34> H 	 -40.5125 	 29.9823 	 87.908
| 35> C 	 -39.0897 	 28.6921 	 86.8523
| 36> H 	 -38.2035 	 29.2687 	 87.1949
| 37> H 	 -39.4512 	 28.9943 	 85.8401
| 38> H 	 -38.8143 	 27.6511 	 86.7426
| 39> H 	 -45.3365 	 29.7649 	 83.7379
| 40> H 	 -41.2621 	 23.4804 	 87.8652
| 41> *
| 42>
| 43>                          ****END OF INPUT****

CARTESIAN COORDINATES (ANGSTROEM)
---------------------------------
  S    -44.620900   28.277500   85.653100
  C    -44.742800   28.879600   83.995600
  C    -44.162800   28.006700   83.119500
  C    -43.573000   26.924100   83.829700
  C    -43.484000   27.111300   85.205200
  H    -43.112800   26.175600   83.305700
  C    -44.160800   28.131100   81.622700
  H    -43.233300   27.640700   81.237800
  H    -43.972500   29.128300   81.371700
  C    -45.461900   27.582200   80.890600
  H    -45.521000   27.903200   79.834600
  H    -45.551200   26.483900   80.981100
  C    -46.695600   28.127100   81.575500
  H    -47.609700   27.960800   80.935600
  H    -47.134900   27.662600   82.425700
  H    -46.651600   29.171100   81.811600
  S    -42.614100   24.632600   86.039600
  C    -41.529100   24.467500   87.411400
  C    -41.120100   25.756300   87.778300
  C    -41.747400   26.810600   87.055100
  C    -42.614400   26.410400   86.078800
  H    -40.547800   25.980100   88.649800
  C    -41.587400   28.319900   87.425200
  H    -42.354300   28.500500   88.268700
  H    -41.962100   28.870600   86.574600
  C    -40.250800   28.904700   87.833000
  H    -39.885100   28.550800   88.871300
  H    -40.512500   29.982300   87.908000
  C    -39.089700   28.692100   86.852300
  H    -38.203500   29.268700   87.194900
  H    -39.451200   28.994300   85.840100
  H    -38.814300   27.651100   86.742600
  H    -45.336500   29.764900   83.737900
  H    -41.262100   23.480400   87.865200

 Total Charge           Charge          ....    0
 Multiplicity           Mult            ....    1
 Number of Electrons    NEL             ....  134
 Basis Dimension        Dim             ....  322

ORBITAL ENERGIES
----------------

  NO   OCC          E(Eh)            E(eV)
   0   2.0000     -88.966032     -2420.8888
   1   2.0000     -88.961496     -2420.7654
   2   2.0000     -10.327469      -281.0247
   3   2.0000     -10.324607      -280.9468
   4   2.0000     -10.323130      -280.9067
   5   2.0000     -10.312733      -280.6237
   6   2.0000     -10.301352      -280.3141
   7   2.0000     -10.297586      -280.2116
   8   2.0000     -10.296837      -280.1912
   9   2.0000     -10.294863      -280.1375
  10   2.0000     -10.294501      -280.1276
  11   2.0000     -10.294209      -280.1197
  12   2.0000     -10.293083      -280.0890
  13   2.0000     -10.285001      -279.8691
  14   2.0000     -10.278198      -279.6840
  15   2.0000     -10.271826      -279.5106
  16   2.0000      -8.081403      -219.9062
  17   2.0000      -8.075846      -219.7549
  18   2.0000      -6.039784      -164.3509
  19   2.0000      -6.035975      -164.2472
  20   2.0000      -6.034432      -164.2052
  21   2.0000      -6.032082      -164.1413
  22   2.0000      -6.030279      -164.0922
  23   2.0000      -6.026670      -163.9940
  24   2.0000      -1.013253       -27.5720
  25   2.0000      -0.985416       -26.8145
  26   2.0000      -0.913125       -24.8474
  27   2.0000      -0.902745       -24.5650
  28   2.0000      -0.871233       -23.7075
  29   2.0000      -0.850862       -23.1531
  30   2.0000      -0.842182       -22.9169
  31   2.0000      -0.809749       -22.0344
  32   2.0000      -0.785791       -21.3825
  33   2.0000      -0.775901       -21.1133
  34   2.0000      -0.710917       -19.3450
  35   2.0000      -0.699631       -19.0379
  36   2.0000      -0.688618       -18.7383
  37   2.0000      -0.660962       -17.9857
  38   2.0000      -0.642225       -17.4758
  39   2.0000      -0.618592       -16.8327
  40   2.0000      -0.593274       -16.1438
  41   2.0000      -0.567916       -15.4538
  42   2.0000      -0.555169       -15.1069
  43   2.0000      -0.547431       -14.8963
  44   2.0000      -0.542964       -14.7748
  45   2.0000      -0.536430       -14.5970
  46   2.0000      -0.520999       -14.1771
  47   2.0000      -0.515980       -14.0405
  48   2.0000      -0.505830       -13.7643
  49   2.0000      -0.498252       -13.5581
  50   2.0000      -0.490264       -13.3408
  51   2.0000      -0.480822       -13.0838
  52   2.0000      -0.465959       -12.6794
  53   2.0000      -0.462552       -12.5867
  54   2.0000      -0.456452       -12.4207
  55   2.0000      -0.451109       -12.2753
  56   2.0000      -0.440091       -11.9755
  57   2.0000      -0.437776       -11.9125
  58   2.0000      -0.432950       -11.7812
  59   2.0000      -0.420962       -11.4550
  60   2.0000      -0.414587       -11.2815
  61   2.0000      -0.412439       -11.2230
  62   2.0000      -0.403942       -10.9918
  63   2.0000      -0.345889        -9.4121
  64   2.0000      -0.330010        -8.9800
  65   2.0000      -0.327389        -8.9087
  66   2.0000      -0.289606        -7.8806
  67   0.0000       0.024002         0.6531
  68   0.0000       0.069784         1.8989
  69   0.0000       0.109345         2.9754
  70   0.0000       0.123694         3.3659
  71   0.0000       0.129743         3.5305

MULLIKEN ATOMIC CHARGES
-----------------------
   0 S :    0.118622
   1 C :   -0.146459
   2 C :   -0.092820
   3 C :    0.067355
   4 C :   -0.160002
   5 H :   -0.030895
   6 C :    0.076541
   7 H :    0.025871
   8 H :    0.015088
   9 C :   -0.041237
  10 H :    0.047059
  11 H :    0.040966
  12 C :   -0.070985
  13 H :    0.022337
  14 H :    0.028644
  15 H :    0.016546
  16 S :    0.090304
  17 C :   -0.112255
  18 C :   -0.011419
  19 C :   -0.053457
  20 C :   -0.134422
  21 H :    0.010688
  22 C :    0.027034
  23 H :    0.056921
  24 H :    0.030797
  25 C :   -0.097092
  26 H :    0.034385
  27 H :    0.041640
  28 C :   -0.051339
  29 H :    0.045583
  30 H :    0.031133
  31 H :    0.036763
  32 H :    0.052853
  33 H :    0.085251
Sum of atomic charges:   -0.0000000

LOEWDIN ATOMIC CHARGES
----------------------
   0 S :    0.430078
   1 C :   -0.189817
   2 C :   -0.063135
   3 C :   -0.048242
   4 C :   -0.212140
   5 H :    0.010794
   6 C :   -0.030378
   7 H :    0.034744
   8 H :    0.024287
   9 C :   -0.034437
  10 H :    0.031973
  11 H :    0.031378
  12 C :   -0.078588
  13 H :    0.031973
  14 H :    0.023105
  15 H :    0.015573
  16 S :    0.390425
  17 C :   -0.184385
  18 C :   -0.074853
  19 C :   -0.060817
  20 C :   -0.191895
  21 H :    0.026319
  22 C :   -0.041324
  23 H :    0.045209
  24 H :    0.023260
  25 C :   -0.054481
  26 H :    0.025653
  27 H :    0.033623
  28 C :   -0.069602
  29 H :    0.031649
  30 H :    0.028538
  31 H :    0.024109
  32 H :    0.027866
  33 H :    0.043540

  Mayer bond orders larger than 0.100000
B(  0-S ,  1-C ) :   1.1376 B(  0-S ,  4-C ) :   1.1628 B(  1-C ,  2-C ) :   1.5858
B(  1-C , 32-H ) :   0.9697 B(  2-C ,  3-C ) :   1.2839 B(  2-C ,  6-C ) :   1.0260
B(  3-C ,  4-C ) :   1.5101 B(  3-C ,  5-H ) :   1.0091 B(  4-C , 20-C ) :   1.0610
B(  6-C ,  7-H ) :   0.9406 B(  6-C ,  8-H ) :   0.9405 B(  6-C ,  9-C ) :   1.0596
B(  9-C , 10-H ) :   0.9596 B(  9-C , 11-H ) :   0.9559 B(  9-C , 12-C ) :   1.0800
B( 12-C , 13-H ) :   0.9670 B( 12-C , 14-H ) :   0.9682 B( 12-C , 15-H ) :   0.9757
B( 16-S , 17-C ) :   1.1661 B( 16-S , 20-C ) :   1.1214 B( 17-C , 18-C ) :   1.5666
B( 17-C , 20-C ) :   0.1034 B( 17-C , 33-H ) :   0.9656 B( 18-C , 19-C ) :   1.2596
B( 18-C , 21-H ) :   0.9906 B( 19-C , 20-C ) :   1.6022 B( 19-C , 22-C ) :   1.0234
B( 22-C , 23-H ) :   0.9358 B( 22-C , 24-H ) :   0.9315 B( 22-C , 25-C ) :   1.0803
B( 25-C , 26-H ) :   0.9490 B( 25-C , 27-H ) :   0.9516 B( 25-C , 28-C ) :   1.0774
B( 28-C , 29-H ) :   0.9738 B( 28-C , 30-H ) :   0.9736 B( 28-C , 31-H ) :   0.9727

Dispersion correction           -0.014725717
FINAL SINGLE POINT ENERGY     -1339.864565206503

DIPOLE MOMENT
-------------
                                X             Y             Z
Electronic contribution:     -3.69214     -12.13831       9.66943
Nuclear contribution   :      3.76968      12.38215      -9.84752
                        -----------------------------------------
Total Dipole Moment    :      0.07754       0.24384      -0.17810
                        -----------------------------------------
Magnitude (a.u.)       :      0.31175
Magnitude (Debye)      :      0.79242

Rotational constants in cm-1:     0.023122     0.007721     0.006730
Rotational constants in MHz :   693.170029   231.481773   201.772317

                             ****ORCA TERMINATED NORMALLY****
TOTAL RUN TIME: 0 days 0 hours 0 minutes 28 seconds 528 msec
