                         Program Version 4.2.1 -  RELEASE  -
|  1> ! wB97X-D3 SP def2-SVP
|  2> %pal
|  3> nprocs 16
|  4> end
|  5>
|  6> * xyz 0 1
|  7> S 	 -115.086 	 44.673 	 133.622
|  8> C 	 -115.09 	 44.2139 	 135.351
|  9> C 	 -115.421 	 45.2985 	 136.178
| 10> C 	 -115.62 	 46.5185 	 135.466
| 11> C 	 -115.581 	 46.3585 	 134.082
| 12> H 	 -115.753 	 47.5492 	 135.838
| 13> C 	 -115.502 	 45.1849 	 137.628
| 14> H 	 -115.879 	 44.2235 	 137.83
| 15> H 	 -116.322 	 45.8816 	 137.814
| 16> C 	 -114.187 	 45.4678 	 138.44
| 17> H 	 -114.226 	 45.2016 	 139.519
| 18> H 	 -113.383 	 44.8178 	 137.993
| 19> C 	 -113.682 	 46.8827 	 138.352
| 20> H 	 -114.294 	 47.6496 	 138.721
| 21> H 	 -112.736 	 46.9246 	 138.862
| 22> H 	 -113.471 	 47.1396 	 137.312
| 23> S 	 -114.805 	 47.8539 	 131.715
| 24> C 	 -115.829 	 49.2278 	 131.307
| 25> C 	 -116.993 	 49.2025 	 132.036
| 26> C 	 -117.036 	 48.2181 	 133.074
| 27> C 	 -115.92 	 47.3778 	 133.092
| 28> H 	 -117.731 	 49.9433 	 131.819
| 29> C 	 -118.182 	 48.0259 	 134.011
| 30> H 	 -117.985 	 48.6684 	 134.942
| 31> H 	 -117.996 	 47.0561 	 134.466
| 32> C 	 -119.6 	 48.1225 	 133.408
| 33> H 	 -119.925 	 49.0856 	 133.077
| 34> H 	 -120.256 	 47.8032 	 134.242
| 35> C 	 -119.977 	 47.1887 	 132.313
| 36> H 	 -119.259 	 47.181 	 131.504
| 37> H 	 -120.921 	 47.3919 	 131.815
| 38> H 	 -120.085 	 46.2073 	 132.718
| 39> H 	 -114.76 	 43.2765 	 135.701
| 40> H 	 -115.748 	 49.9965 	 130.546
| 41> *
| 42>
| 43>                          ****END OF INPUT****

CARTESIAN COORDINATES (ANGSTROEM)
---------------------------------
  S    -115.086000   44.673000  133.622000
  C    -115.090000   44.213900  135.351000
  C    -115.421000   45.298500  136.178000
  C    -115.620000   46.518500  135.466000
  C    -115.581000   46.358500  134.082000
  H    -115.753000   47.549200  135.838000
  C    -115.502000   45.184900  137.628000
  H    -115.879000   44.223500  137.830000
  H    -116.322000   45.881600  137.814000
  C    -114.187000   45.467800  138.440000
  H    -114.226000   45.201600  139.519000
  H    -113.383000   44.817800  137.993000
  C    -113.682000   46.882700  138.352000
  H    -114.294000   47.649600  138.721000
  H    -112.736000   46.924600  138.862000
  H    -113.471000   47.139600  137.312000
  S    -114.805000   47.853900  131.715000
  C    -115.829000   49.227800  131.307000
  C    -116.993000   49.202500  132.036000
  C    -117.036000   48.218100  133.074000
  C    -115.920000   47.377800  133.092000
  H    -117.731000   49.943300  131.819000
  C    -118.182000   48.025900  134.011000
  H    -117.985000   48.668400  134.942000
  H    -117.996000   47.056100  134.466000
  C    -119.600000   48.122500  133.408000
  H    -119.925000   49.085600  133.077000
  H    -120.256000   47.803200  134.242000
  C    -119.977000   47.188700  132.313000
  H    -119.259000   47.181000  131.504000
  H    -120.921000   47.391900  131.815000
  H    -120.085000   46.207300  132.718000
  H    -114.760000   43.276500  135.701000
  H    -115.748000   49.996500  130.546000

 Total Charge           Charge          ....    0
 Multiplicity           Mult            ....    1
 Number of Electrons    NEL             ....  134
 Basis Dimension        Dim             ....  322

ORBITAL ENERGIES
----------------

  NO   OCC          E(Eh)            E(eV)
   0   2.0000     -88.968089     -2420.9448
   1   2.0000     -88.966047     -2420.8892
   2   2.0000     -10.337387      -281.2946
   3   2.0000     -10.331385      -281.1313
   4   2.0000     -10.320579      -280.8372
   5   2.0000     -10.317639      -280.7572
   6   2.0000     -10.304814      -280.4082
   7   2.0000     -10.302941      -280.3573
   8   2.0000     -10.301806      -280.3264
   9   2.0000     -10.295410      -280.1523
  10   2.0000     -10.295187      -280.1463
  11   2.0000     -10.290895      -280.0295
  12   2.0000     -10.286627      -279.9134
  13   2.0000     -10.284677      -279.8603
  14   2.0000     -10.268693      -279.4253
  15   2.0000     -10.266471      -279.3649
  16   2.0000      -8.081149      -219.8992
  17   2.0000      -8.079244      -219.8474
  18   2.0000      -6.039745      -164.3498
  19   2.0000      -6.038022      -164.3029
  20   2.0000      -6.035982      -164.2474
  21   2.0000      -6.034001      -164.1935
  22   2.0000      -6.031831      -164.1345
  23   2.0000      -6.029763      -164.0782
  24   2.0000      -0.996331       -27.1115
  25   2.0000      -0.976596       -26.5745
  26   2.0000      -0.913325       -24.8528
  27   2.0000      -0.910144       -24.7663
  28   2.0000      -0.870264       -23.6811
  29   2.0000      -0.853915       -23.2362
  30   2.0000      -0.845093       -22.9961
  31   2.0000      -0.819153       -22.2903
  32   2.0000      -0.785395       -21.3717
  33   2.0000      -0.769690       -20.9443
  34   2.0000      -0.708815       -19.2878
  35   2.0000      -0.705218       -19.1900
  36   2.0000      -0.697549       -18.9813
  37   2.0000      -0.650600       -17.7037
  38   2.0000      -0.643002       -17.4970
  39   2.0000      -0.614249       -16.7146
  40   2.0000      -0.594409       -16.1747
  41   2.0000      -0.570522       -15.5247
  42   2.0000      -0.554100       -15.0778
  43   2.0000      -0.550858       -14.9896
  44   2.0000      -0.547590       -14.9007
  45   2.0000      -0.538512       -14.6536
  46   2.0000      -0.526154       -14.3174
  47   2.0000      -0.519479       -14.1358
  48   2.0000      -0.504113       -13.7176
  49   2.0000      -0.489858       -13.3297
  50   2.0000      -0.487193       -13.2572
  51   2.0000      -0.480864       -13.0850
  52   2.0000      -0.467302       -12.7159
  53   2.0000      -0.463204       -12.6044
  54   2.0000      -0.460082       -12.5195
  55   2.0000      -0.448607       -12.2072
  56   2.0000      -0.439778       -11.9670
  57   2.0000      -0.437027       -11.8921
  58   2.0000      -0.436020       -11.8647
  59   2.0000      -0.427121       -11.6226
  60   2.0000      -0.418749       -11.3947
  61   2.0000      -0.415688       -11.3114
  62   2.0000      -0.406012       -11.0481
  63   2.0000      -0.344236        -9.3671
  64   2.0000      -0.331305        -9.0153
  65   2.0000      -0.328388        -8.9359
  66   2.0000      -0.290388        -7.9018
  67   0.0000       0.021262         0.5786
  68   0.0000       0.061499         1.6735
  69   0.0000       0.105457         2.8696
  70   0.0000       0.120789         3.2868
  71   0.0000       0.128284         3.4908

MULLIKEN ATOMIC CHARGES
-----------------------
   0 S :    0.097843
   1 C :   -0.093848
   2 C :   -0.119632
   3 C :    0.011281
   4 C :   -0.168108
   5 H :    0.035747
   6 C :    0.108223
   7 H :    0.010186
   8 H :    0.021582
   9 C :   -0.075330
  10 H :    0.039691
  11 H :    0.031933
  12 C :   -0.036348
  13 H :    0.020713
  14 H :    0.027665
  15 H :    0.032869
  16 S :    0.096801
  17 C :   -0.074748
  18 C :   -0.039687
  19 C :   -0.050425
  20 C :   -0.151338
  21 H :    0.009578
  22 C :    0.061423
  23 H :    0.046025
  24 H :    0.028542
  25 C :   -0.056613
  26 H :    0.024785
  27 H :    0.030081
  28 C :   -0.033146
  29 H :    0.030954
  30 H :    0.026124
  31 H :    0.020431
  32 H :    0.032163
  33 H :    0.054585
Sum of atomic charges:    0.0000000

LOEWDIN ATOMIC CHARGES
----------------------
   0 S :    0.364120
   1 C :   -0.174675
   2 C :   -0.063000
   3 C :   -0.062894
   4 C :   -0.169909
   5 H :    0.041269
   6 C :   -0.034662
   7 H :    0.026510
   8 H :    0.033693
   9 C :   -0.037501
  10 H :    0.027164
  11 H :    0.031248
  12 C :   -0.065363
  13 H :    0.015399
  14 H :    0.028120
  15 H :    0.027394
  16 S :    0.363551
  17 C :   -0.174417
  18 C :   -0.075987
  19 C :   -0.050703
  20 C :   -0.185486
  21 H :    0.027499
  22 C :   -0.041324
  23 H :    0.043416
  24 H :    0.032708
  25 C :   -0.043161
  26 H :    0.018198
  27 H :    0.034031
  28 C :   -0.062213
  29 H :    0.022935
  30 H :    0.028140
  31 H :    0.021762
  32 H :    0.018078
  33 H :    0.036059

  Mayer bond orders larger than 0.100000
B(  0-S ,  1-C ) :   1.1263 B(  0-S ,  4-C ) :   1.1324 B(  1-C ,  2-C ) :   1.6086
B(  1-C , 32-H ) :   0.9733 B(  2-C ,  3-C ) :   1.2190 B(  2-C ,  6-C ) :   1.0206
B(  3-C ,  4-C ) :   1.5727 B(  3-C ,  5-H ) :   0.9872 B(  4-C , 20-C ) :   1.0700
B(  6-C ,  7-H ) :   0.9325 B(  6-C ,  8-H ) :   0.9393 B(  6-C ,  9-C ) :   1.0544
B(  9-C , 10-H ) :   0.9593 B(  9-C , 11-H ) :   0.9538 B(  9-C , 12-C ) :   1.0887
B( 12-C , 13-H ) :   0.9758 B( 12-C , 14-H ) :   0.9685 B( 12-C , 15-H ) :   0.9701
B( 16-S , 17-C ) :   1.1449 B( 16-S , 20-C ) :   1.0963 B( 17-C , 18-C ) :   1.6390
B( 17-C , 33-H ) :   0.9609 B( 18-C , 19-C ) :   1.2180 B( 18-C , 21-H ) :   0.9927
B( 19-C , 20-C ) :   1.5945 B( 19-C , 22-C ) :   1.0482 B( 22-C , 23-H ) :   0.9248
B( 22-C , 24-H ) :   0.9241 B( 22-C , 25-C ) :   1.0611 B( 25-C , 26-H ) :   0.9571
B( 25-C , 27-H ) :   0.9536 B( 25-C , 28-C ) :   1.0883 B( 28-C , 29-H ) :   0.9712
B( 28-C , 30-H ) :   0.9708 B( 28-C , 31-H ) :   0.9749

Dispersion correction           -0.014901321
FINAL SINGLE POINT ENERGY     -1339.870010727232

DIPOLE MOMENT
-------------
                                X             Y             Z
Electronic contribution:     11.56540      -3.53503     -17.98897
Nuclear contribution   :    -11.95645       3.78886      18.53686
                        -----------------------------------------
Total Dipole Moment    :     -0.39105       0.25383       0.54789
                        -----------------------------------------
Magnitude (a.u.)       :      0.71940
Magnitude (Debye)      :      1.82857

Rotational constants in cm-1:     0.019512     0.008090     0.007344
Rotational constants in MHz :   584.963862   242.519432   220.165044

                             ****ORCA TERMINATED NORMALLY****
TOTAL RUN TIME: 0 days 0 hours 0 minutes 35 seconds 282 msec
