                         Program Version 4.2.1 -  RELEASE  -
|  1> ! wB97X-D3 SP def2-SVP
|  2> %pal
|  3> nprocs 16
|  4> end
|  5>
|  6> * xyz 0 1
|  7> S 	 -101.155 	 56.0157 	 117.281
|  8> C 	 -100.476 	 55.0178 	 116.059
|  9> C 	 -101.325 	 54.8334 	 114.983
| 10> C 	 -102.517 	 55.6633 	 115.108
| 11> C 	 -102.523 	 56.4536 	 116.22
| 12> H 	 -103.452 	 55.7113 	 114.481
| 13> C 	 -100.973 	 53.9938 	 113.763
| 14> H 	 -99.8843 	 53.6605 	 113.694
| 15> H 	 -101.067 	 54.6064 	 112.899
| 16> C 	 -101.837 	 52.7442 	 113.662
| 17> H 	 -101.522 	 52.0917 	 112.793
| 18> H 	 -101.687 	 52.1648 	 114.578
| 19> C 	 -103.33 	 52.8801 	 113.47
| 20> H 	 -103.847 	 53.2441 	 114.346
| 21> H 	 -103.561 	 53.4391 	 112.624
| 22> H 	 -103.703 	 51.868 	 113.36
| 23> S 	 -103.146 	 58.9696 	 116.958
| 24> C 	 -104.767 	 59.4942 	 117.234
| 25> C 	 -105.638 	 58.5018 	 117.009
| 26> C 	 -105.012 	 57.1692 	 116.751
| 27> C 	 -103.641 	 57.3111 	 116.55
| 28> H 	 -106.646 	 58.7282 	 117.106
| 29> C 	 -105.841 	 55.8503 	 116.789
| 30> H 	 -106.05 	 55.7808 	 117.855
| 31> H 	 -105.138 	 55.0318 	 116.565
| 32> C 	 -107.126 	 55.7118 	 115.858
| 33> H 	 -107.696 	 56.5995 	 115.913
| 34> H 	 -107.807 	 54.9143 	 116.215
| 35> C 	 -106.804 	 55.6368 	 114.389
| 36> H 	 -106.169 	 54.8329 	 114.134
| 37> H 	 -106.223 	 56.5461 	 113.976
| 38> H 	 -107.618 	 55.372 	 113.757
| 39> H 	 -99.5538 	 54.4325 	 116.082
| 40> H 	 -105.058 	 60.488 	 117.432
| 41> *
| 42>
| 43>                          ****END OF INPUT****

CARTESIAN COORDINATES (ANGSTROEM)
---------------------------------
  S    -101.155000   56.015700  117.281000
  C    -100.476000   55.017800  116.059000
  C    -101.325000   54.833400  114.983000
  C    -102.517000   55.663300  115.108000
  C    -102.523000   56.453600  116.220000
  H    -103.452000   55.711300  114.481000
  C    -100.973000   53.993800  113.763000
  H    -99.884300   53.660500  113.694000
  H    -101.067000   54.606400  112.899000
  C    -101.837000   52.744200  113.662000
  H    -101.522000   52.091700  112.793000
  H    -101.687000   52.164800  114.578000
  C    -103.330000   52.880100  113.470000
  H    -103.847000   53.244100  114.346000
  H    -103.561000   53.439100  112.624000
  H    -103.703000   51.868000  113.360000
  S    -103.146000   58.969600  116.958000
  C    -104.767000   59.494200  117.234000
  C    -105.638000   58.501800  117.009000
  C    -105.012000   57.169200  116.751000
  C    -103.641000   57.311100  116.550000
  H    -106.646000   58.728200  117.106000
  C    -105.841000   55.850300  116.789000
  H    -106.050000   55.780800  117.855000
  H    -105.138000   55.031800  116.565000
  C    -107.126000   55.711800  115.858000
  H    -107.696000   56.599500  115.913000
  H    -107.807000   54.914300  116.215000
  C    -106.804000   55.636800  114.389000
  H    -106.169000   54.832900  114.134000
  H    -106.223000   56.546100  113.976000
  H    -107.618000   55.372000  113.757000
  H    -99.553800   54.432500  116.082000
  H    -105.058000   60.488000  117.432000

 Total Charge           Charge          ....    0
 Multiplicity           Mult            ....    1
 Number of Electrons    NEL             ....  134
 Basis Dimension        Dim             ....  322

ORBITAL ENERGIES
----------------

  NO   OCC          E(Eh)            E(eV)
   0   2.0000     -88.967424     -2420.9267
   1   2.0000     -88.956028     -2420.6166
   2   2.0000     -10.329258      -281.0734
   3   2.0000     -10.327496      -281.0255
   4   2.0000     -10.316744      -280.7329
   5   2.0000     -10.313534      -280.6455
   6   2.0000     -10.309348      -280.5316
   7   2.0000     -10.303521      -280.3731
   8   2.0000     -10.302032      -280.3325
   9   2.0000     -10.298954      -280.2488
  10   2.0000     -10.294166      -280.1185
  11   2.0000     -10.292909      -280.0843
  12   2.0000     -10.288943      -279.9764
  13   2.0000     -10.286700      -279.9153
  14   2.0000     -10.276951      -279.6500
  15   2.0000     -10.269140      -279.4375
  16   2.0000      -8.081945      -219.9209
  17   2.0000      -8.071487      -219.6363
  18   2.0000      -6.040566      -164.3722
  19   2.0000      -6.036597      -164.2642
  20   2.0000      -6.032459      -164.1516
  21   2.0000      -6.030104      -164.0875
  22   2.0000      -6.025868      -163.9722
  23   2.0000      -6.022099      -163.8696
  24   2.0000      -1.004446       -27.3324
  25   2.0000      -0.982611       -26.7382
  26   2.0000      -0.912565       -24.8322
  27   2.0000      -0.903199       -24.5773
  28   2.0000      -0.876867       -23.8608
  29   2.0000      -0.848345       -23.0846
  30   2.0000      -0.843431       -22.9509
  31   2.0000      -0.821544       -22.3554
  32   2.0000      -0.784990       -21.3607
  33   2.0000      -0.774673       -21.0799
  34   2.0000      -0.712409       -19.3856
  35   2.0000      -0.698308       -19.0019
  36   2.0000      -0.693247       -18.8642
  37   2.0000      -0.658046       -17.9064
  38   2.0000      -0.639520       -17.4022
  39   2.0000      -0.612956       -16.6794
  40   2.0000      -0.594385       -16.1740
  41   2.0000      -0.578097       -15.7308
  42   2.0000      -0.555773       -15.1234
  43   2.0000      -0.549687       -14.9577
  44   2.0000      -0.539166       -14.6714
  45   2.0000      -0.534821       -14.5532
  46   2.0000      -0.521604       -14.1936
  47   2.0000      -0.515908       -14.0386
  48   2.0000      -0.505417       -13.7531
  49   2.0000      -0.496874       -13.5206
  50   2.0000      -0.491847       -13.3838
  51   2.0000      -0.479249       -13.0410
  52   2.0000      -0.471660       -12.8345
  53   2.0000      -0.464764       -12.6469
  54   2.0000      -0.458139       -12.4666
  55   2.0000      -0.446609       -12.1529
  56   2.0000      -0.443963       -12.0809
  57   2.0000      -0.436403       -11.8751
  58   2.0000      -0.434937       -11.8352
  59   2.0000      -0.423572       -11.5260
  60   2.0000      -0.420178       -11.4336
  61   2.0000      -0.413757       -11.2589
  62   2.0000      -0.410135       -11.1604
  63   2.0000      -0.347792        -9.4639
  64   2.0000      -0.328789        -8.9468
  65   2.0000      -0.323402        -8.8002
  66   2.0000      -0.300479        -8.1765
  67   0.0000       0.036802         1.0014
  68   0.0000       0.070330         1.9138
  69   0.0000       0.111593         3.0366
  70   0.0000       0.121823         3.3150
  71   0.0000       0.125148         3.4054

MULLIKEN ATOMIC CHARGES
-----------------------
   0 S :    0.126683
   1 C :   -0.104504
   2 C :   -0.098594
   3 C :    0.005089
   4 C :   -0.126750
   5 H :    0.036783
   6 C :    0.078307
   7 H :    0.030813
   8 H :    0.023087
   9 C :   -0.107749
  10 H :    0.033380
  11 H :    0.024581
  12 C :   -0.023323
  13 H :    0.034353
  14 H :    0.020181
  15 H :    0.026264
  16 S :    0.080567
  17 C :   -0.053649
  18 C :   -0.022295
  19 C :   -0.052519
  20 C :   -0.196658
  21 H :   -0.004924
  22 C :    0.057968
  23 H :    0.046336
  24 H :    0.028671
  25 C :   -0.040318
  26 H :    0.021932
  27 H :    0.039425
  28 C :   -0.059493
  29 H :    0.003452
  30 H :    0.055086
  31 H :    0.025845
  32 H :    0.049904
  33 H :    0.042069
Sum of atomic charges:   -0.0000000

LOEWDIN ATOMIC CHARGES
----------------------
   0 S :    0.402011
   1 C :   -0.204452
   2 C :   -0.065541
   3 C :   -0.060754
   4 C :   -0.198763
   5 H :    0.043630
   6 C :   -0.035650
   7 H :    0.039641
   8 H :    0.024638
   9 C :   -0.045966
  10 H :    0.028841
  11 H :    0.024609
  12 C :   -0.061319
  13 H :    0.020816
  14 H :    0.014301
  15 H :    0.030511
  16 S :    0.389514
  17 C :   -0.175470
  18 C :   -0.070044
  19 C :   -0.047792
  20 C :   -0.189392
  21 H :    0.018654
  22 C :   -0.028871
  23 H :    0.038024
  24 H :    0.030672
  25 C :   -0.038540
  26 H :    0.019493
  27 H :    0.032414
  28 C :   -0.074948
  29 H :    0.014584
  30 H :    0.039758
  31 H :    0.025938
  32 H :    0.035001
  33 H :    0.024452

  Mayer bond orders larger than 0.100000
B(  0-S ,  1-C ) :   1.1351 B(  0-S ,  4-C ) :   1.1212 B(  1-C ,  2-C ) :   1.6427
B(  1-C , 32-H ) :   0.9603 B(  2-C ,  3-C ) :   1.1975 B(  2-C ,  6-C ) :   1.0162
B(  3-C ,  4-C ) :   1.6119 B(  3-C ,  5-H ) :   0.9871 B(  4-C , 20-C ) :   1.0432
B(  6-C ,  7-H ) :   0.9434 B(  6-C ,  8-H ) :   0.9436 B(  6-C ,  9-C ) :   1.0683
B(  9-C , 10-H ) :   0.9561 B(  9-C , 11-H ) :   0.9507 B(  9-C , 12-C ) :   1.0982
B( 12-C , 13-H ) :   0.9668 B( 12-C , 14-H ) :   0.9739 B( 12-C , 15-H ) :   0.9662
B( 16-S , 17-C ) :   1.1361 B( 16-S , 20-C ) :   1.1223 B( 17-C , 18-C ) :   1.6718
B( 17-C , 33-H ) :   0.9696 B( 18-C , 19-C ) :   1.1681 B( 18-C , 21-H ) :   0.9980
B( 19-C , 20-C ) :   1.6338 B( 19-C , 22-C ) :   1.0255 B( 22-C , 23-H ) :   0.9366
B( 22-C , 24-H ) :   0.9433 B( 22-C , 25-C ) :   1.0542 B( 25-C , 26-H ) :   0.9587
B( 25-C , 27-H ) :   0.9558 B( 25-C , 28-C ) :   1.0753 B( 28-C , 29-H ) :   0.9700
B( 28-C , 30-H ) :   0.9708 B( 28-C , 31-H ) :   0.9664

Dispersion correction           -0.015518508
FINAL SINGLE POINT ENERGY     -1339.868937381560

DIPOLE MOMENT
-------------
                                X             Y             Z
Electronic contribution:     14.99459      19.91139      17.16241
Nuclear contribution   :    -15.53450     -20.40050     -17.49470
                        -----------------------------------------
Total Dipole Moment    :     -0.53991      -0.48911      -0.33229
                        -----------------------------------------
Magnitude (a.u.)       :      0.80072
Magnitude (Debye)      :      2.03526

Rotational constants in cm-1:     0.017258     0.010402     0.007109
Rotational constants in MHz :   517.386340   311.850613   213.132592

                             ****ORCA TERMINATED NORMALLY****
TOTAL RUN TIME: 0 days 0 hours 0 minutes 36 seconds 224 msec
