                         Program Version 4.2.1 -  RELEASE  -
|  1> ! wB97X-D3 SP def2-SVP
|  2> %pal
|  3> nprocs 16
|  4> end
|  5>
|  6> * xyz 0 1
|  7> S 	 -48.5472 	 31.5832 	 94.7377
|  8> C 	 -49.7323 	 32.4943 	 93.8274
|  9> C 	 -50.5863 	 33.2427 	 94.5937
| 10> C 	 -50.2206 	 33.0897 	 95.9938
| 11> C 	 -49.2012 	 32.214 	 96.297
| 12> H 	 -50.7002 	 33.6069 	 96.756
| 13> C 	 -51.6597 	 34.1852 	 94.0285
| 14> H 	 -51.3848 	 34.5667 	 93.0469
| 15> H 	 -51.7812 	 34.9733 	 94.8143
| 16> C 	 -53.0408 	 33.528 	 93.6957
| 17> H 	 -53.4777 	 34.1994 	 93.0087
| 18> H 	 -52.7431 	 32.5456 	 93.2025
| 19> C 	 -54.0521 	 33.2253 	 94.911
| 20> H 	 -53.7571 	 32.3075 	 95.348
| 21> H 	 -54.0429 	 34.0171 	 95.6993
| 22> H 	 -55.0524 	 32.9903 	 94.5721
| 23> S 	 -46.904 	 32.0475 	 97.6957
| 24> C 	 -46.9516 	 31.7982 	 99.4202
| 25> C 	 -48.2281 	 31.4744 	 99.8091
| 26> C 	 -49.1633 	 31.3466 	 98.7493
| 27> C 	 -48.6281 	 31.8623 	 97.5784
| 28> H 	 -48.47 	 31.1419 	 100.852
| 29> C 	 -50.6567 	 31.0393 	 98.8744
| 30> H 	 -51.0619 	 31.9871 	 98.7128
| 31> H 	 -50.8765 	 30.7283 	 99.9134
| 32> C 	 -51.1247 	 29.9675 	 97.8504
| 33> H 	 -50.986 	 30.212 	 96.7795
| 34> H 	 -52.1829 	 29.9083 	 97.9813
| 35> C 	 -50.601 	 28.6006 	 97.9827
| 36> H 	 -51.0142 	 27.9736 	 97.1699
| 37> H 	 -50.6431 	 28.2291 	 98.9607
| 38> H 	 -49.5205 	 28.7171 	 97.7156
| 39> H 	 -49.7496 	 32.4904 	 92.8227
| 40> H 	 -46.1174 	 31.5737 	 100
| 41> *
| 42>
| 43>                          ****END OF INPUT****

CARTESIAN COORDINATES (ANGSTROEM)
---------------------------------
  S    -48.547200   31.583200   94.737700
  C    -49.732300   32.494300   93.827400
  C    -50.586300   33.242700   94.593700
  C    -50.220600   33.089700   95.993800
  C    -49.201200   32.214000   96.297000
  H    -50.700200   33.606900   96.756000
  C    -51.659700   34.185200   94.028500
  H    -51.384800   34.566700   93.046900
  H    -51.781200   34.973300   94.814300
  C    -53.040800   33.528000   93.695700
  H    -53.477700   34.199400   93.008700
  H    -52.743100   32.545600   93.202500
  C    -54.052100   33.225300   94.911000
  H    -53.757100   32.307500   95.348000
  H    -54.042900   34.017100   95.699300
  H    -55.052400   32.990300   94.572100
  S    -46.904000   32.047500   97.695700
  C    -46.951600   31.798200   99.420200
  C    -48.228100   31.474400   99.809100
  C    -49.163300   31.346600   98.749300
  C    -48.628100   31.862300   97.578400
  H    -48.470000   31.141900  100.852000
  C    -50.656700   31.039300   98.874400
  H    -51.061900   31.987100   98.712800
  H    -50.876500   30.728300   99.913400
  C    -51.124700   29.967500   97.850400
  H    -50.986000   30.212000   96.779500
  H    -52.182900   29.908300   97.981300
  C    -50.601000   28.600600   97.982700
  H    -51.014200   27.973600   97.169900
  H    -50.643100   28.229100   98.960700
  H    -49.520500   28.717100   97.715600
  H    -49.749600   32.490400   92.822700
  H    -46.117400   31.573700  100.000000

 Total Charge           Charge          ....    0
 Multiplicity           Mult            ....    1
 Number of Electrons    NEL             ....  134
 Basis Dimension        Dim             ....  322

ORBITAL ENERGIES
----------------

  NO   OCC          E(Eh)            E(eV)
   0   2.0000     -88.964480     -2420.8466
   1   2.0000     -88.963295     -2420.8143
   2   2.0000     -10.332860      -281.1714
   3   2.0000     -10.323463      -280.9157
   4   2.0000     -10.311612      -280.5932
   5   2.0000     -10.307588      -280.4837
   6   2.0000     -10.303606      -280.3754
   7   2.0000     -10.302559      -280.3469
   8   2.0000     -10.302454      -280.3440
   9   2.0000     -10.296533      -280.1829
  10   2.0000     -10.296366      -280.1784
  11   2.0000     -10.293918      -280.1118
  12   2.0000     -10.292740      -280.0797
  13   2.0000     -10.282660      -279.8054
  14   2.0000     -10.276087      -279.6265
  15   2.0000     -10.267245      -279.3859
  16   2.0000      -8.078617      -219.8303
  17   2.0000      -8.078558      -219.8287
  18   2.0000      -6.037174      -164.2799
  19   2.0000      -6.037026      -164.2758
  20   2.0000      -6.033160      -164.1706
  21   2.0000      -6.033061      -164.1679
  22   2.0000      -6.029404      -164.0684
  23   2.0000      -6.029246      -164.0641
  24   2.0000      -1.008101       -27.4318
  25   2.0000      -0.982711       -26.7409
  26   2.0000      -0.912131       -24.8203
  27   2.0000      -0.903514       -24.5859
  28   2.0000      -0.869824       -23.6691
  29   2.0000      -0.855225       -23.2719
  30   2.0000      -0.840501       -22.8712
  31   2.0000      -0.817936       -22.2572
  32   2.0000      -0.786393       -21.3988
  33   2.0000      -0.776645       -21.1336
  34   2.0000      -0.709829       -19.3154
  35   2.0000      -0.701398       -19.0860
  36   2.0000      -0.686939       -18.6926
  37   2.0000      -0.664040       -18.0695
  38   2.0000      -0.649343       -17.6695
  39   2.0000      -0.616366       -16.7722
  40   2.0000      -0.592295       -16.1172
  41   2.0000      -0.570234       -15.5169
  42   2.0000      -0.564048       -15.3485
  43   2.0000      -0.547998       -14.9118
  44   2.0000      -0.546193       -14.8627
  45   2.0000      -0.537111       -14.6155
  46   2.0000      -0.519279       -14.1303
  47   2.0000      -0.512586       -13.9482
  48   2.0000      -0.510840       -13.9007
  49   2.0000      -0.494853       -13.4656
  50   2.0000      -0.484777       -13.1914
  51   2.0000      -0.480028       -13.0622
  52   2.0000      -0.475748       -12.9458
  53   2.0000      -0.463623       -12.6158
  54   2.0000      -0.463080       -12.6010
  55   2.0000      -0.446624       -12.1533
  56   2.0000      -0.441850       -12.0234
  57   2.0000      -0.436282       -11.8718
  58   2.0000      -0.430599       -11.7172
  59   2.0000      -0.426029       -11.5929
  60   2.0000      -0.424105       -11.5405
  61   2.0000      -0.418271       -11.3817
  62   2.0000      -0.401331       -10.9208
  63   2.0000      -0.344765        -9.3815
  64   2.0000      -0.331363        -9.0168
  65   2.0000      -0.327938        -8.9237
  66   2.0000      -0.294626        -8.0172
  67   0.0000       0.026238         0.7140
  68   0.0000       0.066808         1.8179
  69   0.0000       0.109267         2.9733
  70   0.0000       0.122358         3.3295
  71   0.0000       0.128394         3.4938

MULLIKEN ATOMIC CHARGES
-----------------------
   0 S :    0.096309
   1 C :   -0.075991
   2 C :   -0.077047
   3 C :    0.057559
   4 C :   -0.149350
   5 H :   -0.019066
   6 C :    0.056279
   7 H :    0.030005
   8 H :    0.034987
   9 C :   -0.091549
  10 H :    0.031026
  11 H :    0.039457
  12 C :   -0.045405
  13 H :    0.024790
  14 H :    0.038836
  15 H :    0.034289
  16 S :    0.107783
  17 C :   -0.055131
  18 C :   -0.060004
  19 C :   -0.060504
  20 C :   -0.179979
  21 H :    0.031885
  22 C :    0.113629
  23 H :    0.025238
  24 H :    0.017652
  25 C :   -0.089733
  26 H :    0.045928
  27 H :    0.012971
  28 C :   -0.027169
  29 H :    0.041592
  30 H :    0.019225
  31 H :    0.030734
  32 H :   -0.001431
  33 H :    0.042187
Sum of atomic charges:    0.0000000

LOEWDIN ATOMIC CHARGES
----------------------
   0 S :    0.373260
   1 C :   -0.169163
   2 C :   -0.063726
   3 C :   -0.050151
   4 C :   -0.179888
   5 H :    0.016797
   6 C :   -0.028687
   7 H :    0.034509
   8 H :    0.033600
   9 C :   -0.035670
  10 H :    0.015080
  11 H :    0.032286
  12 C :   -0.069035
  13 H :    0.021198
  14 H :    0.027733
  15 H :    0.026825
  16 S :    0.418266
  17 C :   -0.181997
  18 C :   -0.076415
  19 C :   -0.055864
  20 C :   -0.205297
  21 H :    0.036582
  22 C :   -0.019300
  23 H :    0.027646
  24 H :    0.031806
  25 C :   -0.046105
  26 H :    0.032323
  27 H :    0.016205
  28 C :   -0.062369
  29 H :    0.034903
  30 H :    0.012919
  31 H :    0.030702
  32 H :    0.001661
  33 H :    0.019366

  Mayer bond orders larger than 0.100000
B(  0-S ,  1-C ) :   1.1386 B(  0-S ,  4-C ) :   1.1108 B(  1-C ,  2-C ) :   1.6290
B(  1-C , 32-H ) :   0.9761 B(  2-C ,  3-C ) :   1.2182 B(  2-C ,  6-C ) :   1.0233
B(  3-C ,  4-C ) :   1.6099 B(  3-C ,  5-H ) :   1.0016 B(  4-C , 20-C ) :   1.0543
B(  6-C ,  7-H ) :   0.9431 B(  6-C ,  8-H ) :   0.9435 B(  6-C ,  9-C ) :   1.0584
B(  9-C , 10-H ) :   0.9655 B(  9-C , 11-H ) :   0.9592 B(  9-C , 12-C ) :   1.0598
B( 12-C , 13-H ) :   0.9777 B( 12-C , 14-H ) :   0.9792 B( 12-C , 15-H ) :   0.9764
B( 16-S , 17-C ) :   1.1568 B( 16-S , 20-C ) :   1.1566 B( 17-C , 18-C ) :   1.5914
B( 17-C , 20-C ) :   0.1091 B( 17-C , 33-H ) :   0.9736 B( 18-C , 19-C ) :   1.2740
B( 18-C , 21-H ) :   0.9743 B( 19-C , 20-C ) :   1.5460 B( 19-C , 22-C ) :   1.0218
B( 22-C , 23-H ) :   0.9374 B( 22-C , 24-H ) :   0.9347 B( 22-C , 25-C ) :   1.0645
B( 25-C , 26-H ) :   0.9550 B( 25-C , 27-H ) :   0.9523 B( 25-C , 28-C ) :   1.0885
B( 28-C , 29-H ) :   0.9680 B( 28-C , 30-H ) :   0.9737 B( 28-C , 31-H ) :   0.9697

Dispersion correction           -0.015383204
FINAL SINGLE POINT ENERGY     -1339.861090648988

DIPOLE MOMENT
-------------
                                X             Y             Z
Electronic contribution:     26.68656       2.64585       0.65553
Nuclear contribution   :    -27.33631      -2.58383      -0.56127
                        -----------------------------------------
Total Dipole Moment    :     -0.64974       0.06202       0.09426
                        -----------------------------------------
Magnitude (a.u.)       :      0.65947
Magnitude (Debye)      :      1.67623

Rotational constants in cm-1:     0.020343     0.009016     0.007516
Rotational constants in MHz :   609.858958   270.293430   225.328477

                             ****ORCA TERMINATED NORMALLY****
TOTAL RUN TIME: 0 days 0 hours 0 minutes 32 seconds 161 msec
