                         Program Version 4.2.1 -  RELEASE  -
|  1> ! wB97X-D3 SP def2-SVP
|  2> %pal
|  3> nprocs 16
|  4> end
|  5>
|  6> * xyz 0 1
|  7> S 	 49.0893 	 21.0836 	 88.8966
|  8> C 	 48.1672 	 21.8674 	 90.2078
|  9> C 	 47.8907 	 23.2119 	 89.9452
| 10> C 	 48.5521 	 23.6226 	 88.7323
| 11> C 	 49.1065 	 22.6295 	 88.0019
| 12> H 	 48.3987 	 24.597 	 88.3884
| 13> C 	 47.1985 	 24.1231 	 90.9317
| 14> H 	 46.1747 	 23.7203 	 90.8671
| 15> H 	 47.096 	 25.1009 	 90.5285
| 16> C 	 47.8126 	 24.0855 	 92.3228
| 17> H 	 46.9887 	 24.3554 	 92.9645
| 18> H 	 48.1689 	 23.1091 	 92.6688
| 19> C 	 48.887 	 25.2374 	 92.4691
| 20> H 	 49.7418 	 25.1924 	 91.749
| 21> H 	 48.4328 	 26.2002 	 92.2907
| 22> H 	 49.3184 	 25.241 	 93.4461
| 23> S 	 48.7867 	 22.9665 	 85.3579
| 24> C 	 50.0592 	 22.8708 	 84.2356
| 25> C 	 51.2812 	 22.6084 	 84.9147
| 26> C 	 51.0966 	 22.4655 	 86.3408
| 27> C 	 49.7954 	 22.6622 	 86.7456
| 28> H 	 52.1786 	 22.4255 	 84.3642
| 29> C 	 52.2827 	 21.9882 	 87.1941
| 30> H 	 52.0633 	 20.9857 	 87.5777
| 31> H 	 52.2485 	 22.6204 	 88.139
| 32> C 	 53.6754 	 22.0449 	 86.7038
| 33> H 	 53.9556 	 23.1113 	 86.5274
| 34> H 	 53.6938 	 21.5427 	 85.7093
| 35> C 	 54.6175 	 21.2391 	 87.6007
| 36> H 	 55.6282 	 21.0701 	 87.2433
| 37> H 	 54.2894 	 20.2593 	 87.769
| 38> H 	 54.829 	 21.7994 	 88.5223
| 39> H 	 47.7249 	 21.2702 	 90.9806
| 40> H 	 50.0218 	 22.9539 	 83.1871
| 41> *
| 42>
| 43>                          ****END OF INPUT****

CARTESIAN COORDINATES (ANGSTROEM)
---------------------------------
  S     49.089300   21.083600   88.896600
  C     48.167200   21.867400   90.207800
  C     47.890700   23.211900   89.945200
  C     48.552100   23.622600   88.732300
  C     49.106500   22.629500   88.001900
  H     48.398700   24.597000   88.388400
  C     47.198500   24.123100   90.931700
  H     46.174700   23.720300   90.867100
  H     47.096000   25.100900   90.528500
  C     47.812600   24.085500   92.322800
  H     46.988700   24.355400   92.964500
  H     48.168900   23.109100   92.668800
  C     48.887000   25.237400   92.469100
  H     49.741800   25.192400   91.749000
  H     48.432800   26.200200   92.290700
  H     49.318400   25.241000   93.446100
  S     48.786700   22.966500   85.357900
  C     50.059200   22.870800   84.235600
  C     51.281200   22.608400   84.914700
  C     51.096600   22.465500   86.340800
  C     49.795400   22.662200   86.745600
  H     52.178600   22.425500   84.364200
  C     52.282700   21.988200   87.194100
  H     52.063300   20.985700   87.577700
  H     52.248500   22.620400   88.139000
  C     53.675400   22.044900   86.703800
  H     53.955600   23.111300   86.527400
  H     53.693800   21.542700   85.709300
  C     54.617500   21.239100   87.600700
  H     55.628200   21.070100   87.243300
  H     54.289400   20.259300   87.769000
  H     54.829000   21.799400   88.522300
  H     47.724900   21.270200   90.980600
  H     50.021800   22.953900   83.187100

 Total Charge           Charge          ....    0
 Multiplicity           Mult            ....    1
 Number of Electrons    NEL             ....  134
 Basis Dimension        Dim             ....  322

ORBITAL ENERGIES
----------------

  NO   OCC          E(Eh)            E(eV)
   0   2.0000     -88.963791     -2420.8278
   1   2.0000     -88.962388     -2420.7897
   2   2.0000     -10.326733      -281.0047
   3   2.0000     -10.319708      -280.8135
   4   2.0000     -10.313642      -280.6485
   5   2.0000     -10.313465      -280.6437
   6   2.0000     -10.304476      -280.3990
   7   2.0000     -10.300787      -280.2987
   8   2.0000     -10.292350      -280.0691
   9   2.0000     -10.291755      -280.0529
  10   2.0000     -10.291650      -280.0500
  11   2.0000     -10.289300      -279.9861
  12   2.0000     -10.289145      -279.9819
  13   2.0000     -10.288316      -279.9593
  14   2.0000     -10.280054      -279.7345
  15   2.0000     -10.274363      -279.5796
  16   2.0000      -8.079326      -219.8496
  17   2.0000      -8.076147      -219.7631
  18   2.0000      -6.037761      -164.2958
  19   2.0000      -6.034714      -164.2129
  20   2.0000      -6.033431      -164.1780
  21   2.0000      -6.030866      -164.1082
  22   2.0000      -6.030412      -164.0959
  23   2.0000      -6.026846      -163.9988
  24   2.0000      -1.005654       -27.3652
  25   2.0000      -0.979488       -26.6532
  26   2.0000      -0.913711       -24.8633
  27   2.0000      -0.912742       -24.8370
  28   2.0000      -0.866167       -23.5696
  29   2.0000      -0.849605       -23.1189
  30   2.0000      -0.842999       -22.9392
  31   2.0000      -0.812366       -22.1056
  32   2.0000      -0.783160       -21.3109
  33   2.0000      -0.771792       -21.0015
  34   2.0000      -0.712418       -19.3859
  35   2.0000      -0.705395       -19.1948
  36   2.0000      -0.696344       -18.9485
  37   2.0000      -0.655717       -17.8430
  38   2.0000      -0.641362       -17.4523
  39   2.0000      -0.617690       -16.8082
  40   2.0000      -0.598227       -16.2786
  41   2.0000      -0.574885       -15.6434
  42   2.0000      -0.571376       -15.5479
  43   2.0000      -0.553356       -15.0576
  44   2.0000      -0.537072       -14.6145
  45   2.0000      -0.522191       -14.2095
  46   2.0000      -0.517770       -14.0892
  47   2.0000      -0.512014       -13.9326
  48   2.0000      -0.510064       -13.8796
  49   2.0000      -0.492795       -13.4096
  50   2.0000      -0.485912       -13.2223
  51   2.0000      -0.473606       -12.8875
  52   2.0000      -0.471368       -12.8266
  53   2.0000      -0.462865       -12.5952
  54   2.0000      -0.457883       -12.4596
  55   2.0000      -0.450650       -12.2628
  56   2.0000      -0.445485       -12.1223
  57   2.0000      -0.440242       -11.9796
  58   2.0000      -0.433776       -11.8036
  59   2.0000      -0.429001       -11.6737
  60   2.0000      -0.419480       -11.4146
  61   2.0000      -0.413655       -11.2561
  62   2.0000      -0.404020       -10.9939
  63   2.0000      -0.337655        -9.1881
  64   2.0000      -0.328124        -8.9287
  65   2.0000      -0.324530        -8.8309
  66   2.0000      -0.296857        -8.0779
  67   0.0000       0.037746         1.0271
  68   0.0000       0.061569         1.6754
  69   0.0000       0.108056         2.9403
  70   0.0000       0.123276         3.3545
  71   0.0000       0.129370         3.5203

MULLIKEN ATOMIC CHARGES
-----------------------
   0 S :    0.096874
   1 C :   -0.135276
   2 C :   -0.122404
   3 C :    0.076922
   4 C :   -0.155143
   5 H :   -0.012568
   6 C :    0.083577
   7 H :    0.040103
   8 H :    0.005503
   9 C :   -0.044483
  10 H :    0.024583
  11 H :    0.039628
  12 C :   -0.057532
  13 H :    0.040340
  14 H :    0.024060
  15 H :    0.031680
  16 S :    0.126165
  17 C :   -0.065461
  18 C :   -0.070603
  19 C :    0.008767
  20 C :   -0.174524
  21 H :    0.014973
  22 C :    0.034016
  23 H :    0.028678
  24 H :    0.034187
  25 C :   -0.092101
  26 H :    0.041611
  27 H :    0.029708
  28 C :   -0.013394
  29 H :    0.020265
  30 H :    0.021719
  31 H :    0.030650
  32 H :    0.048762
  33 H :    0.040722
Sum of atomic charges:    0.0000000

LOEWDIN ATOMIC CHARGES
----------------------
   0 S :    0.375463
   1 C :   -0.184153
   2 C :   -0.057035
   3 C :   -0.053454
   4 C :   -0.182714
   5 H :    0.022483
   6 C :   -0.032275
   7 H :    0.040519
   8 H :    0.024678
   9 C :   -0.031343
  10 H :    0.024505
  11 H :    0.026200
  12 C :   -0.062843
  13 H :    0.029874
  14 H :    0.021818
  15 H :    0.021541
  16 S :    0.444366
  17 C :   -0.197090
  18 C :   -0.075656
  19 C :   -0.052214
  20 C :   -0.216418
  21 H :    0.024753
  22 C :   -0.043513
  23 H :    0.029545
  24 H :    0.039021
  25 C :   -0.048928
  26 H :    0.030723
  27 H :    0.023647
  28 C :   -0.059723
  29 H :    0.026734
  30 H :    0.020076
  31 H :    0.029093
  32 H :    0.019986
  33 H :    0.022335

  Mayer bond orders larger than 0.100000
B(  0-S ,  1-C ) :   1.1368 B(  0-S ,  4-C ) :   1.1247 B(  1-C ,  2-C ) :   1.6203
B(  1-C ,  4-C ) :   0.1009 B(  1-C , 32-H ) :   0.9673 B(  2-C ,  3-C ) :   1.2300
B(  2-C ,  6-C ) :   1.0152 B(  3-C ,  4-C ) :   1.6173 B(  3-C ,  5-H ) :   0.9963
B(  4-C , 20-C ) :   1.0150 B(  6-C ,  7-H ) :   0.9292 B(  6-C ,  8-H ) :   0.9413
B(  6-C ,  9-C ) :   1.0626 B(  9-C , 10-H ) :   0.9514 B(  9-C , 11-H ) :   0.9623
B(  9-C , 12-C ) :   1.0690 B( 12-C , 13-H ) :   0.9799 B( 12-C , 14-H ) :   0.9766
B( 12-C , 15-H ) :   0.9764 B( 16-S , 17-C ) :   1.1906 B( 16-S , 20-C ) :   1.1557
B( 17-C , 18-C ) :   1.5610 B( 17-C , 20-C ) :   0.1044 B( 17-C , 33-H ) :   0.9719
B( 18-C , 19-C ) :   1.2672 B( 18-C , 21-H ) :   0.9893 B( 19-C , 20-C ) :   1.5839
B( 19-C , 22-C ) :   1.0220 B( 22-C , 23-H ) :   0.9350 B( 22-C , 24-H ) :   0.9259
B( 22-C , 25-C ) :   1.0845 B( 25-C , 26-H ) :   0.9540 B( 25-C , 27-H ) :   0.9409
B( 25-C , 28-C ) :   1.0846 B( 28-C , 29-H ) :   0.9717 B( 28-C , 30-H ) :   0.9719
B( 28-C , 31-H ) :   0.9736

Dispersion correction           -0.013769182
FINAL SINGLE POINT ENERGY     -1339.874725779142

DIPOLE MOMENT
-------------
                                X             Y             Z
Electronic contribution:    -13.70896      -6.48844     -16.47584
Nuclear contribution   :     13.83065       6.69549      16.77443
                        -----------------------------------------
Total Dipole Moment    :      0.12170       0.20705       0.29859
                        -----------------------------------------
Magnitude (a.u.)       :      0.38319
Magnitude (Debye)      :      0.97399

Rotational constants in cm-1:     0.018960     0.007778     0.006451
Rotational constants in MHz :   568.400515   233.191047   193.382760

                             ****ORCA TERMINATED NORMALLY****
TOTAL RUN TIME: 0 days 0 hours 0 minutes 28 seconds 856 msec
