                         Program Version 4.2.1 -  RELEASE  -
|  1> ! wB97X-D3 SP def2-SVP
|  2> %pal
|  3> nprocs 16
|  4> end
|  5>
|  6> * xyz 0 1
|  7> S 	 18.6007 	 -9.96412 	 81.7844
|  8> C 	 18.7408 	 -11.6113 	 82.4743
|  9> C 	 18.7708 	 -12.5454 	 81.4468
| 10> C 	 18.5564 	 -11.9894 	 80.1444
| 11> C 	 18.5524 	 -10.6157 	 80.1569
| 12> H 	 18.3771 	 -12.4813 	 79.2328
| 13> C 	 18.8382 	 -14.0392 	 81.6613
| 14> H 	 18.5742 	 -14.2695 	 82.7215
| 15> H 	 19.8897 	 -14.3306 	 81.3987
| 16> C 	 17.9431 	 -14.9771 	 80.8266
| 17> H 	 18.0153 	 -14.7418 	 79.761
| 18> H 	 18.209 	 -16.0148 	 80.979
| 19> C 	 16.457 	 -14.6657 	 81.2598
| 20> H 	 16.2636 	 -13.6244 	 80.9949
| 21> H 	 15.6584 	 -15.1763 	 80.6737
| 22> H 	 16.2413 	 -14.885 	 82.2717
| 23> S 	 19.2041 	 -8.17375 	 79.0062
| 24> C 	 18.8685 	 -7.85019 	 77.3467
| 25> C 	 18.1746 	 -8.89648 	 76.803
| 26> C 	 18.0235 	 -10.0996 	 77.6804
| 27> C 	 18.4977 	 -9.78616 	 78.9437
| 28> H 	 17.7738 	 -8.87909 	 75.8249
| 29> C 	 17.2603 	 -11.3875 	 77.2344
| 30> H 	 16.2943 	 -11.1188 	 76.797
| 31> H 	 16.9492 	 -11.9732 	 78.0825
| 32> C 	 17.955 	 -12.1868 	 76.1298
| 33> H 	 19.0624 	 -12.4162 	 76.4524
| 34> H 	 18.1368 	 -11.5431 	 75.3004
| 35> C 	 17.3528 	 -13.5217 	 75.7591
| 36> H 	 17.7581 	 -13.9021 	 74.8638
| 37> H 	 16.3013 	 -13.3537 	 75.6662
| 38> H 	 17.534 	 -14.2294 	 76.5887
| 39> H 	 18.9332 	 -11.7636 	 83.5681
| 40> H 	 19.1245 	 -6.90813 	 76.8284
| 41> *
| 42>
| 43>                          ****END OF INPUT****

CARTESIAN COORDINATES (ANGSTROEM)
---------------------------------
  S     18.600700   -9.964120   81.784400
  C     18.740800  -11.611300   82.474300
  C     18.770800  -12.545400   81.446800
  C     18.556400  -11.989400   80.144400
  C     18.552400  -10.615700   80.156900
  H     18.377100  -12.481300   79.232800
  C     18.838200  -14.039200   81.661300
  H     18.574200  -14.269500   82.721500
  H     19.889700  -14.330600   81.398700
  C     17.943100  -14.977100   80.826600
  H     18.015300  -14.741800   79.761000
  H     18.209000  -16.014800   80.979000
  C     16.457000  -14.665700   81.259800
  H     16.263600  -13.624400   80.994900
  H     15.658400  -15.176300   80.673700
  H     16.241300  -14.885000   82.271700
  S     19.204100   -8.173750   79.006200
  C     18.868500   -7.850190   77.346700
  C     18.174600   -8.896480   76.803000
  C     18.023500  -10.099600   77.680400
  C     18.497700   -9.786160   78.943700
  H     17.773800   -8.879090   75.824900
  C     17.260300  -11.387500   77.234400
  H     16.294300  -11.118800   76.797000
  H     16.949200  -11.973200   78.082500
  C     17.955000  -12.186800   76.129800
  H     19.062400  -12.416200   76.452400
  H     18.136800  -11.543100   75.300400
  C     17.352800  -13.521700   75.759100
  H     17.758100  -13.902100   74.863800
  H     16.301300  -13.353700   75.666200
  H     17.534000  -14.229400   76.588700
  H     18.933200  -11.763600   83.568100
  H     19.124500   -6.908130   76.828400

 Total Charge           Charge          ....    0
 Multiplicity           Mult            ....    1
 Number of Electrons    NEL             ....  134
 Basis Dimension        Dim             ....  322

ORBITAL ENERGIES
----------------

  NO   OCC          E(Eh)            E(eV)
   0   2.0000     -88.967079     -2420.9173
   1   2.0000     -88.964547     -2420.8484
   2   2.0000     -10.332318      -281.1567
   3   2.0000     -10.332203      -281.1535
   4   2.0000     -10.321286      -280.8565
   5   2.0000     -10.320052      -280.8229
   6   2.0000     -10.313926      -280.6562
   7   2.0000     -10.306015      -280.4409
   8   2.0000     -10.301284      -280.3122
   9   2.0000     -10.297331      -280.2046
  10   2.0000     -10.297288      -280.2035
  11   2.0000     -10.293130      -280.0903
  12   2.0000     -10.291987      -280.0592
  13   2.0000     -10.289357      -279.9876
  14   2.0000     -10.278580      -279.6944
  15   2.0000     -10.275902      -279.6215
  16   2.0000      -8.081083      -219.8974
  17   2.0000      -8.079817      -219.8630
  18   2.0000      -6.039771      -164.3505
  19   2.0000      -6.038485      -164.3155
  20   2.0000      -6.035747      -164.2410
  21   2.0000      -6.034247      -164.2002
  22   2.0000      -6.031650      -164.1296
  23   2.0000      -6.030377      -164.0949
  24   2.0000      -1.005282       -27.3551
  25   2.0000      -0.981628       -26.7115
  26   2.0000      -0.913340       -24.8532
  27   2.0000      -0.910134       -24.7660
  28   2.0000      -0.869989       -23.6736
  29   2.0000      -0.852330       -23.1931
  30   2.0000      -0.839815       -22.8525
  31   2.0000      -0.814733       -22.1700
  32   2.0000      -0.787785       -21.4367
  33   2.0000      -0.772570       -21.0227
  34   2.0000      -0.709204       -19.2984
  35   2.0000      -0.698611       -19.0102
  36   2.0000      -0.692869       -18.8539
  37   2.0000      -0.661496       -18.0002
  38   2.0000      -0.637807       -17.3556
  39   2.0000      -0.626150       -17.0384
  40   2.0000      -0.601161       -16.3584
  41   2.0000      -0.566398       -15.4125
  42   2.0000      -0.561766       -15.2864
  43   2.0000      -0.553482       -15.0610
  44   2.0000      -0.540999       -14.7213
  45   2.0000      -0.535341       -14.5674
  46   2.0000      -0.524021       -14.2593
  47   2.0000      -0.514260       -13.9937
  48   2.0000      -0.502422       -13.6716
  49   2.0000      -0.495886       -13.4937
  50   2.0000      -0.492105       -13.3908
  51   2.0000      -0.484750       -13.1907
  52   2.0000      -0.470213       -12.7952
  53   2.0000      -0.468530       -12.7494
  54   2.0000      -0.456159       -12.4127
  55   2.0000      -0.454583       -12.3698
  56   2.0000      -0.447366       -12.1735
  57   2.0000      -0.438786       -11.9400
  58   2.0000      -0.431919       -11.7531
  59   2.0000      -0.427216       -11.6251
  60   2.0000      -0.419767       -11.4224
  61   2.0000      -0.417980       -11.3738
  62   2.0000      -0.405822       -11.0430
  63   2.0000      -0.360430        -9.8078
  64   2.0000      -0.331728        -9.0268
  65   2.0000      -0.327006        -8.8983
  66   2.0000      -0.287999        -7.8369
  67   0.0000       0.024135         0.6568
  68   0.0000       0.081522         2.2183
  69   0.0000       0.105876         2.8810
  70   0.0000       0.113297         3.0830
  71   0.0000       0.119603         3.2546

MULLIKEN ATOMIC CHARGES
-----------------------
   0 S :    0.097364
   1 C :   -0.151582
   2 C :   -0.059249
   3 C :    0.006555
   4 C :   -0.102384
   5 H :   -0.018672
   6 C :    0.037357
   7 H :    0.029065
   8 H :    0.050052
   9 C :   -0.068270
  10 H :    0.031405
  11 H :    0.037350
  12 C :   -0.070323
  13 H :    0.040006
  14 H :    0.028121
  15 H :    0.028018
  16 S :    0.098065
  17 C :   -0.090417
  18 C :   -0.011511
  19 C :   -0.057252
  20 C :   -0.131380
  21 H :    0.003845
  22 C :    0.056764
  23 H :    0.026466
  24 H :    0.016375
  25 C :   -0.130912
  26 H :    0.032179
  27 H :    0.022184
  28 C :    0.013753
  29 H :    0.032864
  30 H :    0.019592
  31 H :    0.034881
  32 H :    0.074320
  33 H :    0.075369
Sum of atomic charges:    0.0000000

LOEWDIN ATOMIC CHARGES
----------------------
   0 S :    0.381879
   1 C :   -0.196545
   2 C :   -0.059033
   3 C :   -0.067346
   4 C :   -0.175507
   5 H :    0.021448
   6 C :   -0.036244
   7 H :    0.032832
   8 H :    0.039161
   9 C :   -0.036476
  10 H :    0.020764
  11 H :    0.025198
  12 C :   -0.068659
  13 H :    0.028179
  14 H :    0.025835
  15 H :    0.017202
  16 S :    0.402099
  17 C :   -0.197125
  18 C :   -0.064456
  19 C :   -0.051251
  20 C :   -0.186621
  21 H :    0.021275
  22 C :   -0.032617
  23 H :    0.033596
  24 H :    0.024223
  25 C :   -0.050050
  26 H :    0.029070
  27 H :    0.017153
  28 C :   -0.055390
  29 H :    0.024637
  30 H :    0.020712
  31 H :    0.029885
  32 H :    0.040641
  33 H :    0.041530

  Mayer bond orders larger than 0.100000
B(  0-S ,  1-C ) :   1.1099 B(  0-S ,  4-C ) :   1.1484 B(  1-C ,  2-C ) :   1.6214
B(  1-C , 32-H ) :   0.9632 B(  2-C ,  3-C ) :   1.2117 B(  2-C ,  6-C ) :   1.0192
B(  3-C ,  4-C ) :   1.5855 B(  3-C ,  5-H ) :   0.9954 B(  4-C , 20-C ) :   1.0590
B(  6-C ,  7-H ) :   0.9514 B(  6-C ,  8-H ) :   0.9295 B(  6-C ,  9-C ) :   1.0766
B(  9-C , 10-H ) :   0.9513 B(  9-C , 11-H ) :   0.9567 B(  9-C , 12-C ) :   1.0665
B( 12-C , 13-H ) :   0.9750 B( 12-C , 14-H ) :   0.9760 B( 12-C , 15-H ) :   0.9792
B( 16-S , 17-C ) :   1.1367 B( 16-S , 20-C ) :   1.1317 B( 17-C , 18-C ) :   1.6278
B( 17-C , 33-H ) :   0.9660 B( 18-C , 19-C ) :   1.2148 B( 18-C , 21-H ) :   0.9919
B( 19-C , 20-C ) :   1.6240 B( 19-C , 22-C ) :   1.0328 B( 22-C , 23-H ) :   0.9275
B( 22-C , 24-H ) :   0.9431 B( 22-C , 25-C ) :   1.0473 B( 25-C , 26-H ) :   0.9552
B( 25-C , 27-H ) :   0.9560 B( 25-C , 28-C ) :   1.0814 B( 28-C , 29-H ) :   0.9710
B( 28-C , 30-H ) :   0.9710 B( 28-C , 31-H ) :   0.9740

Dispersion correction           -0.014746318
FINAL SINGLE POINT ENERGY     -1339.881428493536

DIPOLE MOMENT
-------------
                                X             Y             Z
Electronic contribution:      9.59684      28.91724      10.61685
Nuclear contribution   :     -9.81648     -29.47828     -11.07734
                        -----------------------------------------
Total Dipole Moment    :     -0.21964      -0.56104      -0.46049
                        -----------------------------------------
Magnitude (a.u.)       :      0.75833
Magnitude (Debye)      :      1.92751

Rotational constants in cm-1:     0.016227     0.010771     0.006828
Rotational constants in MHz :   486.476462   322.907254   204.697955

                             ****ORCA TERMINATED NORMALLY****
TOTAL RUN TIME: 0 days 0 hours 0 minutes 30 seconds 642 msec
