                         Program Version 4.2.1 -  RELEASE  -
|  1> ! wB97X-D3 SP def2-SVP
|  2> %pal
|  3> nprocs 16
|  4> end
|  5>
|  6> * xyz 0 1
|  7> S 	 8.03403 	 -22.7967 	 85.2351
|  8> C 	 6.80033 	 -21.5992 	 84.9442
|  9> C 	 7.25991 	 -20.5867 	 84.134
| 10> C 	 8.64715 	 -20.7558 	 83.7589
| 11> C 	 9.26767 	 -21.8025 	 84.4462
| 12> H 	 9.11089 	 -20.2163 	 83.0176
| 13> C 	 6.44464 	 -19.4269 	 83.5941
| 14> H 	 6.97769 	 -18.7034 	 82.9915
| 15> H 	 6.15772 	 -18.8483 	 84.4629
| 16> C 	 5.13757 	 -19.8336 	 82.8231
| 17> H 	 5.30475 	 -20.3042 	 81.8079
| 18> H 	 4.64155 	 -20.6864 	 83.3366
| 19> C 	 4.12583 	 -18.6163 	 82.7259
| 20> H 	 3.17633 	 -18.9772 	 82.28
| 21> H 	 4.06251 	 -18.1754 	 83.7497
| 22> H 	 4.49258 	 -17.9079 	 81.9614
| 23> S 	 10.9575 	 -23.7988 	 83.5622
| 24> C 	 12.6632 	 -23.5505 	 83.4995
| 25> C 	 13.0089 	 -22.4672 	 84.2243
| 26> C 	 11.8709 	 -21.6115 	 84.655
| 27> C 	 10.6985 	 -22.1949 	 84.301
| 28> H 	 14.0545 	 -22.2053 	 84.4031
| 29> C 	 11.9861 	 -20.3338 	 85.3405
| 30> H 	 10.983 	 -20.1449 	 85.7321
| 31> H 	 12.0771 	 -19.4701 	 84.6416
| 32> C 	 12.9974 	 -20.2644 	 86.507
| 33> H 	 14.0062 	 -20.4057 	 86.1271
| 34> H 	 12.8134 	 -21.1028 	 87.1152
| 35> C 	 12.9304 	 -18.9541 	 87.3967
| 36> H 	 13.0768 	 -18.1005 	 86.74
| 37> H 	 13.7285 	 -18.9776 	 88.198
| 38> H 	 12.0082 	 -18.7122 	 87.8663
| 39> H 	 5.7377 	 -21.7428 	 85.0733
| 40> H 	 13.3188 	 -24.2984 	 83.1146
| 41> *
| 42>
| 43>                          ****END OF INPUT****

CARTESIAN COORDINATES (ANGSTROEM)
---------------------------------
  S      8.034030  -22.796700   85.235100
  C      6.800330  -21.599200   84.944200
  C      7.259910  -20.586700   84.134000
  C      8.647150  -20.755800   83.758900
  C      9.267670  -21.802500   84.446200
  H      9.110890  -20.216300   83.017600
  C      6.444640  -19.426900   83.594100
  H      6.977690  -18.703400   82.991500
  H      6.157720  -18.848300   84.462900
  C      5.137570  -19.833600   82.823100
  H      5.304750  -20.304200   81.807900
  H      4.641550  -20.686400   83.336600
  C      4.125830  -18.616300   82.725900
  H      3.176330  -18.977200   82.280000
  H      4.062510  -18.175400   83.749700
  H      4.492580  -17.907900   81.961400
  S     10.957500  -23.798800   83.562200
  C     12.663200  -23.550500   83.499500
  C     13.008900  -22.467200   84.224300
  C     11.870900  -21.611500   84.655000
  C     10.698500  -22.194900   84.301000
  H     14.054500  -22.205300   84.403100
  C     11.986100  -20.333800   85.340500
  H     10.983000  -20.144900   85.732100
  H     12.077100  -19.470100   84.641600
  C     12.997400  -20.264400   86.507000
  H     14.006200  -20.405700   86.127100
  H     12.813400  -21.102800   87.115200
  C     12.930400  -18.954100   87.396700
  H     13.076800  -18.100500   86.740000
  H     13.728500  -18.977600   88.198000
  H     12.008200  -18.712200   87.866300
  H      5.737700  -21.742800   85.073300
  H     13.318800  -24.298400   83.114600

 Total Charge           Charge          ....    0
 Multiplicity           Mult            ....    1
 Number of Electrons    NEL             ....  134
 Basis Dimension        Dim             ....  322

ORBITAL ENERGIES
----------------

  NO   OCC          E(Eh)            E(eV)
   0   2.0000     -88.968052     -2420.9438
   1   2.0000     -88.956713     -2420.6352
   2   2.0000     -10.334171      -281.2071
   3   2.0000     -10.326799      -281.0065
   4   2.0000     -10.312824      -280.6262
   5   2.0000     -10.312657      -280.6217
   6   2.0000     -10.303992      -280.3859
   7   2.0000     -10.302277      -280.3392
   8   2.0000     -10.298065      -280.2246
   9   2.0000     -10.295162      -280.1456
  10   2.0000     -10.295062      -280.1429
  11   2.0000     -10.291962      -280.0585
  12   2.0000     -10.290297      -280.0132
  13   2.0000     -10.288822      -279.9731
  14   2.0000     -10.287585      -279.9394
  15   2.0000     -10.282945      -279.8132
  16   2.0000      -8.082331      -219.9314
  17   2.0000      -8.072218      -219.6562
  18   2.0000      -6.041014      -164.3843
  19   2.0000      -6.036920      -164.2729
  20   2.0000      -6.032915      -164.1639
  21   2.0000      -6.030815      -164.1068
  22   2.0000      -6.026766      -163.9966
  23   2.0000      -6.022678      -163.8854
  24   2.0000      -1.003881       -27.3170
  25   2.0000      -0.983863       -26.7723
  26   2.0000      -0.909534       -24.7497
  27   2.0000      -0.903765       -24.5927
  28   2.0000      -0.866560       -23.5803
  29   2.0000      -0.847324       -23.0569
  30   2.0000      -0.842690       -22.9308
  31   2.0000      -0.814136       -22.1538
  32   2.0000      -0.779881       -21.2216
  33   2.0000      -0.771120       -20.9833
  34   2.0000      -0.711824       -19.3697
  35   2.0000      -0.704197       -19.1622
  36   2.0000      -0.694731       -18.9046
  37   2.0000      -0.656121       -17.8540
  38   2.0000      -0.642842       -17.4926
  39   2.0000      -0.617912       -16.8142
  40   2.0000      -0.601353       -16.3636
  41   2.0000      -0.570205       -15.5161
  42   2.0000      -0.561578       -15.2813
  43   2.0000      -0.553463       -15.0605
  44   2.0000      -0.527949       -14.3662
  45   2.0000      -0.523015       -14.2320
  46   2.0000      -0.511095       -13.9076
  47   2.0000      -0.510802       -13.8996
  48   2.0000      -0.507169       -13.8008
  49   2.0000      -0.497134       -13.5277
  50   2.0000      -0.491267       -13.3681
  51   2.0000      -0.480256       -13.0684
  52   2.0000      -0.471261       -12.8237
  53   2.0000      -0.468499       -12.7485
  54   2.0000      -0.455467       -12.3939
  55   2.0000      -0.448628       -12.2078
  56   2.0000      -0.444333       -12.0909
  57   2.0000      -0.441918       -12.0252
  58   2.0000      -0.433449       -11.7948
  59   2.0000      -0.425338       -11.5740
  60   2.0000      -0.420091       -11.4313
  61   2.0000      -0.417621       -11.3641
  62   2.0000      -0.411148       -11.1879
  63   2.0000      -0.342010        -9.3066
  64   2.0000      -0.327768        -8.9190
  65   2.0000      -0.322896        -8.7865
  66   2.0000      -0.302245        -8.2245
  67   0.0000       0.034116         0.9283
  68   0.0000       0.064733         1.7615
  69   0.0000       0.111692         3.0393
  70   0.0000       0.121645         3.3101
  71   0.0000       0.133517         3.6332

MULLIKEN ATOMIC CHARGES
-----------------------
   0 S :    0.113879
   1 C :   -0.111921
   2 C :   -0.086216
   3 C :    0.066543
   4 C :   -0.160030
   5 H :   -0.013102
   6 C :    0.084283
   7 H :    0.019547
   8 H :    0.030927
   9 C :   -0.129437
  10 H :    0.040203
  11 H :    0.026507
  12 C :   -0.071659
  13 H :    0.042287
  14 H :    0.048980
  15 H :    0.040902
  16 S :    0.081320
  17 C :   -0.071742
  18 C :   -0.028979
  19 C :   -0.030492
  20 C :   -0.166521
  21 H :    0.021577
  22 C :    0.063295
  23 H :    0.020454
  24 H :    0.037370
  25 C :   -0.075923
  26 H :    0.030756
  27 H :    0.025544
  28 C :   -0.049131
  29 H :    0.023544
  30 H :    0.046047
  31 H :    0.027872
  32 H :    0.049768
  33 H :    0.053547
Sum of atomic charges:    0.0000000

LOEWDIN ATOMIC CHARGES
----------------------
   0 S :    0.403510
   1 C :   -0.202262
   2 C :   -0.059976
   3 C :   -0.045033
   4 C :   -0.191602
   5 H :    0.018060
   6 C :   -0.033566
   7 H :    0.028272
   8 H :    0.033963
   9 C :   -0.047864
  10 H :    0.028926
  11 H :    0.019174
  12 C :   -0.072301
  13 H :    0.030217
  14 H :    0.030469
  15 H :    0.027225
  16 S :    0.382198
  17 C :   -0.179388
  18 C :   -0.072521
  19 C :   -0.053213
  20 C :   -0.182344
  21 H :    0.030090
  22 C :   -0.042220
  23 H :    0.034564
  24 H :    0.036303
  25 C :   -0.031403
  26 H :    0.022005
  27 H :    0.019764
  28 C :   -0.065010
  29 H :    0.023599
  30 H :    0.034715
  31 H :    0.020062
  32 H :    0.028467
  33 H :    0.027120

  Mayer bond orders larger than 0.100000
B(  0-S ,  1-C ) :   1.1334 B(  0-S ,  4-C ) :   1.1520 B(  1-C ,  2-C ) :   1.6200
B(  1-C , 32-H ) :   0.9635 B(  2-C ,  3-C ) :   1.2479 B(  2-C ,  6-C ) :   1.0151
B(  3-C ,  4-C ) :   1.5578 B(  3-C ,  5-H ) :   1.0085 B(  4-C , 20-C ) :   1.0153
B(  6-C ,  7-H ) :   0.9490 B(  6-C ,  8-H ) :   0.9390 B(  6-C ,  9-C ) :   1.0417
B(  9-C , 10-H ) :   0.9567 B(  9-C , 11-H ) :   0.9637 B(  9-C , 12-C ) :   1.0663
B( 12-C , 13-H ) :   0.9746 B( 12-C , 14-H ) :   0.9764 B( 12-C , 15-H ) :   0.9777
B( 16-S , 17-C ) :   1.1413 B( 16-S , 20-C ) :   1.1184 B( 17-C , 18-C ) :   1.6518
B( 17-C , 33-H ) :   0.9701 B( 18-C , 19-C ) :   1.1676 B( 18-C , 21-H ) :   0.9890
B( 19-C , 20-C ) :   1.6653 B( 19-C , 22-C ) :   1.0745 B( 22-C , 23-H ) :   0.9238
B( 22-C , 24-H ) :   0.9199 B( 22-C , 25-C ) :   1.0531 B( 25-C , 26-H ) :   0.9542
B( 25-C , 27-H ) :   0.9605 B( 25-C , 28-C ) :   1.0786 B( 28-C , 29-H ) :   0.9748
B( 28-C , 30-H ) :   0.9768 B( 28-C , 31-H ) :   0.9780

Dispersion correction           -0.013336839
FINAL SINGLE POINT ENERGY     -1339.874658540305

DIPOLE MOMENT
-------------
                                X             Y             Z
Electronic contribution:      5.27283     -24.39435      -2.52191
Nuclear contribution   :     -5.24708      24.97411       2.37610
                        -----------------------------------------
Total Dipole Moment    :      0.02575       0.57976      -0.14581
                        -----------------------------------------
Magnitude (a.u.)       :      0.59837
Magnitude (Debye)      :      1.52094

Rotational constants in cm-1:     0.019524     0.007081     0.005895
Rotational constants in MHz :   585.303128   212.270921   176.717748

                             ****ORCA TERMINATED NORMALLY****
TOTAL RUN TIME: 0 days 0 hours 0 minutes 33 seconds 208 msec
