                         Program Version 4.2.1 -  RELEASE  -
|  1> ! wB97X-D3 SP def2-SVP
|  2> %pal
|  3> nprocs 16
|  4> end
|  5>
|  6> * xyz 0 1
|  7> S 	 -12.1329 	 61.7219 	 55.9217
|  8> C 	 -10.8431 	 61.6072 	 54.7023
|  9> C 	 -9.63358 	 62.0609 	 55.1505
| 10> C 	 -9.77454 	 62.5652 	 56.4938
| 11> C 	 -10.9994 	 62.4703 	 57.0407
| 12> H 	 -9.03008 	 62.9307 	 57.1735
| 13> C 	 -8.35592 	 62.0609 	 54.3584
| 14> H 	 -7.79416 	 61.2105 	 54.6885
| 15> H 	 -7.71182 	 62.8712 	 54.7648
| 16> C 	 -8.40539 	 62.2888 	 52.8451
| 17> H 	 -7.47808 	 61.9368 	 52.5105
| 18> H 	 -9.19723 	 61.6387 	 52.4987
| 19> C 	 -8.69714 	 63.726 	 52.3732
| 20> H 	 -9.56761 	 64.1581 	 52.6376
| 21> H 	 -7.84413 	 64.305 	 52.7473
| 22> H 	 -8.65084 	 63.679 	 51.2773
| 23> S 	 -12.2531 	 61.3988 	 59.2853
| 24> C 	 -11.97 	 62.2028 	 60.8192
| 25> C 	 -11.3227 	 63.4515 	 60.7037
| 26> C 	 -10.989 	 63.7518 	 59.3487
| 27> C 	 -11.3571 	 62.6511 	 58.4475
| 28> H 	 -11.0988 	 64.0001 	 61.6301
| 29> C 	 -10.3417 	 64.9923 	 58.9077
| 30> H 	 -11.0503 	 65.7968 	 59.2632
| 31> H 	 -10.4674 	 65.1936 	 57.7947
| 32> C 	 -8.9386 	 65.295 	 59.4015
| 33> H 	 -8.36674 	 64.4198 	 59.226
| 34> H 	 -8.96856 	 65.3935 	 60.5077
| 35> C 	 -8.30969 	 66.4713 	 58.7291
| 36> H 	 -7.30529 	 66.6252 	 59.0299
| 37> H 	 -8.86974 	 67.3453 	 58.8937
| 38> H 	 -8.18944 	 66.3009 	 57.667
| 39> H 	 -10.8586 	 61.0378 	 53.7679
| 40> H 	 -12.4645 	 61.9015 	 61.6938
| 41> *
| 42>
| 43>                          ****END OF INPUT****

CARTESIAN COORDINATES (ANGSTROEM)
---------------------------------
  S    -12.132900   61.721900   55.921700
  C    -10.843100   61.607200   54.702300
  C     -9.633580   62.060900   55.150500
  C     -9.774540   62.565200   56.493800
  C    -10.999400   62.470300   57.040700
  H     -9.030080   62.930700   57.173500
  C     -8.355920   62.060900   54.358400
  H     -7.794160   61.210500   54.688500
  H     -7.711820   62.871200   54.764800
  C     -8.405390   62.288800   52.845100
  H     -7.478080   61.936800   52.510500
  H     -9.197230   61.638700   52.498700
  C     -8.697140   63.726000   52.373200
  H     -9.567610   64.158100   52.637600
  H     -7.844130   64.305000   52.747300
  H     -8.650840   63.679000   51.277300
  S    -12.253100   61.398800   59.285300
  C    -11.970000   62.202800   60.819200
  C    -11.322700   63.451500   60.703700
  C    -10.989000   63.751800   59.348700
  C    -11.357100   62.651100   58.447500
  H    -11.098800   64.000100   61.630100
  C    -10.341700   64.992300   58.907700
  H    -11.050300   65.796800   59.263200
  H    -10.467400   65.193600   57.794700
  C     -8.938600   65.295000   59.401500
  H     -8.366740   64.419800   59.226000
  H     -8.968560   65.393500   60.507700
  C     -8.309690   66.471300   58.729100
  H     -7.305290   66.625200   59.029900
  H     -8.869740   67.345300   58.893700
  H     -8.189440   66.300900   57.667000
  H    -10.858600   61.037800   53.767900
  H    -12.464500   61.901500   61.693800

 Total Charge           Charge          ....    0
 Multiplicity           Mult            ....    1
 Number of Electrons    NEL             ....  134
 Basis Dimension        Dim             ....  322

ORBITAL ENERGIES
----------------

  NO   OCC          E(Eh)            E(eV)
   0   2.0000     -88.970859     -2421.0202
   1   2.0000     -88.962910     -2420.8039
   2   2.0000     -10.331935      -281.1462
   3   2.0000     -10.324315      -280.9389
   4   2.0000     -10.316120      -280.7159
   5   2.0000     -10.311630      -280.5937
   6   2.0000     -10.310068      -280.5512
   7   2.0000     -10.301319      -280.3131
   8   2.0000     -10.300307      -280.2856
   9   2.0000     -10.292278      -280.0671
  10   2.0000     -10.290708      -280.0244
  11   2.0000     -10.287960      -279.9496
  12   2.0000     -10.285268      -279.8764
  13   2.0000     -10.283669      -279.8329
  14   2.0000     -10.273429      -279.5542
  15   2.0000     -10.269600      -279.4500
  16   2.0000      -8.084972      -220.0033
  17   2.0000      -8.077203      -219.7919
  18   2.0000      -6.043326      -164.4473
  19   2.0000      -6.039518      -164.3436
  20   2.0000      -6.035996      -164.2478
  21   2.0000      -6.035884      -164.2448
  22   2.0000      -6.031896      -164.1362
  23   2.0000      -6.027702      -164.0221
  24   2.0000      -1.002332       -27.2748
  25   2.0000      -0.978199       -26.6181
  26   2.0000      -0.917466       -24.9655
  27   2.0000      -0.914720       -24.8908
  28   2.0000      -0.867120       -23.5955
  29   2.0000      -0.858519       -23.3615
  30   2.0000      -0.845803       -23.0155
  31   2.0000      -0.815948       -22.2031
  32   2.0000      -0.788291       -21.4505
  33   2.0000      -0.771218       -20.9859
  34   2.0000      -0.713828       -19.4243
  35   2.0000      -0.708414       -19.2769
  36   2.0000      -0.694534       -18.8992
  37   2.0000      -0.656269       -17.8580
  38   2.0000      -0.635257       -17.2862
  39   2.0000      -0.610394       -16.6097
  40   2.0000      -0.597644       -16.2627
  41   2.0000      -0.582427       -15.8486
  42   2.0000      -0.567959       -15.4550
  43   2.0000      -0.554337       -15.0843
  44   2.0000      -0.542355       -14.7582
  45   2.0000      -0.527967       -14.3667
  46   2.0000      -0.517860       -14.0917
  47   2.0000      -0.510720       -13.8974
  48   2.0000      -0.507473       -13.8091
  49   2.0000      -0.495021       -13.4702
  50   2.0000      -0.493192       -13.4204
  51   2.0000      -0.481933       -13.1141
  52   2.0000      -0.473149       -12.8750
  53   2.0000      -0.464887       -12.6502
  54   2.0000      -0.456619       -12.4252
  55   2.0000      -0.451437       -12.2842
  56   2.0000      -0.444810       -12.1039
  57   2.0000      -0.442583       -12.0433
  58   2.0000      -0.436108       -11.8671
  59   2.0000      -0.434289       -11.8176
  60   2.0000      -0.425177       -11.5696
  61   2.0000      -0.413235       -11.2447
  62   2.0000      -0.406838       -11.0706
  63   2.0000      -0.347472        -9.4552
  64   2.0000      -0.332310        -9.0426
  65   2.0000      -0.326643        -8.8884
  66   2.0000      -0.284910        -7.7528
  67   0.0000       0.025410         0.6914
  68   0.0000       0.072143         1.9631
  69   0.0000       0.107116         2.9148
  70   0.0000       0.119188         3.2433
  71   0.0000       0.129474         3.5232

MULLIKEN ATOMIC CHARGES
-----------------------
   0 S :    0.090836
   1 C :   -0.132185
   2 C :   -0.082508
   3 C :    0.029579
   4 C :   -0.141930
   5 H :   -0.008643
   6 C :    0.052524
   7 H :    0.036157
   8 H :    0.011190
   9 C :   -0.040820
  10 H :    0.016255
  11 H :    0.016319
  12 C :   -0.005703
  13 H :    0.023214
  14 H :    0.026368
  15 H :    0.035631
  16 S :    0.120844
  17 C :   -0.088887
  18 C :   -0.043359
  19 C :   -0.012838
  20 C :   -0.150624
  21 H :    0.035035
  22 C :   -0.018218
  23 H :    0.033492
  24 H :    0.038046
  25 C :   -0.051493
  26 H :    0.015892
  27 H :    0.028098
  28 C :    0.008804
  29 H :    0.020464
  30 H :    0.021602
  31 H :    0.022234
  32 H :    0.050964
  33 H :    0.043660
Sum of atomic charges:    0.0000000

LOEWDIN ATOMIC CHARGES
----------------------
   0 S :    0.374727
   1 C :   -0.195028
   2 C :   -0.060339
   3 C :   -0.061705
   4 C :   -0.186809
   5 H :    0.028262
   6 C :   -0.038319
   7 H :    0.033871
   8 H :    0.031000
   9 C :   -0.029487
  10 H :    0.020946
  11 H :    0.018251
  12 C :   -0.046646
  13 H :    0.010377
  14 H :    0.027839
  15 H :    0.032607
  16 S :    0.415539
  17 C :   -0.182089
  18 C :   -0.068109
  19 C :   -0.051922
  20 C :   -0.203792
  21 H :    0.038855
  22 C :   -0.054848
  23 H :    0.039768
  24 H :    0.038755
  25 C :   -0.039327
  26 H :    0.016776
  27 H :    0.026829
  28 C :   -0.054583
  29 H :    0.024207
  30 H :    0.020483
  31 H :    0.027371
  32 H :    0.030359
  33 H :    0.016180

  Mayer bond orders larger than 0.100000
B(  0-S ,  1-C ) :   1.1116 B(  0-S ,  4-C ) :   1.1188 B(  1-C ,  2-C ) :   1.6686
B(  1-C , 32-H ) :   0.9575 B(  2-C ,  3-C ) :   1.1965 B(  2-C ,  6-C ) :   1.0084
B(  3-C ,  4-C ) :   1.6291 B(  3-C ,  5-H ) :   0.9945 B(  4-C , 20-C ) :   1.0515
B(  6-C ,  7-H ) :   0.9262 B(  6-C ,  8-H ) :   0.9400 B(  6-C ,  9-C ) :   1.0776
B(  9-C , 10-H ) :   0.9494 B(  9-C , 11-H ) :   0.9543 B(  9-C , 12-C ) :   1.0773
B( 12-C , 13-H ) :   0.9799 B( 12-C , 14-H ) :   0.9736 B( 12-C , 15-H ) :   0.9738
B( 16-S , 17-C ) :   1.1700 B( 16-S , 20-C ) :   1.1583 B( 17-C , 18-C ) :   1.5769
B( 17-C , 20-C ) :   0.1094 B( 17-C , 33-H ) :   0.9704 B( 18-C , 19-C ) :   1.2687
B( 18-C , 21-H ) :   0.9882 B( 19-C , 20-C ) :   1.5128 B( 19-C , 22-C ) :   1.0641
B( 22-C , 23-H ) :   0.9196 B( 22-C , 24-H ) :   0.9359 B( 22-C , 25-C ) :   1.0514
B( 25-C , 26-H ) :   0.9540 B( 25-C , 27-H ) :   0.9461 B( 25-C , 28-C ) :   1.0987
B( 28-C , 29-H ) :   0.9687 B( 28-C , 30-H ) :   0.9728 B( 28-C , 31-H ) :   0.9692

Dispersion correction           -0.014049323
FINAL SINGLE POINT ENERGY     -1339.867774062577

DIPOLE MOMENT
-------------
                                X             Y             Z
Electronic contribution:    -21.98388     -17.63431      10.86990
Nuclear contribution   :     22.65878      17.96008     -10.86391
                        -----------------------------------------
Total Dipole Moment    :      0.67490       0.32577       0.00599
                        -----------------------------------------
Magnitude (a.u.)       :      0.74943
Magnitude (Debye)      :      1.90491

Rotational constants in cm-1:     0.018213     0.008852     0.006363
Rotational constants in MHz :   546.008650   265.367462   190.745642

                             ****ORCA TERMINATED NORMALLY****
TOTAL RUN TIME: 0 days 0 hours 0 minutes 33 seconds 912 msec
