                         Program Version 4.2.1 -  RELEASE  -
|  1> ! wB97X-D3 SP def2-SVP
|  2> %pal
|  3> nprocs 16
|  4> end
|  5>
|  6> * xyz 0 1
|  7> S 	 -83.2886 	 52.653 	 134.73
|  8> C 	 -83.6402 	 51.0659 	 135.151
|  9> C 	 -83.3623 	 50.7347 	 136.456
| 10> C 	 -82.4811 	 51.7611 	 136.971
| 11> C 	 -82.2722 	 52.8505 	 136.134
| 12> H 	 -82.0625 	 51.8373 	 137.938
| 13> C 	 -83.7114 	 49.4481 	 137.178
| 14> H 	 -83.4303 	 49.5463 	 138.213
| 15> H 	 -83.1034 	 48.5697 	 136.765
| 16> C 	 -85.2507 	 49.0907 	 137.15
| 17> H 	 -85.6854 	 49.9062 	 137.798
| 18> H 	 -85.6669 	 49.3057 	 136.139
| 19> C 	 -85.7697 	 47.7335 	 137.59
| 20> H 	 -85.46 	 47.5397 	 138.624
| 21> H 	 -86.8791 	 47.6749 	 137.396
| 22> H 	 -85.3453 	 46.9146 	 136.977
| 23> S 	 -82.1495 	 55.6094 	 135.897
| 24> C 	 -80.8445 	 56.5803 	 136.695
| 25> C 	 -79.976 	 55.6752 	 137.214
| 26> C 	 -80.3522 	 54.3043 	 137.026
| 27> C 	 -81.5262 	 54.0737 	 136.342
| 28> H 	 -79.1596 	 56.0013 	 137.808
| 29> C 	 -79.4183 	 53.1686 	 137.332
| 30> H 	 -78.4853 	 53.4272 	 136.794
| 31> H 	 -79.7921 	 52.218 	 136.894
| 32> C 	 -78.9447 	 52.9693 	 138.812
| 33> H 	 -78.2107 	 53.717 	 139.038
| 34> H 	 -78.5825 	 52.0047 	 138.928
| 35> C 	 -80.1163 	 53.0073 	 139.835
| 36> H 	 -79.7603 	 53.0739 	 140.859
| 37> H 	 -80.7484 	 52.1796 	 139.72
| 38> H 	 -80.8251 	 53.8697 	 139.71
| 39> H 	 -84.2024 	 50.4935 	 134.424
| 40> H 	 -80.8675 	 57.6448 	 136.723
| 41> *
| 42>
| 43>                          ****END OF INPUT****

CARTESIAN COORDINATES (ANGSTROEM)
---------------------------------
  S    -83.288600   52.653000  134.730000
  C    -83.640200   51.065900  135.151000
  C    -83.362300   50.734700  136.456000
  C    -82.481100   51.761100  136.971000
  C    -82.272200   52.850500  136.134000
  H    -82.062500   51.837300  137.938000
  C    -83.711400   49.448100  137.178000
  H    -83.430300   49.546300  138.213000
  H    -83.103400   48.569700  136.765000
  C    -85.250700   49.090700  137.150000
  H    -85.685400   49.906200  137.798000
  H    -85.666900   49.305700  136.139000
  C    -85.769700   47.733500  137.590000
  H    -85.460000   47.539700  138.624000
  H    -86.879100   47.674900  137.396000
  H    -85.345300   46.914600  136.977000
  S    -82.149500   55.609400  135.897000
  C    -80.844500   56.580300  136.695000
  C    -79.976000   55.675200  137.214000
  C    -80.352200   54.304300  137.026000
  C    -81.526200   54.073700  136.342000
  H    -79.159600   56.001300  137.808000
  C    -79.418300   53.168600  137.332000
  H    -78.485300   53.427200  136.794000
  H    -79.792100   52.218000  136.894000
  C    -78.944700   52.969300  138.812000
  H    -78.210700   53.717000  139.038000
  H    -78.582500   52.004700  138.928000
  C    -80.116300   53.007300  139.835000
  H    -79.760300   53.073900  140.859000
  H    -80.748400   52.179600  139.720000
  H    -80.825100   53.869700  139.710000
  H    -84.202400   50.493500  134.424000
  H    -80.867500   57.644800  136.723000

 Total Charge           Charge          ....    0
 Multiplicity           Mult            ....    1
 Number of Electrons    NEL             ....  134
 Basis Dimension        Dim             ....  322

ORBITAL ENERGIES
----------------

  NO   OCC          E(Eh)            E(eV)
   0   2.0000     -88.964493     -2420.8469
   1   2.0000     -88.957869     -2420.6667
   2   2.0000     -10.329994      -281.0934
   3   2.0000     -10.324967      -280.9566
   4   2.0000     -10.322721      -280.8955
   5   2.0000     -10.311826      -280.5990
   6   2.0000     -10.307231      -280.4740
   7   2.0000     -10.303443      -280.3709
   8   2.0000     -10.297766      -280.2165
   9   2.0000     -10.296906      -280.1931
  10   2.0000     -10.294815      -280.1361
  11   2.0000     -10.293973      -280.1133
  12   2.0000     -10.288747      -279.9710
  13   2.0000     -10.287978      -279.9501
  14   2.0000     -10.281445      -279.7723
  15   2.0000     -10.272992      -279.5423
  16   2.0000      -8.081151      -219.8993
  17   2.0000      -8.072901      -219.6748
  18   2.0000      -6.039402      -164.3405
  19   2.0000      -6.035471      -164.2335
  20   2.0000      -6.031985      -164.1387
  21   2.0000      -6.031577      -164.1276
  22   2.0000      -6.027268      -164.0103
  23   2.0000      -6.023538      -163.9088
  24   2.0000      -1.014591       -27.6084
  25   2.0000      -0.990709       -26.9586
  26   2.0000      -0.907233       -24.6871
  27   2.0000      -0.902612       -24.5613
  28   2.0000      -0.876673       -23.8555
  29   2.0000      -0.854821       -23.2609
  30   2.0000      -0.841495       -22.8982
  31   2.0000      -0.822442       -22.3798
  32   2.0000      -0.782341       -21.2886
  33   2.0000      -0.770931       -20.9781
  34   2.0000      -0.706957       -19.2373
  35   2.0000      -0.701082       -19.0774
  36   2.0000      -0.693342       -18.8668
  37   2.0000      -0.666947       -18.1486
  38   2.0000      -0.648458       -17.6454
  39   2.0000      -0.615314       -16.7436
  40   2.0000      -0.595282       -16.1985
  41   2.0000      -0.576211       -15.6795
  42   2.0000      -0.559362       -15.2210
  43   2.0000      -0.552589       -15.0367
  44   2.0000      -0.539453       -14.6793
  45   2.0000      -0.528272       -14.3750
  46   2.0000      -0.523506       -14.2453
  47   2.0000      -0.520403       -14.1609
  48   2.0000      -0.507142       -13.8000
  49   2.0000      -0.499821       -13.6008
  50   2.0000      -0.490846       -13.3566
  51   2.0000      -0.486328       -13.2337
  52   2.0000      -0.474526       -12.9125
  53   2.0000      -0.471261       -12.8237
  54   2.0000      -0.457555       -12.4507
  55   2.0000      -0.444713       -12.1013
  56   2.0000      -0.439543       -11.9606
  57   2.0000      -0.433800       -11.8043
  58   2.0000      -0.427504       -11.6330
  59   2.0000      -0.425458       -11.5773
  60   2.0000      -0.424719       -11.5572
  61   2.0000      -0.414509       -11.2794
  62   2.0000      -0.402722       -10.9586
  63   2.0000      -0.362909        -9.8753
  64   2.0000      -0.332586        -9.0501
  65   2.0000      -0.322567        -8.7775
  66   2.0000      -0.287064        -7.8114
  67   0.0000       0.026513         0.7215
  68   0.0000       0.072385         1.9697
  69   0.0000       0.105990         2.8841
  70   0.0000       0.118252         3.2178
  71   0.0000       0.132170         3.5965

MULLIKEN ATOMIC CHARGES
-----------------------
   0 S :    0.119168
   1 C :   -0.127403
   2 C :   -0.059611
   3 C :    0.041259
   4 C :   -0.159663
   5 H :   -0.037716
   6 C :    0.073122
   7 H :    0.018943
   8 H :    0.051912
   9 C :   -0.139944
  10 H :    0.038258
  11 H :    0.030140
  12 C :   -0.040313
  13 H :    0.036929
  14 H :    0.052059
  15 H :    0.030457
  16 S :    0.062164
  17 C :   -0.089542
  18 C :    0.012375
  19 C :   -0.069290
  20 C :   -0.086562
  21 H :    0.011425
  22 C :   -0.002559
  23 H :    0.039984
  24 H :    0.040107
  25 C :   -0.021967
  26 H :    0.027101
  27 H :    0.019092
  28 C :   -0.077806
  29 H :    0.031701
  30 H :    0.026634
  31 H :    0.040228
  32 H :    0.051862
  33 H :    0.057455
Sum of atomic charges:   -0.0000000

LOEWDIN ATOMIC CHARGES
----------------------
   0 S :    0.437617
   1 C :   -0.201108
   2 C :   -0.066099
   3 C :   -0.052602
   4 C :   -0.193584
   5 H :    0.020733
   6 C :   -0.034849
   7 H :    0.026347
   8 H :    0.039735
   9 C :   -0.053958
  10 H :    0.030788
  11 H :    0.021949
  12 C :   -0.072347
  13 H :    0.025817
  14 H :    0.039376
  15 H :    0.026106
  16 S :    0.378872
  17 C :   -0.151598
  18 C :   -0.064856
  19 C :   -0.070974
  20 C :   -0.205053
  21 H :    0.028289
  22 C :   -0.037477
  23 H :    0.037218
  24 H :    0.032905
  25 C :   -0.029177
  26 H :    0.018888
  27 H :    0.019431
  28 C :   -0.069201
  29 H :    0.025675
  30 H :    0.011999
  31 H :    0.029422
  32 H :    0.023497
  33 H :    0.028218

  Mayer bond orders larger than 0.100000
B(  0-S ,  1-C ) :   1.1852 B(  0-S ,  4-C ) :   1.1505 B(  1-C ,  2-C ) :   1.5713
B(  1-C , 32-H ) :   0.9692 B(  2-C ,  3-C ) :   1.2398 B(  2-C ,  6-C ) :   1.0293
B(  3-C ,  4-C ) :   1.5629 B(  3-C ,  5-H ) :   1.0017 B(  4-C , 20-C ) :   1.0519
B(  6-C ,  7-H ) :   0.9410 B(  6-C ,  8-H ) :   0.9409 B(  6-C ,  9-C ) :   1.0377
B(  9-C , 10-H ) :   0.9551 B(  9-C , 11-H ) :   0.9639 B(  9-C , 12-C ) :   1.0868
B( 12-C , 13-H ) :   0.9731 B( 12-C , 14-H ) :   0.9710 B( 12-C , 15-H ) :   0.9716
B( 16-S , 17-C ) :   1.1366 B( 16-S , 20-C ) :   1.1276 B( 17-C , 18-C ) :   1.5957
B( 17-C , 33-H ) :   0.9803 B( 18-C , 19-C ) :   1.2331 B( 18-C , 21-H ) :   0.9984
B( 19-C , 20-C ) :   1.5925 B( 19-C , 22-C ) :   1.0476 B( 22-C , 23-H ) :   0.9417
B( 22-C , 24-H ) :   0.9426 B( 22-C , 25-C ) :   1.0643 B( 25-C , 26-H ) :   0.9594
B( 25-C , 27-H ) :   0.9559 B( 25-C , 28-C ) :   1.0787 B( 28-C , 29-H ) :   0.9721
B( 28-C , 30-H ) :   0.9724 B( 28-C , 31-H ) :   0.9724

Dispersion correction           -0.014517054
FINAL SINGLE POINT ENERGY     -1339.874661185620

DIPOLE MOMENT
-------------
                                X             Y             Z
Electronic contribution:     -0.71533      21.27481     -18.22677
Nuclear contribution   :      0.89727     -21.68018      18.67985
                        -----------------------------------------
Total Dipole Moment    :      0.18195      -0.40536       0.45307
                        -----------------------------------------
Magnitude (a.u.)       :      0.63459
Magnitude (Debye)      :      1.61299

Rotational constants in cm-1:     0.021792     0.007824     0.006221
Rotational constants in MHz :   653.306654   234.552802   186.488446

                             ****ORCA TERMINATED NORMALLY****
TOTAL RUN TIME: 0 days 0 hours 0 minutes 35 seconds 480 msec
