                         Program Version 4.2.1 -  RELEASE  -
|  1> ! wB97X-D3 SP def2-SVP
|  2> %pal
|  3> nprocs 16
|  4> end
|  5>
|  6> * xyz 0 1
|  7> S 	 -51.0882 	 9.38382 	 91.5993
|  8> C 	 -50.0098 	 10.7587 	 91.8374
|  9> C 	 -49.0003 	 10.7851 	 90.9377
| 10> C 	 -49.0454 	 9.69423 	 90.0221
| 11> C 	 -50.1739 	 8.90374 	 90.2046
| 12> H 	 -48.3192 	 9.45515 	 89.1875
| 13> C 	 -47.8765 	 11.8148 	 90.8409
| 14> H 	 -48.323 	 12.6189 	 90.2199
| 15> H 	 -47.0537 	 11.3194 	 90.3166
| 16> C 	 -47.2977 	 12.4461 	 92.0812
| 17> H 	 -46.619 	 13.2454 	 91.7777
| 18> H 	 -48.0684 	 12.9509 	 92.6441
| 19> C 	 -46.5592 	 11.5001 	 92.9675
| 20> H 	 -47.2856 	 10.7409 	 93.3102
| 21> H 	 -45.8119 	 10.912 	 92.408
| 22> H 	 -46.1169 	 11.9297 	 93.8799
| 23> S 	 -49.1809 	 6.91575 	 88.7769
| 24> C 	 -50.1846 	 5.831 	 87.8197
| 25> C 	 -51.5355 	 6.02809 	 88.1416
| 26> C 	 -51.7305 	 7.14755 	 88.9976
| 27> C 	 -50.5506 	 7.7609 	 89.3687
| 28> H 	 -52.268 	 5.40436 	 87.6803
| 29> C 	 -53.0304 	 7.56206 	 89.524
| 30> H 	 -53.0778 	 8.53263 	 89.1803
| 31> H 	 -52.9787 	 7.59098 	 90.6044
| 32> C 	 -54.2843 	 6.83876 	 89.0761
| 33> H 	 -54.1133 	 5.79363 	 89.3018
| 34> H 	 -54.4428 	 6.86458 	 88.0282
| 35> C 	 -55.5767 	 7.31859 	 89.6822
| 36> H 	 -55.7315 	 8.3977 	 89.7591
| 37> H 	 -55.812 	 6.96327 	 90.6817
| 38> H 	 -56.3364 	 7.02589 	 88.9477
| 39> H 	 -50.0395 	 11.3624 	 92.6988
| 40> H 	 -49.7835 	 5.01713 	 87.1745
| 41> *
| 42>
| 43>                          ****END OF INPUT****

CARTESIAN COORDINATES (ANGSTROEM)
---------------------------------
  S    -51.088200    9.383820   91.599300
  C    -50.009800   10.758700   91.837400
  C    -49.000300   10.785100   90.937700
  C    -49.045400    9.694230   90.022100
  C    -50.173900    8.903740   90.204600
  H    -48.319200    9.455150   89.187500
  C    -47.876500   11.814800   90.840900
  H    -48.323000   12.618900   90.219900
  H    -47.053700   11.319400   90.316600
  C    -47.297700   12.446100   92.081200
  H    -46.619000   13.245400   91.777700
  H    -48.068400   12.950900   92.644100
  C    -46.559200   11.500100   92.967500
  H    -47.285600   10.740900   93.310200
  H    -45.811900   10.912000   92.408000
  H    -46.116900   11.929700   93.879900
  S    -49.180900    6.915750   88.776900
  C    -50.184600    5.831000   87.819700
  C    -51.535500    6.028090   88.141600
  C    -51.730500    7.147550   88.997600
  C    -50.550600    7.760900   89.368700
  H    -52.268000    5.404360   87.680300
  C    -53.030400    7.562060   89.524000
  H    -53.077800    8.532630   89.180300
  H    -52.978700    7.590980   90.604400
  C    -54.284300    6.838760   89.076100
  H    -54.113300    5.793630   89.301800
  H    -54.442800    6.864580   88.028200
  C    -55.576700    7.318590   89.682200
  H    -55.731500    8.397700   89.759100
  H    -55.812000    6.963270   90.681700
  H    -56.336400    7.025890   88.947700
  H    -50.039500   11.362400   92.698800
  H    -49.783500    5.017130   87.174500

 Total Charge           Charge          ....    0
 Multiplicity           Mult            ....    1
 Number of Electrons    NEL             ....  134
 Basis Dimension        Dim             ....  322

ORBITAL ENERGIES
----------------

  NO   OCC          E(Eh)            E(eV)
   0   2.0000     -88.967718     -2420.9347
   1   2.0000     -88.962869     -2420.8027
   2   2.0000     -10.331090      -281.1232
   3   2.0000     -10.320192      -280.8267
   4   2.0000     -10.319792      -280.8158
   5   2.0000     -10.306841      -280.4634
   6   2.0000     -10.299569      -280.2655
   7   2.0000     -10.297676      -280.2140
   8   2.0000     -10.296290      -280.1763
   9   2.0000     -10.293735      -280.1068
  10   2.0000     -10.293470      -280.0996
  11   2.0000     -10.282274      -279.7949
  12   2.0000     -10.279920      -279.7308
  13   2.0000     -10.276101      -279.6269
  14   2.0000     -10.275931      -279.6223
  15   2.0000     -10.275688      -279.6157
  16   2.0000      -8.082097      -219.9250
  17   2.0000      -8.077979      -219.8130
  18   2.0000      -6.040614      -164.3735
  19   2.0000      -6.036722      -164.2676
  20   2.0000      -6.036455      -164.2603
  21   2.0000      -6.032833      -164.1617
  22   2.0000      -6.032329      -164.1480
  23   2.0000      -6.028866      -164.0538
  24   2.0000      -1.011255       -27.5176
  25   2.0000      -0.986854       -26.8537
  26   2.0000      -0.919222       -25.0133
  27   2.0000      -0.917628       -24.9699
  28   2.0000      -0.870639       -23.6913
  29   2.0000      -0.859610       -23.3912
  30   2.0000      -0.848425       -23.0868
  31   2.0000      -0.811107       -22.0713
  32   2.0000      -0.785343       -21.3703
  33   2.0000      -0.774372       -21.0717
  34   2.0000      -0.714185       -19.4340
  35   2.0000      -0.703138       -19.1334
  36   2.0000      -0.695312       -18.9204
  37   2.0000      -0.660525       -17.9738
  38   2.0000      -0.633438       -17.2367
  39   2.0000      -0.607436       -16.5292
  40   2.0000      -0.595998       -16.2179
  41   2.0000      -0.581459       -15.8223
  42   2.0000      -0.576752       -15.6942
  43   2.0000      -0.559801       -15.2330
  44   2.0000      -0.540727       -14.7139
  45   2.0000      -0.532139       -14.4802
  46   2.0000      -0.517506       -14.0820
  47   2.0000      -0.514806       -14.0086
  48   2.0000      -0.507316       -13.8048
  49   2.0000      -0.493364       -13.4251
  50   2.0000      -0.488944       -13.3048
  51   2.0000      -0.483211       -13.1488
  52   2.0000      -0.477789       -13.0013
  53   2.0000      -0.467046       -12.7090
  54   2.0000      -0.459521       -12.5042
  55   2.0000      -0.448296       -12.1988
  56   2.0000      -0.442593       -12.0436
  57   2.0000      -0.440845       -11.9960
  58   2.0000      -0.430742       -11.7211
  59   2.0000      -0.426706       -11.6113
  60   2.0000      -0.422558       -11.4984
  61   2.0000      -0.415338       -11.3019
  62   2.0000      -0.410465       -11.1693
  63   2.0000      -0.354079        -9.6350
  64   2.0000      -0.332633        -9.0514
  65   2.0000      -0.327856        -8.9214
  66   2.0000      -0.283418        -7.7122
  67   0.0000       0.024599         0.6694
  68   0.0000       0.082619         2.2482
  69   0.0000       0.111941         3.0461
  70   0.0000       0.119547         3.2530
  71   0.0000       0.133231         3.6254

MULLIKEN ATOMIC CHARGES
-----------------------
   0 S :    0.096438
   1 C :   -0.113436
   2 C :   -0.076003
   3 C :   -0.035338
   4 C :   -0.129593
   5 H :    0.046653
   6 C :    0.059472
   7 H :    0.054978
   8 H :    0.023760
   9 C :   -0.053130
  10 H :    0.026869
  11 H :    0.017862
  12 C :   -0.057856
  13 H :    0.029275
  14 H :    0.026155
  15 H :    0.042097
  16 S :    0.092847
  17 C :   -0.105829
  18 C :   -0.045491
  19 C :   -0.057830
  20 C :   -0.131403
  21 H :    0.013756
  22 C :    0.100242
  23 H :    0.011934
  24 H :    0.037761
  25 C :   -0.076015
  26 H :    0.024706
  27 H :    0.019083
  28 C :   -0.027819
  29 H :    0.023792
  30 H :    0.034677
  31 H :    0.027558
  32 H :    0.029221
  33 H :    0.070609
Sum of atomic charges:   -0.0000000

LOEWDIN ATOMIC CHARGES
----------------------
   0 S :    0.410252
   1 C :   -0.193504
   2 C :   -0.061524
   3 C :   -0.083428
   4 C :   -0.191756
   5 H :    0.037799
   6 C :   -0.028610
   7 H :    0.044724
   8 H :    0.030389
   9 C :   -0.048667
  10 H :    0.027724
  11 H :    0.019846
  12 C :   -0.070311
  13 H :    0.027570
  14 H :    0.025373
  15 H :    0.028648
  16 S :    0.428381
  17 C :   -0.191390
  18 C :   -0.070222
  19 C :   -0.060147
  20 C :   -0.204902
  21 H :    0.028572
  22 C :   -0.037435
  23 H :    0.027984
  24 H :    0.027039
  25 C :   -0.040034
  26 H :    0.024770
  27 H :    0.020555
  28 C :   -0.063850
  29 H :    0.026165
  30 H :    0.024353
  31 H :    0.031746
  32 H :    0.017157
  33 H :    0.036731

  Mayer bond orders larger than 0.100000
B(  0-S ,  1-C ) :   1.1149 B(  0-S ,  4-C ) :   1.1568 B(  1-C ,  2-C ) :   1.6350
B(  1-C , 32-H ) :   0.9711 B(  2-C ,  3-C ) :   1.2444 B(  2-C ,  6-C ) :   0.9985
B(  3-C ,  4-C ) :   1.5633 B(  3-C ,  5-H ) :   0.9749 B(  4-C , 20-C ) :   1.0413
B(  6-C ,  7-H ) :   0.9304 B(  6-C ,  8-H ) :   0.9454 B(  6-C ,  9-C ) :   1.0932
B(  9-C , 10-H ) :   0.9473 B(  9-C , 11-H ) :   0.9455 B(  9-C , 12-C ) :   1.0833
B( 12-C , 13-H ) :   0.9723 B( 12-C , 14-H ) :   0.9723 B( 12-C , 15-H ) :   0.9734
B( 16-S , 17-C ) :   1.1653 B( 16-S , 20-C ) :   1.1553 B( 17-C , 18-C ) :   1.5701
B( 17-C , 20-C ) :   0.1018 B( 17-C , 33-H ) :   0.9628 B( 18-C , 19-C ) :   1.2597
B( 18-C , 21-H ) :   0.9936 B( 19-C , 20-C ) :   1.5724 B( 19-C , 22-C ) :   1.0244
B( 22-C , 23-H ) :   0.9030 B( 22-C , 24-H ) :   0.9319 B( 22-C , 25-C ) :   1.1019
B( 25-C , 26-H ) :   0.9427 B( 25-C , 27-H ) :   0.9533 B( 25-C , 28-C ) :   1.0873
B( 28-C , 29-H ) :   0.9725 B( 28-C , 30-H ) :   0.9742 B( 28-C , 31-H ) :   0.9750

Dispersion correction           -0.013671026
FINAL SINGLE POINT ENERGY     -1339.884544935458

DIPOLE MOMENT
-------------
                                X             Y             Z
Electronic contribution:      4.39850      -8.45100      -4.81990
Nuclear contribution   :     -4.48169       8.60323       4.75671
                        -----------------------------------------
Total Dipole Moment    :     -0.08319       0.15223      -0.06320
                        -----------------------------------------
Magnitude (a.u.)       :      0.18463
Magnitude (Debye)      :      0.46928

Rotational constants in cm-1:     0.024484     0.007318     0.005893
Rotational constants in MHz :   734.012492   219.380432   176.654394

                             ****ORCA TERMINATED NORMALLY****
TOTAL RUN TIME: 0 days 0 hours 0 minutes 29 seconds 601 msec
