                         Program Version 4.2.1 -  RELEASE  -
|  1> ! wB97X-D3 SP def2-SVP
|  2> %pal
|  3> nprocs 16
|  4> end
|  5>
|  6> * xyz 0 1
|  7> S 	 -46.71 	 26.4 	 86.0981
|  8> C 	 -47.9478 	 25.2463 	 85.8192
|  9> C 	 -47.6695 	 24.4488 	 84.7034
| 10> C 	 -46.3108 	 24.6065 	 84.3124
| 11> C 	 -45.6211 	 25.5372 	 85.0423
| 12> H 	 -45.755 	 24.1226 	 83.5139
| 13> C 	 -48.5431 	 23.358 	 84.0159
| 14> H 	 -49.1145 	 23.7729 	 83.201
| 15> H 	 -49.2108 	 23.1641 	 84.8621
| 16> C 	 -47.948 	 22.0041 	 83.64
| 17> H 	 -48.7414 	 21.2693 	 83.3744
| 18> H 	 -47.3614 	 21.9627 	 82.7592
| 19> C 	 -47.0132 	 21.3534 	 84.7005
| 20> H 	 -46.0052 	 21.6788 	 84.7314
| 21> H 	 -47.405 	 21.5889 	 85.7072
| 22> H 	 -46.9844 	 20.3027 	 84.5243
| 23> S 	 -43.8586 	 27.6205 	 84.611
| 24> C 	 -42.1177 	 27.3452 	 84.7969
| 25> C 	 -41.837 	 26.0127 	 85.0183
| 26> C 	 -43.0332 	 25.2836 	 85.0836
| 27> C 	 -44.2329 	 25.9649 	 84.9044
| 28> H 	 -40.7958 	 25.6054 	 84.943
| 29> C 	 -42.8571 	 23.8379 	 85.4242
| 30> H 	 -43.7393 	 23.5829 	 86.0994
| 31> H 	 -41.9283 	 23.5452 	 85.9036
| 32> C 	 -42.9292 	 22.8564 	 84.2781
| 33> H 	 -42.1762 	 23.023 	 83.4941
| 34> H 	 -43.872 	 22.9847 	 83.7993
| 35> C 	 -42.7912 	 21.3376 	 84.7076
| 36> H 	 -41.8486 	 21.1582 	 85.153
| 37> H 	 -42.7753 	 20.8233 	 83.8096
| 38> H 	 -43.5464 	 21.0118 	 85.4614
| 39> H 	 -48.7904 	 25.0671 	 86.4967
| 40> H 	 -41.2812 	 28.0208 	 84.7973
| 41> *
| 42>
| 43>                          ****END OF INPUT****

CARTESIAN COORDINATES (ANGSTROEM)
---------------------------------
  S    -46.710000   26.400000   86.098100
  C    -47.947800   25.246300   85.819200
  C    -47.669500   24.448800   84.703400
  C    -46.310800   24.606500   84.312400
  C    -45.621100   25.537200   85.042300
  H    -45.755000   24.122600   83.513900
  C    -48.543100   23.358000   84.015900
  H    -49.114500   23.772900   83.201000
  H    -49.210800   23.164100   84.862100
  C    -47.948000   22.004100   83.640000
  H    -48.741400   21.269300   83.374400
  H    -47.361400   21.962700   82.759200
  C    -47.013200   21.353400   84.700500
  H    -46.005200   21.678800   84.731400
  H    -47.405000   21.588900   85.707200
  H    -46.984400   20.302700   84.524300
  S    -43.858600   27.620500   84.611000
  C    -42.117700   27.345200   84.796900
  C    -41.837000   26.012700   85.018300
  C    -43.033200   25.283600   85.083600
  C    -44.232900   25.964900   84.904400
  H    -40.795800   25.605400   84.943000
  C    -42.857100   23.837900   85.424200
  H    -43.739300   23.582900   86.099400
  H    -41.928300   23.545200   85.903600
  C    -42.929200   22.856400   84.278100
  H    -42.176200   23.023000   83.494100
  H    -43.872000   22.984700   83.799300
  C    -42.791200   21.337600   84.707600
  H    -41.848600   21.158200   85.153000
  H    -42.775300   20.823300   83.809600
  H    -43.546400   21.011800   85.461400
  H    -48.790400   25.067100   86.496700
  H    -41.281200   28.020800   84.797300

 Total Charge           Charge          ....    0
 Multiplicity           Mult            ....    1
 Number of Electrons    NEL             ....  134
 Basis Dimension        Dim             ....  322

ORBITAL ENERGIES
----------------

  NO   OCC          E(Eh)            E(eV)
   0   2.0000     -88.968064     -2420.9441
   1   2.0000     -88.967481     -2420.9282
   2   2.0000     -10.328412      -281.0504
   3   2.0000     -10.325490      -280.9709
   4   2.0000     -10.319297      -280.8023
   5   2.0000     -10.316367      -280.7226
   6   2.0000     -10.308130      -280.4985
   7   2.0000     -10.297790      -280.2171
   8   2.0000     -10.296370      -280.1785
   9   2.0000     -10.293339      -280.0960
  10   2.0000     -10.292259      -280.0666
  11   2.0000     -10.289273      -279.9854
  12   2.0000     -10.285208      -279.8747
  13   2.0000     -10.282056      -279.7890
  14   2.0000     -10.273662      -279.5606
  15   2.0000     -10.273151      -279.5466
  16   2.0000      -8.083080      -219.9518
  17   2.0000      -8.082626      -219.9394
  18   2.0000      -6.041548      -164.3989
  19   2.0000      -6.041245      -164.3906
  20   2.0000      -6.037484      -164.2883
  21   2.0000      -6.037064      -164.2769
  22   2.0000      -6.033799      -164.1880
  23   2.0000      -6.033361      -164.1761
  24   2.0000      -1.012851       -27.5611
  25   2.0000      -0.990162       -26.9437
  26   2.0000      -0.910516       -24.7764
  27   2.0000      -0.907244       -24.6874
  28   2.0000      -0.873174       -23.7603
  29   2.0000      -0.850631       -23.1468
  30   2.0000      -0.846249       -23.0276
  31   2.0000      -0.819124       -22.2895
  32   2.0000      -0.785710       -21.3803
  33   2.0000      -0.771579       -20.9957
  34   2.0000      -0.711018       -19.3478
  35   2.0000      -0.701136       -19.0789
  36   2.0000      -0.688885       -18.7455
  37   2.0000      -0.662618       -18.0308
  38   2.0000      -0.646121       -17.5819
  39   2.0000      -0.620727       -16.8909
  40   2.0000      -0.594789       -16.1850
  41   2.0000      -0.567881       -15.4528
  42   2.0000      -0.563096       -15.3226
  43   2.0000      -0.562752       -15.3133
  44   2.0000      -0.540162       -14.6986
  45   2.0000      -0.525428       -14.2976
  46   2.0000      -0.514395       -13.9974
  47   2.0000      -0.513251       -13.9663
  48   2.0000      -0.507261       -13.8033
  49   2.0000      -0.500855       -13.6290
  50   2.0000      -0.491631       -13.3780
  51   2.0000      -0.481912       -13.1135
  52   2.0000      -0.477986       -13.0066
  53   2.0000      -0.458694       -12.4817
  54   2.0000      -0.457528       -12.4500
  55   2.0000      -0.452520       -12.3137
  56   2.0000      -0.444395       -12.0926
  57   2.0000      -0.439648       -11.9634
  58   2.0000      -0.436099       -11.8669
  59   2.0000      -0.426765       -11.6129
  60   2.0000      -0.419745       -11.4218
  61   2.0000      -0.408429       -11.1139
  62   2.0000      -0.404731       -11.0133
  63   2.0000      -0.348005        -9.4697
  64   2.0000      -0.333295        -9.0694
  65   2.0000      -0.330115        -8.9829
  66   2.0000      -0.291291        -7.9264
  67   0.0000       0.031493         0.8570
  68   0.0000       0.059123         1.6088
  69   0.0000       0.109614         2.9827
  70   0.0000       0.126328         3.4375
  71   0.0000       0.131072         3.5666

MULLIKEN ATOMIC CHARGES
-----------------------
   0 S :    0.128226
   1 C :   -0.131262
   2 C :   -0.104207
   3 C :    0.029722
   4 C :   -0.168646
   5 H :    0.022438
   6 C :    0.100631
   7 H :    0.050014
   8 H :    0.018258
   9 C :   -0.085410
  10 H :    0.035470
  11 H :    0.016228
  12 C :   -0.038132
  13 H :    0.019914
  14 H :    0.025596
  15 H :    0.028520
  16 S :    0.109704
  17 C :   -0.080285
  18 C :   -0.057948
  19 C :   -0.018559
  20 C :   -0.144830
  21 H :    0.046086
  22 C :    0.044417
  23 H :    0.035536
  24 H :    0.013542
  25 C :   -0.082573
  26 H :    0.019798
  27 H :   -0.001923
  28 C :   -0.016382
  29 H :    0.013248
  30 H :    0.022440
  31 H :    0.043561
  32 H :    0.061036
  33 H :    0.045771
Sum of atomic charges:   -0.0000000

LOEWDIN ATOMIC CHARGES
----------------------
   0 S :    0.424325
   1 C :   -0.207305
   2 C :   -0.062367
   3 C :   -0.059223
   4 C :   -0.196459
   5 H :    0.032720
   6 C :   -0.030232
   7 H :    0.035370
   8 H :    0.033503
   9 C :   -0.045882
  10 H :    0.034085
  11 H :    0.016480
  12 C :   -0.060663
  13 H :    0.017584
  14 H :    0.026383
  15 H :    0.024249
  16 S :    0.413746
  17 C :   -0.179736
  18 C :   -0.075459
  19 C :   -0.062678
  20 C :   -0.216010
  21 H :    0.045594
  22 C :   -0.038992
  23 H :    0.038698
  24 H :    0.025853
  25 C :   -0.036171
  26 H :    0.021776
  27 H :    0.008786
  28 C :   -0.057149
  29 H :    0.017295
  30 H :    0.019115
  31 H :    0.029990
  32 H :    0.033722
  33 H :    0.029051

  Mayer bond orders larger than 0.100000
B(  0-S ,  1-C ) :   1.1615 B(  0-S ,  4-C ) :   1.1467 B(  1-C ,  2-C ) :   1.5967
B(  1-C ,  4-C ) :   0.1027 B(  1-C , 32-H ) :   0.9636 B(  2-C ,  3-C ) :   1.2338
B(  2-C ,  6-C ) :   0.9997 B(  3-C ,  4-C ) :   1.5862 B(  3-C ,  5-H ) :   0.9908
B(  4-C , 20-C ) :   1.0305 B(  6-C ,  7-H ) :   0.9384 B(  6-C ,  8-H ) :   0.9401
B(  6-C ,  9-C ) :   1.0804 B(  9-C , 10-H ) :   0.9564 B(  9-C , 11-H ) :   0.9491
B(  9-C , 12-C ) :   1.0765 B( 12-C , 13-H ) :   0.9725 B( 12-C , 14-H ) :   0.9762
B( 12-C , 15-H ) :   0.9733 B( 16-S , 17-C ) :   1.1591 B( 16-S , 20-C ) :   1.1302
B( 17-C , 18-C ) :   1.6028 B( 17-C , 33-H ) :   0.9629 B( 18-C , 19-C ) :   1.2743
B( 18-C , 21-H ) :   0.9799 B( 19-C , 20-C ) :   1.5818 B( 19-C , 22-C ) :   1.0493
B( 22-C , 23-H ) :   0.9235 B( 22-C , 24-H ) :   0.9436 B( 22-C , 25-C ) :   1.0724
B( 25-C , 26-H ) :   0.9504 B( 25-C , 27-H ) :   0.9495 B( 25-C , 28-C ) :   1.0834
B( 28-C , 29-H ) :   0.9718 B( 28-C , 30-H ) :   0.9739 B( 28-C , 31-H ) :   0.9728

Dispersion correction           -0.015791299
FINAL SINGLE POINT ENERGY     -1339.859324142105

DIPOLE MOMENT
-------------
                                X             Y             Z
Electronic contribution:     -0.67192      31.85833       4.91368
Nuclear contribution   :      0.77040     -32.53597      -5.09453
                        -----------------------------------------
Total Dipole Moment    :      0.09848      -0.67764      -0.18085
                        -----------------------------------------
Magnitude (a.u.)       :      0.70824
Magnitude (Debye)      :      1.80019

Rotational constants in cm-1:     0.017243     0.010936     0.007277
Rotational constants in MHz :   516.927042   327.852664   218.146170

                             ****ORCA TERMINATED NORMALLY****
TOTAL RUN TIME: 0 days 0 hours 0 minutes 32 seconds 750 msec
