                         Program Version 4.2.1 -  RELEASE  -
|  1> ! wB97X-D3 SP def2-SVP
|  2> %pal
|  3> nprocs 16
|  4> end
|  5>
|  6> * xyz 0 1
|  7> S 	 9.37822 	 -11.2989 	 91.6634
|  8> C 	 9.43198 	 -9.61995 	 92.1172
|  9> C 	 8.41956 	 -8.94573 	 91.4222
| 10> C 	 7.53822 	 -9.78346 	 90.7649
| 11> C 	 7.87143 	 -11.111 	 90.8421
| 12> H 	 6.65533 	 -9.55458 	 90.2071
| 13> C 	 8.28523 	 -7.40129 	 91.3979
| 14> H 	 8.82837 	 -6.99396 	 90.5696
| 15> H 	 8.76911 	 -7.04644 	 92.274
| 16> C 	 6.83271 	 -6.78196 	 91.554
| 17> H 	 6.85837 	 -5.7444 	 91.2816
| 18> H 	 6.15603 	 -7.17107 	 90.7604
| 19> C 	 6.24621 	 -7.04732 	 92.9348
| 20> H 	 5.45123 	 -6.37746 	 93.2634
| 21> H 	 6.02597 	 -8.08803 	 93.1503
| 22> H 	 7.02445 	 -6.75904 	 93.6965
| 23> S 	 7.18724 	 -12.4127 	 88.6198
| 24> C 	 6.14357 	 -13.837 	 88.7649
| 25> C 	 5.93696 	 -14.2274 	 90.0815
| 26> C 	 6.59245 	 -13.3753 	 91.0179
| 27> C 	 7.12611 	 -12.2535 	 90.3719
| 28> H 	 5.40682 	 -15.1074 	 90.3646
| 29> C 	 6.49113 	 -13.5623 	 92.488
| 30> H 	 7.44513 	 -13.6478 	 92.9518
| 31> H 	 6.1261 	 -14.5062 	 92.7358
| 32> C 	 5.44381 	 -12.591 	 93.2429
| 33> H 	 4.89468 	 -13.123 	 94.0805
| 34> H 	 4.60725 	 -12.44 	 92.5274
| 35> C 	 6.11906 	 -11.37 	 93.8906
| 36> H 	 5.43493 	 -10.5988 	 94.1383
| 37> H 	 6.88309 	 -10.9233 	 93.3147
| 38> H 	 6.59956 	 -11.7914 	 94.8027
| 39> H 	 10.2637 	 -9.04895 	 92.5559
| 40> H 	 5.70175 	 -14.251 	 87.8519
| 41> *
| 42>
| 43>                          ****END OF INPUT****

CARTESIAN COORDINATES (ANGSTROEM)
---------------------------------
  S      9.378220  -11.298900   91.663400
  C      9.431980   -9.619950   92.117200
  C      8.419560   -8.945730   91.422200
  C      7.538220   -9.783460   90.764900
  C      7.871430  -11.111000   90.842100
  H      6.655330   -9.554580   90.207100
  C      8.285230   -7.401290   91.397900
  H      8.828370   -6.993960   90.569600
  H      8.769110   -7.046440   92.274000
  C      6.832710   -6.781960   91.554000
  H      6.858370   -5.744400   91.281600
  H      6.156030   -7.171070   90.760400
  C      6.246210   -7.047320   92.934800
  H      5.451230   -6.377460   93.263400
  H      6.025970   -8.088030   93.150300
  H      7.024450   -6.759040   93.696500
  S      7.187240  -12.412700   88.619800
  C      6.143570  -13.837000   88.764900
  C      5.936960  -14.227400   90.081500
  C      6.592450  -13.375300   91.017900
  C      7.126110  -12.253500   90.371900
  H      5.406820  -15.107400   90.364600
  C      6.491130  -13.562300   92.488000
  H      7.445130  -13.647800   92.951800
  H      6.126100  -14.506200   92.735800
  C      5.443810  -12.591000   93.242900
  H      4.894680  -13.123000   94.080500
  H      4.607250  -12.440000   92.527400
  C      6.119060  -11.370000   93.890600
  H      5.434930  -10.598800   94.138300
  H      6.883090  -10.923300   93.314700
  H      6.599560  -11.791400   94.802700
  H     10.263700   -9.048950   92.555900
  H      5.701750  -14.251000   87.851900

 Total Charge           Charge          ....    0
 Multiplicity           Mult            ....    1
 Number of Electrons    NEL             ....  134
 Basis Dimension        Dim             ....  322

ORBITAL ENERGIES
----------------

  NO   OCC          E(Eh)            E(eV)
   0   2.0000     -88.966921     -2420.9130
   1   2.0000     -88.966135     -2420.8916
   2   2.0000     -10.323953      -280.9291
   3   2.0000     -10.321872      -280.8724
   4   2.0000     -10.320927      -280.8467
   5   2.0000     -10.314771      -280.6792
   6   2.0000     -10.304744      -280.4063
   7   2.0000     -10.300049      -280.2786
   8   2.0000     -10.295473      -280.1541
   9   2.0000     -10.293869      -280.1104
  10   2.0000     -10.290668      -280.0233
  11   2.0000     -10.290622      -280.0220
  12   2.0000     -10.285108      -279.8720
  13   2.0000     -10.283969      -279.8410
  14   2.0000     -10.278536      -279.6932
  15   2.0000     -10.266024      -279.3527
  16   2.0000      -8.081563      -219.9105
  17   2.0000      -8.080551      -219.8830
  18   2.0000      -6.039907      -164.3542
  19   2.0000      -6.038913      -164.3272
  20   2.0000      -6.035992      -164.2477
  21   2.0000      -6.035209      -164.2264
  22   2.0000      -6.032577      -164.1548
  23   2.0000      -6.031383      -164.1223
  24   2.0000      -1.010740       -27.5036
  25   2.0000      -0.984145       -26.7799
  26   2.0000      -0.904679       -24.6176
  27   2.0000      -0.900312       -24.4987
  28   2.0000      -0.869192       -23.6519
  29   2.0000      -0.849027       -23.1032
  30   2.0000      -0.844841       -22.9893
  31   2.0000      -0.813321       -22.1316
  32   2.0000      -0.784893       -21.3580
  33   2.0000      -0.769173       -20.9303
  34   2.0000      -0.708510       -19.2795
  35   2.0000      -0.698869       -19.0172
  36   2.0000      -0.687745       -18.7145
  37   2.0000      -0.669042       -18.2056
  38   2.0000      -0.640110       -17.4183
  39   2.0000      -0.620354       -16.8807
  40   2.0000      -0.600709       -16.3461
  41   2.0000      -0.561508       -15.2794
  42   2.0000      -0.556268       -15.1368
  43   2.0000      -0.541634       -14.7386
  44   2.0000      -0.538686       -14.6584
  45   2.0000      -0.532183       -14.4814
  46   2.0000      -0.517278       -14.0759
  47   2.0000      -0.506361       -13.7788
  48   2.0000      -0.504905       -13.7392
  49   2.0000      -0.494723       -13.4621
  50   2.0000      -0.484393       -13.1810
  51   2.0000      -0.478776       -13.0282
  52   2.0000      -0.470133       -12.7930
  53   2.0000      -0.465432       -12.6651
  54   2.0000      -0.455607       -12.3977
  55   2.0000      -0.448038       -12.1917
  56   2.0000      -0.446861       -12.1597
  57   2.0000      -0.439958       -11.9719
  58   2.0000      -0.433461       -11.7951
  59   2.0000      -0.418312       -11.3828
  60   2.0000      -0.416746       -11.3402
  61   2.0000      -0.411759       -11.2045
  62   2.0000      -0.406983       -11.0746
  63   2.0000      -0.338328        -9.2064
  64   2.0000      -0.336003        -9.1431
  65   2.0000      -0.323949        -8.8151
  66   2.0000      -0.298491        -8.1223
  67   0.0000       0.029890         0.8133
  68   0.0000       0.063166         1.7188
  69   0.0000       0.102531         2.7900
  70   0.0000       0.125995         3.4285
  71   0.0000       0.129012         3.5106

MULLIKEN ATOMIC CHARGES
-----------------------
   0 S :    0.133917
   1 C :   -0.135687
   2 C :   -0.092014
   3 C :    0.044114
   4 C :   -0.190265
   5 H :   -0.000535
   6 C :    0.081243
   7 H :    0.041475
   8 H :    0.002468
   9 C :   -0.071417
  10 H :    0.022677
  11 H :    0.030834
  12 C :   -0.059028
  13 H :    0.035801
  14 H :    0.046268
  15 H :    0.017579
  16 S :    0.109692
  17 C :   -0.095991
  18 C :   -0.014491
  19 C :   -0.019628
  20 C :   -0.182633
  21 H :    0.010952
  22 C :    0.115512
  23 H :    0.017876
  24 H :   -0.016447
  25 C :   -0.103328
  26 H :    0.030513
  27 H :    0.032201
  28 C :   -0.012354
  29 H :    0.031632
  30 H :    0.034621
  31 H :    0.030924
  32 H :    0.058432
  33 H :    0.065089
Sum of atomic charges:   -0.0000000

LOEWDIN ATOMIC CHARGES
----------------------
   0 S :    0.431862
   1 C :   -0.216768
   2 C :   -0.063818
   3 C :   -0.066592
   4 C :   -0.211252
   5 H :    0.030262
   6 C :   -0.023273
   7 H :    0.030308
   8 H :    0.021635
   9 C :   -0.042703
  10 H :    0.023543
  11 H :    0.023073
  12 C :   -0.072757
  13 H :    0.028240
  14 H :    0.027804
  15 H :    0.028812
  16 S :    0.401272
  17 C :   -0.176387
  18 C :   -0.063061
  19 C :   -0.049787
  20 C :   -0.196204
  21 H :    0.029371
  22 C :   -0.032762
  23 H :    0.028214
  24 H :    0.023582
  25 C :   -0.035453
  26 H :    0.026589
  27 H :    0.023544
  28 C :   -0.061960
  29 H :    0.019935
  30 H :    0.018223
  31 H :    0.032546
  32 H :    0.035834
  33 H :    0.028128

  Mayer bond orders larger than 0.100000
B(  0-S ,  1-C ) :   1.1518 B(  0-S ,  4-C ) :   1.1697 B(  1-C ,  2-C ) :   1.5739
B(  1-C ,  4-C ) :   0.1106 B(  1-C , 32-H ) :   0.9634 B(  2-C ,  3-C ) :   1.2676
B(  2-C ,  6-C ) :   1.0093 B(  3-C ,  4-C ) :   1.5544 B(  3-C ,  5-H ) :   1.0040
B(  4-C , 20-C ) :   1.0223 B(  6-C ,  7-H ) :   0.9406 B(  6-C ,  8-H ) :   0.9433
B(  6-C ,  9-C ) :   1.0705 B(  9-C , 10-H ) :   0.9545 B(  9-C , 11-H ) :   0.9535
B(  9-C , 12-C ) :   1.0695 B( 12-C , 13-H ) :   0.9734 B( 12-C , 14-H ) :   0.9751
B( 12-C , 15-H ) :   0.9711 B( 16-S , 17-C ) :   1.1522 B( 16-S , 20-C ) :   1.1617
B( 17-C , 18-C ) :   1.5940 B( 17-C , 20-C ) :   0.1091 B( 17-C , 33-H ) :   0.9672
B( 18-C , 19-C ) :   1.2387 B( 18-C , 21-H ) :   0.9931 B( 19-C , 20-C ) :   1.5648
B( 19-C , 22-C ) :   1.0806 B( 22-C , 23-H ) :   0.9259 B( 22-C , 24-H ) :   0.9166
B( 22-C , 25-C ) :   1.0381 B( 25-C , 26-H ) :   0.9648 B( 25-C , 27-H ) :   0.9605
B( 25-C , 28-C ) :   1.0600 B( 28-C , 29-H ) :   0.9714 B( 28-C , 30-H ) :   0.9834
B( 28-C , 31-H ) :   0.9722

Dispersion correction           -0.016555898
FINAL SINGLE POINT ENERGY     -1339.869406562588

DIPOLE MOMENT
-------------
                                X             Y             Z
Electronic contribution:     11.70523     -14.77629     -17.61698
Nuclear contribution   :    -11.96621      14.95412      17.79430
                        -----------------------------------------
Total Dipole Moment    :     -0.26098       0.17783       0.17732
                        -----------------------------------------
Magnitude (a.u.)       :      0.36218
Magnitude (Debye)      :      0.92058

Rotational constants in cm-1:     0.020088     0.009456     0.008424
Rotational constants in MHz :   602.227641   283.497592   252.553401

                             ****ORCA TERMINATED NORMALLY****
TOTAL RUN TIME: 0 days 0 hours 0 minutes 36 seconds 397 msec
