                         Program Version 4.2.1 -  RELEASE  -
|  1> ! wB97X-D3 SP def2-SVP
|  2> %pal
|  3> nprocs 16
|  4> end
|  5>
|  6> * xyz 0 1
|  7> S 	 -104.816 	 42.9064 	 125.689
|  8> C 	 -103.147 	 43.0876 	 126.277
|  9> C 	 -102.271 	 43.1334 	 125.185
| 10> C 	 -102.949 	 43.0527 	 123.937
| 11> C 	 -104.336 	 42.9731 	 124.05
| 12> H 	 -102.505 	 43.1035 	 122.974
| 13> C 	 -100.725 	 43.2876 	 125.288
| 14> H 	 -100.537 	 42.2064 	 125.227
| 15> H 	 -100.396 	 43.6295 	 126.207
| 16> C 	 -100.121 	 44.0087 	 124.063
| 17> H 	 -100.416 	 43.4767 	 123.1
| 18> H 	 -100.593 	 45.0015 	 123.943
| 19> C 	 -98.6421 	 44.0754 	 124.107
| 20> H 	 -98.0966 	 43.0906 	 124.139
| 21> H 	 -98.3359 	 44.6986 	 123.301
| 22> H 	 -98.1477 	 44.5129 	 124.983
| 23> S 	 -106.352 	 41.334 	 123.022
| 24> C 	 -107.355 	 42.0772 	 121.735
| 25> C 	 -106.753 	 43.1272 	 121.13
| 26> C 	 -105.591 	 43.5729 	 121.839
| 27> C 	 -105.32 	 42.7661 	 122.964
| 28> H 	 -107.287 	 43.5915 	 120.287
| 29> C 	 -104.717 	 44.7458 	 121.389
| 30> H 	 -104.172 	 45.0725 	 122.28
| 31> H 	 -105.313 	 45.5923 	 121.042
| 32> C 	 -103.798 	 44.5171 	 120.135
| 33> H 	 -104.305 	 44.008 	 119.327
| 34> H 	 -103.086 	 43.7443 	 120.378
| 35> C 	 -103.037 	 45.7503 	 119.564
| 36> H 	 -102.763 	 45.5157 	 118.499
| 37> H 	 -102.101 	 45.8796 	 120.155
| 38> H 	 -103.574 	 46.6079 	 119.593
| 39> H 	 -102.816 	 43.155 	 127.286
| 40> H 	 -108.194 	 41.4897 	 121.396
| 41> *
| 42>
| 43>                          ****END OF INPUT****

CARTESIAN COORDINATES (ANGSTROEM)
---------------------------------
  S    -104.816000   42.906400  125.689000
  C    -103.147000   43.087600  126.277000
  C    -102.271000   43.133400  125.185000
  C    -102.949000   43.052700  123.937000
  C    -104.336000   42.973100  124.050000
  H    -102.505000   43.103500  122.974000
  C    -100.725000   43.287600  125.288000
  H    -100.537000   42.206400  125.227000
  H    -100.396000   43.629500  126.207000
  C    -100.121000   44.008700  124.063000
  H    -100.416000   43.476700  123.100000
  H    -100.593000   45.001500  123.943000
  C    -98.642100   44.075400  124.107000
  H    -98.096600   43.090600  124.139000
  H    -98.335900   44.698600  123.301000
  H    -98.147700   44.512900  124.983000
  S    -106.352000   41.334000  123.022000
  C    -107.355000   42.077200  121.735000
  C    -106.753000   43.127200  121.130000
  C    -105.591000   43.572900  121.839000
  C    -105.320000   42.766100  122.964000
  H    -107.287000   43.591500  120.287000
  C    -104.717000   44.745800  121.389000
  H    -104.172000   45.072500  122.280000
  H    -105.313000   45.592300  121.042000
  C    -103.798000   44.517100  120.135000
  H    -104.305000   44.008000  119.327000
  H    -103.086000   43.744300  120.378000
  C    -103.037000   45.750300  119.564000
  H    -102.763000   45.515700  118.499000
  H    -102.101000   45.879600  120.155000
  H    -103.574000   46.607900  119.593000
  H    -102.816000   43.155000  127.286000
  H    -108.194000   41.489700  121.396000

 Total Charge           Charge          ....    0
 Multiplicity           Mult            ....    1
 Number of Electrons    NEL             ....  134
 Basis Dimension        Dim             ....  322

ORBITAL ENERGIES
----------------

  NO   OCC          E(Eh)            E(eV)
   0   2.0000     -88.965904     -2420.8853
   1   2.0000     -88.963700     -2420.8254
   2   2.0000     -10.331118      -281.1240
   3   2.0000     -10.327450      -281.0242
   4   2.0000     -10.316649      -280.7303
   5   2.0000     -10.312186      -280.6088
   6   2.0000     -10.308895      -280.5193
   7   2.0000     -10.304202      -280.3916
   8   2.0000     -10.296781      -280.1896
   9   2.0000     -10.295343      -280.1505
  10   2.0000     -10.294430      -280.1257
  11   2.0000     -10.292463      -280.0722
  12   2.0000     -10.290032      -280.0060
  13   2.0000     -10.286736      -279.9163
  14   2.0000     -10.280270      -279.7404
  15   2.0000     -10.278407      -279.6897
  16   2.0000      -8.080557      -219.8831
  17   2.0000      -8.077966      -219.8126
  18   2.0000      -6.039051      -164.3309
  19   2.0000      -6.036403      -164.2589
  20   2.0000      -6.034943      -164.2192
  21   2.0000      -6.032794      -164.1607
  22   2.0000      -6.031453      -164.1242
  23   2.0000      -6.028570      -164.0457
  24   2.0000      -1.002795       -27.2874
  25   2.0000      -0.979872       -26.6637
  26   2.0000      -0.914429       -24.8829
  27   2.0000      -0.899836       -24.4858
  28   2.0000      -0.869037       -23.6477
  29   2.0000      -0.848843       -23.0982
  30   2.0000      -0.845683       -23.0122
  31   2.0000      -0.815401       -22.1882
  32   2.0000      -0.784877       -21.3576
  33   2.0000      -0.771093       -20.9825
  34   2.0000      -0.711037       -19.3483
  35   2.0000      -0.702346       -19.1118
  36   2.0000      -0.690910       -18.8006
  37   2.0000      -0.656210       -17.8564
  38   2.0000      -0.641161       -17.4469
  39   2.0000      -0.620862       -16.8945
  40   2.0000      -0.595467       -16.2035
  41   2.0000      -0.568128       -15.4595
  42   2.0000      -0.564886       -15.3713
  43   2.0000      -0.556971       -15.1559
  44   2.0000      -0.536663       -14.6033
  45   2.0000      -0.524141       -14.2626
  46   2.0000      -0.513801       -13.9812
  47   2.0000      -0.510464       -13.8904
  48   2.0000      -0.509100       -13.8533
  49   2.0000      -0.498186       -13.5563
  50   2.0000      -0.488907       -13.3038
  51   2.0000      -0.482170       -13.1205
  52   2.0000      -0.473586       -12.8869
  53   2.0000      -0.464266       -12.6333
  54   2.0000      -0.460095       -12.5198
  55   2.0000      -0.451570       -12.2878
  56   2.0000      -0.447892       -12.1878
  57   2.0000      -0.437056       -11.8929
  58   2.0000      -0.435880       -11.8609
  59   2.0000      -0.426883       -11.6161
  60   2.0000      -0.418095       -11.3769
  61   2.0000      -0.413799       -11.2601
  62   2.0000      -0.407152       -11.0792
  63   2.0000      -0.342385        -9.3168
  64   2.0000      -0.329554        -8.9676
  65   2.0000      -0.326785        -8.8923
  66   2.0000      -0.292713        -7.9651
  67   0.0000       0.030276         0.8239
  68   0.0000       0.068913         1.8752
  69   0.0000       0.105267         2.8645
  70   0.0000       0.122148         3.3238
  71   0.0000       0.125092         3.4039

MULLIKEN ATOMIC CHARGES
-----------------------
   0 S :    0.120836
   1 C :   -0.123713
   2 C :   -0.101553
   3 C :    0.037320
   4 C :   -0.159326
   5 H :   -0.010411
   6 C :    0.112313
   7 H :    0.045984
   8 H :    0.005304
   9 C :   -0.115291
  10 H :    0.045623
  11 H :    0.040955
  12 C :   -0.027743
  13 H :    0.032663
  14 H :    0.028362
  15 H :    0.019883
  16 S :    0.096019
  17 C :   -0.105383
  18 C :   -0.018228
  19 C :   -0.023233
  20 C :   -0.165887
  21 H :    0.034794
  22 C :    0.070986
  23 H :    0.035792
  24 H :    0.017151
  25 C :   -0.081584
  26 H :    0.018525
  27 H :    0.011940
  28 C :   -0.027396
  29 H :    0.041698
  30 H :    0.038977
  31 H :    0.014533
  32 H :    0.032956
  33 H :    0.057137
Sum of atomic charges:    0.0000000

LOEWDIN ATOMIC CHARGES
----------------------
   0 S :    0.422744
   1 C :   -0.201634
   2 C :   -0.053172
   3 C :   -0.069943
   4 C :   -0.207366
   5 H :    0.022654
   6 C :   -0.021466
   7 H :    0.044055
   8 H :    0.016571
   9 C :   -0.047936
  10 H :    0.033548
  11 H :    0.028880
  12 C :   -0.074276
  13 H :    0.032870
  14 H :    0.025133
  15 H :    0.024454
  16 S :    0.373467
  17 C :   -0.162598
  18 C :   -0.070567
  19 C :   -0.051522
  20 C :   -0.191930
  21 H :    0.041473
  22 C :   -0.033291
  23 H :    0.031906
  24 H :    0.027956
  25 C :   -0.043478
  26 H :    0.021382
  27 H :    0.017301
  28 C :   -0.056403
  29 H :    0.036711
  30 H :    0.031439
  31 H :    0.006708
  32 H :    0.022856
  33 H :    0.023476

  Mayer bond orders larger than 0.100000
B(  0-S ,  1-C ) :   1.1331 B(  0-S ,  4-C ) :   1.1835 B(  1-C ,  2-C ) :   1.5943
B(  1-C ,  4-C ) :   0.1018 B(  1-C , 32-H ) :   0.9774 B(  2-C ,  3-C ) :   1.2617
B(  2-C ,  6-C ) :   0.9868 B(  3-C ,  4-C ) :   1.5371 B(  3-C ,  5-H ) :   0.9978
B(  4-C , 20-C ) :   1.0213 B(  6-C ,  7-H ) :   0.9319 B(  6-C ,  8-H ) :   0.9534
B(  6-C ,  9-C ) :   1.0688 B(  9-C , 10-H ) :   0.9398 B(  9-C , 11-H ) :   0.9587
B(  9-C , 12-C ) :   1.0949 B( 12-C , 13-H ) :   0.9700 B( 12-C , 14-H ) :   0.9695
B( 12-C , 15-H ) :   0.9702 B( 16-S , 17-C ) :   1.1317 B( 16-S , 20-C ) :   1.1460
B( 17-C , 18-C ) :   1.6411 B( 17-C , 33-H ) :   0.9678 B( 18-C , 19-C ) :   1.2070
B( 18-C , 21-H ) :   0.9878 B( 19-C , 20-C ) :   1.6039 B( 19-C , 22-C ) :   1.0598
B( 22-C , 23-H ) :   0.9310 B( 22-C , 24-H ) :   0.9330 B( 22-C , 25-C ) :   1.0479
B( 25-C , 26-H ) :   0.9590 B( 25-C , 27-H ) :   0.9532 B( 25-C , 28-C ) :   1.0723
B( 28-C , 29-H ) :   0.9754 B( 28-C , 30-H ) :   0.9787 B( 28-C , 31-H ) :   0.9790

Dispersion correction           -0.014016818
FINAL SINGLE POINT ENERGY     -1339.866693581346

DIPOLE MOMENT
-------------
                                X             Y             Z
Electronic contribution:    -26.10302     -14.70339      13.83886
Nuclear contribution   :     26.63254      14.97937     -14.25003
                        -----------------------------------------
Total Dipole Moment    :      0.52952       0.27598      -0.41117
                        -----------------------------------------
Magnitude (a.u.)       :      0.72500
Magnitude (Debye)      :      1.84279

Rotational constants in cm-1:     0.016025     0.009625     0.006491
Rotational constants in MHz :   480.417429   288.548707   194.587875

                             ****ORCA TERMINATED NORMALLY****
TOTAL RUN TIME: 0 days 0 hours 0 minutes 33 seconds 197 msec
