                         Program Version 4.2.1 -  RELEASE  -
|  1> ! wB97X-D3 SP def2-SVP
|  2> %pal
|  3> nprocs 16
|  4> end
|  5>
|  6> * xyz 0 1
|  7> S 	 -54.4582 	 30.9906 	 100.135
|  8> C 	 -54.7964 	 29.1796 	 100.173
|  9> C 	 -53.6981 	 28.5239 	 99.7144
| 10> C 	 -52.6466 	 29.3663 	 99.3056
| 11> C 	 -52.8297 	 30.7008 	 99.6081
| 12> H 	 -51.7047 	 28.9897 	 99.0156
| 13> C 	 -53.6377 	 27.0215 	 99.7058
| 14> H 	 -53.9251 	 26.6516 	 100.62
| 15> H 	 -52.5969 	 26.6025 	 99.6279
| 16> C 	 -54.6279 	 26.2864 	 98.6116
| 17> H 	 -55.5777 	 26.7173 	 98.8516
| 18> H 	 -54.4603 	 26.5885 	 97.6053
| 19> C 	 -54.7391 	 24.7186 	 98.8237
| 20> H 	 -53.8623 	 24.101 	 98.7996
| 21> H 	 -55.3458 	 24.3963 	 99.6569
| 22> H 	 -55.3446 	 24.3299 	 97.936
| 23> S 	 -52.305 	 33.1972 	 100.485
| 24> C 	 -50.8913 	 34.0758 	 100.065
| 25> C 	 -50.122 	 33.3411 	 99.1906
| 26> C 	 -50.6086 	 32.0185 	 98.9317
| 27> C 	 -51.8179 	 31.7768 	 99.5652
| 28> H 	 -49.2054 	 33.7834 	 98.7691
| 29> C 	 -49.8293 	 31.0242 	 98.0622
| 30> H 	 -49.2992 	 31.5035 	 97.3188
| 31> H 	 -50.4308 	 30.3498 	 97.4302
| 32> C 	 -48.8477 	 30.1619 	 98.843
| 33> H 	 -49.4278 	 29.6224 	 99.6006
| 34> H 	 -48.089 	 30.8375 	 99.1847
| 35> C 	 -48.0863 	 29.0072 	 98.0508
| 36> H 	 -47.2064 	 29.3181 	 97.5163
| 37> H 	 -48.6876 	 28.4284 	 97.3333
| 38> H 	 -47.7258 	 28.2295 	 98.7274
| 39> H 	 -55.5162 	 28.6267 	 100.734
| 40> H 	 -50.6211 	 35.1453 	 100.256
| 41> *
| 42>
| 43>                          ****END OF INPUT****

CARTESIAN COORDINATES (ANGSTROEM)
---------------------------------
  S    -54.458200   30.990600  100.135000
  C    -54.796400   29.179600  100.173000
  C    -53.698100   28.523900   99.714400
  C    -52.646600   29.366300   99.305600
  C    -52.829700   30.700800   99.608100
  H    -51.704700   28.989700   99.015600
  C    -53.637700   27.021500   99.705800
  H    -53.925100   26.651600  100.620000
  H    -52.596900   26.602500   99.627900
  C    -54.627900   26.286400   98.611600
  H    -55.577700   26.717300   98.851600
  H    -54.460300   26.588500   97.605300
  C    -54.739100   24.718600   98.823700
  H    -53.862300   24.101000   98.799600
  H    -55.345800   24.396300   99.656900
  H    -55.344600   24.329900   97.936000
  S    -52.305000   33.197200  100.485000
  C    -50.891300   34.075800  100.065000
  C    -50.122000   33.341100   99.190600
  C    -50.608600   32.018500   98.931700
  C    -51.817900   31.776800   99.565200
  H    -49.205400   33.783400   98.769100
  C    -49.829300   31.024200   98.062200
  H    -49.299200   31.503500   97.318800
  H    -50.430800   30.349800   97.430200
  C    -48.847700   30.161900   98.843000
  H    -49.427800   29.622400   99.600600
  H    -48.089000   30.837500   99.184700
  C    -48.086300   29.007200   98.050800
  H    -47.206400   29.318100   97.516300
  H    -48.687600   28.428400   97.333300
  H    -47.725800   28.229500   98.727400
  H    -55.516200   28.626700  100.734000
  H    -50.621100   35.145300  100.256000

 Total Charge           Charge          ....    0
 Multiplicity           Mult            ....    1
 Number of Electrons    NEL             ....  134
 Basis Dimension        Dim             ....  322

ORBITAL ENERGIES
----------------

  NO   OCC          E(Eh)            E(eV)
   0   2.0000     -88.968844     -2420.9653
   1   2.0000     -88.967780     -2420.9364
   2   2.0000     -10.336370      -281.2669
   3   2.0000     -10.334302      -281.2106
   4   2.0000     -10.319667      -280.8124
   5   2.0000     -10.312517      -280.6178
   6   2.0000     -10.310890      -280.5736
   7   2.0000     -10.298260      -280.2299
   8   2.0000     -10.297184      -280.2006
   9   2.0000     -10.295795      -280.1628
  10   2.0000     -10.294231      -280.1203
  11   2.0000     -10.290513      -280.0191
  12   2.0000     -10.288620      -279.9676
  13   2.0000     -10.287828      -279.9460
  14   2.0000     -10.286409      -279.9074
  15   2.0000     -10.281807      -279.7822
  16   2.0000      -8.082874      -219.9462
  17   2.0000      -8.082276      -219.9299
  18   2.0000      -6.041457      -164.3964
  19   2.0000      -6.041115      -164.3871
  20   2.0000      -6.037216      -164.2810
  21   2.0000      -6.037044      -164.2763
  22   2.0000      -6.033638      -164.1836
  23   2.0000      -6.032664      -164.1571
  24   2.0000      -1.010395       -27.4942
  25   2.0000      -0.985794       -26.8248
  26   2.0000      -0.910019       -24.7629
  27   2.0000      -0.903821       -24.5942
  28   2.0000      -0.864882       -23.5346
  29   2.0000      -0.849980       -23.1291
  30   2.0000      -0.840443       -22.8696
  31   2.0000      -0.817719       -22.2513
  32   2.0000      -0.786762       -21.4089
  33   2.0000      -0.776104       -21.1189
  34   2.0000      -0.713403       -19.4127
  35   2.0000      -0.709902       -19.3174
  36   2.0000      -0.696903       -18.9637
  37   2.0000      -0.664601       -18.0847
  38   2.0000      -0.637190       -17.3388
  39   2.0000      -0.623915       -16.9776
  40   2.0000      -0.599251       -16.3064
  41   2.0000      -0.571606       -15.5542
  42   2.0000      -0.566485       -15.4149
  43   2.0000      -0.550890       -14.9905
  44   2.0000      -0.524658       -14.2767
  45   2.0000      -0.518282       -14.1032
  46   2.0000      -0.512378       -13.9425
  47   2.0000      -0.507370       -13.8062
  48   2.0000      -0.502547       -13.6750
  49   2.0000      -0.501926       -13.6581
  50   2.0000      -0.495376       -13.4799
  51   2.0000      -0.483453       -13.1554
  52   2.0000      -0.473868       -12.8946
  53   2.0000      -0.467671       -12.7260
  54   2.0000      -0.460316       -12.5258
  55   2.0000      -0.455196       -12.3865
  56   2.0000      -0.448282       -12.1984
  57   2.0000      -0.439418       -11.9572
  58   2.0000      -0.431612       -11.7448
  59   2.0000      -0.426222       -11.5981
  60   2.0000      -0.422234       -11.4896
  61   2.0000      -0.417360       -11.3570
  62   2.0000      -0.411296       -11.1919
  63   2.0000      -0.358843        -9.7646
  64   2.0000      -0.337335        -9.1793
  65   2.0000      -0.330366        -8.9897
  66   2.0000      -0.286468        -7.7952
  67   0.0000       0.015160         0.4125
  68   0.0000       0.074700         2.0327
  69   0.0000       0.101499         2.7619
  70   0.0000       0.122098         3.3224
  71   0.0000       0.132461         3.6044

MULLIKEN ATOMIC CHARGES
-----------------------
   0 S :    0.091110
   1 C :   -0.107558
   2 C :   -0.076746
   3 C :    0.020067
   4 C :   -0.077611
   5 H :   -0.025061
   6 C :    0.065362
   7 H :    0.002171
   8 H :    0.025567
   9 C :   -0.050192
  10 H :    0.018484
  11 H :    0.034234
  12 C :   -0.077186
  13 H :    0.036598
  14 H :    0.034846
  15 H :    0.035515
  16 S :    0.093693
  17 C :   -0.086905
  18 C :   -0.055917
  19 C :   -0.047302
  20 C :   -0.125574
  21 H :    0.024944
  22 C :    0.092467
  23 H :   -0.009361
  24 H :    0.018434
  25 C :   -0.065889
  26 H :    0.038420
  27 H :    0.030279
  28 C :   -0.064197
  29 H :    0.030163
  30 H :    0.025471
  31 H :    0.032492
  32 H :    0.043945
  33 H :    0.075236
Sum of atomic charges:    0.0000000

LOEWDIN ATOMIC CHARGES
----------------------
   0 S :    0.372291
   1 C :   -0.177515
   2 C :   -0.056826
   3 C :   -0.069796
   4 C :   -0.178455
   5 H :    0.020327
   6 C :   -0.027727
   7 H :    0.017724
   8 H :    0.031584
   9 C :   -0.022673
  10 H :    0.020844
  11 H :    0.020827
  12 C :   -0.076574
  13 H :    0.021070
  14 H :    0.024352
  15 H :    0.037623
  16 S :    0.416593
  17 C :   -0.206615
  18 C :   -0.075734
  19 C :   -0.053587
  20 C :   -0.181160
  21 H :    0.034748
  22 C :   -0.032065
  23 H :    0.018097
  24 H :    0.029714
  25 C :   -0.031125
  26 H :    0.025206
  27 H :    0.024648
  28 C :   -0.073877
  29 H :    0.020941
  30 H :    0.023589
  31 H :    0.029258
  32 H :    0.027891
  33 H :    0.046402

  Mayer bond orders larger than 0.100000
B(  0-S ,  1-C ) :   1.0873 B(  0-S ,  4-C ) :   1.1470 B(  1-C ,  2-C ) :   1.6449
B(  1-C , 32-H ) :   0.9621 B(  2-C ,  3-C ) :   1.2455 B(  2-C ,  6-C ) :   1.0298
B(  3-C ,  4-C ) :   1.5614 B(  3-C ,  5-H ) :   1.0016 B(  4-C , 20-C ) :   1.0649
B(  6-C ,  7-H ) :   0.9374 B(  6-C ,  8-H ) :   0.9479 B(  6-C ,  9-C ) :   1.0358
B(  9-C , 10-H ) :   0.9580 B(  9-C , 11-H ) :   0.9681 B(  9-C , 12-C ) :   1.0660
B( 12-C , 13-H ) :   0.9809 B( 12-C , 14-H ) :   0.9777 B( 12-C , 15-H ) :   0.9740
B( 16-S , 17-C ) :   1.1587 B( 16-S , 20-C ) :   1.1396 B( 17-C , 18-C ) :   1.6094
B( 17-C , 33-H ) :   0.9590 B( 18-C , 19-C ) :   1.2581 B( 18-C , 21-H ) :   0.9847
B( 19-C , 20-C ) :   1.5778 B( 19-C , 22-C ) :   1.0433 B( 22-C , 23-H ) :   0.9254
B( 22-C , 24-H ) :   0.9344 B( 22-C , 25-C ) :   1.0661 B( 25-C , 26-H ) :   0.9604
B( 25-C , 27-H ) :   0.9562 B( 25-C , 28-C ) :   1.0701 B( 28-C , 29-H ) :   0.9787
B( 28-C , 30-H ) :   0.9757 B( 28-C , 31-H ) :   0.9772

Dispersion correction           -0.013569817
FINAL SINGLE POINT ENERGY     -1339.855375850637

DIPOLE MOMENT
-------------
                                X             Y             Z
Electronic contribution:    -10.93645      28.84965      10.29467
Nuclear contribution   :     11.44031     -29.32472     -10.48633
                        -----------------------------------------
Total Dipole Moment    :      0.50386      -0.47507      -0.19166
                        -----------------------------------------
Magnitude (a.u.)       :      0.71854
Magnitude (Debye)      :      1.82638

Rotational constants in cm-1:     0.018408     0.008277     0.005871
Rotational constants in MHz :   551.856271   248.134046   176.019440

                             ****ORCA TERMINATED NORMALLY****
TOTAL RUN TIME: 0 days 0 hours 0 minutes 27 seconds 344 msec
