                         Program Version 4.2.1 -  RELEASE  -
|  1> ! wB97X-D3 SP def2-SVP
|  2> %pal
|  3> nprocs 16
|  4> end
|  5>
|  6> * xyz 0 1
|  7> S 	 -70.9968 	 40.3166 	 120.859
|  8> C 	 -72.4717 	 41.2343 	 120.569
|  9> C 	 -73.5065 	 40.2622 	 120.416
| 10> C 	 -73.075 	 38.8857 	 120.567
| 11> C 	 -71.7637 	 38.706 	 120.867
| 12> H 	 -73.8064 	 38.1044 	 120.504
| 13> C 	 -74.8844 	 40.6455 	 120.042
| 14> H 	 -75.3951 	 41.0311 	 120.889
| 15> H 	 -75.378 	 39.7103 	 119.846
| 16> C 	 -75.1357 	 41.5572 	 118.875
| 17> H 	 -74.6206 	 42.4615 	 119.146
| 18> H 	 -74.5937 	 41.173 	 118.07
| 19> C 	 -76.5978 	 41.8159 	 118.577
| 20> H 	 -76.7916 	 42.3551 	 117.656
| 21> H 	 -77.2453 	 40.9924 	 118.613
| 22> H 	 -77.0055 	 42.4547 	 119.406
| 23> S 	 -69.3751 	 37.5942 	 120.066
| 24> C 	 -69.1801 	 35.8561 	 119.919
| 25> C 	 -70.2654 	 35.2335 	 120.422
| 26> C 	 -71.1914 	 36.1332 	 121.024
| 27> C 	 -70.9495 	 37.4587 	 120.811
| 28> H 	 -70.3269 	 34.2028 	 120.42
| 29> C 	 -72.3646 	 35.4985 	 121.702
| 30> H 	 -73.042 	 35.2529 	 120.893
| 31> H 	 -72.7722 	 36.2858 	 122.365
| 32> C 	 -72.0457 	 34.3115 	 122.654
| 33> H 	 -71.3678 	 34.6965 	 123.386
| 34> H 	 -71.5121 	 33.5215 	 122.215
| 35> C 	 -73.2661 	 33.8009 	 123.332
| 36> H 	 -72.979 	 33.0633 	 124.142
| 37> H 	 -73.8837 	 33.4005 	 122.609
| 38> H 	 -73.7523 	 34.6745 	 123.669
| 39> H 	 -72.611 	 42.2161 	 120.186
| 40> H 	 -68.4098 	 35.3502 	 119.35
| 41> *
| 42>
| 43>                          ****END OF INPUT****

CARTESIAN COORDINATES (ANGSTROEM)
---------------------------------
  S    -70.996800   40.316600  120.859000
  C    -72.471700   41.234300  120.569000
  C    -73.506500   40.262200  120.416000
  C    -73.075000   38.885700  120.567000
  C    -71.763700   38.706000  120.867000
  H    -73.806400   38.104400  120.504000
  C    -74.884400   40.645500  120.042000
  H    -75.395100   41.031100  120.889000
  H    -75.378000   39.710300  119.846000
  C    -75.135700   41.557200  118.875000
  H    -74.620600   42.461500  119.146000
  H    -74.593700   41.173000  118.070000
  C    -76.597800   41.815900  118.577000
  H    -76.791600   42.355100  117.656000
  H    -77.245300   40.992400  118.613000
  H    -77.005500   42.454700  119.406000
  S    -69.375100   37.594200  120.066000
  C    -69.180100   35.856100  119.919000
  C    -70.265400   35.233500  120.422000
  C    -71.191400   36.133200  121.024000
  C    -70.949500   37.458700  120.811000
  H    -70.326900   34.202800  120.420000
  C    -72.364600   35.498500  121.702000
  H    -73.042000   35.252900  120.893000
  H    -72.772200   36.285800  122.365000
  C    -72.045700   34.311500  122.654000
  H    -71.367800   34.696500  123.386000
  H    -71.512100   33.521500  122.215000
  C    -73.266100   33.800900  123.332000
  H    -72.979000   33.063300  124.142000
  H    -73.883700   33.400500  122.609000
  H    -73.752300   34.674500  123.669000
  H    -72.611000   42.216100  120.186000
  H    -68.409800   35.350200  119.350000

 Total Charge           Charge          ....    0
 Multiplicity           Mult            ....    1
 Number of Electrons    NEL             ....  134
 Basis Dimension        Dim             ....  322

ORBITAL ENERGIES
----------------

  NO   OCC          E(Eh)            E(eV)
   0   2.0000     -88.965426     -2420.8723
   1   2.0000     -88.960888     -2420.7488
   2   2.0000     -10.339942      -281.3641
   3   2.0000     -10.331301      -281.1290
   4   2.0000     -10.317153      -280.7440
   5   2.0000     -10.316206      -280.7182
   6   2.0000     -10.304310      -280.3945
   7   2.0000     -10.299513      -280.2640
   8   2.0000     -10.296116      -280.1716
   9   2.0000     -10.291762      -280.0531
  10   2.0000     -10.284737      -279.8619
  11   2.0000     -10.279623      -279.7228
  12   2.0000     -10.279508      -279.7196
  13   2.0000     -10.278904      -279.7032
  14   2.0000     -10.277177      -279.6562
  15   2.0000     -10.270006      -279.4611
  16   2.0000      -8.079188      -219.8459
  17   2.0000      -8.076089      -219.7615
  18   2.0000      -6.038020      -164.3029
  19   2.0000      -6.034742      -164.2137
  20   2.0000      -6.033651      -164.1840
  21   2.0000      -6.030538      -164.0993
  22   2.0000      -6.029796      -164.0791
  23   2.0000      -6.026620      -163.9927
  24   2.0000      -1.009529       -27.4707
  25   2.0000      -0.985204       -26.8088
  26   2.0000      -0.922198       -25.0943
  27   2.0000      -0.917790       -24.9743
  28   2.0000      -0.872980       -23.7550
  29   2.0000      -0.859377       -23.3848
  30   2.0000      -0.847360       -23.0578
  31   2.0000      -0.825898       -22.4738
  32   2.0000      -0.779728       -21.2175
  33   2.0000      -0.771312       -20.9885
  34   2.0000      -0.717493       -19.5240
  35   2.0000      -0.709152       -19.2970
  36   2.0000      -0.700323       -19.0568
  37   2.0000      -0.665681       -18.1141
  38   2.0000      -0.639570       -17.4036
  39   2.0000      -0.624678       -16.9983
  40   2.0000      -0.599684       -16.3182
  41   2.0000      -0.577060       -15.7026
  42   2.0000      -0.576001       -15.6738
  43   2.0000      -0.572511       -15.5788
  44   2.0000      -0.534545       -14.5457
  45   2.0000      -0.531298       -14.4573
  46   2.0000      -0.523248       -14.2383
  47   2.0000      -0.521421       -14.1886
  48   2.0000      -0.518578       -14.1112
  49   2.0000      -0.500549       -13.6206
  50   2.0000      -0.494850       -13.4656
  51   2.0000      -0.480974       -13.0880
  52   2.0000      -0.471171       -12.8212
  53   2.0000      -0.465605       -12.6698
  54   2.0000      -0.459931       -12.5153
  55   2.0000      -0.456676       -12.4268
  56   2.0000      -0.452118       -12.3028
  57   2.0000      -0.436162       -11.8686
  58   2.0000      -0.429422       -11.6852
  59   2.0000      -0.426449       -11.6043
  60   2.0000      -0.420051       -11.4302
  61   2.0000      -0.417744       -11.3674
  62   2.0000      -0.403091       -10.9687
  63   2.0000      -0.360994        -9.8231
  64   2.0000      -0.332174        -9.0389
  65   2.0000      -0.322101        -8.7648
  66   2.0000      -0.291082        -7.9207
  67   0.0000       0.020900         0.5687
  68   0.0000       0.077718         2.1148
  69   0.0000       0.106310         2.8928
  70   0.0000       0.120692         3.2842
  71   0.0000       0.134534         3.6609

MULLIKEN ATOMIC CHARGES
-----------------------
   0 S :    0.083718
   1 C :   -0.088415
   2 C :   -0.151224
   3 C :    0.028939
   4 C :   -0.091241
   5 H :    0.005286
   6 C :    0.072024
   7 H :    0.025468
   8 H :   -0.003010
   9 C :   -0.043039
  10 H :    0.015239
  11 H :    0.017438
  12 C :   -0.025889
  13 H :    0.039123
  14 H :    0.016419
  15 H :    0.023989
  16 S :    0.079771
  17 C :   -0.072858
  18 C :   -0.006276
  19 C :   -0.083109
  20 C :   -0.098652
  21 H :   -0.007271
  22 C :    0.030149
  23 H :    0.042383
  24 H :    0.032097
  25 C :   -0.078819
  26 H :    0.022631
  27 H :    0.012802
  28 C :    0.021961
  29 H :    0.050884
  30 H :    0.006599
  31 H :    0.009048
  32 H :    0.054900
  33 H :    0.058936
Sum of atomic charges:   -0.0000000

LOEWDIN ATOMIC CHARGES
----------------------
   0 S :    0.388478
   1 C :   -0.200669
   2 C :   -0.054116
   3 C :   -0.066112
   4 C :   -0.173761
   5 H :    0.027639
   6 C :   -0.037636
   7 H :    0.029123
   8 H :    0.023632
   9 C :   -0.033850
  10 H :    0.019976
  11 H :    0.017444
  12 C :   -0.060451
  13 H :    0.029560
  14 H :    0.017320
  15 H :    0.032968
  16 S :    0.396979
  17 C :   -0.170336
  18 C :   -0.064386
  19 C :   -0.062047
  20 C :   -0.193638
  21 H :    0.019687
  22 C :   -0.032487
  23 H :    0.031090
  24 H :    0.034155
  25 C :   -0.036103
  26 H :    0.024595
  27 H :    0.010756
  28 C :   -0.052417
  29 H :    0.038705
  30 H :    0.014067
  31 H :    0.020242
  32 H :    0.028056
  33 H :    0.033539

  Mayer bond orders larger than 0.100000
B(  0-S ,  1-C ) :   1.1321 B(  0-S ,  4-C ) :   1.1441 B(  1-C ,  2-C ) :   1.5759
B(  1-C , 32-H ) :   0.9708 B(  2-C ,  3-C ) :   1.2767 B(  2-C ,  6-C ) :   1.0343
B(  3-C ,  4-C ) :   1.5581 B(  3-C ,  5-H ) :   0.9895 B(  4-C , 20-C ) :   1.0293
B(  6-C ,  7-H ) :   0.9270 B(  6-C ,  8-H ) :   0.9359 B(  6-C ,  9-C ) :   1.0683
B(  9-C , 10-H ) :   0.9487 B(  9-C , 11-H ) :   0.9587 B(  9-C , 12-C ) :   1.0846
B( 12-C , 13-H ) :   0.9742 B( 12-C , 14-H ) :   0.9764 B( 12-C , 15-H ) :   0.9700
B( 16-S , 17-C ) :   1.1503 B( 16-S , 20-C ) :   1.1169 B( 17-C , 18-C ) :   1.6229
B( 17-C , 33-H ) :   0.9660 B( 18-C , 19-C ) :   1.2291 B( 18-C , 21-H ) :   1.0043
B( 19-C , 20-C ) :   1.6244 B( 19-C , 22-C ) :   1.0422 B( 22-C , 23-H ) :   0.9308
B( 22-C , 24-H ) :   0.9363 B( 22-C , 25-C ) :   1.0673 B( 25-C , 26-H ) :   0.9521
B( 25-C , 27-H ) :   0.9505 B( 25-C , 28-C ) :   1.0941 B( 28-C , 29-H ) :   0.9702
B( 28-C , 30-H ) :   0.9710 B( 28-C , 31-H ) :   0.9677

Dispersion correction           -0.012991418
FINAL SINGLE POINT ENERGY     -1339.854104979598

DIPOLE MOMENT
-------------
                                X             Y             Z
Electronic contribution:     25.89835       5.87183      -1.97299
Nuclear contribution   :    -26.57312      -6.34512       1.72163
                        -----------------------------------------
Total Dipole Moment    :     -0.67476      -0.47328      -0.25136
                        -----------------------------------------
Magnitude (a.u.)       :      0.86168
Magnitude (Debye)      :      2.19021

Rotational constants in cm-1:     0.019366     0.007200     0.005773
Rotational constants in MHz :   580.586956   215.860115   173.059560

                             ****ORCA TERMINATED NORMALLY****
TOTAL RUN TIME: 0 days 0 hours 0 minutes 31 seconds 997 msec
