                         Program Version 4.2.1 -  RELEASE  -
|  1> ! wB97X-D3 SP def2-SVP
|  2> %pal
|  3> nprocs 16
|  4> end
|  5>
|  6> * xyz 0 1
|  7> S 	 -68.897 	 37.3882 	 126.182
|  8> C 	 -68.6849 	 37.107 	 127.846
|  9> C 	 -69.1212 	 38.2148 	 128.564
| 10> C 	 -69.8231 	 39.1308 	 127.72
| 11> C 	 -69.8176 	 38.7982 	 126.382
| 12> H 	 -70.2188 	 40.0762 	 128.047
| 13> C 	 -68.8521 	 38.5642 	 130.039
| 14> H 	 -69.6574 	 39.2333 	 130.41
| 15> H 	 -67.9426 	 39.1052 	 130.06
| 16> C 	 -68.7433 	 37.3529 	 130.921
| 17> H 	 -69.7598 	 36.9701 	 130.813
| 18> H 	 -68.0674 	 36.539 	 130.511
| 19> C 	 -68.3721 	 37.6495 	 132.386
| 20> H 	 -68.9311 	 38.489 	 132.839
| 21> H 	 -68.5123 	 36.8169 	 133.054
| 22> H 	 -67.3767 	 37.9632 	 132.421
| 23> S 	 -69.746 	 41.0479 	 124.733
| 24> C 	 -70.7225 	 41.0093 	 123.301
| 25> C 	 -71.7211 	 40.0532 	 123.411
| 26> C 	 -71.5601 	 39.2299 	 124.549
| 27> C 	 -70.4607 	 39.5788 	 125.344
| 28> H 	 -72.5028 	 39.9738 	 122.584
| 29> C 	 -72.38 	 38.0101 	 124.799
| 30> H 	 -73.3945 	 38.2915 	 124.588
| 31> H 	 -72.2717 	 37.7152 	 125.832
| 32> C 	 -71.9382 	 36.977 	 123.698
| 33> H 	 -70.9195 	 36.7795 	 123.708
| 34> H 	 -71.9584 	 37.59 	 122.816
| 35> C 	 -72.854 	 35.7584 	 123.514
| 36> H 	 -72.4594 	 35.1512 	 122.669
| 37> H 	 -73.9026 	 36.1237 	 123.365
| 38> H 	 -73.1323 	 35.1645 	 124.396
| 39> H 	 -68.0651 	 36.2987 	 128.348
| 40> H 	 -70.6803 	 41.6792 	 122.465
| 41> *
| 42>
| 43>                          ****END OF INPUT****

CARTESIAN COORDINATES (ANGSTROEM)
---------------------------------
  S    -68.897000   37.388200  126.182000
  C    -68.684900   37.107000  127.846000
  C    -69.121200   38.214800  128.564000
  C    -69.823100   39.130800  127.720000
  C    -69.817600   38.798200  126.382000
  H    -70.218800   40.076200  128.047000
  C    -68.852100   38.564200  130.039000
  H    -69.657400   39.233300  130.410000
  H    -67.942600   39.105200  130.060000
  C    -68.743300   37.352900  130.921000
  H    -69.759800   36.970100  130.813000
  H    -68.067400   36.539000  130.511000
  C    -68.372100   37.649500  132.386000
  H    -68.931100   38.489000  132.839000
  H    -68.512300   36.816900  133.054000
  H    -67.376700   37.963200  132.421000
  S    -69.746000   41.047900  124.733000
  C    -70.722500   41.009300  123.301000
  C    -71.721100   40.053200  123.411000
  C    -71.560100   39.229900  124.549000
  C    -70.460700   39.578800  125.344000
  H    -72.502800   39.973800  122.584000
  C    -72.380000   38.010100  124.799000
  H    -73.394500   38.291500  124.588000
  H    -72.271700   37.715200  125.832000
  C    -71.938200   36.977000  123.698000
  H    -70.919500   36.779500  123.708000
  H    -71.958400   37.590000  122.816000
  C    -72.854000   35.758400  123.514000
  H    -72.459400   35.151200  122.669000
  H    -73.902600   36.123700  123.365000
  H    -73.132300   35.164500  124.396000
  H    -68.065100   36.298700  128.348000
  H    -70.680300   41.679200  122.465000

 Total Charge           Charge          ....    0
 Multiplicity           Mult            ....    1
 Number of Electrons    NEL             ....  134
 Basis Dimension        Dim             ....  322

ORBITAL ENERGIES
----------------

  NO   OCC          E(Eh)            E(eV)
   0   2.0000     -88.967376     -2420.9254
   1   2.0000     -88.965064     -2420.8625
   2   2.0000     -10.321634      -280.8659
   3   2.0000     -10.320992      -280.8485
   4   2.0000     -10.316961      -280.7388
   5   2.0000     -10.315234      -280.6918
   6   2.0000     -10.299772      -280.2710
   7   2.0000     -10.299587      -280.2660
   8   2.0000     -10.298058      -280.2244
   9   2.0000     -10.291028      -280.0331
  10   2.0000     -10.289484      -279.9911
  11   2.0000     -10.287359      -279.9333
  12   2.0000     -10.284804      -279.8637
  13   2.0000     -10.281254      -279.7672
  14   2.0000     -10.277358      -279.6611
  15   2.0000     -10.275625      -279.6140
  16   2.0000      -8.083249      -219.9564
  17   2.0000      -8.080082      -219.8702
  18   2.0000      -6.041584      -164.3999
  19   2.0000      -6.038507      -164.3161
  20   2.0000      -6.037496      -164.2886
  21   2.0000      -6.034501      -164.2071
  22   2.0000      -6.034198      -164.1989
  23   2.0000      -6.030961      -164.1108
  24   2.0000      -1.014197       -27.5977
  25   2.0000      -0.991336       -26.9756
  26   2.0000      -0.915592       -24.9145
  27   2.0000      -0.909209       -24.7408
  28   2.0000      -0.870416       -23.6852
  29   2.0000      -0.849903       -23.1270
  30   2.0000      -0.845547       -23.0085
  31   2.0000      -0.813125       -22.1262
  32   2.0000      -0.784805       -21.3556
  33   2.0000      -0.768794       -20.9200
  34   2.0000      -0.708798       -19.2874
  35   2.0000      -0.706910       -19.2360
  36   2.0000      -0.694551       -18.8997
  37   2.0000      -0.656434       -17.8625
  38   2.0000      -0.641362       -17.4523
  39   2.0000      -0.610667       -16.6171
  40   2.0000      -0.592797       -16.1308
  41   2.0000      -0.576329       -15.6827
  42   2.0000      -0.568340       -15.4653
  43   2.0000      -0.556184       -15.1345
  44   2.0000      -0.530675       -14.4404
  45   2.0000      -0.521569       -14.1926
  46   2.0000      -0.514947       -14.0124
  47   2.0000      -0.513345       -13.9688
  48   2.0000      -0.504670       -13.7328
  49   2.0000      -0.498692       -13.5701
  50   2.0000      -0.497274       -13.5315
  51   2.0000      -0.476015       -12.9530
  52   2.0000      -0.475116       -12.9286
  53   2.0000      -0.470223       -12.7954
  54   2.0000      -0.458678       -12.4813
  55   2.0000      -0.452226       -12.3057
  56   2.0000      -0.444585       -12.0978
  57   2.0000      -0.436380       -11.8745
  58   2.0000      -0.431113       -11.7312
  59   2.0000      -0.424804       -11.5595
  60   2.0000      -0.420198       -11.4342
  61   2.0000      -0.417899       -11.3716
  62   2.0000      -0.406170       -11.0524
  63   2.0000      -0.334698        -9.1076
  64   2.0000      -0.331018        -9.0075
  65   2.0000      -0.320725        -8.7274
  66   2.0000      -0.304192        -8.2775
  67   0.0000       0.042504         1.1566
  68   0.0000       0.057140         1.5549
  69   0.0000       0.112693         3.0665
  70   0.0000       0.126288         3.4365
  71   0.0000       0.135725         3.6933

MULLIKEN ATOMIC CHARGES
-----------------------
   0 S :    0.146626
   1 C :   -0.158378
   2 C :   -0.103712
   3 C :    0.021790
   4 C :   -0.161714
   5 H :    0.002639
   6 C :    0.100759
   7 H :    0.032355
   8 H :    0.028638
   9 C :   -0.140634
  10 H :    0.031748
  11 H :    0.038899
  12 C :   -0.002471
  13 H :    0.023413
  14 H :    0.034753
  15 H :    0.016986
  16 S :    0.121572
  17 C :   -0.092444
  18 C :   -0.069437
  19 C :   -0.069979
  20 C :   -0.174875
  21 H :    0.048783
  22 C :    0.126552
  23 H :    0.011086
  24 H :    0.037366
  25 C :   -0.047321
  26 H :    0.001889
  27 H :    0.004050
  28 C :   -0.030334
  29 H :    0.051813
  30 H :    0.015573
  31 H :    0.030619
  32 H :    0.073239
  33 H :    0.050152
Sum of atomic charges:    0.0000000

LOEWDIN ATOMIC CHARGES
----------------------
   0 S :    0.462467
   1 C :   -0.233878
   2 C :   -0.065393
   3 C :   -0.063055
   4 C :   -0.222401
   5 H :    0.026879
   6 C :   -0.027064
   7 H :    0.035038
   8 H :    0.025268
   9 C :   -0.049687
  10 H :    0.026201
  11 H :    0.027340
  12 C :   -0.061163
  13 H :    0.028215
  14 H :    0.026807
  15 H :    0.017930
  16 S :    0.417307
  17 C :   -0.185406
  18 C :   -0.085663
  19 C :   -0.048411
  20 C :   -0.215792
  21 H :    0.044244
  22 C :   -0.021198
  23 H :    0.028120
  24 H :    0.028829
  25 C :   -0.033955
  26 H :    0.010839
  27 H :    0.023736
  28 C :   -0.077087
  29 H :    0.034248
  30 H :    0.027693
  31 H :    0.027214
  32 H :    0.044374
  33 H :    0.027404

  Mayer bond orders larger than 0.100000
B(  0-S ,  1-C ) :   1.1636 B(  0-S ,  4-C ) :   1.1758 B(  1-C ,  2-C ) :   1.5719
B(  1-C , 32-H ) :   0.9584 B(  2-C ,  3-C ) :   1.2846 B(  2-C ,  6-C ) :   1.0058
B(  3-C ,  4-C ) :   1.5408 B(  3-C ,  5-H ) :   1.0004 B(  4-C , 20-C ) :   1.0265
B(  6-C ,  7-H ) :   0.9442 B(  6-C ,  8-H ) :   0.9317 B(  6-C ,  9-C ) :   1.0615
B(  9-C , 10-H ) :   0.9621 B(  9-C , 11-H ) :   0.9505 B(  9-C , 12-C ) :   1.0813
B( 12-C , 13-H ) :   0.9726 B( 12-C , 14-H ) :   0.9741 B( 12-C , 15-H ) :   0.9727
B( 16-S , 17-C ) :   1.1767 B( 16-S , 20-C ) :   1.1392 B( 17-C , 18-C ) :   1.5912
B( 17-C , 20-C ) :   0.1012 B( 17-C , 33-H ) :   0.9685 B( 18-C , 19-C ) :   1.2581
B( 18-C , 21-H ) :   0.9740 B( 19-C , 20-C ) :   1.5724 B( 19-C , 22-C ) :   1.0614
B( 22-C , 23-H ) :   0.9232 B( 22-C , 24-H ) :   0.9278 B( 22-C , 25-C ) :   1.0483
B( 25-C , 26-H ) :   0.9514 B( 25-C , 27-H ) :   0.9526 B( 25-C , 28-C ) :   1.0718
B( 28-C , 29-H ) :   0.9727 B( 28-C , 30-H ) :   0.9684 B( 28-C , 31-H ) :   0.9733

Dispersion correction           -0.014200162
FINAL SINGLE POINT ENERGY     -1339.869724263837

DIPOLE MOMENT
-------------
                                X             Y             Z
Electronic contribution:      7.23040      13.19255     -13.55162
Nuclear contribution   :     -7.37507     -13.22207      13.74366
                        -----------------------------------------
Total Dipole Moment    :     -0.14467      -0.02952       0.19203
                        -----------------------------------------
Magnitude (a.u.)       :      0.24224
Magnitude (Debye)      :      0.61571

Rotational constants in cm-1:     0.022420     0.007304     0.006094
Rotational constants in MHz :   672.127287   218.963882   182.702166

                             ****ORCA TERMINATED NORMALLY****
TOTAL RUN TIME: 0 days 0 hours 0 minutes 30 seconds 838 msec
