                         Program Version 4.2.1 -  RELEASE  -
|  1> ! wB97X-D3 SP def2-SVP
|  2> %pal
|  3> nprocs 16
|  4> end
|  5>
|  6> * xyz 0 1
|  7> S 	 11.8945 	 -13.3801 	 80.7479
|  8> C 	 13.2163 	 -14.5275 	 80.831
|  9> C 	 13.0644 	 -15.5486 	 79.8372
| 10> C 	 11.8039 	 -15.4061 	 79.1532
| 11> C 	 11.049 	 -14.3256 	 79.4411
| 12> H 	 11.4369 	 -16.0631 	 78.3678
| 13> C 	 14.0328 	 -16.7103 	 79.5472
| 14> H 	 14.065 	 -17.4908 	 80.2889
| 15> H 	 15.0359 	 -16.2956 	 79.6331
| 16> C 	 13.87 	 -17.347 	 78.1004
| 17> H 	 12.8737 	 -17.7924 	 78.0321
| 18> H 	 14.0623 	 -16.5756 	 77.4385
| 19> C 	 14.7171 	 -18.5933 	 77.7066
| 20> H 	 14.7442 	 -19.3586 	 78.5156
| 21> H 	 14.4495 	 -19.0728 	 76.7393
| 22> H 	 15.7802 	 -18.3417 	 77.6228
| 23> S 	 9.64153 	 -13.2966 	 77.3634
| 24> C 	 7.91956 	 -13.3362 	 77.334
| 25> C 	 7.4 	 -13.9681 	 78.4321
| 26> C 	 8.39832 	 -14.3248 	 79.417
| 27> C 	 9.70521 	 -13.9929 	 78.9565
| 28> H 	 6.36289 	 -14.2321 	 78.4854
| 29> C 	 8.09036 	 -15.0709 	 80.6717
| 30> H 	 8.96319 	 -15.0935 	 81.3289
| 31> H 	 7.8156 	 -16.1629 	 80.4877
| 32> C 	 6.96043 	 -14.6013 	 81.4845
| 33> H 	 6.05402 	 -14.5252 	 80.9144
| 34> H 	 7.1943 	 -13.5463 	 81.8862
| 35> C 	 6.65389 	 -15.4773 	 82.6597
| 36> H 	 6.13665 	 -16.4206 	 82.3009
| 37> H 	 6.05085 	 -14.945 	 83.3086
| 38> H 	 7.63277 	 -15.7662 	 83.0333
| 39> H 	 14.0277 	 -14.3837 	 81.5759
| 40> H 	 7.23358 	 -13.0305 	 76.555
| 41> *
| 42>
| 43>                          ****END OF INPUT****

CARTESIAN COORDINATES (ANGSTROEM)
---------------------------------
  S     11.894500  -13.380100   80.747900
  C     13.216300  -14.527500   80.831000
  C     13.064400  -15.548600   79.837200
  C     11.803900  -15.406100   79.153200
  C     11.049000  -14.325600   79.441100
  H     11.436900  -16.063100   78.367800
  C     14.032800  -16.710300   79.547200
  H     14.065000  -17.490800   80.288900
  H     15.035900  -16.295600   79.633100
  C     13.870000  -17.347000   78.100400
  H     12.873700  -17.792400   78.032100
  H     14.062300  -16.575600   77.438500
  C     14.717100  -18.593300   77.706600
  H     14.744200  -19.358600   78.515600
  H     14.449500  -19.072800   76.739300
  H     15.780200  -18.341700   77.622800
  S      9.641530  -13.296600   77.363400
  C      7.919560  -13.336200   77.334000
  C      7.400000  -13.968100   78.432100
  C      8.398320  -14.324800   79.417000
  C      9.705210  -13.992900   78.956500
  H      6.362890  -14.232100   78.485400
  C      8.090360  -15.070900   80.671700
  H      8.963190  -15.093500   81.328900
  H      7.815600  -16.162900   80.487700
  C      6.960430  -14.601300   81.484500
  H      6.054020  -14.525200   80.914400
  H      7.194300  -13.546300   81.886200
  C      6.653890  -15.477300   82.659700
  H      6.136650  -16.420600   82.300900
  H      6.050850  -14.945000   83.308600
  H      7.632770  -15.766200   83.033300
  H     14.027700  -14.383700   81.575900
  H      7.233580  -13.030500   76.555000

 Total Charge           Charge          ....    0
 Multiplicity           Mult            ....    1
 Number of Electrons    NEL             ....  134
 Basis Dimension        Dim             ....  322

ORBITAL ENERGIES
----------------

  NO   OCC          E(Eh)            E(eV)
   0   2.0000     -88.967173     -2420.9199
   1   2.0000     -88.963779     -2420.8275
   2   2.0000     -10.329937      -281.0919
   3   2.0000     -10.328930      -281.0645
   4   2.0000     -10.326732      -281.0047
   5   2.0000     -10.314681      -280.6767
   6   2.0000     -10.312537      -280.6184
   7   2.0000     -10.309113      -280.5252
   8   2.0000     -10.298111      -280.2258
   9   2.0000     -10.293940      -280.1123
  10   2.0000     -10.291968      -280.0587
  11   2.0000     -10.288835      -279.9734
  12   2.0000     -10.288749      -279.9711
  13   2.0000     -10.286169      -279.9009
  14   2.0000     -10.278421      -279.6901
  15   2.0000     -10.272543      -279.5301
  16   2.0000      -8.082315      -219.9310
  17   2.0000      -8.077402      -219.7973
  18   2.0000      -6.040786      -164.3781
  19   2.0000      -6.036668      -164.2661
  20   2.0000      -6.035916      -164.2456
  21   2.0000      -6.033185      -164.1713
  22   2.0000      -6.031935      -164.1373
  23   2.0000      -6.028349      -164.0397
  24   2.0000      -1.002521       -27.2800
  25   2.0000      -0.978224       -26.6188
  26   2.0000      -0.922709       -25.1082
  27   2.0000      -0.901144       -24.5214
  28   2.0000      -0.869465       -23.6594
  29   2.0000      -0.853442       -23.2233
  30   2.0000      -0.842404       -22.9230
  31   2.0000      -0.817522       -22.2459
  32   2.0000      -0.781587       -21.2681
  33   2.0000      -0.766590       -20.8600
  34   2.0000      -0.709229       -19.2991
  35   2.0000      -0.691524       -18.8173
  36   2.0000      -0.687798       -18.7159
  37   2.0000      -0.654685       -17.8149
  38   2.0000      -0.642526       -17.4840
  39   2.0000      -0.620400       -16.8819
  40   2.0000      -0.605237       -16.4693
  41   2.0000      -0.572812       -15.5870
  42   2.0000      -0.571676       -15.5561
  43   2.0000      -0.560082       -15.2406
  44   2.0000      -0.532686       -14.4951
  45   2.0000      -0.522358       -14.2141
  46   2.0000      -0.517863       -14.0918
  47   2.0000      -0.506394       -13.7797
  48   2.0000      -0.503897       -13.7117
  49   2.0000      -0.497320       -13.5328
  50   2.0000      -0.490232       -13.3399
  51   2.0000      -0.477139       -12.9836
  52   2.0000      -0.469654       -12.7799
  53   2.0000      -0.461651       -12.5622
  54   2.0000      -0.456554       -12.4235
  55   2.0000      -0.454188       -12.3591
  56   2.0000      -0.450554       -12.2602
  57   2.0000      -0.435205       -11.8425
  58   2.0000      -0.431431       -11.7398
  59   2.0000      -0.421356       -11.4657
  60   2.0000      -0.421033       -11.4569
  61   2.0000      -0.410489       -11.1700
  62   2.0000      -0.409442       -11.1415
  63   2.0000      -0.339358        -9.2344
  64   2.0000      -0.332198        -9.0396
  65   2.0000      -0.316545        -8.6136
  66   2.0000      -0.306135        -8.3303
  67   0.0000       0.040589         1.1045
  68   0.0000       0.052289         1.4229
  69   0.0000       0.111532         3.0349
  70   0.0000       0.119998         3.2653
  71   0.0000       0.131394         3.5754

MULLIKEN ATOMIC CHARGES
-----------------------
   0 S :    0.095288
   1 C :   -0.144728
   2 C :   -0.079289
   3 C :    0.046511
   4 C :   -0.172326
   5 H :    0.018556
   6 C :    0.075473
   7 H :    0.031785
   8 H :    0.021765
   9 C :   -0.095672
  10 H :    0.048534
  11 H :    0.033308
  12 C :   -0.069332
  13 H :    0.030022
  14 H :    0.048930
  15 H :    0.022385
  16 S :    0.125185
  17 C :   -0.075492
  18 C :   -0.048580
  19 C :    0.019414
  20 C :   -0.190229
  21 H :    0.016996
  22 C :    0.053150
  23 H :    0.025290
  24 H :    0.035121
  25 C :   -0.134309
  26 H :    0.018295
  27 H :    0.034340
  28 C :    0.004515
  29 H :    0.031974
  30 H :    0.026094
  31 H :    0.021397
  32 H :    0.071747
  33 H :    0.053882
Sum of atomic charges:    0.0000000

LOEWDIN ATOMIC CHARGES
----------------------
   0 S :    0.374670
   1 C :   -0.194717
   2 C :   -0.064474
   3 C :   -0.058161
   4 C :   -0.188417
   5 H :    0.035667
   6 C :   -0.030782
   7 H :    0.027294
   8 H :    0.031162
   9 C :   -0.034942
  10 H :    0.027799
  11 H :    0.017321
  12 C :   -0.073170
  13 H :    0.026366
  14 H :    0.033227
  15 H :    0.020668
  16 S :    0.433399
  17 C :   -0.195536
  18 C :   -0.071270
  19 C :   -0.042968
  20 C :   -0.211132
  21 H :    0.028473
  22 C :   -0.043820
  23 H :    0.030710
  24 H :    0.040490
  25 C :   -0.050153
  26 H :    0.014546
  27 H :    0.029226
  28 C :   -0.052826
  29 H :    0.029935
  30 H :    0.017786
  31 H :    0.024117
  32 H :    0.036128
  33 H :    0.033384

  Mayer bond orders larger than 0.100000
B(  0-S ,  1-C ) :   1.1652 B(  0-S ,  4-C ) :   1.1098 B(  1-C ,  2-C ) :   1.5841
B(  1-C ,  4-C ) :   0.1020 B(  1-C , 32-H ) :   0.9685 B(  2-C ,  3-C ) :   1.2387
B(  2-C ,  6-C ) :   1.0095 B(  3-C ,  4-C ) :   1.6268 B(  3-C ,  5-H ) :   0.9841
B(  4-C , 20-C ) :   1.0073 B(  6-C ,  7-H ) :   0.9400 B(  6-C ,  8-H ) :   0.9404
B(  6-C ,  9-C ) :   1.0700 B(  9-C , 10-H ) :   0.9507 B(  9-C , 11-H ) :   0.9638
B(  9-C , 12-C ) :   1.0770 B( 12-C , 13-H ) :   0.9743 B( 12-C , 14-H ) :   0.9759
B( 12-C , 15-H ) :   0.9748 B( 16-S , 17-C ) :   1.1619 B( 16-S , 20-C ) :   1.1600
B( 17-C , 18-C ) :   1.6133 B( 17-C , 33-H ) :   0.9634 B( 18-C , 19-C ) :   1.2458
B( 18-C , 21-H ) :   0.9889 B( 19-C , 20-C ) :   1.5651 B( 19-C , 22-C ) :   1.0612
B( 22-C , 23-H ) :   0.9236 B( 22-C , 24-H ) :   0.9278 B( 22-C , 25-C ) :   1.0733
B( 25-C , 26-H ) :   0.9501 B( 25-C , 27-H ) :   0.9492 B( 25-C , 28-C ) :   1.0906
B( 28-C , 29-H ) :   0.9693 B( 28-C , 30-H ) :   0.9714 B( 28-C , 31-H ) :   0.9718

Dispersion correction           -0.013361876
FINAL SINGLE POINT ENERGY     -1339.869216547542

DIPOLE MOMENT
-------------
                                X             Y             Z
Electronic contribution:      0.17107      20.65856      -6.28322
Nuclear contribution   :     -0.27445     -21.27170       6.27855
                        -----------------------------------------
Total Dipole Moment    :     -0.10339      -0.61314      -0.00467
                        -----------------------------------------
Magnitude (a.u.)       :      0.62182
Magnitude (Debye)      :      1.58053

Rotational constants in cm-1:     0.017486     0.007414     0.006690
Rotational constants in MHz :   524.205343   222.278514   200.553385

                             ****ORCA TERMINATED NORMALLY****
TOTAL RUN TIME: 0 days 0 hours 0 minutes 28 seconds 318 msec
