                         Program Version 4.2.1 -  RELEASE  -
|  1> ! wB97X-D3 SP def2-SVP
|  2> %pal
|  3> nprocs 16
|  4> end
|  5>
|  6> * xyz 0 1
|  7> S 	 -35.0298 	 32.1186 	 44.6179
|  8> C 	 -34.5175 	 32.1316 	 46.3069
|  9> C 	 -33.9514 	 33.3689 	 46.6638
| 10> C 	 -33.9952 	 34.2924 	 45.5597
| 11> C 	 -34.4907 	 33.7262 	 44.3518
| 12> H 	 -33.8462 	 35.3176 	 45.5552
| 13> C 	 -33.3952 	 33.8309 	 48.0199
| 14> H 	 -34.1922 	 33.7279 	 48.8019
| 15> H 	 -33.0565 	 34.8198 	 47.8381
| 16> C 	 -32.0934 	 33.2179 	 48.4903
| 17> H 	 -31.5062 	 33.3191 	 47.6121
| 18> H 	 -31.6367 	 33.7953 	 49.3393
| 19> C 	 -32.1985 	 31.7262 	 48.8862
| 20> H 	 -32.8319 	 31.5673 	 49.7329
| 21> H 	 -32.6488 	 31.2535 	 47.9897
| 22> H 	 -31.2231 	 31.3408 	 49.0415
| 23> S 	 -36.4531 	 34.9694 	 42.9019
| 24> C 	 -36.048 	 35.889 	 41.5424
| 25> C 	 -34.7007 	 35.862 	 41.3007
| 26> C 	 -33.9431 	 35.2174 	 42.3558
| 27> C 	 -34.7695 	 34.5569 	 43.2109
| 28> H 	 -34.3018 	 36.4882 	 40.5045
| 29> C 	 -32.4516 	 35.0969 	 42.1948
| 30> H 	 -32.2295 	 34.409 	 41.4286
| 31> H 	 -32.1859 	 34.7108 	 43.2242
| 32> C 	 -31.6969 	 36.3874 	 42.0414
| 33> H 	 -32.1389 	 36.8714 	 41.1503
| 34> H 	 -30.692 	 36.173 	 41.6916
| 35> C 	 -31.7042 	 37.2637 	 43.3492
| 36> H 	 -32.7194 	 37.6573 	 43.619
| 37> H 	 -31.1587 	 38.1565 	 43.0583
| 38> H 	 -31.235 	 36.7432 	 44.1852
| 39> H 	 -34.8129 	 31.3427 	 46.9842
| 40> H 	 -36.7271 	 36.3449 	 40.8068
| 41> *
| 42>
| 43>                          ****END OF INPUT****

CARTESIAN COORDINATES (ANGSTROEM)
---------------------------------
  S    -35.029800   32.118600   44.617900
  C    -34.517500   32.131600   46.306900
  C    -33.951400   33.368900   46.663800
  C    -33.995200   34.292400   45.559700
  C    -34.490700   33.726200   44.351800
  H    -33.846200   35.317600   45.555200
  C    -33.395200   33.830900   48.019900
  H    -34.192200   33.727900   48.801900
  H    -33.056500   34.819800   47.838100
  C    -32.093400   33.217900   48.490300
  H    -31.506200   33.319100   47.612100
  H    -31.636700   33.795300   49.339300
  C    -32.198500   31.726200   48.886200
  H    -32.831900   31.567300   49.732900
  H    -32.648800   31.253500   47.989700
  H    -31.223100   31.340800   49.041500
  S    -36.453100   34.969400   42.901900
  C    -36.048000   35.889000   41.542400
  C    -34.700700   35.862000   41.300700
  C    -33.943100   35.217400   42.355800
  C    -34.769500   34.556900   43.210900
  H    -34.301800   36.488200   40.504500
  C    -32.451600   35.096900   42.194800
  H    -32.229500   34.409000   41.428600
  H    -32.185900   34.710800   43.224200
  C    -31.696900   36.387400   42.041400
  H    -32.138900   36.871400   41.150300
  H    -30.692000   36.173000   41.691600
  C    -31.704200   37.263700   43.349200
  H    -32.719400   37.657300   43.619000
  H    -31.158700   38.156500   43.058300
  H    -31.235000   36.743200   44.185200
  H    -34.812900   31.342700   46.984200
  H    -36.727100   36.344900   40.806800

 Total Charge           Charge          ....    0
 Multiplicity           Mult            ....    1
 Number of Electrons    NEL             ....  134
 Basis Dimension        Dim             ....  322

ORBITAL ENERGIES
----------------

  NO   OCC          E(Eh)            E(eV)
   0   2.0000     -88.971518     -2421.0381
   1   2.0000     -88.961625     -2420.7689
   2   2.0000     -10.326858      -281.0081
   3   2.0000     -10.321566      -280.8641
   4   2.0000     -10.320387      -280.8320
   5   2.0000     -10.311895      -280.6009
   6   2.0000     -10.309714      -280.5416
   7   2.0000     -10.298494      -280.2363
   8   2.0000     -10.292969      -280.0859
   9   2.0000     -10.292207      -280.0652
  10   2.0000     -10.287881      -279.9475
  11   2.0000     -10.287545      -279.9383
  12   2.0000     -10.284535      -279.8564
  13   2.0000     -10.284156      -279.8461
  14   2.0000     -10.283816      -279.8369
  15   2.0000     -10.271201      -279.4936
  16   2.0000      -8.086152      -220.0354
  17   2.0000      -8.077650      -219.8040
  18   2.0000      -6.044502      -164.4793
  19   2.0000      -6.040537      -164.3714
  20   2.0000      -6.037222      -164.2812
  21   2.0000      -6.036096      -164.2505
  22   2.0000      -6.031980      -164.1385
  23   2.0000      -6.028373      -164.0404
  24   2.0000      -1.010421       -27.4950
  25   2.0000      -0.985234       -26.8096
  26   2.0000      -0.915675       -24.9168
  27   2.0000      -0.912761       -24.8375
  28   2.0000      -0.870652       -23.6916
  29   2.0000      -0.849703       -23.1216
  30   2.0000      -0.843610       -22.9558
  31   2.0000      -0.807249       -21.9664
  32   2.0000      -0.787227       -21.4215
  33   2.0000      -0.779154       -21.2019
  34   2.0000      -0.708186       -19.2707
  35   2.0000      -0.695001       -18.9119
  36   2.0000      -0.693799       -18.8792
  37   2.0000      -0.655172       -17.8281
  38   2.0000      -0.647179       -17.6106
  39   2.0000      -0.611502       -16.6398
  40   2.0000      -0.592809       -16.1311
  41   2.0000      -0.572921       -15.5900
  42   2.0000      -0.563468       -15.3327
  43   2.0000      -0.552294       -15.0287
  44   2.0000      -0.545135       -14.8339
  45   2.0000      -0.535089       -14.5605
  46   2.0000      -0.518580       -14.1113
  47   2.0000      -0.516258       -14.0481
  48   2.0000      -0.505578       -13.7575
  49   2.0000      -0.496535       -13.5114
  50   2.0000      -0.490094       -13.3361
  51   2.0000      -0.487239       -13.2584
  52   2.0000      -0.470329       -12.7983
  53   2.0000      -0.462843       -12.5946
  54   2.0000      -0.459962       -12.5162
  55   2.0000      -0.445992       -12.1361
  56   2.0000      -0.442420       -12.0389
  57   2.0000      -0.434835       -11.8325
  58   2.0000      -0.432532       -11.7698
  59   2.0000      -0.429707       -11.6929
  60   2.0000      -0.424756       -11.5582
  61   2.0000      -0.407585       -11.0910
  62   2.0000      -0.403918       -10.9912
  63   2.0000      -0.336265        -9.1502
  64   2.0000      -0.333149        -9.0654
  65   2.0000      -0.326563        -8.8862
  66   2.0000      -0.302056        -8.2194
  67   0.0000       0.033384         0.9084
  68   0.0000       0.065604         1.7852
  69   0.0000       0.115045         3.1305
  70   0.0000       0.123084         3.3493
  71   0.0000       0.125767         3.4223

MULLIKEN ATOMIC CHARGES
-----------------------
   0 S :    0.128053
   1 C :   -0.138185
   2 C :   -0.097934
   3 C :    0.049698
   4 C :   -0.181831
   5 H :   -0.005950
   6 C :    0.091194
   7 H :    0.043964
   8 H :    0.011515
   9 C :   -0.089799
  10 H :    0.019459
  11 H :    0.041190
  12 C :   -0.033441
  13 H :    0.026229
  14 H :    0.027363
  15 H :    0.030635
  16 S :    0.118349
  17 C :   -0.089506
  18 C :   -0.053569
  19 C :   -0.041260
  20 C :   -0.171298
  21 H :    0.022377
  22 C :    0.074433
  23 H :    0.037752
  24 H :    0.020457
  25 C :   -0.076242
  26 H :    0.017003
  27 H :    0.024283
  28 C :   -0.061259
  29 H :    0.049897
  30 H :    0.033824
  31 H :    0.045918
  32 H :    0.063655
  33 H :    0.063030
Sum of atomic charges:    0.0000000

LOEWDIN ATOMIC CHARGES
----------------------
   0 S :    0.429733
   1 C :   -0.200932
   2 C :   -0.058388
   3 C :   -0.050519
   4 C :   -0.215839
   5 H :    0.019085
   6 C :   -0.029885
   7 H :    0.033714
   8 H :    0.029169
   9 C :   -0.038610
  10 H :    0.020514
  11 H :    0.028196
  12 C :   -0.063540
  13 H :    0.019083
  14 H :    0.028729
  15 H :    0.021380
  16 S :    0.420926
  17 C :   -0.204592
  18 C :   -0.081384
  19 C :   -0.054807
  20 C :   -0.200780
  21 H :    0.028617
  22 C :   -0.032758
  23 H :    0.029373
  24 H :    0.033177
  25 C :   -0.042139
  26 H :    0.020846
  27 H :    0.024175
  28 C :   -0.065541
  29 H :    0.032810
  30 H :    0.027723
  31 H :    0.027108
  32 H :    0.027765
  33 H :    0.037590

  Mayer bond orders larger than 0.100000
B(  0-S ,  1-C ) :   1.1553 B(  0-S ,  4-C ) :   1.1756 B(  1-C ,  2-C ) :   1.5639
B(  1-C , 32-H ) :   0.9661 B(  2-C ,  3-C ) :   1.2764 B(  2-C ,  6-C ) :   1.0162
B(  3-C ,  4-C ) :   1.5338 B(  3-C ,  5-H ) :   0.9975 B(  4-C , 20-C ) :   1.0369
B(  6-C ,  7-H ) :   0.9404 B(  6-C ,  8-H ) :   0.9361 B(  6-C ,  9-C ) :   1.0670
B(  9-C , 10-H ) :   0.9520 B(  9-C , 11-H ) :   0.9569 B(  9-C , 12-C ) :   1.0824
B( 12-C , 13-H ) :   0.9773 B( 12-C , 14-H ) :   0.9694 B( 12-C , 15-H ) :   0.9739
B( 16-S , 17-C ) :   1.1623 B( 16-S , 20-C ) :   1.1333 B( 17-C , 18-C ) :   1.6437
B( 17-C , 33-H ) :   0.9588 B( 18-C , 19-C ) :   1.2058 B( 18-C , 21-H ) :   0.9813
B( 19-C , 20-C ) :   1.6307 B( 19-C , 22-C ) :   1.0350 B( 22-C , 23-H ) :   0.9414
B( 22-C , 24-H ) :   0.9305 B( 22-C , 25-C ) :   1.0778 B( 25-C , 26-H ) :   0.9532
B( 25-C , 27-H ) :   0.9527 B( 25-C , 28-C ) :   1.0679 B( 28-C , 29-H ) :   0.9739
B( 28-C , 30-H ) :   0.9739 B( 28-C , 31-H ) :   0.9740

Dispersion correction           -0.014621165
FINAL SINGLE POINT ENERGY     -1339.870527067862

DIPOLE MOMENT
-------------
                                X             Y             Z
Electronic contribution:    -22.24148      -6.81275     -12.17584
Nuclear contribution   :     22.62194       7.16875      12.26904
                        -----------------------------------------
Total Dipole Moment    :      0.38046       0.35600       0.09319
                        -----------------------------------------
Magnitude (a.u.)       :      0.52931
Magnitude (Debye)      :      1.34541

Rotational constants in cm-1:     0.020616     0.008394     0.006661
Rotational constants in MHz :   618.038179   251.638958   199.693292

                             ****ORCA TERMINATED NORMALLY****
TOTAL RUN TIME: 0 days 0 hours 0 minutes 33 seconds 897 msec
