                         Program Version 4.2.1 -  RELEASE  -
|  1> ! wB97X-D3 SP def2-SVP
|  2> %pal
|  3> nprocs 16
|  4> end
|  5>
|  6> * xyz 0 1
|  7> S 	 -45.8776 	 26.4185 	 85.9711
|  8> C 	 -47.0279 	 27.6853 	 85.6851
|  9> C 	 -46.3581 	 28.8664 	 85.5557
| 10> C 	 -44.9784 	 28.7472 	 85.9042
| 11> C 	 -44.5172 	 27.4843 	 86.2
| 12> H 	 -44.3665 	 29.6351 	 85.8953
| 13> C 	 -46.8781 	 30.164 	 84.883
| 14> H 	 -46.1127 	 31.0095 	 84.9303
| 15> H 	 -47.6142 	 30.4957 	 85.5608
| 16> C 	 -47.3284 	 30.0468 	 83.4028
| 17> H 	 -46.442 	 29.7438 	 82.8248
| 18> H 	 -48.0012 	 29.2093 	 83.3135
| 19> C 	 -47.8047 	 31.4007 	 82.854
| 20> H 	 -47.0981 	 32.2265 	 82.8178
| 21> H 	 -48.0406 	 31.1596 	 81.7796
| 22> H 	 -48.7447 	 31.6467 	 83.2734
| 23> S 	 -42.7311 	 25.3248 	 86.4478
| 24> C 	 -41.064 	 25.6478 	 86.7316
| 25> C 	 -40.8129 	 26.9996 	 87.0435
| 26> C 	 -42.0036 	 27.8255 	 86.9039
| 27> C 	 -43.1107 	 27.0613 	 86.4399
| 28> H 	 -39.773 	 27.3072 	 87.149
| 29> C 	 -41.8167 	 29.2795 	 86.9048
| 30> H 	 -41.0171 	 29.5868 	 87.5411
| 31> H 	 -42.7281 	 29.6383 	 87.3053
| 32> C 	 -41.7456 	 29.8963 	 85.5135
| 33> H 	 -41.7667 	 30.9504 	 85.5467
| 34> H 	 -42.6927 	 29.694 	 84.9156
| 35> C 	 -40.4282 	 29.6014 	 84.7568
| 36> H 	 -40.4689 	 30.0947 	 83.7859
| 37> H 	 -40.3453 	 28.5148 	 84.5019
| 38> H 	 -39.5554 	 29.8304 	 85.3341
| 39> H 	 -48.0898 	 27.4399 	 85.3724
| 40> H 	 -40.2727 	 24.8956 	 86.7762
| 41> *
| 42>
| 43>                          ****END OF INPUT****

CARTESIAN COORDINATES (ANGSTROEM)
---------------------------------
  S    -45.877600   26.418500   85.971100
  C    -47.027900   27.685300   85.685100
  C    -46.358100   28.866400   85.555700
  C    -44.978400   28.747200   85.904200
  C    -44.517200   27.484300   86.200000
  H    -44.366500   29.635100   85.895300
  C    -46.878100   30.164000   84.883000
  H    -46.112700   31.009500   84.930300
  H    -47.614200   30.495700   85.560800
  C    -47.328400   30.046800   83.402800
  H    -46.442000   29.743800   82.824800
  H    -48.001200   29.209300   83.313500
  C    -47.804700   31.400700   82.854000
  H    -47.098100   32.226500   82.817800
  H    -48.040600   31.159600   81.779600
  H    -48.744700   31.646700   83.273400
  S    -42.731100   25.324800   86.447800
  C    -41.064000   25.647800   86.731600
  C    -40.812900   26.999600   87.043500
  C    -42.003600   27.825500   86.903900
  C    -43.110700   27.061300   86.439900
  H    -39.773000   27.307200   87.149000
  C    -41.816700   29.279500   86.904800
  H    -41.017100   29.586800   87.541100
  H    -42.728100   29.638300   87.305300
  C    -41.745600   29.896300   85.513500
  H    -41.766700   30.950400   85.546700
  H    -42.692700   29.694000   84.915600
  C    -40.428200   29.601400   84.756800
  H    -40.468900   30.094700   83.785900
  H    -40.345300   28.514800   84.501900
  H    -39.555400   29.830400   85.334100
  H    -48.089800   27.439900   85.372400
  H    -40.272700   24.895600   86.776200

 Total Charge           Charge          ....    0
 Multiplicity           Mult            ....    1
 Number of Electrons    NEL             ....  134
 Basis Dimension        Dim             ....  322

ORBITAL ENERGIES
----------------

  NO   OCC          E(Eh)            E(eV)
   0   2.0000     -88.970603     -2421.0132
   1   2.0000     -88.963108     -2420.8092
   2   2.0000     -10.338011      -281.3116
   3   2.0000     -10.334327      -281.2113
   4   2.0000     -10.320882      -280.8455
   5   2.0000     -10.317201      -280.7453
   6   2.0000     -10.308801      -280.5167
   7   2.0000     -10.299738      -280.2701
   8   2.0000     -10.298476      -280.2358
   9   2.0000     -10.294531      -280.1284
  10   2.0000     -10.291118      -280.0356
  11   2.0000     -10.288761      -279.9714
  12   2.0000     -10.287732      -279.9434
  13   2.0000     -10.284504      -279.8556
  14   2.0000     -10.282402      -279.7984
  15   2.0000     -10.276567      -279.6396
  16   2.0000      -8.085113      -220.0071
  17   2.0000      -8.078378      -219.8238
  18   2.0000      -6.043660      -164.4563
  19   2.0000      -6.039670      -164.3478
  20   2.0000      -6.037093      -164.2777
  21   2.0000      -6.035859      -164.2441
  22   2.0000      -6.032772      -164.1601
  23   2.0000      -6.028918      -164.0552
  24   2.0000      -1.007015       -27.4023
  25   2.0000      -0.985112       -26.8063
  26   2.0000      -0.918053       -24.9815
  27   2.0000      -0.907048       -24.6820
  28   2.0000      -0.867130       -23.5958
  29   2.0000      -0.850553       -23.1447
  30   2.0000      -0.844425       -22.9780
  31   2.0000      -0.813185       -22.1279
  32   2.0000      -0.786223       -21.3942
  33   2.0000      -0.772763       -21.0280
  34   2.0000      -0.709977       -19.3195
  35   2.0000      -0.705061       -19.1857
  36   2.0000      -0.688472       -18.7343
  37   2.0000      -0.664768       -18.0893
  38   2.0000      -0.634779       -17.2732
  39   2.0000      -0.621295       -16.9063
  40   2.0000      -0.591491       -16.0953
  41   2.0000      -0.570993       -15.5375
  42   2.0000      -0.562705       -15.3120
  43   2.0000      -0.554817       -15.0973
  44   2.0000      -0.549696       -14.9580
  45   2.0000      -0.524216       -14.2647
  46   2.0000      -0.519325       -14.1315
  47   2.0000      -0.508920       -13.8484
  48   2.0000      -0.503687       -13.7060
  49   2.0000      -0.499428       -13.5901
  50   2.0000      -0.492280       -13.3956
  51   2.0000      -0.478847       -13.0301
  52   2.0000      -0.475304       -12.9337
  53   2.0000      -0.469856       -12.7854
  54   2.0000      -0.462230       -12.5779
  55   2.0000      -0.451010       -12.2726
  56   2.0000      -0.443609       -12.0712
  57   2.0000      -0.438648       -11.9362
  58   2.0000      -0.431895       -11.7525
  59   2.0000      -0.429330       -11.6827
  60   2.0000      -0.414135       -11.2692
  61   2.0000      -0.410827       -11.1792
  62   2.0000      -0.407159       -11.0794
  63   2.0000      -0.362392        -9.8612
  64   2.0000      -0.331832        -9.0296
  65   2.0000      -0.325108        -8.8466
  66   2.0000      -0.282530        -7.6880
  67   0.0000       0.018547         0.5047
  68   0.0000       0.082701         2.2504
  69   0.0000       0.100452         2.7334
  70   0.0000       0.119152         3.2423
  71   0.0000       0.134314         3.6549

MULLIKEN ATOMIC CHARGES
-----------------------
   0 S :    0.084223
   1 C :   -0.159012
   2 C :   -0.069974
   3 C :   -0.033787
   4 C :   -0.062545
   5 H :   -0.006260
   6 C :    0.043162
   7 H :    0.021298
   8 H :    0.023562
   9 C :   -0.068354
  10 H :    0.032733
  11 H :    0.025201
  12 C :   -0.037514
  13 H :    0.044375
  14 H :    0.033443
  15 H :    0.027209
  16 S :    0.110956
  17 C :   -0.094166
  18 C :   -0.044053
  19 C :   -0.054920
  20 C :   -0.139247
  21 H :    0.027748
  22 C :    0.098703
  23 H :    0.020329
  24 H :    0.012911
  25 C :   -0.092860
  26 H :    0.015726
  27 H :    0.047176
  28 C :   -0.048758
  29 H :    0.034539
  30 H :    0.041632
  31 H :    0.026485
  32 H :    0.078494
  33 H :    0.061544
Sum of atomic charges:    0.0000000

LOEWDIN ATOMIC CHARGES
----------------------
   0 S :    0.406092
   1 C :   -0.212261
   2 C :   -0.066696
   3 C :   -0.080417
   4 C :   -0.187498
   5 H :    0.022896
   6 C :   -0.034376
   7 H :    0.031728
   8 H :    0.022774
   9 C :   -0.037596
  10 H :    0.028835
  11 H :    0.020746
  12 C :   -0.063333
  13 H :    0.027895
  14 H :    0.035729
  15 H :    0.019715
  16 S :    0.410203
  17 C :   -0.193674
  18 C :   -0.073050
  19 C :   -0.044761
  20 C :   -0.187545
  21 H :    0.033326
  22 C :   -0.032510
  23 H :    0.030630
  24 H :    0.028193
  25 C :   -0.041271
  26 H :    0.017002
  27 H :    0.033679
  28 C :   -0.066801
  29 H :    0.028083
  30 H :    0.029650
  31 H :    0.019671
  32 H :    0.043164
  33 H :    0.031776

  Mayer bond orders larger than 0.100000
B(  0-S ,  1-C ) :   1.1385 B(  0-S ,  4-C ) :   1.1504 B(  1-C ,  2-C ) :   1.5952
B(  1-C , 32-H ) :   0.9624 B(  2-C ,  3-C ) :   1.2967 B(  2-C ,  6-C ) :   0.9998
B(  3-C ,  4-C ) :   1.5289 B(  3-C ,  5-H ) :   0.9886 B(  4-C , 20-C ) :   1.0820
B(  6-C ,  7-H ) :   0.9502 B(  6-C ,  8-H ) :   0.9381 B(  6-C ,  9-C ) :   1.0545
B(  9-C , 10-H ) :   0.9559 B(  9-C , 11-H ) :   0.9575 B(  9-C , 12-C ) :   1.0811
B( 12-C , 13-H ) :   0.9750 B( 12-C , 14-H ) :   0.9722 B( 12-C , 15-H ) :   0.9759
B( 16-S , 17-C ) :   1.1689 B( 16-S , 20-C ) :   1.1352 B( 17-C , 18-C ) :   1.6042
B( 17-C , 33-H ) :   0.9641 B( 18-C , 19-C ) :   1.2410 B( 18-C , 21-H ) :   0.9858
B( 19-C , 20-C ) :   1.5475 B( 19-C , 22-C ) :   1.0715 B( 22-C , 23-H ) :   0.9340
B( 22-C , 24-H ) :   0.9073 B( 22-C , 25-C ) :   1.0862 B( 25-C , 26-H ) :   0.9525
B( 25-C , 27-H ) :   0.9400 B( 25-C , 28-C ) :   1.0768 B( 28-C , 29-H ) :   0.9714
B( 28-C , 30-H ) :   0.9744 B( 28-C , 31-H ) :   0.9743

Dispersion correction           -0.014587783
FINAL SINGLE POINT ENERGY     -1339.867390049268

DIPOLE MOMENT
-------------
                                X             Y             Z
Electronic contribution:     -0.05133     -26.90968      13.21839
Nuclear contribution   :      0.24448      27.57786     -13.56594
                        -----------------------------------------
Total Dipole Moment    :      0.19316       0.66818      -0.34755
                        -----------------------------------------
Magnitude (a.u.)       :      0.77754
Magnitude (Debye)      :      1.97634

Rotational constants in cm-1:     0.020399     0.008497     0.006441
Rotational constants in MHz :   611.548876   254.723478   193.089395

                             ****ORCA TERMINATED NORMALLY****
TOTAL RUN TIME: 0 days 0 hours 0 minutes 30 seconds 684 msec
