                         Program Version 4.2.1 -  RELEASE  -
|  1> ! wB97X-D3 SP def2-SVP
|  2> %pal
|  3> nprocs 16
|  4> end
|  5>
|  6> * xyz 0 1
|  7> S 	 -24.0158 	 50.2811 	 66.9454
|  8> C 	 -23.9088 	 49.1736 	 65.5877
|  9> C 	 -24.0237 	 47.8735 	 66.1278
| 10> C 	 -24.0568 	 47.8528 	 67.5131
| 11> C 	 -23.9933 	 49.0214 	 68.1461
| 12> H 	 -24.2072 	 46.8698 	 68.0674
| 13> C 	 -24.1108 	 46.6126 	 65.3011
| 14> H 	 -23.56 	 45.8295 	 65.7532
| 15> H 	 -23.4548 	 46.8804 	 64.424
| 16> C 	 -25.4017 	 46.0183 	 64.7928
| 17> H 	 -24.9714 	 45.3066 	 64.0501
| 18> H 	 -25.9224 	 45.3717 	 65.461
| 19> C 	 -26.3124 	 47.0027 	 64.0132
| 20> H 	 -27.1636 	 46.5283 	 63.489
| 21> H 	 -26.7921 	 47.6441 	 64.7647
| 22> H 	 -25.6891 	 47.641 	 63.4744
| 23> S 	 -25.3927 	 50.4598 	 70.0832
| 24> C 	 -25.0187 	 50.166 	 71.761
| 25> C 	 -24.023 	 49.2398 	 71.9462
| 26> C 	 -23.6683 	 48.6224 	 70.7102
| 27> C 	 -24.196 	 49.2552 	 69.5787
| 28> H 	 -23.7339 	 49.0496 	 73.0124
| 29> C 	 -22.6074 	 47.4999 	 70.6124
| 30> H 	 -21.8004 	 47.9186 	 71.1675
| 31> H 	 -22.3014 	 47.34 	 69.5665
| 32> C 	 -23.0841 	 46.0429 	 71.0864
| 33> H 	 -24.03 	 45.8057 	 70.5954
| 34> H 	 -23.31 	 46.2391 	 72.0985
| 35> C 	 -21.9953 	 44.9801 	 70.7805
| 36> H 	 -21.6323 	 45.0371 	 69.8125
| 37> H 	 -22.3634 	 43.9654 	 70.9479
| 38> H 	 -21.1166 	 45.054 	 71.4908
| 39> H 	 -23.6096 	 49.4145 	 64.5205
| 40> H 	 -25.6504 	 50.5813 	 72.5411
| 41> *
| 42>
| 43>                          ****END OF INPUT****

CARTESIAN COORDINATES (ANGSTROEM)
---------------------------------
  S    -24.015800   50.281100   66.945400
  C    -23.908800   49.173600   65.587700
  C    -24.023700   47.873500   66.127800
  C    -24.056800   47.852800   67.513100
  C    -23.993300   49.021400   68.146100
  H    -24.207200   46.869800   68.067400
  C    -24.110800   46.612600   65.301100
  H    -23.560000   45.829500   65.753200
  H    -23.454800   46.880400   64.424000
  C    -25.401700   46.018300   64.792800
  H    -24.971400   45.306600   64.050100
  H    -25.922400   45.371700   65.461000
  C    -26.312400   47.002700   64.013200
  H    -27.163600   46.528300   63.489000
  H    -26.792100   47.644100   64.764700
  H    -25.689100   47.641000   63.474400
  S    -25.392700   50.459800   70.083200
  C    -25.018700   50.166000   71.761000
  C    -24.023000   49.239800   71.946200
  C    -23.668300   48.622400   70.710200
  C    -24.196000   49.255200   69.578700
  H    -23.733900   49.049600   73.012400
  C    -22.607400   47.499900   70.612400
  H    -21.800400   47.918600   71.167500
  H    -22.301400   47.340000   69.566500
  C    -23.084100   46.042900   71.086400
  H    -24.030000   45.805700   70.595400
  H    -23.310000   46.239100   72.098500
  C    -21.995300   44.980100   70.780500
  H    -21.632300   45.037100   69.812500
  H    -22.363400   43.965400   70.947900
  H    -21.116600   45.054000   71.490800
  H    -23.609600   49.414500   64.520500
  H    -25.650400   50.581300   72.541100

 Total Charge           Charge          ....    0
 Multiplicity           Mult            ....    1
 Number of Electrons    NEL             ....  134
 Basis Dimension        Dim             ....  322

ORBITAL ENERGIES
----------------

  NO   OCC          E(Eh)            E(eV)
   0   2.0000     -88.966568     -2420.9034
   1   2.0000     -88.964829     -2420.8561
   2   2.0000     -10.330879      -281.1175
   3   2.0000     -10.327121      -281.0153
   4   2.0000     -10.323323      -280.9119
   5   2.0000     -10.317027      -280.7406
   6   2.0000     -10.308535      -280.5095
   7   2.0000     -10.299840      -280.2729
   8   2.0000     -10.298146      -280.2268
   9   2.0000     -10.291019      -280.0329
  10   2.0000     -10.290190      -280.0103
  11   2.0000     -10.290149      -280.0092
  12   2.0000     -10.288043      -279.9519
  13   2.0000     -10.285964      -279.8953
  14   2.0000     -10.281519      -279.7744
  15   2.0000     -10.273802      -279.5644
  16   2.0000      -8.081215      -219.9010
  17   2.0000      -8.079583      -219.8566
  18   2.0000      -6.039833      -164.3522
  19   2.0000      -6.038078      -164.3045
  20   2.0000      -6.035576      -164.2364
  21   2.0000      -6.034092      -164.1960
  22   2.0000      -6.032013      -164.1394
  23   2.0000      -6.030357      -164.0943
  24   2.0000      -1.011549       -27.5257
  25   2.0000      -0.987315       -26.8662
  26   2.0000      -0.913850       -24.8671
  27   2.0000      -0.899414       -24.4743
  28   2.0000      -0.869562       -23.6620
  29   2.0000      -0.851576       -23.1726
  30   2.0000      -0.845294       -23.0016
  31   2.0000      -0.816217       -22.2104
  32   2.0000      -0.784619       -21.3506
  33   2.0000      -0.772273       -21.0146
  34   2.0000      -0.710757       -19.3407
  35   2.0000      -0.701608       -19.0917
  36   2.0000      -0.696448       -18.9513
  37   2.0000      -0.655896       -17.8478
  38   2.0000      -0.635691       -17.2980
  39   2.0000      -0.622381       -16.9359
  40   2.0000      -0.591864       -16.1054
  41   2.0000      -0.566067       -15.4035
  42   2.0000      -0.561889       -15.2898
  43   2.0000      -0.558273       -15.1914
  44   2.0000      -0.538867       -14.6633
  45   2.0000      -0.522900       -14.2288
  46   2.0000      -0.521097       -14.1798
  47   2.0000      -0.514027       -13.9874
  48   2.0000      -0.503861       -13.7108
  49   2.0000      -0.500913       -13.6305
  50   2.0000      -0.487401       -13.2628
  51   2.0000      -0.475957       -12.9515
  52   2.0000      -0.475657       -12.9433
  53   2.0000      -0.469153       -12.7663
  54   2.0000      -0.455057       -12.3827
  55   2.0000      -0.451404       -12.2833
  56   2.0000      -0.446900       -12.1608
  57   2.0000      -0.436072       -11.8661
  58   2.0000      -0.433646       -11.8001
  59   2.0000      -0.430397       -11.7117
  60   2.0000      -0.419057       -11.4031
  61   2.0000      -0.407938       -11.1005
  62   2.0000      -0.401198       -10.9171
  63   2.0000      -0.355410        -9.6712
  64   2.0000      -0.332727        -9.0540
  65   2.0000      -0.330755        -9.0003
  66   2.0000      -0.287778        -7.8308
  67   0.0000       0.028435         0.7738
  68   0.0000       0.065657         1.7866
  69   0.0000       0.113596         3.0911
  70   0.0000       0.119782         3.2594
  71   0.0000       0.127583         3.4717

MULLIKEN ATOMIC CHARGES
-----------------------
   0 S :    0.102359
   1 C :   -0.147991
   2 C :   -0.100769
   3 C :   -0.000584
   4 C :   -0.116955
   5 H :    0.030498
   6 C :    0.042496
   7 H :    0.012135
   8 H :    0.022001
   9 C :   -0.056310
  10 H :    0.027633
  11 H :    0.021420
  12 C :   -0.023124
  13 H :    0.044578
  14 H :    0.034803
  15 H :    0.008505
  16 S :    0.100628
  17 C :   -0.108712
  18 C :   -0.037704
  19 C :   -0.045808
  20 C :   -0.134999
  21 H :    0.043205
  22 C :    0.023032
  23 H :    0.033107
  24 H :    0.022884
  25 C :   -0.057770
  26 H :    0.032200
  27 H :    0.018542
  28 C :   -0.028326
  29 H :    0.021921
  30 H :    0.034094
  31 H :    0.036358
  32 H :    0.082935
  33 H :    0.063719
Sum of atomic charges:    0.0000000

LOEWDIN ATOMIC CHARGES
----------------------
   0 S :    0.411432
   1 C :   -0.212544
   2 C :   -0.071437
   3 C :   -0.079097
   4 C :   -0.194930
   5 H :    0.042500
   6 C :   -0.038591
   7 H :    0.026257
   8 H :    0.036912
   9 C :   -0.039277
  10 H :    0.031704
  11 H :    0.016748
  12 C :   -0.061582
  13 H :    0.032078
  14 H :    0.029816
  15 H :    0.013398
  16 S :    0.395516
  17 C :   -0.182876
  18 C :   -0.082043
  19 C :   -0.055322
  20 C :   -0.188116
  21 H :    0.045462
  22 C :   -0.028027
  23 H :    0.026864
  24 H :    0.025453
  25 C :   -0.031574
  26 H :    0.023615
  27 H :    0.016218
  28 C :   -0.062579
  29 H :    0.014840
  30 H :    0.027928
  31 H :    0.034231
  32 H :    0.047490
  33 H :    0.029531

  Mayer bond orders larger than 0.100000
B(  0-S ,  1-C ) :   1.1469 B(  0-S ,  4-C ) :   1.1553 B(  1-C ,  2-C ) :   1.5541
B(  1-C ,  4-C ) :   0.1057 B(  1-C , 32-H ) :   0.9601 B(  2-C ,  3-C ) :   1.3027
B(  2-C ,  6-C ) :   1.0200 B(  3-C ,  4-C ) :   1.5397 B(  3-C ,  5-H ) :   0.9834
B(  4-C , 20-C ) :   1.0393 B(  6-C ,  7-H ) :   0.9377 B(  6-C ,  8-H ) :   0.9367
B(  6-C ,  9-C ) :   1.0777 B(  9-C , 10-H ) :   0.9486 B(  9-C , 11-H ) :   0.9592
B(  9-C , 12-C ) :   1.0746 B( 12-C , 13-H ) :   0.9745 B( 12-C , 14-H ) :   0.9720
B( 12-C , 15-H ) :   0.9732 B( 16-S , 17-C ) :   1.1621 B( 16-S , 20-C ) :   1.1344
B( 17-C , 18-C ) :   1.6144 B( 17-C , 33-H ) :   0.9641 B( 18-C , 19-C ) :   1.2278
B( 18-C , 21-H ) :   0.9853 B( 19-C , 20-C ) :   1.6016 B( 19-C , 22-C ) :   1.0352
B( 22-C , 23-H ) :   0.9451 B( 22-C , 24-H ) :   0.9411 B( 22-C , 25-C ) :   1.0416
B( 25-C , 26-H ) :   0.9583 B( 25-C , 27-H ) :   0.9611 B( 25-C , 28-C ) :   1.0745
B( 28-C , 29-H ) :   0.9761 B( 28-C , 30-H ) :   0.9760 B( 28-C , 31-H ) :   0.9750

Dispersion correction           -0.014167503
FINAL SINGLE POINT ENERGY     -1339.861469712929

DIPOLE MOMENT
-------------
                                X             Y             Z
Electronic contribution:     -3.89678      26.24993       6.09255
Nuclear contribution   :      4.00045     -26.95650      -5.97797
                        -----------------------------------------
Total Dipole Moment    :      0.10367      -0.70657       0.11458
                        -----------------------------------------
Magnitude (a.u.)       :      0.72327
Magnitude (Debye)      :      1.83840

Rotational constants in cm-1:     0.017252     0.009015     0.006709
Rotational constants in MHz :   517.204317   270.255493   201.138653

                             ****ORCA TERMINATED NORMALLY****
TOTAL RUN TIME: 0 days 0 hours 0 minutes 31 seconds 373 msec
