                         Program Version 4.2.1 -  RELEASE  -
|  1> ! wB97X-D3 SP def2-SVP
|  2> %pal
|  3> nprocs 16
|  4> end
|  5>
|  6> * xyz 0 1
|  7> S 	 -104.827 	 41.3687 	 130.417
|  8> C 	 -103.646 	 40.7792 	 131.646
|  9> C 	 -102.535 	 40.2283 	 131.033
| 10> C 	 -102.478 	 40.5274 	 129.633
| 11> C 	 -103.561 	 41.2542 	 129.191
| 12> H 	 -101.767 	 40.2674 	 128.847
| 13> C 	 -101.522 	 39.4677 	 131.736
| 14> H 	 -101.634 	 38.4185 	 131.546
| 15> H 	 -101.675 	 39.5784 	 132.768
| 16> C 	 -100.042 	 39.9796 	 131.486
| 17> H 	 -99.4139 	 39.118 	 131.754
| 18> H 	 -99.9206 	 40.1634 	 130.425
| 19> C 	 -99.6978 	 41.1847 	 132.347
| 20> H 	 -100.405 	 41.9561 	 132.156
| 21> H 	 -99.9132 	 40.9218 	 133.369
| 22> H 	 -98.6536 	 41.4791 	 132.256
| 23> S 	 -104.366 	 43.4485 	 127.863
| 24> C 	 -104.398 	 43.4711 	 126.107
| 25> C 	 -103.993 	 42.2693 	 125.568
| 26> C 	 -103.65 	 41.3106 	 126.624
| 27> C 	 -103.809 	 41.7845 	 127.898
| 28> H 	 -103.912 	 42.2218 	 124.513
| 29> C 	 -103.359 	 39.907 	 126.195
| 30> H 	 -102.295 	 39.7267 	 126.343
| 31> H 	 -103.544 	 39.7631 	 125.137
| 32> C 	 -104.116 	 38.7624 	 126.902
| 33> H 	 -105.163 	 38.9758 	 126.851
| 34> H 	 -103.786 	 38.6552 	 127.951
| 35> C 	 -103.86 	 37.465 	 126.16
| 36> H 	 -104.313 	 36.5899 	 126.647
| 37> H 	 -102.844 	 37.1674 	 126.074
| 38> H 	 -104.344 	 37.5299 	 125.162
| 39> H 	 -103.848 	 40.5975 	 132.718
| 40> H 	 -104.834 	 44.2658 	 125.53
| 41> *
| 42>
| 43>                          ****END OF INPUT****

CARTESIAN COORDINATES (ANGSTROEM)
---------------------------------
  S    -104.827000   41.368700  130.417000
  C    -103.646000   40.779200  131.646000
  C    -102.535000   40.228300  131.033000
  C    -102.478000   40.527400  129.633000
  C    -103.561000   41.254200  129.191000
  H    -101.767000   40.267400  128.847000
  C    -101.522000   39.467700  131.736000
  H    -101.634000   38.418500  131.546000
  H    -101.675000   39.578400  132.768000
  C    -100.042000   39.979600  131.486000
  H    -99.413900   39.118000  131.754000
  H    -99.920600   40.163400  130.425000
  C    -99.697800   41.184700  132.347000
  H    -100.405000   41.956100  132.156000
  H    -99.913200   40.921800  133.369000
  H    -98.653600   41.479100  132.256000
  S    -104.366000   43.448500  127.863000
  C    -104.398000   43.471100  126.107000
  C    -103.993000   42.269300  125.568000
  C    -103.650000   41.310600  126.624000
  C    -103.809000   41.784500  127.898000
  H    -103.912000   42.221800  124.513000
  C    -103.359000   39.907000  126.195000
  H    -102.295000   39.726700  126.343000
  H    -103.544000   39.763100  125.137000
  C    -104.116000   38.762400  126.902000
  H    -105.163000   38.975800  126.851000
  H    -103.786000   38.655200  127.951000
  C    -103.860000   37.465000  126.160000
  H    -104.313000   36.589900  126.647000
  H    -102.844000   37.167400  126.074000
  H    -104.344000   37.529900  125.162000
  H    -103.848000   40.597500  132.718000
  H    -104.834000   44.265800  125.530000

 Total Charge           Charge          ....    0
 Multiplicity           Mult            ....    1
 Number of Electrons    NEL             ....  134
 Basis Dimension        Dim             ....  322

ORBITAL ENERGIES
----------------

  NO   OCC          E(Eh)            E(eV)
   0   2.0000     -88.965544     -2420.8755
   1   2.0000     -88.961560     -2420.7671
   2   2.0000     -10.327978      -281.0386
   3   2.0000     -10.321953      -280.8746
   4   2.0000     -10.316939      -280.7382
   5   2.0000     -10.316332      -280.7217
   6   2.0000     -10.305280      -280.4209
   7   2.0000     -10.300478      -280.2903
   8   2.0000     -10.295063      -280.1429
   9   2.0000     -10.294658      -280.1319
  10   2.0000     -10.287691      -279.9423
  11   2.0000     -10.286795      -279.9179
  12   2.0000     -10.283378      -279.8249
  13   2.0000     -10.280831      -279.7556
  14   2.0000     -10.274429      -279.5814
  15   2.0000     -10.271626      -279.5052
  16   2.0000      -8.079223      -219.8468
  17   2.0000      -8.076467      -219.7718
  18   2.0000      -6.037865      -164.2987
  19   2.0000      -6.035069      -164.2226
  20   2.0000      -6.034118      -164.1967
  21   2.0000      -6.030917      -164.1096
  22   2.0000      -6.029656      -164.0753
  23   2.0000      -6.027131      -164.0066
  24   2.0000      -1.007346       -27.4113
  25   2.0000      -0.980657       -26.6850
  26   2.0000      -0.916890       -24.9498
  27   2.0000      -0.910790       -24.7838
  28   2.0000      -0.872412       -23.7395
  29   2.0000      -0.851342       -23.1662
  30   2.0000      -0.843649       -22.9568
  31   2.0000      -0.819669       -22.3043
  32   2.0000      -0.782204       -21.2848
  33   2.0000      -0.769896       -20.9499
  34   2.0000      -0.715923       -19.4813
  35   2.0000      -0.699844       -19.0437
  36   2.0000      -0.688639       -18.7388
  37   2.0000      -0.666705       -18.1420
  38   2.0000      -0.642917       -17.4947
  39   2.0000      -0.619655       -16.8617
  40   2.0000      -0.594465       -16.1762
  41   2.0000      -0.575723       -15.6662
  42   2.0000      -0.568588       -15.4721
  43   2.0000      -0.558474       -15.1969
  44   2.0000      -0.535074       -14.5601
  45   2.0000      -0.524593       -14.2749
  46   2.0000      -0.517847       -14.0913
  47   2.0000      -0.513010       -13.9597
  48   2.0000      -0.503156       -13.6916
  49   2.0000      -0.498323       -13.5601
  50   2.0000      -0.493351       -13.4248
  51   2.0000      -0.483311       -13.1516
  52   2.0000      -0.470473       -12.8022
  53   2.0000      -0.465997       -12.6804
  54   2.0000      -0.457961       -12.4617
  55   2.0000      -0.449092       -12.2204
  56   2.0000      -0.441558       -12.0154
  57   2.0000      -0.438329       -11.9275
  58   2.0000      -0.429407       -11.6848
  59   2.0000      -0.427668       -11.6374
  60   2.0000      -0.421662       -11.4740
  61   2.0000      -0.417552       -11.3622
  62   2.0000      -0.414230       -11.2718
  63   2.0000      -0.346683        -9.4337
  64   2.0000      -0.330124        -8.9831
  65   2.0000      -0.324796        -8.8381
  66   2.0000      -0.292525        -7.9600
  67   0.0000       0.024186         0.6581
  68   0.0000       0.072385         1.9697
  69   0.0000       0.099816         2.7161
  70   0.0000       0.119129         3.2417
  71   0.0000       0.134781         3.6676

MULLIKEN ATOMIC CHARGES
-----------------------
   0 S :    0.101384
   1 C :   -0.121445
   2 C :   -0.097685
   3 C :    0.026774
   4 C :   -0.157579
   5 H :    0.017865
   6 C :    0.094084
   7 H :    0.038136
   8 H :   -0.011452
   9 C :   -0.095629
  10 H :    0.026474
  11 H :    0.032302
  12 C :   -0.012182
  13 H :    0.029457
  14 H :    0.012582
  15 H :    0.046409
  16 S :    0.100969
  17 C :   -0.088865
  18 C :   -0.029313
  19 C :   -0.011005
  20 C :   -0.149363
  21 H :    0.012938
  22 C :    0.043331
  23 H :    0.027458
  24 H :    0.009849
  25 C :   -0.061486
  26 H :    0.031300
  27 H :    0.044271
  28 C :   -0.053338
  29 H :    0.028979
  30 H :    0.020735
  31 H :    0.031664
  32 H :    0.055778
  33 H :    0.056604
Sum of atomic charges:    0.0000000

LOEWDIN ATOMIC CHARGES
----------------------
   0 S :    0.373983
   1 C :   -0.190558
   2 C :   -0.060746
   3 C :   -0.065049
   4 C :   -0.178924
   5 H :    0.035138
   6 C :   -0.029123
   7 H :    0.034642
   8 H :    0.021326
   9 C :   -0.033240
  10 H :    0.023304
  11 H :    0.018132
  12 C :   -0.059373
  13 H :    0.024929
  14 H :    0.022276
  15 H :    0.029918
  16 S :    0.399808
  17 C :   -0.175140
  18 C :   -0.066155
  19 C :   -0.052496
  20 C :   -0.205129
  21 H :    0.028608
  22 C :   -0.035244
  23 H :    0.030094
  24 H :    0.027933
  25 C :   -0.036807
  26 H :    0.023636
  27 H :    0.027058
  28 C :   -0.067285
  29 H :    0.027877
  30 H :    0.017694
  31 H :    0.027672
  32 H :    0.033665
  33 H :    0.027578

  Mayer bond orders larger than 0.100000
B(  0-S ,  1-C ) :   1.1028 B(  0-S ,  4-C ) :   1.1411 B(  1-C ,  2-C ) :   1.6344
B(  1-C , 32-H ) :   0.9616 B(  2-C ,  3-C ) :   1.1826 B(  2-C ,  6-C ) :   1.0553
B(  3-C ,  4-C ) :   1.6090 B(  3-C ,  5-H ) :   0.9915 B(  4-C , 20-C ) :   1.0618
B(  6-C ,  7-H ) :   0.9245 B(  6-C ,  8-H ) :   0.9296 B(  6-C ,  9-C ) :   1.0621
B(  9-C , 10-H ) :   0.9554 B(  9-C , 11-H ) :   0.9615 B(  9-C , 12-C ) :   1.0727
B( 12-C , 13-H ) :   0.9766 B( 12-C , 14-H ) :   0.9698 B( 12-C , 15-H ) :   0.9739
B( 16-S , 17-C ) :   1.1499 B( 16-S , 20-C ) :   1.1184 B( 17-C , 18-C ) :   1.6353
B( 17-C , 33-H ) :   0.9657 B( 18-C , 19-C ) :   1.2028 B( 18-C , 21-H ) :   0.9979
B( 19-C , 20-C ) :   1.6129 B( 19-C , 22-C ) :   1.0502 B( 22-C , 23-H ) :   0.9168
B( 22-C , 24-H ) :   0.9427 B( 22-C , 25-C ) :   1.0700 B( 25-C , 26-H ) :   0.9572
B( 25-C , 27-H ) :   0.9450 B( 25-C , 28-C ) :   1.0957 B( 28-C , 29-H ) :   0.9713
B( 28-C , 30-H ) :   0.9743 B( 28-C , 31-H ) :   0.9721

Dispersion correction           -0.014615632
FINAL SINGLE POINT ENERGY     -1339.880110490359

DIPOLE MOMENT
-------------
                                X             Y             Z
Electronic contribution:    -15.76826      19.00302      -0.70275
Nuclear contribution   :     16.11015     -19.55848       0.49285
                        -----------------------------------------
Total Dipole Moment    :      0.34189      -0.55546      -0.20990
                        -----------------------------------------
Magnitude (a.u.)       :      0.68519
Magnitude (Debye)      :      1.74161

Rotational constants in cm-1:     0.017723     0.009131     0.007547
Rotational constants in MHz :   531.336559   273.750895   226.247872

                             ****ORCA TERMINATED NORMALLY****
TOTAL RUN TIME: 0 days 0 hours 0 minutes 32 seconds 807 msec
