                         Program Version 4.2.1 -  RELEASE  -
|  1> ! wB97X-D3 SP def2-SVP
|  2> %pal
|  3> nprocs 16
|  4> end
|  5>
|  6> * xyz 0 1
|  7> S 	 -34.1864 	 29.7659 	 43.8013
|  8> C 	 -32.75 	 29.2457 	 44.5565
|  9> C 	 -31.9592 	 30.2496 	 45.1649
| 10> C 	 -32.5662 	 31.5329 	 44.9482
| 11> C 	 -33.7783 	 31.3906 	 44.2597
| 12> H 	 -32.1911 	 32.3825 	 45.5182
| 13> C 	 -30.6536 	 30.1307 	 45.887
| 14> H 	 -30.4905 	 29.0965 	 46.2103
| 15> H 	 -30.8723 	 30.5688 	 46.8009
| 16> C 	 -29.3642 	 30.6846 	 45.2096
| 17> H 	 -29.374 	 31.729 	 44.8803
| 18> H 	 -28.5146 	 30.5524 	 45.9714
| 19> C 	 -28.8391 	 29.8096 	 44.0224
| 20> H 	 -28.0884 	 30.1366 	 43.3246
| 21> H 	 -28.6234 	 28.7616 	 44.2887
| 22> H 	 -29.5446 	 29.6584 	 43.2522
| 23> S 	 -36.4137 	 32.128 	 44.2616
| 24> C 	 -36.9018 	 33.684 	 43.7517
| 25> C 	 -35.8143 	 34.4085 	 43.3438
| 26> C 	 -34.5645 	 33.7608 	 43.4956
| 27> C 	 -34.7043 	 32.4444 	 43.9366
| 28> H 	 -35.9279 	 35.4917 	 43.0527
| 29> C 	 -33.3643 	 34.4737 	 43.0073
| 30> H 	 -33.572 	 34.8082 	 41.9795
| 31> H 	 -32.4924 	 33.7556 	 42.9127
| 32> C 	 -32.9259 	 35.6674 	 43.9346
| 33> H 	 -33.7794 	 36.292 	 44.1774
| 34> H 	 -32.1791 	 36.181 	 43.4002
| 35> C 	 -32.427 	 35.2945 	 45.3294
| 36> H 	 -33.1749 	 34.8176 	 45.8925
| 37> H 	 -32.1061 	 36.1869 	 45.8593
| 38> H 	 -31.6669 	 34.5575 	 45.1729
| 39> H 	 -32.2756 	 28.2977 	 44.5697
| 40> H 	 -37.9355 	 33.9329 	 43.7603
| 41> *
| 42>
| 43>                          ****END OF INPUT****

CARTESIAN COORDINATES (ANGSTROEM)
---------------------------------
  S    -34.186400   29.765900   43.801300
  C    -32.750000   29.245700   44.556500
  C    -31.959200   30.249600   45.164900
  C    -32.566200   31.532900   44.948200
  C    -33.778300   31.390600   44.259700
  H    -32.191100   32.382500   45.518200
  C    -30.653600   30.130700   45.887000
  H    -30.490500   29.096500   46.210300
  H    -30.872300   30.568800   46.800900
  C    -29.364200   30.684600   45.209600
  H    -29.374000   31.729000   44.880300
  H    -28.514600   30.552400   45.971400
  C    -28.839100   29.809600   44.022400
  H    -28.088400   30.136600   43.324600
  H    -28.623400   28.761600   44.288700
  H    -29.544600   29.658400   43.252200
  S    -36.413700   32.128000   44.261600
  C    -36.901800   33.684000   43.751700
  C    -35.814300   34.408500   43.343800
  C    -34.564500   33.760800   43.495600
  C    -34.704300   32.444400   43.936600
  H    -35.927900   35.491700   43.052700
  C    -33.364300   34.473700   43.007300
  H    -33.572000   34.808200   41.979500
  H    -32.492400   33.755600   42.912700
  C    -32.925900   35.667400   43.934600
  H    -33.779400   36.292000   44.177400
  H    -32.179100   36.181000   43.400200
  C    -32.427000   35.294500   45.329400
  H    -33.174900   34.817600   45.892500
  H    -32.106100   36.186900   45.859300
  H    -31.666900   34.557500   45.172900
  H    -32.275600   28.297700   44.569700
  H    -37.935500   33.932900   43.760300

 Total Charge           Charge          ....    0
 Multiplicity           Mult            ....    1
 Number of Electrons    NEL             ....  134
 Basis Dimension        Dim             ....  322

ORBITAL ENERGIES
----------------

  NO   OCC          E(Eh)            E(eV)
   0   2.0000     -88.975243     -2421.1394
   1   2.0000     -88.959583     -2420.7133
   2   2.0000     -10.329951      -281.0922
   3   2.0000     -10.324571      -280.9458
   4   2.0000     -10.311681      -280.5951
   5   2.0000     -10.307612      -280.4844
   6   2.0000     -10.304581      -280.4019
   7   2.0000     -10.299312      -280.2585
   8   2.0000     -10.298078      -280.2249
   9   2.0000     -10.295173      -280.1459
  10   2.0000     -10.294292      -280.1219
  11   2.0000     -10.292987      -280.0864
  12   2.0000     -10.292285      -280.0673
  13   2.0000     -10.282708      -279.8067
  14   2.0000     -10.273057      -279.5441
  15   2.0000     -10.270324      -279.4697
  16   2.0000      -8.090393      -220.1508
  17   2.0000      -8.075329      -219.7409
  18   2.0000      -6.048740      -164.5946
  19   2.0000      -6.044965      -164.4919
  20   2.0000      -6.041188      -164.3891
  21   2.0000      -6.033742      -164.1865
  22   2.0000      -6.029593      -164.0736
  23   2.0000      -6.026241      -163.9824
  24   2.0000      -1.010803       -27.5054
  25   2.0000      -0.987444       -26.8697
  26   2.0000      -0.912243       -24.8234
  27   2.0000      -0.909607       -24.7517
  28   2.0000      -0.867315       -23.6009
  29   2.0000      -0.855806       -23.2877
  30   2.0000      -0.850699       -23.1487
  31   2.0000      -0.811238       -22.0749
  32   2.0000      -0.786171       -21.3928
  33   2.0000      -0.775167       -21.0934
  34   2.0000      -0.714244       -19.4356
  35   2.0000      -0.704473       -19.1697
  36   2.0000      -0.695374       -18.9221
  37   2.0000      -0.658815       -17.9273
  38   2.0000      -0.632440       -17.2096
  39   2.0000      -0.625719       -17.0267
  40   2.0000      -0.603844       -16.4314
  41   2.0000      -0.562195       -15.2981
  42   2.0000      -0.553739       -15.0680
  43   2.0000      -0.552522       -15.0349
  44   2.0000      -0.546537       -14.8720
  45   2.0000      -0.538300       -14.6479
  46   2.0000      -0.518927       -14.1207
  47   2.0000      -0.510094       -13.8804
  48   2.0000      -0.501762       -13.6536
  49   2.0000      -0.494828       -13.4649
  50   2.0000      -0.488509       -13.2930
  51   2.0000      -0.476435       -12.9645
  52   2.0000      -0.470480       -12.8024
  53   2.0000      -0.461622       -12.5614
  54   2.0000      -0.457412       -12.4468
  55   2.0000      -0.453882       -12.3508
  56   2.0000      -0.448605       -12.2071
  57   2.0000      -0.447526       -12.1778
  58   2.0000      -0.438371       -11.9287
  59   2.0000      -0.427811       -11.6413
  60   2.0000      -0.416867       -11.3435
  61   2.0000      -0.411441       -11.1959
  62   2.0000      -0.411129       -11.1874
  63   2.0000      -0.352181        -9.5833
  64   2.0000      -0.333891        -9.0856
  65   2.0000      -0.328197        -8.9307
  66   2.0000      -0.283034        -7.7017
  67   0.0000       0.028872         0.7856
  68   0.0000       0.074481         2.0267
  69   0.0000       0.111530         3.0349
  70   0.0000       0.118724         3.2307
  71   0.0000       0.128071         3.4850

MULLIKEN ATOMIC CHARGES
-----------------------
   0 S :    0.148475
   1 C :   -0.072489
   2 C :   -0.150333
   3 C :    0.017668
   4 C :   -0.142809
   5 H :    0.010795
   6 C :    0.108558
   7 H :    0.010325
   8 H :    0.016598
   9 C :   -0.065084
  10 H :    0.042817
  11 H :    0.046639
  12 C :   -0.056489
  13 H :    0.026874
  14 H :    0.021866
  15 H :    0.006819
  16 S :    0.084462
  17 C :   -0.080428
  18 C :   -0.053080
  19 C :   -0.025227
  20 C :   -0.142116
  21 H :    0.038598
  22 C :    0.017656
  23 H :    0.040651
  24 H :    0.031970
  25 C :   -0.063601
  26 H :    0.024764
  27 H :    0.023310
  28 C :   -0.028972
  29 H :    0.032683
  30 H :    0.040315
  31 H :    0.018711
  32 H :    0.018501
  33 H :    0.051573
Sum of atomic charges:   -0.0000000

LOEWDIN ATOMIC CHARGES
----------------------
   0 S :    0.444357
   1 C :   -0.218953
   2 C :   -0.058275
   3 C :   -0.061884
   4 C :   -0.195134
   5 H :    0.033705
   6 C :   -0.033102
   7 H :    0.034063
   8 H :    0.028335
   9 C :   -0.034704
  10 H :    0.026541
  11 H :    0.036936
  12 C :   -0.084595
  13 H :    0.028875
  14 H :    0.025649
  15 H :    0.019449
  16 S :    0.404554
  17 C :   -0.189895
  18 C :   -0.079856
  19 C :   -0.067086
  20 C :   -0.195184
  21 H :    0.039500
  22 C :   -0.034838
  23 H :    0.036408
  24 H :    0.033505
  25 C :   -0.029968
  26 H :    0.021591
  27 H :    0.016772
  28 C :   -0.056299
  29 H :    0.019603
  30 H :    0.030719
  31 H :    0.015452
  32 H :    0.019535
  33 H :    0.024223

  Mayer bond orders larger than 0.100000
B(  0-S ,  1-C ) :   1.1401 B(  0-S ,  4-C ) :   1.1665 B(  1-C ,  2-C ) :   1.6084
B(  1-C , 32-H ) :   0.9594 B(  2-C ,  3-C ) :   1.2633 B(  2-C ,  6-C ) :   1.0250
B(  3-C ,  4-C ) :   1.5390 B(  3-C ,  5-H ) :   0.9857 B(  4-C , 20-C ) :   1.0518
B(  6-C ,  7-H ) :   0.9331 B(  6-C ,  8-H ) :   0.9270 B(  6-C ,  9-C ) :   1.0616
B(  9-C , 10-H ) :   0.9619 B(  9-C , 11-H ) :   0.9574 B(  9-C , 12-C ) :   1.0548
B( 12-C , 13-H ) :   0.9746 B( 12-C , 14-H ) :   0.9759 B( 12-C , 15-H ) :   0.9706
B( 16-S , 17-C ) :   1.1667 B( 16-S , 20-C ) :   1.1420 B( 17-C , 18-C ) :   1.5782
B( 17-C , 20-C ) :   0.1003 B( 17-C , 33-H ) :   0.9767 B( 18-C , 19-C ) :   1.2541
B( 18-C , 21-H ) :   0.9804 B( 19-C , 20-C ) :   1.5670 B( 19-C , 22-C ) :   1.0502
B( 22-C , 23-H ) :   0.9397 B( 22-C , 24-H ) :   0.9382 B( 22-C , 25-C ) :   1.0608
B( 25-C , 26-H ) :   0.9607 B( 25-C , 27-H ) :   0.9579 B( 25-C , 28-C ) :   1.0773
B( 28-C , 29-H ) :   0.9735 B( 28-C , 30-H ) :   0.9684 B( 28-C , 31-H ) :   0.9690

Dispersion correction           -0.015126825
FINAL SINGLE POINT ENERGY     -1339.867200443000

DIPOLE MOMENT
-------------
                                X             Y             Z
Electronic contribution:    -26.93683     -10.14862      -3.72273
Nuclear contribution   :     27.37028      10.49763       3.80456
                        -----------------------------------------
Total Dipole Moment    :      0.43345       0.34901       0.08183
                        -----------------------------------------
Magnitude (a.u.)       :      0.56248
Magnitude (Debye)      :      1.42970

Rotational constants in cm-1:     0.019642     0.009423     0.006956
Rotational constants in MHz :   588.844704   282.502949   208.547156

                             ****ORCA TERMINATED NORMALLY****
TOTAL RUN TIME: 0 days 0 hours 0 minutes 35 seconds 614 msec
