                         Program Version 4.2.1 -  RELEASE  -
|  1> ! wB97X-D3 SP def2-SVP
|  2> %pal
|  3> nprocs 16
|  4> end
|  5>
|  6> * xyz 0 1
|  7> S 	 -46.5196 	 55.9775 	 100.099
|  8> C 	 -48.2475 	 55.9875 	 100.252
|  9> C 	 -48.8581 	 56.8737 	 99.3896
| 10> C 	 -47.9483 	 57.4385 	 98.4624
| 11> C 	 -46.6554 	 57.1353 	 98.7136
| 12> H 	 -48.1677 	 58.1096 	 97.6645
| 13> C 	 -50.352 	 57.0422 	 99.1798
| 14> H 	 -50.5437 	 57.3852 	 98.1764
| 15> H 	 -50.6927 	 57.8783 	 99.7658
| 16> C 	 -50.9979 	 55.6774 	 99.3225
| 17> H 	 -50.3578 	 55.02 	 98.753
| 18> H 	 -50.8875 	 55.3071 	 100.328
| 19> C 	 -52.4463 	 55.6092 	 98.8357
| 20> H 	 -52.9872 	 56.35 	 99.4196
| 21> H 	 -52.6567 	 55.8236 	 97.7729
| 22> H 	 -52.9283 	 54.6657 	 99.0923
| 23> S 	 -44.5044 	 58.7667 	 98.8368
| 24> C 	 -43.7071 	 59.1432 	 97.3521
| 25> C 	 -44.1133 	 58.4116 	 96.268
| 26> C 	 -45.2306 	 57.5426 	 96.5635
| 27> C 	 -45.5199 	 57.5958 	 97.939
| 28> H 	 -43.6255 	 58.541 	 95.3616
| 29> C 	 -45.9614 	 56.7267 	 95.5312
| 30> H 	 -46.5507 	 57.4453 	 95.0209
| 31> H 	 -46.8375 	 56.1088 	 95.9834
| 32> C 	 -45.1255 	 55.7984 	 94.5471
| 33> H 	 -44.6541 	 56.4974 	 93.8366
| 34> H 	 -45.8187 	 55.2326 	 93.9165
| 35> C 	 -44.1996 	 54.7918 	 95.184
| 36> H 	 -44.696 	 54.2697 	 95.9548
| 37> H 	 -43.2991 	 55.3535 	 95.4987
| 38> H 	 -43.93 	 54.0818 	 94.4355
| 39> H 	 -48.7215 	 55.3816 	 100.998
| 40> H 	 -42.9045 	 59.8599 	 97.2585
| 41> *
| 42>
| 43>                          ****END OF INPUT****

CARTESIAN COORDINATES (ANGSTROEM)
---------------------------------
  S    -46.519600   55.977500  100.099000
  C    -48.247500   55.987500  100.252000
  C    -48.858100   56.873700   99.389600
  C    -47.948300   57.438500   98.462400
  C    -46.655400   57.135300   98.713600
  H    -48.167700   58.109600   97.664500
  C    -50.352000   57.042200   99.179800
  H    -50.543700   57.385200   98.176400
  H    -50.692700   57.878300   99.765800
  C    -50.997900   55.677400   99.322500
  H    -50.357800   55.020000   98.753000
  H    -50.887500   55.307100  100.328000
  C    -52.446300   55.609200   98.835700
  H    -52.987200   56.350000   99.419600
  H    -52.656700   55.823600   97.772900
  H    -52.928300   54.665700   99.092300
  S    -44.504400   58.766700   98.836800
  C    -43.707100   59.143200   97.352100
  C    -44.113300   58.411600   96.268000
  C    -45.230600   57.542600   96.563500
  C    -45.519900   57.595800   97.939000
  H    -43.625500   58.541000   95.361600
  C    -45.961400   56.726700   95.531200
  H    -46.550700   57.445300   95.020900
  H    -46.837500   56.108800   95.983400
  C    -45.125500   55.798400   94.547100
  H    -44.654100   56.497400   93.836600
  H    -45.818700   55.232600   93.916500
  C    -44.199600   54.791800   95.184000
  H    -44.696000   54.269700   95.954800
  H    -43.299100   55.353500   95.498700
  H    -43.930000   54.081800   94.435500
  H    -48.721500   55.381600  100.998000
  H    -42.904500   59.859900   97.258500

 Total Charge           Charge          ....    0
 Multiplicity           Mult            ....    1
 Number of Electrons    NEL             ....  134
 Basis Dimension        Dim             ....  322

ORBITAL ENERGIES
----------------

  NO   OCC          E(Eh)            E(eV)
   0   2.0000     -88.963503     -2420.8200
   1   2.0000     -88.962069     -2420.7810
   2   2.0000     -10.324846      -280.9533
   3   2.0000     -10.323382      -280.9135
   4   2.0000     -10.313273      -280.6384
   5   2.0000     -10.310182      -280.5543
   6   2.0000     -10.310148      -280.5534
   7   2.0000     -10.297359      -280.2054
   8   2.0000     -10.295627      -280.1583
   9   2.0000     -10.290663      -280.0232
  10   2.0000     -10.288691      -279.9695
  11   2.0000     -10.285824      -279.8915
  12   2.0000     -10.285665      -279.8872
  13   2.0000     -10.282533      -279.8020
  14   2.0000     -10.278343      -279.6879
  15   2.0000     -10.270406      -279.4720
  16   2.0000      -8.078314      -219.8221
  17   2.0000      -8.076474      -219.7720
  18   2.0000      -6.036735      -164.2679
  19   2.0000      -6.034965      -164.2198
  20   2.0000      -6.032912      -164.1639
  21   2.0000      -6.031128      -164.1153
  22   2.0000      -6.029060      -164.0591
  23   2.0000      -6.027187      -164.0081
  24   2.0000      -1.002175       -27.2706
  25   2.0000      -0.981066       -26.6962
  26   2.0000      -0.914167       -24.8757
  27   2.0000      -0.903946       -24.5976
  28   2.0000      -0.868406       -23.6305
  29   2.0000      -0.853453       -23.2236
  30   2.0000      -0.848375       -23.0854
  31   2.0000      -0.814239       -22.1566
  32   2.0000      -0.784767       -21.3546
  33   2.0000      -0.767741       -20.8913
  34   2.0000      -0.714891       -19.4532
  35   2.0000      -0.701321       -19.0839
  36   2.0000      -0.687230       -18.7005
  37   2.0000      -0.658031       -17.9059
  38   2.0000      -0.646507       -17.5923
  39   2.0000      -0.613909       -16.7053
  40   2.0000      -0.593195       -16.1417
  41   2.0000      -0.570659       -15.5284
  42   2.0000      -0.561670       -15.2838
  43   2.0000      -0.551801       -15.0153
  44   2.0000      -0.547180       -14.8895
  45   2.0000      -0.523811       -14.2536
  46   2.0000      -0.520008       -14.1501
  47   2.0000      -0.512006       -13.9324
  48   2.0000      -0.497614       -13.5408
  49   2.0000      -0.494873       -13.4662
  50   2.0000      -0.488829       -13.3017
  51   2.0000      -0.477210       -12.9855
  52   2.0000      -0.472770       -12.8647
  53   2.0000      -0.466111       -12.6835
  54   2.0000      -0.460404       -12.5282
  55   2.0000      -0.448603       -12.2071
  56   2.0000      -0.444721       -12.1015
  57   2.0000      -0.441773       -12.0213
  58   2.0000      -0.430802       -11.7227
  59   2.0000      -0.427631       -11.6364
  60   2.0000      -0.419018       -11.4021
  61   2.0000      -0.412129       -11.2146
  62   2.0000      -0.410053       -11.1581
  63   2.0000      -0.343410        -9.3447
  64   2.0000      -0.328725        -8.9451
  65   2.0000      -0.325904        -8.8683
  66   2.0000      -0.293816        -7.9951
  67   0.0000       0.041148         1.1197
  68   0.0000       0.061367         1.6699
  69   0.0000       0.117949         3.2095
  70   0.0000       0.119936         3.2636
  71   0.0000       0.126699         3.4477

MULLIKEN ATOMIC CHARGES
-----------------------
   0 S :    0.105339
   1 C :   -0.141030
   2 C :   -0.080469
   3 C :    0.034552
   4 C :   -0.150350
   5 H :    0.004951
   6 C :    0.112831
   7 H :    0.004766
   8 H :    0.032476
   9 C :   -0.098436
  10 H :    0.032141
  11 H :    0.027556
  12 C :   -0.031437
  13 H :    0.020454
  14 H :    0.039537
  15 H :    0.030195
  16 S :    0.107341
  17 C :   -0.074498
  18 C :   -0.026597
  19 C :   -0.003310
  20 C :   -0.183730
  21 H :   -0.008624
  22 C :    0.033141
  23 H :    0.025143
  24 H :    0.038415
  25 C :   -0.096100
  26 H :    0.026927
  27 H :    0.023748
  28 C :   -0.000700
  29 H :    0.031890
  30 H :    0.043841
  31 H :    0.027089
  32 H :    0.044633
  33 H :    0.048314
Sum of atomic charges:    0.0000000

LOEWDIN ATOMIC CHARGES
----------------------
   0 S :    0.380484
   1 C :   -0.195764
   2 C :   -0.062075
   3 C :   -0.055676
   4 C :   -0.181894
   5 H :    0.030704
   6 C :   -0.026915
   7 H :    0.025949
   8 H :    0.030031
   9 C :   -0.039549
  10 H :    0.025010
  11 H :    0.021260
  12 C :   -0.068803
  13 H :    0.024544
  14 H :    0.027919
  15 H :    0.026843
  16 S :    0.398445
  17 C :   -0.181310
  18 C :   -0.069213
  19 C :   -0.045027
  20 C :   -0.189805
  21 H :    0.020105
  22 C :   -0.042926
  23 H :    0.028901
  24 H :    0.040552
  25 C :   -0.041107
  26 H :    0.021013
  27 H :    0.024296
  28 C :   -0.056771
  29 H :    0.024478
  30 H :    0.033056
  31 H :    0.025537
  32 H :    0.021763
  33 H :    0.025944

  Mayer bond orders larger than 0.100000
B(  0-S ,  1-C ) :   1.1385 B(  0-S ,  4-C ) :   1.1265 B(  1-C ,  2-C ) :   1.6142
B(  1-C , 32-H ) :   0.9726 B(  2-C ,  3-C ) :   1.2238 B(  2-C ,  6-C ) :   1.0154
B(  3-C ,  4-C ) :   1.6152 B(  3-C ,  5-H ) :   1.0012 B(  4-C , 20-C ) :   1.0160
B(  6-C ,  7-H ) :   0.9475 B(  6-C ,  8-H ) :   0.9207 B(  6-C ,  9-C ) :   1.0692
B(  9-C , 10-H ) :   0.9590 B(  9-C , 11-H ) :   0.9475 B(  9-C , 12-C ) :   1.0850
B( 12-C , 13-H ) :   0.9719 B( 12-C , 14-H ) :   0.9756 B( 12-C , 15-H ) :   0.9728
B( 16-S , 17-C ) :   1.1542 B( 16-S , 20-C ) :   1.1347 B( 17-C , 18-C ) :   1.6419
B( 17-C , 33-H ) :   0.9635 B( 18-C , 19-C ) :   1.1924 B( 18-C , 21-H ) :   1.0028
B( 19-C , 20-C ) :   1.6173 B( 19-C , 22-C ) :   1.0368 B( 22-C , 23-H ) :   0.9293
B( 22-C , 24-H ) :   0.9369 B( 22-C , 25-C ) :   1.0643 B( 25-C , 26-H ) :   0.9557
B( 25-C , 27-H ) :   0.9567 B( 25-C , 28-C ) :   1.0778 B( 28-C , 29-H ) :   0.9741
B( 28-C , 30-H ) :   0.9727 B( 28-C , 31-H ) :   0.9723

Dispersion correction           -0.014177102
FINAL SINGLE POINT ENERGY     -1339.877205733323

DIPOLE MOMENT
-------------
                                X             Y             Z
Electronic contribution:     17.38756      10.86373      15.05511
Nuclear contribution   :    -17.80976     -10.87294     -15.66094
                        -----------------------------------------
Total Dipole Moment    :     -0.42220      -0.00921      -0.60583
                        -----------------------------------------
Magnitude (a.u.)       :      0.73849
Magnitude (Debye)      :      1.87709

Rotational constants in cm-1:     0.020062     0.007691     0.006561
Rotational constants in MHz :   601.430899   230.574406   196.680994

                             ****ORCA TERMINATED NORMALLY****
TOTAL RUN TIME: 0 days 0 hours 0 minutes 29 seconds 488 msec
