                         Program Version 4.2.1 -  RELEASE  -
|  1> ! wB97X-D3 SP def2-SVP
|  2> %pal
|  3> nprocs 16
|  4> end
|  5>
|  6> * xyz 0 1
|  7> S 	 53.4953 	 1.80388 	 82.8402
|  8> C 	 52.2241 	 2.02117 	 83.9299
|  9> C 	 51.8475 	 0.905568 	 84.6095
| 10> C 	 52.655 	 -0.235342 	 84.2349
| 11> C 	 53.6058 	 0.120205 	 83.2782
| 12> H 	 52.757 	 -1.27542 	 84.5756
| 13> C 	 50.5625 	 0.768005 	 85.5233
| 14> H 	 50.2173 	 -0.282632 	 85.4781
| 15> H 	 49.714 	 1.26951 	 85.0113
| 16> C 	 50.7426 	 1.22043 	 87.0262
| 17> H 	 51.5364 	 0.643303 	 87.5363
| 18> H 	 51.1805 	 2.25457 	 87.147
| 19> C 	 49.4813 	 1.15977 	 87.8737
| 20> H 	 48.5648 	 1.65098 	 87.5489
| 21> H 	 49.1562 	 0.157258 	 88.0706
| 22> H 	 49.878 	 1.55495 	 88.8899
| 23> S 	 55.4011 	 -1.77469 	 83.8372
| 24> C 	 56.3676 	 -2.46072 	 82.5614
| 25> C 	 55.9613 	 -2.00461 	 81.3122
| 26> C 	 54.9225 	 -1.07945 	 81.3257
| 27> C 	 54.4783 	 -0.852265 	 82.6338
| 28> H 	 56.345 	 -2.38643 	 80.3465
| 29> C 	 54.4539 	 -0.316258 	 80.0965
| 30> H 	 53.8724 	 0.551794 	 80.4393
| 31> H 	 53.7394 	 -0.957109 	 79.5534
| 32> C 	 55.585 	 0.236081 	 79.2034
| 33> H 	 56.0885 	 -0.644505 	 78.7416
| 34> H 	 56.3122 	 0.716225 	 79.8198
| 35> C 	 55.1038 	 1.15863 	 78.0431
| 36> H 	 55.8291 	 1.30098 	 77.3016
| 37> H 	 54.6898 	 2.03469 	 78.3681
| 38> H 	 54.2667 	 0.623535 	 77.5157
| 39> H 	 51.6497 	 2.92174 	 83.9343
| 40> H 	 57.1938 	 -3.20503 	 82.6886
| 41> *
| 42>
| 43>                          ****END OF INPUT****

CARTESIAN COORDINATES (ANGSTROEM)
---------------------------------
  S     53.495300    1.803880   82.840200
  C     52.224100    2.021170   83.929900
  C     51.847500    0.905568   84.609500
  C     52.655000   -0.235342   84.234900
  C     53.605800    0.120205   83.278200
  H     52.757000   -1.275420   84.575600
  C     50.562500    0.768005   85.523300
  H     50.217300   -0.282632   85.478100
  H     49.714000    1.269510   85.011300
  C     50.742600    1.220430   87.026200
  H     51.536400    0.643303   87.536300
  H     51.180500    2.254570   87.147000
  C     49.481300    1.159770   87.873700
  H     48.564800    1.650980   87.548900
  H     49.156200    0.157258   88.070600
  H     49.878000    1.554950   88.889900
  S     55.401100   -1.774690   83.837200
  C     56.367600   -2.460720   82.561400
  C     55.961300   -2.004610   81.312200
  C     54.922500   -1.079450   81.325700
  C     54.478300   -0.852265   82.633800
  H     56.345000   -2.386430   80.346500
  C     54.453900   -0.316258   80.096500
  H     53.872400    0.551794   80.439300
  H     53.739400   -0.957109   79.553400
  C     55.585000    0.236081   79.203400
  H     56.088500   -0.644505   78.741600
  H     56.312200    0.716225   79.819800
  C     55.103800    1.158630   78.043100
  H     55.829100    1.300980   77.301600
  H     54.689800    2.034690   78.368100
  H     54.266700    0.623535   77.515700
  H     51.649700    2.921740   83.934300
  H     57.193800   -3.205030   82.688600

 Total Charge           Charge          ....    0
 Multiplicity           Mult            ....    1
 Number of Electrons    NEL             ....  134
 Basis Dimension        Dim             ....  322

ORBITAL ENERGIES
----------------

  NO   OCC          E(Eh)            E(eV)
   0   2.0000     -88.967833     -2420.9378
   1   2.0000     -88.967790     -2420.9367
   2   2.0000     -10.325762      -280.9783
   3   2.0000     -10.325057      -280.9591
   4   2.0000     -10.320387      -280.8320
   5   2.0000     -10.305256      -280.4203
   6   2.0000     -10.304595      -280.4023
   7   2.0000     -10.302534      -280.3462
   8   2.0000     -10.300997      -280.3044
   9   2.0000     -10.295522      -280.1554
  10   2.0000     -10.294754      -280.1345
  11   2.0000     -10.293602      -280.1031
  12   2.0000     -10.292623      -280.0765
  13   2.0000     -10.288904      -279.9753
  14   2.0000     -10.282401      -279.7984
  15   2.0000     -10.272339      -279.5245
  16   2.0000      -8.083408      -219.9607
  17   2.0000      -8.082111      -219.9254
  18   2.0000      -6.041731      -164.4039
  19   2.0000      -6.040499      -164.3703
  20   2.0000      -6.037821      -164.2975
  21   2.0000      -6.036700      -164.2670
  22   2.0000      -6.034298      -164.2016
  23   2.0000      -6.033001      -164.1663
  24   2.0000      -1.009554       -27.4714
  25   2.0000      -0.986659       -26.8484
  26   2.0000      -0.906889       -24.6777
  27   2.0000      -0.897537       -24.4232
  28   2.0000      -0.871031       -23.7020
  29   2.0000      -0.854426       -23.2501
  30   2.0000      -0.848040       -23.0763
  31   2.0000      -0.807492       -21.9730
  32   2.0000      -0.783141       -21.3103
  33   2.0000      -0.769554       -20.9406
  34   2.0000      -0.706124       -19.2146
  35   2.0000      -0.697608       -18.9829
  36   2.0000      -0.692692       -18.8491
  37   2.0000      -0.665273       -18.1030
  38   2.0000      -0.641327       -17.4514
  39   2.0000      -0.605538       -16.4775
  40   2.0000      -0.594415       -16.1749
  41   2.0000      -0.567756       -15.4494
  42   2.0000      -0.560315       -15.2470
  43   2.0000      -0.545337       -14.8394
  44   2.0000      -0.528453       -14.3799
  45   2.0000      -0.524988       -14.2856
  46   2.0000      -0.515156       -14.0181
  47   2.0000      -0.509846       -13.8736
  48   2.0000      -0.504737       -13.7346
  49   2.0000      -0.494149       -13.4465
  50   2.0000      -0.488133       -13.2828
  51   2.0000      -0.477167       -12.9844
  52   2.0000      -0.476095       -12.9552
  53   2.0000      -0.463628       -12.6160
  54   2.0000      -0.462696       -12.5906
  55   2.0000      -0.453766       -12.3476
  56   2.0000      -0.444528       -12.0962
  57   2.0000      -0.441112       -12.0033
  58   2.0000      -0.431505       -11.7418
  59   2.0000      -0.425150       -11.5689
  60   2.0000      -0.419720       -11.4212
  61   2.0000      -0.414829       -11.2881
  62   2.0000      -0.408744       -11.1225
  63   2.0000      -0.348273        -9.4770
  64   2.0000      -0.334836        -9.1113
  65   2.0000      -0.331415        -9.0183
  66   2.0000      -0.286535        -7.7970
  67   0.0000       0.030063         0.8181
  68   0.0000       0.075362         2.0507
  69   0.0000       0.105987         2.8840
  70   0.0000       0.116299         3.1647
  71   0.0000       0.135693         3.6924

MULLIKEN ATOMIC CHARGES
-----------------------
   0 S :    0.127270
   1 C :   -0.116243
   2 C :   -0.048463
   3 C :   -0.007551
   4 C :   -0.142474
   5 H :    0.027497
   6 C :    0.048819
   7 H :    0.026048
   8 H :    0.032163
   9 C :   -0.085365
  10 H :    0.032699
  11 H :    0.035220
  12 C :   -0.058970
  13 H :    0.038396
  14 H :    0.022144
  15 H :    0.042368
  16 S :    0.104710
  17 C :   -0.100467
  18 C :   -0.052528
  19 C :   -0.035767
  20 C :   -0.181509
  21 H :    0.025354
  22 C :    0.071430
  23 H :    0.013569
  24 H :    0.039378
  25 C :   -0.104325
  26 H :    0.029805
  27 H :    0.034769
  28 C :    0.004188
  29 H :    0.027022
  30 H :    0.018536
  31 H :    0.020225
  32 H :    0.039840
  33 H :    0.072210
Sum of atomic charges:   -0.0000000

LOEWDIN ATOMIC CHARGES
----------------------
   0 S :    0.438056
   1 C :   -0.212768
   2 C :   -0.062895
   3 C :   -0.069746
   4 C :   -0.204172
   5 H :    0.032531
   6 C :   -0.034165
   7 H :    0.031948
   8 H :    0.031925
   9 C :   -0.050942
  10 H :    0.029646
  11 H :    0.028835
  12 C :   -0.073183
  13 H :    0.023966
  14 H :    0.018228
  15 H :    0.040983
  16 S :    0.413178
  17 C :   -0.198203
  18 C :   -0.075884
  19 C :   -0.062116
  20 C :   -0.185617
  21 H :    0.034969
  22 C :   -0.033905
  23 H :    0.018792
  24 H :    0.035219
  25 C :   -0.036189
  26 H :    0.023863
  27 H :    0.021374
  28 C :   -0.052259
  29 H :    0.021133
  30 H :    0.012187
  31 H :    0.032219
  32 H :    0.024034
  33 H :    0.038957

  Mayer bond orders larger than 0.100000
B(  0-S ,  1-C ) :   1.1526 B(  0-S ,  4-C ) :   1.1493 B(  1-C ,  2-C ) :   1.6296
B(  1-C , 32-H ) :   0.9662 B(  2-C ,  3-C ) :   1.2274 B(  2-C ,  6-C ) :   1.0045
B(  3-C ,  4-C ) :   1.5672 B(  3-C ,  5-H ) :   0.9881 B(  4-C , 20-C ) :   1.0315
B(  6-C ,  7-H ) :   0.9486 B(  6-C ,  8-H ) :   0.9514 B(  6-C ,  9-C ) :   1.0436
B(  9-C , 10-H ) :   0.9536 B(  9-C , 11-H ) :   0.9627 B(  9-C , 12-C ) :   1.0771
B( 12-C , 13-H ) :   0.9771 B( 12-C , 14-H ) :   0.9747 B( 12-C , 15-H ) :   0.9732
B( 16-S , 17-C ) :   1.1583 B( 16-S , 20-C ) :   1.1521 B( 17-C , 18-C ) :   1.5834
B( 17-C , 20-C ) :   0.1076 B( 17-C , 33-H ) :   0.9619 B( 18-C , 19-C ) :   1.2751
B( 18-C , 21-H ) :   0.9809 B( 19-C , 20-C ) :   1.5728 B( 19-C , 22-C ) :   1.0364
B( 22-C , 23-H ) :   0.9371 B( 22-C , 24-H ) :   0.9234 B( 22-C , 25-C ) :   1.0604
B( 25-C , 26-H ) :   0.9503 B( 25-C , 27-H ) :   0.9617 B( 25-C , 28-C ) :   1.0843
B( 28-C , 29-H ) :   0.9748 B( 28-C , 30-H ) :   0.9770 B( 28-C , 31-H ) :   0.9713

Dispersion correction           -0.013417555
FINAL SINGLE POINT ENERGY     -1339.876594144941

DIPOLE MOMENT
-------------
                                X             Y             Z
Electronic contribution:     11.81847      -5.47893       1.88501
Nuclear contribution   :    -12.03890       5.44940      -2.09757
                        -----------------------------------------
Total Dipole Moment    :     -0.22044      -0.02952      -0.21256
                        -----------------------------------------
Magnitude (a.u.)       :      0.30764
Magnitude (Debye)      :      0.78197

Rotational constants in cm-1:     0.023707     0.006931     0.005631
Rotational constants in MHz :   710.723770   207.797489   168.825987

                             ****ORCA TERMINATED NORMALLY****
TOTAL RUN TIME: 0 days 0 hours 0 minutes 29 seconds 396 msec
