                         Program Version 4.2.1 -  RELEASE  -
|  1> ! wB97X-D3 SP def2-SVP
|  2> %pal
|  3> nprocs 16
|  4> end
|  5>
|  6> * xyz 0 1
|  7> S 	 -41.4484 	 15.3588 	 77.9292
|  8> C 	 -40.0981 	 16.1949 	 77.1904
|  9> C 	 -40.0948 	 15.892 	 75.8431
| 10> C 	 -41.3097 	 15.3019 	 75.297
| 11> C 	 -42.1616 	 14.9419 	 76.3634
| 12> H 	 -41.4713 	 14.938 	 74.2688
| 13> C 	 -39.0752 	 16.5443 	 74.8832
| 14> H 	 -38.681 	 15.7738 	 74.1745
| 15> H 	 -38.2223 	 16.9227 	 75.4145
| 16> C 	 -39.6564 	 17.7418 	 74.0522
| 17> H 	 -38.9138 	 18.119 	 73.3278
| 18> H 	 -40.5438 	 17.32 	 73.6967
| 19> C 	 -40.0602 	 18.8893 	 75.0485
| 20> H 	 -40.7445 	 18.5865 	 75.7987
| 21> H 	 -39.2588 	 19.3529 	 75.7032
| 22> H 	 -40.5406 	 19.7764 	 74.5128
| 23> S 	 -44.8814 	 15.4064 	 76.7081
| 24> C 	 -46.0015 	 14.0955 	 76.5088
| 25> C 	 -45.3647 	 13.0098 	 75.9332
| 26> C 	 -43.9277 	 13.17 	 75.8623
| 27> C 	 -43.513 	 14.4267 	 76.2631
| 28> H 	 -46.0312 	 12.1641 	 75.648
| 29> C 	 -43.0397 	 12.0439 	 75.4426
| 30> H 	 -43.1037 	 11.1785 	 76.1316
| 31> H 	 -42.0037 	 12.2915 	 75.5348
| 32> C 	 -43.2854 	 11.4605 	 74.0371
| 33> H 	 -44.2828 	 10.9759 	 74.0428
| 34> H 	 -42.5445 	 10.6725 	 73.8024
| 35> C 	 -43.1435 	 12.5518 	 73.0096
| 36> H 	 -42.0544 	 12.8433 	 73.0508
| 37> H 	 -43.6566 	 13.5395 	 73.1843
| 38> H 	 -43.4635 	 12.2068 	 72.0187
| 39> H 	 -39.2149 	 16.6902 	 77.6125
| 40> H 	 -47.0935 	 14.1428 	 76.6002
| 41> *
| 42>
| 43>                          ****END OF INPUT****

CARTESIAN COORDINATES (ANGSTROEM)
---------------------------------
  S    -41.448400   15.358800   77.929200
  C    -40.098100   16.194900   77.190400
  C    -40.094800   15.892000   75.843100
  C    -41.309700   15.301900   75.297000
  C    -42.161600   14.941900   76.363400
  H    -41.471300   14.938000   74.268800
  C    -39.075200   16.544300   74.883200
  H    -38.681000   15.773800   74.174500
  H    -38.222300   16.922700   75.414500
  C    -39.656400   17.741800   74.052200
  H    -38.913800   18.119000   73.327800
  H    -40.543800   17.320000   73.696700
  C    -40.060200   18.889300   75.048500
  H    -40.744500   18.586500   75.798700
  H    -39.258800   19.352900   75.703200
  H    -40.540600   19.776400   74.512800
  S    -44.881400   15.406400   76.708100
  C    -46.001500   14.095500   76.508800
  C    -45.364700   13.009800   75.933200
  C    -43.927700   13.170000   75.862300
  C    -43.513000   14.426700   76.263100
  H    -46.031200   12.164100   75.648000
  C    -43.039700   12.043900   75.442600
  H    -43.103700   11.178500   76.131600
  H    -42.003700   12.291500   75.534800
  C    -43.285400   11.460500   74.037100
  H    -44.282800   10.975900   74.042800
  H    -42.544500   10.672500   73.802400
  C    -43.143500   12.551800   73.009600
  H    -42.054400   12.843300   73.050800
  H    -43.656600   13.539500   73.184300
  H    -43.463500   12.206800   72.018700
  H    -39.214900   16.690200   77.612500
  H    -47.093500   14.142800   76.600200

 Total Charge           Charge          ....    0
 Multiplicity           Mult            ....    1
 Number of Electrons    NEL             ....  134
 Basis Dimension        Dim             ....  322

ORBITAL ENERGIES
----------------

  NO   OCC          E(Eh)            E(eV)
   0   2.0000     -88.969756     -2420.9902
   1   2.0000     -88.966035     -2420.8889
   2   2.0000     -10.336959      -281.2830
   3   2.0000     -10.325669      -280.9757
   4   2.0000     -10.320200      -280.8269
   5   2.0000     -10.318076      -280.7691
   6   2.0000     -10.306875      -280.4643
   7   2.0000     -10.306147      -280.4445
   8   2.0000     -10.304311      -280.3946
   9   2.0000     -10.299025      -280.2507
  10   2.0000     -10.291873      -280.0561
  11   2.0000     -10.290313      -280.0136
  12   2.0000     -10.288902      -279.9752
  13   2.0000     -10.287010      -279.9238
  14   2.0000     -10.282222      -279.7935
  15   2.0000     -10.278437      -279.6905
  16   2.0000      -8.083824      -219.9720
  17   2.0000      -8.081187      -219.9003
  18   2.0000      -6.042429      -164.4229
  19   2.0000      -6.039743      -164.3498
  20   2.0000      -6.038356      -164.3120
  21   2.0000      -6.035570      -164.2362
  22   2.0000      -6.034555      -164.2086
  23   2.0000      -6.031912      -164.1367
  24   2.0000      -1.007500       -27.4155
  25   2.0000      -0.983925       -26.7740
  26   2.0000      -0.913785       -24.8653
  27   2.0000      -0.904502       -24.6127
  28   2.0000      -0.869619       -23.6635
  29   2.0000      -0.846816       -23.0430
  30   2.0000      -0.837932       -22.8013
  31   2.0000      -0.813671       -22.1411
  32   2.0000      -0.779128       -21.2011
  33   2.0000      -0.769748       -20.9459
  34   2.0000      -0.712046       -19.3758
  35   2.0000      -0.694604       -18.9011
  36   2.0000      -0.691025       -18.8038
  37   2.0000      -0.652445       -17.7539
  38   2.0000      -0.638243       -17.3675
  39   2.0000      -0.620109       -16.8740
  40   2.0000      -0.599979       -16.3263
  41   2.0000      -0.570312       -15.5190
  42   2.0000      -0.553595       -15.0641
  43   2.0000      -0.546692       -14.8762
  44   2.0000      -0.541753       -14.7418
  45   2.0000      -0.534930       -14.5562
  46   2.0000      -0.518772       -14.1165
  47   2.0000      -0.509184       -13.8556
  48   2.0000      -0.504347       -13.7240
  49   2.0000      -0.494346       -13.4518
  50   2.0000      -0.491309       -13.3692
  51   2.0000      -0.478859       -13.0304
  52   2.0000      -0.464480       -12.6391
  53   2.0000      -0.458930       -12.4881
  54   2.0000      -0.454979       -12.3806
  55   2.0000      -0.447023       -12.1641
  56   2.0000      -0.444310       -12.0903
  57   2.0000      -0.431512       -11.7420
  58   2.0000      -0.428506       -11.6602
  59   2.0000      -0.424116       -11.5408
  60   2.0000      -0.417894       -11.3715
  61   2.0000      -0.414935       -11.2910
  62   2.0000      -0.412440       -11.2231
  63   2.0000      -0.339840        -9.2475
  64   2.0000      -0.330113        -8.9828
  65   2.0000      -0.326370        -8.8810
  66   2.0000      -0.306486        -8.3399
  67   0.0000       0.030484         0.8295
  68   0.0000       0.061572         1.6755
  69   0.0000       0.104965         2.8563
  70   0.0000       0.117148         3.1878
  71   0.0000       0.131985         3.5915

MULLIKEN ATOMIC CHARGES
-----------------------
   0 S :    0.125710
   1 C :   -0.112751
   2 C :   -0.108063
   3 C :    0.035991
   4 C :   -0.183116
   5 H :    0.034912
   6 C :    0.017855
   7 H :    0.035955
   8 H :    0.008018
   9 C :   -0.013918
  10 H :    0.050209
  11 H :    0.020731
  12 C :   -0.113075
  13 H :    0.039128
  14 H :    0.025372
  15 H :    0.042150
  16 S :    0.123524
  17 C :   -0.104959
  18 C :   -0.058302
  19 C :   -0.006801
  20 C :   -0.168708
  21 H :    0.038820
  22 C :    0.063849
  23 H :    0.035394
  24 H :    0.012837
  25 C :   -0.079399
  26 H :    0.032987
  27 H :    0.039630
  28 C :   -0.087146
  29 H :    0.031867
  30 H :    0.055567
  31 H :    0.037860
  32 H :    0.061257
  33 H :    0.066614
Sum of atomic charges:    0.0000000

LOEWDIN ATOMIC CHARGES
----------------------
   0 S :    0.405586
   1 C :   -0.205047
   2 C :   -0.065698
   3 C :   -0.060845
   4 C :   -0.183889
   5 H :    0.038666
   6 C :   -0.034694
   7 H :    0.030901
   8 H :    0.017668
   9 C :   -0.027428
  10 H :    0.031254
  11 H :    0.016442
  12 C :   -0.081308
  13 H :    0.019596
  14 H :    0.026127
  15 H :    0.031247
  16 S :    0.418441
  17 C :   -0.190558
  18 C :   -0.078094
  19 C :   -0.049596
  20 C :   -0.215997
  21 H :    0.039582
  22 C :   -0.036387
  23 H :    0.036915
  24 H :    0.024285
  25 C :   -0.042350
  26 H :    0.021046
  27 H :    0.031237
  28 C :   -0.077406
  29 H :    0.027827
  30 H :    0.030811
  31 H :    0.025276
  32 H :    0.039947
  33 H :    0.036444

  Mayer bond orders larger than 0.100000
B(  0-S ,  1-C ) :   1.1255 B(  0-S ,  4-C ) :   1.1599 B(  1-C ,  2-C ) :   1.6218
B(  1-C , 32-H ) :   0.9604 B(  2-C ,  3-C ) :   1.2151 B(  2-C ,  6-C ) :   1.0459
B(  3-C ,  4-C ) :   1.5768 B(  3-C ,  5-H ) :   0.9793 B(  4-C , 20-C ) :   1.0367
B(  6-C ,  7-H ) :   0.9417 B(  6-C ,  8-H ) :   0.9492 B(  6-C ,  9-C ) :   1.0538
B(  9-C , 10-H ) :   0.9587 B(  9-C , 11-H ) :   0.9547 B(  9-C , 12-C ) :   1.0634
B( 12-C , 13-H ) :   0.9755 B( 12-C , 14-H ) :   0.9765 B( 12-C , 15-H ) :   0.9758
B( 16-S , 17-C ) :   1.1596 B( 16-S , 20-C ) :   1.1431 B( 17-C , 18-C ) :   1.6293
B( 17-C , 33-H ) :   0.9628 B( 18-C , 19-C ) :   1.2135 B( 18-C , 21-H ) :   0.9844
B( 19-C , 20-C ) :   1.5935 B( 19-C , 22-C ) :   1.0569 B( 22-C , 23-H ) :   0.9321
B( 22-C , 24-H ) :   0.9297 B( 22-C , 25-C ) :   1.0716 B( 25-C , 26-H ) :   0.9546
B( 25-C , 27-H ) :   0.9543 B( 25-C , 28-C ) :   1.0702 B( 28-C , 29-H ) :   0.9689
B( 28-C , 30-H ) :   0.9725 B( 28-C , 31-H ) :   0.9709

Dispersion correction           -0.015676807
FINAL SINGLE POINT ENERGY     -1339.875647454014

DIPOLE MOMENT
-------------
                                X             Y             Z
Electronic contribution:    -10.84093       0.51342      19.08107
Nuclear contribution   :     10.92620      -0.83636     -19.52185
                        -----------------------------------------
Total Dipole Moment    :      0.08527      -0.32294      -0.44078
                        -----------------------------------------
Magnitude (a.u.)       :      0.55303
Magnitude (Debye)      :      1.40569

Rotational constants in cm-1:     0.020169     0.008858     0.007609
Rotational constants in MHz :   604.660031   265.544874   228.124046

                             ****ORCA TERMINATED NORMALLY****
TOTAL RUN TIME: 0 days 0 hours 0 minutes 31 seconds 728 msec
