                         Program Version 4.2.1 -  RELEASE  -
|  1> ! wB97X-D3 SP def2-SVP
|  2> %pal
|  3> nprocs 16
|  4> end
|  5>
|  6> * xyz 0 1
|  7> S 	 -23.1093 	 -1.06526 	 76.8799
|  8> C 	 -21.6947 	 -0.990805 	 75.9086
|  9> C 	 -20.8687 	 0.111293 	 76.2243
| 10> C 	 -21.4463 	 0.840698 	 77.3126
| 11> C 	 -22.6184 	 0.37508 	 77.7884
| 12> H 	 -21.0552 	 1.7496 	 77.7243
| 13> C 	 -19.5296 	 0.308904 	 75.5655
| 14> H 	 -19.2901 	 1.3477 	 75.4208
| 15> H 	 -19.5587 	 -0.116447 	 74.5967
| 16> C 	 -18.3444 	 -0.341082 	 76.351
| 17> H 	 -18.4534 	 -1.41535 	 76.3699
| 18> H 	 -17.4191 	 -0.225325 	 75.7868
| 19> C 	 -18.2607 	 0.327493 	 77.6719
| 20> H 	 -18.419 	 1.32919 	 77.6053
| 21> H 	 -19.1152 	 0.0106153 	 78.3206
| 22> H 	 -17.2467 	 0.149481 	 78.1773
| 23> S 	 -25.0719 	 1.58874 	 77.8485
| 24> C 	 -25.4502 	 2.64497 	 79.1625
| 25> C 	 -24.5019 	 2.66024 	 80.1216
| 26> C 	 -23.4815 	 1.65489 	 79.9239
| 27> C 	 -23.6087 	 1.0691 	 78.6438
| 28> H 	 -24.6595 	 3.34696 	 80.9247
| 29> C 	 -22.3952 	 1.48569 	 80.9238
| 30> H 	 -21.7107 	 2.25008 	 80.8978
| 31> H 	 -21.8384 	 0.620926 	 80.6005
| 32> C 	 -22.8917 	 1.30507 	 82.3454
| 33> H 	 -23.4746 	 0.429232 	 82.3263
| 34> H 	 -23.6691 	 2.03136 	 82.5844
| 35> C 	 -21.7326 	 1.32068 	 83.4498
| 36> H 	 -22.163 	 0.949236 	 84.3855
| 37> H 	 -21.1912 	 2.25996 	 83.6254
| 38> H 	 -20.8764 	 0.721429 	 83.1328
| 39> H 	 -21.3727 	 -1.77828 	 75.1595
| 40> H 	 -26.3432 	 3.23384 	 79.3036
| 41> *
| 42>
| 43>                          ****END OF INPUT****

CARTESIAN COORDINATES (ANGSTROEM)
---------------------------------
  S    -23.109300   -1.065260   76.879900
  C    -21.694700   -0.990805   75.908600
  C    -20.868700    0.111293   76.224300
  C    -21.446300    0.840698   77.312600
  C    -22.618400    0.375080   77.788400
  H    -21.055200    1.749600   77.724300
  C    -19.529600    0.308904   75.565500
  H    -19.290100    1.347700   75.420800
  H    -19.558700   -0.116447   74.596700
  C    -18.344400   -0.341082   76.351000
  H    -18.453400   -1.415350   76.369900
  H    -17.419100   -0.225325   75.786800
  C    -18.260700    0.327493   77.671900
  H    -18.419000    1.329190   77.605300
  H    -19.115200    0.010615   78.320600
  H    -17.246700    0.149481   78.177300
  S    -25.071900    1.588740   77.848500
  C    -25.450200    2.644970   79.162500
  C    -24.501900    2.660240   80.121600
  C    -23.481500    1.654890   79.923900
  C    -23.608700    1.069100   78.643800
  H    -24.659500    3.346960   80.924700
  C    -22.395200    1.485690   80.923800
  H    -21.710700    2.250080   80.897800
  H    -21.838400    0.620926   80.600500
  C    -22.891700    1.305070   82.345400
  H    -23.474600    0.429232   82.326300
  H    -23.669100    2.031360   82.584400
  C    -21.732600    1.320680   83.449800
  H    -22.163000    0.949236   84.385500
  H    -21.191200    2.259960   83.625400
  H    -20.876400    0.721429   83.132800
  H    -21.372700   -1.778280   75.159500
  H    -26.343200    3.233840   79.303600

 Total Charge           Charge          ....    0
 Multiplicity           Mult            ....    1
 Number of Electrons    NEL             ....  134
 Basis Dimension        Dim             ....  322

ORBITAL ENERGIES
----------------

  NO   OCC          E(Eh)            E(eV)
   0   2.0000     -88.965604     -2420.8772
   1   2.0000     -88.964058     -2420.8351
   2   2.0000     -10.329162      -281.0708
   3   2.0000     -10.328016      -281.0396
   4   2.0000     -10.320186      -280.8265
   5   2.0000     -10.309660      -280.5401
   6   2.0000     -10.305550      -280.4283
   7   2.0000     -10.303769      -280.3798
   8   2.0000     -10.293320      -280.0955
   9   2.0000     -10.288224      -279.9568
  10   2.0000     -10.287322      -279.9323
  11   2.0000     -10.285003      -279.8691
  12   2.0000     -10.284892      -279.8661
  13   2.0000     -10.282610      -279.8040
  14   2.0000     -10.278604      -279.6950
  15   2.0000     -10.272445      -279.5274
  16   2.0000      -8.080641      -219.8854
  17   2.0000      -8.079353      -219.8504
  18   2.0000      -6.039022      -164.3301
  19   2.0000      -6.037818      -164.2974
  20   2.0000      -6.035050      -164.2221
  21   2.0000      -6.033804      -164.1881
  22   2.0000      -6.031573      -164.1274
  23   2.0000      -6.030080      -164.0868
  24   2.0000      -1.008006       -27.4292
  25   2.0000      -0.986657       -26.8483
  26   2.0000      -0.917348       -24.9623
  27   2.0000      -0.912032       -24.8177
  28   2.0000      -0.869932       -23.6721
  29   2.0000      -0.849282       -23.1101
  30   2.0000      -0.842490       -22.9253
  31   2.0000      -0.821470       -22.3533
  32   2.0000      -0.784401       -21.3446
  33   2.0000      -0.769312       -20.9340
  34   2.0000      -0.713463       -19.4143
  35   2.0000      -0.705412       -19.1952
  36   2.0000      -0.694671       -18.9030
  37   2.0000      -0.655683       -17.8421
  38   2.0000      -0.642693       -17.4886
  39   2.0000      -0.621383       -16.9087
  40   2.0000      -0.600044       -16.3280
  41   2.0000      -0.577164       -15.7054
  42   2.0000      -0.560294       -15.2464
  43   2.0000      -0.550775       -14.9873
  44   2.0000      -0.542314       -14.7571
  45   2.0000      -0.527014       -14.3408
  46   2.0000      -0.512653       -13.9500
  47   2.0000      -0.510750       -13.8982
  48   2.0000      -0.505349       -13.7512
  49   2.0000      -0.500177       -13.6105
  50   2.0000      -0.490887       -13.3577
  51   2.0000      -0.477553       -12.9949
  52   2.0000      -0.471840       -12.8394
  53   2.0000      -0.464878       -12.6500
  54   2.0000      -0.454849       -12.3771
  55   2.0000      -0.450394       -12.2558
  56   2.0000      -0.447612       -12.1801
  57   2.0000      -0.444043       -12.0830
  58   2.0000      -0.436720       -11.8838
  59   2.0000      -0.425819       -11.5871
  60   2.0000      -0.423313       -11.5189
  61   2.0000      -0.416077       -11.3220
  62   2.0000      -0.412541       -11.2258
  63   2.0000      -0.349720        -9.5164
  64   2.0000      -0.328778        -8.9465
  65   2.0000      -0.324511        -8.8304
  66   2.0000      -0.296266        -8.0618
  67   0.0000       0.035560         0.9676
  68   0.0000       0.067035         1.8241
  69   0.0000       0.119546         3.2530
  70   0.0000       0.123450         3.3593
  71   0.0000       0.128256         3.4900

MULLIKEN ATOMIC CHARGES
-----------------------
   0 S :    0.109574
   1 C :   -0.131285
   2 C :   -0.116599
   3 C :    0.053401
   4 C :   -0.174353
   5 H :    0.003488
   6 C :    0.074411
   7 H :    0.025475
   8 H :    0.008441
   9 C :   -0.047771
  10 H :    0.021991
  11 H :    0.023879
  12 C :   -0.046852
  13 H :   -0.000572
  14 H :    0.052821
  15 H :    0.044805
  16 S :    0.117472
  17 C :   -0.084485
  18 C :   -0.046201
  19 C :   -0.069289
  20 C :   -0.135519
  21 H :    0.016292
  22 C :    0.150242
  23 H :    0.006109
  24 H :    0.014950
  25 C :   -0.089247
  26 H :    0.017456
  27 H :    0.024741
  28 C :   -0.048119
  29 H :    0.044188
  30 H :    0.033081
  31 H :    0.026218
  32 H :    0.072182
  33 H :    0.049076
Sum of atomic charges:   -0.0000000

LOEWDIN ATOMIC CHARGES
----------------------
   0 S :    0.407389
   1 C :   -0.208422
   2 C :   -0.066459
   3 C :   -0.055612
   4 C :   -0.195800
   5 H :    0.029734
   6 C :   -0.025968
   7 H :    0.027805
   8 H :    0.024754
   9 C :   -0.036143
  10 H :    0.020880
  11 H :    0.022606
  12 C :   -0.067146
  13 H :    0.006304
  14 H :    0.035458
  15 H :    0.035061
  16 S :    0.417062
  17 C :   -0.189889
  18 C :   -0.073078
  19 C :   -0.048738
  20 C :   -0.204688
  21 H :    0.028902
  22 C :   -0.030240
  23 H :    0.018827
  24 H :    0.031108
  25 C :   -0.033046
  26 H :    0.021478
  27 H :    0.021781
  28 C :   -0.068708
  29 H :    0.029777
  30 H :    0.027432
  31 H :    0.025559
  32 H :    0.041524
  33 H :    0.030497

  Mayer bond orders larger than 0.100000
B(  0-S ,  1-C ) :   1.1647 B(  0-S ,  4-C ) :   1.1405 B(  1-C ,  2-C ) :   1.5939
B(  1-C , 32-H ) :   0.9558 B(  2-C ,  3-C ) :   1.2417 B(  2-C ,  6-C ) :   1.0385
B(  3-C ,  4-C ) :   1.5965 B(  3-C ,  5-H ) :   0.9968 B(  4-C , 20-C ) :   0.9995
B(  6-C ,  7-H ) :   0.9424 B(  6-C ,  8-H ) :   0.9325 B(  6-C ,  9-C ) :   1.0729
B(  9-C , 10-H ) :   0.9542 B(  9-C , 11-H ) :   0.9544 B(  9-C , 12-C ) :   1.0842
B( 12-C , 13-H ) :   0.9708 B( 12-C , 14-H ) :   0.9634 B( 12-C , 15-H ) :   0.9687
B( 16-S , 17-C ) :   1.1483 B( 16-S , 20-C ) :   1.1460 B( 17-C , 18-C ) :   1.6538
B( 17-C , 33-H ) :   0.9629 B( 18-C , 19-C ) :   1.2115 B( 18-C , 21-H ) :   0.9896
B( 19-C , 20-C ) :   1.5934 B( 19-C , 22-C ) :   1.0591 B( 22-C , 23-H ) :   0.9277
B( 22-C , 24-H ) :   0.9202 B( 22-C , 25-C ) :   1.0498 B( 25-C , 26-H ) :   0.9563
B( 25-C , 27-H ) :   0.9608 B( 25-C , 28-C ) :   1.0631 B( 28-C , 29-H ) :   0.9775
B( 28-C , 30-H ) :   0.9765 B( 28-C , 31-H ) :   0.9757

Dispersion correction           -0.014215022
FINAL SINGLE POINT ENERGY     -1339.869565514133

DIPOLE MOMENT
-------------
                                X             Y             Z
Electronic contribution:    -23.45044      -2.94059     -14.96892
Nuclear contribution   :     23.97399       3.25257      15.16418
                        -----------------------------------------
Total Dipole Moment    :      0.52355       0.31198       0.19526
                        -----------------------------------------
Magnitude (a.u.)       :      0.63997
Magnitude (Debye)      :      1.62668

Rotational constants in cm-1:     0.017201     0.009030     0.006654
Rotational constants in MHz :   515.684466   270.704316   199.467872

                             ****ORCA TERMINATED NORMALLY****
TOTAL RUN TIME: 0 days 0 hours 0 minutes 34 seconds 14 msec
