                         Program Version 4.2.1 -  RELEASE  -
|  1> ! wB97X-D3 SP def2-SVP
|  2> %pal
|  3> nprocs 16
|  4> end
|  5>
|  6> * xyz 0 1
|  7> S 	 55.9233 	 12.4178 	 57.1149
|  8> C 	 55.6325 	 14.12 	 57.505
|  9> C 	 56.6914 	 14.8657 	 57.0411
| 10> C 	 57.7546 	 14.0418 	 56.5905
| 11> C 	 57.531 	 12.706 	 56.4763
| 12> H 	 58.7722 	 14.3724 	 56.3177
| 13> C 	 56.9055 	 16.3303 	 57.2951
| 14> H 	 57.5707 	 16.7311 	 56.4809
| 15> H 	 57.4685 	 16.5152 	 58.2182
| 16> C 	 55.6193 	 17.144 	 57.4563
| 17> H 	 54.9555 	 16.7738 	 56.7133
| 18> H 	 55.1961 	 16.9646 	 58.4645
| 19> C 	 55.9185 	 18.6806 	 57.3707
| 20> H 	 54.9988 	 19.3177 	 57.4229
| 21> H 	 56.469 	 18.8125 	 58.3969
| 22> H 	 56.664 	 18.9839 	 56.5975
| 23> S 	 59.1957 	 10.9037 	 57.7362
| 24> C 	 60.3744 	 10.0946 	 56.7597
| 25> C 	 60.1344 	 10.2012 	 55.4176
| 26> C 	 59.1567 	 11.2092 	 55.1445
| 27> C 	 58.5428 	 11.6775 	 56.2939
| 28> H 	 60.8692 	 9.81013 	 54.7113
| 29> C 	 59.0074 	 11.7899 	 53.7136
| 30> H 	 59.9956 	 11.6645 	 53.2285
| 31> H 	 58.7803 	 12.8827 	 53.7541
| 32> C 	 57.9675 	 11.1084 	 52.82
| 33> H 	 58.2517 	 10.0335 	 52.7689
| 34> H 	 58.069 	 11.5544 	 51.797
| 35> C 	 56.5173 	 11.1845 	 53.2202
| 36> H 	 56.1078 	 12.149 	 53.0849
| 37> H 	 56.2687 	 10.9374 	 54.2666
| 38> H 	 55.9915 	 10.4098 	 52.6485
| 39> H 	 54.7253 	 14.4486 	 57.9904
| 40> H 	 61.1587 	 9.58825 	 57.2617
| 41> *
| 42>
| 43>                          ****END OF INPUT****

CARTESIAN COORDINATES (ANGSTROEM)
---------------------------------
  S     55.923300   12.417800   57.114900
  C     55.632500   14.120000   57.505000
  C     56.691400   14.865700   57.041100
  C     57.754600   14.041800   56.590500
  C     57.531000   12.706000   56.476300
  H     58.772200   14.372400   56.317700
  C     56.905500   16.330300   57.295100
  H     57.570700   16.731100   56.480900
  H     57.468500   16.515200   58.218200
  C     55.619300   17.144000   57.456300
  H     54.955500   16.773800   56.713300
  H     55.196100   16.964600   58.464500
  C     55.918500   18.680600   57.370700
  H     54.998800   19.317700   57.422900
  H     56.469000   18.812500   58.396900
  H     56.664000   18.983900   56.597500
  S     59.195700   10.903700   57.736200
  C     60.374400   10.094600   56.759700
  C     60.134400   10.201200   55.417600
  C     59.156700   11.209200   55.144500
  C     58.542800   11.677500   56.293900
  H     60.869200    9.810130   54.711300
  C     59.007400   11.789900   53.713600
  H     59.995600   11.664500   53.228500
  H     58.780300   12.882700   53.754100
  C     57.967500   11.108400   52.820000
  H     58.251700   10.033500   52.768900
  H     58.069000   11.554400   51.797000
  C     56.517300   11.184500   53.220200
  H     56.107800   12.149000   53.084900
  H     56.268700   10.937400   54.266600
  H     55.991500   10.409800   52.648500
  H     54.725300   14.448600   57.990400
  H     61.158700    9.588250   57.261700

 Total Charge           Charge          ....    0
 Multiplicity           Mult            ....    1
 Number of Electrons    NEL             ....  134
 Basis Dimension        Dim             ....  322

ORBITAL ENERGIES
----------------

  NO   OCC          E(Eh)            E(eV)
   0   2.0000     -88.964098     -2420.8362
   1   2.0000     -88.960933     -2420.7500
   2   2.0000     -10.325412      -280.9687
   3   2.0000     -10.324157      -280.9346
   4   2.0000     -10.317935      -280.7653
   5   2.0000     -10.315829      -280.7080
   6   2.0000     -10.306730      -280.4604
   7   2.0000     -10.300444      -280.2893
   8   2.0000     -10.296422      -280.1799
   9   2.0000     -10.296032      -280.1693
  10   2.0000     -10.294724      -280.1337
  11   2.0000     -10.294225      -280.1201
  12   2.0000     -10.290895      -280.0295
  13   2.0000     -10.289024      -279.9786
  14   2.0000     -10.286218      -279.9022
  15   2.0000     -10.265857      -279.3482
  16   2.0000      -8.079472      -219.8536
  17   2.0000      -8.075397      -219.7427
  18   2.0000      -6.037834      -164.2978
  19   2.0000      -6.033952      -164.1922
  20   2.0000      -6.033944      -164.1920
  21   2.0000      -6.030287      -164.0924
  22   2.0000      -6.029839      -164.0803
  23   2.0000      -6.026207      -163.9814
  24   2.0000      -1.008470       -27.4419
  25   2.0000      -0.987399       -26.8685
  26   2.0000      -0.913115       -24.8471
  27   2.0000      -0.904457       -24.6115
  28   2.0000      -0.869746       -23.6670
  29   2.0000      -0.849177       -23.1073
  30   2.0000      -0.843394       -22.9499
  31   2.0000      -0.813221       -22.1289
  32   2.0000      -0.782792       -21.3008
  33   2.0000      -0.768241       -20.9049
  34   2.0000      -0.710311       -19.3285
  35   2.0000      -0.694127       -18.8881
  36   2.0000      -0.685289       -18.6477
  37   2.0000      -0.659784       -17.9536
  38   2.0000      -0.645661       -17.5693
  39   2.0000      -0.610672       -16.6172
  40   2.0000      -0.598278       -16.2800
  41   2.0000      -0.575682       -15.6651
  42   2.0000      -0.566152       -15.4058
  43   2.0000      -0.545489       -14.8435
  44   2.0000      -0.541900       -14.7459
  45   2.0000      -0.523467       -14.2443
  46   2.0000      -0.517298       -14.0764
  47   2.0000      -0.511842       -13.9279
  48   2.0000      -0.503886       -13.7114
  49   2.0000      -0.502210       -13.6658
  50   2.0000      -0.487101       -13.2547
  51   2.0000      -0.476800       -12.9744
  52   2.0000      -0.470002       -12.7894
  53   2.0000      -0.462858       -12.5950
  54   2.0000      -0.458000       -12.4628
  55   2.0000      -0.446019       -12.1368
  56   2.0000      -0.438441       -11.9306
  57   2.0000      -0.432824       -11.7777
  58   2.0000      -0.428881       -11.6705
  59   2.0000      -0.420463       -11.4414
  60   2.0000      -0.418576       -11.3900
  61   2.0000      -0.414688       -11.2842
  62   2.0000      -0.410938       -11.1822
  63   2.0000      -0.340406        -9.2629
  64   2.0000      -0.329703        -8.9717
  65   2.0000      -0.324085        -8.8188
  66   2.0000      -0.306702        -8.3458
  67   0.0000       0.042891         1.1671
  68   0.0000       0.052929         1.4403
  69   0.0000       0.116056         3.1581
  70   0.0000       0.121574         3.3082
  71   0.0000       0.125562         3.4167

MULLIKEN ATOMIC CHARGES
-----------------------
   0 S :    0.087313
   1 C :   -0.143535
   2 C :   -0.036622
   3 C :    0.015674
   4 C :   -0.152184
   5 H :    0.018651
   6 C :    0.019187
   7 H :    0.031995
   8 H :    0.042124
   9 C :   -0.086957
  10 H :    0.029989
  11 H :    0.040059
  12 C :   -0.086860
  13 H :    0.054802
  14 H :    0.032471
  15 H :    0.049673
  16 S :    0.117091
  17 C :   -0.099024
  18 C :   -0.010285
  19 C :   -0.037593
  20 C :   -0.177358
  21 H :    0.029324
  22 C :    0.062881
  23 H :    0.026523
  24 H :    0.033700
  25 C :   -0.087740
  26 H :    0.024992
  27 H :    0.037416
  28 C :   -0.025444
  29 H :    0.024554
  30 H :    0.023068
  31 H :    0.031873
  32 H :    0.059577
  33 H :    0.050664
Sum of atomic charges:    0.0000000

LOEWDIN ATOMIC CHARGES
----------------------
   0 S :    0.389910
   1 C :   -0.181031
   2 C :   -0.073217
   3 C :   -0.060429
   4 C :   -0.201494
   5 H :    0.034379
   6 C :   -0.036870
   7 H :    0.033707
   8 H :    0.035539
   9 C :   -0.044685
  10 H :    0.014412
  11 H :    0.028227
  12 C :   -0.076442
  13 H :    0.031499
  14 H :    0.035237
  15 H :    0.028039
  16 S :    0.409340
  17 C :   -0.170278
  18 C :   -0.076955
  19 C :   -0.047515
  20 C :   -0.203394
  21 H :    0.035719
  22 C :   -0.032859
  23 H :    0.033125
  24 H :    0.032724
  25 C :   -0.046367
  26 H :    0.024677
  27 H :    0.030221
  28 C :   -0.067694
  29 H :    0.019090
  30 H :    0.023240
  31 H :    0.030894
  32 H :    0.029252
  33 H :    0.020001

  Mayer bond orders larger than 0.100000
B(  0-S ,  1-C ) :   1.1427 B(  0-S ,  4-C ) :   1.1314 B(  1-C ,  2-C ) :   1.5844
B(  1-C , 32-H ) :   0.9726 B(  2-C ,  3-C ) :   1.2351 B(  2-C ,  6-C ) :   1.0298
B(  3-C ,  4-C ) :   1.6163 B(  3-C ,  5-H ) :   0.9876 B(  4-C , 20-C ) :   1.0173
B(  6-C ,  7-H ) :   0.9437 B(  6-C ,  8-H ) :   0.9351 B(  6-C ,  9-C ) :   1.0637
B(  9-C , 10-H ) :   0.9648 B(  9-C , 11-H ) :   0.9497 B(  9-C , 12-C ) :   1.0662
B( 12-C , 13-H ) :   0.9738 B( 12-C , 14-H ) :   0.9747 B( 12-C , 15-H ) :   0.9778
B( 16-S , 17-C ) :   1.1723 B( 16-S , 20-C ) :   1.1362 B( 17-C , 18-C ) :   1.6127
B( 17-C , 33-H ) :   0.9728 B( 18-C , 19-C ) :   1.2341 B( 18-C , 21-H ) :   0.9818
B( 19-C , 20-C ) :   1.6274 B( 19-C , 22-C ) :   1.0258 B( 22-C , 23-H ) :   0.9361
B( 22-C , 24-H ) :   0.9378 B( 22-C , 25-C ) :   1.0805 B( 25-C , 26-H ) :   0.9551
B( 25-C , 27-H ) :   0.9515 B( 25-C , 28-C ) :   1.0865 B( 28-C , 29-H ) :   0.9744
B( 28-C , 30-H ) :   0.9688 B( 28-C , 31-H ) :   0.9713

Dispersion correction           -0.014483920
FINAL SINGLE POINT ENERGY     -1339.882458907443

DIPOLE MOMENT
-------------
                                X             Y             Z
Electronic contribution:      5.17996     -18.48424      12.21807
Nuclear contribution   :     -4.82150      18.92678     -12.35834
                        -----------------------------------------
Total Dipole Moment    :      0.35846       0.44254      -0.14027
                        -----------------------------------------
Magnitude (a.u.)       :      0.58652
Magnitude (Debye)      :      1.49082

Rotational constants in cm-1:     0.021900     0.007461     0.006700
Rotational constants in MHz :   656.545391   223.684013   200.856720

                             ****ORCA TERMINATED NORMALLY****
TOTAL RUN TIME: 0 days 0 hours 0 minutes 30 seconds 356 msec
