                         Program Version 4.2.1 -  RELEASE  -
|  1> ! wB97X-D3 SP def2-SVP
|  2> %pal
|  3> nprocs 16
|  4> end
|  5>
|  6> * xyz 0 1
|  7> S 	 -2.84196 	 -12.2883 	 70.7613
|  8> C 	 -2.57279 	 -13.3995 	 69.4086
|  9> C 	 -2.37577 	 -12.6999 	 68.24
| 10> C 	 -2.50873 	 -11.3202 	 68.3367
| 11> C 	 -2.80989 	 -10.8878 	 69.6022
| 12> H 	 -2.50341 	 -10.5534 	 67.5876
| 13> C 	 -2.30871 	 -13.3258 	 66.8699
| 14> H 	 -1.49257 	 -14.0067 	 67.0037
| 15> H 	 -1.95536 	 -12.488 	 66.1774
| 16> C 	 -3.58642 	 -13.8519 	 66.208
| 17> H 	 -3.37933 	 -14.0035 	 65.1956
| 18> H 	 -3.84121 	 -14.8154 	 66.5599
| 19> C 	 -4.84833 	 -12.9554 	 66.3114
| 20> H 	 -5.66344 	 -13.4068 	 65.7796
| 21> H 	 -4.92284 	 -12.7401 	 67.3812
| 22> H 	 -4.66339 	 -11.9305 	 65.8943
| 23> S 	 -4.90892 	 -9.64868 	 70.6302
| 24> C 	 -5.06947 	 -7.87158 	 70.4952
| 25> C 	 -3.94573 	 -7.30177 	 69.914
| 26> C 	 -2.95148 	 -8.25562 	 69.5933
| 27> C 	 -3.29949 	 -9.58895 	 69.9521
| 28> H 	 -3.92889 	 -6.21974 	 69.7712
| 29> C 	 -1.69001 	 -7.87398 	 68.8467
| 30> H 	 -1.00471 	 -8.74697 	 68.8356
| 31> H 	 -1.15637 	 -7.31804 	 69.6263
| 32> C 	 -1.92007 	 -7.17457 	 67.5147
| 33> H 	 -2.44664 	 -6.19407 	 67.7309
| 34> H 	 -2.53651 	 -7.76369 	 66.8414
| 35> C 	 -0.559661 	 -6.80833 	 66.866
| 36> H 	 -0.0795105 	 -5.92305 	 67.2813
| 37> H 	 -0.625215 	 -6.60398 	 65.7714
| 38> H 	 0.107115 	 -7.63296 	 66.8638
| 39> H 	 -2.4694 	 -14.5227 	 69.3937
| 40> H 	 -5.96288 	 -7.36646 	 70.88
| 41> *
| 42>
| 43>                          ****END OF INPUT****

CARTESIAN COORDINATES (ANGSTROEM)
---------------------------------
  S     -2.841960  -12.288300   70.761300
  C     -2.572790  -13.399500   69.408600
  C     -2.375770  -12.699900   68.240000
  C     -2.508730  -11.320200   68.336700
  C     -2.809890  -10.887800   69.602200
  H     -2.503410  -10.553400   67.587600
  C     -2.308710  -13.325800   66.869900
  H     -1.492570  -14.006700   67.003700
  H     -1.955360  -12.488000   66.177400
  C     -3.586420  -13.851900   66.208000
  H     -3.379330  -14.003500   65.195600
  H     -3.841210  -14.815400   66.559900
  C     -4.848330  -12.955400   66.311400
  H     -5.663440  -13.406800   65.779600
  H     -4.922840  -12.740100   67.381200
  H     -4.663390  -11.930500   65.894300
  S     -4.908920   -9.648680   70.630200
  C     -5.069470   -7.871580   70.495200
  C     -3.945730   -7.301770   69.914000
  C     -2.951480   -8.255620   69.593300
  C     -3.299490   -9.588950   69.952100
  H     -3.928890   -6.219740   69.771200
  C     -1.690010   -7.873980   68.846700
  H     -1.004710   -8.746970   68.835600
  H     -1.156370   -7.318040   69.626300
  C     -1.920070   -7.174570   67.514700
  H     -2.446640   -6.194070   67.730900
  H     -2.536510   -7.763690   66.841400
  C     -0.559661   -6.808330   66.866000
  H     -0.079510   -5.923050   67.281300
  H     -0.625215   -6.603980   65.771400
  H      0.107115   -7.632960   66.863800
  H     -2.469400  -14.522700   69.393700
  H     -5.962880   -7.366460   70.880000

 Total Charge           Charge          ....    0
 Multiplicity           Mult            ....    1
 Number of Electrons    NEL             ....  134
 Basis Dimension        Dim             ....  322

ORBITAL ENERGIES
----------------

  NO   OCC          E(Eh)            E(eV)
   0   2.0000     -88.969074     -2420.9716
   1   2.0000     -88.963817     -2420.8285
   2   2.0000     -10.330684      -281.1122
   3   2.0000     -10.326327      -280.9936
   4   2.0000     -10.322416      -280.8872
   5   2.0000     -10.318647      -280.7847
   6   2.0000     -10.307289      -280.4756
   7   2.0000     -10.298802      -280.2446
   8   2.0000     -10.298135      -280.2265
   9   2.0000     -10.293843      -280.1097
  10   2.0000     -10.293389      -280.0973
  11   2.0000     -10.291309      -280.0407
  12   2.0000     -10.288453      -279.9630
  13   2.0000     -10.280048      -279.7343
  14   2.0000     -10.277735      -279.6714
  15   2.0000     -10.276432      -279.6359
  16   2.0000      -8.082161      -219.9268
  17   2.0000      -8.078162      -219.8180
  18   2.0000      -6.040839      -164.3796
  19   2.0000      -6.036953      -164.2738
  20   2.0000      -6.036638      -164.2653
  21   2.0000      -6.032780      -164.1603
  22   2.0000      -6.032682      -164.1576
  23   2.0000      -6.028986      -164.0571
  24   2.0000      -1.004753       -27.3407
  25   2.0000      -0.979960       -26.6661
  26   2.0000      -0.911907       -24.8142
  27   2.0000      -0.907435       -24.6926
  28   2.0000      -0.871394       -23.7118
  29   2.0000      -0.851669       -23.1751
  30   2.0000      -0.845394       -23.0043
  31   2.0000      -0.815087       -22.1796
  32   2.0000      -0.780247       -21.2316
  33   2.0000      -0.767236       -20.8776
  34   2.0000      -0.711166       -19.3518
  35   2.0000      -0.704912       -19.1816
  36   2.0000      -0.699769       -19.0417
  37   2.0000      -0.661165       -17.9912
  38   2.0000      -0.635972       -17.3057
  39   2.0000      -0.612460       -16.6659
  40   2.0000      -0.592262       -16.1163
  41   2.0000      -0.568726       -15.4758
  42   2.0000      -0.565230       -15.3807
  43   2.0000      -0.560728       -15.2582
  44   2.0000      -0.543123       -14.7791
  45   2.0000      -0.527930       -14.3657
  46   2.0000      -0.513000       -13.9594
  47   2.0000      -0.510294       -13.8858
  48   2.0000      -0.503844       -13.7103
  49   2.0000      -0.494018       -13.4429
  50   2.0000      -0.488677       -13.2976
  51   2.0000      -0.472534       -12.8583
  52   2.0000      -0.471834       -12.8393
  53   2.0000      -0.466760       -12.7012
  54   2.0000      -0.454678       -12.3724
  55   2.0000      -0.452010       -12.2998
  56   2.0000      -0.445209       -12.1147
  57   2.0000      -0.439379       -11.9561
  58   2.0000      -0.434969       -11.8361
  59   2.0000      -0.425077       -11.5669
  60   2.0000      -0.418839       -11.3972
  61   2.0000      -0.412310       -11.2195
  62   2.0000      -0.405849       -11.0437
  63   2.0000      -0.352062        -9.5801
  64   2.0000      -0.333477        -9.0744
  65   2.0000      -0.326820        -8.8932
  66   2.0000      -0.285943        -7.7809
  67   0.0000       0.023314         0.6344
  68   0.0000       0.065476         1.7817
  69   0.0000       0.106346         2.8938
  70   0.0000       0.118713         3.2304
  71   0.0000       0.126545         3.4435

MULLIKEN ATOMIC CHARGES
-----------------------
   0 S :    0.104623
   1 C :   -0.131683
   2 C :   -0.100598
   3 C :    0.045611
   4 C :   -0.166009
   5 H :    0.001746
   6 C :    0.039093
   7 H :    0.029489
   8 H :    0.025014
   9 C :   -0.009085
  10 H :    0.012893
  11 H :    0.010035
  12 C :   -0.066135
  13 H :    0.044434
  14 H :    0.052710
  15 H :    0.023360
  16 S :    0.094855
  17 C :   -0.115391
  18 C :   -0.033950
  19 C :   -0.039248
  20 C :   -0.140684
  21 H :    0.029608
  22 C :    0.041731
  23 H :    0.020830
  24 H :    0.033227
  25 C :   -0.068250
  26 H :    0.043117
  27 H :    0.040460
  28 C :   -0.040932
  29 H :    0.038297
  30 H :    0.028918
  31 H :    0.019988
  32 H :    0.064499
  33 H :    0.067429
Sum of atomic charges:   -0.0000000

LOEWDIN ATOMIC CHARGES
----------------------
   0 S :    0.369595
   1 C :   -0.202788
   2 C :   -0.077221
   3 C :   -0.057810
   4 C :   -0.172778
   5 H :    0.031131
   6 C :   -0.033158
   7 H :    0.029531
   8 H :    0.035862
   9 C :   -0.033288
  10 H :    0.016986
  11 H :    0.015652
  12 C :   -0.063275
  13 H :    0.026427
  14 H :    0.031663
  15 H :    0.025334
  16 S :    0.398676
  17 C :   -0.173004
  18 C :   -0.073357
  19 C :   -0.055820
  20 C :   -0.204314
  21 H :    0.036836
  22 C :   -0.045793
  23 H :    0.031579
  24 H :    0.038583
  25 C :   -0.037205
  26 H :    0.033512
  27 H :    0.025501
  28 C :   -0.067753
  29 H :    0.027422
  30 H :    0.030051
  31 H :    0.018255
  32 H :    0.044310
  33 H :    0.030657

  Mayer bond orders larger than 0.100000
B(  0-S ,  1-C ) :   1.1179 B(  0-S ,  4-C ) :   1.1287 B(  1-C ,  2-C ) :   1.6209
B(  1-C , 32-H ) :   0.9602 B(  2-C ,  3-C ) :   1.2302 B(  2-C ,  6-C ) :   1.0151
B(  3-C ,  4-C ) :   1.5836 B(  3-C ,  5-H ) :   0.9960 B(  4-C , 20-C ) :   1.0503
B(  6-C ,  7-H ) :   0.9372 B(  6-C ,  8-H ) :   0.9433 B(  6-C ,  9-C ) :   1.0700
B(  9-C , 10-H ) :   0.9528 B(  9-C , 11-H ) :   0.9520 B(  9-C , 12-C ) :   1.0797
B( 12-C , 13-H ) :   0.9733 B( 12-C , 14-H ) :   0.9717 B( 12-C , 15-H ) :   0.9747
B( 16-S , 17-C ) :   1.1589 B( 16-S , 20-C ) :   1.1478 B( 17-C , 18-C ) :   1.5875
B( 17-C , 20-C ) :   0.1061 B( 17-C , 33-H ) :   0.9675 B( 18-C , 19-C ) :   1.2469
B( 18-C , 21-H ) :   0.9924 B( 19-C , 20-C ) :   1.5624 B( 19-C , 22-C ) :   1.0369
B( 22-C , 23-H ) :   0.9351 B( 22-C , 24-H ) :   0.9303 B( 22-C , 25-C ) :   1.0481
B( 25-C , 26-H ) :   0.9519 B( 25-C , 27-H ) :   0.9600 B( 25-C , 28-C ) :   1.0787
B( 28-C , 29-H ) :   0.9776 B( 28-C , 30-H ) :   0.9745 B( 28-C , 31-H ) :   0.9748

Dispersion correction           -0.014860318
FINAL SINGLE POINT ENERGY     -1339.865537803773

DIPOLE MOMENT
-------------
                                X             Y             Z
Electronic contribution:     -7.21740      -4.66449      24.28525
Nuclear contribution   :      7.33518       4.95921     -24.94781
                        -----------------------------------------
Total Dipole Moment    :      0.11777       0.29472      -0.66256
                        -----------------------------------------
Magnitude (a.u.)       :      0.73465
Magnitude (Debye)      :      1.86734

Rotational constants in cm-1:     0.016613     0.009510     0.007579
Rotational constants in MHz :   498.036567   285.093549   227.215351

                             ****ORCA TERMINATED NORMALLY****
TOTAL RUN TIME: 0 days 0 hours 0 minutes 36 seconds 147 msec
