                         Program Version 4.2.1 -  RELEASE  -
|  1> ! wB97X-D3 SP def2-SVP
|  2> %pal
|  3> nprocs 16
|  4> end
|  5>
|  6> * xyz 0 1
|  7> S 	 -10.5778 	 60.1201 	 60.4017
|  8> C 	 -9.15725 	 59.2154 	 59.864
|  9> C 	 -9.50471 	 57.8832 	 59.5998
| 10> C 	 -10.8202 	 57.5849 	 59.9601
| 11> C 	 -11.5643 	 58.691 	 60.3802
| 12> H 	 -11.2138 	 56.5251 	 59.9077
| 13> C 	 -8.55562 	 56.8936 	 59.0203
| 14> H 	 -7.75135 	 57.3654 	 58.3774
| 15> H 	 -9.07262 	 56.1397 	 58.4511
| 16> C 	 -7.781 	 56.1421 	 60.0762
| 17> H 	 -7.07343 	 55.4455 	 59.5421
| 18> H 	 -7.19482 	 56.8937 	 60.6432
| 19> C 	 -8.49931 	 55.3799 	 61.0748
| 20> H 	 -9.27472 	 55.926 	 61.5492
| 21> H 	 -9.08355 	 54.6145 	 60.6178
| 22> H 	 -7.83326 	 54.9452 	 61.8627
| 23> S 	 -13.0873 	 58.9364 	 62.6729
| 24> C 	 -14.5819 	 58.0033 	 62.7414
| 25> C 	 -14.8938 	 57.4433 	 61.5389
| 26> C 	 -13.9332 	 57.6858 	 60.507
| 27> C 	 -12.9078 	 58.5506 	 60.97
| 28> H 	 -15.7215 	 56.803 	 61.5736
| 29> C 	 -14.0075 	 56.9519 	 59.1842
| 30> H 	 -14.5155 	 56.026 	 59.1958
| 31> H 	 -12.9973 	 56.6076 	 58.9137
| 32> C 	 -14.5826 	 57.8169 	 58.0667
| 33> H 	 -15.3391 	 58.3741 	 58.5737
| 34> H 	 -14.9603 	 57.1491 	 57.3426
| 35> C 	 -13.5684 	 58.8637 	 57.5235
| 36> H 	 -14.0406 	 59.598 	 56.9059
| 37> H 	 -12.8308 	 58.3424 	 56.8701
| 38> H 	 -13.0261 	 59.4764 	 58.2809
| 39> H 	 -8.20502 	 59.7258 	 59.6496
| 40> H 	 -15.1619 	 57.9564 	 63.692
| 41> *
| 42>
| 43>                          ****END OF INPUT****

CARTESIAN COORDINATES (ANGSTROEM)
---------------------------------
  S    -10.577800   60.120100   60.401700
  C     -9.157250   59.215400   59.864000
  C     -9.504710   57.883200   59.599800
  C    -10.820200   57.584900   59.960100
  C    -11.564300   58.691000   60.380200
  H    -11.213800   56.525100   59.907700
  C     -8.555620   56.893600   59.020300
  H     -7.751350   57.365400   58.377400
  H     -9.072620   56.139700   58.451100
  C     -7.781000   56.142100   60.076200
  H     -7.073430   55.445500   59.542100
  H     -7.194820   56.893700   60.643200
  C     -8.499310   55.379900   61.074800
  H     -9.274720   55.926000   61.549200
  H     -9.083550   54.614500   60.617800
  H     -7.833260   54.945200   61.862700
  S    -13.087300   58.936400   62.672900
  C    -14.581900   58.003300   62.741400
  C    -14.893800   57.443300   61.538900
  C    -13.933200   57.685800   60.507000
  C    -12.907800   58.550600   60.970000
  H    -15.721500   56.803000   61.573600
  C    -14.007500   56.951900   59.184200
  H    -14.515500   56.026000   59.195800
  H    -12.997300   56.607600   58.913700
  C    -14.582600   57.816900   58.066700
  H    -15.339100   58.374100   58.573700
  H    -14.960300   57.149100   57.342600
  C    -13.568400   58.863700   57.523500
  H    -14.040600   59.598000   56.905900
  H    -12.830800   58.342400   56.870100
  H    -13.026100   59.476400   58.280900
  H     -8.205020   59.725800   59.649600
  H    -15.161900   57.956400   63.692000

 Total Charge           Charge          ....    0
 Multiplicity           Mult            ....    1
 Number of Electrons    NEL             ....  134
 Basis Dimension        Dim             ....  322

ORBITAL ENERGIES
----------------

  NO   OCC          E(Eh)            E(eV)
   0   2.0000     -88.970690     -2421.0155
   1   2.0000     -88.965465     -2420.8734
   2   2.0000     -10.331538      -281.1354
   3   2.0000     -10.330615      -281.1103
   4   2.0000     -10.319842      -280.8172
   5   2.0000     -10.318768      -280.7879
   6   2.0000     -10.308870      -280.5186
   7   2.0000     -10.299746      -280.2703
   8   2.0000     -10.296490      -280.1817
   9   2.0000     -10.291608      -280.0489
  10   2.0000     -10.290601      -280.0215
  11   2.0000     -10.285144      -279.8730
  12   2.0000     -10.281333      -279.7693
  13   2.0000     -10.277603      -279.6678
  14   2.0000     -10.272126      -279.5188
  15   2.0000     -10.265048      -279.3261
  16   2.0000      -8.084843      -219.9998
  17   2.0000      -8.080132      -219.8716
  18   2.0000      -6.043266      -164.4456
  19   2.0000      -6.039328      -164.3385
  20   2.0000      -6.038582      -164.3182
  21   2.0000      -6.035844      -164.2437
  22   2.0000      -6.034691      -164.2123
  23   2.0000      -6.030904      -164.1092
  24   2.0000      -1.005810       -27.3695
  25   2.0000      -0.983770       -26.7698
  26   2.0000      -0.923703       -25.1352
  27   2.0000      -0.909639       -24.7525
  28   2.0000      -0.869369       -23.6567
  29   2.0000      -0.851547       -23.1718
  30   2.0000      -0.843291       -22.9471
  31   2.0000      -0.812471       -22.1085
  32   2.0000      -0.787704       -21.4345
  33   2.0000      -0.772709       -21.0265
  34   2.0000      -0.703692       -19.1484
  35   2.0000      -0.695816       -18.9341
  36   2.0000      -0.688696       -18.7404
  37   2.0000      -0.659322       -17.9411
  38   2.0000      -0.636869       -17.3301
  39   2.0000      -0.620839       -16.8939
  40   2.0000      -0.602852       -16.4044
  41   2.0000      -0.580285       -15.7904
  42   2.0000      -0.553830       -15.0705
  43   2.0000      -0.548529       -14.9262
  44   2.0000      -0.546872       -14.8811
  45   2.0000      -0.535355       -14.5678
  46   2.0000      -0.518760       -14.1162
  47   2.0000      -0.512286       -13.9400
  48   2.0000      -0.503752       -13.7078
  49   2.0000      -0.492541       -13.4027
  50   2.0000      -0.485323       -13.2063
  51   2.0000      -0.478983       -13.0338
  52   2.0000      -0.471992       -12.8435
  53   2.0000      -0.464841       -12.6490
  54   2.0000      -0.459948       -12.5158
  55   2.0000      -0.446355       -12.1459
  56   2.0000      -0.440719       -11.9926
  57   2.0000      -0.435978       -11.8636
  58   2.0000      -0.428354       -11.6561
  59   2.0000      -0.425200       -11.5703
  60   2.0000      -0.419867       -11.4252
  61   2.0000      -0.410477       -11.1697
  62   2.0000      -0.408984       -11.1290
  63   2.0000      -0.347177        -9.4472
  64   2.0000      -0.333691        -9.0802
  65   2.0000      -0.328392        -8.9360
  66   2.0000      -0.290028        -7.8921
  67   0.0000       0.027036         0.7357
  68   0.0000       0.065587         1.7847
  69   0.0000       0.107657         2.9295
  70   0.0000       0.113763         3.0957
  71   0.0000       0.135155         3.6778

MULLIKEN ATOMIC CHARGES
-----------------------
   0 S :    0.115909
   1 C :   -0.147551
   2 C :   -0.080273
   3 C :    0.005689
   4 C :   -0.169875
   5 H :    0.047978
   6 C :    0.071152
   7 H :    0.038976
   8 H :    0.016270
   9 C :   -0.085468
  10 H :    0.032560
  11 H :    0.020524
  12 C :   -0.026983
  13 H :    0.025048
  14 H :    0.001294
  15 H :    0.045510
  16 S :    0.101034
  17 C :   -0.128838
  18 C :    0.001372
  19 C :   -0.060998
  20 C :   -0.117913
  21 H :    0.001433
  22 C :    0.090552
  23 H :    0.006261
  24 H :   -0.000143
  25 C :   -0.021878
  26 H :    0.022201
  27 H :    0.021300
  28 C :   -0.060869
  29 H :    0.022687
  30 H :    0.029804
  31 H :    0.045625
  32 H :    0.062935
  33 H :    0.074677
Sum of atomic charges:   -0.0000000

LOEWDIN ATOMIC CHARGES
----------------------
   0 S :    0.411269
   1 C :   -0.197710
   2 C :   -0.065008
   3 C :   -0.069350
   4 C :   -0.204446
   5 H :    0.041480
   6 C :   -0.032886
   7 H :    0.042141
   8 H :    0.025435
   9 C :   -0.047533
  10 H :    0.027229
  11 H :    0.023858
  12 C :   -0.069668
  13 H :    0.021546
  14 H :    0.016318
  15 H :    0.037037
  16 S :    0.399860
  17 C :   -0.181136
  18 C :   -0.068393
  19 C :   -0.045545
  20 C :   -0.201913
  21 H :    0.025971
  22 C :   -0.031421
  23 H :    0.024498
  24 H :    0.026048
  25 C :   -0.026448
  26 H :    0.022131
  27 H :    0.018847
  28 C :   -0.068023
  29 H :    0.019270
  30 H :    0.026037
  31 H :    0.031067
  32 H :    0.032415
  33 H :    0.037024

  Mayer bond orders larger than 0.100000
B(  0-S ,  1-C ) :   1.1459 B(  0-S ,  4-C ) :   1.1675 B(  1-C ,  2-C ) :   1.5601
B(  1-C ,  4-C ) :   0.1046 B(  1-C , 32-H ) :   0.9679 B(  2-C ,  3-C ) :   1.2965
B(  2-C ,  6-C ) :   1.0299 B(  3-C ,  4-C ) :   1.5301 B(  3-C ,  5-H ) :   0.9672
B(  4-C , 20-C ) :   1.0185 B(  6-C ,  7-H ) :   0.9392 B(  6-C ,  8-H ) :   0.9370
B(  6-C ,  9-C ) :   1.0796 B(  9-C , 10-H ) :   0.9525 B(  9-C , 11-H ) :   0.9482
B(  9-C , 12-C ) :   1.1030 B( 12-C , 13-H ) :   0.9623 B( 12-C , 14-H ) :   0.9650
B( 12-C , 15-H ) :   0.9670 B( 16-S , 17-C ) :   1.1556 B( 16-S , 20-C ) :   1.1515
B( 17-C , 18-C ) :   1.6155 B( 17-C , 33-H ) :   0.9617 B( 18-C , 19-C ) :   1.2309
B( 18-C , 21-H ) :   1.0035 B( 19-C , 20-C ) :   1.5738 B( 19-C , 22-C ) :   1.0444
B( 22-C , 23-H ) :   0.9348 B( 22-C , 24-H ) :   0.9259 B( 22-C , 25-C ) :   1.0667
B( 25-C , 26-H ) :   0.9566 B( 25-C , 27-H ) :   0.9558 B( 25-C , 28-C ) :   1.0808
B( 28-C , 29-H ) :   0.9744 B( 28-C , 30-H ) :   0.9756 B( 28-C , 31-H ) :   0.9690

Dispersion correction           -0.015846088
FINAL SINGLE POINT ENERGY     -1339.875467881304

DIPOLE MOMENT
-------------
                                X             Y             Z
Electronic contribution:     -5.64111      16.05847      13.92960
Nuclear contribution   :      5.64601     -16.72512     -14.13060
                        -----------------------------------------
Total Dipole Moment    :      0.00490      -0.66665      -0.20100
                        -----------------------------------------
Magnitude (a.u.)       :      0.69631
Magnitude (Debye)      :      1.76987

Rotational constants in cm-1:     0.018340     0.009406     0.008714
Rotational constants in MHz :   549.827975   281.979631   261.230171

                             ****ORCA TERMINATED NORMALLY****
TOTAL RUN TIME: 0 days 0 hours 0 minutes 36 seconds 382 msec
