                         Program Version 4.2.1 -  RELEASE  -
|  1> ! wB97X-D3 SP def2-SVP
|  2> %pal
|  3> nprocs 16
|  4> end
|  5>
|  6> * xyz 0 1
|  7> S 	 -93.4672 	 54.2488 	 125.509
|  8> C 	 -92.3373 	 54.0376 	 126.864
|  9> C 	 -92.1296 	 52.6873 	 127.137
| 10> C 	 -92.7407 	 51.8381 	 126.136
| 11> C 	 -93.6184 	 52.4941 	 125.312
| 12> H 	 -92.6612 	 50.7951 	 126.045
| 13> C 	 -91.2668 	 52.1733 	 128.228
| 14> H 	 -90.5436 	 52.9619 	 128.397
| 15> H 	 -90.7225 	 51.3069 	 127.902
| 16> C 	 -91.9794 	 51.7196 	 129.549
| 17> H 	 -92.3386 	 52.6233 	 130.09
| 18> H 	 -92.9623 	 51.2408 	 129.308
| 19> C 	 -91.1589 	 50.7564 	 130.38
| 20> H 	 -90.2925 	 51.2096 	 130.759
| 21> H 	 -91.6955 	 50.3102 	 131.187
| 22> H 	 -90.7027 	 50.0418 	 129.716
| 23> S 	 -95.0976 	 52.5181 	 123.011
| 24> C 	 -96.6777 	 51.8671 	 122.881
| 25> C 	 -96.9486 	 51.108 	 124.056
| 26> C 	 -95.7651 	 50.9646 	 124.938
| 27> C 	 -94.7744 	 51.9273 	 124.638
| 28> H 	 -97.9511 	 50.7373 	 124.186
| 29> C 	 -95.7712 	 50.1441 	 126.195
| 30> H 	 -96.7438 	 50.1582 	 126.582
| 31> H 	 -95.2807 	 50.7919 	 126.985
| 32> C 	 -95.2724 	 48.6993 	 126.1
| 33> H 	 -95.1331 	 48.2977 	 127.112
| 34> H 	 -94.3306 	 48.7986 	 125.685
| 35> C 	 -96.1362 	 47.642 	 125.342
| 36> H 	 -97.1234 	 47.8429 	 125.793
| 37> H 	 -95.8262 	 46.5697 	 125.406
| 38> H 	 -96.1425 	 48.0711 	 124.288
| 39> H 	 -91.9945 	 54.8568 	 127.478
| 40> H 	 -97.3786 	 52.2395 	 122.133
| 41> *
| 42>
| 43>                          ****END OF INPUT****

CARTESIAN COORDINATES (ANGSTROEM)
---------------------------------
  S    -93.467200   54.248800  125.509000
  C    -92.337300   54.037600  126.864000
  C    -92.129600   52.687300  127.137000
  C    -92.740700   51.838100  126.136000
  C    -93.618400   52.494100  125.312000
  H    -92.661200   50.795100  126.045000
  C    -91.266800   52.173300  128.228000
  H    -90.543600   52.961900  128.397000
  H    -90.722500   51.306900  127.902000
  C    -91.979400   51.719600  129.549000
  H    -92.338600   52.623300  130.090000
  H    -92.962300   51.240800  129.308000
  C    -91.158900   50.756400  130.380000
  H    -90.292500   51.209600  130.759000
  H    -91.695500   50.310200  131.187000
  H    -90.702700   50.041800  129.716000
  S    -95.097600   52.518100  123.011000
  C    -96.677700   51.867100  122.881000
  C    -96.948600   51.108000  124.056000
  C    -95.765100   50.964600  124.938000
  C    -94.774400   51.927300  124.638000
  H    -97.951100   50.737300  124.186000
  C    -95.771200   50.144100  126.195000
  H    -96.743800   50.158200  126.582000
  H    -95.280700   50.791900  126.985000
  C    -95.272400   48.699300  126.100000
  H    -95.133100   48.297700  127.112000
  H    -94.330600   48.798600  125.685000
  C    -96.136200   47.642000  125.342000
  H    -97.123400   47.842900  125.793000
  H    -95.826200   46.569700  125.406000
  H    -96.142500   48.071100  124.288000
  H    -91.994500   54.856800  127.478000
  H    -97.378600   52.239500  122.133000

 Total Charge           Charge          ....    0
 Multiplicity           Mult            ....    1
 Number of Electrons    NEL             ....  134
 Basis Dimension        Dim             ....  322

ORBITAL ENERGIES
----------------

  NO   OCC          E(Eh)            E(eV)
   0   2.0000     -88.966638     -2420.9053
   1   2.0000     -88.959110     -2420.7004
   2   2.0000     -10.332677      -281.1664
   3   2.0000     -10.332245      -281.1547
   4   2.0000     -10.320654      -280.8393
   5   2.0000     -10.320427      -280.8331
   6   2.0000     -10.315120      -280.6887
   7   2.0000     -10.306415      -280.4518
   8   2.0000     -10.304783      -280.4074
   9   2.0000     -10.295223      -280.1473
  10   2.0000     -10.293578      -280.1025
  11   2.0000     -10.291666      -280.0505
  12   2.0000     -10.289562      -279.9932
  13   2.0000     -10.288359      -279.9605
  14   2.0000     -10.282257      -279.7944
  15   2.0000     -10.272903      -279.5399
  16   2.0000      -8.080789      -219.8894
  17   2.0000      -8.074717      -219.7242
  18   2.0000      -6.039375      -164.3397
  19   2.0000      -6.035423      -164.2322
  20   2.0000      -6.033140      -164.1701
  21   2.0000      -6.031412      -164.1231
  22   2.0000      -6.028907      -164.0549
  23   2.0000      -6.025698      -163.9676
  24   2.0000      -1.003990       -27.3200
  25   2.0000      -0.980184       -26.6722
  26   2.0000      -0.913387       -24.8545
  27   2.0000      -0.909706       -24.7544
  28   2.0000      -0.870921       -23.6990
  29   2.0000      -0.852392       -23.1948
  30   2.0000      -0.842199       -22.9174
  31   2.0000      -0.817205       -22.2373
  32   2.0000      -0.782705       -21.2985
  33   2.0000      -0.772060       -21.0088
  34   2.0000      -0.708806       -19.2876
  35   2.0000      -0.704730       -19.1767
  36   2.0000      -0.692122       -18.8336
  37   2.0000      -0.663863       -18.0646
  38   2.0000      -0.646582       -17.5944
  39   2.0000      -0.619823       -16.8662
  40   2.0000      -0.592644       -16.1267
  41   2.0000      -0.575673       -15.6649
  42   2.0000      -0.558220       -15.1899
  43   2.0000      -0.549760       -14.9597
  44   2.0000      -0.548147       -14.9158
  45   2.0000      -0.533637       -14.5210
  46   2.0000      -0.521291       -14.1851
  47   2.0000      -0.512425       -13.9438
  48   2.0000      -0.507325       -13.8050
  49   2.0000      -0.499439       -13.5904
  50   2.0000      -0.497377       -13.5343
  51   2.0000      -0.475970       -12.9518
  52   2.0000      -0.470318       -12.7980
  53   2.0000      -0.465903       -12.6779
  54   2.0000      -0.459586       -12.5060
  55   2.0000      -0.453115       -12.3299
  56   2.0000      -0.451236       -12.2787
  57   2.0000      -0.438690       -11.9374
  58   2.0000      -0.431073       -11.7301
  59   2.0000      -0.426186       -11.5971
  60   2.0000      -0.414138       -11.2693
  61   2.0000      -0.410876       -11.1805
  62   2.0000      -0.404737       -11.0135
  63   2.0000      -0.344668        -9.3789
  64   2.0000      -0.331630        -9.0241
  65   2.0000      -0.323198        -8.7947
  66   2.0000      -0.291942        -7.9442
  67   0.0000       0.018322         0.4986
  68   0.0000       0.067307         1.8315
  69   0.0000       0.104122         2.8333
  70   0.0000       0.116160         3.1609
  71   0.0000       0.126152         3.4328

MULLIKEN ATOMIC CHARGES
-----------------------
   0 S :    0.105464
   1 C :   -0.109195
   2 C :   -0.109246
   3 C :    0.040193
   4 C :   -0.104094
   5 H :   -0.002066
   6 C :    0.074965
   7 H :    0.025655
   8 H :    0.011451
   9 C :   -0.099077
  10 H :    0.028493
  11 H :    0.030911
  12 C :    0.009836
  13 H :    0.010909
  14 H :    0.038458
  15 H :    0.015595
  16 S :    0.087025
  17 C :   -0.102547
  18 C :   -0.043805
  19 C :   -0.043895
  20 C :   -0.158938
  21 H :    0.027321
  22 C :    0.028727
  23 H :   -0.001805
  24 H :    0.047630
  25 C :   -0.033245
  26 H :    0.026342
  27 H :    0.005972
  28 C :   -0.080795
  29 H :    0.029101
  30 H :    0.064164
  31 H :    0.050900
  32 H :    0.052739
  33 H :    0.076857
Sum of atomic charges:    0.0000000

LOEWDIN ATOMIC CHARGES
----------------------
   0 S :    0.388232
   1 C :   -0.183932
   2 C :   -0.059433
   3 C :   -0.049615
   4 C :   -0.189515
   5 H :    0.024212
   6 C :   -0.032215
   7 H :    0.031722
   8 H :    0.027016
   9 C :   -0.043052
  10 H :    0.024660
  11 H :    0.025917
  12 C :   -0.059871
  13 H :    0.019819
  14 H :    0.027299
  15 H :    0.025054
  16 S :    0.409226
  17 C :   -0.203525
  18 C :   -0.071479
  19 C :   -0.051977
  20 C :   -0.193525
  21 H :    0.029473
  22 C :   -0.041059
  23 H :    0.019448
  24 H :    0.046333
  25 C :   -0.037474
  26 H :    0.024594
  27 H :    0.006920
  28 C :   -0.073368
  29 H :    0.025342
  30 H :    0.035693
  31 H :    0.035663
  32 H :    0.028797
  33 H :    0.034620

  Mayer bond orders larger than 0.100000
B(  0-S ,  1-C ) :   1.1269 B(  0-S ,  4-C ) :   1.1357 B(  1-C ,  2-C ) :   1.6206
B(  1-C , 32-H ) :   0.9688 B(  2-C ,  3-C ) :   1.2077 B(  2-C ,  6-C ) :   1.0447
B(  3-C ,  4-C ) :   1.5755 B(  3-C ,  5-H ) :   1.0098 B(  4-C , 20-C ) :   1.0495
B(  6-C ,  7-H ) :   0.9383 B(  6-C ,  8-H ) :   0.9411 B(  6-C ,  9-C ) :   1.0424
B(  9-C , 10-H ) :   0.9520 B(  9-C , 11-H ) :   0.9614 B(  9-C , 12-C ) :   1.0795
B( 12-C , 13-H ) :   0.9706 B( 12-C , 14-H ) :   0.9737 B( 12-C , 15-H ) :   0.9704
B( 16-S , 17-C ) :   1.1708 B( 16-S , 20-C ) :   1.1459 B( 17-C , 18-C ) :   1.5837
B( 17-C , 20-C ) :   0.1004 B( 17-C , 33-H ) :   0.9671 B( 18-C , 19-C ) :   1.2242
B( 18-C , 21-H ) :   0.9928 B( 19-C , 20-C ) :   1.5570 B( 19-C , 22-C ) :   1.0484
B( 22-C , 23-H ) :   0.9321 B( 22-C , 24-H ) :   0.9359 B( 22-C , 25-C ) :   1.0574
B( 25-C , 26-H ) :   0.9535 B( 25-C , 27-H ) :   0.9547 B( 25-C , 28-C ) :   1.0624
B( 28-C , 29-H ) :   0.9763 B( 28-C , 30-H ) :   0.9740 B( 28-C , 31-H ) :   0.9753

Dispersion correction           -0.014456422
FINAL SINGLE POINT ENERGY     -1339.854260098833

DIPOLE MOMENT
-------------
                                X             Y             Z
Electronic contribution:     -3.62597      21.29116     -22.16894
Nuclear contribution   :      3.59336     -21.64653      22.89124
                        -----------------------------------------
Total Dipole Moment    :     -0.03261      -0.35537       0.72231
                        -----------------------------------------
Magnitude (a.u.)       :      0.80565
Magnitude (Debye)      :      2.04781

Rotational constants in cm-1:     0.017680     0.009252     0.006403
Rotational constants in MHz :   530.040345   277.365769   191.953005

                             ****ORCA TERMINATED NORMALLY****
TOTAL RUN TIME: 0 days 0 hours 0 minutes 33 seconds 884 msec
