                         Program Version 4.2.1 -  RELEASE  -
|  1> ! wB97X-D3 SP def2-SVP
|  2> %pal
|  3> nprocs 16
|  4> end
|  5>
|  6> * xyz 0 1
|  7> S 	 -92.5771 	 54.6291 	 122.365
|  8> C 	 -91.9862 	 53.9064 	 120.866
|  9> C 	 -93.0262 	 53.5542 	 120.075
| 10> C 	 -94.2796 	 54.0102 	 120.547
| 11> C 	 -94.2028 	 54.6119 	 121.791
| 12> H 	 -95.2052 	 53.6874 	 120.025
| 13> C 	 -92.8679 	 52.8339 	 118.778
| 14> H 	 -91.9435 	 53.1005 	 118.417
| 15> H 	 -93.61 	 53.2276 	 118.046
| 16> C 	 -93.0054 	 51.2685 	 118.794
| 17> H 	 -92.1284 	 51.018 	 119.39
| 18> H 	 -93.862 	 50.7834 	 119.334
| 19> C 	 -92.9536 	 50.6086 	 117.42
| 20> H 	 -93.9156 	 50.7794 	 116.93
| 21> H 	 -92.1663 	 50.9432 	 116.681
| 22> H 	 -93.0811 	 49.5499 	 117.472
| 23> S 	 -95.5229 	 57.1162 	 121.794
| 24> C 	 -96.5316 	 57.3458 	 123.201
| 25> C 	 -96.9736 	 56.1618 	 123.811
| 26> C 	 -96.1736 	 55.0795 	 123.406
| 27> C 	 -95.2672 	 55.4286 	 122.42
| 28> H 	 -97.7266 	 56.2115 	 124.643
| 29> C 	 -96.3779 	 53.659 	 123.943
| 30> H 	 -96.15 	 52.9336 	 123.181
| 31> H 	 -97.477 	 53.7373 	 124.155
| 32> C 	 -95.7227 	 53.3921 	 125.338
| 33> H 	 -96.0405 	 52.3618 	 125.594
| 34> H 	 -96.0689 	 54.0372 	 126.199
| 35> C 	 -94.1537 	 53.4306 	 125.139
| 36> H 	 -93.6394 	 52.777 	 125.867
| 37> H 	 -93.8073 	 54.47 	 125.138
| 38> H 	 -93.9509 	 52.9726 	 124.254
| 39> H 	 -90.9459 	 53.7143 	 120.621
| 40> H 	 -97.0425 	 58.3011 	 123.314
| 41> *
| 42>
| 43>                          ****END OF INPUT****

CARTESIAN COORDINATES (ANGSTROEM)
---------------------------------
  S    -92.577100   54.629100  122.365000
  C    -91.986200   53.906400  120.866000
  C    -93.026200   53.554200  120.075000
  C    -94.279600   54.010200  120.547000
  C    -94.202800   54.611900  121.791000
  H    -95.205200   53.687400  120.025000
  C    -92.867900   52.833900  118.778000
  H    -91.943500   53.100500  118.417000
  H    -93.610000   53.227600  118.046000
  C    -93.005400   51.268500  118.794000
  H    -92.128400   51.018000  119.390000
  H    -93.862000   50.783400  119.334000
  C    -92.953600   50.608600  117.420000
  H    -93.915600   50.779400  116.930000
  H    -92.166300   50.943200  116.681000
  H    -93.081100   49.549900  117.472000
  S    -95.522900   57.116200  121.794000
  C    -96.531600   57.345800  123.201000
  C    -96.973600   56.161800  123.811000
  C    -96.173600   55.079500  123.406000
  C    -95.267200   55.428600  122.420000
  H    -97.726600   56.211500  124.643000
  C    -96.377900   53.659000  123.943000
  H    -96.150000   52.933600  123.181000
  H    -97.477000   53.737300  124.155000
  C    -95.722700   53.392100  125.338000
  H    -96.040500   52.361800  125.594000
  H    -96.068900   54.037200  126.199000
  C    -94.153700   53.430600  125.139000
  H    -93.639400   52.777000  125.867000
  H    -93.807300   54.470000  125.138000
  H    -93.950900   52.972600  124.254000
  H    -90.945900   53.714300  120.621000
  H    -97.042500   58.301100  123.314000

 Total Charge           Charge          ....    0
 Multiplicity           Mult            ....    1
 Number of Electrons    NEL             ....  134
 Basis Dimension        Dim             ....  322

ORBITAL ENERGIES
----------------

  NO   OCC          E(Eh)            E(eV)
   0   2.0000     -88.965760     -2420.8814
   1   2.0000     -88.964852     -2420.8567
   2   2.0000     -10.326036      -280.9857
   3   2.0000     -10.325283      -280.9652
   4   2.0000     -10.318100      -280.7698
   5   2.0000     -10.310939      -280.5749
   6   2.0000     -10.301811      -280.3265
   7   2.0000     -10.298292      -280.2308
   8   2.0000     -10.295857      -280.1645
   9   2.0000     -10.294588      -280.1300
  10   2.0000     -10.293036      -280.0877
  11   2.0000     -10.292116      -280.0627
  12   2.0000     -10.291454      -280.0447
  13   2.0000     -10.287850      -279.9466
  14   2.0000     -10.281061      -279.7619
  15   2.0000     -10.266660      -279.3700
  16   2.0000      -8.079742      -219.8610
  17   2.0000      -8.079374      -219.8509
  18   2.0000      -6.038024      -164.3030
  19   2.0000      -6.037902      -164.2997
  20   2.0000      -6.034791      -164.2150
  21   2.0000      -6.033844      -164.1892
  22   2.0000      -6.030343      -164.0940
  23   2.0000      -6.030162      -164.0890
  24   2.0000      -1.004744       -27.3405
  25   2.0000      -0.982794       -26.7432
  26   2.0000      -0.910152       -24.7665
  27   2.0000      -0.901191       -24.5226
  28   2.0000      -0.864729       -23.5305
  29   2.0000      -0.846608       -23.0374
  30   2.0000      -0.844951       -22.9923
  31   2.0000      -0.808309       -21.9952
  32   2.0000      -0.785406       -21.3720
  33   2.0000      -0.769186       -20.9306
  34   2.0000      -0.703942       -19.1552
  35   2.0000      -0.701198       -19.0806
  36   2.0000      -0.689870       -18.7723
  37   2.0000      -0.657445       -17.8900
  38   2.0000      -0.636164       -17.3109
  39   2.0000      -0.616296       -16.7703
  40   2.0000      -0.593024       -16.1370
  41   2.0000      -0.565992       -15.4014
  42   2.0000      -0.555491       -15.1157
  43   2.0000      -0.540447       -14.7063
  44   2.0000      -0.539832       -14.6896
  45   2.0000      -0.527791       -14.3619
  46   2.0000      -0.517998       -14.0955
  47   2.0000      -0.506566       -13.7844
  48   2.0000      -0.501523       -13.6471
  49   2.0000      -0.491793       -13.3824
  50   2.0000      -0.480683       -13.0800
  51   2.0000      -0.477271       -12.9872
  52   2.0000      -0.470040       -12.7904
  53   2.0000      -0.461024       -12.5451
  54   2.0000      -0.456928       -12.4336
  55   2.0000      -0.452238       -12.3060
  56   2.0000      -0.447663       -12.1815
  57   2.0000      -0.441748       -12.0206
  58   2.0000      -0.437883       -11.9154
  59   2.0000      -0.424213       -11.5434
  60   2.0000      -0.417130       -11.3507
  61   2.0000      -0.408039       -11.1033
  62   2.0000      -0.406157       -11.0521
  63   2.0000      -0.334641        -9.1060
  64   2.0000      -0.327260        -8.9052
  65   2.0000      -0.319716        -8.6999
  66   2.0000      -0.305400        -8.3103
  67   0.0000       0.040900         1.1129
  68   0.0000       0.045429         1.2362
  69   0.0000       0.098086         2.6691
  70   0.0000       0.118641         3.2284
  71   0.0000       0.135612         3.6902

MULLIKEN ATOMIC CHARGES
-----------------------
   0 S :    0.116855
   1 C :   -0.132487
   2 C :   -0.089666
   3 C :    0.029769
   4 C :   -0.169844
   5 H :    0.028065
   6 C :    0.089901
   7 H :   -0.003566
   8 H :    0.021244
   9 C :   -0.076319
  10 H :    0.021492
  11 H :    0.038231
  12 C :   -0.047304
  13 H :    0.015840
  14 H :    0.049155
  15 H :    0.025148
  16 S :    0.116931
  17 C :   -0.102251
  18 C :   -0.053662
  19 C :   -0.016520
  20 C :   -0.177446
  21 H :    0.041527
  22 C :    0.047796
  23 H :    0.042380
  24 H :    0.032319
  25 C :   -0.089635
  26 H :    0.030657
  27 H :    0.044182
  28 C :   -0.025861
  29 H :    0.030207
  30 H :    0.053575
  31 H :    0.006328
  32 H :    0.045226
  33 H :    0.057731
Sum of atomic charges:    0.0000000

LOEWDIN ATOMIC CHARGES
----------------------
   0 S :    0.430068
   1 C :   -0.191627
   2 C :   -0.071510
   3 C :   -0.064573
   4 C :   -0.207809
   5 H :    0.039136
   6 C :   -0.024584
   7 H :    0.018523
   8 H :    0.030370
   9 C :   -0.043032
  10 H :    0.020535
  11 H :    0.032270
  12 C :   -0.078845
  13 H :    0.026410
  14 H :    0.033086
  15 H :    0.026230
  16 S :    0.382750
  17 C :   -0.177976
  18 C :   -0.078907
  19 C :   -0.054248
  20 C :   -0.188407
  21 H :    0.041869
  22 C :   -0.028062
  23 H :    0.030355
  24 H :    0.038692
  25 C :   -0.039186
  26 H :    0.023732
  27 H :    0.029030
  28 C :   -0.064355
  29 H :    0.028872
  30 H :    0.026457
  31 H :    0.001784
  32 H :    0.029620
  33 H :    0.023333

  Mayer bond orders larger than 0.100000
B(  0-S ,  1-C ) :   1.1348 B(  0-S ,  4-C ) :   1.1705 B(  1-C ,  2-C ) :   1.6121
B(  1-C , 32-H ) :   0.9680 B(  2-C ,  3-C ) :   1.2589 B(  2-C ,  6-C ) :   1.0301
B(  3-C ,  4-C ) :   1.5639 B(  3-C ,  5-H ) :   0.9900 B(  4-C , 20-C ) :   1.0079
B(  6-C ,  7-H ) :   0.9346 B(  6-C ,  8-H ) :   0.9436 B(  6-C ,  9-C ) :   1.0424
B(  9-C , 10-H ) :   0.9554 B(  9-C , 11-H ) :   0.9593 B(  9-C , 12-C ) :   1.0861
B( 12-C , 13-H ) :   0.9665 B( 12-C , 14-H ) :   0.9741 B( 12-C , 15-H ) :   0.9688
B( 16-S , 17-C ) :   1.1683 B( 16-S , 20-C ) :   1.1205 B( 17-C , 18-C ) :   1.6144
B( 17-C , 20-C ) :   0.1015 B( 17-C , 33-H ) :   0.9620 B( 18-C , 19-C ) :   1.2393
B( 18-C , 21-H ) :   0.9786 B( 19-C , 20-C ) :   1.6149 B( 19-C , 22-C ) :   1.0175
B( 22-C , 23-H ) :   0.9401 B( 22-C , 24-H ) :   0.9360 B( 22-C , 25-C ) :   1.0712
B( 25-C , 26-H ) :   0.9568 B( 25-C , 27-H ) :   0.9606 B( 25-C , 28-C ) :   1.0594
B( 28-C , 29-H ) :   0.9725 B( 28-C , 30-H ) :   0.9767 B( 28-C , 31-H ) :   0.9720

Dispersion correction           -0.015088374
FINAL SINGLE POINT ENERGY     -1339.855006614530

DIPOLE MOMENT
-------------
                                X             Y             Z
Electronic contribution:     -0.65340      22.26405       4.07288
Nuclear contribution   :      0.40499     -22.74627      -4.21846
                        -----------------------------------------
Total Dipole Moment    :     -0.24840      -0.48222      -0.14558
                        -----------------------------------------
Magnitude (a.u.)       :      0.56163
Magnitude (Debye)      :      1.42756

Rotational constants in cm-1:     0.021363     0.007805     0.007034
Rotational constants in MHz :   640.439814   233.974565   210.859865

                             ****ORCA TERMINATED NORMALLY****
TOTAL RUN TIME: 0 days 0 hours 0 minutes 32 seconds 130 msec
