                         Program Version 4.2.1 -  RELEASE  -
|  1> ! wB97X-D3 SP def2-SVP
|  2> %pal
|  3> nprocs 16
|  4> end
|  5>
|  6> * xyz 0 1
|  7> S 	 6.11777 	 -9.23525 	 89.6366
|  8> C 	 6.81016 	 -8.20414 	 90.8515
|  9> C 	 5.88316 	 -7.26754 	 91.3215
| 10> C 	 4.60407 	 -7.3778 	 90.7046
| 11> C 	 4.61063 	 -8.33474 	 89.7019
| 12> H 	 3.80321 	 -6.77297 	 90.9585
| 13> C 	 6.19172 	 -6.23264 	 92.3159
| 14> H 	 5.47679 	 -5.43803 	 92.1622
| 15> H 	 7.04982 	 -5.68808 	 91.9137
| 16> C 	 6.27375 	 -6.73104 	 93.7576
| 17> H 	 6.36699 	 -5.87359 	 94.4445
| 18> H 	 5.34148 	 -7.27094 	 93.9973
| 19> C 	 7.5406 	 -7.53482 	 94.0279
| 20> H 	 7.66531 	 -7.49163 	 95.0497
| 21> H 	 7.55808 	 -8.49568 	 93.5691
| 22> H 	 8.37584 	 -6.97126 	 93.6714
| 23> S 	 3.63655 	 -8.97968 	 87.2444
| 24> C 	 2.05455 	 -9.77286 	 87.1084
| 25> C 	 1.43656 	 -9.82635 	 88.3463
| 26> C 	 2.26264 	 -9.41322 	 89.4539
| 27> C 	 3.47642 	 -8.83652 	 89.0138
| 28> H 	 0.411635 	 -10.1863 	 88.3759
| 29> C 	 1.84261 	 -9.40684 	 90.907
| 30> H 	 0.755272 	 -9.30579 	 91.0779
| 31> H 	 2.32219 	 -8.55662 	 91.4213
| 32> C 	 2.26069 	 -10.7426 	 91.5783
| 33> H 	 3.28639 	 -11.0119 	 91.3791
| 34> H 	 1.74069 	 -11.4921 	 91.0344
| 35> C 	 2.03898 	 -10.7868 	 93.0624
| 36> H 	 2.72971 	 -10.0781 	 93.5683
| 37> H 	 2.1947 	 -11.7401 	 93.6212
| 38> H 	 1.04665 	 -10.536 	 93.4208
| 39> H 	 7.82484 	 -8.23528 	 91.1595
| 40> H 	 1.59787 	 -10.176 	 86.1669
| 41> *
| 42>
| 43>                          ****END OF INPUT****

CARTESIAN COORDINATES (ANGSTROEM)
---------------------------------
  S      6.117770   -9.235250   89.636600
  C      6.810160   -8.204140   90.851500
  C      5.883160   -7.267540   91.321500
  C      4.604070   -7.377800   90.704600
  C      4.610630   -8.334740   89.701900
  H      3.803210   -6.772970   90.958500
  C      6.191720   -6.232640   92.315900
  H      5.476790   -5.438030   92.162200
  H      7.049820   -5.688080   91.913700
  C      6.273750   -6.731040   93.757600
  H      6.366990   -5.873590   94.444500
  H      5.341480   -7.270940   93.997300
  C      7.540600   -7.534820   94.027900
  H      7.665310   -7.491630   95.049700
  H      7.558080   -8.495680   93.569100
  H      8.375840   -6.971260   93.671400
  S      3.636550   -8.979680   87.244400
  C      2.054550   -9.772860   87.108400
  C      1.436560   -9.826350   88.346300
  C      2.262640   -9.413220   89.453900
  C      3.476420   -8.836520   89.013800
  H      0.411635  -10.186300   88.375900
  C      1.842610   -9.406840   90.907000
  H      0.755272   -9.305790   91.077900
  H      2.322190   -8.556620   91.421300
  C      2.260690  -10.742600   91.578300
  H      3.286390  -11.011900   91.379100
  H      1.740690  -11.492100   91.034400
  C      2.038980  -10.786800   93.062400
  H      2.729710  -10.078100   93.568300
  H      2.194700  -11.740100   93.621200
  H      1.046650  -10.536000   93.420800
  H      7.824840   -8.235280   91.159500
  H      1.597870  -10.176000   86.166900

 Total Charge           Charge          ....    0
 Multiplicity           Mult            ....    1
 Number of Electrons    NEL             ....  134
 Basis Dimension        Dim             ....  322

ORBITAL ENERGIES
----------------

  NO   OCC          E(Eh)            E(eV)
   0   2.0000     -88.968567     -2420.9578
   1   2.0000     -88.963202     -2420.8118
   2   2.0000     -10.325940      -280.9831
   3   2.0000     -10.325431      -280.9693
   4   2.0000     -10.322830      -280.8985
   5   2.0000     -10.310726      -280.5691
   6   2.0000     -10.308917      -280.5199
   7   2.0000     -10.296706      -280.1876
   8   2.0000     -10.296326      -280.1773
   9   2.0000     -10.294035      -280.1149
  10   2.0000     -10.291103      -280.0352
  11   2.0000     -10.290023      -280.0058
  12   2.0000     -10.283820      -279.8370
  13   2.0000     -10.277885      -279.6755
  14   2.0000     -10.277262      -279.6585
  15   2.0000     -10.266517      -279.3661
  16   2.0000      -8.083150      -219.9537
  17   2.0000      -8.077136      -219.7900
  18   2.0000      -6.041581      -164.3998
  19   2.0000      -6.037636      -164.2924
  20   2.0000      -6.035684      -164.2393
  21   2.0000      -6.034030      -164.1943
  22   2.0000      -6.031685      -164.1305
  23   2.0000      -6.027962      -164.0292
  24   2.0000      -1.005479       -27.3605
  25   2.0000      -0.977842       -26.6084
  26   2.0000      -0.918649       -24.9977
  27   2.0000      -0.906790       -24.6750
  28   2.0000      -0.870240       -23.6804
  29   2.0000      -0.857552       -23.3352
  30   2.0000      -0.844868       -22.9900
  31   2.0000      -0.814747       -22.1704
  32   2.0000      -0.784904       -21.3583
  33   2.0000      -0.768145       -20.9023
  34   2.0000      -0.710735       -19.3401
  35   2.0000      -0.701332       -19.0842
  36   2.0000      -0.696029       -18.9399
  37   2.0000      -0.658670       -17.9233
  38   2.0000      -0.645553       -17.5664
  39   2.0000      -0.622674       -16.9438
  40   2.0000      -0.592903       -16.1337
  41   2.0000      -0.577644       -15.7185
  42   2.0000      -0.563808       -15.3420
  43   2.0000      -0.547912       -14.9094
  44   2.0000      -0.544323       -14.8118
  45   2.0000      -0.521580       -14.1929
  46   2.0000      -0.516637       -14.0584
  47   2.0000      -0.510632       -13.8950
  48   2.0000      -0.508401       -13.8343
  49   2.0000      -0.500507       -13.6195
  50   2.0000      -0.495111       -13.4726
  51   2.0000      -0.478534       -13.0216
  52   2.0000      -0.477239       -12.9863
  53   2.0000      -0.461693       -12.5633
  54   2.0000      -0.455467       -12.3939
  55   2.0000      -0.450324       -12.2539
  56   2.0000      -0.448676       -12.2091
  57   2.0000      -0.435729       -11.8568
  58   2.0000      -0.427720       -11.6389
  59   2.0000      -0.424533       -11.5521
  60   2.0000      -0.419421       -11.4130
  61   2.0000      -0.415076       -11.2948
  62   2.0000      -0.413645       -11.2558
  63   2.0000      -0.339865        -9.2482
  64   2.0000      -0.330888        -9.0039
  65   2.0000      -0.329088        -8.9550
  66   2.0000      -0.291231        -7.9248
  67   0.0000       0.026320         0.7162
  68   0.0000       0.063720         1.7339
  69   0.0000       0.110846         3.0163
  70   0.0000       0.119353         3.2478
  71   0.0000       0.126457         3.4411

MULLIKEN ATOMIC CHARGES
-----------------------
   0 S :    0.128982
   1 C :   -0.111842
   2 C :   -0.114254
   3 C :    0.048693
   4 C :   -0.117421
   5 H :   -0.005285
   6 C :    0.060929
   7 H :    0.002184
   8 H :    0.026594
   9 C :   -0.059944
  10 H :    0.027729
  11 H :    0.034491
  12 C :    0.004823
  13 H :    0.014219
  14 H :    0.042251
  15 H :    0.007617
  16 S :    0.093321
  17 C :   -0.114090
  18 C :   -0.037985
  19 C :   -0.006363
  20 C :   -0.189272
  21 H :    0.023247
  22 C :    0.052077
  23 H :    0.029251
  24 H :    0.018381
  25 C :   -0.041305
  26 H :    0.026962
  27 H :    0.010207
  28 C :   -0.045732
  29 H :    0.028859
  30 H :    0.034241
  31 H :    0.015222
  32 H :    0.035986
  33 H :    0.077227
Sum of atomic charges:   -0.0000000

LOEWDIN ATOMIC CHARGES
----------------------
   0 S :    0.420954
   1 C :   -0.199852
   2 C :   -0.059849
   3 C :   -0.046097
   4 C :   -0.197774
   5 H :    0.021902
   6 C :   -0.045775
   7 H :    0.027006
   8 H :    0.035104
   9 C :   -0.031332
  10 H :    0.026691
  11 H :    0.027622
  12 C :   -0.055084
  13 H :    0.019253
  14 H :    0.021754
  15 H :    0.022982
  16 S :    0.381477
  17 C :   -0.187336
  18 C :   -0.075800
  19 C :   -0.047416
  20 C :   -0.194650
  21 H :    0.033153
  22 C :   -0.028605
  23 H :    0.032778
  24 H :    0.028351
  25 C :   -0.039108
  26 H :    0.025969
  27 H :    0.018264
  28 C :   -0.075391
  29 H :    0.028225
  30 H :    0.031458
  31 H :    0.019104
  32 H :    0.019797
  33 H :    0.042224

  Mayer bond orders larger than 0.100000
B(  0-S ,  1-C ) :   1.1437 B(  0-S ,  4-C ) :   1.1596 B(  1-C ,  2-C ) :   1.5845
B(  1-C , 32-H ) :   0.9688 B(  2-C ,  3-C ) :   1.2659 B(  2-C ,  6-C ) :   1.0226
B(  3-C ,  4-C ) :   1.5336 B(  3-C ,  5-H ) :   1.0073 B(  4-C , 20-C ) :   1.0555
B(  6-C ,  7-H ) :   0.9327 B(  6-C ,  8-H ) :   0.9368 B(  6-C ,  9-C ) :   1.0651
B(  9-C , 10-H ) :   0.9553 B(  9-C , 11-H ) :   0.9527 B(  9-C , 12-C ) :   1.0871
B( 12-C , 13-H ) :   0.9695 B( 12-C , 14-H ) :   0.9704 B( 12-C , 15-H ) :   0.9684
B( 16-S , 17-C ) :   1.1461 B( 16-S , 20-C ) :   1.1326 B( 17-C , 18-C ) :   1.6184
B( 17-C , 20-C ) :   0.1031 B( 17-C , 33-H ) :   0.9605 B( 18-C , 19-C ) :   1.2296
B( 18-C , 21-H ) :   0.9869 B( 19-C , 20-C ) :   1.5755 B( 19-C , 22-C ) :   1.0455
B( 22-C , 23-H ) :   0.9383 B( 22-C , 24-H ) :   0.9394 B( 22-C , 25-C ) :   1.0452
B( 25-C , 26-H ) :   0.9559 B( 25-C , 27-H ) :   0.9546 B( 25-C , 28-C ) :   1.0810
B( 28-C , 29-H ) :   0.9725 B( 28-C , 30-H ) :   0.9728 B( 28-C , 31-H ) :   0.9718

Dispersion correction           -0.014886345
FINAL SINGLE POINT ENERGY     -1339.878816320723

DIPOLE MOMENT
-------------
                                X             Y             Z
Electronic contribution:      1.58953      -1.65923     -28.58482
Nuclear contribution   :     -1.78127       1.81800      29.20103
                        -----------------------------------------
Total Dipole Moment    :     -0.19174       0.15877       0.61622
                        -----------------------------------------
Magnitude (a.u.)       :      0.66460
Magnitude (Debye)      :      1.68929

Rotational constants in cm-1:     0.020287     0.009042     0.007099
Rotational constants in MHz :   608.174705   271.084619   212.826420

                             ****ORCA TERMINATED NORMALLY****
TOTAL RUN TIME: 0 days 0 hours 0 minutes 35 seconds 165 msec
