                         Program Version 4.2.1 -  RELEASE  -
|  1> ! wB97X-D3 SP def2-SVP
|  2> %pal
|  3> nprocs 16
|  4> end
|  5>
|  6> * xyz 0 1
|  7> S 	 -33.5056 	 62.3535 	 110.032
|  8> C 	 -34.6099 	 62.9098 	 111.27
|  9> C 	 -34.4064 	 64.1984 	 111.639
| 10> C 	 -33.2194 	 64.6981 	 111.05
| 11> C 	 -32.712 	 63.9218 	 110.045
| 12> H 	 -32.7194 	 65.642 	 111.128
| 13> C 	 -35.1852 	 64.9514 	 112.629
| 14> H 	 -34.5589 	 65.122 	 113.486
| 15> H 	 -35.8556 	 64.2594 	 113.027
| 16> C 	 -35.9041 	 66.2705 	 112.241
| 17> H 	 -36.3782 	 66.7531 	 113.085
| 18> H 	 -35.1769 	 66.9494 	 111.827
| 19> C 	 -37.0468 	 66.1481 	 111.204
| 20> H 	 -36.7948 	 65.9481 	 110.134
| 21> H 	 -37.8693 	 65.4836 	 111.545
| 22> H 	 -37.4078 	 67.1758 	 111.136
| 23> S 	 -30.2354 	 62.8383 	 109.026
| 24> C 	 -29.4752 	 63.9257 	 107.862
| 25> C 	 -30.0292 	 65.1738 	 107.73
| 26> C 	 -31.185 	 65.3502 	 108.576
| 27> C 	 -31.4645 	 64.1995 	 109.327
| 28> H 	 -29.597 	 65.8446 	 107.024
| 29> C 	 -32.0477 	 66.5483 	 108.456
| 30> H 	 -33.0026 	 66.4129 	 108.894
| 31> H 	 -32.1938 	 66.7951 	 107.367
| 32> C 	 -31.3913 	 67.8172 	 109.004
| 33> H 	 -32.0847 	 68.6607 	 108.881
| 34> H 	 -30.5419 	 68.0637 	 108.437
| 35> C 	 -30.9554 	 67.7353 	 110.55
| 36> H 	 -30.4415 	 66.7709 	 110.677
| 37> H 	 -31.8433 	 67.8396 	 111.233
| 38> H 	 -30.2639 	 68.5547 	 110.938
| 39> H 	 -35.4114 	 62.2983 	 111.659
| 40> H 	 -28.7237 	 63.5291 	 107.166
| 41> *
| 42>
| 43>                          ****END OF INPUT****

CARTESIAN COORDINATES (ANGSTROEM)
---------------------------------
  S    -33.505600   62.353500  110.032000
  C    -34.609900   62.909800  111.270000
  C    -34.406400   64.198400  111.639000
  C    -33.219400   64.698100  111.050000
  C    -32.712000   63.921800  110.045000
  H    -32.719400   65.642000  111.128000
  C    -35.185200   64.951400  112.629000
  H    -34.558900   65.122000  113.486000
  H    -35.855600   64.259400  113.027000
  C    -35.904100   66.270500  112.241000
  H    -36.378200   66.753100  113.085000
  H    -35.176900   66.949400  111.827000
  C    -37.046800   66.148100  111.204000
  H    -36.794800   65.948100  110.134000
  H    -37.869300   65.483600  111.545000
  H    -37.407800   67.175800  111.136000
  S    -30.235400   62.838300  109.026000
  C    -29.475200   63.925700  107.862000
  C    -30.029200   65.173800  107.730000
  C    -31.185000   65.350200  108.576000
  C    -31.464500   64.199500  109.327000
  H    -29.597000   65.844600  107.024000
  C    -32.047700   66.548300  108.456000
  H    -33.002600   66.412900  108.894000
  H    -32.193800   66.795100  107.367000
  C    -31.391300   67.817200  109.004000
  H    -32.084700   68.660700  108.881000
  H    -30.541900   68.063700  108.437000
  C    -30.955400   67.735300  110.550000
  H    -30.441500   66.770900  110.677000
  H    -31.843300   67.839600  111.233000
  H    -30.263900   68.554700  110.938000
  H    -35.411400   62.298300  111.659000
  H    -28.723700   63.529100  107.166000

 Total Charge           Charge          ....    0
 Multiplicity           Mult            ....    1
 Number of Electrons    NEL             ....  134
 Basis Dimension        Dim             ....  322

ORBITAL ENERGIES
----------------

  NO   OCC          E(Eh)            E(eV)
   0   2.0000     -88.968097     -2420.9450
   1   2.0000     -88.963316     -2420.8149
   2   2.0000     -10.334241      -281.2090
   3   2.0000     -10.323811      -280.9252
   4   2.0000     -10.321005      -280.8488
   5   2.0000     -10.309860      -280.5456
   6   2.0000     -10.308400      -280.5058
   7   2.0000     -10.295637      -280.1585
   8   2.0000     -10.294367      -280.1240
   9   2.0000     -10.292203      -280.0651
  10   2.0000     -10.290262      -280.0123
  11   2.0000     -10.290191      -280.0103
  12   2.0000     -10.289680      -279.9964
  13   2.0000     -10.284839      -279.8647
  14   2.0000     -10.281586      -279.7762
  15   2.0000     -10.281267      -279.7675
  16   2.0000      -8.081153      -219.8993
  17   2.0000      -8.078156      -219.8178
  18   2.0000      -6.039688      -164.3483
  19   2.0000      -6.036625      -164.2649
  20   2.0000      -6.036233      -164.2542
  21   2.0000      -6.032832      -164.1617
  22   2.0000      -6.031646      -164.1294
  23   2.0000      -6.028764      -164.0510
  24   2.0000      -1.004272       -27.3276
  25   2.0000      -0.979203       -26.6455
  26   2.0000      -0.912362       -24.8266
  27   2.0000      -0.909771       -24.7561
  28   2.0000      -0.868005       -23.6196
  29   2.0000      -0.849657       -23.1203
  30   2.0000      -0.840684       -22.8762
  31   2.0000      -0.814625       -22.1671
  32   2.0000      -0.785753       -21.3814
  33   2.0000      -0.773532       -21.0489
  34   2.0000      -0.711682       -19.3659
  35   2.0000      -0.698617       -19.0103
  36   2.0000      -0.693441       -18.8695
  37   2.0000      -0.655065       -17.8252
  38   2.0000      -0.644366       -17.5341
  39   2.0000      -0.620342       -16.8804
  40   2.0000      -0.599814       -16.3218
  41   2.0000      -0.567085       -15.4312
  42   2.0000      -0.552432       -15.0324
  43   2.0000      -0.547709       -14.9039
  44   2.0000      -0.545893       -14.8545
  45   2.0000      -0.540692       -14.7130
  46   2.0000      -0.517844       -14.0912
  47   2.0000      -0.511437       -13.9169
  48   2.0000      -0.494103       -13.4452
  49   2.0000      -0.488948       -13.3049
  50   2.0000      -0.487233       -13.2583
  51   2.0000      -0.478715       -13.0265
  52   2.0000      -0.470669       -12.8075
  53   2.0000      -0.460615       -12.5340
  54   2.0000      -0.458614       -12.4795
  55   2.0000      -0.450158       -12.2494
  56   2.0000      -0.442062       -12.0291
  57   2.0000      -0.438243       -11.9252
  58   2.0000      -0.431381       -11.7385
  59   2.0000      -0.427822       -11.6416
  60   2.0000      -0.424214       -11.5435
  61   2.0000      -0.422437       -11.4951
  62   2.0000      -0.415065       -11.2945
  63   2.0000      -0.348142        -9.4734
  64   2.0000      -0.334092        -9.0911
  65   2.0000      -0.328299        -8.9335
  66   2.0000      -0.288520        -7.8510
  67   0.0000       0.024877         0.6769
  68   0.0000       0.072684         1.9778
  69   0.0000       0.100071         2.7231
  70   0.0000       0.117794         3.2053
  71   0.0000       0.128901         3.5076

MULLIKEN ATOMIC CHARGES
-----------------------
   0 S :    0.101364
   1 C :   -0.126487
   2 C :   -0.066988
   3 C :    0.031665
   4 C :   -0.156459
   5 H :   -0.027235
   6 C :    0.131829
   7 H :    0.026312
   8 H :   -0.020523
   9 C :   -0.056920
  10 H :    0.031851
  11 H :    0.024251
  12 C :   -0.082386
  13 H :    0.046012
  14 H :    0.040042
  15 H :    0.025559
  16 S :    0.090538
  17 C :   -0.101576
  18 C :   -0.013926
  19 C :   -0.053613
  20 C :   -0.138036
  21 H :    0.014890
  22 C :    0.082098
  23 H :    0.021910
  24 H :    0.042528
  25 C :   -0.067887
  26 H :    0.031365
  27 H :    0.020906
  28 C :   -0.120026
  29 H :    0.061367
  30 H :    0.050950
  31 H :    0.047194
  32 H :    0.043172
  33 H :    0.066258
Sum of atomic charges:    0.0000000

LOEWDIN ATOMIC CHARGES
----------------------
   0 S :    0.392856
   1 C :   -0.187042
   2 C :   -0.065626
   3 C :   -0.058261
   4 C :   -0.187288
   5 H :    0.025888
   6 C :   -0.033473
   7 H :    0.036190
   8 H :    0.020211
   9 C :   -0.033021
  10 H :    0.028246
  11 H :    0.021385
  12 C :   -0.074414
  13 H :    0.029374
  14 H :    0.026722
  15 H :    0.026894
  16 S :    0.346512
  17 C :   -0.169300
  18 C :   -0.068692
  19 C :   -0.047334
  20 C :   -0.166273
  21 H :    0.030508
  22 C :   -0.030823
  23 H :    0.023900
  24 H :    0.044299
  25 C :   -0.032209
  26 H :    0.025249
  27 H :    0.014070
  28 C :   -0.084765
  29 H :    0.028333
  30 H :    0.025879
  31 H :    0.034423
  32 H :    0.026376
  33 H :    0.031207

  Mayer bond orders larger than 0.100000
B(  0-S ,  1-C ) :   1.1325 B(  0-S ,  4-C ) :   1.1276 B(  1-C ,  2-C ) :   1.6277
B(  1-C , 32-H ) :   0.9605 B(  2-C ,  3-C ) :   1.1970 B(  2-C ,  6-C ) :   1.0386
B(  3-C ,  4-C ) :   1.5965 B(  3-C ,  5-H ) :   0.9882 B(  4-C , 20-C ) :   1.0686
B(  6-C ,  7-H ) :   0.9261 B(  6-C ,  8-H ) :   0.9227 B(  6-C ,  9-C ) :   1.0679
B(  9-C , 10-H ) :   0.9557 B(  9-C , 11-H ) :   0.9572 B(  9-C , 12-C ) :   1.0757
B( 12-C , 13-H ) :   0.9759 B( 12-C , 14-H ) :   0.9761 B( 12-C , 15-H ) :   0.9730
B( 16-S , 17-C ) :   1.1351 B( 16-S , 20-C ) :   1.0977 B( 17-C , 18-C ) :   1.6663
B( 17-C , 33-H ) :   0.9583 B( 18-C , 19-C ) :   1.1843 B( 18-C , 21-H ) :   0.9945
B( 19-C , 20-C ) :   1.6136 B( 19-C , 22-C ) :   1.0639 B( 22-C , 23-H ) :   0.9250
B( 22-C , 24-H ) :   0.9330 B( 22-C , 25-C ) :   1.0650 B( 25-C , 26-H ) :   0.9580
B( 25-C , 27-H ) :   0.9616 B( 25-C , 28-C ) :   1.0631 B( 28-C , 29-H ) :   0.9685
B( 28-C , 30-H ) :   0.9655 B( 28-C , 31-H ) :   0.9732

Dispersion correction           -0.015250868
FINAL SINGLE POINT ENERGY     -1339.875292795067

DIPOLE MOMENT
-------------
                                X             Y             Z
Electronic contribution:     12.60244     -25.93210      -7.45433
Nuclear contribution   :    -12.81923      26.63190       7.43269
                        -----------------------------------------
Total Dipole Moment    :     -0.21679       0.69979      -0.02164
                        -----------------------------------------
Magnitude (a.u.)       :      0.73292
Magnitude (Debye)      :      1.86294

Rotational constants in cm-1:     0.019081     0.009819     0.007148
Rotational constants in MHz :   572.036166   294.379848   214.280395

                             ****ORCA TERMINATED NORMALLY****
TOTAL RUN TIME: 0 days 0 hours 0 minutes 28 seconds 868 msec
