                         Program Version 4.2.1 -  RELEASE  -
|  1> ! wB97X-D3 SP def2-SVP
|  2> %pal
|  3> nprocs 16
|  4> end
|  5>
|  6> * xyz 0 1
|  7> S 	 -36.4448 	 74.0236 	 153.073
|  8> C 	 -35.4081 	 75.4445 	 152.821
|  9> C 	 -34.2699 	 75.0307 	 152.146
| 10> C 	 -34.1855 	 73.5998 	 151.969
| 11> C 	 -35.2437 	 72.9417 	 152.57
| 12> H 	 -33.4363 	 73.012 	 151.472
| 13> C 	 -33.4299 	 75.8858 	 151.215
| 14> H 	 -32.6911 	 75.2554 	 150.764
| 15> H 	 -32.9411 	 76.7339 	 151.741
| 16> C 	 -34.2276 	 76.3617 	 149.931
| 17> H 	 -34.4509 	 75.4607 	 149.439
| 18> H 	 -35.1547 	 76.8012 	 150.301
| 19> C 	 -33.4063 	 77.3313 	 149.076
| 20> H 	 -32.4551 	 76.9519 	 148.885
| 21> H 	 -34.0786 	 77.5198 	 148.314
| 22> H 	 -33.296 	 78.3674 	 149.388
| 23> S 	 -35.2375 	 70.5893 	 151.105
| 24> C 	 -35.2904 	 69.0375 	 151.882
| 25> C 	 -35.383 	 69.17 	 153.223
| 26> C 	 -35.4957 	 70.5713 	 153.663
| 27> C 	 -35.3471 	 71.4554 	 152.627
| 28> H 	 -35.4044 	 68.2689 	 153.808
| 29> C 	 -35.5851 	 70.9036 	 155.16
| 30> H 	 -36.26 	 70.1519 	 155.623
| 31> H 	 -36.1242 	 71.9299 	 155.144
| 32> C 	 -34.1735 	 71.0496 	 155.954
| 33> H 	 -33.6632 	 71.7951 	 155.398
| 34> H 	 -33.5871 	 70.1888 	 155.814
| 35> C 	 -34.201 	 71.5438 	 157.447
| 36> H 	 -33.1948 	 71.5811 	 157.898
| 37> H 	 -34.7497 	 70.8498 	 158.104
| 38> H 	 -34.6997 	 72.5249 	 157.548
| 39> H 	 -35.7493 	 76.5072 	 152.864
| 40> H 	 -35.0683 	 68.211 	 151.261
| 41> *
| 42>
| 43>                          ****END OF INPUT****

CARTESIAN COORDINATES (ANGSTROEM)
---------------------------------
  S    -36.444800   74.023600  153.073000
  C    -35.408100   75.444500  152.821000
  C    -34.269900   75.030700  152.146000
  C    -34.185500   73.599800  151.969000
  C    -35.243700   72.941700  152.570000
  H    -33.436300   73.012000  151.472000
  C    -33.429900   75.885800  151.215000
  H    -32.691100   75.255400  150.764000
  H    -32.941100   76.733900  151.741000
  C    -34.227600   76.361700  149.931000
  H    -34.450900   75.460700  149.439000
  H    -35.154700   76.801200  150.301000
  C    -33.406300   77.331300  149.076000
  H    -32.455100   76.951900  148.885000
  H    -34.078600   77.519800  148.314000
  H    -33.296000   78.367400  149.388000
  S    -35.237500   70.589300  151.105000
  C    -35.290400   69.037500  151.882000
  C    -35.383000   69.170000  153.223000
  C    -35.495700   70.571300  153.663000
  C    -35.347100   71.455400  152.627000
  H    -35.404400   68.268900  153.808000
  C    -35.585100   70.903600  155.160000
  H    -36.260000   70.151900  155.623000
  H    -36.124200   71.929900  155.144000
  C    -34.173500   71.049600  155.954000
  H    -33.663200   71.795100  155.398000
  H    -33.587100   70.188800  155.814000
  C    -34.201000   71.543800  157.447000
  H    -33.194800   71.581100  157.898000
  H    -34.749700   70.849800  158.104000
  H    -34.699700   72.524900  157.548000
  H    -35.749300   76.507200  152.864000
  H    -35.068300   68.211000  151.261000

 Total Charge           Charge          ....    0
 Multiplicity           Mult            ....    1
 Number of Electrons    NEL             ....  134
 Basis Dimension        Dim             ....  322

ORBITAL ENERGIES
----------------

  NO   OCC          E(Eh)            E(eV)
   0   2.0000     -88.970127     -2421.0002
   1   2.0000     -88.959654     -2420.7152
   2   2.0000     -10.329736      -281.0864
   3   2.0000     -10.329227      -281.0726
   4   2.0000     -10.320176      -280.8263
   5   2.0000     -10.312920      -280.6288
   6   2.0000     -10.307904      -280.4923
   7   2.0000     -10.303605      -280.3753
   8   2.0000     -10.303446      -280.3710
   9   2.0000     -10.295124      -280.1446
  10   2.0000     -10.292612      -280.0762
  11   2.0000     -10.289183      -279.9829
  12   2.0000     -10.285397      -279.8799
  13   2.0000     -10.284573      -279.8575
  14   2.0000     -10.283064      -279.8164
  15   2.0000     -10.268907      -279.4312
  16   2.0000      -8.084910      -220.0016
  17   2.0000      -8.075239      -219.7384
  18   2.0000      -6.043465      -164.4511
  19   2.0000      -6.039382      -164.3399
  20   2.0000      -6.035621      -164.2376
  21   2.0000      -6.033826      -164.1888
  22   2.0000      -6.029608      -164.0740
  23   2.0000      -6.025887      -163.9727
  24   2.0000      -1.009309       -27.4647
  25   2.0000      -0.987339       -26.8669
  26   2.0000      -0.910647       -24.7800
  27   2.0000      -0.890067       -24.2200
  28   2.0000      -0.869814       -23.6689
  29   2.0000      -0.852033       -23.1850
  30   2.0000      -0.842851       -22.9351
  31   2.0000      -0.815192       -22.1825
  32   2.0000      -0.781934       -21.2775
  33   2.0000      -0.769186       -20.9306
  34   2.0000      -0.706665       -19.2293
  35   2.0000      -0.704033       -19.1577
  36   2.0000      -0.692182       -18.8352
  37   2.0000      -0.665853       -18.1188
  38   2.0000      -0.641138       -17.4463
  39   2.0000      -0.611951       -16.6520
  40   2.0000      -0.589507       -16.0413
  41   2.0000      -0.578820       -15.7505
  42   2.0000      -0.559701       -15.2302
  43   2.0000      -0.551014       -14.9939
  44   2.0000      -0.530818       -14.4443
  45   2.0000      -0.521518       -14.1912
  46   2.0000      -0.516015       -14.0415
  47   2.0000      -0.512374       -13.9424
  48   2.0000      -0.507264       -13.8033
  49   2.0000      -0.498088       -13.5537
  50   2.0000      -0.488301       -13.2874
  51   2.0000      -0.485449       -13.2097
  52   2.0000      -0.474369       -12.9082
  53   2.0000      -0.464413       -12.6373
  54   2.0000      -0.460080       -12.5194
  55   2.0000      -0.446634       -12.1535
  56   2.0000      -0.443960       -12.0808
  57   2.0000      -0.433870       -11.8062
  58   2.0000      -0.428573       -11.6621
  59   2.0000      -0.421232       -11.4623
  60   2.0000      -0.418122       -11.3777
  61   2.0000      -0.415992       -11.3197
  62   2.0000      -0.410927       -11.1819
  63   2.0000      -0.344190        -9.3659
  64   2.0000      -0.329400        -8.9634
  65   2.0000      -0.325891        -8.8680
  66   2.0000      -0.302918        -8.2428
  67   0.0000       0.033737         0.9180
  68   0.0000       0.070672         1.9231
  69   0.0000       0.101690         2.7671
  70   0.0000       0.121089         3.2950
  71   0.0000       0.125321         3.4102

MULLIKEN ATOMIC CHARGES
-----------------------
   0 S :    0.121627
   1 C :   -0.144961
   2 C :   -0.056614
   3 C :    0.001838
   4 C :   -0.130715
   5 H :    0.014114
   6 C :    0.023246
   7 H :    0.013003
   8 H :    0.037271
   9 C :   -0.072889
  10 H :    0.022020
  11 H :    0.019192
  12 C :    0.023454
  13 H :    0.025815
  14 H :    0.015011
  15 H :    0.020762
  16 S :    0.080575
  17 C :   -0.082908
  18 C :   -0.019556
  19 C :   -0.050241
  20 C :   -0.158476
  21 H :    0.019732
  22 C :    0.021638
  23 H :    0.036078
  24 H :    0.034766
  25 C :   -0.025740
  26 H :    0.022855
  27 H :    0.016099
  28 C :   -0.066775
  29 H :    0.041619
  30 H :    0.028575
  31 H :    0.042912
  32 H :    0.073642
  33 H :    0.053028
Sum of atomic charges:   -0.0000000

LOEWDIN ATOMIC CHARGES
----------------------
   0 S :    0.430907
   1 C :   -0.204163
   2 C :   -0.061854
   3 C :   -0.068216
   4 C :   -0.209866
   5 H :    0.028049
   6 C :   -0.034521
   7 H :    0.022022
   8 H :    0.029544
   9 C :   -0.022399
  10 H :    0.019337
  11 H :    0.019267
  12 C :   -0.058090
  13 H :    0.018787
  14 H :    0.024501
  15 H :    0.029637
  16 S :    0.396791
  17 C :   -0.175694
  18 C :   -0.069029
  19 C :   -0.060504
  20 C :   -0.193314
  21 H :    0.031802
  22 C :   -0.038356
  23 H :    0.029653
  24 H :    0.032764
  25 C :   -0.031859
  26 H :    0.023134
  27 H :    0.015789
  28 C :   -0.070351
  29 H :    0.031347
  30 H :    0.022966
  31 H :    0.029972
  32 H :    0.040146
  33 H :    0.021802

  Mayer bond orders larger than 0.100000
B(  0-S ,  1-C ) :   1.1311 B(  0-S ,  4-C ) :   1.1824 B(  1-C ,  2-C ) :   1.5937
B(  1-C , 32-H ) :   0.9659 B(  2-C ,  3-C ) :   1.2414 B(  2-C ,  6-C ) :   1.0414
B(  3-C ,  4-C ) :   1.5533 B(  3-C ,  5-H ) :   0.9981 B(  4-C , 20-C ) :   0.9992
B(  6-C ,  7-H ) :   0.9477 B(  6-C ,  8-H ) :   0.9432 B(  6-C ,  9-C ) :   1.0472
B(  9-C , 10-H ) :   0.9591 B(  9-C , 11-H ) :   0.9590 B(  9-C , 12-C ) :   1.0783
B( 12-C , 13-H ) :   0.9749 B( 12-C , 14-H ) :   0.9667 B( 12-C , 15-H ) :   0.9710
B( 16-S , 17-C ) :   1.1470 B( 16-S , 20-C ) :   1.1378 B( 17-C , 18-C ) :   1.6312
B( 17-C , 33-H ) :   0.9737 B( 18-C , 19-C ) :   1.1946 B( 18-C , 21-H ) :   0.9971
B( 19-C , 20-C ) :   1.6365 B( 19-C , 22-C ) :   1.0488 B( 22-C , 23-H ) :   0.9384
B( 22-C , 24-H ) :   0.9320 B( 22-C , 25-C ) :   1.0421 B( 25-C , 26-H ) :   0.9564
B( 25-C , 27-H ) :   0.9608 B( 25-C , 28-C ) :   1.0762 B( 28-C , 29-H ) :   0.9744
B( 28-C , 30-H ) :   0.9780 B( 28-C , 31-H ) :   0.9765

Dispersion correction           -0.014005876
FINAL SINGLE POINT ENERGY     -1339.858704894624

DIPOLE MOMENT
-------------
                                X             Y             Z
Electronic contribution:    -11.16348     -11.35933      -5.74242
Nuclear contribution   :     11.47120      11.43946       5.64418
                        -----------------------------------------
Total Dipole Moment    :      0.30771       0.08014      -0.09824
                        -----------------------------------------
Magnitude (a.u.)       :      0.33281
Magnitude (Debye)      :      0.84593

Rotational constants in cm-1:     0.019888     0.007790     0.006350
Rotational constants in MHz :   596.231660   233.547590   190.360274

                             ****ORCA TERMINATED NORMALLY****
TOTAL RUN TIME: 0 days 0 hours 0 minutes 32 seconds 841 msec
