                         Program Version 4.2.1 -  RELEASE  -
|  1> ! wB97X-D3 SP def2-SVP
|  2> %pal
|  3> nprocs 16
|  4> end
|  5>
|  6> * xyz 0 1
|  7> S 	 -43.9942 	 18.7188 	 76.0595
|  8> C 	 -42.3822 	 19.4653 	 76.2635
|  9> C 	 -41.4463 	 18.8632 	 75.4024
| 10> C 	 -42.0832 	 17.8241 	 74.609
| 11> C 	 -43.4423 	 17.6263 	 74.8025
| 12> H 	 -41.6604 	 17.1862 	 73.8683
| 13> C 	 -40.078 	 19.4279 	 75.1077
| 14> H 	 -40.1401 	 20.5199 	 75.4646
| 15> H 	 -39.9459 	 19.451 	 74.0074
| 16> C 	 -38.9564 	 18.6185 	 75.7814
| 17> H 	 -39.1276 	 18.4835 	 76.8404
| 18> H 	 -38.9557 	 17.5535 	 75.4397
| 19> C 	 -37.5777 	 19.2503 	 75.6933
| 20> H 	 -36.7312 	 18.6894 	 76.0483
| 21> H 	 -37.5045 	 19.3401 	 74.6277
| 22> H 	 -37.4999 	 20.2306 	 76.1819
| 23> S 	 -45.9284 	 16.342 	 74.9318
| 24> C 	 -46.3464 	 15.2308 	 73.6521
| 25> C 	 -45.393 	 15.2406 	 72.6325
| 26> C 	 -44.2004 	 15.9963 	 72.9974
| 27> C 	 -44.3115 	 16.669 	 74.2414
| 28> H 	 -45.5472 	 14.7353 	 71.6664
| 29> C 	 -43.1308 	 16.2452 	 72.0342
| 30> H 	 -42.2824 	 15.6654 	 72.3377
| 31> H 	 -42.8039 	 17.2935 	 72.1824
| 32> C 	 -43.4296 	 16.0221 	 70.5272
| 33> H 	 -44.0368 	 16.872 	 70.1563
| 34> H 	 -43.9533 	 15.0332 	 70.3967
| 35> C 	 -42.1826 	 15.8958 	 69.5933
| 36> H 	 -42.5479 	 15.6917 	 68.581
| 37> H 	 -41.505 	 15.1251 	 69.9539
| 38> H 	 -41.5783 	 16.8359 	 69.6741
| 39> H 	 -42.1906 	 20.3389 	 76.916
| 40> H 	 -47.2142 	 14.6136 	 73.6801
| 41> *
| 42>
| 43>                          ****END OF INPUT****

CARTESIAN COORDINATES (ANGSTROEM)
---------------------------------
  S    -43.994200   18.718800   76.059500
  C    -42.382200   19.465300   76.263500
  C    -41.446300   18.863200   75.402400
  C    -42.083200   17.824100   74.609000
  C    -43.442300   17.626300   74.802500
  H    -41.660400   17.186200   73.868300
  C    -40.078000   19.427900   75.107700
  H    -40.140100   20.519900   75.464600
  H    -39.945900   19.451000   74.007400
  C    -38.956400   18.618500   75.781400
  H    -39.127600   18.483500   76.840400
  H    -38.955700   17.553500   75.439700
  C    -37.577700   19.250300   75.693300
  H    -36.731200   18.689400   76.048300
  H    -37.504500   19.340100   74.627700
  H    -37.499900   20.230600   76.181900
  S    -45.928400   16.342000   74.931800
  C    -46.346400   15.230800   73.652100
  C    -45.393000   15.240600   72.632500
  C    -44.200400   15.996300   72.997400
  C    -44.311500   16.669000   74.241400
  H    -45.547200   14.735300   71.666400
  C    -43.130800   16.245200   72.034200
  H    -42.282400   15.665400   72.337700
  H    -42.803900   17.293500   72.182400
  C    -43.429600   16.022100   70.527200
  H    -44.036800   16.872000   70.156300
  H    -43.953300   15.033200   70.396700
  C    -42.182600   15.895800   69.593300
  H    -42.547900   15.691700   68.581000
  H    -41.505000   15.125100   69.953900
  H    -41.578300   16.835900   69.674100
  H    -42.190600   20.338900   76.916000
  H    -47.214200   14.613600   73.680100

 Total Charge           Charge          ....    0
 Multiplicity           Mult            ....    1
 Number of Electrons    NEL             ....  134
 Basis Dimension        Dim             ....  322

ORBITAL ENERGIES
----------------

  NO   OCC          E(Eh)            E(eV)
   0   2.0000     -88.968518     -2420.9564
   1   2.0000     -88.964095     -2420.8361
   2   2.0000     -10.331000      -281.1208
   3   2.0000     -10.330203      -281.0991
   4   2.0000     -10.322895      -280.9003
   5   2.0000     -10.321560      -280.8639
   6   2.0000     -10.309305      -280.5305
   7   2.0000     -10.308416      -280.5062
   8   2.0000     -10.304522      -280.4003
   9   2.0000     -10.301646      -280.3220
  10   2.0000     -10.298272      -280.2302
  11   2.0000     -10.293959      -280.1129
  12   2.0000     -10.291218      -280.0383
  13   2.0000     -10.287237      -279.9299
  14   2.0000     -10.287210      -279.9292
  15   2.0000     -10.273957      -279.5686
  16   2.0000      -8.082556      -219.9375
  17   2.0000      -8.078310      -219.8220
  18   2.0000      -6.041233      -164.3903
  19   2.0000      -6.037154      -164.2793
  20   2.0000      -6.036975      -164.2745
  21   2.0000      -6.033200      -164.1717
  22   2.0000      -6.032927      -164.1643
  23   2.0000      -6.028899      -164.0547
  24   2.0000      -1.004148       -27.3242
  25   2.0000      -0.976650       -26.5760
  26   2.0000      -0.913236       -24.8504
  27   2.0000      -0.911989       -24.8165
  28   2.0000      -0.874281       -23.7904
  29   2.0000      -0.853986       -23.2381
  30   2.0000      -0.841156       -22.8890
  31   2.0000      -0.814698       -22.1691
  32   2.0000      -0.784033       -21.3346
  33   2.0000      -0.768989       -20.9252
  34   2.0000      -0.709385       -19.3034
  35   2.0000      -0.704030       -19.1576
  36   2.0000      -0.696801       -18.9609
  37   2.0000      -0.653525       -17.7833
  38   2.0000      -0.640404       -17.4263
  39   2.0000      -0.618488       -16.8299
  40   2.0000      -0.599305       -16.3079
  41   2.0000      -0.573413       -15.6034
  42   2.0000      -0.569519       -15.4974
  43   2.0000      -0.555279       -15.1099
  44   2.0000      -0.534411       -14.5421
  45   2.0000      -0.528500       -14.3812
  46   2.0000      -0.518887       -14.1196
  47   2.0000      -0.513837       -13.9822
  48   2.0000      -0.511531       -13.9195
  49   2.0000      -0.505335       -13.7509
  50   2.0000      -0.492851       -13.4112
  51   2.0000      -0.476879       -12.9765
  52   2.0000      -0.469560       -12.7774
  53   2.0000      -0.466536       -12.6951
  54   2.0000      -0.460325       -12.5261
  55   2.0000      -0.454358       -12.3637
  56   2.0000      -0.445875       -12.1329
  57   2.0000      -0.433910       -11.8073
  58   2.0000      -0.433014       -11.7829
  59   2.0000      -0.429311       -11.6822
  60   2.0000      -0.415654       -11.3105
  61   2.0000      -0.413091       -11.2408
  62   2.0000      -0.407118       -11.0782
  63   2.0000      -0.363012        -9.8781
  64   2.0000      -0.331098        -9.0096
  65   2.0000      -0.326641        -8.8883
  66   2.0000      -0.277810        -7.5596
  67   0.0000       0.014162         0.3854
  68   0.0000       0.078466         2.1352
  69   0.0000       0.092583         2.5193
  70   0.0000       0.120135         3.2690
  71   0.0000       0.137878         3.7519

MULLIKEN ATOMIC CHARGES
-----------------------
   0 S :    0.083941
   1 C :   -0.133282
   2 C :   -0.059865
   3 C :    0.006052
   4 C :   -0.141504
   5 H :   -0.015743
   6 C :    0.024679
   7 H :    0.039009
   8 H :    0.041808
   9 C :   -0.086660
  10 H :    0.022479
  11 H :    0.034577
  12 C :   -0.023430
  13 H :    0.034183
  14 H :    0.016067
  15 H :    0.034187
  16 S :    0.100987
  17 C :   -0.077724
  18 C :   -0.038815
  19 C :   -0.069682
  20 C :   -0.095437
  21 H :    0.033052
  22 C :    0.022956
  23 H :    0.038612
  24 H :    0.043853
  25 C :   -0.110195
  26 H :    0.050326
  27 H :    0.044113
  28 C :   -0.055010
  29 H :    0.048775
  30 H :    0.031270
  31 H :    0.034685
  32 H :    0.066610
  33 H :    0.055127
Sum of atomic charges:   -0.0000000

LOEWDIN ATOMIC CHARGES
----------------------
   0 S :    0.380034
   1 C :   -0.189712
   2 C :   -0.059185
   3 C :   -0.072892
   4 C :   -0.182632
   5 H :    0.021687
   6 C :   -0.033777
   7 H :    0.040894
   8 H :    0.034741
   9 C :   -0.048556
  10 H :    0.020550
  11 H :    0.030357
  12 C :   -0.066362
  13 H :    0.025252
  14 H :    0.021206
  15 H :    0.027271
  16 S :    0.393194
  17 C :   -0.177169
  18 C :   -0.073792
  19 C :   -0.048718
  20 C :   -0.192171
  21 H :    0.035824
  22 C :   -0.047264
  23 H :    0.029835
  24 H :    0.038398
  25 C :   -0.041762
  26 H :    0.031241
  27 H :    0.026431
  28 C :   -0.066084
  29 H :    0.030595
  30 H :    0.022590
  31 H :    0.027654
  32 H :    0.036010
  33 H :    0.026311

  Mayer bond orders larger than 0.100000
B(  0-S ,  1-C ) :   1.1295 B(  0-S ,  4-C ) :   1.1172 B(  1-C ,  2-C ) :   1.6109
B(  1-C , 32-H ) :   0.9643 B(  2-C ,  3-C ) :   1.2178 B(  2-C ,  6-C ) :   1.0229
B(  3-C ,  4-C ) :   1.5638 B(  3-C ,  5-H ) :   0.9898 B(  4-C , 20-C ) :   1.1536
B(  6-C ,  7-H ) :   0.9475 B(  6-C ,  8-H ) :   0.9434 B(  6-C ,  9-C ) :   1.0468
B(  9-C , 10-H ) :   0.9581 B(  9-C , 11-H ) :   0.9548 B(  9-C , 12-C ) :   1.0764
B( 12-C , 13-H ) :   0.9742 B( 12-C , 14-H ) :   0.9749 B( 12-C , 15-H ) :   0.9748
B( 16-S , 17-C ) :   1.1632 B( 16-S , 20-C ) :   1.1119 B( 17-C , 18-C ) :   1.5809
B( 17-C , 33-H ) :   0.9699 B( 18-C , 19-C ) :   1.2698 B( 18-C , 21-H ) :   0.9807
B( 19-C , 20-C ) :   1.5363 B( 19-C , 22-C ) :   1.0616 B( 22-C , 23-H ) :   0.9117
B( 22-C , 24-H ) :   0.9205 B( 22-C , 25-C ) :   1.0671 B( 25-C , 26-H ) :   0.9561
B( 25-C , 27-H ) :   0.9478 B( 25-C , 28-C ) :   1.0826 B( 28-C , 29-H ) :   0.9749
B( 28-C , 30-H ) :   0.9754 B( 28-C , 31-H ) :   0.9757

Dispersion correction           -0.013153147
FINAL SINGLE POINT ENERGY     -1339.877059945839

DIPOLE MOMENT
-------------
                                X             Y             Z
Electronic contribution:    -27.44806      -0.89893      15.95557
Nuclear contribution   :     27.92962       0.81838     -16.54891
                        -----------------------------------------
Total Dipole Moment    :      0.48155      -0.08055      -0.59334
                        -----------------------------------------
Magnitude (a.u.)       :      0.76840
Magnitude (Debye)      :      1.95311

Rotational constants in cm-1:     0.017125     0.008344     0.005894
Rotational constants in MHz :   513.383022   250.142557   176.684657

                             ****ORCA TERMINATED NORMALLY****
TOTAL RUN TIME: 0 days 0 hours 0 minutes 27 seconds 252 msec
