                         Program Version 4.2.1 -  RELEASE  -
|  1> ! wB97X-D3 SP def2-SVP
|  2> %pal
|  3> nprocs 16
|  4> end
|  5>
|  6> * xyz 0 1
|  7> S 	 15.935 	 19.219 	 37.9414
|  8> C 	 16.739 	 19.6016 	 36.4782
|  9> C 	 16.1607 	 20.7925 	 35.9459
| 10> C 	 15.2309 	 21.44 	 36.8074
| 11> C 	 15.0246 	 20.6889 	 37.9642
| 12> H 	 14.7974 	 22.4462 	 36.6323
| 13> C 	 16.4368 	 21.3023 	 34.5592
| 14> H 	 15.4525 	 21.5986 	 34.1202
| 15> H 	 16.6632 	 20.5162 	 33.8523
| 16> C 	 17.5304 	 22.3785 	 34.491
| 17> H 	 17.629 	 22.7084 	 33.4724
| 18> H 	 17.2288 	 23.3429 	 34.907
| 19> C 	 18.8405 	 21.9279 	 35.1221
| 20> H 	 19.3319 	 21.2708 	 34.4491
| 21> H 	 19.5978 	 22.6835 	 35.2251
| 22> H 	 18.7676 	 21.5678 	 36.2322
| 23> S 	 15.1409 	 21.2247 	 40.5946
| 24> C 	 13.7277 	 21.9353 	 41.3905
| 25> C 	 12.6572 	 22.0583 	 40.5311
| 26> C 	 12.968 	 21.7529 	 39.1733
| 27> C 	 14.2475 	 21.1575 	 39.1287
| 28> H 	 11.701 	 22.3642 	 40.8887
| 29> C 	 11.9477 	 21.777 	 38.0948
| 30> H 	 12.2024 	 22.6126 	 37.3884
| 31> H 	 11.0073 	 22.1478 	 38.5297
| 32> C 	 11.6811 	 20.4853 	 37.3661
| 33> H 	 12.639 	 20.0737 	 37.0347
| 34> H 	 10.9282 	 20.4939 	 36.6406
| 35> C 	 11.1752 	 19.3892 	 38.2854
| 36> H 	 10.469 	 19.7316 	 39.0076
| 37> H 	 12.0828 	 19.0088 	 38.8855
| 38> H 	 10.6809 	 18.4846 	 37.7815
| 39> H 	 17.1499 	 18.8093 	 35.8602
| 40> H 	 13.7378 	 22.2205 	 42.4239
| 41> *
| 42>
| 43>                          ****END OF INPUT****

CARTESIAN COORDINATES (ANGSTROEM)
---------------------------------
  S     15.935000   19.219000   37.941400
  C     16.739000   19.601600   36.478200
  C     16.160700   20.792500   35.945900
  C     15.230900   21.440000   36.807400
  C     15.024600   20.688900   37.964200
  H     14.797400   22.446200   36.632300
  C     16.436800   21.302300   34.559200
  H     15.452500   21.598600   34.120200
  H     16.663200   20.516200   33.852300
  C     17.530400   22.378500   34.491000
  H     17.629000   22.708400   33.472400
  H     17.228800   23.342900   34.907000
  C     18.840500   21.927900   35.122100
  H     19.331900   21.270800   34.449100
  H     19.597800   22.683500   35.225100
  H     18.767600   21.567800   36.232200
  S     15.140900   21.224700   40.594600
  C     13.727700   21.935300   41.390500
  C     12.657200   22.058300   40.531100
  C     12.968000   21.752900   39.173300
  C     14.247500   21.157500   39.128700
  H     11.701000   22.364200   40.888700
  C     11.947700   21.777000   38.094800
  H     12.202400   22.612600   37.388400
  H     11.007300   22.147800   38.529700
  C     11.681100   20.485300   37.366100
  H     12.639000   20.073700   37.034700
  H     10.928200   20.493900   36.640600
  C     11.175200   19.389200   38.285400
  H     10.469000   19.731600   39.007600
  H     12.082800   19.008800   38.885500
  H     10.680900   18.484600   37.781500
  H     17.149900   18.809300   35.860200
  H     13.737800   22.220500   42.423900

 Total Charge           Charge          ....    0
 Multiplicity           Mult            ....    1
 Number of Electrons    NEL             ....  134
 Basis Dimension        Dim             ....  322

ORBITAL ENERGIES
----------------

  NO   OCC          E(Eh)            E(eV)
   0   2.0000     -88.969000     -2420.9696
   1   2.0000     -88.968458     -2420.9548
   2   2.0000     -10.330923      -281.1187
   3   2.0000     -10.327289      -281.0198
   4   2.0000     -10.314753      -280.6787
   5   2.0000     -10.311806      -280.5985
   6   2.0000     -10.304073      -280.3881
   7   2.0000     -10.304019      -280.3866
   8   2.0000     -10.296912      -280.1932
   9   2.0000     -10.294256      -280.1210
  10   2.0000     -10.293160      -280.0911
  11   2.0000     -10.290985      -280.0319
  12   2.0000     -10.284304      -279.8502
  13   2.0000     -10.274917      -279.5947
  14   2.0000     -10.274757      -279.5904
  15   2.0000     -10.274059      -279.5714
  16   2.0000      -8.084307      -219.9852
  17   2.0000      -8.083399      -219.9605
  18   2.0000      -6.042662      -164.4292
  19   2.0000      -6.041810      -164.4060
  20   2.0000      -6.038504      -164.3160
  21   2.0000      -6.037879      -164.2990
  22   2.0000      -6.035435      -164.2325
  23   2.0000      -6.034245      -164.2002
  24   2.0000      -1.010124       -27.4869
  25   2.0000      -0.986336       -26.8396
  26   2.0000      -0.915911       -24.9232
  27   2.0000      -0.910519       -24.7765
  28   2.0000      -0.867662       -23.6103
  29   2.0000      -0.852247       -23.1908
  30   2.0000      -0.846107       -23.0238
  31   2.0000      -0.811265       -22.0756
  32   2.0000      -0.781181       -21.2570
  33   2.0000      -0.769342       -20.9348
  34   2.0000      -0.707115       -19.2416
  35   2.0000      -0.699947       -19.0465
  36   2.0000      -0.682746       -18.5785
  37   2.0000      -0.666055       -18.1243
  38   2.0000      -0.639539       -17.4028
  39   2.0000      -0.619636       -16.8611
  40   2.0000      -0.596831       -16.2406
  41   2.0000      -0.567175       -15.4336
  42   2.0000      -0.559595       -15.2274
  43   2.0000      -0.551584       -15.0094
  44   2.0000      -0.546733       -14.8774
  45   2.0000      -0.538233       -14.6461
  46   2.0000      -0.515481       -14.0269
  47   2.0000      -0.507271       -13.8036
  48   2.0000      -0.494724       -13.4621
  49   2.0000      -0.490714       -13.3530
  50   2.0000      -0.487687       -13.2706
  51   2.0000      -0.480670       -13.0797
  52   2.0000      -0.466812       -12.7026
  53   2.0000      -0.462588       -12.5877
  54   2.0000      -0.456479       -12.4214
  55   2.0000      -0.449387       -12.2284
  56   2.0000      -0.443795       -12.0763
  57   2.0000      -0.439443       -11.9579
  58   2.0000      -0.432400       -11.7662
  59   2.0000      -0.414966       -11.2918
  60   2.0000      -0.414645       -11.2831
  61   2.0000      -0.409689       -11.1482
  62   2.0000      -0.408856       -11.1255
  63   2.0000      -0.350840        -9.5469
  64   2.0000      -0.332053        -9.0356
  65   2.0000      -0.327563        -8.9134
  66   2.0000      -0.288184        -7.8419
  67   0.0000       0.027993         0.7617
  68   0.0000       0.065318         1.7774
  69   0.0000       0.110163         2.9977
  70   0.0000       0.115335         3.1384
  71   0.0000       0.133452         3.6314

MULLIKEN ATOMIC CHARGES
-----------------------
   0 S :    0.118629
   1 C :   -0.103651
   2 C :   -0.138571
   3 C :    0.039177
   4 C :   -0.174865
   5 H :    0.033516
   6 C :    0.049153
   7 H :    0.027132
   8 H :    0.015232
   9 C :   -0.034882
  10 H :    0.016494
  11 H :    0.016112
  12 C :   -0.062962
  13 H :    0.018465
  14 H :    0.016868
  15 H :    0.070452
  16 S :    0.123433
  17 C :   -0.096474
  18 C :   -0.013089
  19 C :   -0.042525
  20 C :   -0.161567
  21 H :    0.007170
  22 C :    0.065172
  23 H :    0.038171
  24 H :    0.010270
  25 C :   -0.009175
  26 H :    0.046377
  27 H :    0.018802
  28 C :   -0.115694
  29 H :    0.015760
  30 H :    0.043828
  31 H :    0.045798
  32 H :    0.066906
  33 H :    0.050540
Sum of atomic charges:    0.0000000

LOEWDIN ATOMIC CHARGES
----------------------
   0 S :    0.435893
   1 C :   -0.228289
   2 C :   -0.054233
   3 C :   -0.066145
   4 C :   -0.206987
   5 H :    0.041190
   6 C :   -0.039462
   7 H :    0.035830
   8 H :    0.026943
   9 C :   -0.042329
  10 H :    0.023295
  11 H :    0.021412
  12 C :   -0.076515
  13 H :    0.019505
  14 H :    0.022556
  15 H :    0.046108
  16 S :    0.421957
  17 C :   -0.181748
  18 C :   -0.059685
  19 C :   -0.058710
  20 C :   -0.205580
  21 H :    0.027253
  22 C :   -0.036158
  23 H :    0.038291
  24 H :    0.029841
  25 C :   -0.040797
  26 H :    0.031038
  27 H :    0.018896
  28 C :   -0.074665
  29 H :    0.011478
  30 H :    0.032075
  31 H :    0.032536
  32 H :    0.031210
  33 H :    0.023997

  Mayer bond orders larger than 0.100000
B(  0-S ,  1-C ) :   1.1487 B(  0-S ,  4-C ) :   1.1936 B(  1-C ,  2-C ) :   1.5505
B(  1-C ,  4-C ) :   0.1053 B(  1-C , 32-H ) :   0.9629 B(  2-C ,  3-C ) :   1.2940
B(  2-C ,  6-C ) :   1.0309 B(  3-C ,  4-C ) :   1.5104 B(  3-C ,  5-H ) :   0.9879
B(  4-C , 20-C ) :   1.0131 B(  6-C ,  7-H ) :   0.9429 B(  6-C ,  8-H ) :   0.9448
B(  6-C ,  9-C ) :   1.0610 B(  9-C , 10-H ) :   0.9521 B(  9-C , 11-H ) :   0.9566
B(  9-C , 12-C ) :   1.0782 B( 12-C , 13-H ) :   0.9747 B( 12-C , 14-H ) :   0.9700
B( 12-C , 15-H ) :   0.9662 B( 16-S , 17-C ) :   1.1455 B( 16-S , 20-C ) :   1.1784
B( 17-C , 18-C ) :   1.6033 B( 17-C , 20-C ) :   0.1026 B( 17-C , 33-H ) :   0.9714
B( 18-C , 19-C ) :   1.2499 B( 18-C , 21-H ) :   0.9903 B( 19-C , 20-C ) :   1.5594
B( 19-C , 22-C ) :   1.0471 B( 22-C , 23-H ) :   0.9183 B( 22-C , 24-H ) :   0.9351
B( 22-C , 25-C ) :   1.0805 B( 25-C , 26-H ) :   0.9529 B( 25-C , 27-H ) :   0.9553
B( 25-C , 28-C ) :   1.0620 B( 28-C , 29-H ) :   0.9764 B( 28-C , 30-H ) :   0.9746
B( 28-C , 31-H ) :   0.9764

Dispersion correction           -0.015748169
FINAL SINGLE POINT ENERGY     -1339.869778889212

DIPOLE MOMENT
-------------
                                X             Y             Z
Electronic contribution:      4.40260      -4.46664      17.70740
Nuclear contribution   :     -4.70816       4.78172     -18.15047
                        -----------------------------------------
Total Dipole Moment    :     -0.30556       0.31509      -0.44307
                        -----------------------------------------
Magnitude (a.u.)       :      0.62367
Magnitude (Debye)      :      1.58524

Rotational constants in cm-1:     0.021775     0.008646     0.007731
Rotational constants in MHz :   652.807281   259.210307   231.767235

                             ****ORCA TERMINATED NORMALLY****
TOTAL RUN TIME: 0 days 0 hours 0 minutes 34 seconds 799 msec
