                         Program Version 4.2.1 -  RELEASE  -
|  1> ! wB97X-D3 SP def2-SVP
|  2> %pal
|  3> nprocs 16
|  4> end
|  5>
|  6> * xyz 0 1
|  7> S 	 -32.6824 	 31.9569 	 40.0722
|  8> C 	 -31.2104 	 32.8924 	 40.1913
|  9> C 	 -30.5438 	 32.6715 	 41.4041
| 10> C 	 -31.2657 	 31.8556 	 42.2828
| 11> C 	 -32.5071 	 31.4718 	 41.7531
| 12> H 	 -31.1291 	 31.5758 	 43.2775
| 13> C 	 -29.1397 	 33.2079 	 41.8115
| 14> H 	 -29.0706 	 33.2792 	 42.9151
| 15> H 	 -29.1509 	 34.1383 	 41.3576
| 16> C 	 -27.8745 	 32.4784 	 41.2119
| 17> H 	 -27.8346 	 32.4608 	 40.18
| 18> H 	 -26.9941 	 33.0608 	 41.4995
| 19> C 	 -27.7766 	 31.1444 	 41.8019
| 20> H 	 -28.5039 	 30.4055 	 41.3954
| 21> H 	 -26.962 	 30.4793 	 41.6897
| 22> H 	 -28.1137 	 31.1412 	 42.9121
| 23> S 	 -33.9583 	 29.1101 	 41.5165
| 24> C 	 -35.0393 	 28.6712 	 42.837
| 25> C 	 -34.9275 	 29.4455 	 43.9221
| 26> C 	 -34.0531 	 30.5992 	 43.6724
| 27> C 	 -33.4893 	 30.5302 	 42.39
| 28> H 	 -35.491 	 29.2785 	 44.8272
| 29> C 	 -33.868 	 31.7421 	 44.7098
| 30> H 	 -34.8835 	 32.128 	 44.8919
| 31> H 	 -33.387 	 32.429 	 44.0148
| 32> C 	 -33.3016 	 31.5625 	 46.1208
| 33> H 	 -33.7821 	 30.6822 	 46.5456
| 34> H 	 -33.5498 	 32.4083 	 46.7809
| 35> C 	 -31.8055 	 31.3327 	 46.2074
| 36> H 	 -31.5124 	 30.3879 	 45.6951
| 37> H 	 -31.5005 	 31.2644 	 47.2289
| 38> H 	 -31.1911 	 32.0486 	 45.7545
| 39> H 	 -30.7152 	 33.324 	 39.4104
| 40> H 	 -35.6631 	 27.7796 	 42.6653
| 41> *
| 42>
| 43>                          ****END OF INPUT****

CARTESIAN COORDINATES (ANGSTROEM)
---------------------------------
  S    -32.682400   31.956900   40.072200
  C    -31.210400   32.892400   40.191300
  C    -30.543800   32.671500   41.404100
  C    -31.265700   31.855600   42.282800
  C    -32.507100   31.471800   41.753100
  H    -31.129100   31.575800   43.277500
  C    -29.139700   33.207900   41.811500
  H    -29.070600   33.279200   42.915100
  H    -29.150900   34.138300   41.357600
  C    -27.874500   32.478400   41.211900
  H    -27.834600   32.460800   40.180000
  H    -26.994100   33.060800   41.499500
  C    -27.776600   31.144400   41.801900
  H    -28.503900   30.405500   41.395400
  H    -26.962000   30.479300   41.689700
  H    -28.113700   31.141200   42.912100
  S    -33.958300   29.110100   41.516500
  C    -35.039300   28.671200   42.837000
  C    -34.927500   29.445500   43.922100
  C    -34.053100   30.599200   43.672400
  C    -33.489300   30.530200   42.390000
  H    -35.491000   29.278500   44.827200
  C    -33.868000   31.742100   44.709800
  H    -34.883500   32.128000   44.891900
  H    -33.387000   32.429000   44.014800
  C    -33.301600   31.562500   46.120800
  H    -33.782100   30.682200   46.545600
  H    -33.549800   32.408300   46.780900
  C    -31.805500   31.332700   46.207400
  H    -31.512400   30.387900   45.695100
  H    -31.500500   31.264400   47.228900
  H    -31.191100   32.048600   45.754500
  H    -30.715200   33.324000   39.410400
  H    -35.663100   27.779600   42.665300

 Total Charge           Charge          ....    0
 Multiplicity           Mult            ....    1
 Number of Electrons    NEL             ....  134
 Basis Dimension        Dim             ....  322

ORBITAL ENERGIES
----------------

  NO   OCC          E(Eh)            E(eV)
   0   2.0000     -88.970893     -2421.0211
   1   2.0000     -88.963454     -2420.8187
   2   2.0000     -10.331466      -281.1335
   3   2.0000     -10.328742      -281.0593
   4   2.0000     -10.316247      -280.7194
   5   2.0000     -10.308943      -280.5206
   6   2.0000     -10.308778      -280.5161
   7   2.0000     -10.303301      -280.3671
   8   2.0000     -10.294174      -280.1187
   9   2.0000     -10.293849      -280.1099
  10   2.0000     -10.292865      -280.0831
  11   2.0000     -10.291982      -280.0591
  12   2.0000     -10.288884      -279.9748
  13   2.0000     -10.283505      -279.8284
  14   2.0000     -10.273812      -279.5646
  15   2.0000     -10.271719      -279.5077
  16   2.0000      -8.085078      -220.0062
  17   2.0000      -8.078834      -219.8362
  18   2.0000      -6.043442      -164.4504
  19   2.0000      -6.039688      -164.3483
  20   2.0000      -6.037302      -164.2834
  21   2.0000      -6.036017      -164.2484
  22   2.0000      -6.033446      -164.1784
  23   2.0000      -6.029408      -164.0685
  24   2.0000      -1.003678       -27.3115
  25   2.0000      -0.983031       -26.7496
  26   2.0000      -0.912065       -24.8186
  27   2.0000      -0.907066       -24.6825
  28   2.0000      -0.867188       -23.5974
  29   2.0000      -0.854299       -23.2466
  30   2.0000      -0.848253       -23.0821
  31   2.0000      -0.817429       -22.2434
  32   2.0000      -0.784342       -21.3430
  33   2.0000      -0.772726       -21.0269
  34   2.0000      -0.710170       -19.3247
  35   2.0000      -0.707624       -19.2554
  36   2.0000      -0.692305       -18.8386
  37   2.0000      -0.658159       -17.9094
  38   2.0000      -0.647155       -17.6100
  39   2.0000      -0.611752       -16.6466
  40   2.0000      -0.591755       -16.1025
  41   2.0000      -0.577913       -15.7258
  42   2.0000      -0.558384       -15.1944
  43   2.0000      -0.553356       -15.0576
  44   2.0000      -0.542549       -14.7635
  45   2.0000      -0.534562       -14.5462
  46   2.0000      -0.527955       -14.3664
  47   2.0000      -0.512563       -13.9476
  48   2.0000      -0.501044       -13.6341
  49   2.0000      -0.495805       -13.4915
  50   2.0000      -0.484893       -13.1946
  51   2.0000      -0.478327       -13.0160
  52   2.0000      -0.466156       -12.6848
  53   2.0000      -0.466080       -12.6827
  54   2.0000      -0.462298       -12.5798
  55   2.0000      -0.447320       -12.1722
  56   2.0000      -0.442103       -12.0302
  57   2.0000      -0.437572       -11.9069
  58   2.0000      -0.434118       -11.8130
  59   2.0000      -0.430561       -11.7162
  60   2.0000      -0.427465       -11.6319
  61   2.0000      -0.409938       -11.1550
  62   2.0000      -0.405544       -11.0354
  63   2.0000      -0.347228        -9.4486
  64   2.0000      -0.334508        -9.1024
  65   2.0000      -0.327384        -8.9086
  66   2.0000      -0.292170        -7.9503
  67   0.0000       0.029198         0.7945
  68   0.0000       0.072656         1.9771
  69   0.0000       0.106689         2.9032
  70   0.0000       0.121784         3.3139
  71   0.0000       0.124492         3.3876

MULLIKEN ATOMIC CHARGES
-----------------------
   0 S :    0.118387
   1 C :   -0.068951
   2 C :   -0.096076
   3 C :    0.080373
   4 C :   -0.193553
   5 H :   -0.036490
   6 C :    0.072668
   7 H :    0.039901
   8 H :    0.007654
   9 C :    0.010455
  10 H :    0.010269
  11 H :    0.029328
  12 C :   -0.081855
  13 H :    0.026465
  14 H :    0.020846
  15 H :    0.026745
  16 S :    0.098297
  17 C :   -0.105025
  18 C :   -0.001738
  19 C :   -0.082963
  20 C :   -0.147505
  21 H :    0.020514
  22 C :    0.051901
  23 H :    0.033689
  24 H :    0.027978
  25 C :   -0.039846
  26 H :    0.024927
  27 H :    0.037515
  28 C :   -0.043309
  29 H :    0.037815
  30 H :    0.025932
  31 H :    0.021104
  32 H :    0.008421
  33 H :    0.066128
Sum of atomic charges:   -0.0000000

LOEWDIN ATOMIC CHARGES
----------------------
   0 S :    0.413860
   1 C :   -0.191775
   2 C :   -0.054729
   3 C :   -0.055693
   4 C :   -0.189387
   5 H :    0.021340
   6 C :   -0.015580
   7 H :    0.034812
   8 H :    0.021086
   9 C :   -0.031959
  10 H :    0.015594
  11 H :    0.028749
  12 C :   -0.084182
  13 H :    0.031585
  14 H :    0.018478
  15 H :    0.031564
  16 S :    0.395067
  17 C :   -0.174825
  18 C :   -0.071026
  19 C :   -0.056410
  20 C :   -0.208361
  21 H :    0.033157
  22 C :   -0.039936
  23 H :    0.037828
  24 H :    0.031126
  25 C :   -0.038308
  26 H :    0.026772
  27 H :    0.031159
  28 C :   -0.066351
  29 H :    0.030241
  30 H :    0.024698
  31 H :    0.013435
  32 H :    0.007634
  33 H :    0.030338

  Mayer bond orders larger than 0.100000
B(  0-S ,  1-C ) :   1.1470 B(  0-S ,  4-C ) :   1.1703 B(  1-C ,  2-C ) :   1.5932
B(  1-C ,  4-C ) :   0.1061 B(  1-C , 32-H ) :   0.9736 B(  2-C ,  3-C ) :   1.2517
B(  2-C ,  6-C ) :   1.0039 B(  3-C ,  4-C ) :   1.5457 B(  3-C ,  5-H ) :   1.0029
B(  4-C , 20-C ) :   1.0096 B(  6-C ,  7-H ) :   0.9508 B(  6-C ,  8-H ) :   0.9307
B(  6-C ,  9-C ) :   1.0794 B(  9-C , 10-H ) :   0.9527 B(  9-C , 11-H ) :   0.9517
B(  9-C , 12-C ) :   1.0721 B( 12-C , 13-H ) :   0.9653 B( 12-C , 14-H ) :   0.9725
B( 12-C , 15-H ) :   0.9730 B( 16-S , 17-C ) :   1.1346 B( 16-S , 20-C ) :   1.1440
B( 17-C , 18-C ) :   1.6431 B( 17-C , 33-H ) :   0.9651 B( 18-C , 19-C ) :   1.1986
B( 18-C , 21-H ) :   0.9945 B( 19-C , 20-C ) :   1.6272 B( 19-C , 22-C ) :   1.0277
B( 22-C , 23-H ) :   0.9313 B( 22-C , 24-H ) :   0.9373 B( 22-C , 25-C ) :   1.0642
B( 25-C , 26-H ) :   0.9501 B( 25-C , 27-H ) :   0.9534 B( 25-C , 28-C ) :   1.0906
B( 28-C , 29-H ) :   0.9713 B( 28-C , 30-H ) :   0.9689 B( 28-C , 31-H ) :   0.9708

Dispersion correction           -0.014977624
FINAL SINGLE POINT ENERGY     -1339.855468968687

DIPOLE MOMENT
-------------
                                X             Y             Z
Electronic contribution:    -18.94107      -6.39572     -18.39491
Nuclear contribution   :     19.21820       6.45316      18.86149
                        -----------------------------------------
Total Dipole Moment    :      0.27713       0.05743       0.46657
                        -----------------------------------------
Magnitude (a.u.)       :      0.54570
Magnitude (Debye)      :      1.38706

Rotational constants in cm-1:     0.017738     0.009355     0.007276
Rotational constants in MHz :   531.764535   280.461099   218.141577

                             ****ORCA TERMINATED NORMALLY****
TOTAL RUN TIME: 0 days 0 hours 0 minutes 34 seconds 555 msec
