                         Program Version 4.2.1 -  RELEASE  -
|  1> ! wB97X-D3 SP def2-SVP
|  2> %pal
|  3> nprocs 16
|  4> end
|  5>
|  6> * xyz 0 1
|  7> S 	 -56.057 	 35.8264 	 112.823
|  8> C 	 -54.6181 	 35.1761 	 112.146
|  9> C 	 -53.6509 	 36.1495 	 112.039
| 10> C 	 -54.0773 	 37.4164 	 112.492
| 11> C 	 -55.3904 	 37.4186 	 112.903
| 12> H 	 -53.4302 	 38.3116 	 112.425
| 13> C 	 -52.2403 	 35.8992 	 111.469
| 14> H 	 -52.3993 	 35.6209 	 110.423
| 15> H 	 -51.7645 	 35.0599 	 112.063
| 16> C 	 -51.2379 	 37.0256 	 111.555
| 17> H 	 -50.3788 	 36.7694 	 110.947
| 18> H 	 -51.7823 	 37.8535 	 111.096
| 19> C 	 -50.7763 	 37.3093 	 112.962
| 20> H 	 -50.3419 	 36.4095 	 113.332
| 21> H 	 -49.9837 	 38.0115 	 113.016
| 22> H 	 -51.6735 	 37.7035 	 113.483
| 23> S 	 -57.7712 	 38.6906 	 112.523
| 24> C 	 -58.0098 	 40.384 	 112.97
| 25> C 	 -56.8072 	 40.8638 	 113.503
| 26> C 	 -55.8007 	 39.8626 	 113.608
| 27> C 	 -56.2027 	 38.598 	 113.188
| 28> H 	 -56.7193 	 41.9142 	 113.72
| 29> C 	 -54.4763 	 40.1478 	 114.12
| 30> H 	 -53.8329 	 40.5307 	 113.28
| 31> H 	 -53.9386 	 39.3524 	 114.534
| 32> C 	 -54.3478 	 41.2466 	 115.233
| 33> H 	 -54.9985 	 41.1217 	 116.07
| 34> H 	 -54.821 	 42.1873 	 114.832
| 35> C 	 -52.8776 	 41.5648 	 115.599
| 36> H 	 -52.3296 	 40.6982 	 115.918
| 37> H 	 -52.7897 	 42.2687 	 116.425
| 38> H 	 -52.2799 	 41.8686 	 114.829
| 39> H 	 -54.2916 	 34.1846 	 112.011
| 40> H 	 -58.9509 	 40.8552 	 112.9
| 41> *
| 42>
| 43>                          ****END OF INPUT****

CARTESIAN COORDINATES (ANGSTROEM)
---------------------------------
  S    -56.057000   35.826400  112.823000
  C    -54.618100   35.176100  112.146000
  C    -53.650900   36.149500  112.039000
  C    -54.077300   37.416400  112.492000
  C    -55.390400   37.418600  112.903000
  H    -53.430200   38.311600  112.425000
  C    -52.240300   35.899200  111.469000
  H    -52.399300   35.620900  110.423000
  H    -51.764500   35.059900  112.063000
  C    -51.237900   37.025600  111.555000
  H    -50.378800   36.769400  110.947000
  H    -51.782300   37.853500  111.096000
  C    -50.776300   37.309300  112.962000
  H    -50.341900   36.409500  113.332000
  H    -49.983700   38.011500  113.016000
  H    -51.673500   37.703500  113.483000
  S    -57.771200   38.690600  112.523000
  C    -58.009800   40.384000  112.970000
  C    -56.807200   40.863800  113.503000
  C    -55.800700   39.862600  113.608000
  C    -56.202700   38.598000  113.188000
  H    -56.719300   41.914200  113.720000
  C    -54.476300   40.147800  114.120000
  H    -53.832900   40.530700  113.280000
  H    -53.938600   39.352400  114.534000
  C    -54.347800   41.246600  115.233000
  H    -54.998500   41.121700  116.070000
  H    -54.821000   42.187300  114.832000
  C    -52.877600   41.564800  115.599000
  H    -52.329600   40.698200  115.918000
  H    -52.789700   42.268700  116.425000
  H    -52.279900   41.868600  114.829000
  H    -54.291600   34.184600  112.011000
  H    -58.950900   40.855200  112.900000

 Total Charge           Charge          ....    0
 Multiplicity           Mult            ....    1
 Number of Electrons    NEL             ....  134
 Basis Dimension        Dim             ....  322

ORBITAL ENERGIES
----------------

  NO   OCC          E(Eh)            E(eV)
   0   2.0000     -88.970508     -2421.0106
   1   2.0000     -88.963116     -2420.8095
   2   2.0000     -10.330168      -281.0981
   3   2.0000     -10.324122      -280.9337
   4   2.0000     -10.318316      -280.7757
   5   2.0000     -10.305785      -280.4347
   6   2.0000     -10.299044      -280.2512
   7   2.0000     -10.297150      -280.1997
   8   2.0000     -10.296936      -280.1939
   9   2.0000     -10.294867      -280.1376
  10   2.0000     -10.293622      -280.1037
  11   2.0000     -10.289895      -280.0023
  12   2.0000     -10.287976      -279.9500
  13   2.0000     -10.283229      -279.8209
  14   2.0000     -10.274615      -279.5865
  15   2.0000     -10.272112      -279.5184
  16   2.0000      -8.085696      -220.0230
  17   2.0000      -8.078484      -219.8267
  18   2.0000      -6.044230      -164.4718
  19   2.0000      -6.040021      -164.3573
  20   2.0000      -6.036909      -164.2727
  21   2.0000      -6.036525      -164.2622
  22   2.0000      -6.032761      -164.1598
  23   2.0000      -6.029415      -164.0687
  24   2.0000      -1.015655       -27.6374
  25   2.0000      -0.991056       -26.9680
  26   2.0000      -0.920550       -25.0494
  27   2.0000      -0.910910       -24.7871
  28   2.0000      -0.875174       -23.8147
  29   2.0000      -0.855397       -23.2765
  30   2.0000      -0.846551       -23.0358
  31   2.0000      -0.820234       -22.3197
  32   2.0000      -0.786010       -21.3884
  33   2.0000      -0.775881       -21.1128
  34   2.0000      -0.716775       -19.5044
  35   2.0000      -0.708183       -19.2707
  36   2.0000      -0.691788       -18.8245
  37   2.0000      -0.659611       -17.9489
  38   2.0000      -0.634538       -17.2666
  39   2.0000      -0.633020       -17.2253
  40   2.0000      -0.609286       -16.5795
  41   2.0000      -0.576058       -15.6753
  42   2.0000      -0.563771       -15.3410
  43   2.0000      -0.560755       -15.2589
  44   2.0000      -0.546856       -14.8807
  45   2.0000      -0.529414       -14.4061
  46   2.0000      -0.519689       -14.1414
  47   2.0000      -0.509077       -13.8527
  48   2.0000      -0.507272       -13.8036
  49   2.0000      -0.500125       -13.6091
  50   2.0000      -0.490658       -13.3515
  51   2.0000      -0.489397       -13.3172
  52   2.0000      -0.478323       -13.0158
  53   2.0000      -0.468805       -12.7568
  54   2.0000      -0.462970       -12.5980
  55   2.0000      -0.456968       -12.4347
  56   2.0000      -0.451997       -12.2995
  57   2.0000      -0.440066       -11.9748
  58   2.0000      -0.437878       -11.9153
  59   2.0000      -0.420553       -11.4438
  60   2.0000      -0.416509       -11.3338
  61   2.0000      -0.414141       -11.2693
  62   2.0000      -0.407076       -11.0771
  63   2.0000      -0.357925        -9.7396
  64   2.0000      -0.333743        -9.0816
  65   2.0000      -0.326652        -8.8887
  66   2.0000      -0.286007        -7.7827
  67   0.0000       0.023668         0.6440
  68   0.0000       0.079920         2.1747
  69   0.0000       0.115405         3.1403
  70   0.0000       0.116320         3.1652
  71   0.0000       0.136516         3.7148

MULLIKEN ATOMIC CHARGES
-----------------------
   0 S :    0.129105
   1 C :   -0.083678
   2 C :   -0.121693
   3 C :   -0.015374
   4 C :   -0.132963
   5 H :    0.019661
   6 C :    0.038868
   7 H :    0.048795
   8 H :    0.032321
   9 C :   -0.088032
  10 H :    0.026810
  11 H :    0.027596
  12 C :   -0.012040
  13 H :    0.020244
  14 H :    0.024334
  15 H :    0.037581
  16 S :    0.092039
  17 C :   -0.093399
  18 C :   -0.028107
  19 C :   -0.039111
  20 C :   -0.087216
  21 H :    0.021932
  22 C :    0.017805
  23 H :    0.046309
  24 H :    0.023350
  25 C :   -0.076764
  26 H :    0.025530
  27 H :    0.018278
  28 C :    0.000057
  29 H :    0.012734
  30 H :    0.033295
  31 H :    0.005775
  32 H :    0.024480
  33 H :    0.051477
Sum of atomic charges:   -0.0000000

LOEWDIN ATOMIC CHARGES
----------------------
   0 S :    0.436985
   1 C :   -0.208530
   2 C :   -0.063871
   3 C :   -0.074188
   4 C :   -0.196446
   5 H :    0.034265
   6 C :   -0.034525
   7 H :    0.036659
   8 H :    0.033375
   9 C :   -0.047944
  10 H :    0.026134
  11 H :    0.020716
  12 C :   -0.058455
  13 H :    0.023208
  14 H :    0.021069
  15 H :    0.030343
  16 S :    0.419946
  17 C :   -0.174902
  18 C :   -0.064193
  19 C :   -0.066936
  20 C :   -0.208483
  21 H :    0.031212
  22 C :   -0.037367
  23 H :    0.039467
  24 H :    0.022243
  25 C :   -0.036043
  26 H :    0.020160
  27 H :    0.021770
  28 C :   -0.059569
  29 H :    0.023425
  30 H :    0.030753
  31 H :    0.013289
  32 H :    0.024374
  33 H :    0.022058

  Mayer bond orders larger than 0.100000
B(  0-S ,  1-C ) :   1.1374 B(  0-S ,  4-C ) :   1.1728 B(  1-C ,  2-C ) :   1.6144
B(  1-C , 32-H ) :   0.9720 B(  2-C ,  3-C ) :   1.2920 B(  2-C ,  6-C ) :   0.9878
B(  3-C ,  4-C ) :   1.5255 B(  3-C ,  5-H ) :   0.9701 B(  4-C , 20-C ) :   1.0390
B(  6-C ,  7-H ) :   0.9394 B(  6-C ,  8-H ) :   0.9390 B(  6-C ,  9-C ) :   1.0985
B(  9-C , 10-H ) :   0.9476 B(  9-C , 11-H ) :   0.9444 B(  9-C , 12-C ) :   1.0828
B( 12-C , 13-H ) :   0.9685 B( 12-C , 14-H ) :   0.9715 B( 12-C , 15-H ) :   0.9720
B( 16-S , 17-C ) :   1.1702 B( 16-S , 20-C ) :   1.1558 B( 17-C , 18-C ) :   1.5520
B( 17-C , 20-C ) :   0.1023 B( 17-C , 33-H ) :   0.9778 B( 18-C , 19-C ) :   1.2693
B( 18-C , 21-H ) :   0.9964 B( 19-C , 20-C ) :   1.5498 B( 19-C , 22-C ) :   1.0700
B( 22-C , 23-H ) :   0.9112 B( 22-C , 24-H ) :   0.9439 B( 22-C , 25-C ) :   1.0524
B( 25-C , 26-H ) :   0.9621 B( 25-C , 27-H ) :   0.9458 B( 25-C , 28-C ) :   1.0794
B( 28-C , 29-H ) :   0.9715 B( 28-C , 30-H ) :   0.9730 B( 28-C , 31-H ) :   0.9721

Dispersion correction           -0.014290258
FINAL SINGLE POINT ENERGY     -1339.871199018326

DIPOLE MOMENT
-------------
                                X             Y             Z
Electronic contribution:    -28.98069     -11.76334      -6.37094
Nuclear contribution   :     29.68143      12.09239       6.34322
                        -----------------------------------------
Total Dipole Moment    :      0.70074       0.32905      -0.02772
                        -----------------------------------------
Magnitude (a.u.)       :      0.77465
Magnitude (Debye)      :      1.96901

Rotational constants in cm-1:     0.015677     0.010830     0.006917
Rotational constants in MHz :   469.976122   324.662962   207.362479

                             ****ORCA TERMINATED NORMALLY****
TOTAL RUN TIME: 0 days 0 hours 0 minutes 29 seconds 636 msec
