                         Program Version 4.2.1 -  RELEASE  -
|  1> ! wB97X-D3 SP def2-SVP
|  2> %pal
|  3> nprocs 16
|  4> end
|  5>
|  6> * xyz 0 1
|  7> S 	 -95.1154 	 51.6666 	 123.98
|  8> C 	 -94.1076 	 50.7259 	 125.055
|  9> C 	 -94.8456 	 49.737 	 125.65
| 10> C 	 -96.18 	 49.6422 	 125.151
| 11> C 	 -96.5256 	 50.7025 	 124.291
| 12> H 	 -96.9684 	 48.9551 	 125.524
| 13> C 	 -94.2113 	 48.7509 	 126.557
| 14> H 	 -94.9401 	 48.2937 	 127.109
| 15> H 	 -93.6811 	 49.3498 	 127.226
| 16> C 	 -93.3312 	 47.6786 	 125.999
| 17> H 	 -92.415 	 48.037 	 125.358
| 18> H 	 -92.881 	 47.246 	 126.875
| 19> C 	 -94.1495 	 46.5894 	 125.211
| 20> H 	 -94.58 	 46.9929 	 124.268
| 21> H 	 -93.4662 	 45.8018 	 124.761
| 22> H 	 -94.9625 	 46.0991 	 125.779
| 23> S 	 -98.5137 	 52.5714 	 124.028
| 24> C 	 -99.866 	 52.2093 	 122.978
| 25> C 	 -99.7984 	 50.9847 	 122.291
| 26> C 	 -98.5315 	 50.3008 	 122.585
| 27> C 	 -97.8 	 50.9663 	 123.564
| 28> H 	 -100.52 	 50.6464 	 121.506
| 29> C 	 -98.1371 	 48.9699 	 121.945
| 30> H 	 -97.3265 	 48.5098 	 122.49
| 31> H 	 -97.7264 	 49.3201 	 120.995
| 32> C 	 -99.368 	 48.0847 	 121.744
| 33> H 	 -99.978 	 48.5343 	 120.88
| 34> H 	 -99.9919 	 48.0306 	 122.672
| 35> C 	 -98.9731 	 46.6582 	 121.35
| 36> H 	 -99.3316 	 45.9444 	 122.023
| 37> H 	 -97.8861 	 46.6563 	 121.222
| 38> H 	 -99.3729 	 46.3388 	 120.359
| 39> H 	 -93.1056 	 51.0813 	 125.203
| 40> H 	 -100.73 	 52.8289 	 122.862
| 41> *
| 42>
| 43>                          ****END OF INPUT****

CARTESIAN COORDINATES (ANGSTROEM)
---------------------------------
  S    -95.115400   51.666600  123.980000
  C    -94.107600   50.725900  125.055000
  C    -94.845600   49.737000  125.650000
  C    -96.180000   49.642200  125.151000
  C    -96.525600   50.702500  124.291000
  H    -96.968400   48.955100  125.524000
  C    -94.211300   48.750900  126.557000
  H    -94.940100   48.293700  127.109000
  H    -93.681100   49.349800  127.226000
  C    -93.331200   47.678600  125.999000
  H    -92.415000   48.037000  125.358000
  H    -92.881000   47.246000  126.875000
  C    -94.149500   46.589400  125.211000
  H    -94.580000   46.992900  124.268000
  H    -93.466200   45.801800  124.761000
  H    -94.962500   46.099100  125.779000
  S    -98.513700   52.571400  124.028000
  C    -99.866000   52.209300  122.978000
  C    -99.798400   50.984700  122.291000
  C    -98.531500   50.300800  122.585000
  C    -97.800000   50.966300  123.564000
  H    -100.520000   50.646400  121.506000
  C    -98.137100   48.969900  121.945000
  H    -97.326500   48.509800  122.490000
  H    -97.726400   49.320100  120.995000
  C    -99.368000   48.084700  121.744000
  H    -99.978000   48.534300  120.880000
  H    -99.991900   48.030600  122.672000
  C    -98.973100   46.658200  121.350000
  H    -99.331600   45.944400  122.023000
  H    -97.886100   46.656300  121.222000
  H    -99.372900   46.338800  120.359000
  H    -93.105600   51.081300  125.203000
  H    -100.730000   52.828900  122.862000

 Total Charge           Charge          ....    0
 Multiplicity           Mult            ....    1
 Number of Electrons    NEL             ....  134
 Basis Dimension        Dim             ....  322

ORBITAL ENERGIES
----------------

  NO   OCC          E(Eh)            E(eV)
   0   2.0000     -88.965132     -2420.8643
   1   2.0000     -88.960578     -2420.7404
   2   2.0000     -10.330402      -281.1045
   3   2.0000     -10.329729      -281.0862
   4   2.0000     -10.319437      -280.8061
   5   2.0000     -10.309899      -280.5466
   6   2.0000     -10.309803      -280.5440
   7   2.0000     -10.302243      -280.3383
   8   2.0000     -10.297231      -280.2019
   9   2.0000     -10.296135      -280.1721
  10   2.0000     -10.295919      -280.1662
  11   2.0000     -10.294967      -280.1403
  12   2.0000     -10.292945      -280.0853
  13   2.0000     -10.286953      -279.9222
  14   2.0000     -10.275238      -279.6035
  15   2.0000     -10.273851      -279.5657
  16   2.0000      -8.078940      -219.8391
  17   2.0000      -8.075894      -219.7563
  18   2.0000      -6.037472      -164.2880
  19   2.0000      -6.034281      -164.2011
  20   2.0000      -6.033715      -164.1857
  21   2.0000      -6.030094      -164.0872
  22   2.0000      -6.029589      -164.0734
  23   2.0000      -6.026976      -164.0024
  24   2.0000      -0.999693       -27.2030
  25   2.0000      -0.976081       -26.5605
  26   2.0000      -0.917103       -24.9556
  27   2.0000      -0.910237       -24.7688
  28   2.0000      -0.859826       -23.3971
  29   2.0000      -0.848342       -23.0845
  30   2.0000      -0.839460       -22.8429
  31   2.0000      -0.810084       -22.0435
  32   2.0000      -0.784114       -21.3368
  33   2.0000      -0.770979       -20.9794
  34   2.0000      -0.703363       -19.1395
  35   2.0000      -0.699541       -19.0355
  36   2.0000      -0.691796       -18.8247
  37   2.0000      -0.652374       -17.7520
  38   2.0000      -0.643860       -17.5203
  39   2.0000      -0.609617       -16.5885
  40   2.0000      -0.593055       -16.1379
  41   2.0000      -0.573288       -15.6000
  42   2.0000      -0.567729       -15.4487
  43   2.0000      -0.550723       -14.9859
  44   2.0000      -0.535280       -14.5657
  45   2.0000      -0.530136       -14.4257
  46   2.0000      -0.515642       -14.0313
  47   2.0000      -0.513649       -13.9771
  48   2.0000      -0.500436       -13.6176
  49   2.0000      -0.490438       -13.3455
  50   2.0000      -0.486224       -13.2308
  51   2.0000      -0.477074       -12.9818
  52   2.0000      -0.464658       -12.6440
  53   2.0000      -0.460500       -12.5308
  54   2.0000      -0.459420       -12.5014
  55   2.0000      -0.449395       -12.2287
  56   2.0000      -0.439754       -11.9663
  57   2.0000      -0.437842       -11.9143
  58   2.0000      -0.432036       -11.7563
  59   2.0000      -0.427502       -11.6329
  60   2.0000      -0.421822       -11.4784
  61   2.0000      -0.411652       -11.2016
  62   2.0000      -0.411454       -11.1962
  63   2.0000      -0.333450        -9.0736
  64   2.0000      -0.330929        -9.0050
  65   2.0000      -0.326456        -8.8833
  66   2.0000      -0.296894        -8.0789
  67   0.0000       0.038672         1.0523
  68   0.0000       0.060189         1.6378
  69   0.0000       0.109667         2.9842
  70   0.0000       0.125844         3.4244
  71   0.0000       0.127865         3.4794

MULLIKEN ATOMIC CHARGES
-----------------------
   0 S :    0.106382
   1 C :   -0.140219
   2 C :   -0.097961
   3 C :    0.031069
   4 C :   -0.168156
   5 H :    0.027555
   6 C :    0.153610
   7 H :   -0.016013
   8 H :    0.007270
   9 C :   -0.061642
  10 H :    0.041729
  11 H :    0.026833
  12 C :   -0.099262
  13 H :    0.042144
  14 H :    0.038737
  15 H :    0.040133
  16 S :    0.100595
  17 C :   -0.065737
  18 C :   -0.064335
  19 C :   -0.048424
  20 C :   -0.191028
  21 H :    0.041661
  22 C :    0.108630
  23 H :    0.029818
  24 H :    0.040282
  25 C :   -0.164302
  26 H :    0.048451
  27 H :    0.053275
  28 C :   -0.004185
  29 H :    0.028030
  30 H :    0.029591
  31 H :    0.027002
  32 H :    0.049545
  33 H :    0.048922
Sum of atomic charges:    0.0000000

LOEWDIN ATOMIC CHARGES
----------------------
   0 S :    0.413763
   1 C :   -0.191341
   2 C :   -0.065202
   3 C :   -0.072099
   4 C :   -0.207525
   5 H :    0.038190
   6 C :   -0.029158
   7 H :    0.019304
   8 H :    0.028190
   9 C :   -0.037629
  10 H :    0.034460
  11 H :    0.022721
  12 C :   -0.080886
  13 H :    0.028568
  14 H :    0.032407
  15 H :    0.025710
  16 S :    0.378700
  17 C :   -0.175765
  18 C :   -0.080532
  19 C :   -0.043089
  20 C :   -0.190003
  21 H :    0.040098
  22 C :   -0.030495
  23 H :    0.028219
  24 H :    0.040329
  25 C :   -0.050921
  26 H :    0.032884
  27 H :    0.031758
  28 C :   -0.064781
  29 H :    0.019100
  30 H :    0.027569
  31 H :    0.029991
  32 H :    0.024371
  33 H :    0.023092

  Mayer bond orders larger than 0.100000
B(  0-S ,  1-C ) :   1.1485 B(  0-S ,  4-C ) :   1.1858 B(  1-C ,  2-C ) :   1.5674
B(  1-C ,  4-C ) :   0.1046 B(  1-C , 32-H ) :   0.9815 B(  2-C ,  3-C ) :   1.2556
B(  2-C ,  6-C ) :   1.0305 B(  3-C ,  4-C ) :   1.5535 B(  3-C ,  5-H ) :   0.9904
B(  4-C , 20-C ) :   0.9952 B(  6-C ,  7-H ) :   0.9230 B(  6-C ,  8-H ) :   0.9225
B(  6-C ,  9-C ) :   1.0825 B(  9-C , 10-H ) :   0.9540 B(  9-C , 11-H ) :   0.9509
B(  9-C , 12-C ) :   1.0658 B( 12-C , 13-H ) :   0.9761 B( 12-C , 14-H ) :   0.9739
B( 12-C , 15-H ) :   0.9755 B( 16-S , 17-C ) :   1.1535 B( 16-S , 20-C ) :   1.1142
B( 17-C , 18-C ) :   1.6375 B( 17-C , 33-H ) :   0.9640 B( 18-C , 19-C ) :   1.1997
B( 18-C , 21-H ) :   0.9769 B( 19-C , 20-C ) :   1.6581 B( 19-C , 22-C ) :   1.0264
B( 22-C , 23-H ) :   0.9409 B( 22-C , 24-H ) :   0.9167 B( 22-C , 25-C ) :   1.0738
B( 25-C , 26-H ) :   0.9466 B( 25-C , 27-H ) :   0.9696 B( 25-C , 28-C ) :   1.0667
B( 28-C , 29-H ) :   0.9771 B( 28-C , 30-H ) :   0.9776 B( 28-C , 31-H ) :   0.9741

Dispersion correction           -0.014020569
FINAL SINGLE POINT ENERGY     -1339.868742830807

DIPOLE MOMENT
-------------
                                X             Y             Z
Electronic contribution:     -2.79999      29.43104       2.88037
Nuclear contribution   :      2.77599     -30.07049      -2.95723
                        -----------------------------------------
Total Dipole Moment    :     -0.02400      -0.63945      -0.07686
                        -----------------------------------------
Magnitude (a.u.)       :      0.64450
Magnitude (Debye)      :      1.63818

Rotational constants in cm-1:     0.016955     0.009255     0.006498
Rotational constants in MHz :   508.310394   277.463228   194.811522

                             ****ORCA TERMINATED NORMALLY****
TOTAL RUN TIME: 0 days 0 hours 0 minutes 33 seconds 305 msec
