                         Program Version 4.2.1 -  RELEASE  -
|  1> ! wB97X-D3 SP def2-SVP
|  2> %pal
|  3> nprocs 16
|  4> end
|  5>
|  6> * xyz 0 1
|  7> S 	 14.0228 	 26.0137 	 61.3842
|  8> C 	 14.7191 	 24.4937 	 60.8446
|  9> C 	 13.7725 	 23.4777 	 60.9988
| 10> C 	 12.5729 	 23.9226 	 61.6376
| 11> C 	 12.5778 	 25.233 	 61.9957
| 12> H 	 11.7374 	 23.3264 	 62.0039
| 13> C 	 14.1161 	 21.9973 	 60.6768
| 14> H 	 14.5597 	 21.8892 	 59.6545
| 15> H 	 13.2615 	 21.3009 	 60.7469
| 16> C 	 15.1836 	 21.3406 	 61.5197
| 17> H 	 15.3404 	 20.3455 	 61.1501
| 18> H 	 16.1745 	 21.8475 	 61.5212
| 19> C 	 14.7199 	 21.1572 	 62.9919
| 20> H 	 14.6923 	 22.1088 	 63.5318
| 21> H 	 13.7305 	 20.6903 	 62.9456
| 22> H 	 15.3574 	 20.5544 	 63.5918
| 23> S 	 12.3295 	 26.2116 	 64.5166
| 24> C 	 10.7709 	 26.8942 	 65.0843
| 25> C 	 9.85467 	 26.7418 	 64.0442
| 26> C 	 10.3622 	 26.2667 	 62.8417
| 27> C 	 11.689 	 25.8827 	 62.9273
| 28> H 	 8.83932 	 27.0624 	 64.1623
| 29> C 	 9.39887 	 26.002 	 61.6316
| 30> H 	 9.94906 	 25.7874 	 60.7731
| 31> H 	 8.98367 	 26.9231 	 61.3137
| 32> C 	 8.26819 	 24.9025 	 61.789
| 33> H 	 7.77947 	 24.8278 	 60.7931
| 34> H 	 7.5158 	 25.2346 	 62.4874
| 35> C 	 8.70764 	 23.5197 	 62.1932
| 36> H 	 9.56544 	 23.2405 	 61.5503
| 37> H 	 7.86852 	 22.7947 	 62.3221
| 38> H 	 9.19886 	 23.5964 	 63.136
| 39> H 	 15.7723 	 24.4776 	 60.4746
| 40> H 	 10.5663 	 27.3146 	 66.0559
| 41> *
| 42>
| 43>                          ****END OF INPUT****

CARTESIAN COORDINATES (ANGSTROEM)
---------------------------------
  S     14.022800   26.013700   61.384200
  C     14.719100   24.493700   60.844600
  C     13.772500   23.477700   60.998800
  C     12.572900   23.922600   61.637600
  C     12.577800   25.233000   61.995700
  H     11.737400   23.326400   62.003900
  C     14.116100   21.997300   60.676800
  H     14.559700   21.889200   59.654500
  H     13.261500   21.300900   60.746900
  C     15.183600   21.340600   61.519700
  H     15.340400   20.345500   61.150100
  H     16.174500   21.847500   61.521200
  C     14.719900   21.157200   62.991900
  H     14.692300   22.108800   63.531800
  H     13.730500   20.690300   62.945600
  H     15.357400   20.554400   63.591800
  S     12.329500   26.211600   64.516600
  C     10.770900   26.894200   65.084300
  C      9.854670   26.741800   64.044200
  C     10.362200   26.266700   62.841700
  C     11.689000   25.882700   62.927300
  H      8.839320   27.062400   64.162300
  C      9.398870   26.002000   61.631600
  H      9.949060   25.787400   60.773100
  H      8.983670   26.923100   61.313700
  C      8.268190   24.902500   61.789000
  H      7.779470   24.827800   60.793100
  H      7.515800   25.234600   62.487400
  C      8.707640   23.519700   62.193200
  H      9.565440   23.240500   61.550300
  H      7.868520   22.794700   62.322100
  H      9.198860   23.596400   63.136000
  H     15.772300   24.477600   60.474600
  H     10.566300   27.314600   66.055900

 Total Charge           Charge          ....    0
 Multiplicity           Mult            ....    1
 Number of Electrons    NEL             ....  134
 Basis Dimension        Dim             ....  322

ORBITAL ENERGIES
----------------

  NO   OCC          E(Eh)            E(eV)
   0   2.0000     -88.966439     -2420.8999
   1   2.0000     -88.963230     -2420.8126
   2   2.0000     -10.326210      -280.9905
   3   2.0000     -10.325339      -280.9668
   4   2.0000     -10.323372      -280.9132
   5   2.0000     -10.322718      -280.8954
   6   2.0000     -10.309948      -280.5479
   7   2.0000     -10.302387      -280.3422
   8   2.0000     -10.297565      -280.2110
   9   2.0000     -10.295882      -280.1652
  10   2.0000     -10.291203      -280.0379
  11   2.0000     -10.289526      -279.9922
  12   2.0000     -10.289264      -279.9851
  13   2.0000     -10.284547      -279.8568
  14   2.0000     -10.276939      -279.6497
  15   2.0000     -10.269964      -279.4599
  16   2.0000      -8.080532      -219.8824
  17   2.0000      -8.078197      -219.8189
  18   2.0000      -6.039025      -164.3302
  19   2.0000      -6.036605      -164.2644
  20   2.0000      -6.035030      -164.2215
  21   2.0000      -6.032593      -164.1552
  22   2.0000      -6.031414      -164.1231
  23   2.0000      -6.029109      -164.0604
  24   2.0000      -1.008422       -27.4406
  25   2.0000      -0.983600       -26.7651
  26   2.0000      -0.910439       -24.7743
  27   2.0000      -0.902562       -24.5600
  28   2.0000      -0.870806       -23.6958
  29   2.0000      -0.849257       -23.1094
  30   2.0000      -0.843252       -22.9460
  31   2.0000      -0.814300       -22.1582
  32   2.0000      -0.785184       -21.3659
  33   2.0000      -0.774133       -21.0652
  34   2.0000      -0.703119       -19.1328
  35   2.0000      -0.696616       -18.9559
  36   2.0000      -0.693876       -18.8813
  37   2.0000      -0.661991       -18.0137
  38   2.0000      -0.647029       -17.6065
  39   2.0000      -0.612089       -16.6558
  40   2.0000      -0.597011       -16.2455
  41   2.0000      -0.577065       -15.7027
  42   2.0000      -0.553741       -15.0681
  43   2.0000      -0.547830       -14.9072
  44   2.0000      -0.541945       -14.7471
  45   2.0000      -0.539566       -14.6823
  46   2.0000      -0.522330       -14.2133
  47   2.0000      -0.515044       -14.0151
  48   2.0000      -0.501016       -13.6333
  49   2.0000      -0.493145       -13.4191
  50   2.0000      -0.491185       -13.3658
  51   2.0000      -0.473731       -12.8909
  52   2.0000      -0.467744       -12.7280
  53   2.0000      -0.465734       -12.6733
  54   2.0000      -0.460297       -12.5253
  55   2.0000      -0.444970       -12.1083
  56   2.0000      -0.438590       -11.9347
  57   2.0000      -0.437329       -11.9003
  58   2.0000      -0.433893       -11.8068
  59   2.0000      -0.420858       -11.4521
  60   2.0000      -0.418516       -11.3884
  61   2.0000      -0.414321       -11.2742
  62   2.0000      -0.412161       -11.2155
  63   2.0000      -0.343733        -9.3535
  64   2.0000      -0.330958        -9.0058
  65   2.0000      -0.324998        -8.8436
  66   2.0000      -0.305019        -8.3000
  67   0.0000       0.031803         0.8654
  68   0.0000       0.058290         1.5861
  69   0.0000       0.114357         3.1118
  70   0.0000       0.120218         3.2713
  71   0.0000       0.132093         3.5944

MULLIKEN ATOMIC CHARGES
-----------------------
   0 S :    0.108868
   1 C :   -0.161127
   2 C :   -0.047102
   3 C :    0.055697
   4 C :   -0.179880
   5 H :    0.010354
   6 C :    0.045806
   7 H :    0.039749
   8 H :    0.026271
   9 C :   -0.081763
  10 H :    0.023880
  11 H :    0.031388
  12 C :   -0.056705
  13 H :    0.043020
  14 H :    0.021568
  15 H :    0.022832
  16 S :    0.113249
  17 C :   -0.099169
  18 C :   -0.026526
  19 C :   -0.025111
  20 C :   -0.184598
  21 H :    0.012004
  22 C :    0.118158
  23 H :    0.001834
  24 H :    0.013928
  25 C :   -0.084945
  26 H :    0.035450
  27 H :    0.024528
  28 C :   -0.050191
  29 H :    0.029584
  30 H :    0.051866
  31 H :    0.027706
  32 H :    0.078767
  33 H :    0.060609
Sum of atomic charges:   -0.0000000

LOEWDIN ATOMIC CHARGES
----------------------
   0 S :    0.401292
   1 C :   -0.194459
   2 C :   -0.064157
   3 C :   -0.059474
   4 C :   -0.200591
   5 H :    0.034412
   6 C :   -0.036139
   7 H :    0.038466
   8 H :    0.030637
   9 C :   -0.041858
  10 H :    0.021420
  11 H :    0.022919
  12 C :   -0.067071
  13 H :    0.028029
  14 H :    0.022482
  15 H :    0.018184
  16 S :    0.403208
  17 C :   -0.172663
  18 C :   -0.068234
  19 C :   -0.060892
  20 C :   -0.202919
  21 H :    0.028254
  22 C :   -0.021848
  23 H :    0.021672
  24 H :    0.029231
  25 C :   -0.037500
  26 H :    0.029071
  27 H :    0.017319
  28 C :   -0.072627
  29 H :    0.025975
  30 H :    0.035971
  31 H :    0.021188
  32 H :    0.039753
  33 H :    0.030948

  Mayer bond orders larger than 0.100000
B(  0-S ,  1-C ) :   1.1514 B(  0-S ,  4-C ) :   1.1527 B(  1-C ,  2-C ) :   1.5791
B(  1-C , 32-H ) :   0.9702 B(  2-C ,  3-C ) :   1.2377 B(  2-C ,  6-C ) :   1.0170
B(  3-C ,  4-C ) :   1.5957 B(  3-C ,  5-H ) :   0.9854 B(  4-C , 20-C ) :   1.0166
B(  6-C ,  7-H ) :   0.9400 B(  6-C ,  8-H ) :   0.9471 B(  6-C ,  9-C ) :   1.0840
B(  9-C , 10-H ) :   0.9541 B(  9-C , 11-H ) :   0.9540 B(  9-C , 12-C ) :   1.0727
B( 12-C , 13-H ) :   0.9764 B( 12-C , 14-H ) :   0.9751 B( 12-C , 15-H ) :   0.9758
B( 16-S , 17-C ) :   1.1503 B( 16-S , 20-C ) :   1.1634 B( 17-C , 18-C ) :   1.5785
B( 17-C , 20-C ) :   0.1129 B( 17-C , 33-H ) :   0.9738 B( 18-C , 19-C ) :   1.2721
B( 18-C , 21-H ) :   0.9895 B( 19-C , 20-C ) :   1.5755 B( 19-C , 22-C ) :   1.0408
B( 22-C , 23-H ) :   0.9282 B( 22-C , 24-H ) :   0.9297 B( 22-C , 25-C ) :   1.0660
B( 25-C , 26-H ) :   0.9542 B( 25-C , 27-H ) :   0.9576 B( 25-C , 28-C ) :   1.0807
B( 28-C , 29-H ) :   0.9666 B( 28-C , 30-H ) :   0.9683 B( 28-C , 31-H ) :   0.9704

Dispersion correction           -0.015410999
FINAL SINGLE POINT ENERGY     -1339.879411499808

DIPOLE MOMENT
-------------
                                X             Y             Z
Electronic contribution:      8.26163      21.09778       4.74913
Nuclear contribution   :     -8.54356     -21.48695      -4.78704
                        -----------------------------------------
Total Dipole Moment    :     -0.28193      -0.38917      -0.03790
                        -----------------------------------------
Magnitude (a.u.)       :      0.48205
Magnitude (Debye)      :      1.22527

Rotational constants in cm-1:     0.019218     0.008832     0.007753
Rotational constants in MHz :   576.150937   264.769743   232.419709

                             ****ORCA TERMINATED NORMALLY****
TOTAL RUN TIME: 0 days 0 hours 0 minutes 35 seconds 932 msec
