                         Program Version 4.2.1 -  RELEASE  -
|  1> ! wB97X-D3 SP def2-SVP
|  2> %pal
|  3> nprocs 16
|  4> end
|  5>
|  6> * xyz 0 1
|  7> S 	 -47.6161 	 50.3602 	 104.615
|  8> C 	 -47.0915 	 50.4995 	 106.273
|  9> C 	 -47.3311 	 49.3042 	 107.023
| 10> C 	 -48.1763 	 48.4396 	 106.236
| 11> C 	 -48.3555 	 48.7808 	 104.888
| 12> H 	 -48.5722 	 47.4535 	 106.497
| 13> C 	 -47.0328 	 49.0477 	 108.551
| 14> H 	 -46.1395 	 49.6798 	 108.791
| 15> H 	 -46.7504 	 47.9843 	 108.824
| 16> C 	 -48.0429 	 49.5733 	 109.506
| 17> H 	 -48.2541 	 50.6287 	 109.383
| 18> H 	 -48.9937 	 49.0633 	 109.311
| 19> C 	 -47.5405 	 49.427 	 110.885
| 20> H 	 -47.0648 	 48.4104 	 111.223
| 21> H 	 -46.7256 	 50.173 	 111.038
| 22> H 	 -48.2917 	 49.7037 	 111.643
| 23> S 	 -50.5473 	 48.0997 	 103.303
| 24> C 	 -50.5164 	 46.6327 	 102.411
| 25> C 	 -49.2967 	 46.0399 	 102.525
| 26> C 	 -48.3571 	 46.7265 	 103.416
| 27> C 	 -48.9241 	 47.8983 	 103.915
| 28> H 	 -49.0439 	 45.2016 	 101.942
| 29> C 	 -46.9341 	 46.1733 	 103.715
| 30> H 	 -46.5877 	 46.827 	 104.496
| 31> H 	 -46.2819 	 46.5871 	 102.835
| 32> C 	 -46.9555 	 44.5835 	 103.958
| 33> H 	 -47.9989 	 44.134 	 103.893
| 34> H 	 -46.8373 	 44.4106 	 105.049
| 35> C 	 -45.761 	 43.9243 	 103.129
| 36> H 	 -45.7317 	 42.8332 	 103.352
| 37> H 	 -44.7527 	 44.165 	 103.496
| 38> H 	 -45.7557 	 44.0976 	 101.963
| 39> H 	 -46.6429 	 51.3211 	 106.741
| 40> H 	 -51.3225 	 46.3489 	 101.754
| 41> *
| 42>
| 43>                          ****END OF INPUT****

CARTESIAN COORDINATES (ANGSTROEM)
---------------------------------
  S    -47.616100   50.360200  104.615000
  C    -47.091500   50.499500  106.273000
  C    -47.331100   49.304200  107.023000
  C    -48.176300   48.439600  106.236000
  C    -48.355500   48.780800  104.888000
  H    -48.572200   47.453500  106.497000
  C    -47.032800   49.047700  108.551000
  H    -46.139500   49.679800  108.791000
  H    -46.750400   47.984300  108.824000
  C    -48.042900   49.573300  109.506000
  H    -48.254100   50.628700  109.383000
  H    -48.993700   49.063300  109.311000
  C    -47.540500   49.427000  110.885000
  H    -47.064800   48.410400  111.223000
  H    -46.725600   50.173000  111.038000
  H    -48.291700   49.703700  111.643000
  S    -50.547300   48.099700  103.303000
  C    -50.516400   46.632700  102.411000
  C    -49.296700   46.039900  102.525000
  C    -48.357100   46.726500  103.416000
  C    -48.924100   47.898300  103.915000
  H    -49.043900   45.201600  101.942000
  C    -46.934100   46.173300  103.715000
  H    -46.587700   46.827000  104.496000
  H    -46.281900   46.587100  102.835000
  C    -46.955500   44.583500  103.958000
  H    -47.998900   44.134000  103.893000
  H    -46.837300   44.410600  105.049000
  C    -45.761000   43.924300  103.129000
  H    -45.731700   42.833200  103.352000
  H    -44.752700   44.165000  103.496000
  H    -45.755700   44.097600  101.963000
  H    -46.642900   51.321100  106.741000
  H    -51.322500   46.348900  101.754000

 Total Charge           Charge          ....    0
 Multiplicity           Mult            ....    1
 Number of Electrons    NEL             ....  134
 Basis Dimension        Dim             ....  322

ORBITAL ENERGIES
----------------

  NO   OCC          E(Eh)            E(eV)
   0   2.0000     -88.970483     -2421.0099
   1   2.0000     -88.959362     -2420.7073
   2   2.0000     -10.326167      -280.9893
   3   2.0000     -10.320981      -280.8482
   4   2.0000     -10.318703      -280.7862
   5   2.0000     -10.313964      -280.6572
   6   2.0000     -10.312139      -280.6076
   7   2.0000     -10.309553      -280.5372
   8   2.0000     -10.306494      -280.4540
   9   2.0000     -10.303214      -280.3647
  10   2.0000     -10.303179      -280.3637
  11   2.0000     -10.298418      -280.2342
  12   2.0000     -10.296378      -280.1787
  13   2.0000     -10.288394      -279.9614
  14   2.0000     -10.287185      -279.9285
  15   2.0000     -10.281531      -279.7747
  16   2.0000      -8.084419      -219.9882
  17   2.0000      -8.075131      -219.7355
  18   2.0000      -6.042890      -164.4354
  19   2.0000      -6.038914      -164.3272
  20   2.0000      -6.035393      -164.2314
  21   2.0000      -6.033603      -164.1827
  22   2.0000      -6.029428      -164.0691
  23   2.0000      -6.025928      -163.9738
  24   2.0000      -1.003112       -27.2961
  25   2.0000      -0.979404       -26.6509
  26   2.0000      -0.921050       -25.0630
  27   2.0000      -0.891826       -24.2678
  28   2.0000      -0.872174       -23.7331
  29   2.0000      -0.845879       -23.0176
  30   2.0000      -0.837357       -22.7857
  31   2.0000      -0.809824       -22.0364
  32   2.0000      -0.776784       -21.1374
  33   2.0000      -0.766351       -20.8535
  34   2.0000      -0.708744       -19.2859
  35   2.0000      -0.700067       -19.0498
  36   2.0000      -0.693838       -18.8803
  37   2.0000      -0.653920       -17.7941
  38   2.0000      -0.644982       -17.5508
  39   2.0000      -0.612035       -16.6543
  40   2.0000      -0.593471       -16.1492
  41   2.0000      -0.576039       -15.6748
  42   2.0000      -0.564979       -15.3739
  43   2.0000      -0.543056       -14.7773
  44   2.0000      -0.522507       -14.2181
  45   2.0000      -0.516595       -14.0573
  46   2.0000      -0.515821       -14.0362
  47   2.0000      -0.509231       -13.8569
  48   2.0000      -0.504403       -13.7255
  49   2.0000      -0.495104       -13.4725
  50   2.0000      -0.492425       -13.3996
  51   2.0000      -0.472708       -12.8630
  52   2.0000      -0.461423       -12.5560
  53   2.0000      -0.460085       -12.5196
  54   2.0000      -0.456252       -12.4152
  55   2.0000      -0.451913       -12.2972
  56   2.0000      -0.442067       -12.0292
  57   2.0000      -0.439689       -11.9645
  58   2.0000      -0.438644       -11.9361
  59   2.0000      -0.425292       -11.5728
  60   2.0000      -0.413469       -11.2511
  61   2.0000      -0.412125       -11.2145
  62   2.0000      -0.408740       -11.1224
  63   2.0000      -0.333759        -9.0820
  64   2.0000      -0.327970        -8.9245
  65   2.0000      -0.320359        -8.7174
  66   2.0000      -0.305861        -8.3229
  67   0.0000       0.039198         1.0666
  68   0.0000       0.060691         1.6515
  69   0.0000       0.115969         3.1557
  70   0.0000       0.123065         3.3488
  71   0.0000       0.132523         3.6061

MULLIKEN ATOMIC CHARGES
-----------------------
   0 S :    0.130408
   1 C :   -0.094213
   2 C :   -0.076530
   3 C :    0.038894
   4 C :   -0.196815
   5 H :    0.016544
   6 C :    0.006064
   7 H :    0.018436
   8 H :    0.045800
   9 C :   -0.022738
  10 H :    0.026113
  11 H :    0.028201
  12 C :   -0.093575
  13 H :    0.042745
  14 H :    0.029267
  15 H :    0.039913
  16 S :    0.107514
  17 C :   -0.087655
  18 C :   -0.017111
  19 C :   -0.072078
  20 C :   -0.180036
  21 H :    0.005447
  22 C :    0.080713
  23 H :    0.029278
  24 H :    0.060689
  25 C :   -0.088203
  26 H :    0.058164
  27 H :    0.037255
  28 C :   -0.100056
  29 H :    0.034218
  30 H :    0.040334
  31 H :    0.062474
  32 H :    0.029584
  33 H :    0.060954
Sum of atomic charges:    0.0000000

LOEWDIN ATOMIC CHARGES
----------------------
   0 S :    0.413354
   1 C :   -0.191271
   2 C :   -0.061055
   3 C :   -0.056898
   4 C :   -0.209108
   5 H :    0.031260
   6 C :   -0.035543
   7 H :    0.031187
   8 H :    0.038362
   9 C :   -0.051014
  10 H :    0.029013
  11 H :    0.023713
  12 C :   -0.076441
  13 H :    0.032722
  14 H :    0.026720
  15 H :    0.028461
  16 S :    0.414284
  17 C :   -0.188124
  18 C :   -0.074393
  19 C :   -0.045625
  20 C :   -0.222272
  21 H :    0.022265
  22 C :   -0.038389
  23 H :    0.028234
  24 H :    0.050059
  25 C :   -0.048517
  26 H :    0.037348
  27 H :    0.032460
  28 C :   -0.084476
  29 H :    0.027420
  30 H :    0.028304
  31 H :    0.039334
  32 H :    0.017476
  33 H :    0.031149

  Mayer bond orders larger than 0.100000
B(  0-S ,  1-C ) :   1.1679 B(  0-S ,  4-C ) :   1.1330 B(  1-C ,  2-C ) :   1.5730
B(  1-C ,  4-C ) :   0.1049 B(  1-C , 32-H ) :   0.9734 B(  2-C ,  3-C ) :   1.2525
B(  2-C ,  6-C ) :   1.0186 B(  3-C ,  4-C ) :   1.5756 B(  3-C ,  5-H ) :   0.9870
B(  4-C , 20-C ) :   1.0443 B(  6-C ,  7-H ) :   0.9411 B(  6-C ,  8-H ) :   0.9479
B(  6-C ,  9-C ) :   1.0696 B(  9-C , 10-H ) :   0.9462 B(  9-C , 11-H ) :   0.9497
B(  9-C , 12-C ) :   1.0804 B( 12-C , 13-H ) :   0.9717 B( 12-C , 14-H ) :   0.9714
B( 12-C , 15-H ) :   0.9698 B( 16-S , 17-C ) :   1.1634 B( 16-S , 20-C ) :   1.1381
B( 17-C , 18-C ) :   1.6037 B( 17-C , 33-H ) :   0.9699 B( 18-C , 19-C ) :   1.2310
B( 18-C , 21-H ) :   0.9960 B( 19-C , 20-C ) :   1.5985 B( 19-C , 22-C ) :   1.0301
B( 22-C , 23-H ) :   0.9297 B( 22-C , 24-H ) :   0.9472 B( 22-C , 25-C ) :   0.9991
B( 25-C , 26-H ) :   0.9712 B( 25-C , 27-H ) :   0.9557 B( 25-C , 28-C ) :   1.0516
B( 28-C , 29-H ) :   0.9744 B( 28-C , 30-H ) :   0.9758 B( 28-C , 31-H ) :   0.9780

Dispersion correction           -0.013820273
FINAL SINGLE POINT ENERGY     -1339.851627314918

DIPOLE MOMENT
-------------
                                X             Y             Z
Electronic contribution:    -13.70131      13.96350     -18.32865
Nuclear contribution   :     14.02939     -14.41280      18.70566
                        -----------------------------------------
Total Dipole Moment    :      0.32808      -0.44930       0.37701
                        -----------------------------------------
Magnitude (a.u.)       :      0.67204
Magnitude (Debye)      :      1.70820

Rotational constants in cm-1:     0.017679     0.007513     0.006330
Rotational constants in MHz :   529.997456   225.219847   189.758820

                             ****ORCA TERMINATED NORMALLY****
TOTAL RUN TIME: 0 days 0 hours 0 minutes 28 seconds 812 msec
