                         Program Version 4.2.1 -  RELEASE  -
|  1> ! wB97X-D3 SP def2-SVP
|  2> %pal
|  3> nprocs 16
|  4> end
|  5>
|  6> * xyz 0 1
|  7> S 	 -64.6365 	 52.54 	 128.02
|  8> C 	 -65.6851 	 53.6608 	 128.757
|  9> C 	 -65.4626 	 55.0016 	 128.312
| 10> C 	 -64.3601 	 55.0258 	 127.39
| 11> C 	 -63.7425 	 53.8198 	 127.086
| 12> H 	 -64.0152 	 55.909 	 126.756
| 13> C 	 -66.2824 	 56.1423 	 128.682
| 14> H 	 -65.6876 	 57.002 	 128.789
| 15> H 	 -66.6708 	 55.9441 	 129.716
| 16> C 	 -67.4691 	 56.5741 	 127.753
| 17> H 	 -68.3156 	 56.0151 	 128.089
| 18> H 	 -67.6261 	 57.5824 	 128.055
| 19> C 	 -67.2736 	 56.467 	 126.247
| 20> H 	 -66.2225 	 56.7794 	 126.041
| 21> H 	 -67.4775 	 55.4368 	 125.984
| 22> H 	 -67.8889 	 57.194 	 125.726
| 23> S 	 -61.2175 	 52.8485 	 127.036
| 24> C 	 -60.2947 	 52.771 	 125.515
| 25> C 	 -61.0082 	 53.24 	 124.435
| 26> C 	 -62.2831 	 53.6905 	 124.865
| 27> C 	 -62.5459 	 53.6118 	 126.252
| 28> H 	 -60.5169 	 53.2117 	 123.497
| 29> C 	 -63.4102 	 54.0424 	 123.85
| 30> H 	 -62.9807 	 54.8965 	 123.362
| 31> H 	 -64.3886 	 54.2857 	 124.311
| 32> C 	 -63.6271 	 52.9221 	 122.748
| 33> H 	 -63.8505 	 51.9354 	 123.274
| 34> H 	 -62.7267 	 53.0651 	 122.169
| 35> C 	 -64.7252 	 53.342 	 121.796
| 36> H 	 -64.6232 	 52.7772 	 120.823
| 37> H 	 -64.8771 	 54.3843 	 121.701
| 38> H 	 -65.6668 	 52.8851 	 122.167
| 39> H 	 -66.537 	 53.4522 	 129.415
| 40> H 	 -59.33 	 52.2359 	 125.344
| 41> *
| 42>
| 43>                          ****END OF INPUT****

CARTESIAN COORDINATES (ANGSTROEM)
---------------------------------
  S    -64.636500   52.540000  128.020000
  C    -65.685100   53.660800  128.757000
  C    -65.462600   55.001600  128.312000
  C    -64.360100   55.025800  127.390000
  C    -63.742500   53.819800  127.086000
  H    -64.015200   55.909000  126.756000
  C    -66.282400   56.142300  128.682000
  H    -65.687600   57.002000  128.789000
  H    -66.670800   55.944100  129.716000
  C    -67.469100   56.574100  127.753000
  H    -68.315600   56.015100  128.089000
  H    -67.626100   57.582400  128.055000
  C    -67.273600   56.467000  126.247000
  H    -66.222500   56.779400  126.041000
  H    -67.477500   55.436800  125.984000
  H    -67.888900   57.194000  125.726000
  S    -61.217500   52.848500  127.036000
  C    -60.294700   52.771000  125.515000
  C    -61.008200   53.240000  124.435000
  C    -62.283100   53.690500  124.865000
  C    -62.545900   53.611800  126.252000
  H    -60.516900   53.211700  123.497000
  C    -63.410200   54.042400  123.850000
  H    -62.980700   54.896500  123.362000
  H    -64.388600   54.285700  124.311000
  C    -63.627100   52.922100  122.748000
  H    -63.850500   51.935400  123.274000
  H    -62.726700   53.065100  122.169000
  C    -64.725200   53.342000  121.796000
  H    -64.623200   52.777200  120.823000
  H    -64.877100   54.384300  121.701000
  H    -65.666800   52.885100  122.167000
  H    -66.537000   53.452200  129.415000
  H    -59.330000   52.235900  125.344000

 Total Charge           Charge          ....    0
 Multiplicity           Mult            ....    1
 Number of Electrons    NEL             ....  134
 Basis Dimension        Dim             ....  322

ORBITAL ENERGIES
----------------

  NO   OCC          E(Eh)            E(eV)
   0   2.0000     -88.968579     -2420.9581
   1   2.0000     -88.964660     -2420.8515
   2   2.0000     -10.334476      -281.2154
   3   2.0000     -10.327425      -281.0235
   4   2.0000     -10.321520      -280.8628
   5   2.0000     -10.318212      -280.7728
   6   2.0000     -10.308568      -280.5104
   7   2.0000     -10.301284      -280.3122
   8   2.0000     -10.300394      -280.2880
   9   2.0000     -10.294448      -280.1262
  10   2.0000     -10.290392      -280.0158
  11   2.0000     -10.289813      -280.0000
  12   2.0000     -10.286464      -279.9089
  13   2.0000     -10.280372      -279.7432
  14   2.0000     -10.279090      -279.7083
  15   2.0000     -10.276944      -279.6499
  16   2.0000      -8.082624      -219.9394
  17   2.0000      -8.079407      -219.8518
  18   2.0000      -6.041055      -164.3855
  19   2.0000      -6.037873      -164.2989
  20   2.0000      -6.037116      -164.2783
  21   2.0000      -6.033849      -164.1894
  22   2.0000      -6.033597      -164.1825
  23   2.0000      -6.030240      -164.0912
  24   2.0000      -1.001512       -27.2525
  25   2.0000      -0.981148       -26.6984
  26   2.0000      -0.912475       -24.8297
  27   2.0000      -0.902850       -24.5678
  28   2.0000      -0.871433       -23.7129
  29   2.0000      -0.848275       -23.0827
  30   2.0000      -0.845728       -23.0134
  31   2.0000      -0.818478       -22.2719
  32   2.0000      -0.779804       -21.2195
  33   2.0000      -0.762833       -20.7578
  34   2.0000      -0.702562       -19.1177
  35   2.0000      -0.698687       -19.0122
  36   2.0000      -0.687836       -18.7170
  37   2.0000      -0.656222       -17.8567
  38   2.0000      -0.635581       -17.2950
  39   2.0000      -0.613290       -16.6885
  40   2.0000      -0.585630       -15.9358
  41   2.0000      -0.579700       -15.7744
  42   2.0000      -0.572640       -15.5823
  43   2.0000      -0.553853       -15.0711
  44   2.0000      -0.539707       -14.6862
  45   2.0000      -0.524676       -14.2772
  46   2.0000      -0.521859       -14.2005
  47   2.0000      -0.507592       -13.8123
  48   2.0000      -0.503032       -13.6882
  49   2.0000      -0.499054       -13.5799
  50   2.0000      -0.485117       -13.2007
  51   2.0000      -0.475876       -12.9492
  52   2.0000      -0.469838       -12.7849
  53   2.0000      -0.465721       -12.6729
  54   2.0000      -0.459194       -12.4953
  55   2.0000      -0.447782       -12.1848
  56   2.0000      -0.438463       -11.9312
  57   2.0000      -0.433540       -11.7972
  58   2.0000      -0.431158       -11.7324
  59   2.0000      -0.423610       -11.5270
  60   2.0000      -0.417498       -11.3607
  61   2.0000      -0.412884       -11.2352
  62   2.0000      -0.402982       -10.9657
  63   2.0000      -0.346379        -9.4254
  64   2.0000      -0.331835        -9.0297
  65   2.0000      -0.320725        -8.7274
  66   2.0000      -0.291764        -7.9393
  67   0.0000       0.032495         0.8842
  68   0.0000       0.059501         1.6191
  69   0.0000       0.114036         3.1031
  70   0.0000       0.122319         3.3285
  71   0.0000       0.125027         3.4021

MULLIKEN ATOMIC CHARGES
-----------------------
   0 S :    0.123578
   1 C :   -0.111664
   2 C :   -0.111787
   3 C :    0.026461
   4 C :   -0.173711
   5 H :    0.041502
   6 C :    0.049534
   7 H :    0.012856
   8 H :    0.026875
   9 C :   -0.052782
  10 H :    0.017084
  11 H :    0.015398
  12 C :   -0.029120
  13 H :    0.022082
  14 H :    0.050112
  15 H :    0.036268
  16 S :    0.106372
  17 C :   -0.115804
  18 C :   -0.030444
  19 C :   -0.019376
  20 C :   -0.165524
  21 H :    0.016813
  22 C :    0.029003
  23 H :    0.021996
  24 H :    0.038154
  25 C :   -0.092739
  26 H :    0.064138
  27 H :    0.026733
  28 C :   -0.046338
  29 H :    0.039412
  30 H :    0.032405
  31 H :    0.025171
  32 H :    0.056830
  33 H :    0.070512
Sum of atomic charges:   -0.0000000

LOEWDIN ATOMIC CHARGES
----------------------
   0 S :    0.403939
   1 C :   -0.212485
   2 C :   -0.073825
   3 C :   -0.062787
   4 C :   -0.194301
   5 H :    0.042377
   6 C :   -0.039526
   7 H :    0.024138
   8 H :    0.039309
   9 C :   -0.032820
  10 H :    0.016890
  11 H :    0.019108
  12 C :   -0.062106
  13 H :    0.027436
  14 H :    0.030605
  15 H :    0.028347
  16 S :    0.412671
  17 C :   -0.179423
  18 C :   -0.071757
  19 C :   -0.050797
  20 C :   -0.218344
  21 H :    0.032410
  22 C :   -0.031679
  23 H :    0.024911
  24 H :    0.027844
  25 C :   -0.043314
  26 H :    0.039394
  27 H :    0.020657
  28 C :   -0.072187
  29 H :    0.033490
  30 H :    0.019651
  31 H :    0.028266
  32 H :    0.034819
  33 H :    0.039090

  Mayer bond orders larger than 0.100000
B(  0-S ,  1-C ) :   1.1709 B(  0-S ,  4-C ) :   1.1266 B(  1-C ,  2-C ) :   1.5587
B(  1-C ,  4-C ) :   0.1025 B(  1-C , 32-H ) :   0.9618 B(  2-C ,  3-C ) :   1.2532
B(  2-C ,  6-C ) :   1.0633 B(  3-C ,  4-C ) :   1.5850 B(  3-C ,  5-H ) :   0.9740
B(  4-C , 20-C ) :   1.0403 B(  6-C ,  7-H ) :   0.9324 B(  6-C ,  8-H ) :   0.9371
B(  6-C ,  9-C ) :   1.0571 B(  9-C , 10-H ) :   0.9588 B(  9-C , 11-H ) :   0.9566
B(  9-C , 12-C ) :   1.0863 B( 12-C , 13-H ) :   0.9736 B( 12-C , 14-H ) :   0.9715
B( 12-C , 15-H ) :   0.9720 B( 16-S , 17-C ) :   1.1651 B( 16-S , 20-C ) :   1.1426
B( 17-C , 18-C ) :   1.6149 B( 17-C , 33-H ) :   0.9573 B( 18-C , 19-C ) :   1.2348
B( 18-C , 21-H ) :   0.9991 B( 19-C , 20-C ) :   1.5829 B( 19-C , 22-C ) :   1.0270
B( 22-C , 23-H ) :   0.9325 B( 22-C , 24-H ) :   0.9492 B( 22-C , 25-C ) :   1.0664
B( 25-C , 26-H ) :   0.9605 B( 25-C , 27-H ) :   0.9514 B( 25-C , 28-C ) :   1.0844
B( 28-C , 29-H ) :   0.9734 B( 28-C , 30-H ) :   0.9721 B( 28-C , 31-H ) :   0.9734

Dispersion correction           -0.014338803
FINAL SINGLE POINT ENERGY     -1339.856206603151

DIPOLE MOMENT
-------------
                                X             Y             Z
Electronic contribution:     17.74700     -13.20577      17.07965
Nuclear contribution   :    -18.08144      13.53091     -17.54605
                        -----------------------------------------
Total Dipole Moment    :     -0.33444       0.32513      -0.46640
                        -----------------------------------------
Magnitude (a.u.)       :      0.65961
Magnitude (Debye)      :      1.67659

Rotational constants in cm-1:     0.017307     0.009200     0.006910
Rotational constants in MHz :   518.862689   275.795692   207.163508

                             ****ORCA TERMINATED NORMALLY****
TOTAL RUN TIME: 0 days 0 hours 0 minutes 33 seconds 560 msec
