                         Program Version 4.2.1 -  RELEASE  -
|  1> ! wB97X-D3 SP def2-SVP
|  2> %pal
|  3> nprocs 16
|  4> end
|  5>
|  6> * xyz 0 1
|  7> S 	 -4.24888 	 -14.9991 	 80.5787
|  8> C 	 -2.79825 	 -14.0337 	 80.6063
|  9> C 	 -3.00609 	 -12.7293 	 80.2775
| 10> C 	 -4.38158 	 -12.4603 	 80.0811
| 11> C 	 -5.16296 	 -13.5736 	 80.2706
| 12> H 	 -4.858 	 -11.4951 	 79.8971
| 13> C 	 -1.8999 	 -11.6273 	 80.2983
| 14> H 	 -0.962238 	 -12.0252 	 80.8527
| 15> H 	 -2.28437 	 -10.7819 	 80.8824
| 16> C 	 -1.42369 	 -11.0277 	 78.9885
| 17> H 	 -0.753645 	 -10.1817 	 79.1205
| 18> H 	 -0.781127 	 -11.6262 	 78.3477
| 19> C 	 -2.58116 	 -10.5757 	 78.1056
| 20> H 	 -3.2086 	 -11.4107 	 77.8012
| 21> H 	 -3.32604 	 -9.95047 	 78.6968
| 22> H 	 -2.26097 	 -10.0725 	 77.2013
| 23> S 	 -7.55828 	 -12.8079 	 79.058
| 24> C 	 -9.02038 	 -13.3676 	 79.8208
| 25> C 	 -8.77642 	 -13.8877 	 81.1182
| 26> C 	 -7.39694 	 -14.0206 	 81.3924
| 27> C 	 -6.62021 	 -13.5575 	 80.3552
| 28> H 	 -9.56885 	 -14.3134 	 81.732
| 29> C 	 -6.96429 	 -14.789 	 82.6718
| 30> H 	 -6.61532 	 -15.7969 	 82.401
| 31> H 	 -7.93727 	 -14.9433 	 83.163
| 32> C 	 -5.97479 	 -14.0133 	 83.5791
| 33> H 	 -6.40796 	 -13.0909 	 83.9694
| 34> H 	 -5.1508 	 -13.7721 	 82.9217
| 35> C 	 -5.52043 	 -14.8727 	 84.7024
| 36> H 	 -4.99398 	 -14.2818 	 85.4759
| 37> H 	 -4.69594 	 -15.579 	 84.452
| 38> H 	 -6.40293 	 -15.3317 	 85.2113
| 39> H 	 -1.80963 	 -14.4937 	 80.6717
| 40> H 	 -10.0344 	 -13.3268 	 79.434
| 41> *
| 42>
| 43>                          ****END OF INPUT****

CARTESIAN COORDINATES (ANGSTROEM)
---------------------------------
  S     -4.248880  -14.999100   80.578700
  C     -2.798250  -14.033700   80.606300
  C     -3.006090  -12.729300   80.277500
  C     -4.381580  -12.460300   80.081100
  C     -5.162960  -13.573600   80.270600
  H     -4.858000  -11.495100   79.897100
  C     -1.899900  -11.627300   80.298300
  H     -0.962238  -12.025200   80.852700
  H     -2.284370  -10.781900   80.882400
  C     -1.423690  -11.027700   78.988500
  H     -0.753645  -10.181700   79.120500
  H     -0.781127  -11.626200   78.347700
  C     -2.581160  -10.575700   78.105600
  H     -3.208600  -11.410700   77.801200
  H     -3.326040   -9.950470   78.696800
  H     -2.260970  -10.072500   77.201300
  S     -7.558280  -12.807900   79.058000
  C     -9.020380  -13.367600   79.820800
  C     -8.776420  -13.887700   81.118200
  C     -7.396940  -14.020600   81.392400
  C     -6.620210  -13.557500   80.355200
  H     -9.568850  -14.313400   81.732000
  C     -6.964290  -14.789000   82.671800
  H     -6.615320  -15.796900   82.401000
  H     -7.937270  -14.943300   83.163000
  C     -5.974790  -14.013300   83.579100
  H     -6.407960  -13.090900   83.969400
  H     -5.150800  -13.772100   82.921700
  C     -5.520430  -14.872700   84.702400
  H     -4.993980  -14.281800   85.475900
  H     -4.695940  -15.579000   84.452000
  H     -6.402930  -15.331700   85.211300
  H     -1.809630  -14.493700   80.671700
  H    -10.034400  -13.326800   79.434000

 Total Charge           Charge          ....    0
 Multiplicity           Mult            ....    1
 Number of Electrons    NEL             ....  134
 Basis Dimension        Dim             ....  322

ORBITAL ENERGIES
----------------

  NO   OCC          E(Eh)            E(eV)
   0   2.0000     -88.971165     -2421.0285
   1   2.0000     -88.969855     -2420.9928
   2   2.0000     -10.324773      -280.9513
   3   2.0000     -10.322699      -280.8949
   4   2.0000     -10.319820      -280.8166
   5   2.0000     -10.312156      -280.6080
   6   2.0000     -10.304831      -280.4087
   7   2.0000     -10.303247      -280.3656
   8   2.0000     -10.298561      -280.2381
   9   2.0000     -10.294198      -280.1194
  10   2.0000     -10.294084      -280.1163
  11   2.0000     -10.292004      -280.0597
  12   2.0000     -10.284233      -279.8482
  13   2.0000     -10.277397      -279.6622
  14   2.0000     -10.276799      -279.6459
  15   2.0000     -10.275948      -279.6227
  16   2.0000      -8.085296      -220.0121
  17   2.0000      -8.084772      -219.9978
  18   2.0000      -6.043786      -164.4598
  19   2.0000      -6.043165      -164.4429
  20   2.0000      -6.039941      -164.3552
  21   2.0000      -6.039363      -164.3394
  22   2.0000      -6.036082      -164.2501
  23   2.0000      -6.035543      -164.2355
  24   2.0000      -1.011677       -27.5291
  25   2.0000      -0.985786       -26.8246
  26   2.0000      -0.911231       -24.7959
  27   2.0000      -0.905796       -24.6480
  28   2.0000      -0.867367       -23.6022
  29   2.0000      -0.855498       -23.2793
  30   2.0000      -0.848269       -23.0826
  31   2.0000      -0.808047       -21.9881
  32   2.0000      -0.781189       -21.2572
  33   2.0000      -0.769205       -20.9311
  34   2.0000      -0.703384       -19.1400
  35   2.0000      -0.700500       -19.0616
  36   2.0000      -0.685860       -18.6632
  37   2.0000      -0.665213       -18.1014
  38   2.0000      -0.641228       -17.4487
  39   2.0000      -0.609720       -16.5913
  40   2.0000      -0.590243       -16.0613
  41   2.0000      -0.568252       -15.4629
  42   2.0000      -0.567418       -15.4402
  43   2.0000      -0.548544       -14.9266
  44   2.0000      -0.541215       -14.7272
  45   2.0000      -0.518850       -14.1186
  46   2.0000      -0.514667       -14.0048
  47   2.0000      -0.507990       -13.8231
  48   2.0000      -0.503619       -13.7042
  49   2.0000      -0.496020       -13.4974
  50   2.0000      -0.487136       -13.2557
  51   2.0000      -0.477833       -13.0025
  52   2.0000      -0.471167       -12.8211
  53   2.0000      -0.466271       -12.6879
  54   2.0000      -0.463201       -12.6044
  55   2.0000      -0.449600       -12.2342
  56   2.0000      -0.444304       -12.0901
  57   2.0000      -0.437824       -11.9138
  58   2.0000      -0.428635       -11.6638
  59   2.0000      -0.424279       -11.5452
  60   2.0000      -0.414953       -11.2915
  61   2.0000      -0.413650       -11.2560
  62   2.0000      -0.407628       -11.0921
  63   2.0000      -0.346426        -9.4267
  64   2.0000      -0.336409        -9.1542
  65   2.0000      -0.335449        -9.1280
  66   2.0000      -0.288913        -7.8617
  67   0.0000       0.031283         0.8513
  68   0.0000       0.068989         1.8773
  69   0.0000       0.105785         2.8785
  70   0.0000       0.117599         3.2000
  71   0.0000       0.128529         3.4974

MULLIKEN ATOMIC CHARGES
-----------------------
   0 S :    0.120086
   1 C :   -0.149237
   2 C :   -0.039678
   3 C :    0.007441
   4 C :   -0.180968
   5 H :    0.015786
   6 C :    0.035895
   7 H :    0.039708
   8 H :    0.041120
   9 C :   -0.039343
  10 H :    0.023499
  11 H :    0.018562
  12 C :   -0.089829
  13 H :    0.042742
  14 H :    0.025500
  15 H :    0.036881
  16 S :    0.126021
  17 C :   -0.095759
  18 C :   -0.050018
  19 C :   -0.036765
  20 C :   -0.156336
  21 H :    0.024431
  22 C :    0.054679
  23 H :    0.042908
  24 H :    0.010294
  25 C :   -0.050620
  26 H :    0.031199
  27 H :    0.042800
  28 C :   -0.054631
  29 H :    0.023756
  30 H :    0.036585
  31 H :    0.034590
  32 H :    0.051263
  33 H :    0.057435
Sum of atomic charges:   -0.0000000

LOEWDIN ATOMIC CHARGES
----------------------
   0 S :    0.428785
   1 C :   -0.200848
   2 C :   -0.063221
   3 C :   -0.069054
   4 C :   -0.198543
   5 H :    0.032021
   6 C :   -0.030572
   7 H :    0.040406
   8 H :    0.035150
   9 C :   -0.048733
  10 H :    0.025508
  11 H :    0.022163
  12 C :   -0.070924
  13 H :    0.024815
  14 H :    0.023955
  15 H :    0.024784
  16 S :    0.410141
  17 C :   -0.191119
  18 C :   -0.071636
  19 C :   -0.060130
  20 C :   -0.198058
  21 H :    0.031632
  22 C :   -0.028936
  23 H :    0.030525
  24 H :    0.026847
  25 C :   -0.042983
  26 H :    0.027312
  27 H :    0.022124
  28 C :   -0.075247
  29 H :    0.026450
  30 H :    0.030083
  31 H :    0.028029
  32 H :    0.028964
  33 H :    0.030309

  Mayer bond orders larger than 0.100000
B(  0-S ,  1-C ) :   1.1324 B(  0-S ,  4-C ) :   1.1661 B(  1-C ,  2-C ) :   1.6381
B(  1-C , 32-H ) :   0.9617 B(  2-C ,  3-C ) :   1.2320 B(  2-C ,  6-C ) :   1.0033
B(  3-C ,  4-C ) :   1.5829 B(  3-C ,  5-H ) :   0.9912 B(  4-C , 20-C ) :   1.0169
B(  6-C ,  7-H ) :   0.9471 B(  6-C ,  8-H ) :   0.9446 B(  6-C ,  9-C ) :   1.0735
B(  9-C , 10-H ) :   0.9530 B(  9-C , 11-H ) :   0.9511 B(  9-C , 12-C ) :   1.0850
B( 12-C , 13-H ) :   0.9680 B( 12-C , 14-H ) :   0.9726 B( 12-C , 15-H ) :   0.9713
B( 16-S , 17-C ) :   1.1606 B( 16-S , 20-C ) :   1.1383 B( 17-C , 18-C ) :   1.5967
B( 17-C , 20-C ) :   0.1024 B( 17-C , 33-H ) :   0.9665 B( 18-C , 19-C ) :   1.2721
B( 18-C , 21-H ) :   0.9801 B( 19-C , 20-C ) :   1.5846 B( 19-C , 22-C ) :   1.0203
B( 22-C , 23-H ) :   0.9418 B( 22-C , 24-H ) :   0.9291 B( 22-C , 25-C ) :   1.0541
B( 25-C , 26-H ) :   0.9526 B( 25-C , 27-H ) :   0.9563 B( 25-C , 28-C ) :   1.1002
B( 28-C , 29-H ) :   0.9701 B( 28-C , 30-H ) :   0.9701 B( 28-C , 31-H ) :   0.9692

Dispersion correction           -0.015207233
FINAL SINGLE POINT ENERGY     -1339.887324627268

DIPOLE MOMENT
-------------
                                X             Y             Z
Electronic contribution:    -11.93260      -7.20077     -10.02636
Nuclear contribution   :     12.09680       7.32152      10.24199
                        -----------------------------------------
Total Dipole Moment    :      0.16420       0.12076       0.21562
                        -----------------------------------------
Magnitude (a.u.)       :      0.29671
Magnitude (Debye)      :      0.75417

Rotational constants in cm-1:     0.018497     0.009836     0.007279
Rotational constants in MHz :   554.514666   294.874812   218.209011

                             ****ORCA TERMINATED NORMALLY****
TOTAL RUN TIME: 0 days 0 hours 0 minutes 35 seconds 159 msec
