                         Program Version 4.2.1 -  RELEASE  -
|  1> ! wB97X-D3 SP def2-SVP
|  2> %pal
|  3> nprocs 16
|  4> end
|  5>
|  6> * xyz 0 1
|  7> S 	 36.7239 	 -0.476249 	 69.2188
|  8> C 	 37.0548 	 0.851997 	 70.2455
|  9> C 	 38.092 	 0.561859 	 71.1303
| 10> C 	 38.5321 	 -0.79655 	 70.9417
| 11> C 	 37.9248 	 -1.54651 	 69.9091
| 12> H 	 39.4255 	 -1.28083 	 71.4198
| 13> C 	 38.8541 	 1.36487 	 72.1778
| 14> H 	 39.1544 	 2.36522 	 71.8204
| 15> H 	 39.7831 	 0.869661 	 72.4813
| 16> C 	 38.0241 	 1.48852 	 73.5061
| 17> H 	 37.1812 	 2.07863 	 73.1983
| 18> H 	 37.5622 	 0.588927 	 73.7904
| 19> C 	 38.8135 	 2.22056 	 74.627
| 20> H 	 38.647 	 3.33196 	 74.5079
| 21> H 	 38.4998 	 1.93698 	 75.5909
| 22> H 	 39.8592 	 1.89615 	 74.5768
| 23> S 	 38.225 	 -4.23695 	 70.0248
| 24> C 	 38.8789 	 -5.14174 	 68.7349
| 25> C 	 39.2134 	 -4.30345 	 67.729
| 26> C 	 39.089 	 -2.91631 	 67.9745
| 27> C 	 38.4391 	 -2.70655 	 69.2248
| 28> H 	 39.5604 	 -4.78212 	 66.7806
| 29> C 	 39.3655 	 -1.84796 	 66.9995
| 30> H 	 39.562 	 -0.972912 	 67.6534
| 31> H 	 38.5255 	 -1.66497 	 66.2915
| 32> C 	 40.6301 	 -2.01802 	 66.1344
| 33> H 	 40.595 	 -2.90942 	 65.4625
| 34> H 	 41.4385 	 -2.08236 	 66.8351
| 35> C 	 40.8187 	 -0.834856 	 65.2038
| 36> H 	 40.1389 	 -0.898798 	 64.279
| 37> H 	 41.85 	 -0.768737 	 64.885
| 38> H 	 40.7457 	 0.137808 	 65.6672
| 39> H 	 36.4948 	 1.76435 	 70.3052
| 40> H 	 39.0596 	 -6.16212 	 68.7969
| 41> *
| 42>
| 43>                          ****END OF INPUT****

CARTESIAN COORDINATES (ANGSTROEM)
---------------------------------
  S     36.723900   -0.476249   69.218800
  C     37.054800    0.851997   70.245500
  C     38.092000    0.561859   71.130300
  C     38.532100   -0.796550   70.941700
  C     37.924800   -1.546510   69.909100
  H     39.425500   -1.280830   71.419800
  C     38.854100    1.364870   72.177800
  H     39.154400    2.365220   71.820400
  H     39.783100    0.869661   72.481300
  C     38.024100    1.488520   73.506100
  H     37.181200    2.078630   73.198300
  H     37.562200    0.588927   73.790400
  C     38.813500    2.220560   74.627000
  H     38.647000    3.331960   74.507900
  H     38.499800    1.936980   75.590900
  H     39.859200    1.896150   74.576800
  S     38.225000   -4.236950   70.024800
  C     38.878900   -5.141740   68.734900
  C     39.213400   -4.303450   67.729000
  C     39.089000   -2.916310   67.974500
  C     38.439100   -2.706550   69.224800
  H     39.560400   -4.782120   66.780600
  C     39.365500   -1.847960   66.999500
  H     39.562000   -0.972912   67.653400
  H     38.525500   -1.664970   66.291500
  C     40.630100   -2.018020   66.134400
  H     40.595000   -2.909420   65.462500
  H     41.438500   -2.082360   66.835100
  C     40.818700   -0.834856   65.203800
  H     40.138900   -0.898798   64.279000
  H     41.850000   -0.768737   64.885000
  H     40.745700    0.137808   65.667200
  H     36.494800    1.764350   70.305200
  H     39.059600   -6.162120   68.796900

 Total Charge           Charge          ....    0
 Multiplicity           Mult            ....    1
 Number of Electrons    NEL             ....  134
 Basis Dimension        Dim             ....  322

ORBITAL ENERGIES
----------------

  NO   OCC          E(Eh)            E(eV)
   0   2.0000     -88.966978     -2420.9145
   1   2.0000     -88.960472     -2420.7375
   2   2.0000     -10.328845      -281.0622
   3   2.0000     -10.326722      -281.0044
   4   2.0000     -10.318299      -280.7752
   5   2.0000     -10.306301      -280.4487
   6   2.0000     -10.305406      -280.4244
   7   2.0000     -10.302565      -280.3470
   8   2.0000     -10.300534      -280.2918
   9   2.0000     -10.298353      -280.2324
  10   2.0000     -10.289579      -279.9937
  11   2.0000     -10.288647      -279.9683
  12   2.0000     -10.285309      -279.8775
  13   2.0000     -10.281577      -279.7759
  14   2.0000     -10.281329      -279.7692
  15   2.0000     -10.278163      -279.6830
  16   2.0000      -8.081895      -219.9195
  17   2.0000      -8.076399      -219.7700
  18   2.0000      -6.040394      -164.3675
  19   2.0000      -6.036017      -164.2484
  20   2.0000      -6.034718      -164.2130
  21   2.0000      -6.032986      -164.1659
  22   2.0000      -6.030513      -164.0986
  23   2.0000      -6.027510      -164.0169
  24   2.0000      -1.009580       -27.4721
  25   2.0000      -0.989251       -26.9189
  26   2.0000      -0.912397       -24.8276
  27   2.0000      -0.908113       -24.7110
  28   2.0000      -0.873486       -23.7688
  29   2.0000      -0.851830       -23.1795
  30   2.0000      -0.845838       -23.0164
  31   2.0000      -0.811720       -22.0880
  32   2.0000      -0.779555       -21.2128
  33   2.0000      -0.770547       -20.9677
  34   2.0000      -0.707330       -19.2474
  35   2.0000      -0.703142       -19.1335
  36   2.0000      -0.698059       -18.9952
  37   2.0000      -0.651960       -17.7407
  38   2.0000      -0.640948       -17.4411
  39   2.0000      -0.616024       -16.7629
  40   2.0000      -0.599885       -16.3237
  41   2.0000      -0.577910       -15.7257
  42   2.0000      -0.572838       -15.5877
  43   2.0000      -0.560507       -15.2522
  44   2.0000      -0.528360       -14.3774
  45   2.0000      -0.523795       -14.2532
  46   2.0000      -0.513949       -13.9853
  47   2.0000      -0.509380       -13.8609
  48   2.0000      -0.507577       -13.8119
  49   2.0000      -0.501764       -13.6537
  50   2.0000      -0.489413       -13.3176
  51   2.0000      -0.477200       -12.9853
  52   2.0000      -0.473196       -12.8763
  53   2.0000      -0.466295       -12.6885
  54   2.0000      -0.457411       -12.4468
  55   2.0000      -0.446060       -12.1379
  56   2.0000      -0.443402       -12.0656
  57   2.0000      -0.437213       -11.8972
  58   2.0000      -0.428899       -11.6709
  59   2.0000      -0.421123       -11.4593
  60   2.0000      -0.419313       -11.4101
  61   2.0000      -0.415635       -11.3100
  62   2.0000      -0.412583       -11.2269
  63   2.0000      -0.338833        -9.2201
  64   2.0000      -0.330889        -9.0039
  65   2.0000      -0.322220        -8.7680
  66   2.0000      -0.300843        -8.1863
  67   0.0000       0.033772         0.9190
  68   0.0000       0.062242         1.6937
  69   0.0000       0.115502         3.1430
  70   0.0000       0.127400         3.4667
  71   0.0000       0.133270         3.6265

MULLIKEN ATOMIC CHARGES
-----------------------
   0 S :    0.124430
   1 C :   -0.110053
   2 C :   -0.085180
   3 C :    0.014862
   4 C :   -0.174885
   5 H :    0.031547
   6 C :    0.050669
   7 H :    0.034186
   8 H :    0.022241
   9 C :   -0.072054
  10 H :    0.013227
  11 H :    0.020270
  12 C :   -0.028549
  13 H :    0.048878
  14 H :    0.023101
  15 H :    0.030218
  16 S :    0.109492
  17 C :   -0.067377
  18 C :   -0.057953
  19 C :    0.002609
  20 C :   -0.180988
  21 H :    0.029875
  22 C :    0.042208
  23 H :    0.035919
  24 H :    0.049859
  25 C :   -0.096312
  26 H :    0.038457
  27 H :    0.025404
  28 C :   -0.047248
  29 H :    0.047137
  30 H :    0.023721
  31 H :    0.020398
  32 H :    0.046495
  33 H :    0.035394
Sum of atomic charges:    0.0000000

LOEWDIN ATOMIC CHARGES
----------------------
   0 S :    0.436291
   1 C :   -0.204530
   2 C :   -0.069366
   3 C :   -0.056982
   4 C :   -0.222106
   5 H :    0.036403
   6 C :   -0.026661
   7 H :    0.030846
   8 H :    0.027192
   9 C :   -0.036724
  10 H :    0.018682
  11 H :    0.016866
  12 C :   -0.064594
  13 H :    0.036689
  14 H :    0.019310
  15 H :    0.025805
  16 S :    0.435413
  17 C :   -0.191318
  18 C :   -0.080220
  19 C :   -0.059345
  20 C :   -0.208459
  21 H :    0.036949
  22 C :   -0.040792
  23 H :    0.038905
  24 H :    0.037601
  25 C :   -0.041252
  26 H :    0.027025
  27 H :    0.021525
  28 C :   -0.072682
  29 H :    0.034676
  30 H :    0.025665
  31 H :    0.021896
  32 H :    0.028884
  33 H :    0.018410

  Mayer bond orders larger than 0.100000
B(  0-S ,  1-C ) :   1.1778 B(  0-S ,  4-C ) :   1.1507 B(  1-C ,  2-C ) :   1.5577
B(  1-C ,  4-C ) :   0.1030 B(  1-C , 32-H ) :   0.9724 B(  2-C ,  3-C ) :   1.2916
B(  2-C ,  6-C ) :   1.0213 B(  3-C ,  4-C ) :   1.5510 B(  3-C ,  5-H ) :   0.9787
B(  4-C , 20-C ) :   1.0220 B(  6-C ,  7-H ) :   0.9468 B(  6-C ,  8-H ) :   0.9457
B(  6-C ,  9-C ) :   1.0473 B(  9-C , 10-H ) :   0.9613 B(  9-C , 11-H ) :   0.9618
B(  9-C , 12-C ) :   1.0684 B( 12-C , 13-H ) :   0.9768 B( 12-C , 14-H ) :   0.9762
B( 12-C , 15-H ) :   0.9765 B( 16-S , 17-C ) :   1.1720 B( 16-S , 20-C ) :   1.1767
B( 17-C , 18-C ) :   1.5801 B( 17-C , 20-C ) :   0.1051 B( 17-C , 33-H ) :   0.9783
B( 18-C , 19-C ) :   1.2620 B( 18-C , 21-H ) :   0.9838 B( 19-C , 20-C ) :   1.5303
B( 19-C , 22-C ) :   1.0556 B( 22-C , 23-H ) :   0.9268 B( 22-C , 24-H ) :   0.9350
B( 22-C , 25-C ) :   1.0707 B( 25-C , 26-H ) :   0.9502 B( 25-C , 27-H ) :   0.9578
B( 25-C , 28-C ) :   1.0962 B( 28-C , 29-H ) :   0.9728 B( 28-C , 30-H ) :   0.9704
B( 28-C , 31-H ) :   0.9699

Dispersion correction           -0.013599902
FINAL SINGLE POINT ENERGY     -1339.871176983189

DIPOLE MOMENT
-------------
                                X             Y             Z
Electronic contribution:    -13.37463     -16.87140      -1.14714
Nuclear contribution   :     13.78911      17.19958       1.13547
                        -----------------------------------------
Total Dipole Moment    :      0.41448       0.32818      -0.01167
                        -----------------------------------------
Magnitude (a.u.)       :      0.52880
Magnitude (Debye)      :      1.34411

Rotational constants in cm-1:     0.019546     0.007239     0.006198
Rotational constants in MHz :   585.964308   217.020804   185.810922

                             ****ORCA TERMINATED NORMALLY****
TOTAL RUN TIME: 0 days 0 hours 0 minutes 28 seconds 470 msec
