                         Program Version 4.2.1 -  RELEASE  -
|  1> ! wB97X-D3 SP def2-SVP
|  2> %pal
|  3> nprocs 16
|  4> end
|  5>
|  6> * xyz 0 1
|  7> S 	 -15.363 	 35.4388 	 38.2158
|  8> C 	 -14.9017 	 36.2887 	 39.6956
|  9> C 	 -14.2592 	 37.4551 	 39.4033
| 10> C 	 -14.0769 	 37.6718 	 38.0043
| 11> C 	 -14.4836 	 36.5828 	 37.2273
| 12> H 	 -13.6092 	 38.4232 	 37.4682
| 13> C 	 -13.7729 	 38.4952 	 40.3855
| 14> H 	 -13.1344 	 39.3056 	 39.9699
| 15> H 	 -13.1027 	 37.87 	 40.9574
| 16> C 	 -14.9462 	 39.0853 	 41.1568
| 17> H 	 -15.513 	 38.2587 	 41.5004
| 18> H 	 -14.4733 	 39.8301 	 41.8292
| 19> C 	 -15.8359 	 39.932 	 40.2009
| 20> H 	 -16.5528 	 40.3902 	 40.8445
| 21> H 	 -15.2894 	 40.7945 	 39.8442
| 22> H 	 -16.4038 	 39.3645 	 39.3656
| 23> S 	 -12.8248 	 36.5588 	 34.9848
| 24> C 	 -13.6472 	 35.9986 	 33.5515
| 25> C 	 -15.0057 	 36.2362 	 33.5299
| 26> C 	 -15.4267 	 36.4203 	 34.8609
| 27> C 	 -14.4046 	 36.472 	 35.7985
| 28> H 	 -15.5894 	 36.1009 	 32.6594
| 29> C 	 -16.9355 	 36.3951 	 35.2246
| 30> H 	 -17.0961 	 36.5417 	 36.2884
| 31> H 	 -17.3206 	 35.4287 	 35.1493
| 32> C 	 -17.7345 	 37.4456 	 34.5323
| 33> H 	 -17.6844 	 37.2814 	 33.4205
| 34> H 	 -17.4615 	 38.4195 	 34.7659
| 35> C 	 -19.2807 	 37.4036 	 34.8784
| 36> H 	 -19.7492 	 36.4968 	 34.5453
| 37> H 	 -19.8553 	 38.2801 	 34.4848
| 38> H 	 -19.4312 	 37.3462 	 35.9244
| 39> H 	 -14.9596 	 36.0225 	 40.7689
| 40> H 	 -13.1316 	 35.7432 	 32.6627
| 41> *
| 42>
| 43>                          ****END OF INPUT****

CARTESIAN COORDINATES (ANGSTROEM)
---------------------------------
  S    -15.363000   35.438800   38.215800
  C    -14.901700   36.288700   39.695600
  C    -14.259200   37.455100   39.403300
  C    -14.076900   37.671800   38.004300
  C    -14.483600   36.582800   37.227300
  H    -13.609200   38.423200   37.468200
  C    -13.772900   38.495200   40.385500
  H    -13.134400   39.305600   39.969900
  H    -13.102700   37.870000   40.957400
  C    -14.946200   39.085300   41.156800
  H    -15.513000   38.258700   41.500400
  H    -14.473300   39.830100   41.829200
  C    -15.835900   39.932000   40.200900
  H    -16.552800   40.390200   40.844500
  H    -15.289400   40.794500   39.844200
  H    -16.403800   39.364500   39.365600
  S    -12.824800   36.558800   34.984800
  C    -13.647200   35.998600   33.551500
  C    -15.005700   36.236200   33.529900
  C    -15.426700   36.420300   34.860900
  C    -14.404600   36.472000   35.798500
  H    -15.589400   36.100900   32.659400
  C    -16.935500   36.395100   35.224600
  H    -17.096100   36.541700   36.288400
  H    -17.320600   35.428700   35.149300
  C    -17.734500   37.445600   34.532300
  H    -17.684400   37.281400   33.420500
  H    -17.461500   38.419500   34.765900
  C    -19.280700   37.403600   34.878400
  H    -19.749200   36.496800   34.545300
  H    -19.855300   38.280100   34.484800
  H    -19.431200   37.346200   35.924400
  H    -14.959600   36.022500   40.768900
  H    -13.131600   35.743200   32.662700

 Total Charge           Charge          ....    0
 Multiplicity           Mult            ....    1
 Number of Electrons    NEL             ....  134
 Basis Dimension        Dim             ....  322

ORBITAL ENERGIES
----------------

  NO   OCC          E(Eh)            E(eV)
   0   2.0000     -88.967848     -2420.9382
   1   2.0000     -88.967797     -2420.9368
   2   2.0000     -10.325551      -280.9725
   3   2.0000     -10.323253      -280.9100
   4   2.0000     -10.315553      -280.7005
   5   2.0000     -10.311565      -280.5919
   6   2.0000     -10.303912      -280.3837
   7   2.0000     -10.295777      -280.1623
   8   2.0000     -10.292437      -280.0715
   9   2.0000     -10.287705      -279.9427
  10   2.0000     -10.287274      -279.9310
  11   2.0000     -10.284653      -279.8596
  12   2.0000     -10.284007      -279.8421
  13   2.0000     -10.282312      -279.7959
  14   2.0000     -10.278052      -279.6800
  15   2.0000     -10.275387      -279.6075
  16   2.0000      -8.082415      -219.9337
  17   2.0000      -8.081529      -219.9096
  18   2.0000      -6.040799      -164.3785
  19   2.0000      -6.040237      -164.3632
  20   2.0000      -6.037431      -164.2869
  21   2.0000      -6.036128      -164.2514
  22   2.0000      -6.032823      -164.1615
  23   2.0000      -6.032191      -164.1443
  24   2.0000      -1.007106       -27.4047
  25   2.0000      -0.985114       -26.8063
  26   2.0000      -0.916111       -24.9286
  27   2.0000      -0.908973       -24.7344
  28   2.0000      -0.869827       -23.6692
  29   2.0000      -0.850203       -23.1352
  30   2.0000      -0.841962       -22.9109
  31   2.0000      -0.812775       -22.1167
  32   2.0000      -0.784229       -21.3399
  33   2.0000      -0.772048       -21.0085
  34   2.0000      -0.708010       -19.2659
  35   2.0000      -0.701178       -19.0800
  36   2.0000      -0.696866       -18.9627
  37   2.0000      -0.662991       -18.0409
  38   2.0000      -0.638251       -17.3677
  39   2.0000      -0.608436       -16.5564
  40   2.0000      -0.600884       -16.3509
  41   2.0000      -0.588299       -16.0084
  42   2.0000      -0.565906       -15.3991
  43   2.0000      -0.546311       -14.8659
  44   2.0000      -0.544720       -14.8226
  45   2.0000      -0.527023       -14.3410
  46   2.0000      -0.520489       -14.1632
  47   2.0000      -0.509453       -13.8629
  48   2.0000      -0.501754       -13.6534
  49   2.0000      -0.491374       -13.3710
  50   2.0000      -0.482738       -13.1360
  51   2.0000      -0.473487       -12.8842
  52   2.0000      -0.465735       -12.6733
  53   2.0000      -0.464292       -12.6340
  54   2.0000      -0.462944       -12.5974
  55   2.0000      -0.459919       -12.5150
  56   2.0000      -0.448661       -12.2087
  57   2.0000      -0.441872       -12.0240
  58   2.0000      -0.431968       -11.7544
  59   2.0000      -0.426720       -11.6117
  60   2.0000      -0.414707       -11.2848
  61   2.0000      -0.413380       -11.2486
  62   2.0000      -0.402919       -10.9640
  63   2.0000      -0.342835        -9.3290
  64   2.0000      -0.334564        -9.1040
  65   2.0000      -0.327129        -8.9016
  66   2.0000      -0.287830        -7.8322
  67   0.0000       0.031126         0.8470
  68   0.0000       0.053776         1.4633
  69   0.0000       0.100142         2.7250
  70   0.0000       0.118352         3.2205
  71   0.0000       0.133586         3.6351

MULLIKEN ATOMIC CHARGES
-----------------------
   0 S :    0.116102
   1 C :   -0.133101
   2 C :   -0.091604
   3 C :    0.053586
   4 C :   -0.179096
   5 H :   -0.022253
   6 C :    0.062497
   7 H :    0.025660
   8 H :    0.029864
   9 C :   -0.048931
  10 H :    0.022850
  11 H :    0.039446
  12 C :   -0.069761
  13 H :    0.021391
  14 H :    0.020647
  15 H :    0.066657
  16 S :    0.113946
  17 C :   -0.072824
  18 C :   -0.015817
  19 C :   -0.011463
  20 C :   -0.163231
  21 H :    0.013821
  22 C :    0.098444
  23 H :    0.007671
  24 H :    0.017492
  25 C :   -0.079524
  26 H :    0.033523
  27 H :    0.023931
  28 C :   -0.050158
  29 H :    0.018154
  30 H :    0.045779
  31 H :    0.014623
  32 H :    0.052589
  33 H :    0.039090
Sum of atomic charges:    0.0000000

LOEWDIN ATOMIC CHARGES
----------------------
   0 S :    0.409112
   1 C :   -0.216544
   2 C :   -0.058210
   3 C :   -0.060170
   4 C :   -0.185061
   5 H :    0.016863
   6 C :   -0.037282
   7 H :    0.030862
   8 H :    0.029880
   9 C :   -0.031373
  10 H :    0.018498
  11 H :    0.032289
  12 C :   -0.071218
  13 H :    0.020647
  14 H :    0.021244
  15 H :    0.039943
  16 S :    0.393639
  17 C :   -0.162338
  18 C :   -0.060458
  19 C :   -0.042619
  20 C :   -0.199005
  21 H :    0.029254
  22 C :   -0.034013
  23 H :    0.021968
  24 H :    0.023809
  25 C :   -0.030658
  26 H :    0.024971
  27 H :    0.017521
  28 C :   -0.065341
  29 H :    0.019285
  30 H :    0.032634
  31 H :    0.016556
  32 H :    0.038717
  33 H :    0.016599

  Mayer bond orders larger than 0.100000
B(  0-S ,  1-C ) :   1.1163 B(  0-S ,  4-C ) :   1.1464 B(  1-C ,  2-C ) :   1.6377
B(  1-C , 32-H ) :   0.9564 B(  2-C ,  3-C ) :   1.2168 B(  2-C ,  6-C ) :   0.9932
B(  3-C ,  4-C ) :   1.5791 B(  3-C ,  5-H ) :   1.0063 B(  4-C , 20-C ) :   1.0528
B(  6-C ,  7-H ) :   0.9502 B(  6-C ,  8-H ) :   0.9364 B(  6-C ,  9-C ) :   1.0745
B(  9-C , 10-H ) :   0.9564 B(  9-C , 11-H ) :   0.9544 B(  9-C , 12-C ) :   1.0785
B( 12-C , 13-H ) :   0.9730 B( 12-C , 14-H ) :   0.9732 B( 12-C , 15-H ) :   0.9713
B( 16-S , 17-C ) :   1.1608 B( 16-S , 20-C ) :   1.1146 B( 17-C , 18-C ) :   1.6187
B( 17-C , 33-H ) :   0.9691 B( 18-C , 19-C ) :   1.2199 B( 18-C , 21-H ) :   0.9995
B( 19-C , 20-C ) :   1.6069 B( 19-C , 22-C ) :   1.0281 B( 22-C , 23-H ) :   0.9206
B( 22-C , 24-H ) :   0.9406 B( 22-C , 25-C ) :   1.0660 B( 25-C , 26-H ) :   0.9580
B( 25-C , 27-H ) :   0.9582 B( 25-C , 28-C ) :   1.0778 B( 28-C , 29-H ) :   0.9752
B( 28-C , 30-H ) :   0.9773 B( 28-C , 31-H ) :   0.9742

Dispersion correction           -0.014456966
FINAL SINGLE POINT ENERGY     -1339.844352403206

DIPOLE MOMENT
-------------
                                X             Y             Z
Electronic contribution:     17.67043     -14.72887      -6.99636
Nuclear contribution   :    -17.87392      15.07652       6.99587
                        -----------------------------------------
Total Dipole Moment    :     -0.20349       0.34764      -0.00049
                        -----------------------------------------
Magnitude (a.u.)       :      0.40282
Magnitude (Debye)      :      1.02388

Rotational constants in cm-1:     0.017973     0.008896     0.007156
Rotational constants in MHz :   538.813612   266.690803   214.531321

                             ****ORCA TERMINATED NORMALLY****
TOTAL RUN TIME: 0 days 0 hours 0 minutes 33 seconds 870 msec
