                         Program Version 4.2.1 -  RELEASE  -
|  1> ! wB97X-D3 SP def2-SVP
|  2> %pal
|  3> nprocs 16
|  4> end
|  5>
|  6> * xyz 0 1
|  7> S 	 50.1947 	 9.05231 	 98.1631
|  8> C 	 50.2886 	 10.7969 	 98.3229
|  9> C 	 49.3529 	 11.4572 	 97.5786
| 10> C 	 48.6973 	 10.5522 	 96.6557
| 11> C 	 49.0222 	 9.24148 	 96.8362
| 12> H 	 47.8868 	 10.7857 	 96.0087
| 13> C 	 49.1311 	 12.9105 	 97.579
| 14> H 	 48.2229 	 13.1148 	 97.0739
| 15> H 	 49.9688 	 13.319 	 97.0272
| 16> C 	 48.9508 	 13.6041 	 98.8987
| 17> H 	 48.3115 	 12.9648 	 99.5665
| 18> H 	 49.9274 	 13.7332 	 99.4014
| 19> C 	 48.2965 	 14.9201 	 98.6223
| 20> H 	 48.2326 	 15.5712 	 99.5039
| 21> H 	 48.8067 	 15.4211 	 97.8323
| 22> H 	 47.2813 	 14.9029 	 98.2
| 23> S 	 49.7488 	 7.07814 	 95.3685
| 24> C 	 48.464 	 6.03872 	 94.803
| 25> C 	 47.189 	 6.46855 	 95.0959
| 26> C 	 47.2283 	 7.75466 	 95.7233
| 27> C 	 48.5307 	 8.1071 	 96.085
| 28> H 	 46.2921 	 5.98759 	 94.7681
| 29> C 	 45.9394 	 8.45959 	 96.1255
| 30> H 	 45.2132 	 8.24834 	 95.3184
| 31> H 	 46.0158 	 9.54338 	 95.9667
| 32> C 	 45.3086 	 8.09536 	 97.494
| 33> H 	 45.0189 	 7.13817 	 97.4966
| 34> H 	 44.3714 	 8.67239 	 97.5448
| 35> C 	 46.1786 	 8.31756 	 98.7384
| 36> H 	 45.7719 	 7.95181 	 99.7183
| 37> H 	 46.4007 	 9.41763 	 98.8501
| 38> H 	 47.1283 	 7.75521 	 98.5562
| 39> H 	 50.876 	 11.3161 	 99.071
| 40> H 	 48.6662 	 5.19699 	 94.1966
| 41> *
| 42>
| 43>                          ****END OF INPUT****

CARTESIAN COORDINATES (ANGSTROEM)
---------------------------------
  S     50.194700    9.052310   98.163100
  C     50.288600   10.796900   98.322900
  C     49.352900   11.457200   97.578600
  C     48.697300   10.552200   96.655700
  C     49.022200    9.241480   96.836200
  H     47.886800   10.785700   96.008700
  C     49.131100   12.910500   97.579000
  H     48.222900   13.114800   97.073900
  H     49.968800   13.319000   97.027200
  C     48.950800   13.604100   98.898700
  H     48.311500   12.964800   99.566500
  H     49.927400   13.733200   99.401400
  C     48.296500   14.920100   98.622300
  H     48.232600   15.571200   99.503900
  H     48.806700   15.421100   97.832300
  H     47.281300   14.902900   98.200000
  S     49.748800    7.078140   95.368500
  C     48.464000    6.038720   94.803000
  C     47.189000    6.468550   95.095900
  C     47.228300    7.754660   95.723300
  C     48.530700    8.107100   96.085000
  H     46.292100    5.987590   94.768100
  C     45.939400    8.459590   96.125500
  H     45.213200    8.248340   95.318400
  H     46.015800    9.543380   95.966700
  C     45.308600    8.095360   97.494000
  H     45.018900    7.138170   97.496600
  H     44.371400    8.672390   97.544800
  C     46.178600    8.317560   98.738400
  H     45.771900    7.951810   99.718300
  H     46.400700    9.417630   98.850100
  H     47.128300    7.755210   98.556200
  H     50.876000   11.316100   99.071000
  H     48.666200    5.196990   94.196600

 Total Charge           Charge          ....    0
 Multiplicity           Mult            ....    1
 Number of Electrons    NEL             ....  134
 Basis Dimension        Dim             ....  322

ORBITAL ENERGIES
----------------

  NO   OCC          E(Eh)            E(eV)
   0   2.0000     -88.967851     -2420.9383
   1   2.0000     -88.963266     -2420.8135
   2   2.0000     -10.324716      -280.9498
   3   2.0000     -10.324025      -280.9310
   4   2.0000     -10.313715      -280.6505
   5   2.0000     -10.307599      -280.4840
   6   2.0000     -10.304246      -280.3928
   7   2.0000     -10.296312      -280.1769
   8   2.0000     -10.294760      -280.1347
   9   2.0000     -10.293359      -280.0965
  10   2.0000     -10.288590      -279.9668
  11   2.0000     -10.287549      -279.9384
  12   2.0000     -10.281375      -279.7704
  13   2.0000     -10.278773      -279.6996
  14   2.0000     -10.278599      -279.6949
  15   2.0000     -10.276188      -279.6293
  16   2.0000      -8.082763      -219.9432
  17   2.0000      -8.077392      -219.7970
  18   2.0000      -6.041084      -164.3863
  19   2.0000      -6.037381      -164.2855
  20   2.0000      -6.035997      -164.2478
  21   2.0000      -6.033567      -164.1817
  22   2.0000      -6.032116      -164.1422
  23   2.0000      -6.027962      -164.0292
  24   2.0000      -1.005736       -27.3675
  25   2.0000      -0.982705       -26.7408
  26   2.0000      -0.924767       -25.1642
  27   2.0000      -0.905536       -24.6409
  28   2.0000      -0.871760       -23.7218
  29   2.0000      -0.850591       -23.1457
  30   2.0000      -0.847239       -23.0545
  31   2.0000      -0.813434       -22.1347
  32   2.0000      -0.782537       -21.2939
  33   2.0000      -0.768982       -20.9251
  34   2.0000      -0.709873       -19.3166
  35   2.0000      -0.703580       -19.1454
  36   2.0000      -0.690763       -18.7966
  37   2.0000      -0.665770       -18.1165
  38   2.0000      -0.639516       -17.4021
  39   2.0000      -0.615240       -16.7415
  40   2.0000      -0.599119       -16.3029
  41   2.0000      -0.580720       -15.8022
  42   2.0000      -0.567112       -15.4319
  43   2.0000      -0.545311       -14.8387
  44   2.0000      -0.543371       -14.7859
  45   2.0000      -0.525555       -14.3011
  46   2.0000      -0.519911       -14.1475
  47   2.0000      -0.503426       -13.6989
  48   2.0000      -0.499691       -13.5973
  49   2.0000      -0.494327       -13.4513
  50   2.0000      -0.489320       -13.3151
  51   2.0000      -0.476741       -12.9728
  52   2.0000      -0.471820       -12.8389
  53   2.0000      -0.465718       -12.6728
  54   2.0000      -0.458194       -12.4681
  55   2.0000      -0.450441       -12.2571
  56   2.0000      -0.446850       -12.1594
  57   2.0000      -0.437507       -11.9052
  58   2.0000      -0.432412       -11.7665
  59   2.0000      -0.426345       -11.6014
  60   2.0000      -0.418497       -11.3879
  61   2.0000      -0.415390       -11.3033
  62   2.0000      -0.414729       -11.2853
  63   2.0000      -0.346670        -9.4334
  64   2.0000      -0.334541        -9.1033
  65   2.0000      -0.325240        -8.8502
  66   2.0000      -0.289560        -7.8793
  67   0.0000       0.031520         0.8577
  68   0.0000       0.070802         1.9266
  69   0.0000       0.108004         2.9389
  70   0.0000       0.112747         3.0680
  71   0.0000       0.134545         3.6612

MULLIKEN ATOMIC CHARGES
-----------------------
   0 S :    0.105244
   1 C :   -0.119202
   2 C :   -0.102115
   3 C :    0.046000
   4 C :   -0.145970
   5 H :   -0.004083
   6 C :    0.082278
   7 H :    0.000869
   8 H :    0.048882
   9 C :   -0.081883
  10 H :    0.039448
  11 H :    0.033640
  12 C :   -0.043907
  13 H :    0.035622
  14 H :    0.016329
  15 H :    0.029960
  16 S :    0.124477
  17 C :   -0.075215
  18 C :   -0.012709
  19 C :   -0.051023
  20 C :   -0.171102
  21 H :    0.012009
  22 C :    0.044663
  23 H :    0.017947
  24 H :    0.015916
  25 C :    0.009110
  26 H :   -0.006323
  27 H :    0.024755
  28 C :   -0.085783
  29 H :    0.042233
  30 H :    0.039800
  31 H :    0.045839
  32 H :    0.042677
  33 H :    0.041616
Sum of atomic charges:    0.0000000

LOEWDIN ATOMIC CHARGES
----------------------
   0 S :    0.382923
   1 C :   -0.196384
   2 C :   -0.060872
   3 C :   -0.059402
   4 C :   -0.180959
   5 H :    0.023925
   6 C :   -0.035190
   7 H :    0.025414
   8 H :    0.040437
   9 C :   -0.042187
  10 H :    0.029959
  11 H :    0.025169
  12 C :   -0.068647
  13 H :    0.027542
  14 H :    0.021593
  15 H :    0.027798
  16 S :    0.416133
  17 C :   -0.175819
  18 C :   -0.063343
  19 C :   -0.054657
  20 C :   -0.202776
  21 H :    0.030214
  22 C :   -0.035387
  23 H :    0.035594
  24 H :    0.027018
  25 C :   -0.029698
  26 H :    0.005648
  27 H :    0.027295
  28 C :   -0.073738
  29 H :    0.029737
  30 H :    0.029251
  31 H :    0.029657
  32 H :    0.025927
  33 H :    0.017823

  Mayer bond orders larger than 0.100000
B(  0-S ,  1-C ) :   1.1174 B(  0-S ,  4-C ) :   1.1310 B(  1-C ,  2-C ) :   1.6374
B(  1-C , 32-H ) :   0.9677 B(  2-C ,  3-C ) :   1.2092 B(  2-C ,  6-C ) :   1.0289
B(  3-C ,  4-C ) :   1.6161 B(  3-C ,  5-H ) :   0.9947 B(  4-C , 20-C ) :   1.0439
B(  6-C ,  7-H ) :   0.9423 B(  6-C ,  8-H ) :   0.9198 B(  6-C ,  9-C ) :   1.0668
B(  9-C , 10-H ) :   0.9602 B(  9-C , 11-H ) :   0.9443 B(  9-C , 12-C ) :   1.0942
B( 12-C , 13-H ) :   0.9714 B( 12-C , 14-H ) :   0.9671 B( 12-C , 15-H ) :   0.9701
B( 16-S , 17-C ) :   1.1542 B( 16-S , 20-C ) :   1.1533 B( 17-C , 18-C ) :   1.6061
B( 17-C , 33-H ) :   0.9713 B( 18-C , 19-C ) :   1.2388 B( 18-C , 21-H ) :   0.9914
B( 19-C , 20-C ) :   1.5861 B( 19-C , 22-C ) :   1.0480 B( 22-C , 23-H ) :   0.9244
B( 22-C , 24-H ) :   0.9346 B( 22-C , 25-C ) :   1.0698 B( 25-C , 26-H ) :   0.9511
B( 25-C , 27-H ) :   0.9494 B( 25-C , 28-C ) :   1.0795 B( 28-C , 29-H ) :   0.9738
B( 28-C , 30-H ) :   0.9754 B( 28-C , 31-H ) :   0.9690

Dispersion correction           -0.015317077
FINAL SINGLE POINT ENERGY     -1339.881985820678

DIPOLE MOMENT
-------------
                                X             Y             Z
Electronic contribution:     16.87516     -20.30214      -9.47357
Nuclear contribution   :    -17.44002      20.70351       9.36394
                        -----------------------------------------
Total Dipole Moment    :     -0.56486       0.40137      -0.10963
                        -----------------------------------------
Magnitude (a.u.)       :      0.70155
Magnitude (Debye)      :      1.78321

Rotational constants in cm-1:     0.022453     0.008251     0.007013
Rotational constants in MHz :   673.115995   247.368621   210.250342

                             ****ORCA TERMINATED NORMALLY****
TOTAL RUN TIME: 0 days 0 hours 0 minutes 30 seconds 994 msec
