                         Program Version 4.2.1 -  RELEASE  -
|  1> ! wB97X-D3 SP def2-SVP
|  2> %pal
|  3> nprocs 16
|  4> end
|  5>
|  6> * xyz 0 1
|  7> S 	 -67.2669 	 49.8246 	 123.26
|  8> C 	 -66.9108 	 50.3824 	 124.845
|  9> C 	 -66.736 	 49.4041 	 125.807
| 10> C 	 -67.0956 	 48.1506 	 125.252
| 11> C 	 -67.3923 	 48.1788 	 123.919
| 12> H 	 -67.1729 	 47.2344 	 125.888
| 13> C 	 -66.4499 	 49.6684 	 127.314
| 14> H 	 -67.3645 	 50.298 	 127.525
| 15> H 	 -65.4976 	 50.2372 	 127.389
| 16> C 	 -66.1864 	 48.4465 	 128.124
| 17> H 	 -67.0624 	 47.8798 	 128.204
| 18> H 	 -65.5734 	 47.8186 	 127.542
| 19> C 	 -65.6544 	 48.8265 	 129.501
| 20> H 	 -66.2414 	 49.6613 	 129.959
| 21> H 	 -65.772 	 48.0145 	 130.202
| 22> H 	 -64.5831 	 49.1167 	 129.534
| 23> S 	 -66.6594 	 46.2054 	 122
| 24> C 	 -67.8496 	 45.1414 	 121.326
| 25> C 	 -69.0779 	 45.3081 	 121.956
| 26> C 	 -69.0942 	 46.3479 	 122.912
| 27> C 	 -67.8089 	 46.9858 	 123.093
| 28> H 	 -69.9115 	 44.646 	 121.747
| 29> C 	 -70.1735 	 46.5887 	 123.906
| 30> H 	 -71.0989 	 46.3867 	 123.416
| 31> H 	 -70.3035 	 47.6567 	 124.019
| 32> C 	 -70.1702 	 45.7951 	 125.283
| 33> H 	 -69.3592 	 46.2002 	 125.809
| 34> H 	 -70.0071 	 44.7868 	 125.108
| 35> C 	 -71.5303 	 46.1216 	 125.987
| 36> H 	 -71.5855 	 47.0844 	 126.577
| 37> H 	 -71.6645 	 45.3172 	 126.75
| 38> H 	 -72.3725 	 46.2751 	 125.35
| 39> H 	 -66.69 	 51.4531 	 125.038
| 40> H 	 -67.6422 	 44.454 	 120.51
| 41> *
| 42>
| 43>                          ****END OF INPUT****

CARTESIAN COORDINATES (ANGSTROEM)
---------------------------------
  S    -67.266900   49.824600  123.260000
  C    -66.910800   50.382400  124.845000
  C    -66.736000   49.404100  125.807000
  C    -67.095600   48.150600  125.252000
  C    -67.392300   48.178800  123.919000
  H    -67.172900   47.234400  125.888000
  C    -66.449900   49.668400  127.314000
  H    -67.364500   50.298000  127.525000
  H    -65.497600   50.237200  127.389000
  C    -66.186400   48.446500  128.124000
  H    -67.062400   47.879800  128.204000
  H    -65.573400   47.818600  127.542000
  C    -65.654400   48.826500  129.501000
  H    -66.241400   49.661300  129.959000
  H    -65.772000   48.014500  130.202000
  H    -64.583100   49.116700  129.534000
  S    -66.659400   46.205400  122.000000
  C    -67.849600   45.141400  121.326000
  C    -69.077900   45.308100  121.956000
  C    -69.094200   46.347900  122.912000
  C    -67.808900   46.985800  123.093000
  H    -69.911500   44.646000  121.747000
  C    -70.173500   46.588700  123.906000
  H    -71.098900   46.386700  123.416000
  H    -70.303500   47.656700  124.019000
  C    -70.170200   45.795100  125.283000
  H    -69.359200   46.200200  125.809000
  H    -70.007100   44.786800  125.108000
  C    -71.530300   46.121600  125.987000
  H    -71.585500   47.084400  126.577000
  H    -71.664500   45.317200  126.750000
  H    -72.372500   46.275100  125.350000
  H    -66.690000   51.453100  125.038000
  H    -67.642200   44.454000  120.510000

 Total Charge           Charge          ....    0
 Multiplicity           Mult            ....    1
 Number of Electrons    NEL             ....  134
 Basis Dimension        Dim             ....  322

ORBITAL ENERGIES
----------------

  NO   OCC          E(Eh)            E(eV)
   0   2.0000     -88.969145     -2420.9735
   1   2.0000     -88.964009     -2420.8338
   2   2.0000     -10.330764      -281.1144
   3   2.0000     -10.329345      -281.0758
   4   2.0000     -10.316695      -280.7316
   5   2.0000     -10.312378      -280.6141
   6   2.0000     -10.301201      -280.3099
   7   2.0000     -10.299119      -280.2533
   8   2.0000     -10.298758      -280.2434
   9   2.0000     -10.296050      -280.1698
  10   2.0000     -10.291947      -280.0581
  11   2.0000     -10.284818      -279.8641
  12   2.0000     -10.283851      -279.8378
  13   2.0000     -10.283707      -279.8339
  14   2.0000     -10.280344      -279.7424
  15   2.0000     -10.280296      -279.7411
  16   2.0000      -8.083800      -219.9714
  17   2.0000      -8.078458      -219.8260
  18   2.0000      -6.042208      -164.4168
  19   2.0000      -6.038402      -164.3133
  20   2.0000      -6.036719      -164.2675
  21   2.0000      -6.034591      -164.2096
  22   2.0000      -6.032766      -164.1599
  23   2.0000      -6.029753      -164.0779
  24   2.0000      -1.001283       -27.2463
  25   2.0000      -0.981880       -26.7183
  26   2.0000      -0.919816       -25.0295
  27   2.0000      -0.902227       -24.5508
  28   2.0000      -0.861540       -23.4437
  29   2.0000      -0.850904       -23.1543
  30   2.0000      -0.846450       -23.0331
  31   2.0000      -0.811519       -22.0826
  32   2.0000      -0.779083       -21.1999
  33   2.0000      -0.763808       -20.7843
  34   2.0000      -0.716228       -19.4895
  35   2.0000      -0.710313       -19.3286
  36   2.0000      -0.684421       -18.6240
  37   2.0000      -0.653182       -17.7740
  38   2.0000      -0.636595       -17.3226
  39   2.0000      -0.621584       -16.9142
  40   2.0000      -0.593242       -16.1429
  41   2.0000      -0.580835       -15.8053
  42   2.0000      -0.565876       -15.3983
  43   2.0000      -0.556935       -15.1550
  44   2.0000      -0.526239       -14.3197
  45   2.0000      -0.521258       -14.1842
  46   2.0000      -0.509866       -13.8742
  47   2.0000      -0.507314       -13.8047
  48   2.0000      -0.503045       -13.6886
  49   2.0000      -0.495020       -13.4702
  50   2.0000      -0.485716       -13.2170
  51   2.0000      -0.477616       -12.9966
  52   2.0000      -0.474976       -12.9248
  53   2.0000      -0.463617       -12.6157
  54   2.0000      -0.455976       -12.4077
  55   2.0000      -0.451321       -12.2811
  56   2.0000      -0.445645       -12.1266
  57   2.0000      -0.435646       -11.8545
  58   2.0000      -0.432710       -11.7746
  59   2.0000      -0.429110       -11.6767
  60   2.0000      -0.424075       -11.5397
  61   2.0000      -0.421346       -11.4654
  62   2.0000      -0.410112       -11.1597
  63   2.0000      -0.340128        -9.2554
  64   2.0000      -0.329433        -8.9643
  65   2.0000      -0.315333        -8.5807
  66   2.0000      -0.302807        -8.2398
  67   0.0000       0.041593         1.1318
  68   0.0000       0.051592         1.4039
  69   0.0000       0.118807         3.2329
  70   0.0000       0.127491         3.4692
  71   0.0000       0.128353         3.4927

MULLIKEN ATOMIC CHARGES
-----------------------
   0 S :    0.138237
   1 C :   -0.150105
   2 C :   -0.099018
   3 C :    0.001948
   4 C :   -0.149426
   5 H :    0.036472
   6 C :    0.031164
   7 H :    0.062246
   8 H :    0.038819
   9 C :   -0.042379
  10 H :    0.013086
  11 H :    0.023594
  12 C :   -0.040594
  13 H :    0.035600
  14 H :    0.026015
  15 H :    0.043716
  16 S :    0.112093
  17 C :   -0.105649
  18 C :   -0.030752
  19 C :   -0.029566
  20 C :   -0.195485
  21 H :    0.019757
  22 C :    0.039942
  23 H :   -0.006709
  24 H :    0.022759
  25 C :    0.030117
  26 H :    0.010010
  27 H :    0.020555
  28 C :   -0.080797
  29 H :    0.035542
  30 H :    0.041591
  31 H :    0.028915
  32 H :    0.054293
  33 H :    0.064008
Sum of atomic charges:   -0.0000000

LOEWDIN ATOMIC CHARGES
----------------------
   0 S :    0.416427
   1 C :   -0.209012
   2 C :   -0.072900
   3 C :   -0.064941
   4 C :   -0.197487
   5 H :    0.038100
   6 C :   -0.033278
   7 H :    0.045439
   8 H :    0.036776
   9 C :   -0.044970
  10 H :    0.017782
  11 H :    0.023251
  12 C :   -0.063948
  13 H :    0.032475
  14 H :    0.024199
  15 H :    0.030357
  16 S :    0.416131
  17 C :   -0.193390
  18 C :   -0.078299
  19 C :   -0.056880
  20 C :   -0.205948
  21 H :    0.033032
  22 C :   -0.039131
  23 H :    0.019630
  24 H :    0.032241
  25 C :   -0.013255
  26 H :    0.017089
  27 H :    0.016480
  28 C :   -0.071791
  29 H :    0.033396
  30 H :    0.030984
  31 H :    0.019352
  32 H :    0.030449
  33 H :    0.031640

  Mayer bond orders larger than 0.100000
B(  0-S ,  1-C ) :   1.1631 B(  0-S ,  4-C ) :   1.1418 B(  1-C ,  2-C ) :   1.6192
B(  1-C , 32-H ) :   0.9608 B(  2-C ,  3-C ) :   1.2669 B(  2-C ,  6-C ) :   0.9819
B(  3-C ,  4-C ) :   1.5879 B(  3-C ,  5-H ) :   0.9729 B(  4-C , 20-C ) :   1.0146
B(  6-C ,  7-H ) :   0.9393 B(  6-C ,  8-H ) :   0.9439 B(  6-C ,  9-C ) :   1.0919
B(  9-C , 10-H ) :   0.9378 B(  9-C , 11-H ) :   0.9491 B(  9-C , 12-C ) :   1.0847
B( 12-C , 13-H ) :   0.9724 B( 12-C , 14-H ) :   0.9726 B( 12-C , 15-H ) :   0.9736
B( 16-S , 17-C ) :   1.1888 B( 16-S , 20-C ) :   1.1667 B( 17-C , 18-C ) :   1.5437
B( 17-C , 20-C ) :   0.1121 B( 17-C , 33-H ) :   0.9679 B( 18-C , 19-C ) :   1.2963
B( 18-C , 21-H ) :   0.9923 B( 19-C , 20-C ) :   1.5195 B( 19-C , 22-C ) :   1.0696
B( 22-C , 23-H ) :   0.9275 B( 22-C , 24-H ) :   0.9236 B( 22-C , 25-C ) :   1.0471
B( 25-C , 26-H ) :   0.9518 B( 25-C , 27-H ) :   0.9616 B( 25-C , 28-C ) :   1.0634
B( 28-C , 29-H ) :   0.9758 B( 28-C , 30-H ) :   0.9766 B( 28-C , 31-H ) :   0.9798

Dispersion correction           -0.014220959
FINAL SINGLE POINT ENERGY     -1339.865572401680

DIPOLE MOMENT
-------------
                                X             Y             Z
Electronic contribution:      9.32720       2.84129     -28.23942
Nuclear contribution   :     -9.56053      -2.94545      28.87774
                        -----------------------------------------
Total Dipole Moment    :     -0.23333      -0.10416       0.63832
                        -----------------------------------------
Magnitude (a.u.)       :      0.68757
Magnitude (Debye)      :      1.74766

Rotational constants in cm-1:     0.016855     0.008617     0.006985
Rotational constants in MHz :   505.310501   258.337519   209.407680

                             ****ORCA TERMINATED NORMALLY****
TOTAL RUN TIME: 0 days 0 hours 0 minutes 33 seconds 288 msec
