                         Program Version 4.2.1 -  RELEASE  -
|  1> ! wB97X-D3 SP def2-SVP
|  2> %pal
|  3> nprocs 16
|  4> end
|  5>
|  6> * xyz 0 1
|  7> S 	 -66.2767 	 60.8158 	 126.717
|  8> C 	 -65.2713 	 61.6743 	 127.869
|  9> C 	 -65.9103 	 62.7964 	 128.376
| 10> C 	 -67.1656 	 63.0656 	 127.77
| 11> C 	 -67.4426 	 62.0819 	 126.805
| 12> H 	 -67.7558 	 63.9368 	 127.746
| 13> C 	 -65.3492 	 63.6698 	 129.411
| 14> H 	 -64.6956 	 63.0264 	 129.997
| 15> H 	 -66.0671 	 64.0165 	 130.14
| 16> C 	 -64.6831 	 64.8823 	 128.864
| 17> H 	 -63.7912 	 64.5105 	 128.393
| 18> H 	 -65.3052 	 65.3982 	 128.101
| 19> C 	 -64.0496 	 65.8479 	 129.929
| 20> H 	 -63.3462 	 65.4267 	 130.609
| 21> H 	 -63.5204 	 66.6648 	 129.433
| 22> H 	 -64.7942 	 66.1975 	 130.58
| 23> S 	 -70.1259 	 62.1463 	 126.672
| 24> C 	 -71.0224 	 61.9889 	 125.123
| 25> C 	 -70.0716 	 62.0469 	 124.096
| 26> C 	 -68.6678 	 62.2414 	 124.498
| 27> C 	 -68.6009 	 62.179 	 125.886
| 28> H 	 -70.4154 	 61.9778 	 123.075
| 29> C 	 -67.5436 	 62.4031 	 123.503
| 30> H 	 -66.6351 	 62.6372 	 124.036
| 31> H 	 -67.6089 	 63.2718 	 122.822
| 32> C 	 -67.3384 	 61.1451 	 122.663
| 33> H 	 -68.017 	 61.2749 	 121.816
| 34> H 	 -67.6535 	 60.1851 	 123.152
| 35> C 	 -65.972 	 61.0133 	 121.974
| 36> H 	 -65.8588 	 61.89 	 121.31
| 37> H 	 -65.8087 	 60.028 	 121.514
| 38> H 	 -65.2684 	 61.2103 	 122.766
| 39> H 	 -64.2795 	 61.3716 	 128.204
| 40> H 	 -72.0888 	 61.9981 	 125.062
| 41> *
| 42>
| 43>                          ****END OF INPUT****

CARTESIAN COORDINATES (ANGSTROEM)
---------------------------------
  S    -66.276700   60.815800  126.717000
  C    -65.271300   61.674300  127.869000
  C    -65.910300   62.796400  128.376000
  C    -67.165600   63.065600  127.770000
  C    -67.442600   62.081900  126.805000
  H    -67.755800   63.936800  127.746000
  C    -65.349200   63.669800  129.411000
  H    -64.695600   63.026400  129.997000
  H    -66.067100   64.016500  130.140000
  C    -64.683100   64.882300  128.864000
  H    -63.791200   64.510500  128.393000
  H    -65.305200   65.398200  128.101000
  C    -64.049600   65.847900  129.929000
  H    -63.346200   65.426700  130.609000
  H    -63.520400   66.664800  129.433000
  H    -64.794200   66.197500  130.580000
  S    -70.125900   62.146300  126.672000
  C    -71.022400   61.988900  125.123000
  C    -70.071600   62.046900  124.096000
  C    -68.667800   62.241400  124.498000
  C    -68.600900   62.179000  125.886000
  H    -70.415400   61.977800  123.075000
  C    -67.543600   62.403100  123.503000
  H    -66.635100   62.637200  124.036000
  H    -67.608900   63.271800  122.822000
  C    -67.338400   61.145100  122.663000
  H    -68.017000   61.274900  121.816000
  H    -67.653500   60.185100  123.152000
  C    -65.972000   61.013300  121.974000
  H    -65.858800   61.890000  121.310000
  H    -65.808700   60.028000  121.514000
  H    -65.268400   61.210300  122.766000
  H    -64.279500   61.371600  128.204000
  H    -72.088800   61.998100  125.062000

 Total Charge           Charge          ....    0
 Multiplicity           Mult            ....    1
 Number of Electrons    NEL             ....  134
 Basis Dimension        Dim             ....  322

ORBITAL ENERGIES
----------------

  NO   OCC          E(Eh)            E(eV)
   0   2.0000     -88.972799     -2421.0730
   1   2.0000     -88.961855     -2420.7751
   2   2.0000     -10.329064      -281.0681
   3   2.0000     -10.326111      -280.9878
   4   2.0000     -10.320594      -280.8376
   5   2.0000     -10.313953      -280.6569
   6   2.0000     -10.308509      -280.5088
   7   2.0000     -10.299719      -280.2696
   8   2.0000     -10.298409      -280.2340
   9   2.0000     -10.292758      -280.0802
  10   2.0000     -10.290579      -280.0209
  11   2.0000     -10.284953      -279.8678
  12   2.0000     -10.283688      -279.8334
  13   2.0000     -10.281704      -279.7794
  14   2.0000     -10.277406      -279.6624
  15   2.0000     -10.273117      -279.5457
  16   2.0000      -8.087276      -220.0660
  17   2.0000      -8.076595      -219.7753
  18   2.0000      -6.045668      -164.5110
  19   2.0000      -6.041762      -164.4047
  20   2.0000      -6.038254      -164.3092
  21   2.0000      -6.035224      -164.2268
  22   2.0000      -6.031015      -164.1123
  23   2.0000      -6.027296      -164.0111
  24   2.0000      -1.006644       -27.3922
  25   2.0000      -0.981327       -26.7033
  26   2.0000      -0.919645       -25.0248
  27   2.0000      -0.909439       -24.7471
  28   2.0000      -0.864762       -23.5314
  29   2.0000      -0.853389       -23.2219
  30   2.0000      -0.844735       -22.9864
  31   2.0000      -0.813014       -22.1232
  32   2.0000      -0.784157       -21.3380
  33   2.0000      -0.771242       -20.9866
  34   2.0000      -0.705273       -19.1914
  35   2.0000      -0.697029       -18.9671
  36   2.0000      -0.693086       -18.8598
  37   2.0000      -0.662242       -18.0205
  38   2.0000      -0.644216       -17.5300
  39   2.0000      -0.616166       -16.7667
  40   2.0000      -0.599534       -16.3142
  41   2.0000      -0.576036       -15.6747
  42   2.0000      -0.562830       -15.3154
  43   2.0000      -0.556745       -15.1498
  44   2.0000      -0.531538       -14.4639
  45   2.0000      -0.529378       -14.4051
  46   2.0000      -0.516421       -14.0525
  47   2.0000      -0.514241       -13.9932
  48   2.0000      -0.508847       -13.8464
  49   2.0000      -0.500934       -13.6311
  50   2.0000      -0.487268       -13.2592
  51   2.0000      -0.478237       -13.0135
  52   2.0000      -0.470708       -12.8086
  53   2.0000      -0.466208       -12.6862
  54   2.0000      -0.458342       -12.4721
  55   2.0000      -0.448314       -12.1992
  56   2.0000      -0.443550       -12.0696
  57   2.0000      -0.440231       -11.9793
  58   2.0000      -0.435073       -11.8389
  59   2.0000      -0.427233       -11.6256
  60   2.0000      -0.421677       -11.4744
  61   2.0000      -0.408633       -11.1195
  62   2.0000      -0.403536       -10.9808
  63   2.0000      -0.339606        -9.2411
  64   2.0000      -0.333916        -9.0863
  65   2.0000      -0.322472        -8.7749
  66   2.0000      -0.297574        -8.0974
  67   0.0000       0.034295         0.9332
  68   0.0000       0.068204         1.8559
  69   0.0000       0.106602         2.9008
  70   0.0000       0.112803         3.0695
  71   0.0000       0.134465         3.6590

MULLIKEN ATOMIC CHARGES
-----------------------
   0 S :    0.138680
   1 C :   -0.127953
   2 C :   -0.074627
   3 C :    0.042614
   4 C :   -0.158652
   5 H :    0.010149
   6 C :    0.084903
   7 H :    0.009578
   8 H :    0.015915
   9 C :   -0.078535
  10 H :    0.015243
  11 H :    0.040592
  12 C :   -0.017585
  13 H :    0.017608
  14 H :    0.038684
  15 H :    0.012603
  16 S :    0.099865
  17 C :   -0.096356
  18 C :   -0.032811
  19 C :   -0.019239
  20 C :   -0.189586
  21 H :    0.020130
  22 C :    0.089262
  23 H :    0.012434
  24 H :    0.035201
  25 C :   -0.127940
  26 H :    0.024684
  27 H :    0.046588
  28 C :   -0.031639
  29 H :    0.026440
  30 H :    0.052393
  31 H :    0.020085
  32 H :    0.043644
  33 H :    0.057626
Sum of atomic charges:   -0.0000000

LOEWDIN ATOMIC CHARGES
----------------------
   0 S :    0.426814
   1 C :   -0.204724
   2 C :   -0.055233
   3 C :   -0.058353
   4 C :   -0.199327
   5 H :    0.026962
   6 C :   -0.038719
   7 H :    0.029481
   8 H :    0.027986
   9 C :   -0.037330
  10 H :    0.022334
  11 H :    0.029718
  12 C :   -0.061218
  13 H :    0.021941
  14 H :    0.030333
  15 H :    0.014398
  16 S :    0.402891
  17 C :   -0.176845
  18 C :   -0.060401
  19 C :   -0.056792
  20 C :   -0.205976
  21 H :    0.027106
  22 C :   -0.035083
  23 H :    0.024026
  24 H :    0.037465
  25 C :   -0.049846
  26 H :    0.020928
  27 H :    0.028557
  28 C :   -0.065144
  29 H :    0.026962
  30 H :    0.032512
  31 H :    0.019745
  32 H :    0.028541
  33 H :    0.026287

  Mayer bond orders larger than 0.100000
B(  0-S ,  1-C ) :   1.1283 B(  0-S ,  4-C ) :   1.1752 B(  1-C ,  2-C ) :   1.6131
B(  1-C , 32-H ) :   0.9654 B(  2-C ,  3-C ) :   1.2361 B(  2-C ,  6-C ) :   1.0390
B(  3-C ,  4-C ) :   1.5576 B(  3-C ,  5-H ) :   0.9964 B(  4-C , 20-C ) :   0.9977
B(  6-C ,  7-H ) :   0.9314 B(  6-C ,  8-H ) :   0.9344 B(  6-C ,  9-C ) :   1.0639
B(  9-C , 10-H ) :   0.9521 B(  9-C , 11-H ) :   0.9595 B(  9-C , 12-C ) :   1.0746
B( 12-C , 13-H ) :   0.9740 B( 12-C , 14-H ) :   0.9758 B( 12-C , 15-H ) :   0.9745
B( 16-S , 17-C ) :   1.1262 B( 16-S , 20-C ) :   1.1668 B( 17-C , 18-C ) :   1.6173
B( 17-C , 33-H ) :   0.9777 B( 18-C , 19-C ) :   1.2058 B( 18-C , 21-H ) :   0.9885
B( 19-C , 20-C ) :   1.5964 B( 19-C , 22-C ) :   1.0605 B( 22-C , 23-H ) :   0.9336
B( 22-C , 24-H ) :   0.9313 B( 22-C , 25-C ) :   1.0388 B( 25-C , 26-H ) :   0.9529
B( 25-C , 27-H ) :   0.9642 B( 25-C , 28-C ) :   1.0799 B( 28-C , 29-H ) :   0.9713
B( 28-C , 30-H ) :   0.9741 B( 28-C , 31-H ) :   0.9780

Dispersion correction           -0.014124128
FINAL SINGLE POINT ENERGY     -1339.872377868282

DIPOLE MOMENT
-------------
                                X             Y             Z
Electronic contribution:    -17.22903     -11.20245       4.42194
Nuclear contribution   :     17.51886      11.53012      -4.60839
                        -----------------------------------------
Total Dipole Moment    :      0.28983       0.32767      -0.18645
                        -----------------------------------------
Magnitude (a.u.)       :      0.47553
Magnitude (Debye)      :      1.20871

Rotational constants in cm-1:     0.019192     0.007899     0.006577
Rotational constants in MHz :   575.349585   236.811395   197.179602

                             ****ORCA TERMINATED NORMALLY****
TOTAL RUN TIME: 0 days 0 hours 0 minutes 31 seconds 437 msec
