                         Program Version 4.2.1 -  RELEASE  -
|  1> ! wB97X-D3 SP def2-SVP
|  2> %pal
|  3> nprocs 16
|  4> end
|  5>
|  6> * xyz 0 1
|  7> S 	 2.36391 	 -3.44401 	 79.4148
|  8> C 	 1.50245 	 -4.86258 	 80.0095
|  9> C 	 0.795424 	 -4.64476 	 81.1336
| 10> C 	 1.01722 	 -3.34636 	 81.6126
| 11> C 	 1.76171 	 -2.54367 	 80.7927
| 12> H 	 0.587349 	 -2.98516 	 82.5688
| 13> C 	 -0.0681587 	 -5.6553 	 81.8359
| 14> H 	 -0.253016 	 -6.36401 	 80.9995
| 15> H 	 -1.02896 	 -5.23819 	 81.9493
| 16> C 	 0.361688 	 -6.39048 	 83.1732
| 17> H 	 -0.354398 	 -7.25121 	 83.3249
| 18> H 	 1.36329 	 -6.67675 	 83.1307
| 19> C 	 0.301814 	 -5.47245 	 84.3265
| 20> H 	 1.00374 	 -4.70975 	 84.2175
| 21> H 	 -0.589911 	 -4.9142 	 84.3962
| 22> H 	 0.416825 	 -5.98995 	 85.2422
| 23> S 	 3.80335 	 -0.571384 	 80.9119
| 24> C 	 3.33125 	 1.04223 	 80.6699
| 25> C 	 1.99144 	 1.21548 	 81.0426
| 26> C 	 1.29778 	 -0.0193156 	 81.3569
| 27> C 	 2.06702 	 -1.11409 	 80.9938
| 28> H 	 1.67279 	 2.25474 	 81.0334
| 29> C 	 -0.140361 	 -0.0586187 	 81.7992
| 30> H 	 -0.265453 	 0.759165 	 82.4586
| 31> H 	 -0.268611 	 -0.83333 	 82.5384
| 32> C 	 -1.19096 	 -0.0761128 	 80.7376
| 33> H 	 -1.1051 	 -0.885819 	 80.109
| 34> H 	 -0.960146 	 0.751428 	 80.0731
| 35> C 	 -2.61249 	 0.0869048 	 81.3462
| 36> H 	 -3.30793 	 -0.106552 	 80.5774
| 37> H 	 -2.93631 	 1.07825 	 81.5356
| 38> H 	 -2.85276 	 -0.578776 	 82.155
| 39> H 	 1.6699 	 -5.80874 	 79.5952
| 40> H 	 3.9759 	 1.89512 	 80.5281
| 41> *
| 42>
| 43>                          ****END OF INPUT****

CARTESIAN COORDINATES (ANGSTROEM)
---------------------------------
  S      2.363910   -3.444010   79.414800
  C      1.502450   -4.862580   80.009500
  C      0.795424   -4.644760   81.133600
  C      1.017220   -3.346360   81.612600
  C      1.761710   -2.543670   80.792700
  H      0.587349   -2.985160   82.568800
  C     -0.068159   -5.655300   81.835900
  H     -0.253016   -6.364010   80.999500
  H     -1.028960   -5.238190   81.949300
  C      0.361688   -6.390480   83.173200
  H     -0.354398   -7.251210   83.324900
  H      1.363290   -6.676750   83.130700
  C      0.301814   -5.472450   84.326500
  H      1.003740   -4.709750   84.217500
  H     -0.589911   -4.914200   84.396200
  H      0.416825   -5.989950   85.242200
  S      3.803350   -0.571384   80.911900
  C      3.331250    1.042230   80.669900
  C      1.991440    1.215480   81.042600
  C      1.297780   -0.019316   81.356900
  C      2.067020   -1.114090   80.993800
  H      1.672790    2.254740   81.033400
  C     -0.140361   -0.058619   81.799200
  H     -0.265453    0.759165   82.458600
  H     -0.268611   -0.833330   82.538400
  C     -1.190960   -0.076113   80.737600
  H     -1.105100   -0.885819   80.109000
  H     -0.960146    0.751428   80.073100
  C     -2.612490    0.086905   81.346200
  H     -3.307930   -0.106552   80.577400
  H     -2.936310    1.078250   81.535600
  H     -2.852760   -0.578776   82.155000
  H      1.669900   -5.808740   79.595200
  H      3.975900    1.895120   80.528100

 Total Charge           Charge          ....    0
 Multiplicity           Mult            ....    1
 Number of Electrons    NEL             ....  134
 Basis Dimension        Dim             ....  322

ORBITAL ENERGIES
----------------

  NO   OCC          E(Eh)            E(eV)
   0   2.0000     -88.966771     -2420.9089
   1   2.0000     -88.959367     -2420.7074
   2   2.0000     -10.329803      -281.0882
   3   2.0000     -10.329039      -281.0675
   4   2.0000     -10.312176      -280.6086
   5   2.0000     -10.307348      -280.4772
   6   2.0000     -10.307147      -280.4717
   7   2.0000     -10.294345      -280.1234
   8   2.0000     -10.294025      -280.1147
   9   2.0000     -10.291041      -280.0335
  10   2.0000     -10.290742      -280.0253
  11   2.0000     -10.288404      -279.9617
  12   2.0000     -10.281591      -279.7763
  13   2.0000     -10.278045      -279.6798
  14   2.0000     -10.270334      -279.4700
  15   2.0000     -10.261848      -279.2391
  16   2.0000      -8.081387      -219.9057
  17   2.0000      -8.074282      -219.7124
  18   2.0000      -6.039887      -164.3537
  19   2.0000      -6.036009      -164.2481
  20   2.0000      -6.032745      -164.1593
  21   2.0000      -6.032049      -164.1404
  22   2.0000      -6.029005      -164.0576
  23   2.0000      -6.024838      -163.9442
  24   2.0000      -1.006454       -27.3870
  25   2.0000      -0.984863       -26.7995
  26   2.0000      -0.915343       -24.9077
  27   2.0000      -0.914709       -24.8905
  28   2.0000      -0.872978       -23.7549
  29   2.0000      -0.855205       -23.2713
  30   2.0000      -0.844179       -22.9713
  31   2.0000      -0.814313       -22.1586
  32   2.0000      -0.789369       -21.4798
  33   2.0000      -0.777672       -21.1615
  34   2.0000      -0.717785       -19.5319
  35   2.0000      -0.708369       -19.2757
  36   2.0000      -0.698923       -19.0187
  37   2.0000      -0.655445       -17.8356
  38   2.0000      -0.640502       -17.4290
  39   2.0000      -0.622661       -16.9435
  40   2.0000      -0.597297       -16.2533
  41   2.0000      -0.577614       -15.7177
  42   2.0000      -0.562346       -15.3022
  43   2.0000      -0.554261       -15.0822
  44   2.0000      -0.542387       -14.7591
  45   2.0000      -0.528366       -14.3776
  46   2.0000      -0.520207       -14.1556
  47   2.0000      -0.516060       -14.0427
  48   2.0000      -0.503498       -13.7009
  49   2.0000      -0.499300       -13.5866
  50   2.0000      -0.489824       -13.3288
  51   2.0000      -0.483940       -13.1687
  52   2.0000      -0.471248       -12.8233
  53   2.0000      -0.465907       -12.6780
  54   2.0000      -0.460789       -12.5387
  55   2.0000      -0.450310       -12.2536
  56   2.0000      -0.442377       -12.0377
  57   2.0000      -0.437008       -11.8916
  58   2.0000      -0.435989       -11.8639
  59   2.0000      -0.429513       -11.6876
  60   2.0000      -0.424358       -11.5474
  61   2.0000      -0.417451       -11.3594
  62   2.0000      -0.412012       -11.2114
  63   2.0000      -0.342325        -9.3151
  64   2.0000      -0.335947        -9.1416
  65   2.0000      -0.322414        -8.7733
  66   2.0000      -0.291177        -7.9233
  67   0.0000       0.023774         0.6469
  68   0.0000       0.072203         1.9647
  69   0.0000       0.101681         2.7669
  70   0.0000       0.116045         3.1577
  71   0.0000       0.136717         3.7202

MULLIKEN ATOMIC CHARGES
-----------------------
   0 S :    0.118005
   1 C :   -0.115685
   2 C :   -0.079097
   3 C :    0.003848
   4 C :   -0.138103
   5 H :    0.019672
   6 C :    0.056279
   7 H :    0.013663
   8 H :    0.015857
   9 C :   -0.018540
  10 H :    0.042573
  11 H :    0.021511
  12 C :   -0.003842
  13 H :    0.014784
  14 H :   -0.000295
  15 H :    0.026619
  16 S :    0.094277
  17 C :   -0.081789
  18 C :   -0.069093
  19 C :   -0.009657
  20 C :   -0.175554
  21 H :    0.020843
  22 C :    0.094612
  23 H :   -0.000774
  24 H :   -0.002671
  25 C :   -0.005438
  26 H :    0.013081
  27 H :    0.014466
  28 C :   -0.010054
  29 H :    0.008708
  30 H :    0.019412
  31 H :    0.031416
  32 H :    0.025006
  33 H :    0.055960
Sum of atomic charges:   -0.0000000

LOEWDIN ATOMIC CHARGES
----------------------
   0 S :    0.403061
   1 C :   -0.175924
   2 C :   -0.071408
   3 C :   -0.065188
   4 C :   -0.194465
   5 H :    0.033366
   6 C :   -0.031978
   7 H :    0.034561
   8 H :    0.025129
   9 C :   -0.025027
  10 H :    0.033804
  11 H :    0.019867
  12 C :   -0.058587
  13 H :    0.018545
  14 H :    0.015960
  15 H :    0.024662
  16 S :    0.385946
  17 C :   -0.200567
  18 C :   -0.078202
  19 C :   -0.046248
  20 C :   -0.173506
  21 H :    0.031441
  22 C :   -0.034861
  23 H :    0.028446
  24 H :    0.023714
  25 C :   -0.024051
  26 H :    0.016082
  27 H :    0.028344
  28 C :   -0.061160
  29 H :    0.024803
  30 H :    0.023719
  31 H :    0.024201
  32 H :    0.015783
  33 H :    0.029735

  Mayer bond orders larger than 0.100000
B(  0-S ,  1-C ) :   1.1344 B(  0-S ,  4-C ) :   1.1466 B(  1-C ,  2-C ) :   1.6290
B(  1-C , 32-H ) :   0.9687 B(  2-C ,  3-C ) :   1.2451 B(  2-C ,  6-C ) :   1.0156
B(  3-C ,  4-C ) :   1.5765 B(  3-C ,  5-H ) :   0.9862 B(  4-C , 20-C ) :   1.0547
B(  6-C ,  7-H ) :   0.9350 B(  6-C ,  8-H ) :   0.9352 B(  6-C ,  9-C ) :   1.0582
B(  9-C , 10-H ) :   0.9544 B(  9-C , 11-H ) :   0.9553 B(  9-C , 12-C ) :   1.0893
B( 12-C , 13-H ) :   0.9688 B( 12-C , 14-H ) :   0.9709 B( 12-C , 15-H ) :   0.9668
B( 16-S , 17-C ) :   1.1525 B( 16-S , 20-C ) :   1.1325 B( 17-C , 18-C ) :   1.6196
B( 17-C , 33-H ) :   0.9670 B( 18-C , 19-C ) :   1.2049 B( 18-C , 21-H ) :   0.9936
B( 19-C , 20-C ) :   1.5888 B( 19-C , 22-C ) :   1.0526 B( 22-C , 23-H ) :   0.9182
B( 22-C , 24-H ) :   0.9242 B( 22-C , 25-C ) :   1.0691 B( 25-C , 26-H ) :   0.9560
B( 25-C , 27-H ) :   0.9471 B( 25-C , 28-C ) :   1.0796 B( 28-C , 29-H ) :   0.9670
B( 28-C , 30-H ) :   0.9719 B( 28-C , 31-H ) :   0.9770

Dispersion correction           -0.014329290
FINAL SINGLE POINT ENERGY     -1339.848596631034

DIPOLE MOMENT
-------------
                                X             Y             Z
Electronic contribution:     24.06589       5.20869     -13.81015
Nuclear contribution   :    -24.68797      -5.22688      14.18502
                        -----------------------------------------
Total Dipole Moment    :     -0.62208      -0.01819       0.37487
                        -----------------------------------------
Magnitude (a.u.)       :      0.72653
Magnitude (Debye)      :      1.84668

Rotational constants in cm-1:     0.016668     0.009201     0.007236
Rotational constants in MHz :   499.686208   275.846650   216.944516

                             ****ORCA TERMINATED NORMALLY****
TOTAL RUN TIME: 0 days 0 hours 0 minutes 34 seconds 573 msec
