                         Program Version 4.2.1 -  RELEASE  -
|  1> ! wB97X-D3 SP def2-SVP
|  2> %pal
|  3> nprocs 16
|  4> end
|  5>
|  6> * xyz 0 1
|  7> S 	 -113.228 	 53.9721 	 116.206
|  8> C 	 -112.222 	 52.5292 	 116.134
|  9> C 	 -110.903 	 52.859 	 115.87
| 10> C 	 -110.693 	 54.308 	 115.739
| 11> C 	 -111.836 	 55.0352 	 115.947
| 12> H 	 -109.766 	 54.7799 	 115.508
| 13> C 	 -109.813 	 51.8257 	 115.71
| 14> H 	 -109.396 	 52.1213 	 114.744
| 15> H 	 -110.089 	 50.7695 	 115.463
| 16> C 	 -108.676 	 51.8242 	 116.775
| 17> H 	 -107.637 	 51.9478 	 116.38
| 18> H 	 -108.921 	 52.7874 	 117.282
| 19> C 	 -108.861 	 50.7604 	 117.857
| 20> H 	 -109.905 	 50.7685 	 118.235
| 21> H 	 -108.547 	 49.7582 	 117.52
| 22> H 	 -108.203 	 50.9683 	 118.746
| 23> S 	 -112.131 	 57.4311 	 114.561
| 24> C 	 -112.206 	 58.9078 	 115.509
| 25> C 	 -111.963 	 58.6896 	 116.853
| 26> C 	 -111.775 	 57.3298 	 117.158
| 27> C 	 -111.955 	 56.5091 	 116.058
| 28> H 	 -111.859 	 59.6292 	 117.456
| 29> C 	 -111.605 	 56.9036 	 118.594
| 30> H 	 -112.4 	 56.2485 	 118.883
| 31> H 	 -111.676 	 57.7477 	 119.205
| 32> C 	 -110.245 	 56.245 	 118.935
| 33> H 	 -110.115 	 55.266 	 118.357
| 34> H 	 -110.371 	 55.9611 	 119.926
| 35> C 	 -109.063 	 57.2308 	 118.822
| 36> H 	 -108.87 	 57.4824 	 117.782
| 37> H 	 -108.113 	 56.7308 	 119.118
| 38> H 	 -109.239 	 58.0919 	 119.449
| 39> H 	 -112.593 	 51.543 	 116.39
| 40> H 	 -112.297 	 59.881 	 115.005
| 41> *
| 42>
| 43>                          ****END OF INPUT****

CARTESIAN COORDINATES (ANGSTROEM)
---------------------------------
  S    -113.228000   53.972100  116.206000
  C    -112.222000   52.529200  116.134000
  C    -110.903000   52.859000  115.870000
  C    -110.693000   54.308000  115.739000
  C    -111.836000   55.035200  115.947000
  H    -109.766000   54.779900  115.508000
  C    -109.813000   51.825700  115.710000
  H    -109.396000   52.121300  114.744000
  H    -110.089000   50.769500  115.463000
  C    -108.676000   51.824200  116.775000
  H    -107.637000   51.947800  116.380000
  H    -108.921000   52.787400  117.282000
  C    -108.861000   50.760400  117.857000
  H    -109.905000   50.768500  118.235000
  H    -108.547000   49.758200  117.520000
  H    -108.203000   50.968300  118.746000
  S    -112.131000   57.431100  114.561000
  C    -112.206000   58.907800  115.509000
  C    -111.963000   58.689600  116.853000
  C    -111.775000   57.329800  117.158000
  C    -111.955000   56.509100  116.058000
  H    -111.859000   59.629200  117.456000
  C    -111.605000   56.903600  118.594000
  H    -112.400000   56.248500  118.883000
  H    -111.676000   57.747700  119.205000
  C    -110.245000   56.245000  118.935000
  H    -110.115000   55.266000  118.357000
  H    -110.371000   55.961100  119.926000
  C    -109.063000   57.230800  118.822000
  H    -108.870000   57.482400  117.782000
  H    -108.113000   56.730800  119.118000
  H    -109.239000   58.091900  119.449000
  H    -112.593000   51.543000  116.390000
  H    -112.297000   59.881000  115.005000

 Total Charge           Charge          ....    0
 Multiplicity           Mult            ....    1
 Number of Electrons    NEL             ....  134
 Basis Dimension        Dim             ....  322

ORBITAL ENERGIES
----------------

  NO   OCC          E(Eh)            E(eV)
   0   2.0000     -88.965642     -2420.8782
   1   2.0000     -88.963476     -2420.8192
   2   2.0000     -10.332165      -281.1525
   3   2.0000     -10.326201      -280.9902
   4   2.0000     -10.318622      -280.7840
   5   2.0000     -10.316561      -280.7279
   6   2.0000     -10.308109      -280.4979
   7   2.0000     -10.302135      -280.3353
   8   2.0000     -10.299036      -280.2510
   9   2.0000     -10.295660      -280.1592
  10   2.0000     -10.294898      -280.1384
  11   2.0000     -10.292378      -280.0699
  12   2.0000     -10.285339      -279.8783
  13   2.0000     -10.281762      -279.7810
  14   2.0000     -10.281259      -279.7673
  15   2.0000     -10.277068      -279.6532
  16   2.0000      -8.080166      -219.8725
  17   2.0000      -8.077869      -219.8100
  18   2.0000      -6.038533      -164.3168
  19   2.0000      -6.036456      -164.2603
  20   2.0000      -6.034787      -164.2149
  21   2.0000      -6.032406      -164.1501
  22   2.0000      -6.031019      -164.1124
  23   2.0000      -6.028582      -164.0461
  24   2.0000      -1.002622       -27.2827
  25   2.0000      -0.981466       -26.7070
  26   2.0000      -0.907601       -24.6971
  27   2.0000      -0.907216       -24.6866
  28   2.0000      -0.865470       -23.5506
  29   2.0000      -0.847735       -23.0681
  30   2.0000      -0.843603       -22.9556
  31   2.0000      -0.813748       -22.1432
  32   2.0000      -0.783209       -21.3122
  33   2.0000      -0.770940       -20.9783
  34   2.0000      -0.708081       -19.2679
  35   2.0000      -0.694063       -18.8864
  36   2.0000      -0.683942       -18.6110
  37   2.0000      -0.658602       -17.9215
  38   2.0000      -0.645250       -17.5582
  39   2.0000      -0.618848       -16.8397
  40   2.0000      -0.592228       -16.1153
  41   2.0000      -0.570019       -15.5110
  42   2.0000      -0.557774       -15.1778
  43   2.0000      -0.550781       -14.9875
  44   2.0000      -0.540907       -14.7188
  45   2.0000      -0.528509       -14.3815
  46   2.0000      -0.515308       -14.0222
  47   2.0000      -0.511086       -13.9073
  48   2.0000      -0.496091       -13.4993
  49   2.0000      -0.492395       -13.3987
  50   2.0000      -0.484579       -13.1861
  51   2.0000      -0.478157       -13.0113
  52   2.0000      -0.471801       -12.8384
  53   2.0000      -0.469502       -12.7758
  54   2.0000      -0.461590       -12.5605
  55   2.0000      -0.446038       -12.1373
  56   2.0000      -0.441603       -12.0166
  57   2.0000      -0.435361       -11.8468
  58   2.0000      -0.432545       -11.7701
  59   2.0000      -0.423460       -11.5229
  60   2.0000      -0.415930       -11.3180
  61   2.0000      -0.415338       -11.3019
  62   2.0000      -0.407535       -11.0896
  63   2.0000      -0.336237        -9.1495
  64   2.0000      -0.330379        -8.9901
  65   2.0000      -0.317253        -8.6329
  66   2.0000      -0.313829        -8.5397
  67   0.0000       0.044896         1.2217
  68   0.0000       0.050962         1.3867
  69   0.0000       0.111982         3.0472
  70   0.0000       0.122077         3.3219
  71   0.0000       0.125244         3.4081

MULLIKEN ATOMIC CHARGES
-----------------------
   0 S :    0.100233
   1 C :   -0.120352
   2 C :   -0.100198
   3 C :    0.072973
   4 C :   -0.169114
   5 H :    0.007548
   6 C :    0.044785
   7 H :    0.026108
   8 H :    0.028787
   9 C :   -0.087744
  10 H :    0.043271
  11 H :    0.031039
  12 C :   -0.070726
  13 H :    0.041887
  14 H :    0.036680
  15 H :    0.038410
  16 S :    0.109964
  17 C :   -0.114271
  18 C :   -0.056398
  19 C :    0.002017
  20 C :   -0.194834
  21 H :    0.041456
  22 C :    0.115693
  23 H :    0.030453
  24 H :   -0.009163
  25 C :   -0.082631
  26 H :    0.053421
  27 H :    0.009507
  28 C :   -0.047235
  29 H :    0.037234
  30 H :    0.033251
  31 H :    0.030466
  32 H :    0.052784
  33 H :    0.064698
Sum of atomic charges:    0.0000000

LOEWDIN ATOMIC CHARGES
----------------------
   0 S :    0.387002
   1 C :   -0.191794
   2 C :   -0.064292
   3 C :   -0.053676
   4 C :   -0.187777
   5 H :    0.029278
   6 C :   -0.044405
   7 H :    0.036667
   8 H :    0.032900
   9 C :   -0.053301
  10 H :    0.029345
  11 H :    0.029131
  12 C :   -0.071935
  13 H :    0.030484
  14 H :    0.022229
  15 H :    0.031079
  16 S :    0.399644
  17 C :   -0.181775
  18 C :   -0.082166
  19 C :   -0.050362
  20 C :   -0.202782
  21 H :    0.044658
  22 C :   -0.020874
  23 H :    0.032612
  24 H :    0.019505
  25 C :   -0.037385
  26 H :    0.031767
  27 H :    0.012914
  28 C :   -0.065470
  29 H :    0.025474
  30 H :    0.030232
  31 H :    0.022810
  32 H :    0.029621
  33 H :    0.030646

  Mayer bond orders larger than 0.100000
B(  0-S ,  1-C ) :   1.1264 B(  0-S ,  4-C ) :   1.1457 B(  1-C ,  2-C ) :   1.6326
B(  1-C , 32-H ) :   0.9719 B(  2-C ,  3-C ) :   1.1943 B(  2-C ,  6-C ) :   1.0319
B(  3-C ,  4-C ) :   1.6198 B(  3-C ,  5-H ) :   0.9970 B(  4-C , 20-C ) :   0.9949
B(  6-C ,  7-H ) :   0.9301 B(  6-C ,  8-H ) :   0.9539 B(  6-C ,  9-C ) :   1.0366
B(  9-C , 10-H ) :   0.9560 B(  9-C , 11-H ) :   0.9642 B(  9-C , 12-C ) :   1.0759
B( 12-C , 13-H ) :   0.9734 B( 12-C , 14-H ) :   0.9767 B( 12-C , 15-H ) :   0.9744
B( 16-S , 17-C ) :   1.1657 B( 16-S , 20-C ) :   1.1500 B( 17-C , 18-C ) :   1.6106
B( 17-C , 20-C ) :   0.1043 B( 17-C , 33-H ) :   0.9634 B( 18-C , 19-C ) :   1.2372
B( 18-C , 21-H ) :   0.9834 B( 19-C , 20-C ) :   1.5957 B( 19-C , 22-C ) :   1.0399
B( 22-C , 23-H ) :   0.9304 B( 22-C , 24-H ) :   0.9286 B( 22-C , 25-C ) :   1.0797
B( 25-C , 26-H ) :   0.9531 B( 25-C , 27-H ) :   0.9518 B( 25-C , 28-C ) :   1.0707
B( 28-C , 29-H ) :   0.9765 B( 28-C , 30-H ) :   0.9736 B( 28-C , 31-H ) :   0.9744

Dispersion correction           -0.015575813
FINAL SINGLE POINT ENERGY     -1339.882466681203

DIPOLE MOMENT
-------------
                                X             Y             Z
Electronic contribution:    -20.71851      10.37956     -16.57440
Nuclear contribution   :     21.24200     -10.38023      16.92997
                        -----------------------------------------
Total Dipole Moment    :      0.52349      -0.00067       0.35556
                        -----------------------------------------
Magnitude (a.u.)       :      0.63282
Magnitude (Debye)      :      1.60851

Rotational constants in cm-1:     0.019941     0.008962     0.007329
Rotational constants in MHz :   597.818914   268.687756   219.716328

                             ****ORCA TERMINATED NORMALLY****
TOTAL RUN TIME: 0 days 0 hours 0 minutes 37 seconds 81 msec
