                         Program Version 4.2.1 -  RELEASE  -
|  1> ! wB97X-D3 SP def2-SVP
|  2> %pal
|  3> nprocs 16
|  4> end
|  5>
|  6> * xyz 0 1
|  7> S 	 -42.6312 	 19.9804 	 87.3408
|  8> C 	 -41.495 	 18.7471 	 87.6443
|  9> C 	 -41.632 	 17.7736 	 86.685
| 10> C 	 -42.7709 	 18.022 	 85.8349
| 11> C 	 -43.4636 	 19.1854 	 86.0714
| 12> H 	 -42.9468 	 17.3996 	 84.9713
| 13> C 	 -40.6564 	 16.7222 	 86.3232
| 14> H 	 -39.6724 	 17.2024 	 86.1662
| 15> H 	 -40.8974 	 16.3122 	 85.312
| 16> C 	 -40.3896 	 15.5927 	 87.3847
| 17> H 	 -39.4624 	 15.1731 	 87.0703
| 18> H 	 -40.2039 	 16.0309 	 88.3679
| 19> C 	 -41.5452 	 14.5367 	 87.4205
| 20> H 	 -41.923 	 14.2017 	 86.4229
| 21> H 	 -41.3249 	 13.8055 	 88.2194
| 22> H 	 -42.4364 	 14.967 	 87.7804
| 23> S 	 -46.1514 	 19.7075 	 85.8389
| 24> C 	 -46.8435 	 19.9092 	 84.2221
| 25> C 	 -45.8328 	 20.0557 	 83.287
| 26> C 	 -44.5437 	 19.9177 	 83.8624
| 27> C 	 -44.5294 	 19.7304 	 85.2608
| 28> H 	 -46.0626 	 20.0432 	 82.2318
| 29> C 	 -43.2649 	 19.9478 	 83.0398
| 30> H 	 -42.9995 	 18.9447 	 82.7316
| 31> H 	 -42.5303 	 20.4853 	 83.64
| 32> C 	 -43.3037 	 20.7082 	 81.7077
| 33> H 	 -43.6106 	 21.7581 	 81.8403
| 34> H 	 -44.1087 	 20.3808 	 81.1231
| 35> C 	 -41.9746 	 20.6849 	 80.8375
| 36> H 	 -41.0694 	 21.0528 	 81.3778
| 37> H 	 -42.2139 	 21.3879 	 80.0969
| 38> H 	 -41.8585 	 19.6993 	 80.2975
| 39> H 	 -40.7248 	 18.6213 	 88.3907
| 40> H 	 -47.8576 	 19.9184 	 83.8912
| 41> *
| 42>
| 43>                          ****END OF INPUT****

CARTESIAN COORDINATES (ANGSTROEM)
---------------------------------
  S    -42.631200   19.980400   87.340800
  C    -41.495000   18.747100   87.644300
  C    -41.632000   17.773600   86.685000
  C    -42.770900   18.022000   85.834900
  C    -43.463600   19.185400   86.071400
  H    -42.946800   17.399600   84.971300
  C    -40.656400   16.722200   86.323200
  H    -39.672400   17.202400   86.166200
  H    -40.897400   16.312200   85.312000
  C    -40.389600   15.592700   87.384700
  H    -39.462400   15.173100   87.070300
  H    -40.203900   16.030900   88.367900
  C    -41.545200   14.536700   87.420500
  H    -41.923000   14.201700   86.422900
  H    -41.324900   13.805500   88.219400
  H    -42.436400   14.967000   87.780400
  S    -46.151400   19.707500   85.838900
  C    -46.843500   19.909200   84.222100
  C    -45.832800   20.055700   83.287000
  C    -44.543700   19.917700   83.862400
  C    -44.529400   19.730400   85.260800
  H    -46.062600   20.043200   82.231800
  C    -43.264900   19.947800   83.039800
  H    -42.999500   18.944700   82.731600
  H    -42.530300   20.485300   83.640000
  C    -43.303700   20.708200   81.707700
  H    -43.610600   21.758100   81.840300
  H    -44.108700   20.380800   81.123100
  C    -41.974600   20.684900   80.837500
  H    -41.069400   21.052800   81.377800
  H    -42.213900   21.387900   80.096900
  H    -41.858500   19.699300   80.297500
  H    -40.724800   18.621300   88.390700
  H    -47.857600   19.918400   83.891200

 Total Charge           Charge          ....    0
 Multiplicity           Mult            ....    1
 Number of Electrons    NEL             ....  134
 Basis Dimension        Dim             ....  322

ORBITAL ENERGIES
----------------

  NO   OCC          E(Eh)            E(eV)
   0   2.0000     -88.968193     -2420.9476
   1   2.0000     -88.964300     -2420.8417
   2   2.0000     -10.324705      -280.9495
   3   2.0000     -10.324495      -280.9438
   4   2.0000     -10.320099      -280.8242
   5   2.0000     -10.309694      -280.5410
   6   2.0000     -10.304956      -280.4121
   7   2.0000     -10.293743      -280.1070
   8   2.0000     -10.293644      -280.1043
   9   2.0000     -10.292900      -280.0841
  10   2.0000     -10.290212      -280.0109
  11   2.0000     -10.288479      -279.9638
  12   2.0000     -10.287530      -279.9379
  13   2.0000     -10.285488      -279.8824
  14   2.0000     -10.284081      -279.8441
  15   2.0000     -10.278186      -279.6837
  16   2.0000      -8.082755      -219.9429
  17   2.0000      -8.080161      -219.8724
  18   2.0000      -6.041306      -164.3923
  19   2.0000      -6.038636      -164.3196
  20   2.0000      -6.037086      -164.2775
  21   2.0000      -6.034254      -164.2004
  22   2.0000      -6.033655      -164.1841
  23   2.0000      -6.031114      -164.1150
  24   2.0000      -1.013093       -27.5677
  25   2.0000      -0.989657       -26.9299
  26   2.0000      -0.908769       -24.7289
  27   2.0000      -0.904896       -24.6235
  28   2.0000      -0.873510       -23.7694
  29   2.0000      -0.847012       -23.0484
  30   2.0000      -0.844063       -22.9681
  31   2.0000      -0.817870       -22.2554
  32   2.0000      -0.780971       -21.2513
  33   2.0000      -0.771788       -21.0014
  34   2.0000      -0.709838       -19.3157
  35   2.0000      -0.706440       -19.2232
  36   2.0000      -0.701161       -19.0796
  37   2.0000      -0.653559       -17.7842
  38   2.0000      -0.638387       -17.3714
  39   2.0000      -0.616242       -16.7688
  40   2.0000      -0.595142       -16.1946
  41   2.0000      -0.580489       -15.7959
  42   2.0000      -0.570000       -15.5105
  43   2.0000      -0.545702       -14.8493
  44   2.0000      -0.538261       -14.6468
  45   2.0000      -0.523685       -14.2502
  46   2.0000      -0.518288       -14.1033
  47   2.0000      -0.510326       -13.8867
  48   2.0000      -0.509365       -13.8605
  49   2.0000      -0.502986       -13.6869
  50   2.0000      -0.485535       -13.2121
  51   2.0000      -0.477811       -13.0019
  52   2.0000      -0.474868       -12.9218
  53   2.0000      -0.473449       -12.8832
  54   2.0000      -0.461722       -12.5641
  55   2.0000      -0.449141       -12.2218
  56   2.0000      -0.439572       -11.9614
  57   2.0000      -0.427563       -11.6346
  58   2.0000      -0.426034       -11.5930
  59   2.0000      -0.422970       -11.5096
  60   2.0000      -0.422343       -11.4925
  61   2.0000      -0.416463       -11.3325
  62   2.0000      -0.412757       -11.2317
  63   2.0000      -0.343267        -9.3408
  64   2.0000      -0.326427        -8.8825
  65   2.0000      -0.321362        -8.7447
  66   2.0000      -0.303728        -8.2649
  67   0.0000       0.036539         0.9943
  68   0.0000       0.059323         1.6143
  69   0.0000       0.113603         3.0913
  70   0.0000       0.128551         3.4981
  71   0.0000       0.132322         3.6007

MULLIKEN ATOMIC CHARGES
-----------------------
   0 S :    0.122881
   1 C :   -0.091994
   2 C :   -0.098480
   3 C :    0.036135
   4 C :   -0.154707
   5 H :    0.002476
   6 C :    0.000164
   7 H :    0.037547
   8 H :    0.025239
   9 C :   -0.045125
  10 H :    0.020873
  11 H :    0.024775
  12 C :   -0.038418
  13 H :    0.034552
  14 H :    0.040728
  15 H :    0.015549
  16 S :    0.120282
  17 C :   -0.075715
  18 C :   -0.047849
  19 C :   -0.066653
  20 C :   -0.138479
  21 H :    0.023842
  22 C :    0.121368
  23 H :    0.029101
  24 H :    0.039091
  25 C :   -0.129586
  26 H :    0.022501
  27 H :    0.006683
  28 C :   -0.039717
  29 H :    0.050113
  30 H :    0.021989
  31 H :    0.044953
  32 H :    0.039779
  33 H :    0.046103
Sum of atomic charges:   -0.0000000

LOEWDIN ATOMIC CHARGES
----------------------
   0 S :    0.446280
   1 C :   -0.211903
   2 C :   -0.074832
   3 C :   -0.057550
   4 C :   -0.220652
   5 H :    0.025322
   6 C :   -0.038291
   7 H :    0.035646
   8 H :    0.032081
   9 C :   -0.031445
  10 H :    0.017734
  11 H :    0.023143
  12 C :   -0.073614
  13 H :    0.032149
  14 H :    0.032131
  15 H :    0.020353
  16 S :    0.426573
  17 C :   -0.174372
  18 C :   -0.077188
  19 C :   -0.048106
  20 C :   -0.222850
  21 H :    0.032472
  22 C :   -0.032100
  23 H :    0.030951
  24 H :    0.036157
  25 C :   -0.043897
  26 H :    0.023309
  27 H :    0.009684
  28 C :   -0.064011
  29 H :    0.032240
  30 H :    0.021218
  31 H :    0.032019
  32 H :    0.032453
  33 H :    0.028898

  Mayer bond orders larger than 0.100000
B(  0-S ,  1-C ) :   1.1601 B(  0-S ,  4-C ) :   1.1677 B(  1-C ,  2-C ) :   1.5762
B(  1-C , 32-H ) :   0.9678 B(  2-C ,  3-C ) :   1.2862 B(  2-C ,  6-C ) :   1.0220
B(  3-C ,  4-C ) :   1.5385 B(  3-C ,  5-H ) :   0.9978 B(  4-C , 20-C ) :   1.0144
B(  6-C ,  7-H ) :   0.9416 B(  6-C ,  8-H ) :   0.9483 B(  6-C ,  9-C ) :   1.0686
B(  9-C , 10-H ) :   0.9586 B(  9-C , 11-H ) :   0.9585 B(  9-C , 12-C ) :   1.0653
B( 12-C , 13-H ) :   0.9743 B( 12-C , 14-H ) :   0.9735 B( 12-C , 15-H ) :   0.9733
B( 16-S , 17-C ) :   1.1777 B( 16-S , 20-C ) :   1.1507 B( 17-C , 18-C ) :   1.5828
B( 17-C , 20-C ) :   0.1018 B( 17-C , 33-H ) :   0.9653 B( 18-C , 19-C ) :   1.2806
B( 18-C , 21-H ) :   0.9877 B( 19-C , 20-C ) :   1.5659 B( 19-C , 22-C ) :   1.0356
B( 22-C , 23-H ) :   0.9232 B( 22-C , 24-H ) :   0.9391 B( 22-C , 25-C ) :   1.0776
B( 25-C , 26-H ) :   0.9586 B( 25-C , 27-H ) :   0.9436 B( 25-C , 28-C ) :   1.0807
B( 28-C , 29-H ) :   0.9762 B( 28-C , 30-H ) :   0.9728 B( 28-C , 31-H ) :   0.9747

Dispersion correction           -0.013993360
FINAL SINGLE POINT ENERGY     -1339.862033592892

DIPOLE MOMENT
-------------
                                X             Y             Z
Electronic contribution:    -16.48261      12.47226      14.72483
Nuclear contribution   :     16.80346     -12.80241     -15.36915
                        -----------------------------------------
Total Dipole Moment    :      0.32085      -0.33015      -0.64432
                        -----------------------------------------
Magnitude (a.u.)       :      0.79189
Magnitude (Debye)      :      2.01283

Rotational constants in cm-1:     0.017462     0.008061     0.006724
Rotational constants in MHz :   523.492841   241.662168   201.566013

                             ****ORCA TERMINATED NORMALLY****
TOTAL RUN TIME: 0 days 0 hours 0 minutes 30 seconds 10 msec
