                         Program Version 4.2.1 -  RELEASE  -
|  1> ! wB97X-D3 SP def2-SVP
|  2> %pal
|  3> nprocs 16
|  4> end
|  5>
|  6> * xyz 0 1
|  7> S 	 10.4961 	 -19.3731 	 78.8035
|  8> C 	 9.50821 	 -20.6927 	 79.4713
|  9> C 	 8.16623 	 -20.3491 	 79.7157
| 10> C 	 7.97933 	 -18.9579 	 79.4558
| 11> C 	 9.11396 	 -18.3176 	 78.9966
| 12> H 	 7.0372 	 -18.3601 	 79.5374
| 13> C 	 7.00835 	 -21.3047 	 80.0971
| 14> H 	 6.75038 	 -21.1593 	 81.1652
| 15> H 	 7.2664 	 -22.3566 	 80.0745
| 16> C 	 5.7836 	 -21.113 	 79.094
| 17> H 	 5.27152 	 -20.2244 	 79.1533
| 18> H 	 6.21905 	 -21.0143 	 78.071
| 19> C 	 4.87404 	 -22.2773 	 79.1137
| 20> H 	 4.4376 	 -22.3493 	 80.0511
| 21> H 	 4.09215 	 -22.0627 	 78.3458
| 22> H 	 5.34578 	 -23.2483 	 78.9493
| 23> S 	 8.85457 	 -16.7379 	 76.7658
| 24> C 	 8.80931 	 -14.9934 	 76.9952
| 25> C 	 8.7286 	 -14.5965 	 78.3152
| 26> C 	 8.9092 	 -15.7111 	 79.1898
| 27> C 	 9.01507 	 -16.9718 	 78.4797
| 28> H 	 8.54031 	 -13.5286 	 78.5353
| 29> C 	 9.1127 	 -15.451 	 80.6557
| 30> H 	 8.68226 	 -16.3367 	 81.125
| 31> H 	 8.5456 	 -14.6291 	 81.0594
| 32> C 	 10.5755 	 -15.4562 	 81.197
| 33> H 	 10.9628 	 -14.4869 	 80.9894
| 34> H 	 11.276 	 -16.2213 	 80.8645
| 35> C 	 10.5645 	 -15.5722 	 82.6989
| 36> H 	 11.5538 	 -15.3605 	 83.0373
| 37> H 	 10.4492 	 -16.6424 	 83.0501
| 38> H 	 9.95178 	 -14.8892 	 83.2018
| 39> H 	 9.92781 	 -21.6901 	 79.4016
| 40> H 	 8.95462 	 -14.369 	 76.1336
| 41> *
| 42>
| 43>                          ****END OF INPUT****

CARTESIAN COORDINATES (ANGSTROEM)
---------------------------------
  S     10.496100  -19.373100   78.803500
  C      9.508210  -20.692700   79.471300
  C      8.166230  -20.349100   79.715700
  C      7.979330  -18.957900   79.455800
  C      9.113960  -18.317600   78.996600
  H      7.037200  -18.360100   79.537400
  C      7.008350  -21.304700   80.097100
  H      6.750380  -21.159300   81.165200
  H      7.266400  -22.356600   80.074500
  C      5.783600  -21.113000   79.094000
  H      5.271520  -20.224400   79.153300
  H      6.219050  -21.014300   78.071000
  C      4.874040  -22.277300   79.113700
  H      4.437600  -22.349300   80.051100
  H      4.092150  -22.062700   78.345800
  H      5.345780  -23.248300   78.949300
  S      8.854570  -16.737900   76.765800
  C      8.809310  -14.993400   76.995200
  C      8.728600  -14.596500   78.315200
  C      8.909200  -15.711100   79.189800
  C      9.015070  -16.971800   78.479700
  H      8.540310  -13.528600   78.535300
  C      9.112700  -15.451000   80.655700
  H      8.682260  -16.336700   81.125000
  H      8.545600  -14.629100   81.059400
  C     10.575500  -15.456200   81.197000
  H     10.962800  -14.486900   80.989400
  H     11.276000  -16.221300   80.864500
  C     10.564500  -15.572200   82.698900
  H     11.553800  -15.360500   83.037300
  H     10.449200  -16.642400   83.050100
  H      9.951780  -14.889200   83.201800
  H      9.927810  -21.690100   79.401600
  H      8.954620  -14.369000   76.133600

 Total Charge           Charge          ....    0
 Multiplicity           Mult            ....    1
 Number of Electrons    NEL             ....  134
 Basis Dimension        Dim             ....  322

ORBITAL ENERGIES
----------------

  NO   OCC          E(Eh)            E(eV)
   0   2.0000     -88.968670     -2420.9606
   1   2.0000     -88.963847     -2420.8294
   2   2.0000     -10.323477      -280.9161
   3   2.0000     -10.323184      -280.9081
   4   2.0000     -10.317785      -280.7612
   5   2.0000     -10.312783      -280.6251
   6   2.0000     -10.308980      -280.5216
   7   2.0000     -10.305257      -280.4203
   8   2.0000     -10.301405      -280.3155
   9   2.0000     -10.296207      -280.1740
  10   2.0000     -10.294215      -280.1198
  11   2.0000     -10.284646      -279.8594
  12   2.0000     -10.282554      -279.8025
  13   2.0000     -10.278243      -279.6852
  14   2.0000     -10.272618      -279.5322
  15   2.0000     -10.266991      -279.3790
  16   2.0000      -8.082900      -219.9469
  17   2.0000      -8.078695      -219.8325
  18   2.0000      -6.041237      -164.3904
  19   2.0000      -6.037649      -164.2928
  20   2.0000      -6.036990      -164.2749
  21   2.0000      -6.033711      -164.1856
  22   2.0000      -6.033223      -164.1723
  23   2.0000      -6.029658      -164.0753
  24   2.0000      -1.000382       -27.2218
  25   2.0000      -0.976206       -26.5639
  26   2.0000      -0.910322       -24.7711
  27   2.0000      -0.906649       -24.6712
  28   2.0000      -0.868243       -23.6261
  29   2.0000      -0.851336       -23.1660
  30   2.0000      -0.850847       -23.1527
  31   2.0000      -0.808818       -22.0091
  32   2.0000      -0.780220       -21.2309
  33   2.0000      -0.762410       -20.7462
  34   2.0000      -0.709252       -19.2997
  35   2.0000      -0.698157       -18.9978
  36   2.0000      -0.687072       -18.6962
  37   2.0000      -0.654227       -17.8024
  38   2.0000      -0.643382       -17.5073
  39   2.0000      -0.616025       -16.7629
  40   2.0000      -0.594137       -16.1673
  41   2.0000      -0.570381       -15.5209
  42   2.0000      -0.564451       -15.3595
  43   2.0000      -0.555641       -15.1197
  44   2.0000      -0.531002       -14.4493
  45   2.0000      -0.519867       -14.1463
  46   2.0000      -0.510765       -13.8986
  47   2.0000      -0.506005       -13.7691
  48   2.0000      -0.503706       -13.7065
  49   2.0000      -0.498870       -13.5749
  50   2.0000      -0.485700       -13.2166
  51   2.0000      -0.477685       -12.9985
  52   2.0000      -0.472904       -12.8684
  53   2.0000      -0.461464       -12.5571
  54   2.0000      -0.456108       -12.4113
  55   2.0000      -0.448486       -12.2039
  56   2.0000      -0.445975       -12.1356
  57   2.0000      -0.443585       -12.0706
  58   2.0000      -0.433647       -11.8001
  59   2.0000      -0.420339       -11.4380
  60   2.0000      -0.418408       -11.3855
  61   2.0000      -0.415159       -11.2970
  62   2.0000      -0.411582       -11.1997
  63   2.0000      -0.338692        -9.2163
  64   2.0000      -0.329165        -8.9570
  65   2.0000      -0.315979        -8.5982
  66   2.0000      -0.295490        -8.0407
  67   0.0000       0.036072         0.9816
  68   0.0000       0.058141         1.5821
  69   0.0000       0.113920         3.0999
  70   0.0000       0.115691         3.1481
  71   0.0000       0.128917         3.5080

MULLIKEN ATOMIC CHARGES
-----------------------
   0 S :    0.113000
   1 C :   -0.135376
   2 C :   -0.064250
   3 C :    0.018561
   4 C :   -0.182084
   5 H :    0.040643
   6 C :    0.075539
   7 H :    0.044923
   8 H :    0.011271
   9 C :   -0.090804
  10 H :    0.015608
  11 H :    0.035431
  12 C :   -0.016154
  13 H :    0.011958
  14 H :    0.039381
  15 H :    0.030901
  16 S :    0.115026
  17 C :   -0.112459
  18 C :   -0.030124
  19 C :   -0.025342
  20 C :   -0.177091
  21 H :    0.035553
  22 C :    0.066256
  23 H :    0.012036
  24 H :    0.020230
  25 C :   -0.033635
  26 H :    0.013293
  27 H :    0.035902
  28 C :   -0.044746
  29 H :    0.011087
  30 H :    0.040536
  31 H :    0.017289
  32 H :    0.052161
  33 H :    0.055480
Sum of atomic charges:    0.0000000

LOEWDIN ATOMIC CHARGES
----------------------
   0 S :    0.395740
   1 C :   -0.189628
   2 C :   -0.057909
   3 C :   -0.057362
   4 C :   -0.210175
   5 H :    0.042953
   6 C :   -0.026877
   7 H :    0.035154
   8 H :    0.026670
   9 C :   -0.038180
  10 H :    0.012140
  11 H :    0.031561
  12 C :   -0.059561
  13 H :    0.014523
  14 H :    0.035552
  15 H :    0.025562
  16 S :    0.411589
  17 C :   -0.180948
  18 C :   -0.075200
  19 C :   -0.049877
  20 C :   -0.215621
  21 H :    0.041241
  22 C :   -0.037233
  23 H :    0.030311
  24 H :    0.029276
  25 C :   -0.029710
  26 H :    0.016657
  27 H :    0.030291
  28 C :   -0.063220
  29 H :    0.021935
  30 H :    0.032494
  31 H :    0.013661
  32 H :    0.022564
  33 H :    0.021628

  Mayer bond orders larger than 0.100000
B(  0-S ,  1-C ) :   1.1393 B(  0-S ,  4-C ) :   1.1459 B(  1-C ,  2-C ) :   1.6115
B(  1-C , 32-H ) :   0.9671 B(  2-C ,  3-C ) :   1.2279 B(  2-C ,  6-C ) :   1.0225
B(  3-C ,  4-C ) :   1.5959 B(  3-C ,  5-H ) :   0.9824 B(  4-C , 20-C ) :   1.0360
B(  6-C ,  7-H ) :   0.9365 B(  6-C ,  8-H ) :   0.9494 B(  6-C ,  9-C ) :   1.0387
B(  9-C , 10-H ) :   0.9521 B(  9-C , 11-H ) :   0.9590 B(  9-C , 12-C ) :   1.1021
B( 12-C , 13-H ) :   0.9702 B( 12-C , 14-H ) :   0.9706 B( 12-C , 15-H ) :   0.9731
B( 16-S , 17-C ) :   1.1696 B( 16-S , 20-C ) :   1.1595 B( 17-C , 18-C ) :   1.5880
B( 17-C , 20-C ) :   0.1062 B( 17-C , 33-H ) :   0.9683 B( 18-C , 19-C ) :   1.2550
B( 18-C , 21-H ) :   0.9890 B( 19-C , 20-C ) :   1.5510 B( 19-C , 22-C ) :   1.0558
B( 22-C , 23-H ) :   0.9255 B( 22-C , 24-H ) :   0.9382 B( 22-C , 25-C ) :   1.0578
B( 25-C , 26-H ) :   0.9544 B( 25-C , 27-H ) :   0.9565 B( 25-C , 28-C ) :   1.0959
B( 28-C , 29-H ) :   0.9688 B( 28-C , 30-H ) :   0.9733 B( 28-C , 31-H ) :   0.9733

Dispersion correction           -0.013974728
FINAL SINGLE POINT ENERGY     -1339.859759709986

DIPOLE MOMENT
-------------
                                X             Y             Z
Electronic contribution:     10.81822       4.23383     -17.06922
Nuclear contribution   :    -11.17897      -4.23792      17.33083
                        -----------------------------------------
Total Dipole Moment    :     -0.36076      -0.00408       0.26161
                        -----------------------------------------
Magnitude (a.u.)       :      0.44565
Magnitude (Debye)      :      1.13275

Rotational constants in cm-1:     0.017763     0.008099     0.007085
Rotational constants in MHz :   532.510126   242.788610   212.402797

                             ****ORCA TERMINATED NORMALLY****
TOTAL RUN TIME: 0 days 0 hours 0 minutes 35 seconds 866 msec
