                         Program Version 4.2.1 -  RELEASE  -
|  1> ! wB97X-D3 SP def2-SVP
|  2> %pal
|  3> nprocs 16
|  4> end
|  5>
|  6> * xyz 0 1
|  7> S 	 -24.2109 	 -8.24252 	 86.791
|  8> C 	 -24.6531 	 -9.91165 	 86.5358
|  9> C 	 -23.5698 	 -10.6879 	 86.1313
| 10> C 	 -22.4761 	 -9.80808 	 85.7599
| 11> C 	 -22.6027 	 -8.51266 	 86.0743
| 12> H 	 -21.5454 	 -10.0672 	 85.3363
| 13> C 	 -23.4945 	 -12.1077 	 85.7172
| 14> H 	 -22.6195 	 -12.2459 	 85.1252
| 15> H 	 -24.2613 	 -12.2342 	 84.9549
| 16> C 	 -23.6544 	 -13.2518 	 86.774
| 17> H 	 -24.5427 	 -12.9885 	 87.3654
| 18> H 	 -23.8633 	 -14.1658 	 86.2093
| 19> C 	 -22.3315 	 -13.4541 	 87.5761
| 20> H 	 -21.4765 	 -13.9129 	 87.0605
| 21> H 	 -22.0264 	 -12.5626 	 88.1683
| 22> H 	 -22.5776 	 -14.1778 	 88.3067
| 23> S 	 -21.115 	 -6.27352 	 86.8902
| 24> C 	 -20.2214 	 -5.39971 	 85.7112
| 25> C 	 -20.2764 	 -6.01183 	 84.5019
| 26> C 	 -21.0783 	 -7.19164 	 84.4739
| 27> C 	 -21.7277 	 -7.41804 	 85.6855
| 28> H 	 -19.6701 	 -5.5984 	 83.6006
| 29> C 	 -21.3144 	 -8.08812 	 83.1811
| 30> H 	 -21.2028 	 -9.12501 	 83.4697
| 31> H 	 -20.5063 	 -8.00707 	 82.5311
| 32> C 	 -22.7164 	 -7.92639 	 82.6056
| 33> H 	 -22.7813 	 -6.90768 	 82.1893
| 34> H 	 -23.4654 	 -8.04083 	 83.468
| 35> C 	 -23.1331 	 -8.95258 	 81.5881
| 36> H 	 -22.3703 	 -8.81075 	 80.8106
| 37> H 	 -24.0693 	 -8.70565 	 81.1943
| 38> H 	 -23.0478 	 -9.98052 	 82.0164
| 39> H 	 -25.5929 	 -10.4264 	 86.7264
| 40> H 	 -19.7974 	 -4.38493 	 85.6826
| 41> *
| 42>
| 43>                          ****END OF INPUT****

CARTESIAN COORDINATES (ANGSTROEM)
---------------------------------
  S    -24.210900   -8.242520   86.791000
  C    -24.653100   -9.911650   86.535800
  C    -23.569800  -10.687900   86.131300
  C    -22.476100   -9.808080   85.759900
  C    -22.602700   -8.512660   86.074300
  H    -21.545400  -10.067200   85.336300
  C    -23.494500  -12.107700   85.717200
  H    -22.619500  -12.245900   85.125200
  H    -24.261300  -12.234200   84.954900
  C    -23.654400  -13.251800   86.774000
  H    -24.542700  -12.988500   87.365400
  H    -23.863300  -14.165800   86.209300
  C    -22.331500  -13.454100   87.576100
  H    -21.476500  -13.912900   87.060500
  H    -22.026400  -12.562600   88.168300
  H    -22.577600  -14.177800   88.306700
  S    -21.115000   -6.273520   86.890200
  C    -20.221400   -5.399710   85.711200
  C    -20.276400   -6.011830   84.501900
  C    -21.078300   -7.191640   84.473900
  C    -21.727700   -7.418040   85.685500
  H    -19.670100   -5.598400   83.600600
  C    -21.314400   -8.088120   83.181100
  H    -21.202800   -9.125010   83.469700
  H    -20.506300   -8.007070   82.531100
  C    -22.716400   -7.926390   82.605600
  H    -22.781300   -6.907680   82.189300
  H    -23.465400   -8.040830   83.468000
  C    -23.133100   -8.952580   81.588100
  H    -22.370300   -8.810750   80.810600
  H    -24.069300   -8.705650   81.194300
  H    -23.047800   -9.980520   82.016400
  H    -25.592900  -10.426400   86.726400
  H    -19.797400   -4.384930   85.682600

 Total Charge           Charge          ....    0
 Multiplicity           Mult            ....    1
 Number of Electrons    NEL             ....  134
 Basis Dimension        Dim             ....  322

ORBITAL ENERGIES
----------------

  NO   OCC          E(Eh)            E(eV)
   0   2.0000     -88.966623     -2420.9049
   1   2.0000     -88.966086     -2420.8903
   2   2.0000     -10.327787      -281.0334
   3   2.0000     -10.325190      -280.9627
   4   2.0000     -10.318629      -280.7842
   5   2.0000     -10.312493      -280.6172
   6   2.0000     -10.306729      -280.4603
   7   2.0000     -10.302730      -280.3515
   8   2.0000     -10.296729      -280.1882
   9   2.0000     -10.296290      -280.1763
  10   2.0000     -10.288587      -279.9667
  11   2.0000     -10.287666      -279.9416
  12   2.0000     -10.287612      -279.9402
  13   2.0000     -10.283895      -279.8390
  14   2.0000     -10.279226      -279.7120
  15   2.0000     -10.273244      -279.5492
  16   2.0000      -8.080864      -219.8915
  17   2.0000      -8.080839      -219.8908
  18   2.0000      -6.039568      -164.3450
  19   2.0000      -6.039395      -164.3403
  20   2.0000      -6.035401      -164.2316
  21   2.0000      -6.035357      -164.2304
  22   2.0000      -6.031578      -164.1276
  23   2.0000      -6.031416      -164.1232
  24   2.0000      -1.007182       -27.4068
  25   2.0000      -0.985880       -26.8272
  26   2.0000      -0.910606       -24.7789
  27   2.0000      -0.907427       -24.6923
  28   2.0000      -0.871070       -23.7030
  29   2.0000      -0.850727       -23.1495
  30   2.0000      -0.845056       -22.9952
  31   2.0000      -0.817111       -22.2347
  32   2.0000      -0.785359       -21.3707
  33   2.0000      -0.774695       -21.0805
  34   2.0000      -0.710881       -19.3441
  35   2.0000      -0.703181       -19.1345
  36   2.0000      -0.684939       -18.6381
  37   2.0000      -0.654817       -17.8185
  38   2.0000      -0.638944       -17.3865
  39   2.0000      -0.614416       -16.7191
  40   2.0000      -0.590686       -16.0734
  41   2.0000      -0.576208       -15.6794
  42   2.0000      -0.565356       -15.3841
  43   2.0000      -0.546988       -14.8843
  44   2.0000      -0.540029       -14.6949
  45   2.0000      -0.530591       -14.4381
  46   2.0000      -0.512964       -13.9585
  47   2.0000      -0.509655       -13.8684
  48   2.0000      -0.501967       -13.6592
  49   2.0000      -0.498315       -13.5598
  50   2.0000      -0.492753       -13.4085
  51   2.0000      -0.483798       -13.1648
  52   2.0000      -0.475801       -12.9472
  53   2.0000      -0.467448       -12.7199
  54   2.0000      -0.460401       -12.5282
  55   2.0000      -0.446832       -12.1589
  56   2.0000      -0.440370       -11.9831
  57   2.0000      -0.430171       -11.7055
  58   2.0000      -0.426251       -11.5989
  59   2.0000      -0.425621       -11.5817
  60   2.0000      -0.421463       -11.4686
  61   2.0000      -0.418758       -11.3950
  62   2.0000      -0.405733       -11.0406
  63   2.0000      -0.347995        -9.4694
  64   2.0000      -0.332312        -9.0427
  65   2.0000      -0.328196        -8.9307
  66   2.0000      -0.294823        -8.0225
  67   0.0000       0.029727         0.8089
  68   0.0000       0.065969         1.7951
  69   0.0000       0.113540         3.0896
  70   0.0000       0.116785         3.1779
  71   0.0000       0.131224         3.5708

MULLIKEN ATOMIC CHARGES
-----------------------
   0 S :    0.112572
   1 C :   -0.112796
   2 C :   -0.060814
   3 C :   -0.003528
   4 C :   -0.131249
   5 H :    0.002675
   6 C :    0.044276
   7 H :    0.004758
   8 H :    0.029559
   9 C :   -0.057671
  10 H :    0.034575
  11 H :    0.030777
  12 C :   -0.056394
  13 H :    0.039666
  14 H :    0.049340
  15 H :    0.020026
  16 S :    0.114940
  17 C :   -0.077359
  18 C :   -0.094500
  19 C :   -0.043206
  20 C :   -0.164031
  21 H :    0.048173
  22 C :    0.127398
  23 H :   -0.011738
  24 H :   -0.004801
  25 C :   -0.118309
  26 H :    0.031304
  27 H :    0.051725
  28 C :   -0.003226
  29 H :    0.019044
  30 H :    0.029878
  31 H :    0.037000
  32 H :    0.047040
  33 H :    0.064896
Sum of atomic charges:   -0.0000000

LOEWDIN ATOMIC CHARGES
----------------------
   0 S :    0.392845
   1 C :   -0.194116
   2 C :   -0.063215
   3 C :   -0.053202
   4 C :   -0.188677
   5 H :    0.024299
   6 C :   -0.041445
   7 H :    0.024904
   8 H :    0.034966
   9 C :   -0.031383
  10 H :    0.026351
  11 H :    0.027018
  12 C :   -0.072516
  13 H :    0.029843
  14 H :    0.033449
  15 H :    0.021295
  16 S :    0.411302
  17 C :   -0.210041
  18 C :   -0.089558
  19 C :   -0.050017
  20 C :   -0.195214
  21 H :    0.046373
  22 C :   -0.024508
  23 H :    0.022675
  24 H :    0.016741
  25 C :   -0.046052
  26 H :    0.024327
  27 H :    0.033387
  28 C :   -0.059000
  29 H :    0.024088
  30 H :    0.020162
  31 H :    0.029113
  32 H :    0.031764
  33 H :    0.044044

  Mayer bond orders larger than 0.100000
B(  0-S ,  1-C ) :   1.1428 B(  0-S ,  4-C ) :   1.1051 B(  1-C ,  2-C ) :   1.6236
B(  1-C , 32-H ) :   0.9619 B(  2-C ,  3-C ) :   1.1927 B(  2-C ,  6-C ) :   1.0247
B(  3-C ,  4-C ) :   1.6413 B(  3-C ,  5-H ) :   0.9982 B(  4-C , 20-C ) :   1.0289
B(  6-C ,  7-H ) :   0.9422 B(  6-C ,  8-H ) :   0.9358 B(  6-C ,  9-C ) :   1.0646
B(  9-C , 10-H ) :   0.9609 B(  9-C , 11-H ) :   0.9535 B(  9-C , 12-C ) :   1.0739
B( 12-C , 13-H ) :   0.9747 B( 12-C , 14-H ) :   0.9769 B( 12-C , 15-H ) :   0.9727
B( 16-S , 17-C ) :   1.1490 B( 16-S , 20-C ) :   1.1400 B( 17-C , 18-C ) :   1.6307
B( 17-C , 33-H ) :   0.9542 B( 18-C , 19-C ) :   1.2652 B( 18-C , 21-H ) :   0.9705
B( 19-C , 20-C ) :   1.5927 B( 19-C , 22-C ) :   1.0308 B( 22-C , 23-H ) :   0.9304
B( 22-C , 24-H ) :   0.9282 B( 22-C , 25-C ) :   1.0575 B( 25-C , 26-H ) :   0.9549
B( 25-C , 27-H ) :   0.9541 B( 25-C , 28-C ) :   1.0834 B( 28-C , 29-H ) :   0.9735
B( 28-C , 30-H ) :   0.9714 B( 28-C , 31-H ) :   0.9723

Dispersion correction           -0.015046354
FINAL SINGLE POINT ENERGY     -1339.862935836380

DIPOLE MOMENT
-------------
                                X             Y             Z
Electronic contribution:      1.13218      22.54280      14.37350
Nuclear contribution   :     -1.06350     -23.11648     -14.94235
                        -----------------------------------------
Total Dipole Moment    :      0.06867      -0.57369      -0.56885
                        -----------------------------------------
Magnitude (a.u.)       :      0.81082
Magnitude (Debye)      :      2.06093

Rotational constants in cm-1:     0.018809     0.008713     0.007341
Rotational constants in MHz :   563.881142   261.219775   220.074929

                             ****ORCA TERMINATED NORMALLY****
TOTAL RUN TIME: 0 days 0 hours 0 minutes 34 seconds 544 msec
