                         Program Version 4.2.1 -  RELEASE  -
|  1> ! wB97X-D3 SP def2-SVP
|  2> %pal
|  3> nprocs 16
|  4> end
|  5>
|  6> * xyz 0 1
|  7> S 	 53.8087 	 18.3159 	 50.579
|  8> C 	 54.2233 	 19.8149 	 49.6774
|  9> C 	 53.7229 	 20.9749 	 50.3067
| 10> C 	 52.9948 	 20.5886 	 51.4681
| 11> C 	 52.9489 	 19.2157 	 51.7409
| 12> H 	 52.5561 	 21.228 	 52.1065
| 13> C 	 53.97 	 22.4036 	 49.8534
| 14> H 	 54.3188 	 22.4751 	 48.8329
| 15> H 	 54.7034 	 22.7464 	 50.5155
| 16> C 	 52.9163 	 23.5008 	 49.8146
| 17> H 	 52.7577 	 23.5478 	 50.876
| 18> H 	 53.3074 	 24.4649 	 49.5529
| 19> C 	 51.657 	 23.1986 	 49.0614
| 20> H 	 51.8558 	 22.9225 	 48.0306
| 21> H 	 51.0844 	 22.3676 	 49.5692
| 22> H 	 50.9836 	 24.1095 	 49.0675
| 23> S 	 50.7407 	 17.6104 	 52.3863
| 24> C 	 50.4915 	 17.2197 	 54.033
| 25> C 	 51.141 	 18.1686 	 54.8405
| 26> C 	 52.1269 	 18.963 	 54.1732
| 27> C 	 52.14 	 18.6174 	 52.7963
| 28> H 	 50.8484 	 18.0908 	 55.8557
| 29> C 	 53.0967 	 19.8828 	 54.9103
| 30> H 	 53.9242 	 20.1529 	 54.2591
| 31> H 	 53.4986 	 19.1495 	 55.5581
| 32> C 	 52.5592 	 20.9298 	 55.8905
| 33> H 	 52.0414 	 20.4292 	 56.6487
| 34> H 	 51.8658 	 21.5455 	 55.3708
| 35> C 	 53.6292 	 21.8703 	 56.5163
| 36> H 	 54.0082 	 21.4738 	 57.42
| 37> H 	 53.3292 	 22.8511 	 56.8245
| 38> H 	 54.5366 	 22.1 	 55.9117
| 39> H 	 54.8156 	 19.8615 	 48.7456
| 40> H 	 49.8061 	 16.5441 	 54.3588
| 41> *
| 42>
| 43>                          ****END OF INPUT****

CARTESIAN COORDINATES (ANGSTROEM)
---------------------------------
  S     53.808700   18.315900   50.579000
  C     54.223300   19.814900   49.677400
  C     53.722900   20.974900   50.306700
  C     52.994800   20.588600   51.468100
  C     52.948900   19.215700   51.740900
  H     52.556100   21.228000   52.106500
  C     53.970000   22.403600   49.853400
  H     54.318800   22.475100   48.832900
  H     54.703400   22.746400   50.515500
  C     52.916300   23.500800   49.814600
  H     52.757700   23.547800   50.876000
  H     53.307400   24.464900   49.552900
  C     51.657000   23.198600   49.061400
  H     51.855800   22.922500   48.030600
  H     51.084400   22.367600   49.569200
  H     50.983600   24.109500   49.067500
  S     50.740700   17.610400   52.386300
  C     50.491500   17.219700   54.033000
  C     51.141000   18.168600   54.840500
  C     52.126900   18.963000   54.173200
  C     52.140000   18.617400   52.796300
  H     50.848400   18.090800   55.855700
  C     53.096700   19.882800   54.910300
  H     53.924200   20.152900   54.259100
  H     53.498600   19.149500   55.558100
  C     52.559200   20.929800   55.890500
  H     52.041400   20.429200   56.648700
  H     51.865800   21.545500   55.370800
  C     53.629200   21.870300   56.516300
  H     54.008200   21.473800   57.420000
  H     53.329200   22.851100   56.824500
  H     54.536600   22.100000   55.911700
  H     54.815600   19.861500   48.745600
  H     49.806100   16.544100   54.358800

 Total Charge           Charge          ....    0
 Multiplicity           Mult            ....    1
 Number of Electrons    NEL             ....  134
 Basis Dimension        Dim             ....  322

ORBITAL ENERGIES
----------------

  NO   OCC          E(Eh)            E(eV)
   0   2.0000     -88.969427     -2420.9812
   1   2.0000     -88.962997     -2420.8062
   2   2.0000     -10.326338      -280.9939
   3   2.0000     -10.324726      -280.9501
   4   2.0000     -10.320316      -280.8301
   5   2.0000     -10.310530      -280.5638
   6   2.0000     -10.308825      -280.5174
   7   2.0000     -10.307177      -280.4725
   8   2.0000     -10.291804      -280.0542
   9   2.0000     -10.288578      -279.9665
  10   2.0000     -10.287130      -279.9270
  11   2.0000     -10.286824      -279.9187
  12   2.0000     -10.285423      -279.8806
  13   2.0000     -10.281535      -279.7748
  14   2.0000     -10.280627      -279.7501
  15   2.0000     -10.277931      -279.6767
  16   2.0000      -8.083870      -219.9733
  17   2.0000      -8.078156      -219.8178
  18   2.0000      -6.042282      -164.4188
  19   2.0000      -6.038304      -164.3106
  20   2.0000      -6.036467      -164.2606
  21   2.0000      -6.034867      -164.2171
  22   2.0000      -6.032836      -164.1618
  23   2.0000      -6.028868      -164.0538
  24   2.0000      -1.003622       -27.3099
  25   2.0000      -0.981159       -26.6987
  26   2.0000      -0.919301       -25.0155
  27   2.0000      -0.911292       -24.7975
  28   2.0000      -0.867194       -23.5975
  29   2.0000      -0.853587       -23.2273
  30   2.0000      -0.844824       -22.9888
  31   2.0000      -0.810212       -22.0470
  32   2.0000      -0.790230       -21.5032
  33   2.0000      -0.778410       -21.1816
  34   2.0000      -0.715763       -19.4769
  35   2.0000      -0.704470       -19.1696
  36   2.0000      -0.692822       -18.8526
  37   2.0000      -0.655892       -17.8477
  38   2.0000      -0.639248       -17.3948
  39   2.0000      -0.624231       -16.9862
  40   2.0000      -0.596490       -16.2313
  41   2.0000      -0.571684       -15.5563
  42   2.0000      -0.567503       -15.4425
  43   2.0000      -0.560266       -15.2456
  44   2.0000      -0.551533       -15.0080
  45   2.0000      -0.527256       -14.3474
  46   2.0000      -0.516978       -14.0677
  47   2.0000      -0.509330       -13.8596
  48   2.0000      -0.503814       -13.7095
  49   2.0000      -0.491512       -13.3747
  50   2.0000      -0.488130       -13.2827
  51   2.0000      -0.484033       -13.1712
  52   2.0000      -0.475572       -12.9410
  53   2.0000      -0.466873       -12.7043
  54   2.0000      -0.460349       -12.5267
  55   2.0000      -0.449410       -12.2291
  56   2.0000      -0.445678       -12.1275
  57   2.0000      -0.441001       -12.0002
  58   2.0000      -0.439536       -11.9604
  59   2.0000      -0.428070       -11.6484
  60   2.0000      -0.426498       -11.6056
  61   2.0000      -0.419147       -11.4056
  62   2.0000      -0.396424       -10.7873
  63   2.0000      -0.334448        -9.1008
  64   2.0000      -0.331786        -9.0284
  65   2.0000      -0.323261        -8.7964
  66   2.0000      -0.291190        -7.9237
  67   0.0000       0.026851         0.7307
  68   0.0000       0.067885         1.8472
  69   0.0000       0.107404         2.9226
  70   0.0000       0.120365         3.2753
  71   0.0000       0.127320         3.4645

MULLIKEN ATOMIC CHARGES
-----------------------
   0 S :    0.127725
   1 C :   -0.146747
   2 C :   -0.070540
   3 C :    0.079540
   4 C :   -0.187894
   5 H :   -0.045770
   6 C :    0.081848
   7 H :    0.013447
   8 H :    0.031175
   9 C :   -0.065486
  10 H :    0.009165
  11 H :    0.024424
  12 C :   -0.063660
  13 H :    0.031551
  14 H :    0.048150
  15 H :    0.042743
  16 S :    0.118049
  17 C :   -0.063052
  18 C :   -0.053466
  19 C :   -0.000280
  20 C :   -0.169480
  21 H :    0.005598
  22 C :    0.077753
  23 H :    0.029151
  24 H :    0.022106
  25 C :   -0.018708
  26 H :    0.020178
  27 H :    0.022898
  28 C :   -0.046675
  29 H :    0.016752
  30 H :    0.021399
  31 H :    0.030913
  32 H :    0.056086
  33 H :    0.021111
Sum of atomic charges:    0.0000000

LOEWDIN ATOMIC CHARGES
----------------------
   0 S :    0.421160
   1 C :   -0.192534
   2 C :   -0.054275
   3 C :   -0.048678
   4 C :   -0.216534
   5 H :    0.006829
   6 C :   -0.028212
   7 H :    0.026225
   8 H :    0.031548
   9 C :   -0.045565
  10 H :    0.018262
  11 H :    0.024843
  12 C :   -0.070088
  13 H :    0.022188
  14 H :    0.035366
  15 H :    0.033677
  16 S :    0.413617
  17 C :   -0.178784
  18 C :   -0.070942
  19 C :   -0.043797
  20 C :   -0.203031
  21 H :    0.023348
  22 C :   -0.033118
  23 H :    0.031297
  24 H :    0.034712
  25 C :   -0.025092
  26 H :    0.019998
  27 H :    0.019114
  28 C :   -0.066635
  29 H :    0.019552
  30 H :    0.024575
  31 H :    0.031174
  32 H :    0.032187
  33 H :    0.007613

  Mayer bond orders larger than 0.100000
B(  0-S ,  1-C ) :   1.1465 B(  0-S ,  4-C ) :   1.1698 B(  1-C ,  2-C ) :   1.5868
B(  1-C , 32-H ) :   0.9636 B(  2-C ,  3-C ) :   1.2573 B(  2-C ,  6-C ) :   1.0117
B(  3-C ,  4-C ) :   1.5374 B(  3-C ,  5-H ) :   1.0120 B(  4-C , 20-C ) :   1.0437
B(  6-C ,  7-H ) :   0.9430 B(  6-C ,  8-H ) :   0.9364 B(  6-C ,  9-C ) :   1.0715
B(  9-C , 10-H ) :   0.9517 B(  9-C , 11-H ) :   0.9525 B(  9-C , 12-C ) :   1.0864
B( 12-C , 13-H ) :   0.9751 B( 12-C , 14-H ) :   0.9702 B( 12-C , 15-H ) :   0.9728
B( 16-S , 17-C ) :   1.1672 B( 16-S , 20-C ) :   1.1583 B( 17-C , 18-C ) :   1.5913
B( 17-C , 20-C ) :   0.1070 B( 17-C , 33-H ) :   0.9825 B( 18-C , 19-C ) :   1.2313
B( 18-C , 21-H ) :   0.9988 B( 19-C , 20-C ) :   1.5513 B( 19-C , 22-C ) :   1.0356
B( 22-C , 23-H ) :   0.9366 B( 22-C , 24-H ) :   0.9297 B( 22-C , 25-C ) :   1.0516
B( 25-C , 26-H ) :   0.9541 B( 25-C , 27-H ) :   0.9656 B( 25-C , 28-C ) :   1.0730
B( 28-C , 29-H ) :   0.9774 B( 28-C , 30-H ) :   0.9765 B( 28-C , 31-H ) :   0.9779

Dispersion correction           -0.013941268
FINAL SINGLE POINT ENERGY     -1339.840063522151

DIPOLE MOMENT
-------------
                                X             Y             Z
Electronic contribution:     -3.36239     -26.61628      -7.88578
Nuclear contribution   :      3.43311      27.26129       8.29668
                        -----------------------------------------
Total Dipole Moment    :      0.07072       0.64502       0.41090
                        -----------------------------------------
Magnitude (a.u.)       :      0.76804
Magnitude (Debye)      :      1.95221

Rotational constants in cm-1:     0.015344     0.009194     0.007064
Rotational constants in MHz :   460.003144   275.634166   211.781744

                             ****ORCA TERMINATED NORMALLY****
TOTAL RUN TIME: 0 days 0 hours 0 minutes 29 seconds 344 msec
