                         Program Version 4.2.1 -  RELEASE  -
|  1> ! wB97X-D3 SP def2-SVP
|  2> %pal
|  3> nprocs 16
|  4> end
|  5>
|  6> * xyz 0 1
|  7> S 	 -101.632 	 56.2332 	 119.898
|  8> C 	 -100.262 	 57.1776 	 119.354
|  9> C 	 -100.257 	 58.4973 	 119.705
| 10> C 	 -101.461 	 58.8132 	 120.402
| 11> C 	 -102.215 	 57.6599 	 120.718
| 12> H 	 -101.813 	 59.7799 	 120.692
| 13> C 	 -99.3236 	 59.599 	 119.339
| 14> H 	 -98.2781 	 59.3148 	 119.086
| 15> H 	 -99.0978 	 60.2434 	 120.226
| 16> C 	 -99.6575 	 60.6333 	 118.182
| 17> H 	 -100.417 	 61.3682 	 118.551
| 18> H 	 -98.7755 	 61.2713 	 118.007
| 19> C 	 -100.155 	 59.9991 	 116.922
| 20> H 	 -100.425 	 60.6741 	 116.088
| 21> H 	 -99.3101 	 59.3038 	 116.693
| 22> H 	 -101.059 	 59.5101 	 117.105
| 23> S 	 -104.821 	 56.8345 	 120.84
| 24> C 	 -105.819 	 57.3181 	 122.107
| 25> C 	 -105.16 	 58.0779 	 123.005
| 26> C 	 -103.787 	 58.3228 	 122.655
| 27> C 	 -103.384 	 57.5876 	 121.53
| 28> H 	 -105.793 	 58.5732 	 123.748
| 29> C 	 -102.918 	 59.3281 	 123.431
| 30> H 	 -101.841 	 59.3458 	 123.202
| 31> H 	 -102.807 	 59.0869 	 124.448
| 32> C 	 -103.445 	 60.8098 	 123.475
| 33> H 	 -104.456 	 60.8117 	 123.737
| 34> H 	 -103.314 	 61.26 	 122.458
| 35> C 	 -102.789 	 61.6583 	 124.54
| 36> H 	 -103.068 	 61.3396 	 125.513
| 37> H 	 -103.234 	 62.6185 	 124.557
| 38> H 	 -101.741 	 61.738 	 124.312
| 39> H 	 -99.3707 	 56.7744 	 118.788
| 40> H 	 -106.859 	 57.029 	 122.167
| 41> *
| 42>
| 43>                          ****END OF INPUT****

CARTESIAN COORDINATES (ANGSTROEM)
---------------------------------
  S    -101.632000   56.233200  119.898000
  C    -100.262000   57.177600  119.354000
  C    -100.257000   58.497300  119.705000
  C    -101.461000   58.813200  120.402000
  C    -102.215000   57.659900  120.718000
  H    -101.813000   59.779900  120.692000
  C    -99.323600   59.599000  119.339000
  H    -98.278100   59.314800  119.086000
  H    -99.097800   60.243400  120.226000
  C    -99.657500   60.633300  118.182000
  H    -100.417000   61.368200  118.551000
  H    -98.775500   61.271300  118.007000
  C    -100.155000   59.999100  116.922000
  H    -100.425000   60.674100  116.088000
  H    -99.310100   59.303800  116.693000
  H    -101.059000   59.510100  117.105000
  S    -104.821000   56.834500  120.840000
  C    -105.819000   57.318100  122.107000
  C    -105.160000   58.077900  123.005000
  C    -103.787000   58.322800  122.655000
  C    -103.384000   57.587600  121.530000
  H    -105.793000   58.573200  123.748000
  C    -102.918000   59.328100  123.431000
  H    -101.841000   59.345800  123.202000
  H    -102.807000   59.086900  124.448000
  C    -103.445000   60.809800  123.475000
  H    -104.456000   60.811700  123.737000
  H    -103.314000   61.260000  122.458000
  C    -102.789000   61.658300  124.540000
  H    -103.068000   61.339600  125.513000
  H    -103.234000   62.618500  124.557000
  H    -101.741000   61.738000  124.312000
  H    -99.370700   56.774400  118.788000
  H    -106.859000   57.029000  122.167000

 Total Charge           Charge          ....    0
 Multiplicity           Mult            ....    1
 Number of Electrons    NEL             ....  134
 Basis Dimension        Dim             ....  322

ORBITAL ENERGIES
----------------

  NO   OCC          E(Eh)            E(eV)
   0   2.0000     -88.971482     -2421.0371
   1   2.0000     -88.960976     -2420.7512
   2   2.0000     -10.328687      -281.0579
   3   2.0000     -10.324918      -280.9553
   4   2.0000     -10.316856      -280.7359
   5   2.0000     -10.311049      -280.5779
   6   2.0000     -10.310857      -280.5727
   7   2.0000     -10.301175      -280.3092
   8   2.0000     -10.299973      -280.2765
   9   2.0000     -10.294763      -280.1348
  10   2.0000     -10.291762      -280.0531
  11   2.0000     -10.291267      -280.0396
  12   2.0000     -10.289177      -279.9828
  13   2.0000     -10.284544      -279.8567
  14   2.0000     -10.271798      -279.5098
  15   2.0000     -10.271079      -279.4903
  16   2.0000      -8.086183      -220.0362
  17   2.0000      -8.077334      -219.7954
  18   2.0000      -6.044607      -164.4821
  19   2.0000      -6.040897      -164.3812
  20   2.0000      -6.036836      -164.2707
  21   2.0000      -6.035733      -164.2406
  22   2.0000      -6.031606      -164.1283
  23   2.0000      -6.028100      -164.0329
  24   2.0000      -1.011858       -27.5341
  25   2.0000      -0.988702       -26.9039
  26   2.0000      -0.911317       -24.7982
  27   2.0000      -0.909171       -24.7398
  28   2.0000      -0.874579       -23.7985
  29   2.0000      -0.857454       -23.3325
  30   2.0000      -0.848350       -23.0848
  31   2.0000      -0.810819       -22.0635
  32   2.0000      -0.787255       -21.4223
  33   2.0000      -0.776780       -21.1373
  34   2.0000      -0.708501       -19.2793
  35   2.0000      -0.698199       -18.9990
  36   2.0000      -0.693628       -18.8746
  37   2.0000      -0.657811       -17.8999
  38   2.0000      -0.632329       -17.2065
  39   2.0000      -0.624136       -16.9836
  40   2.0000      -0.605413       -16.4741
  41   2.0000      -0.570621       -15.5274
  42   2.0000      -0.566243       -15.4083
  43   2.0000      -0.556924       -15.1547
  44   2.0000      -0.543113       -14.7788
  45   2.0000      -0.528042       -14.3688
  46   2.0000      -0.515238       -14.0203
  47   2.0000      -0.510857       -13.9011
  48   2.0000      -0.508714       -13.8428
  49   2.0000      -0.494059       -13.4440
  50   2.0000      -0.489077       -13.3085
  51   2.0000      -0.475997       -12.9525
  52   2.0000      -0.472936       -12.8692
  53   2.0000      -0.466439       -12.6925
  54   2.0000      -0.458038       -12.4638
  55   2.0000      -0.452440       -12.3115
  56   2.0000      -0.449943       -12.2436
  57   2.0000      -0.436933       -11.8896
  58   2.0000      -0.428703       -11.6656
  59   2.0000      -0.426559       -11.6073
  60   2.0000      -0.423486       -11.5236
  61   2.0000      -0.417125       -11.3505
  62   2.0000      -0.404252       -11.0003
  63   2.0000      -0.352098        -9.5811
  64   2.0000      -0.334333        -9.0977
  65   2.0000      -0.328903        -8.9499
  66   2.0000      -0.286918        -7.8074
  67   0.0000       0.025999         0.7075
  68   0.0000       0.074488         2.0269
  69   0.0000       0.107470         2.9244
  70   0.0000       0.115485         3.1425
  71   0.0000       0.127935         3.4813

MULLIKEN ATOMIC CHARGES
-----------------------
   0 S :    0.126436
   1 C :   -0.123105
   2 C :   -0.040909
   3 C :    0.029078
   4 C :   -0.169040
   5 H :    0.003681
   6 C :    0.010469
   7 H :    0.022525
   8 H :    0.034642
   9 C :   -0.099710
  10 H :    0.022020
  11 H :    0.032879
  12 C :   -0.027260
  13 H :    0.038952
  14 H :    0.029780
  15 H :    0.031557
  16 S :    0.093297
  17 C :   -0.090756
  18 C :   -0.037480
  19 C :   -0.013817
  20 C :   -0.117409
  21 H :    0.026167
  22 C :    0.059983
  23 H :    0.020939
  24 H :    0.001382
  25 C :   -0.090864
  26 H :    0.011301
  27 H :    0.035123
  28 C :   -0.010224
  29 H :    0.019011
  30 H :    0.017689
  31 H :    0.035651
  32 H :    0.057901
  33 H :    0.060115
Sum of atomic charges:    0.0000000

LOEWDIN ATOMIC CHARGES
----------------------
   0 S :    0.412878
   1 C :   -0.199779
   2 C :   -0.072148
   3 C :   -0.046563
   4 C :   -0.193925
   5 H :    0.026691
   6 C :   -0.043229
   7 H :    0.030845
   8 H :    0.038882
   9 C :   -0.043538
  10 H :    0.017695
  11 H :    0.025346
  12 C :   -0.067696
  13 H :    0.031238
  14 H :    0.030446
  15 H :    0.019992
  16 S :    0.420030
  17 C :   -0.197768
  18 C :   -0.081593
  19 C :   -0.045522
  20 C :   -0.202932
  21 H :    0.035533
  22 C :   -0.038053
  23 H :    0.031367
  24 H :    0.022939
  25 C :   -0.032989
  26 H :    0.013036
  27 H :    0.023829
  28 C :   -0.058022
  29 H :    0.022501
  30 H :    0.025634
  31 H :    0.024676
  32 H :    0.038304
  33 H :    0.031897

  Mayer bond orders larger than 0.100000
B(  0-S ,  1-C ) :   1.1299 B(  0-S ,  4-C ) :   1.1516 B(  1-C ,  2-C ) :   1.6373
B(  1-C , 32-H ) :   0.9508 B(  2-C ,  3-C ) :   1.2153 B(  2-C ,  6-C ) :   1.0376
B(  3-C ,  4-C ) :   1.5612 B(  3-C ,  5-H ) :   0.9982 B(  4-C , 20-C ) :   1.0650
B(  6-C ,  7-H ) :   0.9440 B(  6-C ,  8-H ) :   0.9368 B(  6-C ,  9-C ) :   1.0622
B(  9-C , 10-H ) :   0.9542 B(  9-C , 11-H ) :   0.9566 B(  9-C , 12-C ) :   1.0771
B( 12-C , 13-H ) :   0.9714 B( 12-C , 14-H ) :   0.9761 B( 12-C , 15-H ) :   0.9697
B( 16-S , 17-C ) :   1.1765 B( 16-S , 20-C ) :   1.1358 B( 17-C , 18-C ) :   1.6086
B( 17-C , 33-H ) :   0.9648 B( 18-C , 19-C ) :   1.2343 B( 18-C , 21-H ) :   0.9895
B( 19-C , 20-C ) :   1.5861 B( 19-C , 22-C ) :   1.0414 B( 22-C , 23-H ) :   0.9375
B( 22-C , 24-H ) :   0.9333 B( 22-C , 25-C ) :   1.0545 B( 25-C , 26-H ) :   0.9539
B( 25-C , 27-H ) :   0.9557 B( 25-C , 28-C ) :   1.0993 B( 28-C , 29-H ) :   0.9683
B( 28-C , 30-H ) :   0.9667 B( 28-C , 31-H ) :   0.9763

Dispersion correction           -0.014246597
FINAL SINGLE POINT ENERGY     -1339.865447422478

DIPOLE MOMENT
-------------
                                X             Y             Z
Electronic contribution:    -11.24801     -26.17238      -2.63354
Nuclear contribution   :     11.26002      26.89295       2.85325
                        -----------------------------------------
Total Dipole Moment    :      0.01200       0.72057       0.21972
                        -----------------------------------------
Magnitude (a.u.)       :      0.75342
Magnitude (Debye)      :      1.91503

Rotational constants in cm-1:     0.016790     0.009287     0.006794
Rotational constants in MHz :   503.362209   278.431958   203.677603

                             ****ORCA TERMINATED NORMALLY****
TOTAL RUN TIME: 0 days 0 hours 0 minutes 34 seconds 931 msec
