                         Program Version 4.2.1 -  RELEASE  -
|  1> ! wB97X-D3 SP def2-SVP
|  2> %pal
|  3> nprocs 16
|  4> end
|  5>
|  6> * xyz 0 1
|  7> S 	 7.61669 	 19.9941 	 40.7299
|  8> C 	 7.36725 	 21.5335 	 39.8428
|  9> C 	 8.39965 	 22.4229 	 40.0626
| 10> C 	 9.45876 	 21.7668 	 40.8254
| 11> C 	 9.25014 	 20.4331 	 41.1544
| 12> H 	 10.3091 	 22.2486 	 41.2736
| 13> C 	 8.37612 	 23.9192 	 39.7071
| 14> H 	 7.6767 	 24.0794 	 38.8399
| 15> H 	 9.3647 	 24.112 	 39.358
| 16> C 	 8.1629 	 24.8827 	 40.9131
| 17> H 	 7.1625 	 24.7047 	 41.4159
| 18> H 	 8.83688 	 24.408 	 41.677
| 19> C 	 8.31408 	 26.4121 	 40.7152
| 20> H 	 7.56743 	 26.7815 	 39.9681
| 21> H 	 8.25387 	 26.782 	 41.7232
| 22> H 	 9.37446 	 26.5829 	 40.3839
| 23> S 	 9.24705 	 18.9111 	 43.4209
| 24> C 	 10.9065 	 18.218 	 43.89
| 25> C 	 11.8613 	 18.4862 	 42.969
| 26> C 	 11.3713 	 19.2188 	 41.8201
| 27> C 	 10.0417 	 19.6363 	 42.0095
| 28> H 	 12.8611 	 18.1641 	 43.312
| 29> C 	 12.2851 	 19.8052 	 40.8115
| 30> H 	 11.6715 	 20.3622 	 40.0326
| 31> H 	 12.8612 	 18.8971 	 40.4396
| 32> C 	 13.374 	 20.7774 	 41.4136
| 33> H 	 14.0327 	 20.1437 	 42.0008
| 34> H 	 12.9973 	 21.6061 	 41.963
| 35> C 	 14.1212 	 21.2751 	 40.2351
| 36> H 	 15.1036 	 21.7666 	 40.5846
| 37> H 	 13.4802 	 22.0789 	 39.7232
| 38> H 	 14.578 	 20.5375 	 39.6255
| 39> H 	 6.48069 	 21.6762 	 39.211
| 40> H 	 11.0884 	 17.5793 	 44.7423
| 41> *
| 42>
| 43>                          ****END OF INPUT****

CARTESIAN COORDINATES (ANGSTROEM)
---------------------------------
  S      7.616690   19.994100   40.729900
  C      7.367250   21.533500   39.842800
  C      8.399650   22.422900   40.062600
  C      9.458760   21.766800   40.825400
  C      9.250140   20.433100   41.154400
  H     10.309100   22.248600   41.273600
  C      8.376120   23.919200   39.707100
  H      7.676700   24.079400   38.839900
  H      9.364700   24.112000   39.358000
  C      8.162900   24.882700   40.913100
  H      7.162500   24.704700   41.415900
  H      8.836880   24.408000   41.677000
  C      8.314080   26.412100   40.715200
  H      7.567430   26.781500   39.968100
  H      8.253870   26.782000   41.723200
  H      9.374460   26.582900   40.383900
  S      9.247050   18.911100   43.420900
  C     10.906500   18.218000   43.890000
  C     11.861300   18.486200   42.969000
  C     11.371300   19.218800   41.820100
  C     10.041700   19.636300   42.009500
  H     12.861100   18.164100   43.312000
  C     12.285100   19.805200   40.811500
  H     11.671500   20.362200   40.032600
  H     12.861200   18.897100   40.439600
  C     13.374000   20.777400   41.413600
  H     14.032700   20.143700   42.000800
  H     12.997300   21.606100   41.963000
  C     14.121200   21.275100   40.235100
  H     15.103600   21.766600   40.584600
  H     13.480200   22.078900   39.723200
  H     14.578000   20.537500   39.625500
  H      6.480690   21.676200   39.211000
  H     11.088400   17.579300   44.742300

 Total Charge           Charge          ....    0
 Multiplicity           Mult            ....    1
 Number of Electrons    NEL             ....  134
 Basis Dimension        Dim             ....  322

ORBITAL ENERGIES
----------------

  NO   OCC          E(Eh)            E(eV)
   0   2.0000     -88.964362     -2420.8434
   1   2.0000     -88.963480     -2420.8194
   2   2.0000     -10.326848      -281.0078
   3   2.0000     -10.326246      -280.9914
   4   2.0000     -10.321244      -280.8553
   5   2.0000     -10.320653      -280.8392
   6   2.0000     -10.309453      -280.5345
   7   2.0000     -10.304849      -280.4092
   8   2.0000     -10.299305      -280.2583
   9   2.0000     -10.298348      -280.2323
  10   2.0000     -10.297991      -280.2226
  11   2.0000     -10.297894      -280.2199
  12   2.0000     -10.296708      -280.1877
  13   2.0000     -10.290797      -280.0268
  14   2.0000     -10.285433      -279.8809
  15   2.0000     -10.283104      -279.8175
  16   2.0000      -8.077998      -219.8135
  17   2.0000      -8.077452      -219.7986
  18   2.0000      -6.036582      -164.2637
  19   2.0000      -6.036106      -164.2508
  20   2.0000      -6.032612      -164.1557
  21   2.0000      -6.032515      -164.1531
  22   2.0000      -6.028596      -164.0464
  23   2.0000      -6.027807      -164.0250
  24   2.0000      -1.002906       -27.2905
  25   2.0000      -0.973698       -26.4957
  26   2.0000      -0.912747       -24.8371
  27   2.0000      -0.906482       -24.6666
  28   2.0000      -0.873663       -23.7736
  29   2.0000      -0.851490       -23.1702
  30   2.0000      -0.842123       -22.9153
  31   2.0000      -0.816687       -22.2232
  32   2.0000      -0.782873       -21.3031
  33   2.0000      -0.760963       -20.7069
  34   2.0000      -0.707668       -19.2566
  35   2.0000      -0.695073       -18.9139
  36   2.0000      -0.691717       -18.8226
  37   2.0000      -0.656751       -17.8711
  38   2.0000      -0.641886       -17.4666
  39   2.0000      -0.615971       -16.7614
  40   2.0000      -0.588985       -16.0271
  41   2.0000      -0.580210       -15.7883
  42   2.0000      -0.563799       -15.3417
  43   2.0000      -0.554957       -15.1011
  44   2.0000      -0.532636       -14.4938
  45   2.0000      -0.520909       -14.1747
  46   2.0000      -0.517477       -14.0813
  47   2.0000      -0.510047       -13.8791
  48   2.0000      -0.505232       -13.7481
  49   2.0000      -0.500355       -13.6153
  50   2.0000      -0.495152       -13.4738
  51   2.0000      -0.470730       -12.8092
  52   2.0000      -0.466615       -12.6972
  53   2.0000      -0.463567       -12.6143
  54   2.0000      -0.455439       -12.3931
  55   2.0000      -0.449586       -12.2339
  56   2.0000      -0.445674       -12.1274
  57   2.0000      -0.434612       -11.8264
  58   2.0000      -0.431571       -11.7437
  59   2.0000      -0.424416       -11.5489
  60   2.0000      -0.420087       -11.4311
  61   2.0000      -0.410780       -11.1779
  62   2.0000      -0.409699       -11.1485
  63   2.0000      -0.349700        -9.5158
  64   2.0000      -0.328153        -8.9295
  65   2.0000      -0.326893        -8.8952
  66   2.0000      -0.288752        -7.8573
  67   0.0000       0.026264         0.7147
  68   0.0000       0.063642         1.7318
  69   0.0000       0.094373         2.5680
  70   0.0000       0.121515         3.3066
  71   0.0000       0.123758         3.3676

MULLIKEN ATOMIC CHARGES
-----------------------
   0 S :    0.092554
   1 C :   -0.142891
   2 C :   -0.072992
   3 C :    0.004787
   4 C :   -0.143015
   5 H :    0.011229
   6 C :    0.094514
   7 H :    0.030062
   8 H :    0.012510
   9 C :   -0.139403
  10 H :    0.033175
  11 H :    0.027883
  12 C :   -0.027827
  13 H :    0.058538
  14 H :    0.044851
  15 H :    0.034815
  16 S :    0.080904
  17 C :   -0.097078
  18 C :   -0.037513
  19 C :    0.012486
  20 C :   -0.153522
  21 H :    0.034529
  22 C :   -0.019740
  23 H :    0.052283
  24 H :    0.040821
  25 C :   -0.037655
  26 H :    0.021341
  27 H :    0.033171
  28 C :   -0.062953
  29 H :    0.025673
  30 H :    0.050196
  31 H :    0.024302
  32 H :    0.061279
  33 H :    0.052686
Sum of atomic charges:   -0.0000000

LOEWDIN ATOMIC CHARGES
----------------------
   0 S :    0.384588
   1 C :   -0.179265
   2 C :   -0.061525
   3 C :   -0.064246
   4 C :   -0.195686
   5 H :    0.025558
   6 C :   -0.032709
   7 H :    0.032042
   8 H :    0.023995
   9 C :   -0.055080
  10 H :    0.026721
  11 H :    0.027649
  12 C :   -0.065519
  13 H :    0.035901
  14 H :    0.031434
  15 H :    0.029233
  16 S :    0.339492
  17 C :   -0.146948
  18 C :   -0.071188
  19 C :   -0.057221
  20 C :   -0.188447
  21 H :    0.041964
  22 C :   -0.039921
  23 H :    0.037398
  24 H :    0.041245
  25 C :   -0.034241
  26 H :    0.021986
  27 H :    0.020834
  28 C :   -0.072349
  29 H :    0.029677
  30 H :    0.035531
  31 H :    0.019166
  32 H :    0.031883
  33 H :    0.028049

  Mayer bond orders larger than 0.100000
B(  0-S ,  1-C ) :   1.1289 B(  0-S ,  4-C ) :   1.1350 B(  1-C ,  2-C ) :   1.6232
B(  1-C , 32-H ) :   0.9688 B(  2-C ,  3-C ) :   1.2160 B(  2-C ,  6-C ) :   1.0274
B(  3-C ,  4-C ) :   1.5728 B(  3-C ,  5-H ) :   0.9904 B(  4-C , 20-C ) :   1.0891
B(  6-C ,  7-H ) :   0.9426 B(  6-C ,  8-H ) :   0.9322 B(  6-C ,  9-C ) :   1.0497
B(  9-C , 10-H ) :   0.9550 B(  9-C , 11-H ) :   0.9554 B(  9-C , 12-C ) :   1.0698
B( 12-C , 13-H ) :   0.9737 B( 12-C , 14-H ) :   0.9719 B( 12-C , 15-H ) :   0.9747
B( 16-S , 17-C ) :   1.0959 B( 16-S , 20-C ) :   1.1080 B( 17-C , 18-C ) :   1.7118
B( 17-C , 33-H ) :   0.9641 B( 18-C , 19-C ) :   1.1507 B( 18-C , 21-H ) :   0.9788
B( 19-C , 20-C ) :   1.6153 B( 19-C , 22-C ) :   1.0709 B( 22-C , 23-H ) :   0.9362
B( 22-C , 24-H ) :   0.9224 B( 22-C , 25-C ) :   1.0596 B( 25-C , 26-H ) :   0.9446
B( 25-C , 27-H ) :   0.9568 B( 25-C , 28-C ) :   1.1023 B( 28-C , 29-H ) :   0.9680
B( 28-C , 30-H ) :   0.9730 B( 28-C , 31-H ) :   0.9687

Dispersion correction           -0.013914074
FINAL SINGLE POINT ENERGY     -1339.853158686523

DIPOLE MOMENT
-------------
                                X             Y             Z
Electronic contribution:    -15.56055     -23.72613       8.10573
Nuclear contribution   :     16.11769      24.22834      -8.11111
                        -----------------------------------------
Total Dipole Moment    :      0.55713       0.50221      -0.00537
                        -----------------------------------------
Magnitude (a.u.)       :      0.75010
Magnitude (Debye)      :      1.90660

Rotational constants in cm-1:     0.016750     0.008718     0.006702
Rotational constants in MHz :   502.162531   261.359606   200.930194

                             ****ORCA TERMINATED NORMALLY****
TOTAL RUN TIME: 0 days 0 hours 0 minutes 35 seconds 55 msec
