                         Program Version 4.2.1 -  RELEASE  -
|  1> ! wB97X-D3 SP def2-SVP
|  2> %pal
|  3> nprocs 16
|  4> end
|  5>
|  6> * xyz 0 1
|  7> S 	 -17.143 	 36.8834 	 38.5507
|  8> C 	 -17.4728 	 36.5196 	 36.8832
|  9> C 	 -16.3501 	 36.1058 	 36.2545
| 10> C 	 -15.1916 	 36.1241 	 37.1293
| 11> C 	 -15.4474 	 36.6114 	 38.4296
| 12> H 	 -14.1442 	 35.9841 	 36.7623
| 13> C 	 -16.291 	 35.7989 	 34.7574
| 14> H 	 -15.3037 	 35.7185 	 34.3131
| 15> H 	 -16.757 	 36.6238 	 34.2854
| 16> C 	 -17.0617 	 34.5657 	 34.303
| 17> H 	 -18.0406 	 34.5639 	 34.7897
| 18> H 	 -17.2736 	 34.6607 	 33.2267
| 19> C 	 -16.2938 	 33.2918 	 34.5426
| 20> H 	 -15.9362 	 33.3163 	 35.5542
| 21> H 	 -16.9689 	 32.445 	 34.3984
| 22> H 	 -15.4186 	 33.1344 	 33.8348
| 23> S 	 -15.0002 	 38.2173 	 40.5773
| 24> C 	 -13.4259 	 38.2477 	 41.369
| 25> C 	 -12.6557 	 37.2016 	 40.9652
| 26> C 	 -13.1492 	 36.4808 	 39.8355
| 27> C 	 -14.4791 	 36.8746 	 39.4776
| 28> H 	 -11.7444 	 36.9728 	 41.487
| 29> C 	 -12.3137 	 35.38 	 39.1477
| 30> H 	 -12.8447 	 35.0929 	 38.2517
| 31> H 	 -12.1858 	 34.5327 	 39.8952
| 32> C 	 -10.9983 	 35.971 	 38.7225
| 33> H 	 -10.3669 	 36.0894 	 39.5995
| 34> H 	 -11.1782 	 36.9253 	 38.2782
| 35> C 	 -10.2292 	 35.0351 	 37.817
| 36> H 	 -10.1481 	 34.0516 	 38.4244
| 37> H 	 -9.23472 	 35.2935 	 37.583
| 38> H 	 -10.8129 	 34.8174 	 36.8963
| 39> H 	 -18.3632 	 36.8635 	 36.3375
| 40> H 	 -13.3081 	 38.8494 	 42.2054
| 41> *
| 42>
| 43>                          ****END OF INPUT****

CARTESIAN COORDINATES (ANGSTROEM)
---------------------------------
  S    -17.143000   36.883400   38.550700
  C    -17.472800   36.519600   36.883200
  C    -16.350100   36.105800   36.254500
  C    -15.191600   36.124100   37.129300
  C    -15.447400   36.611400   38.429600
  H    -14.144200   35.984100   36.762300
  C    -16.291000   35.798900   34.757400
  H    -15.303700   35.718500   34.313100
  H    -16.757000   36.623800   34.285400
  C    -17.061700   34.565700   34.303000
  H    -18.040600   34.563900   34.789700
  H    -17.273600   34.660700   33.226700
  C    -16.293800   33.291800   34.542600
  H    -15.936200   33.316300   35.554200
  H    -16.968900   32.445000   34.398400
  H    -15.418600   33.134400   33.834800
  S    -15.000200   38.217300   40.577300
  C    -13.425900   38.247700   41.369000
  C    -12.655700   37.201600   40.965200
  C    -13.149200   36.480800   39.835500
  C    -14.479100   36.874600   39.477600
  H    -11.744400   36.972800   41.487000
  C    -12.313700   35.380000   39.147700
  H    -12.844700   35.092900   38.251700
  H    -12.185800   34.532700   39.895200
  C    -10.998300   35.971000   38.722500
  H    -10.366900   36.089400   39.599500
  H    -11.178200   36.925300   38.278200
  C    -10.229200   35.035100   37.817000
  H    -10.148100   34.051600   38.424400
  H     -9.234720   35.293500   37.583000
  H    -10.812900   34.817400   36.896300
  H    -18.363200   36.863500   36.337500
  H    -13.308100   38.849400   42.205400

 Total Charge           Charge          ....    0
 Multiplicity           Mult            ....    1
 Number of Electrons    NEL             ....  134
 Basis Dimension        Dim             ....  322

ORBITAL ENERGIES
----------------

  NO   OCC          E(Eh)            E(eV)
   0   2.0000     -88.966613     -2420.9046
   1   2.0000     -88.961763     -2420.7726
   2   2.0000     -10.339564      -281.3539
   3   2.0000     -10.335421      -281.2411
   4   2.0000     -10.315786      -280.7068
   5   2.0000     -10.314697      -280.6772
   6   2.0000     -10.311677      -280.5950
   7   2.0000     -10.302990      -280.3586
   8   2.0000     -10.300432      -280.2890
   9   2.0000     -10.298540      -280.2375
  10   2.0000     -10.295740      -280.1613
  11   2.0000     -10.287147      -279.9275
  12   2.0000     -10.283121      -279.8179
  13   2.0000     -10.282596      -279.8037
  14   2.0000     -10.282016      -279.7879
  15   2.0000     -10.275759      -279.6176
  16   2.0000      -8.081953      -219.9211
  17   2.0000      -8.075992      -219.7589
  18   2.0000      -6.040598      -164.3730
  19   2.0000      -6.036274      -164.2554
  20   2.0000      -6.034518      -164.2076
  21   2.0000      -6.032611      -164.1557
  22   2.0000      -6.030665      -164.1027
  23   2.0000      -6.026654      -163.9936
  24   2.0000      -1.007093       -27.4044
  25   2.0000      -0.982835       -26.7443
  26   2.0000      -0.919724       -25.0270
  27   2.0000      -0.916051       -24.9270
  28   2.0000      -0.874155       -23.7870
  29   2.0000      -0.850612       -23.1463
  30   2.0000      -0.841286       -22.8926
  31   2.0000      -0.814233       -22.1564
  32   2.0000      -0.783519       -21.3206
  33   2.0000      -0.773764       -21.0552
  34   2.0000      -0.706690       -19.2300
  35   2.0000      -0.700489       -19.0613
  36   2.0000      -0.693710       -18.8768
  37   2.0000      -0.661731       -18.0066
  38   2.0000      -0.635802       -17.3010
  39   2.0000      -0.615615       -16.7517
  40   2.0000      -0.600867       -16.3504
  41   2.0000      -0.581731       -15.8297
  42   2.0000      -0.577969       -15.7273
  43   2.0000      -0.557489       -15.1700
  44   2.0000      -0.541327       -14.7302
  45   2.0000      -0.531653       -14.4670
  46   2.0000      -0.517394       -14.0790
  47   2.0000      -0.510530       -13.8922
  48   2.0000      -0.504762       -13.7353
  49   2.0000      -0.502106       -13.6630
  50   2.0000      -0.485641       -13.2150
  51   2.0000      -0.481816       -13.1109
  52   2.0000      -0.472943       -12.8694
  53   2.0000      -0.469725       -12.7819
  54   2.0000      -0.455719       -12.4007
  55   2.0000      -0.452202       -12.3050
  56   2.0000      -0.443359       -12.0644
  57   2.0000      -0.432520       -11.7695
  58   2.0000      -0.428491       -11.6598
  59   2.0000      -0.427116       -11.6224
  60   2.0000      -0.424265       -11.5448
  61   2.0000      -0.414648       -11.2831
  62   2.0000      -0.410679       -11.1751
  63   2.0000      -0.360787        -9.8175
  64   2.0000      -0.333249        -9.0682
  65   2.0000      -0.327185        -8.9031
  66   2.0000      -0.284658        -7.7459
  67   0.0000       0.014745         0.4012
  68   0.0000       0.076304         2.0763
  69   0.0000       0.107026         2.9123
  70   0.0000       0.114787         3.1235
  71   0.0000       0.131218         3.5706

MULLIKEN ATOMIC CHARGES
-----------------------
   0 S :    0.109975
   1 C :   -0.133232
   2 C :   -0.087444
   3 C :   -0.014484
   4 C :   -0.115458
   5 H :    0.028897
   6 C :    0.081016
   7 H :    0.015711
   8 H :    0.018037
   9 C :   -0.083698
  10 H :    0.025312
  11 H :    0.026276
  12 C :   -0.049764
  13 H :    0.032265
  14 H :    0.034203
  15 H :    0.036960
  16 S :    0.060941
  17 C :   -0.058528
  18 C :   -0.018716
  19 C :   -0.078249
  20 C :   -0.126849
  21 H :    0.020082
  22 C :    0.085337
  23 H :    0.006788
  24 H :    0.053403
  25 C :   -0.092659
  26 H :    0.026900
  27 H :    0.035548
  28 C :   -0.035636
  29 H :    0.025990
  30 H :    0.030714
  31 H :    0.033297
  32 H :    0.065369
  33 H :    0.041695
Sum of atomic charges:   -0.0000000

LOEWDIN ATOMIC CHARGES
----------------------
   0 S :    0.420782
   1 C :   -0.209625
   2 C :   -0.061602
   3 C :   -0.081451
   4 C :   -0.203697
   5 H :    0.032516
   6 C :   -0.029158
   7 H :    0.028243
   8 H :    0.028663
   9 C :   -0.043031
  10 H :    0.022539
  11 H :    0.023927
  12 C :   -0.067311
  13 H :    0.023023
  14 H :    0.026819
  15 H :    0.030338
  16 S :    0.368610
  17 C :   -0.159617
  18 C :   -0.068886
  19 C :   -0.048176
  20 C :   -0.172637
  21 H :    0.031610
  22 C :   -0.025790
  23 H :    0.024125
  24 H :    0.042658
  25 C :   -0.044752
  26 H :    0.023438
  27 H :    0.022621
  28 C :   -0.064030
  29 H :    0.033854
  30 H :    0.017417
  31 H :    0.024980
  32 H :    0.038251
  33 H :    0.015351

  Mayer bond orders larger than 0.100000
B(  0-S ,  1-C ) :   1.1300 B(  0-S ,  4-C ) :   1.1621 B(  1-C ,  2-C ) :   1.6212
B(  1-C , 32-H ) :   0.9588 B(  2-C ,  3-C ) :   1.2602 B(  2-C ,  6-C ) :   1.0169
B(  3-C ,  4-C ) :   1.5390 B(  3-C ,  5-H ) :   0.9788 B(  4-C , 20-C ) :   1.0847
B(  6-C ,  7-H ) :   0.9467 B(  6-C ,  8-H ) :   0.9341 B(  6-C ,  9-C ) :   1.0805
B(  9-C , 10-H ) :   0.9546 B(  9-C , 11-H ) :   0.9526 B(  9-C , 12-C ) :   1.0821
B( 12-C , 13-H ) :   0.9769 B( 12-C , 14-H ) :   0.9725 B( 12-C , 15-H ) :   0.9727
B( 16-S , 17-C ) :   1.1517 B( 16-S , 20-C ) :   1.1248 B( 17-C , 18-C ) :   1.6123
B( 17-C , 20-C ) :   0.1031 B( 17-C , 33-H ) :   0.9745 B( 18-C , 19-C ) :   1.2348
B( 18-C , 21-H ) :   0.9893 B( 19-C , 20-C ) :   1.5713 B( 19-C , 22-C ) :   1.0378
B( 22-C , 23-H ) :   0.9385 B( 22-C , 24-H ) :   0.9277 B( 22-C , 25-C ) :   1.0632
B( 25-C , 26-H ) :   0.9461 B( 25-C , 27-H ) :   0.9585 B( 25-C , 28-C ) :   1.0948
B( 28-C , 29-H ) :   0.9673 B( 28-C , 30-H ) :   0.9748 B( 28-C , 31-H ) :   0.9741

Dispersion correction           -0.013571426
FINAL SINGLE POINT ENERGY     -1339.877188063821

DIPOLE MOMENT
-------------
                                X             Y             Z
Electronic contribution:    -14.55917      17.29970      20.12487
Nuclear contribution   :     15.08789     -17.44007     -20.48127
                        -----------------------------------------
Total Dipole Moment    :      0.52873      -0.14037      -0.35640
                        -----------------------------------------
Magnitude (a.u.)       :      0.65290
Magnitude (Debye)      :      1.65954

Rotational constants in cm-1:     0.017658     0.008855     0.006157
Rotational constants in MHz :   529.368896   265.457683   184.596306

                             ****ORCA TERMINATED NORMALLY****
TOTAL RUN TIME: 0 days 0 hours 0 minutes 34 seconds 328 msec
