                         Program Version 4.2.1 -  RELEASE  -
|  1> ! wB97X-D3 SP def2-SVP
|  2> %pal
|  3> nprocs 16
|  4> end
|  5>
|  6> * xyz 0 1
|  7> S 	 6.13169 	 -16.6325 	 82.2924
|  8> C 	 7.58044 	 -17.5331 	 82.5409
|  9> C 	 8.52108 	 -16.8014 	 83.2254
| 10> C 	 8.02489 	 -15.5088 	 83.5762
| 11> C 	 6.7771 	 -15.2061 	 83.0532
| 12> H 	 8.60972 	 -14.652 	 83.9743
| 13> C 	 9.96685 	 -17.1859 	 83.42
| 14> H 	 10.5083 	 -16.3587 	 83.8984
| 15> H 	 10.5725 	 -17.4282 	 82.5259
| 16> C 	 10.1127 	 -18.1545 	 84.5814
| 17> H 	 9.77672 	 -17.593 	 85.4675
| 18> H 	 9.42307 	 -18.9072 	 84.2936
| 19> C 	 11.5943 	 -18.6887 	 84.7913
| 20> H 	 11.8999 	 -19.2329 	 85.7104
| 21> H 	 11.9452 	 -19.2938 	 83.9459
| 22> H 	 12.2986 	 -17.8404 	 84.6759
| 23> S 	 4.77496 	 -14.2878 	 84.51
| 24> C 	 4.31908 	 -12.6355 	 84.4557
| 25> C 	 5.18088 	 -11.8651 	 83.6798
| 26> C 	 6.13061 	 -12.7126 	 83.014
| 27> C 	 5.99214 	 -14.0601 	 83.3377
| 28> H 	 5.2593 	 -10.7788 	 83.6943
| 29> C 	 7.23634 	 -12.1009 	 82.1915
| 30> H 	 6.67964 	 -11.6895 	 81.2727
| 31> H 	 7.86478 	 -12.9657 	 81.8565
| 32> C 	 8.06428 	 -10.99 	 82.8208
| 33> H 	 8.57058 	 -11.2536 	 83.7543
| 34> H 	 7.34383 	 -10.2304 	 83.1004
| 35> C 	 9.10432 	 -10.398 	 81.8677
| 36> H 	 9.69553 	 -11.2505 	 81.5251
| 37> H 	 9.7785 	 -9.7127 	 82.3933
| 38> H 	 8.58752 	 -10.0602 	 80.9706
| 39> H 	 7.87564 	 -18.4723 	 82.1207
| 40> H 	 3.50516 	 -12.2314 	 85.0055
| 41> *
| 42>
| 43>                          ****END OF INPUT****

CARTESIAN COORDINATES (ANGSTROEM)
---------------------------------
  S      6.131690  -16.632500   82.292400
  C      7.580440  -17.533100   82.540900
  C      8.521080  -16.801400   83.225400
  C      8.024890  -15.508800   83.576200
  C      6.777100  -15.206100   83.053200
  H      8.609720  -14.652000   83.974300
  C      9.966850  -17.185900   83.420000
  H     10.508300  -16.358700   83.898400
  H     10.572500  -17.428200   82.525900
  C     10.112700  -18.154500   84.581400
  H      9.776720  -17.593000   85.467500
  H      9.423070  -18.907200   84.293600
  C     11.594300  -18.688700   84.791300
  H     11.899900  -19.232900   85.710400
  H     11.945200  -19.293800   83.945900
  H     12.298600  -17.840400   84.675900
  S      4.774960  -14.287800   84.510000
  C      4.319080  -12.635500   84.455700
  C      5.180880  -11.865100   83.679800
  C      6.130610  -12.712600   83.014000
  C      5.992140  -14.060100   83.337700
  H      5.259300  -10.778800   83.694300
  C      7.236340  -12.100900   82.191500
  H      6.679640  -11.689500   81.272700
  H      7.864780  -12.965700   81.856500
  C      8.064280  -10.990000   82.820800
  H      8.570580  -11.253600   83.754300
  H      7.343830  -10.230400   83.100400
  C      9.104320  -10.398000   81.867700
  H      9.695530  -11.250500   81.525100
  H      9.778500   -9.712700   82.393300
  H      8.587520  -10.060200   80.970600
  H      7.875640  -18.472300   82.120700
  H      3.505160  -12.231400   85.005500

 Total Charge           Charge          ....    0
 Multiplicity           Mult            ....    1
 Number of Electrons    NEL             ....  134
 Basis Dimension        Dim             ....  322

ORBITAL ENERGIES
----------------

  NO   OCC          E(Eh)            E(eV)
   0   2.0000     -88.968186     -2420.9474
   1   2.0000     -88.964810     -2420.8556
   2   2.0000     -10.324808      -280.9523
   3   2.0000     -10.317910      -280.7646
   4   2.0000     -10.314159      -280.6625
   5   2.0000     -10.312379      -280.6141
   6   2.0000     -10.301632      -280.3217
   7   2.0000     -10.300373      -280.2874
   8   2.0000     -10.296838      -280.1912
   9   2.0000     -10.296248      -280.1752
  10   2.0000     -10.294365      -280.1239
  11   2.0000     -10.291376      -280.0426
  12   2.0000     -10.287872      -279.9472
  13   2.0000     -10.286764      -279.9171
  14   2.0000     -10.286749      -279.9167
  15   2.0000     -10.280016      -279.7335
  16   2.0000      -8.083356      -219.9593
  17   2.0000      -8.081121      -219.8985
  18   2.0000      -6.041803      -164.4058
  19   2.0000      -6.039462      -164.3421
  20   2.0000      -6.037659      -164.2931
  21   2.0000      -6.035354      -164.2303
  22   2.0000      -6.034277      -164.2010
  23   2.0000      -6.031994      -164.1389
  24   2.0000      -1.016191       -27.6520
  25   2.0000      -0.990921       -26.9643
  26   2.0000      -0.916640       -24.9431
  27   2.0000      -0.912435       -24.8286
  28   2.0000      -0.874898       -23.8072
  29   2.0000      -0.854695       -23.2574
  30   2.0000      -0.844587       -22.9824
  31   2.0000      -0.812885       -22.1197
  32   2.0000      -0.781210       -21.2578
  33   2.0000      -0.770756       -20.9733
  34   2.0000      -0.707520       -19.2526
  35   2.0000      -0.701252       -19.0820
  36   2.0000      -0.697672       -18.9846
  37   2.0000      -0.663073       -18.0431
  38   2.0000      -0.644713       -17.5435
  39   2.0000      -0.614767       -16.7287
  40   2.0000      -0.597366       -16.2552
  41   2.0000      -0.578995       -15.7553
  42   2.0000      -0.568552       -15.4711
  43   2.0000      -0.560428       -15.2500
  44   2.0000      -0.531263       -14.4564
  45   2.0000      -0.523487       -14.2448
  46   2.0000      -0.519689       -14.1414
  47   2.0000      -0.509174       -13.8553
  48   2.0000      -0.508296       -13.8314
  49   2.0000      -0.496979       -13.5235
  50   2.0000      -0.494124       -13.4458
  51   2.0000      -0.476466       -12.9653
  52   2.0000      -0.470422       -12.8008
  53   2.0000      -0.464146       -12.6301
  54   2.0000      -0.460736       -12.5373
  55   2.0000      -0.452603       -12.3160
  56   2.0000      -0.445396       -12.1198
  57   2.0000      -0.442527       -12.0418
  58   2.0000      -0.434305       -11.8181
  59   2.0000      -0.426212       -11.5978
  60   2.0000      -0.420778       -11.4499
  61   2.0000      -0.414806       -11.2874
  62   2.0000      -0.406971       -11.0742
  63   2.0000      -0.341458        -9.2915
  64   2.0000      -0.327688        -8.9168
  65   2.0000      -0.326489        -8.8842
  66   2.0000      -0.303377        -8.2553
  67   0.0000       0.039992         1.0882
  68   0.0000       0.058819         1.6006
  69   0.0000       0.114175         3.1069
  70   0.0000       0.118365         3.2209
  71   0.0000       0.129011         3.5106

MULLIKEN ATOMIC CHARGES
-----------------------
   0 S :    0.128148
   1 C :   -0.091255
   2 C :   -0.094542
   3 C :    0.046719
   4 C :   -0.209321
   5 H :    0.029188
   6 C :    0.024104
   7 H :    0.011724
   8 H :    0.048433
   9 C :   -0.061138
  10 H :    0.039604
  11 H :    0.019318
  12 C :   -0.057773
  13 H :    0.052899
  14 H :    0.024734
  15 H :    0.016988
  16 S :    0.134641
  17 C :   -0.078467
  18 C :   -0.043696
  19 C :   -0.026721
  20 C :   -0.164879
  21 H :    0.028793
  22 C :    0.014994
  23 H :    0.046041
  24 H :    0.032776
  25 C :   -0.079787
  26 H :    0.030138
  27 H :    0.018283
  28 C :   -0.020678
  29 H :    0.021775
  30 H :    0.045573
  31 H :    0.028599
  32 H :    0.038801
  33 H :    0.045984
Sum of atomic charges:   -0.0000000

LOEWDIN ATOMIC CHARGES
----------------------
   0 S :    0.429071
   1 C :   -0.198791
   2 C :   -0.067456
   3 C :   -0.059732
   4 C :   -0.213037
   5 H :    0.037906
   6 C :   -0.040188
   7 H :    0.029965
   8 H :    0.032618
   9 C :   -0.032764
  10 H :    0.029712
  11 H :    0.012959
  12 C :   -0.080900
  13 H :    0.031890
  14 H :    0.025704
  15 H :    0.024796
  16 S :    0.451366
  17 C :   -0.187641
  18 C :   -0.074096
  19 C :   -0.054706
  20 C :   -0.229613
  21 H :    0.032781
  22 C :   -0.041545
  23 H :    0.043210
  24 H :    0.030790
  25 C :   -0.044151
  26 H :    0.024331
  27 H :    0.017990
  28 C :   -0.061728
  29 H :    0.025693
  30 H :    0.030255
  31 H :    0.026023
  32 H :    0.027858
  33 H :    0.021429

  Mayer bond orders larger than 0.100000
B(  0-S ,  1-C ) :   1.1550 B(  0-S ,  4-C ) :   1.1557 B(  1-C ,  2-C ) :   1.5969
B(  1-C , 32-H ) :   0.9650 B(  2-C ,  3-C ) :   1.2678 B(  2-C ,  6-C ) :   1.0195
B(  3-C ,  4-C ) :   1.5759 B(  3-C ,  5-H ) :   0.9812 B(  4-C , 20-C ) :   1.0241
B(  6-C ,  7-H ) :   0.9422 B(  6-C ,  8-H ) :   0.9548 B(  6-C ,  9-C ) :   1.0267
B(  9-C , 10-H ) :   0.9613 B(  9-C , 11-H ) :   0.9698 B(  9-C , 12-C ) :   1.0609
B( 12-C , 13-H ) :   0.9790 B( 12-C , 14-H ) :   0.9747 B( 12-C , 15-H ) :   0.9711
B( 16-S , 17-C ) :   1.1851 B( 16-S , 20-C ) :   1.1645 B( 17-C , 18-C ) :   1.5759
B( 17-C , 33-H ) :   0.9720 B( 18-C , 19-C ) :   1.2600 B( 18-C , 21-H ) :   0.9877
B( 19-C , 20-C ) :   1.5839 B( 19-C , 22-C ) :   1.0478 B( 22-C , 23-H ) :   0.9286
B( 22-C , 24-H ) :   0.9336 B( 22-C , 25-C ) :   1.0649 B( 25-C , 26-H ) :   0.9552
B( 25-C , 27-H ) :   0.9468 B( 25-C , 28-C ) :   1.0887 B( 28-C , 29-H ) :   0.9732
B( 28-C , 30-H ) :   0.9734 B( 28-C , 31-H ) :   0.9720

Dispersion correction           -0.013530250
FINAL SINGLE POINT ENERGY     -1339.870960128844

DIPOLE MOMENT
-------------
                                X             Y             Z
Electronic contribution:    -27.36589      -5.44503       0.08535
Nuclear contribution   :     27.95816       5.78447      -0.04543
                        -----------------------------------------
Total Dipole Moment    :      0.59226       0.33944       0.03992
                        -----------------------------------------
Magnitude (a.u.)       :      0.68380
Magnitude (Debye)      :      1.73809

Rotational constants in cm-1:     0.017979     0.007860     0.006303
Rotational constants in MHz :   539.006229   235.643727   188.953683

                             ****ORCA TERMINATED NORMALLY****
TOTAL RUN TIME: 0 days 0 hours 0 minutes 33 seconds 181 msec
