                         Program Version 4.2.1 -  RELEASE  -
|  1> ! wB97X-D3 SP def2-SVP
|  2> %pal
|  3> nprocs 16
|  4> end
|  5>
|  6> * xyz 0 1
|  7> S 	 52.5374 	 -0.896869 	 81.4014
|  8> C 	 51.0025 	 -0.276396 	 81.893
|  9> C 	 51.1201 	 0.200564 	 83.2101
| 10> C 	 52.5267 	 0.189589 	 83.7397
| 11> C 	 53.372 	 -0.401815 	 82.8286
| 12> H 	 52.8265 	 0.597131 	 84.7696
| 13> C 	 49.9968 	 0.644754 	 84.1301
| 14> H 	 49.1392 	 0.769738 	 83.5125
| 15> H 	 50.3449 	 1.57281 	 84.6065
| 16> C 	 49.832 	 -0.491117 	 85.1893
| 17> H 	 49.6461 	 -1.50406 	 84.7019
| 18> H 	 50.6546 	 -0.537291 	 85.9168
| 19> C 	 48.6819 	 -0.201886 	 86.1696
| 20> H 	 48.742 	 0.831328 	 86.5986
| 21> H 	 47.7429 	 -0.244456 	 85.6802
| 22> H 	 48.6506 	 -0.963157 	 86.9367
| 23> S 	 55.4257 	 -1.72395 	 84.09
| 24> C 	 57.0155 	 -1.72354 	 83.2412
| 25> C 	 57.0817 	 -0.775071 	 82.239
| 26> C 	 55.8119 	 -0.181115 	 81.9809
| 27> C 	 54.8352 	 -0.577528 	 82.8594
| 28> H 	 58.0326 	 -0.579243 	 81.6633
| 29> C 	 55.5822 	 0.671261 	 80.7306
| 30> H 	 56.3067 	 1.50908 	 80.8155
| 31> H 	 54.5726 	 1.19885 	 80.6561
| 32> C 	 55.7615 	 -0.089273 	 79.354
| 33> H 	 54.8847 	 -0.603128 	 79.1232
| 34> H 	 56.5582 	 -0.754483 	 79.4443
| 35> C 	 56.3124 	 0.726831 	 78.1769
| 36> H 	 56.3976 	 0.0464327 	 77.3069
| 37> H 	 57.3732 	 1.13622 	 78.2567
| 38> H 	 55.674 	 1.50092 	 77.8276
| 39> H 	 50.0364 	 -0.449868 	 81.4397
| 40> H 	 57.866 	 -2.31152 	 83.512
| 41> *
| 42>
| 43>                          ****END OF INPUT****

CARTESIAN COORDINATES (ANGSTROEM)
---------------------------------
  S     52.537400   -0.896869   81.401400
  C     51.002500   -0.276396   81.893000
  C     51.120100    0.200564   83.210100
  C     52.526700    0.189589   83.739700
  C     53.372000   -0.401815   82.828600
  H     52.826500    0.597131   84.769600
  C     49.996800    0.644754   84.130100
  H     49.139200    0.769738   83.512500
  H     50.344900    1.572810   84.606500
  C     49.832000   -0.491117   85.189300
  H     49.646100   -1.504060   84.701900
  H     50.654600   -0.537291   85.916800
  C     48.681900   -0.201886   86.169600
  H     48.742000    0.831328   86.598600
  H     47.742900   -0.244456   85.680200
  H     48.650600   -0.963157   86.936700
  S     55.425700   -1.723950   84.090000
  C     57.015500   -1.723540   83.241200
  C     57.081700   -0.775071   82.239000
  C     55.811900   -0.181115   81.980900
  C     54.835200   -0.577528   82.859400
  H     58.032600   -0.579243   81.663300
  C     55.582200    0.671261   80.730600
  H     56.306700    1.509080   80.815500
  H     54.572600    1.198850   80.656100
  C     55.761500   -0.089273   79.354000
  H     54.884700   -0.603128   79.123200
  H     56.558200   -0.754483   79.444300
  C     56.312400    0.726831   78.176900
  H     56.397600    0.046433   77.306900
  H     57.373200    1.136220   78.256700
  H     55.674000    1.500920   77.827600
  H     50.036400   -0.449868   81.439700
  H     57.866000   -2.311520   83.512000

 Total Charge           Charge          ....    0
 Multiplicity           Mult            ....    1
 Number of Electrons    NEL             ....  134
 Basis Dimension        Dim             ....  322

ORBITAL ENERGIES
----------------

  NO   OCC          E(Eh)            E(eV)
   0   2.0000     -88.966698     -2420.9069
   1   2.0000     -88.963127     -2420.8097
   2   2.0000     -10.329346      -281.0758
   3   2.0000     -10.326912      -281.0096
   4   2.0000     -10.321783      -280.8700
   5   2.0000     -10.312731      -280.6237
   6   2.0000     -10.306794      -280.4621
   7   2.0000     -10.305338      -280.4225
   8   2.0000     -10.303809      -280.3809
   9   2.0000     -10.301068      -280.3063
  10   2.0000     -10.297675      -280.2140
  11   2.0000     -10.293771      -280.1078
  12   2.0000     -10.293535      -280.1013
  13   2.0000     -10.279434      -279.7176
  14   2.0000     -10.277385      -279.6619
  15   2.0000     -10.273833      -279.5652
  16   2.0000      -8.080219      -219.8739
  17   2.0000      -8.078193      -219.8188
  18   2.0000      -6.038897      -164.3267
  19   2.0000      -6.036922      -164.2730
  20   2.0000      -6.035068      -164.2225
  21   2.0000      -6.032454      -164.1514
  22   2.0000      -6.030696      -164.1036
  23   2.0000      -6.028903      -164.0548
  24   2.0000      -1.002985       -27.2926
  25   2.0000      -0.978840       -26.6356
  26   2.0000      -0.909270       -24.7425
  27   2.0000      -0.898795       -24.4575
  28   2.0000      -0.866595       -23.5813
  29   2.0000      -0.849060       -23.1041
  30   2.0000      -0.841415       -22.8961
  31   2.0000      -0.814185       -22.1551
  32   2.0000      -0.777529       -21.1576
  33   2.0000      -0.766018       -20.8444
  34   2.0000      -0.703662       -19.1476
  35   2.0000      -0.695976       -18.9385
  36   2.0000      -0.688643       -18.7389
  37   2.0000      -0.662896       -18.0383
  38   2.0000      -0.634652       -17.2698
  39   2.0000      -0.611416       -16.6375
  40   2.0000      -0.593843       -16.1593
  41   2.0000      -0.568765       -15.4769
  42   2.0000      -0.560277       -15.2459
  43   2.0000      -0.558998       -15.2111
  44   2.0000      -0.528501       -14.3812
  45   2.0000      -0.518743       -14.1157
  46   2.0000      -0.513185       -13.9645
  47   2.0000      -0.509194       -13.8559
  48   2.0000      -0.506764       -13.7897
  49   2.0000      -0.502421       -13.6716
  50   2.0000      -0.491244       -13.3674
  51   2.0000      -0.471363       -12.8264
  52   2.0000      -0.465162       -12.6577
  53   2.0000      -0.462115       -12.5748
  54   2.0000      -0.453374       -12.3369
  55   2.0000      -0.448556       -12.2058
  56   2.0000      -0.442523       -12.0417
  57   2.0000      -0.435757       -11.8575
  58   2.0000      -0.430410       -11.7120
  59   2.0000      -0.424584       -11.5535
  60   2.0000      -0.417805       -11.3691
  61   2.0000      -0.414509       -11.2794
  62   2.0000      -0.408873       -11.1260
  63   2.0000      -0.344914        -9.3856
  64   2.0000      -0.331954        -9.0329
  65   2.0000      -0.317308        -8.6344
  66   2.0000      -0.299812        -8.1583
  67   0.0000       0.039313         1.0698
  68   0.0000       0.066073         1.7979
  69   0.0000       0.101915         2.7733
  70   0.0000       0.119357         3.2479
  71   0.0000       0.126734         3.4486

MULLIKEN ATOMIC CHARGES
-----------------------
   0 S :    0.110366
   1 C :   -0.103086
   2 C :   -0.155534
   3 C :    0.006975
   4 C :   -0.144304
   5 H :    0.048437
   6 C :    0.105023
   7 H :    0.013700
   8 H :    0.034961
   9 C :   -0.125274
  10 H :    0.050034
  11 H :    0.038104
  12 C :   -0.029275
  13 H :    0.031090
  14 H :    0.013426
  15 H :    0.032094
  16 S :    0.099515
  17 C :   -0.088392
  18 C :   -0.050244
  19 C :   -0.009244
  20 C :   -0.154915
  21 H :    0.047302
  22 C :    0.017831
  23 H :    0.029223
  24 H :    0.048887
  25 C :   -0.008190
  26 H :    0.023309
  27 H :    0.009941
  28 C :   -0.086007
  29 H :    0.028590
  30 H :    0.039432
  31 H :    0.026500
  32 H :    0.049230
  33 H :    0.050495
Sum of atomic charges:    0.0000000

LOEWDIN ATOMIC CHARGES
----------------------
   0 S :    0.429260
   1 C :   -0.224880
   2 C :   -0.052049
   3 C :   -0.077247
   4 C :   -0.200104
   5 H :    0.046302
   6 C :   -0.028040
   7 H :    0.024074
   8 H :    0.035627
   9 C :   -0.041402
  10 H :    0.034937
  11 H :    0.026952
  12 C :   -0.068340
  13 H :    0.028381
  14 H :    0.013708
  15 H :    0.023607
  16 S :    0.371017
  17 C :   -0.160226
  18 C :   -0.071728
  19 C :   -0.058052
  20 C :   -0.191234
  21 H :    0.044851
  22 C :   -0.039825
  23 H :    0.032582
  24 H :    0.036050
  25 C :   -0.029574
  26 H :    0.016373
  27 H :    0.017159
  28 C :   -0.070031
  29 H :    0.029931
  30 H :    0.031749
  31 H :    0.014497
  32 H :    0.031043
  33 H :    0.024632

  Mayer bond orders larger than 0.100000
B(  0-S ,  1-C ) :   1.1193 B(  0-S ,  4-C ) :   1.1659 B(  1-C ,  2-C ) :   1.6310
B(  1-C , 32-H ) :   0.9678 B(  2-C ,  3-C ) :   1.2029 B(  2-C ,  6-C ) :   1.0424
B(  3-C ,  4-C ) :   1.6032 B(  3-C ,  5-H ) :   0.9783 B(  4-C , 20-C ) :   0.9859
B(  6-C ,  7-H ) :   0.9431 B(  6-C ,  8-H ) :   0.9322 B(  6-C ,  9-C ) :   1.0613
B(  9-C , 10-H ) :   0.9571 B(  9-C , 11-H ) :   0.9578 B(  9-C , 12-C ) :   1.0818
B( 12-C , 13-H ) :   0.9713 B( 12-C , 14-H ) :   0.9746 B( 12-C , 15-H ) :   0.9758
B( 16-S , 17-C ) :   1.1349 B( 16-S , 20-C ) :   1.1192 B( 17-C , 18-C ) :   1.6498
B( 17-C , 33-H ) :   0.9684 B( 18-C , 19-C ) :   1.2011 B( 18-C , 21-H ) :   0.9761
B( 19-C , 20-C ) :   1.6484 B( 19-C , 22-C ) :   1.0448 B( 22-C , 23-H ) :   0.9375
B( 22-C , 24-H ) :   0.9397 B( 22-C , 25-C ) :   1.0462 B( 25-C , 26-H ) :   0.9552
B( 25-C , 27-H ) :   0.9600 B( 25-C , 28-C ) :   1.0788 B( 28-C , 29-H ) :   0.9724
B( 28-C , 30-H ) :   0.9750 B( 28-C , 31-H ) :   0.9773

Dispersion correction           -0.014152362
FINAL SINGLE POINT ENERGY     -1339.867665665583

DIPOLE MOMENT
-------------
                                X             Y             Z
Electronic contribution:      8.56063      -8.49375       3.57290
Nuclear contribution   :     -8.62122       8.62472      -3.61497
                        -----------------------------------------
Total Dipole Moment    :     -0.06058       0.13097      -0.04208
                        -----------------------------------------
Magnitude (a.u.)       :      0.15032
Magnitude (Debye)      :      0.38208

Rotational constants in cm-1:     0.023033     0.007535     0.006048
Rotational constants in MHz :   690.506755   225.899620   181.307286

                             ****ORCA TERMINATED NORMALLY****
TOTAL RUN TIME: 0 days 0 hours 0 minutes 27 seconds 337 msec
