                         Program Version 4.2.1 -  RELEASE  -
|  1> ! wB97X-D3 SP def2-SVP
|  2> %pal
|  3> nprocs 16
|  4> end
|  5>
|  6> * xyz 0 1
|  7> S 	 -76.2676 	 50.9185 	 136.941
|  8> C 	 -76.2712 	 49.8647 	 138.348
|  9> C 	 -75.4293 	 48.7908 	 138.265
| 10> C 	 -74.8322 	 48.7751 	 136.972
| 11> C 	 -75.0571 	 49.9087 	 136.183
| 12> H 	 -74.2041 	 47.9706 	 136.538
| 13> C 	 -75.1182 	 47.779 	 139.37
| 14> H 	 -75.9468 	 47.0726 	 139.413
| 15> H 	 -75.3343 	 48.1957 	 140.387
| 16> C 	 -73.8572 	 46.9452 	 139.191
| 17> H 	 -73.8629 	 46.5577 	 138.14
| 18> H 	 -72.9969 	 47.5671 	 139.248
| 19> C 	 -73.8255 	 45.855 	 140.248
| 20> H 	 -72.9015 	 45.3645 	 140.119
| 21> H 	 -73.6963 	 46.3031 	 141.222
| 22> H 	 -74.5588 	 45.0558 	 140.16
| 23> S 	 -73.773 	 51.5265 	 134.313
| 24> C 	 -73.73 	 51.0086 	 132.703
| 25> C 	 -74.22 	 49.7472 	 132.514
| 26> C 	 -74.7134 	 49.1312 	 133.761
| 27> C 	 -74.608 	 50.0571 	 134.773
| 28> H 	 -74.2901 	 49.1894 	 131.57
| 29> C 	 -75.2823 	 47.8098 	 133.728
| 30> H 	 -75.321 	 47.4651 	 134.755
| 31> H 	 -74.6952 	 47.0557 	 133.155
| 32> C 	 -76.7799 	 47.8403 	 133.153
| 33> H 	 -76.8593 	 48.2323 	 132.14
| 34> H 	 -77.4118 	 48.4516 	 133.733
| 35> C 	 -77.3423 	 46.4235 	 133.093
| 36> H 	 -76.7686 	 45.9889 	 132.333
| 37> H 	 -78.3913 	 46.5207 	 132.748
| 38> H 	 -77.1413 	 45.8232 	 134.001
| 39> H 	 -76.8241 	 50.1718 	 139.27
| 40> H 	 -73.4035 	 51.6885 	 131.824
| 41> *
| 42>
| 43>                          ****END OF INPUT****

CARTESIAN COORDINATES (ANGSTROEM)
---------------------------------
  S    -76.267600   50.918500  136.941000
  C    -76.271200   49.864700  138.348000
  C    -75.429300   48.790800  138.265000
  C    -74.832200   48.775100  136.972000
  C    -75.057100   49.908700  136.183000
  H    -74.204100   47.970600  136.538000
  C    -75.118200   47.779000  139.370000
  H    -75.946800   47.072600  139.413000
  H    -75.334300   48.195700  140.387000
  C    -73.857200   46.945200  139.191000
  H    -73.862900   46.557700  138.140000
  H    -72.996900   47.567100  139.248000
  C    -73.825500   45.855000  140.248000
  H    -72.901500   45.364500  140.119000
  H    -73.696300   46.303100  141.222000
  H    -74.558800   45.055800  140.160000
  S    -73.773000   51.526500  134.313000
  C    -73.730000   51.008600  132.703000
  C    -74.220000   49.747200  132.514000
  C    -74.713400   49.131200  133.761000
  C    -74.608000   50.057100  134.773000
  H    -74.290100   49.189400  131.570000
  C    -75.282300   47.809800  133.728000
  H    -75.321000   47.465100  134.755000
  H    -74.695200   47.055700  133.155000
  C    -76.779900   47.840300  133.153000
  H    -76.859300   48.232300  132.140000
  H    -77.411800   48.451600  133.733000
  C    -77.342300   46.423500  133.093000
  H    -76.768600   45.988900  132.333000
  H    -78.391300   46.520700  132.748000
  H    -77.141300   45.823200  134.001000
  H    -76.824100   50.171800  139.270000
  H    -73.403500   51.688500  131.824000

 Total Charge           Charge          ....    0
 Multiplicity           Mult            ....    1
 Number of Electrons    NEL             ....  134
 Basis Dimension        Dim             ....  322

ORBITAL ENERGIES
----------------

  NO   OCC          E(Eh)            E(eV)
   0   2.0000     -88.965438     -2420.8727
   1   2.0000     -88.963563     -2420.8216
   2   2.0000     -10.327081      -281.0142
   3   2.0000     -10.323006      -280.9033
   4   2.0000     -10.316820      -280.7349
   5   2.0000     -10.312982      -280.6305
   6   2.0000     -10.301059      -280.3061
   7   2.0000     -10.298564      -280.2382
   8   2.0000     -10.294928      -280.1392
   9   2.0000     -10.294850      -280.1371
  10   2.0000     -10.292779      -280.0808
  11   2.0000     -10.291768      -280.0533
  12   2.0000     -10.289186      -279.9830
  13   2.0000     -10.283061      -279.8163
  14   2.0000     -10.275687      -279.6156
  15   2.0000     -10.273953      -279.5685
  16   2.0000      -8.079945      -219.8665
  17   2.0000      -8.079510      -219.8547
  18   2.0000      -6.038401      -164.3132
  19   2.0000      -6.037989      -164.3020
  20   2.0000      -6.034523      -164.2077
  21   2.0000      -6.033982      -164.1930
  22   2.0000      -6.030750      -164.1050
  23   2.0000      -6.030113      -164.0877
  24   2.0000      -1.005815       -27.3696
  25   2.0000      -0.984903       -26.8006
  26   2.0000      -0.915235       -24.9048
  27   2.0000      -0.912577       -24.8325
  28   2.0000      -0.867286       -23.6000
  29   2.0000      -0.857018       -23.3206
  30   2.0000      -0.844522       -22.9806
  31   2.0000      -0.808310       -21.9952
  32   2.0000      -0.784686       -21.3524
  33   2.0000      -0.770506       -20.9665
  34   2.0000      -0.710499       -19.3337
  35   2.0000      -0.700823       -19.0704
  36   2.0000      -0.681432       -18.5427
  37   2.0000      -0.658226       -17.9112
  38   2.0000      -0.636742       -17.3266
  39   2.0000      -0.619553       -16.8589
  40   2.0000      -0.598280       -16.2800
  41   2.0000      -0.570291       -15.5184
  42   2.0000      -0.564554       -15.3623
  43   2.0000      -0.557499       -15.1703
  44   2.0000      -0.532407       -14.4875
  45   2.0000      -0.523924       -14.2567
  46   2.0000      -0.514652       -14.0044
  47   2.0000      -0.505268       -13.7491
  48   2.0000      -0.503808       -13.7093
  49   2.0000      -0.495897       -13.4940
  50   2.0000      -0.489761       -13.3271
  51   2.0000      -0.480653       -13.0792
  52   2.0000      -0.471202       -12.8221
  53   2.0000      -0.461827       -12.5670
  54   2.0000      -0.456155       -12.4126
  55   2.0000      -0.452144       -12.3035
  56   2.0000      -0.442756       -12.0480
  57   2.0000      -0.440831       -11.9956
  58   2.0000      -0.433945       -11.8083
  59   2.0000      -0.428309       -11.6549
  60   2.0000      -0.423475       -11.5233
  61   2.0000      -0.420697       -11.4477
  62   2.0000      -0.417091       -11.3496
  63   2.0000      -0.338803        -9.2193
  64   2.0000      -0.329817        -8.9748
  65   2.0000      -0.324213        -8.8223
  66   2.0000      -0.293599        -7.9892
  67   0.0000       0.037457         1.0193
  68   0.0000       0.076519         2.0822
  69   0.0000       0.113057         3.0764
  70   0.0000       0.122219         3.3258
  71   0.0000       0.129355         3.5199

MULLIKEN ATOMIC CHARGES
-----------------------
   0 S :    0.113664
   1 C :   -0.164423
   2 C :   -0.027980
   3 C :   -0.031765
   4 C :   -0.137785
   5 H :    0.031658
   6 C :    0.060420
   7 H :    0.020417
   8 H :    0.017821
   9 C :   -0.089679
  10 H :    0.037892
  11 H :    0.030962
  12 C :   -0.001614
  13 H :    0.010112
  14 H :    0.029773
  15 H :    0.039988
  16 S :    0.122656
  17 C :   -0.109366
  18 C :   -0.038476
  19 C :   -0.022889
  20 C :   -0.187790
  21 H :    0.020668
  22 C :    0.051782
  23 H :    0.005534
  24 H :    0.033709
  25 C :   -0.081505
  26 H :    0.024814
  27 H :    0.024740
  28 C :   -0.018454
  29 H :    0.008124
  30 H :    0.044752
  31 H :    0.036932
  32 H :    0.058735
  33 H :    0.086571
Sum of atomic charges:   -0.0000000

LOEWDIN ATOMIC CHARGES
----------------------
   0 S :    0.403538
   1 C :   -0.200760
   2 C :   -0.065135
   3 C :   -0.072012
   4 C :   -0.199999
   5 H :    0.031927
   6 C :   -0.041888
   7 H :    0.033381
   8 H :    0.034945
   9 C :   -0.037152
  10 H :    0.029209
  11 H :    0.022186
  12 C :   -0.059658
  13 H :    0.023200
  14 H :    0.029076
  15 H :    0.028443
  16 S :    0.421378
  17 C :   -0.217457
  18 C :   -0.074578
  19 C :   -0.051680
  20 C :   -0.205405
  21 H :    0.031763
  22 C :   -0.036227
  23 H :    0.028815
  24 H :    0.036458
  25 C :   -0.024396
  26 H :    0.022772
  27 H :    0.016667
  28 C :   -0.064667
  29 H :    0.014805
  30 H :    0.033356
  31 H :    0.027612
  32 H :    0.032559
  33 H :    0.048923

  Mayer bond orders larger than 0.100000
B(  0-S ,  1-C ) :   1.1430 B(  0-S ,  4-C ) :   1.1560 B(  1-C ,  2-C ) :   1.6185
B(  1-C , 32-H ) :   0.9597 B(  2-C ,  3-C ) :   1.2476 B(  2-C ,  6-C ) :   1.0058
B(  3-C ,  4-C ) :   1.5839 B(  3-C ,  5-H ) :   0.9751 B(  4-C , 20-C ) :   1.0077
B(  6-C ,  7-H ) :   0.9296 B(  6-C ,  8-H ) :   0.9377 B(  6-C ,  9-C ) :   1.0641
B(  9-C , 10-H ) :   0.9428 B(  9-C , 11-H ) :   0.9569 B(  9-C , 12-C ) :   1.0964
B( 12-C , 13-H ) :   0.9658 B( 12-C , 14-H ) :   0.9694 B( 12-C , 15-H ) :   0.9738
B( 16-S , 17-C ) :   1.1525 B( 16-S , 20-C ) :   1.1364 B( 17-C , 18-C ) :   1.6279
B( 17-C , 33-H ) :   0.9521 B( 18-C , 19-C ) :   1.2077 B( 18-C , 21-H ) :   0.9868
B( 19-C , 20-C ) :   1.6180 B( 19-C , 22-C ) :   1.0873 B( 22-C , 23-H ) :   0.9139
B( 22-C , 24-H ) :   0.9300 B( 22-C , 25-C ) :   1.0528 B( 25-C , 26-H ) :   0.9605
B( 25-C , 27-H ) :   0.9576 B( 25-C , 28-C ) :   1.0797 B( 28-C , 29-H ) :   0.9750
B( 28-C , 30-H ) :   0.9714 B( 28-C , 31-H ) :   0.9730

Dispersion correction           -0.013896874
FINAL SINGLE POINT ENERGY     -1339.873449924138

DIPOLE MOMENT
-------------
                                X             Y             Z
Electronic contribution:      3.04352      27.87468      -5.37193
Nuclear contribution   :     -3.06118     -28.59635       5.39845
                        -----------------------------------------
Total Dipole Moment    :     -0.01766      -0.72167       0.02652
                        -----------------------------------------
Magnitude (a.u.)       :      0.72237
Magnitude (Debye)      :      1.83612

Rotational constants in cm-1:     0.016907     0.008428     0.007073
Rotational constants in MHz :   506.846616   252.678763   212.045908

                             ****ORCA TERMINATED NORMALLY****
TOTAL RUN TIME: 0 days 0 hours 0 minutes 34 seconds 971 msec
