                         Program Version 4.2.1 -  RELEASE  -
|  1> ! wB97X-D3 SP def2-SVP
|  2> %pal
|  3> nprocs 16
|  4> end
|  5>
|  6> * xyz 0 1
|  7> S 	 -43.6411 	 51.4853 	 102.867
|  8> C 	 -45.0314 	 52.0558 	 103.841
|  9> C 	 -46.2048 	 51.563 	 103.33
| 10> C 	 -46.0159 	 51.0922 	 101.982
| 11> C 	 -44.7171 	 50.9503 	 101.537
| 12> H 	 -46.7827 	 50.7131 	 101.275
| 13> C 	 -47.5563 	 51.6616 	 103.989
| 14> H 	 -48.3577 	 51.6158 	 103.235
| 15> H 	 -47.7374 	 52.5892 	 104.505
| 16> C 	 -47.7789 	 50.4845 	 104.977
| 17> H 	 -48.6913 	 50.5091 	 105.473
| 18> H 	 -47.735 	 49.5451 	 104.415
| 19> C 	 -46.7852 	 50.4204 	 106.166
| 20> H 	 -46.5562 	 51.3624 	 106.677
| 21> H 	 -47.3902 	 49.8927 	 106.916
| 22> H 	 -45.9382 	 49.8137 	 105.865
| 23> S 	 -43.8125 	 48.8022 	 99.934
| 24> C 	 -43.079 	 49.2551 	 98.3848
| 25> C 	 -43.1521 	 50.6063 	 98.1777
| 26> C 	 -43.7594 	 51.2768 	 99.2518
| 27> C 	 -44.2586 	 50.4917 	 100.244
| 28> H 	 -42.7263 	 51.0668 	 97.2799
| 29> C 	 -43.9208 	 52.7549 	 99.161
| 30> H 	 -42.9233 	 53.174 	 98.8341
| 31> H 	 -43.976 	 53.2932 	 100.075
| 32> C 	 -44.9799 	 53.2302 	 98.1718
| 33> H 	 -45.942 	 52.7129 	 98.4645
| 34> H 	 -44.7627 	 52.8248 	 97.1923
| 35> C 	 -45.218 	 54.7126 	 98.1913
| 36> H 	 -44.3305 	 55.2824 	 98.4985
| 37> H 	 -46.0218 	 54.9767 	 98.8826
| 38> H 	 -45.482 	 55.0846 	 97.2624
| 39> H 	 -45.0065 	 52.5041 	 104.841
| 40> H 	 -42.69 	 48.5863 	 97.6643
| 41> *
| 42>
| 43>                          ****END OF INPUT****

CARTESIAN COORDINATES (ANGSTROEM)
---------------------------------
  S    -43.641100   51.485300  102.867000
  C    -45.031400   52.055800  103.841000
  C    -46.204800   51.563000  103.330000
  C    -46.015900   51.092200  101.982000
  C    -44.717100   50.950300  101.537000
  H    -46.782700   50.713100  101.275000
  C    -47.556300   51.661600  103.989000
  H    -48.357700   51.615800  103.235000
  H    -47.737400   52.589200  104.505000
  C    -47.778900   50.484500  104.977000
  H    -48.691300   50.509100  105.473000
  H    -47.735000   49.545100  104.415000
  C    -46.785200   50.420400  106.166000
  H    -46.556200   51.362400  106.677000
  H    -47.390200   49.892700  106.916000
  H    -45.938200   49.813700  105.865000
  S    -43.812500   48.802200   99.934000
  C    -43.079000   49.255100   98.384800
  C    -43.152100   50.606300   98.177700
  C    -43.759400   51.276800   99.251800
  C    -44.258600   50.491700  100.244000
  H    -42.726300   51.066800   97.279900
  C    -43.920800   52.754900   99.161000
  H    -42.923300   53.174000   98.834100
  H    -43.976000   53.293200  100.075000
  C    -44.979900   53.230200   98.171800
  H    -45.942000   52.712900   98.464500
  H    -44.762700   52.824800   97.192300
  C    -45.218000   54.712600   98.191300
  H    -44.330500   55.282400   98.498500
  H    -46.021800   54.976700   98.882600
  H    -45.482000   55.084600   97.262400
  H    -45.006500   52.504100  104.841000
  H    -42.690000   48.586300   97.664300

 Total Charge           Charge          ....    0
 Multiplicity           Mult            ....    1
 Number of Electrons    NEL             ....  134
 Basis Dimension        Dim             ....  322

ORBITAL ENERGIES
----------------

  NO   OCC          E(Eh)            E(eV)
   0   2.0000     -88.965517     -2420.8748
   1   2.0000     -88.963124     -2420.8097
   2   2.0000     -10.328842      -281.0621
   3   2.0000     -10.322569      -280.8914
   4   2.0000     -10.319239      -280.8008
   5   2.0000     -10.317674      -280.7582
   6   2.0000     -10.301648      -280.3221
   7   2.0000     -10.296760      -280.1891
   8   2.0000     -10.296621      -280.1853
   9   2.0000     -10.292489      -280.0729
  10   2.0000     -10.292088      -280.0619
  11   2.0000     -10.283384      -279.8251
  12   2.0000     -10.283057      -279.8162
  13   2.0000     -10.281922      -279.7853
  14   2.0000     -10.276419      -279.6356
  15   2.0000     -10.269150      -279.4378
  16   2.0000      -8.079643      -219.8583
  17   2.0000      -8.076449      -219.7714
  18   2.0000      -6.038232      -164.3086
  19   2.0000      -6.035192      -164.2259
  20   2.0000      -6.034247      -164.2002
  21   2.0000      -6.031199      -164.1173
  22   2.0000      -6.030332      -164.0937
  23   2.0000      -6.026971      -164.0022
  24   2.0000      -1.004715       -27.3397
  25   2.0000      -0.981036       -26.6954
  26   2.0000      -0.910620       -24.7792
  27   2.0000      -0.909682       -24.7537
  28   2.0000      -0.870391       -23.6845
  29   2.0000      -0.852454       -23.1965
  30   2.0000      -0.840710       -22.8769
  31   2.0000      -0.815066       -22.1791
  32   2.0000      -0.783765       -21.3273
  33   2.0000      -0.773839       -21.0572
  34   2.0000      -0.708419       -19.2771
  35   2.0000      -0.697829       -18.9889
  36   2.0000      -0.692852       -18.8535
  37   2.0000      -0.663465       -18.0538
  38   2.0000      -0.637789       -17.3551
  39   2.0000      -0.613647       -16.6982
  40   2.0000      -0.603344       -16.4178
  41   2.0000      -0.577646       -15.7186
  42   2.0000      -0.557412       -15.1680
  43   2.0000      -0.549858       -14.9624
  44   2.0000      -0.538116       -14.6429
  45   2.0000      -0.525229       -14.2922
  46   2.0000      -0.517056       -14.0698
  47   2.0000      -0.515540       -14.0286
  48   2.0000      -0.509460       -13.8631
  49   2.0000      -0.500043       -13.6069
  50   2.0000      -0.488761       -13.2999
  51   2.0000      -0.474419       -12.9096
  52   2.0000      -0.468359       -12.7447
  53   2.0000      -0.466156       -12.6847
  54   2.0000      -0.458568       -12.4783
  55   2.0000      -0.448964       -12.2169
  56   2.0000      -0.437118       -11.8946
  57   2.0000      -0.435807       -11.8589
  58   2.0000      -0.430734       -11.7209
  59   2.0000      -0.424207       -11.5432
  60   2.0000      -0.419820       -11.4239
  61   2.0000      -0.413438       -11.2502
  62   2.0000      -0.401567       -10.9272
  63   2.0000      -0.335379        -9.1261
  64   2.0000      -0.328400        -8.9362
  65   2.0000      -0.318946        -8.6790
  66   2.0000      -0.316380        -8.6091
  67   0.0000       0.039870         1.0849
  68   0.0000       0.050282         1.3682
  69   0.0000       0.112458         3.0601
  70   0.0000       0.120793         3.2870
  71   0.0000       0.124811         3.3963

MULLIKEN ATOMIC CHARGES
-----------------------
   0 S :    0.100793
   1 C :   -0.120033
   2 C :   -0.076079
   3 C :    0.018678
   4 C :   -0.160934
   5 H :    0.023246
   6 C :    0.074305
   7 H :    0.022181
   8 H :    0.024527
   9 C :   -0.064209
  10 H :    0.013879
  11 H :    0.030355
  12 C :   -0.070455
  13 H :    0.031101
  14 H :    0.025174
  15 H :    0.053527
  16 S :    0.099670
  17 C :   -0.075481
  18 C :   -0.031066
  19 C :   -0.024252
  20 C :   -0.165876
  21 H :    0.029020
  22 C :    0.069499
  23 H :    0.013908
  24 H :    0.012848
  25 C :   -0.078425
  26 H :    0.030085
  27 H :    0.017989
  28 C :    0.001791
  29 H :    0.024178
  30 H :    0.036057
  31 H :    0.012895
  32 H :    0.056434
  33 H :    0.044667
Sum of atomic charges:    0.0000000

LOEWDIN ATOMIC CHARGES
----------------------
   0 S :    0.366347
   1 C :   -0.177615
   2 C :   -0.066592
   3 C :   -0.060235
   4 C :   -0.183286
   5 H :    0.036888
   6 C :   -0.030541
   7 H :    0.031366
   8 H :    0.027110
   9 C :   -0.033316
  10 H :    0.012827
  11 H :    0.027849
  12 C :   -0.070465
  13 H :    0.022816
  14 H :    0.029258
  15 H :    0.028165
  16 S :    0.385789
  17 C :   -0.159480
  18 C :   -0.070883
  19 C :   -0.048467
  20 C :   -0.205368
  21 H :    0.037703
  22 C :   -0.035606
  23 H :    0.032830
  24 H :    0.022742
  25 C :   -0.040524
  26 H :    0.030225
  27 H :    0.017842
  28 C :   -0.060567
  29 H :    0.026966
  30 H :    0.031504
  31 H :    0.017176
  32 H :    0.033725
  33 H :    0.023817

  Mayer bond orders larger than 0.100000
B(  0-S ,  1-C ) :   1.1304 B(  0-S ,  4-C ) :   1.1018 B(  1-C ,  2-C ) :   1.6372
B(  1-C , 32-H ) :   0.9592 B(  2-C ,  3-C ) :   1.2089 B(  2-C ,  6-C ) :   1.0229
B(  3-C ,  4-C ) :   1.6363 B(  3-C ,  5-H ) :   0.9811 B(  4-C , 20-C ) :   1.0532
B(  6-C ,  7-H ) :   0.9435 B(  6-C ,  8-H ) :   0.9485 B(  6-C ,  9-C ) :   1.0712
B(  9-C , 10-H ) :   0.9667 B(  9-C , 11-H ) :   0.9548 B(  9-C , 12-C ) :   1.0716
B( 12-C , 13-H ) :   0.9747 B( 12-C , 14-H ) :   0.9776 B( 12-C , 15-H ) :   0.9758
B( 16-S , 17-C ) :   1.1594 B( 16-S , 20-C ) :   1.1101 B( 17-C , 18-C ) :   1.6098
B( 17-C , 33-H ) :   0.9690 B( 18-C , 19-C ) :   1.2404 B( 18-C , 21-H ) :   0.9893
B( 19-C , 20-C ) :   1.6120 B( 19-C , 22-C ) :   1.0558 B( 22-C , 23-H ) :   0.9196
B( 22-C , 24-H ) :   0.9282 B( 22-C , 25-C ) :   1.0626 B( 25-C , 26-H ) :   0.9547
B( 25-C , 27-H ) :   0.9575 B( 25-C , 28-C ) :   1.0784 B( 28-C , 29-H ) :   0.9734
B( 28-C , 30-H ) :   0.9740 B( 28-C , 31-H ) :   0.9713

Dispersion correction           -0.014619703
FINAL SINGLE POINT ENERGY     -1339.873081159897

DIPOLE MOMENT
-------------
                                X             Y             Z
Electronic contribution:     14.52966     -13.42417      -3.78915
Nuclear contribution   :    -14.93554      13.72123       3.64640
                        -----------------------------------------
Total Dipole Moment    :     -0.40588       0.29705      -0.14275
                        -----------------------------------------
Magnitude (a.u.)       :      0.52283
Magnitude (Debye)      :      1.32894

Rotational constants in cm-1:     0.020387     0.008074     0.006705
Rotational constants in MHz :   611.198251   242.047754   201.009359

                             ****ORCA TERMINATED NORMALLY****
TOTAL RUN TIME: 0 days 0 hours 0 minutes 29 seconds 834 msec
