                         Program Version 4.2.1 -  RELEASE  -
|  1> ! wB97X-D3 SP def2-SVP
|  2> %pal
|  3> nprocs 16
|  4> end
|  5>
|  6> * xyz 0 1
|  7> S 	 -108.596 	 53.1609 	 118.594
|  8> C 	 -109.141 	 51.6558 	 119.241
|  9> C 	 -108.101 	 50.7288 	 119.255
| 10> C 	 -106.822 	 51.2827 	 119.004
| 11> C 	 -106.898 	 52.6241 	 118.665
| 12> H 	 -105.861 	 50.8026 	 119.122
| 13> C 	 -108.253 	 49.2444 	 119.589
| 14> H 	 -107.967 	 48.7684 	 118.668
| 15> H 	 -109.312 	 49.1373 	 119.687
| 16> C 	 -107.671 	 48.6792 	 120.946
| 17> H 	 -108.205 	 49.1396 	 121.808
| 18> H 	 -107.716 	 47.5624 	 120.994
| 19> C 	 -106.235 	 48.8874 	 121.202
| 20> H 	 -105.994 	 48.5558 	 122.251
| 21> H 	 -105.719 	 48.3964 	 120.344
| 22> H 	 -106.093 	 49.9469 	 121.258
| 23> S 	 -104.48 	 53.7241 	 119.607
| 24> C 	 -103.295 	 54.0053 	 118.447
| 25> C 	 -103.85 	 54.3156 	 117.228
| 26> C 	 -105.242 	 54.0082 	 117.183
| 27> C 	 -105.789 	 53.517 	 118.407
| 28> H 	 -103.182 	 54.5888 	 116.417
| 29> C 	 -105.921 	 53.8832 	 115.874
| 30> H 	 -105.478 	 54.6357 	 115.182
| 31> H 	 -106.958 	 54.0877 	 115.915
| 32> C 	 -105.958 	 52.4917 	 115.207
| 33> H 	 -106.734 	 51.9127 	 115.704
| 34> H 	 -105.021 	 51.9683 	 115.46
| 35> C 	 -106.07 	 52.5039 	 113.723
| 36> H 	 -105.395 	 53.2833 	 113.253
| 37> H 	 -107.09 	 52.6086 	 113.428
| 38> H 	 -105.727 	 51.5879 	 113.215
| 39> H 	 -110.174 	 51.3356 	 119.278
| 40> H 	 -102.29 	 54.1499 	 118.739
| 41> *
| 42>
| 43>                          ****END OF INPUT****

CARTESIAN COORDINATES (ANGSTROEM)
---------------------------------
  S    -108.596000   53.160900  118.594000
  C    -109.141000   51.655800  119.241000
  C    -108.101000   50.728800  119.255000
  C    -106.822000   51.282700  119.004000
  C    -106.898000   52.624100  118.665000
  H    -105.861000   50.802600  119.122000
  C    -108.253000   49.244400  119.589000
  H    -107.967000   48.768400  118.668000
  H    -109.312000   49.137300  119.687000
  C    -107.671000   48.679200  120.946000
  H    -108.205000   49.139600  121.808000
  H    -107.716000   47.562400  120.994000
  C    -106.235000   48.887400  121.202000
  H    -105.994000   48.555800  122.251000
  H    -105.719000   48.396400  120.344000
  H    -106.093000   49.946900  121.258000
  S    -104.480000   53.724100  119.607000
  C    -103.295000   54.005300  118.447000
  C    -103.850000   54.315600  117.228000
  C    -105.242000   54.008200  117.183000
  C    -105.789000   53.517000  118.407000
  H    -103.182000   54.588800  116.417000
  C    -105.921000   53.883200  115.874000
  H    -105.478000   54.635700  115.182000
  H    -106.958000   54.087700  115.915000
  C    -105.958000   52.491700  115.207000
  H    -106.734000   51.912700  115.704000
  H    -105.021000   51.968300  115.460000
  C    -106.070000   52.503900  113.723000
  H    -105.395000   53.283300  113.253000
  H    -107.090000   52.608600  113.428000
  H    -105.727000   51.587900  113.215000
  H    -110.174000   51.335600  119.278000
  H    -102.290000   54.149900  118.739000

 Total Charge           Charge          ....    0
 Multiplicity           Mult            ....    1
 Number of Electrons    NEL             ....  134
 Basis Dimension        Dim             ....  322

ORBITAL ENERGIES
----------------

  NO   OCC          E(Eh)            E(eV)
   0   2.0000     -88.967504     -2420.9289
   1   2.0000     -88.962044     -2420.7803
   2   2.0000     -10.333118      -281.1784
   3   2.0000     -10.327374      -281.0221
   4   2.0000     -10.315029      -280.6862
   5   2.0000     -10.313110      -280.6340
   6   2.0000     -10.306934      -280.4659
   7   2.0000     -10.301935      -280.3299
   8   2.0000     -10.294715      -280.1334
   9   2.0000     -10.293673      -280.1051
  10   2.0000     -10.291729      -280.0522
  11   2.0000     -10.290576      -280.0208
  12   2.0000     -10.281922      -279.7853
  13   2.0000     -10.278850      -279.7017
  14   2.0000     -10.276353      -279.6338
  15   2.0000     -10.275312      -279.6054
  16   2.0000      -8.081940      -219.9208
  17   2.0000      -8.077736      -219.8064
  18   2.0000      -6.040392      -164.3674
  19   2.0000      -6.036475      -164.2608
  20   2.0000      -6.036094      -164.2505
  21   2.0000      -6.032793      -164.1607
  22   2.0000      -6.031928      -164.1371
  23   2.0000      -6.028763      -164.0510
  24   2.0000      -1.007109       -27.4048
  25   2.0000      -0.988268       -26.8921
  26   2.0000      -0.912994       -24.8438
  27   2.0000      -0.910434       -24.7742
  28   2.0000      -0.873521       -23.7697
  29   2.0000      -0.854401       -23.2494
  30   2.0000      -0.852252       -23.1909
  31   2.0000      -0.817544       -22.2465
  32   2.0000      -0.784430       -21.3454
  33   2.0000      -0.768695       -20.9172
  34   2.0000      -0.707475       -19.2514
  35   2.0000      -0.689557       -18.7638
  36   2.0000      -0.688022       -18.7220
  37   2.0000      -0.659700       -17.9513
  38   2.0000      -0.641539       -17.4572
  39   2.0000      -0.617349       -16.7989
  40   2.0000      -0.600560       -16.3421
  41   2.0000      -0.579578       -15.7711
  42   2.0000      -0.564414       -15.3585
  43   2.0000      -0.556150       -15.1336
  44   2.0000      -0.541767       -14.7422
  45   2.0000      -0.525833       -14.3086
  46   2.0000      -0.523368       -14.2416
  47   2.0000      -0.517347       -14.0777
  48   2.0000      -0.510015       -13.8782
  49   2.0000      -0.494195       -13.4477
  50   2.0000      -0.487164       -13.2564
  51   2.0000      -0.480885       -13.0855
  52   2.0000      -0.472479       -12.8568
  53   2.0000      -0.467911       -12.7325
  54   2.0000      -0.462623       -12.5886
  55   2.0000      -0.451973       -12.2988
  56   2.0000      -0.437858       -11.9147
  57   2.0000      -0.431776       -11.7492
  58   2.0000      -0.427672       -11.6375
  59   2.0000      -0.423175       -11.5152
  60   2.0000      -0.414556       -11.2806
  61   2.0000      -0.409226       -11.1356
  62   2.0000      -0.405797       -11.0423
  63   2.0000      -0.341500        -9.2927
  64   2.0000      -0.329279        -8.9601
  65   2.0000      -0.326955        -8.8969
  66   2.0000      -0.295722        -8.0470
  67   0.0000       0.024199         0.6585
  68   0.0000       0.060184         1.6377
  69   0.0000       0.108486         2.9520
  70   0.0000       0.110831         3.0159
  71   0.0000       0.132254         3.5988

MULLIKEN ATOMIC CHARGES
-----------------------
   0 S :    0.112530
   1 C :   -0.096701
   2 C :   -0.154169
   3 C :    0.044267
   4 C :   -0.170286
   5 H :    0.021143
   6 C :    0.104101
   7 H :    0.036383
   8 H :    0.004257
   9 C :   -0.086607
  10 H :    0.033044
  11 H :    0.035371
  12 C :   -0.061358
  13 H :    0.040979
  14 H :    0.042219
  15 H :    0.029794
  16 S :    0.105240
  17 C :   -0.087240
  18 C :   -0.032275
  19 C :   -0.015320
  20 C :   -0.156205
  21 H :    0.024920
  22 C :    0.062340
  23 H :    0.021195
  24 H :    0.007497
  25 C :   -0.065992
  26 H :    0.035545
  27 H :    0.018688
  28 C :   -0.046396
  29 H :    0.031993
  30 H :    0.028177
  31 H :    0.030528
  32 H :    0.052059
  33 H :    0.050281
Sum of atomic charges:    0.0000000

LOEWDIN ATOMIC CHARGES
----------------------
   0 S :    0.404795
   1 C :   -0.207479
   2 C :   -0.065960
   3 C :   -0.055169
   4 C :   -0.185809
   5 H :    0.034912
   6 C :   -0.031445
   7 H :    0.032087
   8 H :    0.026967
   9 C :   -0.044396
  10 H :    0.028713
  11 H :    0.029365
  12 C :   -0.073495
  13 H :    0.034839
  14 H :    0.029163
  15 H :    0.017871
  16 S :    0.421334
  17 C :   -0.187355
  18 C :   -0.079819
  19 C :   -0.042756
  20 C :   -0.205715
  21 H :    0.034589
  22 C :   -0.038079
  23 H :    0.031780
  24 H :    0.022211
  25 C :   -0.041842
  26 H :    0.025837
  27 H :    0.021408
  28 C :   -0.068676
  29 H :    0.031128
  30 H :    0.020847
  31 H :    0.029313
  32 H :    0.029105
  33 H :    0.021728

  Mayer bond orders larger than 0.100000
B(  0-S ,  1-C ) :   1.1450 B(  0-S ,  4-C ) :   1.1485 B(  1-C ,  2-C ) :   1.6124
B(  1-C , 32-H ) :   0.9598 B(  2-C ,  3-C ) :   1.2381 B(  2-C ,  6-C ) :   1.0097
B(  3-C ,  4-C ) :   1.5662 B(  3-C ,  5-H ) :   0.9943 B(  4-C , 20-C ) :   1.0383
B(  6-C ,  7-H ) :   0.9399 B(  6-C ,  8-H ) :   0.9347 B(  6-C ,  9-C ) :   1.0606
B(  9-C , 10-H ) :   0.9533 B(  9-C , 11-H ) :   0.9583 B(  9-C , 12-C ) :   1.0943
B( 12-C , 13-H ) :   0.9671 B( 12-C , 14-H ) :   0.9736 B( 12-C , 15-H ) :   0.9659
B( 16-S , 17-C ) :   1.2042 B( 16-S , 20-C ) :   1.1334 B( 17-C , 18-C ) :   1.5583
B( 17-C , 33-H ) :   0.9692 B( 18-C , 19-C ) :   1.2643 B( 18-C , 21-H ) :   0.9975
B( 19-C , 20-C ) :   1.5310 B( 19-C , 22-C ) :   1.0837 B( 22-C , 23-H ) :   0.9356
B( 22-C , 24-H ) :   0.9276 B( 22-C , 25-C ) :   1.0421 B( 25-C , 26-H ) :   0.9526
B( 25-C , 27-H ) :   0.9601 B( 25-C , 28-C ) :   1.0884 B( 28-C , 29-H ) :   0.9717
B( 28-C , 30-H ) :   0.9756 B( 28-C , 31-H ) :   0.9722

Dispersion correction           -0.015070179
FINAL SINGLE POINT ENERGY     -1339.857461196536

DIPOLE MOMENT
-------------
                                X             Y             Z
Electronic contribution:     -0.37445      17.40907       8.95969
Nuclear contribution   :      0.56411     -17.93889      -9.24935
                        -----------------------------------------
Total Dipole Moment    :      0.18966      -0.52983      -0.28966
                        -----------------------------------------
Magnitude (a.u.)       :      0.63292
Magnitude (Debye)      :      1.60875

Rotational constants in cm-1:     0.017454     0.009160     0.007718
Rotational constants in MHz :   523.271209   274.606860   231.369755

                             ****ORCA TERMINATED NORMALLY****
TOTAL RUN TIME: 0 days 0 hours 0 minutes 36 seconds 303 msec
