                         Program Version 4.2.1 -  RELEASE  -
|  1> ! wB97X-D3 SP def2-SVP
|  2> %pal
|  3> nprocs 16
|  4> end
|  5>
|  6> * xyz 0 1
|  7> S 	 -39.5135 	 16.8887 	 79.0602
|  8> C 	 -39.1215 	 18.1811 	 77.9562
|  9> C 	 -37.8446 	 18.0261 	 77.443
| 10> C 	 -37.3398 	 16.7443 	 77.8805
| 11> C 	 -38.0504 	 15.9927 	 78.7767
| 12> H 	 -36.4555 	 16.2325 	 77.5001
| 13> C 	 -37.124 	 18.9266 	 76.5313
| 14> H 	 -36.1368 	 19.0464 	 76.912
| 15> H 	 -37.6039 	 19.8586 	 76.4659
| 16> C 	 -36.7769 	 18.3912 	 75.1106
| 17> H 	 -36.0963 	 19.0005 	 74.5032
| 18> H 	 -36.1539 	 17.4294 	 75.2988
| 19> C 	 -38.0493 	 18.0544 	 74.3003
| 20> H 	 -38.5258 	 17.1919 	 74.6764
| 21> H 	 -38.7682 	 18.9165 	 74.3925
| 22> H 	 -37.7454 	 17.9976 	 73.2187
| 23> S 	 -37.3581 	 14.3859 	 80.935
| 24> C 	 -37.2469 	 12.6931 	 80.7693
| 25> C 	 -37.5604 	 12.3068 	 79.4977
| 26> C 	 -37.7816 	 13.363 	 78.5861
| 27> C 	 -37.804 	 14.5936 	 79.2665
| 28> H 	 -37.4793 	 11.2014 	 79.2683
| 29> C 	 -38.0082 	 13.1734 	 77.0538
| 30> H 	 -37.454 	 12.2715 	 76.9913
| 31> H 	 -37.5919 	 13.8664 	 76.3638
| 32> C 	 -39.353 	 12.7658 	 76.6306
| 33> H 	 -40.1504 	 13.4642 	 76.8472
| 34> H 	 -39.6118 	 11.8338 	 77.1573
| 35> C 	 -39.3878 	 12.3727 	 75.1726
| 36> H 	 -38.5611 	 11.8158 	 74.8421
| 37> H 	 -39.1479 	 13.306 	 74.618
| 38> H 	 -40.3016 	 11.8691 	 74.8551
| 39> H 	 -39.7366 	 19.0782 	 77.8869
| 40> H 	 -36.9508 	 12.0194 	 81.6605
| 41> *
| 42>
| 43>                          ****END OF INPUT****

CARTESIAN COORDINATES (ANGSTROEM)
---------------------------------
  S    -39.513500   16.888700   79.060200
  C    -39.121500   18.181100   77.956200
  C    -37.844600   18.026100   77.443000
  C    -37.339800   16.744300   77.880500
  C    -38.050400   15.992700   78.776700
  H    -36.455500   16.232500   77.500100
  C    -37.124000   18.926600   76.531300
  H    -36.136800   19.046400   76.912000
  H    -37.603900   19.858600   76.465900
  C    -36.776900   18.391200   75.110600
  H    -36.096300   19.000500   74.503200
  H    -36.153900   17.429400   75.298800
  C    -38.049300   18.054400   74.300300
  H    -38.525800   17.191900   74.676400
  H    -38.768200   18.916500   74.392500
  H    -37.745400   17.997600   73.218700
  S    -37.358100   14.385900   80.935000
  C    -37.246900   12.693100   80.769300
  C    -37.560400   12.306800   79.497700
  C    -37.781600   13.363000   78.586100
  C    -37.804000   14.593600   79.266500
  H    -37.479300   11.201400   79.268300
  C    -38.008200   13.173400   77.053800
  H    -37.454000   12.271500   76.991300
  H    -37.591900   13.866400   76.363800
  C    -39.353000   12.765800   76.630600
  H    -40.150400   13.464200   76.847200
  H    -39.611800   11.833800   77.157300
  C    -39.387800   12.372700   75.172600
  H    -38.561100   11.815800   74.842100
  H    -39.147900   13.306000   74.618000
  H    -40.301600   11.869100   74.855100
  H    -39.736600   19.078200   77.886900
  H    -36.950800   12.019400   81.660500

 Total Charge           Charge          ....    0
 Multiplicity           Mult            ....    1
 Number of Electrons    NEL             ....  134
 Basis Dimension        Dim             ....  322

ORBITAL ENERGIES
----------------

  NO   OCC          E(Eh)            E(eV)
   0   2.0000     -88.966153     -2420.8921
   1   2.0000     -88.960460     -2420.7372
   2   2.0000     -10.331204      -281.1263
   3   2.0000     -10.329085      -281.0687
   4   2.0000     -10.321744      -280.8689
   5   2.0000     -10.317022      -280.7404
   6   2.0000     -10.311558      -280.5918
   7   2.0000     -10.303866      -280.3825
   8   2.0000     -10.298540      -280.2375
   9   2.0000     -10.296759      -280.1891
  10   2.0000     -10.292320      -280.0683
  11   2.0000     -10.286926      -279.9215
  12   2.0000     -10.286197      -279.9017
  13   2.0000     -10.279435      -279.7177
  14   2.0000     -10.277322      -279.6602
  15   2.0000     -10.272355      -279.5250
  16   2.0000      -8.082014      -219.9228
  17   2.0000      -8.075678      -219.7504
  18   2.0000      -6.040239      -164.3633
  19   2.0000      -6.036261      -164.2550
  20   2.0000      -6.034186      -164.1985
  21   2.0000      -6.033099      -164.1690
  22   2.0000      -6.029978      -164.0841
  23   2.0000      -6.026518      -163.9899
  24   2.0000      -1.009824       -27.4787
  25   2.0000      -0.991526       -26.9808
  26   2.0000      -0.922925       -25.1141
  27   2.0000      -0.914404       -24.8822
  28   2.0000      -0.866229       -23.5713
  29   2.0000      -0.854897       -23.2629
  30   2.0000      -0.840954       -22.8835
  31   2.0000      -0.815415       -22.1886
  32   2.0000      -0.786871       -21.4119
  33   2.0000      -0.777214       -21.1491
  34   2.0000      -0.705345       -19.1934
  35   2.0000      -0.696893       -18.9634
  36   2.0000      -0.688090       -18.7239
  37   2.0000      -0.654680       -17.8148
  38   2.0000      -0.644029       -17.5249
  39   2.0000      -0.623283       -16.9604
  40   2.0000      -0.604824       -16.4581
  41   2.0000      -0.568694       -15.4750
  42   2.0000      -0.566404       -15.4126
  43   2.0000      -0.549645       -14.9566
  44   2.0000      -0.547731       -14.9045
  45   2.0000      -0.532751       -14.4969
  46   2.0000      -0.516754       -14.0616
  47   2.0000      -0.510451       -13.8901
  48   2.0000      -0.502932       -13.6855
  49   2.0000      -0.501815       -13.6551
  50   2.0000      -0.493272       -13.4226
  51   2.0000      -0.476704       -12.9718
  52   2.0000      -0.472830       -12.8664
  53   2.0000      -0.468269       -12.7422
  54   2.0000      -0.464040       -12.6272
  55   2.0000      -0.450945       -12.2708
  56   2.0000      -0.445359       -12.1188
  57   2.0000      -0.444651       -12.0996
  58   2.0000      -0.425190       -11.5700
  59   2.0000      -0.420890       -11.4530
  60   2.0000      -0.414666       -11.2836
  61   2.0000      -0.410466       -11.1694
  62   2.0000      -0.407307       -11.0834
  63   2.0000      -0.338628        -9.2145
  64   2.0000      -0.332740        -9.0543
  65   2.0000      -0.324490        -8.8298
  66   2.0000      -0.308410        -8.3923
  67   0.0000       0.044220         1.2033
  68   0.0000       0.061692         1.6787
  69   0.0000       0.117273         3.1912
  70   0.0000       0.119316         3.2468
  71   0.0000       0.131031         3.5655

MULLIKEN ATOMIC CHARGES
-----------------------
   0 S :    0.097371
   1 C :   -0.131615
   2 C :   -0.079534
   3 C :    0.012276
   4 C :   -0.143483
   5 H :    0.007101
   6 C :    0.130835
   7 H :    0.025099
   8 H :    0.008818
   9 C :   -0.133905
  10 H :    0.035891
  11 H :    0.032965
  12 C :   -0.050963
  13 H :    0.042509
  14 H :    0.028590
  15 H :    0.043013
  16 S :    0.123866
  17 C :   -0.132379
  18 C :   -0.064663
  19 C :   -0.001852
  20 C :   -0.197444
  21 H :    0.040008
  22 C :    0.104623
  23 H :    0.003547
  24 H :    0.017660
  25 C :   -0.053891
  26 H :    0.035374
  27 H :    0.014730
  28 C :   -0.029965
  29 H :    0.002916
  30 H :    0.016532
  31 H :    0.046177
  32 H :    0.056773
  33 H :    0.093018
Sum of atomic charges:   -0.0000000

LOEWDIN ATOMIC CHARGES
----------------------
   0 S :    0.407082
   1 C :   -0.193406
   2 C :   -0.066031
   3 C :   -0.065820
   4 C :   -0.207229
   5 H :    0.027123
   6 C :   -0.029254
   7 H :    0.035939
   8 H :    0.022462
   9 C :   -0.043827
  10 H :    0.023656
  11 H :    0.027546
  12 C :   -0.068756
  13 H :    0.019911
  14 H :    0.027220
  15 H :    0.032173
  16 S :    0.437424
  17 C :   -0.213802
  18 C :   -0.089796
  19 C :   -0.045319
  20 C :   -0.209048
  21 H :    0.042456
  22 C :   -0.024274
  23 H :    0.031982
  24 H :    0.024774
  25 C :   -0.040654
  26 H :    0.023693
  27 H :    0.023619
  28 C :   -0.064741
  29 H :    0.015459
  30 H :    0.027797
  31 H :    0.029852
  32 H :    0.030551
  33 H :    0.051239

  Mayer bond orders larger than 0.100000
B(  0-S ,  1-C ) :   1.1590 B(  0-S ,  4-C ) :   1.1465 B(  1-C ,  2-C ) :   1.5834
B(  1-C , 32-H ) :   0.9660 B(  2-C ,  3-C ) :   1.2140 B(  2-C ,  6-C ) :   1.0536
B(  3-C ,  4-C ) :   1.6217 B(  3-C ,  5-H ) :   0.9926 B(  4-C , 20-C ) :   0.9873
B(  6-C ,  7-H ) :   0.9250 B(  6-C ,  8-H ) :   0.9387 B(  6-C ,  9-C ) :   1.0645
B(  9-C , 10-H ) :   0.9616 B(  9-C , 11-H ) :   0.9543 B(  9-C , 12-C ) :   1.0611
B( 12-C , 13-H ) :   0.9763 B( 12-C , 14-H ) :   0.9767 B( 12-C , 15-H ) :   0.9762
B( 16-S , 17-C ) :   1.1811 B( 16-S , 20-C ) :   1.1788 B( 17-C , 18-C ) :   1.5906
B( 17-C , 20-C ) :   0.1023 B( 17-C , 33-H ) :   0.9548 B( 18-C , 19-C ) :   1.2754
B( 18-C , 21-H ) :   0.9759 B( 19-C , 20-C ) :   1.5688 B( 19-C , 22-C ) :   1.0041
B( 22-C , 23-H ) :   0.9192 B( 22-C , 24-H ) :   0.9497 B( 22-C , 25-C ) :   1.0804
B( 25-C , 26-H ) :   0.9541 B( 25-C , 27-H ) :   0.9488 B( 25-C , 28-C ) :   1.0844
B( 28-C , 29-H ) :   0.9697 B( 28-C , 30-H ) :   0.9678 B( 28-C , 31-H ) :   0.9731

Dispersion correction           -0.014370601
FINAL SINGLE POINT ENERGY     -1339.865706935009

DIPOLE MOMENT
-------------
                                X             Y             Z
Electronic contribution:     -0.73240       1.54301      29.11032
Nuclear contribution   :      1.04777      -1.72108     -29.63797
                        -----------------------------------------
Total Dipole Moment    :      0.31537      -0.17807      -0.52765
                        -----------------------------------------
Magnitude (a.u.)       :      0.63999
Magnitude (Debye)      :      1.62671

Rotational constants in cm-1:     0.017282     0.009367     0.007159
Rotational constants in MHz :   518.099271   280.805850   214.632227

                             ****ORCA TERMINATED NORMALLY****
TOTAL RUN TIME: 0 days 0 hours 0 minutes 30 seconds 176 msec
