                         Program Version 4.2.1 -  RELEASE  -
|  1> ! wB97X-D3 SP def2-SVP
|  2> %pal
|  3> nprocs 16
|  4> end
|  5>
|  6> * xyz 0 1
|  7> S 	 -61.9622 	 51.9335 	 123.186
|  8> C 	 -62.3608 	 51.2105 	 124.759
|  9> C 	 -62.9617 	 52.138 	 125.57
| 10> C 	 -63.2951 	 53.3777 	 124.911
| 11> C 	 -62.9936 	 53.3598 	 123.548
| 12> H 	 -63.8009 	 54.2212 	 125.344
| 13> C 	 -63.2758 	 51.9334 	 127.006
| 14> H 	 -63.7092 	 52.8879 	 127.388
| 15> H 	 -62.2845 	 51.7435 	 127.444
| 16> C 	 -64.0871 	 50.6647 	 127.296
| 17> H 	 -63.7888 	 49.9207 	 126.57
| 18> H 	 -63.908 	 50.2433 	 128.283
| 19> C 	 -65.567 	 51.1086 	 127.11
| 20> H 	 -65.6383 	 51.9103 	 126.371
| 21> H 	 -66.179 	 50.2875 	 126.947
| 22> H 	 -65.8668 	 51.449 	 128.089
| 23> S 	 -61.8414 	 54.6228 	 121.346
| 24> C 	 -62.5078 	 56.0244 	 120.695
| 25> C 	 -63.7081 	 56.4048 	 121.381
| 26> C 	 -64.0022 	 55.6092 	 122.514
| 27> C 	 -63.1014 	 54.5351 	 122.652
| 28> H 	 -64.2132 	 57.2773 	 120.949
| 29> C 	 -65.3048 	 55.8725 	 123.269
| 30> H 	 -65.9292 	 56.6013 	 122.757
| 31> H 	 -65.0857 	 56.2778 	 124.229
| 32> C 	 -66.2359 	 54.6459 	 123.358
| 33> H 	 -65.7107 	 53.8761 	 123.927
| 34> H 	 -66.1459 	 54.2765 	 122.334
| 35> C 	 -67.5872 	 54.8588 	 123.957
| 36> H 	 -68.2132 	 53.9648 	 123.727
| 37> H 	 -68.2318 	 55.4985 	 123.318
| 38> H 	 -67.5539 	 55.2112 	 125.02
| 39> H 	 -61.9483 	 50.2458 	 125.089
| 40> H 	 -62.2332 	 56.5538 	 119.888
| 41> *
| 42>
| 43>                          ****END OF INPUT****

CARTESIAN COORDINATES (ANGSTROEM)
---------------------------------
  S    -61.962200   51.933500  123.186000
  C    -62.360800   51.210500  124.759000
  C    -62.961700   52.138000  125.570000
  C    -63.295100   53.377700  124.911000
  C    -62.993600   53.359800  123.548000
  H    -63.800900   54.221200  125.344000
  C    -63.275800   51.933400  127.006000
  H    -63.709200   52.887900  127.388000
  H    -62.284500   51.743500  127.444000
  C    -64.087100   50.664700  127.296000
  H    -63.788800   49.920700  126.570000
  H    -63.908000   50.243300  128.283000
  C    -65.567000   51.108600  127.110000
  H    -65.638300   51.910300  126.371000
  H    -66.179000   50.287500  126.947000
  H    -65.866800   51.449000  128.089000
  S    -61.841400   54.622800  121.346000
  C    -62.507800   56.024400  120.695000
  C    -63.708100   56.404800  121.381000
  C    -64.002200   55.609200  122.514000
  C    -63.101400   54.535100  122.652000
  H    -64.213200   57.277300  120.949000
  C    -65.304800   55.872500  123.269000
  H    -65.929200   56.601300  122.757000
  H    -65.085700   56.277800  124.229000
  C    -66.235900   54.645900  123.358000
  H    -65.710700   53.876100  123.927000
  H    -66.145900   54.276500  122.334000
  C    -67.587200   54.858800  123.957000
  H    -68.213200   53.964800  123.727000
  H    -68.231800   55.498500  123.318000
  H    -67.553900   55.211200  125.020000
  H    -61.948300   50.245800  125.089000
  H    -62.233200   56.553800  119.888000

 Total Charge           Charge          ....    0
 Multiplicity           Mult            ....    1
 Number of Electrons    NEL             ....  134
 Basis Dimension        Dim             ....  322

ORBITAL ENERGIES
----------------

  NO   OCC          E(Eh)            E(eV)
   0   2.0000     -88.969644     -2420.9871
   1   2.0000     -88.967649     -2420.9328
   2   2.0000     -10.339349      -281.3480
   3   2.0000     -10.338171      -281.3159
   4   2.0000     -10.316139      -280.7164
   5   2.0000     -10.310935      -280.5748
   6   2.0000     -10.310485      -280.5626
   7   2.0000     -10.301018      -280.3050
   8   2.0000     -10.296738      -280.1885
   9   2.0000     -10.296633      -280.1856
  10   2.0000     -10.290737      -280.0252
  11   2.0000     -10.289628      -279.9950
  12   2.0000     -10.286121      -279.8996
  13   2.0000     -10.285515      -279.8831
  14   2.0000     -10.278975      -279.7051
  15   2.0000     -10.270599      -279.4772
  16   2.0000      -8.084336      -219.9860
  17   2.0000      -8.081078      -219.8973
  18   2.0000      -6.042683      -164.4298
  19   2.0000      -6.039894      -164.3539
  20   2.0000      -6.038726      -164.3221
  21   2.0000      -6.035907      -164.2454
  22   2.0000      -6.035406      -164.2317
  23   2.0000      -6.031466      -164.1245
  24   2.0000      -1.001062       -27.2403
  25   2.0000      -0.981452       -26.7067
  26   2.0000      -0.916053       -24.9271
  27   2.0000      -0.912680       -24.8353
  28   2.0000      -0.864566       -23.5260
  29   2.0000      -0.856020       -23.2935
  30   2.0000      -0.844166       -22.9709
  31   2.0000      -0.810818       -22.0635
  32   2.0000      -0.785211       -21.3667
  33   2.0000      -0.769947       -20.9513
  34   2.0000      -0.714354       -19.4386
  35   2.0000      -0.703814       -19.1518
  36   2.0000      -0.689508       -18.7625
  37   2.0000      -0.664182       -18.0733
  38   2.0000      -0.637493       -17.3471
  39   2.0000      -0.613154       -16.6848
  40   2.0000      -0.594984       -16.1903
  41   2.0000      -0.574236       -15.6258
  42   2.0000      -0.569118       -15.4865
  43   2.0000      -0.565024       -15.3751
  44   2.0000      -0.534203       -14.5364
  45   2.0000      -0.527897       -14.3648
  46   2.0000      -0.519652       -14.1405
  47   2.0000      -0.516862       -14.0645
  48   2.0000      -0.503907       -13.7120
  49   2.0000      -0.497254       -13.5310
  50   2.0000      -0.491358       -13.3705
  51   2.0000      -0.479715       -13.0537
  52   2.0000      -0.473071       -12.8729
  53   2.0000      -0.465932       -12.6787
  54   2.0000      -0.458382       -12.4732
  55   2.0000      -0.447530       -12.1779
  56   2.0000      -0.445545       -12.1239
  57   2.0000      -0.437941       -11.9170
  58   2.0000      -0.425566       -11.5802
  59   2.0000      -0.424711       -11.5570
  60   2.0000      -0.421561       -11.4713
  61   2.0000      -0.414878       -11.2894
  62   2.0000      -0.402404       -10.9500
  63   2.0000      -0.357583        -9.7303
  64   2.0000      -0.335008        -9.1160
  65   2.0000      -0.325878        -8.8676
  66   2.0000      -0.279198        -7.5974
  67   0.0000       0.013882         0.3777
  68   0.0000       0.070174         1.9095
  69   0.0000       0.095676         2.6035
  70   0.0000       0.121916         3.3175
  71   0.0000       0.128188         3.4882

MULLIKEN ATOMIC CHARGES
-----------------------
   0 S :    0.087259
   1 C :   -0.127603
   2 C :   -0.096061
   3 C :    0.012045
   4 C :   -0.102189
   5 H :    0.014976
   6 C :    0.041252
   7 H :    0.028090
   8 H :    0.035942
   9 C :   -0.062488
  10 H :    0.023675
  11 H :    0.029423
  12 C :   -0.018082
  13 H :    0.043736
  14 H :    0.016025
  15 H :    0.021068
  16 S :    0.110405
  17 C :   -0.035874
  18 C :   -0.082407
  19 C :   -0.022427
  20 C :   -0.161405
  21 H :    0.027424
  22 C :    0.082220
  23 H :    0.013067
  24 H :    0.021581
  25 C :   -0.109633
  26 H :    0.032428
  27 H :    0.031888
  28 C :   -0.034269
  29 H :    0.036666
  30 H :    0.018550
  31 H :    0.054696
  32 H :    0.060550
  33 H :    0.009474
Sum of atomic charges:   -0.0000000

LOEWDIN ATOMIC CHARGES
----------------------
   0 S :    0.371102
   1 C :   -0.196760
   2 C :   -0.062326
   3 C :   -0.064997
   4 C :   -0.171178
   5 H :    0.028872
   6 C :   -0.036226
   7 H :    0.030507
   8 H :    0.036479
   9 C :   -0.032225
  10 H :    0.019519
  11 H :    0.021549
  12 C :   -0.052005
  13 H :    0.026990
  14 H :    0.014144
  15 H :    0.025475
  16 S :    0.418431
  17 C :   -0.189814
  18 C :   -0.073491
  19 C :   -0.055772
  20 C :   -0.176282
  21 H :    0.034466
  22 C :   -0.026435
  23 H :    0.029087
  24 H :    0.020876
  25 C :   -0.053262
  26 H :    0.021041
  27 H :    0.029903
  28 C :   -0.078282
  29 H :    0.039550
  30 H :    0.026176
  31 H :    0.035605
  32 H :    0.033089
  33 H :    0.006197

  Mayer bond orders larger than 0.100000
B(  0-S ,  1-C ) :   1.1092 B(  0-S ,  4-C ) :   1.1435 B(  1-C ,  2-C ) :   1.6202
B(  1-C , 32-H ) :   0.9629 B(  2-C ,  3-C ) :   1.2328 B(  2-C ,  6-C ) :   1.0246
B(  3-C ,  4-C ) :   1.5456 B(  3-C ,  5-H ) :   0.9912 B(  4-C , 20-C ) :   1.0849
B(  6-C ,  7-H ) :   0.9513 B(  6-C ,  8-H ) :   0.9224 B(  6-C ,  9-C ) :   1.0690
B(  9-C , 10-H ) :   0.9577 B(  9-C , 11-H ) :   0.9591 B(  9-C , 12-C ) :   1.0612
B( 12-C , 13-H ) :   0.9820 B( 12-C , 14-H ) :   0.9729 B( 12-C , 15-H ) :   0.9751
B( 16-S , 17-C ) :   1.1884 B( 16-S , 20-C ) :   1.1382 B( 17-C , 18-C ) :   1.5720
B( 17-C , 20-C ) :   0.1056 B( 17-C , 33-H ) :   0.9789 B( 18-C , 19-C ) :   1.2763
B( 18-C , 21-H ) :   0.9888 B( 19-C , 20-C ) :   1.5430 B( 19-C , 22-C ) :   1.0376
B( 22-C , 23-H ) :   0.9434 B( 22-C , 24-H ) :   0.9222 B( 22-C , 25-C ) :   1.0574
B( 25-C , 26-H ) :   0.9459 B( 25-C , 27-H ) :   0.9516 B( 25-C , 28-C ) :   1.0973
B( 28-C , 29-H ) :   0.9638 B( 28-C , 30-H ) :   0.9663 B( 28-C , 31-H ) :   0.9687

Dispersion correction           -0.014637733
FINAL SINGLE POINT ENERGY     -1339.852851292790

DIPOLE MOMENT
-------------
                                X             Y             Z
Electronic contribution:     24.00017       1.87783     -19.16704
Nuclear contribution   :    -24.41639      -1.72741      19.58030
                        -----------------------------------------
Total Dipole Moment    :     -0.41622       0.15042       0.41326
                        -----------------------------------------
Magnitude (a.u.)       :      0.60552
Magnitude (Debye)      :      1.53910

Rotational constants in cm-1:     0.018778     0.009631     0.006786
Rotational constants in MHz :   562.963428   288.723305   203.437981

                             ****ORCA TERMINATED NORMALLY****
TOTAL RUN TIME: 0 days 0 hours 0 minutes 35 seconds 230 msec
