                         Program Version 4.2.1 -  RELEASE  -
|  1> ! wB97X-D3 SP def2-SVP
|  2> %pal
|  3> nprocs 16
|  4> end
|  5>
|  6> * xyz 0 1
|  7> S 	 -100.179 	 38.119 	 126.684
|  8> C 	 -99.4037 	 37.2457 	 128.057
|  9> C 	 -98.1308 	 37.6621 	 128.28
| 10> C 	 -97.6717 	 38.5543 	 127.187
| 11> C 	 -98.6843 	 38.9162 	 126.334
| 12> H 	 -96.6525 	 38.7766 	 126.963
| 13> C 	 -97.2028 	 37.2101 	 129.359
| 14> H 	 -97.661 	 36.3113 	 129.786
| 15> H 	 -97.1691 	 37.925 	 130.205
| 16> C 	 -95.7471 	 36.9484 	 128.913
| 17> H 	 -95.8485 	 36.4042 	 128.005
| 18> H 	 -95.2043 	 37.8979 	 128.622
| 19> C 	 -95.0355 	 36.1377 	 129.935
| 20> H 	 -95.6616 	 35.3915 	 130.433
| 21> H 	 -94.1555 	 35.6562 	 129.637
| 22> H 	 -94.7048 	 36.7984 	 130.733
| 23> S 	 -99.2125 	 39.3552 	 123.691
| 24> C 	 -98.8525 	 40.8853 	 122.917
| 25> C 	 -98.2572 	 41.771 	 123.787
| 26> C 	 -97.9971 	 41.1587 	 125.071
| 27> C 	 -98.5621 	 39.9256 	 125.264
| 28> H 	 -97.9375 	 42.7069 	 123.392
| 29> C 	 -97.362 	 41.9479 	 126.232
| 30> H 	 -96.441 	 42.414 	 125.903
| 31> H 	 -96.996 	 41.1772 	 126.939
| 32> C 	 -98.31 	 42.9377 	 126.849
| 33> H 	 -98.5587 	 43.5589 	 125.963
| 34> H 	 -97.8055 	 43.5917 	 127.577
| 35> C 	 -99.5811 	 42.3831 	 127.409
| 36> H 	 -100.028 	 41.545 	 126.832
| 37> H 	 -100.318 	 43.1834 	 127.346
| 38> H 	 -99.5151 	 42.1949 	 128.478
| 39> H 	 -99.8696 	 36.4734 	 128.623
| 40> H 	 -98.9129 	 41.0798 	 121.924
| 41> *
| 42>
| 43>                          ****END OF INPUT****

CARTESIAN COORDINATES (ANGSTROEM)
---------------------------------
  S    -100.179000   38.119000  126.684000
  C    -99.403700   37.245700  128.057000
  C    -98.130800   37.662100  128.280000
  C    -97.671700   38.554300  127.187000
  C    -98.684300   38.916200  126.334000
  H    -96.652500   38.776600  126.963000
  C    -97.202800   37.210100  129.359000
  H    -97.661000   36.311300  129.786000
  H    -97.169100   37.925000  130.205000
  C    -95.747100   36.948400  128.913000
  H    -95.848500   36.404200  128.005000
  H    -95.204300   37.897900  128.622000
  C    -95.035500   36.137700  129.935000
  H    -95.661600   35.391500  130.433000
  H    -94.155500   35.656200  129.637000
  H    -94.704800   36.798400  130.733000
  S    -99.212500   39.355200  123.691000
  C    -98.852500   40.885300  122.917000
  C    -98.257200   41.771000  123.787000
  C    -97.997100   41.158700  125.071000
  C    -98.562100   39.925600  125.264000
  H    -97.937500   42.706900  123.392000
  C    -97.362000   41.947900  126.232000
  H    -96.441000   42.414000  125.903000
  H    -96.996000   41.177200  126.939000
  C    -98.310000   42.937700  126.849000
  H    -98.558700   43.558900  125.963000
  H    -97.805500   43.591700  127.577000
  C    -99.581100   42.383100  127.409000
  H    -100.028000   41.545000  126.832000
  H    -100.318000   43.183400  127.346000
  H    -99.515100   42.194900  128.478000
  H    -99.869600   36.473400  128.623000
  H    -98.912900   41.079800  121.924000

 Total Charge           Charge          ....    0
 Multiplicity           Mult            ....    1
 Number of Electrons    NEL             ....  134
 Basis Dimension        Dim             ....  322

ORBITAL ENERGIES
----------------

  NO   OCC          E(Eh)            E(eV)
   0   2.0000     -88.967651     -2420.9329
   1   2.0000     -88.960238     -2420.7311
   2   2.0000     -10.331715      -281.1402
   3   2.0000     -10.330554      -281.1087
   4   2.0000     -10.314594      -280.6744
   5   2.0000     -10.312157      -280.6081
   6   2.0000     -10.307091      -280.4702
   7   2.0000     -10.304125      -280.3895
   8   2.0000     -10.295631      -280.1584
   9   2.0000     -10.294756      -280.1346
  10   2.0000     -10.293681      -280.1053
  11   2.0000     -10.289005      -279.9781
  12   2.0000     -10.285742      -279.8893
  13   2.0000     -10.281018      -279.7607
  14   2.0000     -10.273325      -279.5514
  15   2.0000     -10.266666      -279.3702
  16   2.0000      -8.081827      -219.9177
  17   2.0000      -8.074680      -219.7232
  18   2.0000      -6.040547      -164.3716
  19   2.0000      -6.036505      -164.2617
  20   2.0000      -6.033300      -164.1744
  21   2.0000      -6.032281      -164.1467
  22   2.0000      -6.029150      -164.0615
  23   2.0000      -6.025416      -163.9599
  24   2.0000      -1.003798       -27.3147
  25   2.0000      -0.980979       -26.6938
  26   2.0000      -0.919498       -25.0208
  27   2.0000      -0.909865       -24.7587
  28   2.0000      -0.874349       -23.7922
  29   2.0000      -0.848901       -23.0998
  30   2.0000      -0.840374       -22.8677
  31   2.0000      -0.818201       -22.2644
  32   2.0000      -0.783625       -21.3235
  33   2.0000      -0.776873       -21.1398
  34   2.0000      -0.715011       -19.4565
  35   2.0000      -0.696348       -18.9486
  36   2.0000      -0.690429       -18.7875
  37   2.0000      -0.660126       -17.9629
  38   2.0000      -0.643528       -17.5113
  39   2.0000      -0.621451       -16.9105
  40   2.0000      -0.594449       -16.1758
  41   2.0000      -0.577098       -15.7036
  42   2.0000      -0.567376       -15.4391
  43   2.0000      -0.553688       -15.0666
  44   2.0000      -0.544371       -14.8131
  45   2.0000      -0.527182       -14.3453
  46   2.0000      -0.517840       -14.0911
  47   2.0000      -0.510638       -13.8952
  48   2.0000      -0.506042       -13.7701
  49   2.0000      -0.499879       -13.6024
  50   2.0000      -0.491985       -13.3876
  51   2.0000      -0.478719       -13.0266
  52   2.0000      -0.474010       -12.8985
  53   2.0000      -0.462694       -12.5905
  54   2.0000      -0.458470       -12.4756
  55   2.0000      -0.449528       -12.2323
  56   2.0000      -0.443174       -12.0594
  57   2.0000      -0.434680       -11.8282
  58   2.0000      -0.432620       -11.7722
  59   2.0000      -0.427328       -11.6282
  60   2.0000      -0.419420       -11.4130
  61   2.0000      -0.409934       -11.1549
  62   2.0000      -0.401898       -10.9362
  63   2.0000      -0.347369        -9.4524
  64   2.0000      -0.331435        -9.0188
  65   2.0000      -0.326800        -8.8927
  66   2.0000      -0.297533        -8.0963
  67   0.0000       0.030450         0.8286
  68   0.0000       0.073471         1.9992
  69   0.0000       0.106448         2.8966
  70   0.0000       0.112470         3.0605
  71   0.0000       0.131498         3.5783

MULLIKEN ATOMIC CHARGES
-----------------------
   0 S :    0.108473
   1 C :   -0.118404
   2 C :   -0.072449
   3 C :    0.008387
   4 C :   -0.101866
   5 H :    0.021431
   6 C :    0.056545
   7 H :    0.011910
   8 H :    0.044473
   9 C :   -0.104976
  10 H :    0.026935
  11 H :    0.048370
  12 C :    0.001906
  13 H :    0.024806
  14 H :    0.021361
  15 H :    0.019389
  16 S :    0.075824
  17 C :   -0.036400
  18 C :   -0.031340
  19 C :   -0.081195
  20 C :   -0.150599
  21 H :    0.013685
  22 C :    0.086875
  23 H :    0.016567
  24 H :    0.005578
  25 C :   -0.066702
  26 H :    0.019322
  27 H :    0.032236
  28 C :   -0.033800
  29 H :    0.049242
  30 H :    0.018645
  31 H :    0.031693
  32 H :    0.034820
  33 H :    0.019257
Sum of atomic charges:   -0.0000000

LOEWDIN ATOMIC CHARGES
----------------------
   0 S :    0.388414
   1 C :   -0.177557
   2 C :   -0.053686
   3 C :   -0.063780
   4 C :   -0.196028
   5 H :    0.026699
   6 C :   -0.032517
   7 H :    0.029442
   8 H :    0.036595
   9 C :   -0.043928
  10 H :    0.019956
  11 H :    0.032071
  12 C :   -0.061310
  13 H :    0.027632
  14 H :    0.019785
  15 H :    0.027810
  16 S :    0.376980
  17 C :   -0.157477
  18 C :   -0.068672
  19 C :   -0.052589
  20 C :   -0.180243
  21 H :    0.029077
  22 C :   -0.034512
  23 H :    0.027223
  24 H :    0.024686
  25 C :   -0.045703
  26 H :    0.025194
  27 H :    0.027313
  28 C :   -0.068719
  29 H :    0.032359
  30 H :    0.027176
  31 H :    0.025901
  32 H :    0.023037
  33 H :    0.009373

  Mayer bond orders larger than 0.100000
B(  0-S ,  1-C ) :   1.0953 B(  0-S ,  4-C ) :   1.1405 B(  1-C ,  2-C ) :   1.6783
B(  1-C , 32-H ) :   0.9700 B(  2-C ,  3-C ) :   1.1729 B(  2-C ,  6-C ) :   1.0328
B(  3-C ,  4-C ) :   1.6232 B(  3-C ,  5-H ) :   0.9883 B(  4-C , 20-C ) :   1.0100
B(  6-C ,  7-H ) :   0.9416 B(  6-C ,  8-H ) :   0.9264 B(  6-C ,  9-C ) :   1.0626
B(  9-C , 10-H ) :   0.9617 B(  9-C , 11-H ) :   0.9435 B(  9-C , 12-C ) :   1.0900
B( 12-C , 13-H ) :   0.9731 B( 12-C , 14-H ) :   0.9713 B( 12-C , 15-H ) :   0.9685
B( 16-S , 17-C ) :   1.1522 B( 16-S , 20-C ) :   1.1142 B( 17-C , 18-C ) :   1.6328
B( 17-C , 33-H ) :   0.9766 B( 18-C , 19-C ) :   1.1982 B( 18-C , 21-H ) :   0.9943
B( 19-C , 20-C ) :   1.6448 B( 19-C , 22-C ) :   1.0412 B( 22-C , 23-H ) :   0.9293
B( 22-C , 24-H ) :   0.9305 B( 22-C , 25-C ) :   1.0721 B( 25-C , 26-H ) :   0.9559
B( 25-C , 27-H ) :   0.9517 B( 25-C , 28-C ) :   1.0839 B( 28-C , 29-H ) :   0.9689
B( 28-C , 30-H ) :   0.9700 B( 28-C , 31-H ) :   0.9735

Dispersion correction           -0.014825426
FINAL SINGLE POINT ENERGY     -1339.876718975488

DIPOLE MOMENT
-------------
                                X             Y             Z
Electronic contribution:    -15.01252      -4.45217     -19.37716
Nuclear contribution   :     15.62725       4.59566      19.74642
                        -----------------------------------------
Total Dipole Moment    :      0.61473       0.14349       0.36927
                        -----------------------------------------
Magnitude (a.u.)       :      0.73133
Magnitude (Debye)      :      1.85889

Rotational constants in cm-1:     0.020426     0.008181     0.007383
Rotational constants in MHz :   612.367940   245.271700   221.324731

                             ****ORCA TERMINATED NORMALLY****
TOTAL RUN TIME: 0 days 0 hours 0 minutes 34 seconds 693 msec
