                         Program Version 4.2.1 -  RELEASE  -
|  1> ! wB97X-D3 SP def2-SVP
|  2> %pal
|  3> nprocs 16
|  4> end
|  5>
|  6> * xyz 0 1
|  7> S 	 34.4086 	 1.36411 	 70.718
|  8> C 	 34.9866 	 2.96404 	 70.5031
|  9> C 	 34.3163 	 3.85221 	 71.3527
| 10> C 	 33.3084 	 3.22538 	 72.1566
| 11> C 	 33.1717 	 1.87156 	 71.8841
| 12> H 	 32.5733 	 3.652 	 72.7632
| 13> C 	 34.6796 	 5.31097 	 71.4255
| 14> H 	 35.8446 	 5.28275 	 71.5127
| 15> H 	 34.4114 	 5.76715 	 72.3438
| 16> C 	 34.206 	 6.25332 	 70.3004
| 17> H 	 33.1588 	 6.39009 	 70.3132
| 18> H 	 34.6024 	 7.27326 	 70.5452
| 19> C 	 34.7492 	 5.85332 	 68.9366
| 20> H 	 35.8177 	 5.59335 	 69.0937
| 21> H 	 34.1906 	 5.06174 	 68.4626
| 22> H 	 34.658 	 6.65065 	 68.2025
| 23> S 	 30.8696 	 0.428432 	 71.5969
| 24> C 	 30.4423 	 -0.718052 	 72.837
| 25> C 	 31.4453 	 -0.872958 	 73.7186
| 26> C 	 32.4782 	 0.100451 	 73.6222
| 27> C 	 32.2541 	 0.948 	 72.5097
| 28> H 	 31.2586 	 -1.63125 	 74.4777
| 29> C 	 33.6756 	 0.102123 	 74.4405
| 30> H 	 34.6145 	 -0.135381 	 73.9045
| 31> H 	 33.5546 	 -0.773345 	 75.025
| 32> C 	 33.8438 	 1.23894 	 75.4164
| 33> H 	 34.1744 	 2.12453 	 74.9132
| 34> H 	 34.8022 	 1.10929 	 75.9675
| 35> C 	 32.7422 	 1.429 	 76.4745
| 36> H 	 31.7331 	 1.55689 	 76.1012
| 37> H 	 33.047 	 2.38113 	 76.9826
| 38> H 	 32.7084 	 0.613272 	 77.1819
| 39> H 	 35.8769 	 3.1684 	 69.9247
| 40> H 	 29.5532 	 -1.34099 	 72.8045
| 41> *
| 42>
| 43>                          ****END OF INPUT****

CARTESIAN COORDINATES (ANGSTROEM)
---------------------------------
  S     34.408600    1.364110   70.718000
  C     34.986600    2.964040   70.503100
  C     34.316300    3.852210   71.352700
  C     33.308400    3.225380   72.156600
  C     33.171700    1.871560   71.884100
  H     32.573300    3.652000   72.763200
  C     34.679600    5.310970   71.425500
  H     35.844600    5.282750   71.512700
  H     34.411400    5.767150   72.343800
  C     34.206000    6.253320   70.300400
  H     33.158800    6.390090   70.313200
  H     34.602400    7.273260   70.545200
  C     34.749200    5.853320   68.936600
  H     35.817700    5.593350   69.093700
  H     34.190600    5.061740   68.462600
  H     34.658000    6.650650   68.202500
  S     30.869600    0.428432   71.596900
  C     30.442300   -0.718052   72.837000
  C     31.445300   -0.872958   73.718600
  C     32.478200    0.100451   73.622200
  C     32.254100    0.948000   72.509700
  H     31.258600   -1.631250   74.477700
  C     33.675600    0.102123   74.440500
  H     34.614500   -0.135381   73.904500
  H     33.554600   -0.773345   75.025000
  C     33.843800    1.238940   75.416400
  H     34.174400    2.124530   74.913200
  H     34.802200    1.109290   75.967500
  C     32.742200    1.429000   76.474500
  H     31.733100    1.556890   76.101200
  H     33.047000    2.381130   76.982600
  H     32.708400    0.613272   77.181900
  H     35.876900    3.168400   69.924700
  H     29.553200   -1.340990   72.804500

 Total Charge           Charge          ....    0
 Multiplicity           Mult            ....    1
 Number of Electrons    NEL             ....  134
 Basis Dimension        Dim             ....  322

ORBITAL ENERGIES
----------------

  NO   OCC          E(Eh)            E(eV)
   0   2.0000     -88.964306     -2420.8418
   1   2.0000     -88.962848     -2420.8022
   2   2.0000     -10.325393      -280.9682
   3   2.0000     -10.321148      -280.8527
   4   2.0000     -10.311984      -280.6034
   5   2.0000     -10.311943      -280.6022
   6   2.0000     -10.301319      -280.3132
   7   2.0000     -10.301073      -280.3064
   8   2.0000     -10.292765      -280.0804
   9   2.0000     -10.290892      -280.0294
  10   2.0000     -10.289198      -279.9833
  11   2.0000     -10.285000      -279.8691
  12   2.0000     -10.280259      -279.7401
  13   2.0000     -10.279222      -279.7118
  14   2.0000     -10.277335      -279.6605
  15   2.0000     -10.274371      -279.5798
  16   2.0000      -8.079126      -219.8442
  17   2.0000      -8.078169      -219.8182
  18   2.0000      -6.037432      -164.2869
  19   2.0000      -6.036499      -164.2615
  20   2.0000      -6.033508      -164.1801
  21   2.0000      -6.032624      -164.1560
  22   2.0000      -6.030213      -164.0904
  23   2.0000      -6.029051      -164.0588
  24   2.0000      -1.007368       -27.4119
  25   2.0000      -0.985210       -26.8089
  26   2.0000      -0.914031       -24.8721
  27   2.0000      -0.908866       -24.7315
  28   2.0000      -0.871494       -23.7146
  29   2.0000      -0.848147       -23.0792
  30   2.0000      -0.847867       -23.0716
  31   2.0000      -0.816582       -22.2203
  32   2.0000      -0.783368       -21.3165
  33   2.0000      -0.770705       -20.9720
  34   2.0000      -0.714238       -19.4354
  35   2.0000      -0.697688       -18.9850
  36   2.0000      -0.688349       -18.7309
  37   2.0000      -0.657305       -17.8862
  38   2.0000      -0.649785       -17.6815
  39   2.0000      -0.612559       -16.6686
  40   2.0000      -0.590807       -16.0767
  41   2.0000      -0.569700       -15.5023
  42   2.0000      -0.555288       -15.1101
  43   2.0000      -0.553227       -15.0541
  44   2.0000      -0.545262       -14.8373
  45   2.0000      -0.536582       -14.6011
  46   2.0000      -0.516052       -14.0425
  47   2.0000      -0.515283       -14.0216
  48   2.0000      -0.499190       -13.5837
  49   2.0000      -0.494059       -13.4440
  50   2.0000      -0.490014       -13.3340
  51   2.0000      -0.480852       -13.0847
  52   2.0000      -0.474413       -12.9094
  53   2.0000      -0.465350       -12.6628
  54   2.0000      -0.454628       -12.3711
  55   2.0000      -0.442915       -12.0523
  56   2.0000      -0.437894       -11.9157
  57   2.0000      -0.436883       -11.8882
  58   2.0000      -0.432693       -11.7742
  59   2.0000      -0.428826       -11.6690
  60   2.0000      -0.420869       -11.4524
  61   2.0000      -0.409841       -11.1523
  62   2.0000      -0.402518       -10.9531
  63   2.0000      -0.337763        -9.1910
  64   2.0000      -0.331288        -9.0148
  65   2.0000      -0.316839        -8.6216
  66   2.0000      -0.304375        -8.2825
  67   0.0000       0.043820         1.1924
  68   0.0000       0.047921         1.3040
  69   0.0000       0.112697         3.0667
  70   0.0000       0.117882         3.2077
  71   0.0000       0.136636         3.7181

MULLIKEN ATOMIC CHARGES
-----------------------
   0 S :    0.122209
   1 C :   -0.125895
   2 C :   -0.074107
   3 C :    0.080258
   4 C :   -0.181808
   5 H :   -0.004510
   6 C :    0.020385
   7 H :    0.040277
   8 H :    0.007141
   9 C :   -0.039672
  10 H :    0.021286
  11 H :    0.028218
  12 C :   -0.052198
  13 H :    0.028174
  14 H :    0.041230
  15 H :    0.028009
  16 S :    0.110969
  17 C :   -0.097095
  18 C :   -0.036486
  19 C :   -0.037310
  20 C :   -0.186154
  21 H :    0.021756
  22 C :    0.131535
  23 H :    0.036028
  24 H :   -0.014590
  25 C :   -0.072542
  26 H :    0.019227
  27 H :    0.013951
  28 C :   -0.047931
  29 H :    0.041407
  30 H :    0.038643
  31 H :    0.029108
  32 H :    0.054573
  33 H :    0.055915
Sum of atomic charges:   -0.0000000

LOEWDIN ATOMIC CHARGES
----------------------
   0 S :    0.414749
   1 C :   -0.206224
   2 C :   -0.068132
   3 C :   -0.048632
   4 C :   -0.195124
   5 H :    0.025645
   6 C :   -0.039362
   7 H :    0.040616
   8 H :    0.022032
   9 C :   -0.036153
  10 H :    0.017883
  11 H :    0.029525
  12 C :   -0.068580
  13 H :    0.025989
  14 H :    0.025304
  15 H :    0.025289
  16 S :    0.417654
  17 C :   -0.184227
  18 C :   -0.077561
  19 C :   -0.048480
  20 C :   -0.212165
  21 H :    0.034996
  22 C :   -0.041654
  23 H :    0.040100
  24 H :    0.025433
  25 C :   -0.045156
  26 H :    0.019621
  27 H :    0.029538
  28 C :   -0.063720
  29 H :    0.023435
  30 H :    0.036139
  31 H :    0.022026
  32 H :    0.028147
  33 H :    0.031048

  Mayer bond orders larger than 0.100000
B(  0-S ,  1-C ) :   1.1608 B(  0-S ,  4-C ) :   1.1533 B(  1-C ,  2-C ) :   1.5790
B(  1-C ,  4-C ) :   0.1001 B(  1-C , 32-H ) :   0.9691 B(  2-C ,  3-C ) :   1.2502
B(  2-C ,  6-C ) :   1.0157 B(  3-C ,  4-C ) :   1.5792 B(  3-C ,  5-H ) :   0.9995
B(  4-C , 20-C ) :   1.0369 B(  6-C ,  7-H ) :   0.9461 B(  6-C ,  8-H ) :   0.9418
B(  6-C ,  9-C ) :   1.0776 B(  9-C , 10-H ) :   0.9538 B(  9-C , 11-H ) :   0.9520
B(  9-C , 12-C ) :   1.0847 B( 12-C , 13-H ) :   0.9727 B( 12-C , 14-H ) :   0.9704
B( 12-C , 15-H ) :   0.9710 B( 16-S , 17-C ) :   1.1600 B( 16-S , 20-C ) :   1.1641
B( 17-C , 18-C ) :   1.6224 B( 17-C , 33-H ) :   0.9641 B( 18-C , 19-C ) :   1.2491
B( 18-C , 21-H ) :   0.9845 B( 19-C , 20-C ) :   1.5457 B( 19-C , 22-C ) :   1.0561
B( 22-C , 23-H ) :   0.9152 B( 22-C , 24-H ) :   0.9136 B( 22-C , 25-C ) :   1.0837
B( 25-C , 26-H ) :   0.9547 B( 25-C , 27-H ) :   0.9441 B( 25-C , 28-C ) :   1.0662
B( 28-C , 29-H ) :   0.9773 B( 28-C , 30-H ) :   0.9726 B( 28-C , 31-H ) :   0.9753

Dispersion correction           -0.015174954
FINAL SINGLE POINT ENERGY     -1339.876973581251

DIPOLE MOMENT
-------------
                                X             Y             Z
Electronic contribution:     -8.90404     -16.35418      -9.84454
Nuclear contribution   :      9.05549      16.52195      10.20106
                        -----------------------------------------
Total Dipole Moment    :      0.15146       0.16777       0.35652
                        -----------------------------------------
Magnitude (a.u.)       :      0.42213
Magnitude (Debye)      :      1.07297

Rotational constants in cm-1:     0.022484     0.008091     0.007001
Rotational constants in MHz :   674.066064   242.547150   209.892648

                             ****ORCA TERMINATED NORMALLY****
TOTAL RUN TIME: 0 days 0 hours 0 minutes 28 seconds 696 msec
