                         Program Version 4.2.1 -  RELEASE  -
|  1> ! wB97X-D3 SP def2-SVP
|  2> %pal
|  3> nprocs 16
|  4> end
|  5>
|  6> * xyz 0 1
|  7> S 	 -100.637 	 43.0847 	 129.597
|  8> C 	 -98.9896 	 42.6396 	 129.997
|  9> C 	 -98.2895 	 42.2838 	 128.879
| 10> C 	 -99.085 	 42.3465 	 127.668
| 11> C 	 -100.415 	 42.6214 	 127.895
| 12> H 	 -98.7127 	 42.0821 	 126.713
| 13> C 	 -96.8457 	 41.8841 	 128.863
| 14> H 	 -96.3475 	 41.4816 	 129.766
| 15> H 	 -96.3605 	 42.8355 	 128.639
| 16> C 	 -96.4755 	 40.9655 	 127.589
| 17> H 	 -97.177 	 40.1031 	 127.503
| 18> H 	 -96.561 	 41.5314 	 126.679
| 19> C 	 -95.0592 	 40.4623 	 127.725
| 20> H 	 -94.8324 	 39.9681 	 128.683
| 21> H 	 -94.8063 	 39.6362 	 127.012
| 22> H 	 -94.2915 	 41.2671 	 127.594
| 23> S 	 -102.662 	 44.0716 	 127.016
| 24> C 	 -103.245 	 43.7275 	 125.408
| 25> C 	 -102.79 	 42.5424 	 124.955
| 26> C 	 -101.714 	 41.9961 	 125.763
| 27> C 	 -101.46 	 42.735 	 126.906
| 28> H 	 -103.257 	 42.1036 	 124.041
| 29> C 	 -101.02 	 40.692 	 125.426
| 30> H 	 -101.841 	 39.9839 	 125.154
| 31> H 	 -100.585 	 40.3174 	 126.376
| 32> C 	 -99.9828 	 40.6783 	 124.249
| 33> H 	 -99.2198 	 41.4438 	 124.467
| 34> H 	 -100.555 	 40.8343 	 123.322
| 35> C 	 -99.157 	 39.4135 	 123.936
| 36> H 	 -99.9196 	 38.547 	 123.813
| 37> H 	 -98.5556 	 39.1708 	 124.857
| 38> H 	 -98.623 	 39.3904 	 123.036
| 39> H 	 -98.5678 	 42.7265 	 130.998
| 40> H 	 -104.104 	 44.3521 	 125.029
| 41> *
| 42>
| 43>                          ****END OF INPUT****

CARTESIAN COORDINATES (ANGSTROEM)
---------------------------------
  S    -100.637000   43.084700  129.597000
  C    -98.989600   42.639600  129.997000
  C    -98.289500   42.283800  128.879000
  C    -99.085000   42.346500  127.668000
  C    -100.415000   42.621400  127.895000
  H    -98.712700   42.082100  126.713000
  C    -96.845700   41.884100  128.863000
  H    -96.347500   41.481600  129.766000
  H    -96.360500   42.835500  128.639000
  C    -96.475500   40.965500  127.589000
  H    -97.177000   40.103100  127.503000
  H    -96.561000   41.531400  126.679000
  C    -95.059200   40.462300  127.725000
  H    -94.832400   39.968100  128.683000
  H    -94.806300   39.636200  127.012000
  H    -94.291500   41.267100  127.594000
  S    -102.662000   44.071600  127.016000
  C    -103.245000   43.727500  125.408000
  C    -102.790000   42.542400  124.955000
  C    -101.714000   41.996100  125.763000
  C    -101.460000   42.735000  126.906000
  H    -103.257000   42.103600  124.041000
  C    -101.020000   40.692000  125.426000
  H    -101.841000   39.983900  125.154000
  H    -100.585000   40.317400  126.376000
  C    -99.982800   40.678300  124.249000
  H    -99.219800   41.443800  124.467000
  H    -100.555000   40.834300  123.322000
  C    -99.157000   39.413500  123.936000
  H    -99.919600   38.547000  123.813000
  H    -98.555600   39.170800  124.857000
  H    -98.623000   39.390400  123.036000
  H    -98.567800   42.726500  130.998000
  H    -104.104000   44.352100  125.029000

 Total Charge           Charge          ....    0
 Multiplicity           Mult            ....    1
 Number of Electrons    NEL             ....  134
 Basis Dimension        Dim             ....  322

ORBITAL ENERGIES
----------------

  NO   OCC          E(Eh)            E(eV)
   0   2.0000     -88.963407     -2420.8174
   1   2.0000     -88.960857     -2420.7480
   2   2.0000     -10.332930      -281.1733
   3   2.0000     -10.330967      -281.1199
   4   2.0000     -10.321301      -280.8569
   5   2.0000     -10.312473      -280.6167
   6   2.0000     -10.309120      -280.5254
   7   2.0000     -10.302152      -280.3358
   8   2.0000     -10.299778      -280.2712
   9   2.0000     -10.299149      -280.2541
  10   2.0000     -10.298947      -280.2486
  11   2.0000     -10.295280      -280.1488
  12   2.0000     -10.294454      -280.1263
  13   2.0000     -10.294379      -280.1243
  14   2.0000     -10.287816      -279.9457
  15   2.0000     -10.285729      -279.8889
  16   2.0000      -8.077881      -219.8103
  17   2.0000      -8.075637      -219.7493
  18   2.0000      -6.036585      -164.2638
  19   2.0000      -6.034279      -164.2011
  20   2.0000      -6.032487      -164.1523
  21   2.0000      -6.030270      -164.0920
  22   2.0000      -6.028397      -164.0410
  23   2.0000      -6.026119      -163.9790
  24   2.0000      -1.004780       -27.3415
  25   2.0000      -0.983134       -26.7524
  26   2.0000      -0.909193       -24.7404
  27   2.0000      -0.903202       -24.5774
  28   2.0000      -0.874136       -23.7864
  29   2.0000      -0.852099       -23.1868
  30   2.0000      -0.843802       -22.9610
  31   2.0000      -0.818007       -22.2591
  32   2.0000      -0.780371       -21.2350
  33   2.0000      -0.768292       -20.9063
  34   2.0000      -0.713649       -19.4194
  35   2.0000      -0.695330       -18.9209
  36   2.0000      -0.689813       -18.7708
  37   2.0000      -0.658122       -17.9084
  38   2.0000      -0.638558       -17.3761
  39   2.0000      -0.623939       -16.9782
  40   2.0000      -0.593019       -16.1369
  41   2.0000      -0.570408       -15.5216
  42   2.0000      -0.567594       -15.4450
  43   2.0000      -0.562466       -15.3055
  44   2.0000      -0.528388       -14.3782
  45   2.0000      -0.521460       -14.1896
  46   2.0000      -0.518821       -14.1178
  47   2.0000      -0.514045       -13.9879
  48   2.0000      -0.505765       -13.7626
  49   2.0000      -0.498510       -13.5651
  50   2.0000      -0.487657       -13.2698
  51   2.0000      -0.480454       -13.0738
  52   2.0000      -0.473750       -12.8914
  53   2.0000      -0.466661       -12.6985
  54   2.0000      -0.463807       -12.6208
  55   2.0000      -0.452367       -12.3095
  56   2.0000      -0.450216       -12.2510
  57   2.0000      -0.434285       -11.8175
  58   2.0000      -0.429388       -11.6842
  59   2.0000      -0.422440       -11.4952
  60   2.0000      -0.420583       -11.4446
  61   2.0000      -0.412034       -11.2120
  62   2.0000      -0.408008       -11.1025
  63   2.0000      -0.358184        -9.7467
  64   2.0000      -0.329888        -8.9767
  65   2.0000      -0.324927        -8.8417
  66   2.0000      -0.289094        -7.8666
  67   0.0000       0.024317         0.6617
  68   0.0000       0.073253         1.9933
  69   0.0000       0.106421         2.8959
  70   0.0000       0.115691         3.1481
  71   0.0000       0.127734         3.4758

MULLIKEN ATOMIC CHARGES
-----------------------
   0 S :    0.091935
   1 C :   -0.129051
   2 C :   -0.065000
   3 C :    0.040642
   4 C :   -0.121795
   5 H :   -0.024231
   6 C :    0.041993
   7 H :    0.038274
   8 H :    0.043848
   9 C :   -0.115017
  10 H :    0.047565
  11 H :    0.042143
  12 C :   -0.064635
  13 H :    0.028590
  14 H :    0.036438
  15 H :    0.037481
  16 S :    0.082328
  17 C :   -0.113962
  18 C :   -0.023992
  19 C :   -0.042101
  20 C :   -0.128029
  21 H :    0.037178
  22 C :    0.025210
  23 H :    0.032516
  24 H :    0.035879
  25 C :   -0.082716
  26 H :    0.039936
  27 H :    0.032753
  28 C :   -0.064615
  29 H :    0.026146
  30 H :    0.040233
  31 H :    0.041146
  32 H :    0.050293
  33 H :    0.082615
Sum of atomic charges:   -0.0000000

LOEWDIN ATOMIC CHARGES
----------------------
   0 S :    0.382877
   1 C :   -0.196468
   2 C :   -0.063815
   3 C :   -0.055094
   4 C :   -0.175723
   5 H :    0.020925
   6 C :   -0.032228
   7 H :    0.033643
   8 H :    0.040286
   9 C :   -0.043696
  10 H :    0.026697
  11 H :    0.021597
  12 C :   -0.076718
  13 H :    0.024217
  14 H :    0.030654
  15 H :    0.028835
  16 S :    0.371541
  17 C :   -0.182709
  18 C :   -0.078993
  19 C :   -0.054037
  20 C :   -0.178461
  21 H :    0.041528
  22 C :   -0.038012
  23 H :    0.036182
  24 H :    0.031773
  25 C :   -0.045859
  26 H :    0.021724
  27 H :    0.026355
  28 C :   -0.069639
  29 H :    0.030052
  30 H :    0.028634
  31 H :    0.020228
  32 H :    0.032249
  33 H :    0.041452

  Mayer bond orders larger than 0.100000
B(  0-S ,  1-C ) :   1.1173 B(  0-S ,  4-C ) :   1.1328 B(  1-C ,  2-C ) :   1.6368
B(  1-C , 32-H ) :   0.9718 B(  2-C ,  3-C ) :   1.2226 B(  2-C ,  6-C ) :   1.0119
B(  3-C ,  4-C ) :   1.5683 B(  3-C ,  5-H ) :   0.9920 B(  4-C , 20-C ) :   1.0812
B(  6-C ,  7-H ) :   0.9605 B(  6-C ,  8-H ) :   0.9256 B(  6-C ,  9-C ) :   1.0575
B(  9-C , 10-H ) :   0.9623 B(  9-C , 11-H ) :   0.9437 B(  9-C , 12-C ) :   1.0912
B( 12-C , 13-H ) :   0.9732 B( 12-C , 14-H ) :   0.9717 B( 12-C , 15-H ) :   0.9730
B( 16-S , 17-C ) :   1.1475 B( 16-S , 20-C ) :   1.1059 B( 17-C , 18-C ) :   1.6384
B( 17-C , 33-H ) :   0.9579 B( 18-C , 19-C ) :   1.1976 B( 18-C , 21-H ) :   0.9864
B( 19-C , 20-C ) :   1.6210 B( 19-C , 22-C ) :   1.0517 B( 22-C , 23-H ) :   0.9322
B( 22-C , 24-H ) :   0.9352 B( 22-C , 25-C ) :   1.0526 B( 25-C , 26-H ) :   0.9557
B( 25-C , 27-H ) :   0.9542 B( 25-C , 28-C ) :   1.0828 B( 28-C , 29-H ) :   0.9725
B( 28-C , 30-H ) :   0.9743 B( 28-C , 31-H ) :   0.9753

Dispersion correction           -0.014446370
FINAL SINGLE POINT ENERGY     -1339.879824661527

DIPOLE MOMENT
-------------
                                X             Y             Z
Electronic contribution:    -24.67746      19.91801      13.76417
Nuclear contribution   :     25.14236     -20.32436     -14.21505
                        -----------------------------------------
Total Dipole Moment    :      0.46490      -0.40635      -0.45089
                        -----------------------------------------
Magnitude (a.u.)       :      0.76456
Magnitude (Debye)      :      1.94336

Rotational constants in cm-1:     0.016560     0.010026     0.006537
Rotational constants in MHz :   496.445725   300.562171   195.981036

                             ****ORCA TERMINATED NORMALLY****
TOTAL RUN TIME: 0 days 0 hours 0 minutes 34 seconds 947 msec
