                         Program Version 4.2.1 -  RELEASE  -
|  1> ! wB97X-D3 SP def2-SVP
|  2> %pal
|  3> nprocs 16
|  4> end
|  5>
|  6> * xyz 0 1
|  7> S 	 -48.061 	 23.7375 	 83.0827
|  8> C 	 -47.8753 	 24.2842 	 84.7158
|  9> C 	 -47.6918 	 23.2495 	 85.5836
| 10> C 	 -47.6819 	 21.9956 	 84.9443
| 11> C 	 -47.758 	 22.0834 	 83.5425
| 12> H 	 -47.6002 	 21.0341 	 85.4766
| 13> C 	 -47.671 	 23.4544 	 87.0438
| 14> H 	 -48.0216 	 24.422 	 87.4226
| 15> H 	 -46.6819 	 23.3882 	 87.4361
| 16> C 	 -48.4604 	 22.4621 	 87.9486
| 17> H 	 -49.4715 	 22.4338 	 87.4934
| 18> H 	 -47.9656 	 21.5762 	 87.6897
| 19> C 	 -48.4842 	 22.8409 	 89.4259
| 20> H 	 -49.0732 	 23.7587 	 89.6453
| 21> H 	 -48.9267 	 22.0443 	 89.9966
| 22> H 	 -47.4771 	 23.0002 	 89.7765
| 23> S 	 -48.7894 	 19.6892 	 82.8209
| 24> C 	 -47.921 	 18.7589 	 81.6478
| 25> C 	 -46.8363 	 19.4004 	 81.1641
| 26> C 	 -46.5752 	 20.6522 	 81.8198
| 27> C 	 -47.6119 	 20.9598 	 82.6725
| 28> H 	 -46.2163 	 18.9044 	 80.4711
| 29> C 	 -45.2952 	 21.4827 	 81.6142
| 30> H 	 -45.4477 	 22.449 	 82.039
| 31> H 	 -45.1142 	 21.7026 	 80.5967
| 32> C 	 -44.094 	 20.7104 	 82.156
| 33> H 	 -44.018 	 19.6511 	 81.7343
| 34> H 	 -44.2162 	 20.6463 	 83.2249
| 35> C 	 -42.7921 	 21.3998 	 81.6094
| 36> H 	 -42.6285 	 21.268 	 80.569
| 37> H 	 -41.875 	 21.0847 	 82.0626
| 38> H 	 -42.9172 	 22.4775 	 81.7983
| 39> H 	 -48.0099 	 25.3251 	 85.0226
| 40> H 	 -48.3097 	 17.789 	 81.2796
| 41> *
| 42>
| 43>                          ****END OF INPUT****

CARTESIAN COORDINATES (ANGSTROEM)
---------------------------------
  S    -48.061000   23.737500   83.082700
  C    -47.875300   24.284200   84.715800
  C    -47.691800   23.249500   85.583600
  C    -47.681900   21.995600   84.944300
  C    -47.758000   22.083400   83.542500
  H    -47.600200   21.034100   85.476600
  C    -47.671000   23.454400   87.043800
  H    -48.021600   24.422000   87.422600
  H    -46.681900   23.388200   87.436100
  C    -48.460400   22.462100   87.948600
  H    -49.471500   22.433800   87.493400
  H    -47.965600   21.576200   87.689700
  C    -48.484200   22.840900   89.425900
  H    -49.073200   23.758700   89.645300
  H    -48.926700   22.044300   89.996600
  H    -47.477100   23.000200   89.776500
  S    -48.789400   19.689200   82.820900
  C    -47.921000   18.758900   81.647800
  C    -46.836300   19.400400   81.164100
  C    -46.575200   20.652200   81.819800
  C    -47.611900   20.959800   82.672500
  H    -46.216300   18.904400   80.471100
  C    -45.295200   21.482700   81.614200
  H    -45.447700   22.449000   82.039000
  H    -45.114200   21.702600   80.596700
  C    -44.094000   20.710400   82.156000
  H    -44.018000   19.651100   81.734300
  H    -44.216200   20.646300   83.224900
  C    -42.792100   21.399800   81.609400
  H    -42.628500   21.268000   80.569000
  H    -41.875000   21.084700   82.062600
  H    -42.917200   22.477500   81.798300
  H    -48.009900   25.325100   85.022600
  H    -48.309700   17.789000   81.279600

 Total Charge           Charge          ....    0
 Multiplicity           Mult            ....    1
 Number of Electrons    NEL             ....  134
 Basis Dimension        Dim             ....  322

ORBITAL ENERGIES
----------------

  NO   OCC          E(Eh)            E(eV)
   0   2.0000     -88.968325     -2420.9512
   1   2.0000     -88.962202     -2420.7846
   2   2.0000     -10.326172      -280.9894
   3   2.0000     -10.318342      -280.7764
   4   2.0000     -10.313172      -280.6357
   5   2.0000     -10.309885      -280.5462
   6   2.0000     -10.301289      -280.3123
   7   2.0000     -10.294669      -280.1322
   8   2.0000     -10.294073      -280.1160
   9   2.0000     -10.290725      -280.0249
  10   2.0000     -10.286874      -279.9201
  11   2.0000     -10.284693      -279.8607
  12   2.0000     -10.282584      -279.8033
  13   2.0000     -10.282316      -279.7960
  14   2.0000     -10.281577      -279.7759
  15   2.0000     -10.274232      -279.5761
  16   2.0000      -8.083000      -219.9496
  17   2.0000      -8.077801      -219.8081
  18   2.0000      -6.041405      -164.3950
  19   2.0000      -6.037430      -164.2868
  20   2.0000      -6.036226      -164.2541
  21   2.0000      -6.033970      -164.1927
  22   2.0000      -6.032232      -164.1454
  23   2.0000      -6.028559      -164.0454
  24   2.0000      -1.011476       -27.5237
  25   2.0000      -0.989492       -26.9255
  26   2.0000      -0.915165       -24.9029
  27   2.0000      -0.908135       -24.7116
  28   2.0000      -0.874728       -23.8026
  29   2.0000      -0.851896       -23.1813
  30   2.0000      -0.845233       -23.0000
  31   2.0000      -0.813157       -22.1271
  32   2.0000      -0.784494       -21.3472
  33   2.0000      -0.772377       -21.0174
  34   2.0000      -0.711977       -19.3739
  35   2.0000      -0.701068       -19.0770
  36   2.0000      -0.689080       -18.7508
  37   2.0000      -0.661944       -18.0124
  38   2.0000      -0.637895       -17.3580
  39   2.0000      -0.623082       -16.9549
  40   2.0000      -0.601185       -16.3591
  41   2.0000      -0.574707       -15.6386
  42   2.0000      -0.567067       -15.4307
  43   2.0000      -0.559811       -15.2332
  44   2.0000      -0.523096       -14.2342
  45   2.0000      -0.522384       -14.2148
  46   2.0000      -0.517167       -14.0728
  47   2.0000      -0.509662       -13.8686
  48   2.0000      -0.506156       -13.7732
  49   2.0000      -0.501386       -13.6434
  50   2.0000      -0.492674       -13.4064
  51   2.0000      -0.478230       -13.0133
  52   2.0000      -0.477237       -12.9863
  53   2.0000      -0.464372       -12.6362
  54   2.0000      -0.459648       -12.5076
  55   2.0000      -0.455485       -12.3944
  56   2.0000      -0.449237       -12.2244
  57   2.0000      -0.439142       -11.9497
  58   2.0000      -0.434933       -11.8351
  59   2.0000      -0.430155       -11.7051
  60   2.0000      -0.423499       -11.5240
  61   2.0000      -0.410212       -11.1624
  62   2.0000      -0.406525       -11.0621
  63   2.0000      -0.338424        -9.2090
  64   2.0000      -0.334496        -9.1021
  65   2.0000      -0.326667        -8.8891
  66   2.0000      -0.297796        -8.1034
  67   0.0000       0.039917         1.0862
  68   0.0000       0.068646         1.8680
  69   0.0000       0.115258         3.1363
  70   0.0000       0.124364         3.3841
  71   0.0000       0.133989         3.6460

MULLIKEN ATOMIC CHARGES
-----------------------
   0 S :    0.126914
   1 C :   -0.142960
   2 C :   -0.021897
   3 C :    0.005339
   4 C :   -0.171670
   5 H :    0.027032
   6 C :    0.046784
   7 H :    0.006631
   8 H :    0.018121
   9 C :   -0.104084
  10 H :    0.036928
  11 H :    0.019190
  12 C :   -0.025570
  13 H :    0.040786
  14 H :    0.037321
  15 H :    0.024795
  16 S :    0.114522
  17 C :   -0.104822
  18 C :   -0.008424
  19 C :   -0.035303
  20 C :   -0.188501
  21 H :   -0.000411
  22 C :    0.139770
  23 H :    0.013738
  24 H :    0.009074
  25 C :   -0.113083
  26 H :    0.043087
  27 H :    0.038743
  28 C :   -0.030986
  29 H :    0.027787
  30 H :    0.026373
  31 H :    0.029044
  32 H :    0.051566
  33 H :    0.064166
Sum of atomic charges:   -0.0000000

LOEWDIN ATOMIC CHARGES
----------------------
   0 S :    0.423644
   1 C :   -0.200689
   2 C :   -0.071150
   3 C :   -0.062567
   4 C :   -0.203350
   5 H :    0.034098
   6 C :   -0.034862
   7 H :    0.024325
   8 H :    0.024799
   9 C :   -0.037759
  10 H :    0.026750
  11 H :    0.011491
  12 C :   -0.061328
  13 H :    0.032457
  14 H :    0.028749
  15 H :    0.023645
  16 S :    0.413546
  17 C :   -0.189493
  18 C :   -0.067091
  19 C :   -0.045164
  20 C :   -0.208746
  21 H :    0.024060
  22 C :   -0.023456
  23 H :    0.023645
  24 H :    0.024621
  25 C :   -0.034996
  26 H :    0.030718
  27 H :    0.024396
  28 C :   -0.064476
  29 H :    0.020914
  30 H :    0.021214
  31 H :    0.026470
  32 H :    0.031698
  33 H :    0.033884

  Mayer bond orders larger than 0.100000
B(  0-S ,  1-C ) :   1.1453 B(  0-S ,  4-C ) :   1.1632 B(  1-C ,  2-C ) :   1.5908
B(  1-C , 32-H ) :   0.9678 B(  2-C ,  3-C ) :   1.2709 B(  2-C ,  6-C ) :   1.0284
B(  3-C ,  4-C ) :   1.5368 B(  3-C ,  5-H ) :   0.9875 B(  4-C , 20-C ) :   1.0334
B(  6-C ,  7-H ) :   0.9515 B(  6-C ,  8-H ) :   0.9250 B(  6-C ,  9-C ) :   1.0498
B(  9-C , 10-H ) :   0.9618 B(  9-C , 11-H ) :   0.9532 B(  9-C , 12-C ) :   1.0885
B( 12-C , 13-H ) :   0.9721 B( 12-C , 14-H ) :   0.9722 B( 12-C , 15-H ) :   0.9726
B( 16-S , 17-C ) :   1.1470 B( 16-S , 20-C ) :   1.1431 B( 17-C , 18-C ) :   1.6376
B( 17-C , 33-H ) :   0.9616 B( 18-C , 19-C ) :   1.2084 B( 18-C , 21-H ) :   0.9969
B( 19-C , 20-C ) :   1.6208 B( 19-C , 22-C ) :   1.0439 B( 22-C , 23-H ) :   0.9168
B( 22-C , 24-H ) :   0.9352 B( 22-C , 25-C ) :   1.0498 B( 25-C , 26-H ) :   0.9631
B( 25-C , 27-H ) :   0.9581 B( 25-C , 28-C ) :   1.0656 B( 28-C , 29-H ) :   0.9766
B( 28-C , 30-H ) :   0.9750 B( 28-C , 31-H ) :   0.9743

Dispersion correction           -0.013855839
FINAL SINGLE POINT ENERGY     -1339.884339236115

DIPOLE MOMENT
-------------
                                X             Y             Z
Electronic contribution:    -15.31837      -2.13140     -14.61601
Nuclear contribution   :     15.68446       2.04478      14.88218
                        -----------------------------------------
Total Dipole Moment    :      0.36609      -0.08662       0.26617
                        -----------------------------------------
Magnitude (a.u.)       :      0.46084
Magnitude (Debye)      :      1.17135

Rotational constants in cm-1:     0.018425     0.007747     0.006876
Rotational constants in MHz :   552.365932   232.254001   206.151705

                             ****ORCA TERMINATED NORMALLY****
TOTAL RUN TIME: 0 days 0 hours 0 minutes 29 seconds 502 msec
