                         Program Version 4.2.1 -  RELEASE  -
|  1> ! wB97X-D3 SP def2-SVP
|  2> %pal
|  3> nprocs 16
|  4> end
|  5>
|  6> * xyz 0 1
|  7> S 	 -7.70816 	 44.0545 	 41.2251
|  8> C 	 -6.41268 	 43.4411 	 40.275
|  9> C 	 -5.38915 	 42.9247 	 41.0293
| 10> C 	 -5.74543 	 43.0374 	 42.4032
| 11> C 	 -6.95402 	 43.6141 	 42.708
| 12> H 	 -5.22032 	 42.6448 	 43.2889
| 13> C 	 -4.18068 	 42.3345 	 40.4909
| 14> H 	 -4.17506 	 42.3497 	 39.3675
| 15> H 	 -4.2259 	 41.2413 	 40.6824
| 16> C 	 -2.85674 	 42.945 	 40.9458
| 17> H 	 -2.88047 	 43.0216 	 42.0271
| 18> H 	 -2.00481 	 42.3152 	 40.6443
| 19> C 	 -2.58407 	 44.302 	 40.3362
| 20> H 	 -3.58243 	 44.7667 	 40.2385
| 21> H 	 -1.96049 	 44.8519 	 41.0328
| 22> H 	 -2.18086 	 44.1499 	 39.3104
| 23> S 	 -9.19184 	 42.9077 	 44.2263
| 24> C 	 -9.07926 	 42.9753 	 45.9273
| 25> C 	 -7.90975 	 43.5614 	 46.3696
| 26> C 	 -7.05099 	 43.928 	 45.304
| 27> C 	 -7.56631 	 43.6018 	 44.0683
| 28> H 	 -7.73509 	 43.7416 	 47.4337
| 29> C 	 -5.72716 	 44.599 	 45.5706
| 30> H 	 -6.06738 	 45.4409 	 46.2496
| 31> H 	 -5.32791 	 45.0723 	 44.6785
| 32> C 	 -4.65579 	 43.6828 	 46.2373
| 33> H 	 -4.1106 	 43.0601 	 45.585
| 34> H 	 -5.14186 	 42.9055 	 46.8143
| 35> C 	 -3.66459 	 44.5699 	 46.9369
| 36> H 	 -2.90079 	 43.8763 	 47.4481
| 37> H 	 -4.12302 	 45.1961 	 47.75
| 38> H 	 -3.00483 	 45.1699 	 46.2733
| 39> H 	 -6.44048 	 43.6513 	 39.2669
| 40> H 	 -9.94468 	 42.8127 	 46.5561
| 41> *
| 42>
| 43>                          ****END OF INPUT****

CARTESIAN COORDINATES (ANGSTROEM)
---------------------------------
  S     -7.708160   44.054500   41.225100
  C     -6.412680   43.441100   40.275000
  C     -5.389150   42.924700   41.029300
  C     -5.745430   43.037400   42.403200
  C     -6.954020   43.614100   42.708000
  H     -5.220320   42.644800   43.288900
  C     -4.180680   42.334500   40.490900
  H     -4.175060   42.349700   39.367500
  H     -4.225900   41.241300   40.682400
  C     -2.856740   42.945000   40.945800
  H     -2.880470   43.021600   42.027100
  H     -2.004810   42.315200   40.644300
  C     -2.584070   44.302000   40.336200
  H     -3.582430   44.766700   40.238500
  H     -1.960490   44.851900   41.032800
  H     -2.180860   44.149900   39.310400
  S     -9.191840   42.907700   44.226300
  C     -9.079260   42.975300   45.927300
  C     -7.909750   43.561400   46.369600
  C     -7.050990   43.928000   45.304000
  C     -7.566310   43.601800   44.068300
  H     -7.735090   43.741600   47.433700
  C     -5.727160   44.599000   45.570600
  H     -6.067380   45.440900   46.249600
  H     -5.327910   45.072300   44.678500
  C     -4.655790   43.682800   46.237300
  H     -4.110600   43.060100   45.585000
  H     -5.141860   42.905500   46.814300
  C     -3.664590   44.569900   46.936900
  H     -2.900790   43.876300   47.448100
  H     -4.123020   45.196100   47.750000
  H     -3.004830   45.169900   46.273300
  H     -6.440480   43.651300   39.266900
  H     -9.944680   42.812700   46.556100

 Total Charge           Charge          ....    0
 Multiplicity           Mult            ....    1
 Number of Electrons    NEL             ....  134
 Basis Dimension        Dim             ....  322

ORBITAL ENERGIES
----------------

  NO   OCC          E(Eh)            E(eV)
   0   2.0000     -88.963992     -2420.8333
   1   2.0000     -88.963341     -2420.8156
   2   2.0000     -10.328159      -281.0435
   3   2.0000     -10.326944      -281.0104
   4   2.0000     -10.314314      -280.6668
   5   2.0000     -10.307061      -280.4694
   6   2.0000     -10.300489      -280.2905
   7   2.0000     -10.299876      -280.2739
   8   2.0000     -10.295239      -280.1477
   9   2.0000     -10.293114      -280.0899
  10   2.0000     -10.292751      -280.0800
  11   2.0000     -10.291850      -280.0555
  12   2.0000     -10.289585      -279.9939
  13   2.0000     -10.285792      -279.8906
  14   2.0000     -10.283551      -279.8296
  15   2.0000     -10.277055      -279.6529
  16   2.0000      -8.079399      -219.8516
  17   2.0000      -8.079356      -219.8504
  18   2.0000      -6.037775      -164.2962
  19   2.0000      -6.037738      -164.2952
  20   2.0000      -6.033854      -164.1895
  21   2.0000      -6.033569      -164.1818
  22   2.0000      -6.030313      -164.0932
  23   2.0000      -6.030208      -164.0903
  24   2.0000      -1.012216       -27.5438
  25   2.0000      -0.992647       -27.0113
  26   2.0000      -0.921124       -25.0651
  27   2.0000      -0.912182       -24.8217
  28   2.0000      -0.870530       -23.6883
  29   2.0000      -0.857122       -23.3235
  30   2.0000      -0.849380       -23.1128
  31   2.0000      -0.815489       -22.1906
  32   2.0000      -0.781436       -21.2640
  33   2.0000      -0.770787       -20.9742
  34   2.0000      -0.708777       -19.2868
  35   2.0000      -0.700414       -19.0592
  36   2.0000      -0.692556       -18.8454
  37   2.0000      -0.660223       -17.9656
  38   2.0000      -0.647923       -17.6309
  39   2.0000      -0.622924       -16.9506
  40   2.0000      -0.600169       -16.3314
  41   2.0000      -0.574962       -15.6455
  42   2.0000      -0.561941       -15.2912
  43   2.0000      -0.557440       -15.1687
  44   2.0000      -0.541854       -14.7446
  45   2.0000      -0.525710       -14.3053
  46   2.0000      -0.519170       -14.1273
  47   2.0000      -0.516094       -14.0436
  48   2.0000      -0.509347       -13.8600
  49   2.0000      -0.496601       -13.5132
  50   2.0000      -0.488386       -13.2897
  51   2.0000      -0.478848       -13.0301
  52   2.0000      -0.471525       -12.8308
  53   2.0000      -0.466681       -12.6990
  54   2.0000      -0.460924       -12.5424
  55   2.0000      -0.457246       -12.4423
  56   2.0000      -0.440877       -11.9969
  57   2.0000      -0.440267       -11.9803
  58   2.0000      -0.433325       -11.7914
  59   2.0000      -0.426420       -11.6035
  60   2.0000      -0.423539       -11.5251
  61   2.0000      -0.412352       -11.2207
  62   2.0000      -0.404954       -11.0194
  63   2.0000      -0.349582        -9.5126
  64   2.0000      -0.331969        -9.0333
  65   2.0000      -0.329615        -8.9693
  66   2.0000      -0.294577        -8.0158
  67   0.0000       0.035208         0.9581
  68   0.0000       0.074530         2.0281
  69   0.0000       0.120937         3.2909
  70   0.0000       0.123877         3.3709
  71   0.0000       0.125581         3.4172

MULLIKEN ATOMIC CHARGES
-----------------------
   0 S :    0.103991
   1 C :   -0.106098
   2 C :   -0.046446
   3 C :    0.006114
   4 C :   -0.153177
   5 H :    0.009409
   6 C :    0.039978
   7 H :    0.016088
   8 H :    0.045035
   9 C :   -0.078562
  10 H :    0.024468
  11 H :    0.030948
  12 C :   -0.049075
  13 H :    0.033856
  14 H :    0.040338
  15 H :    0.038077
  16 S :    0.108168
  17 C :   -0.089886
  18 C :   -0.045709
  19 C :   -0.037554
  20 C :   -0.154105
  21 H :    0.024072
  22 C :    0.035471
  23 H :    0.043346
  24 H :    0.029783
  25 C :   -0.027647
  26 H :    0.014820
  27 H :    0.024969
  28 C :   -0.088053
  29 H :    0.032326
  30 H :    0.046066
  31 H :    0.044108
  32 H :    0.024412
  33 H :    0.060468
Sum of atomic charges:    0.0000000

LOEWDIN ATOMIC CHARGES
----------------------
   0 S :    0.424691
   1 C :   -0.184676
   2 C :   -0.069543
   3 C :   -0.066457
   4 C :   -0.208370
   5 H :    0.031381
   6 C :   -0.042044
   7 H :    0.033099
   8 H :    0.040818
   9 C :   -0.043524
  10 H :    0.018601
  11 H :    0.026078
  12 C :   -0.065822
  13 H :    0.027507
  14 H :    0.027796
  15 H :    0.029253
  16 S :    0.411603
  17 C :   -0.194212
  18 C :   -0.076953
  19 C :   -0.062651
  20 C :   -0.190391
  21 H :    0.034598
  22 C :   -0.030506
  23 H :    0.042244
  24 H :    0.029008
  25 C :   -0.042497
  26 H :    0.019767
  27 H :    0.025547
  28 C :   -0.073118
  29 H :    0.031304
  30 H :    0.028403
  31 H :    0.029942
  32 H :    0.010215
  33 H :    0.028908

  Mayer bond orders larger than 0.100000
B(  0-S ,  1-C ) :   1.1621 B(  0-S ,  4-C ) :   1.1590 B(  1-C ,  2-C ) :   1.5636
B(  1-C , 32-H ) :   0.9799 B(  2-C ,  3-C ) :   1.2377 B(  2-C ,  6-C ) :   1.0481
B(  3-C ,  4-C ) :   1.5776 B(  3-C ,  5-H ) :   0.9890 B(  4-C , 20-C ) :   1.0140
B(  6-C ,  7-H ) :   0.9395 B(  6-C ,  8-H ) :   0.9262 B(  6-C ,  9-C ) :   1.0699
B(  9-C , 10-H ) :   0.9603 B(  9-C , 11-H ) :   0.9551 B(  9-C , 12-C ) :   1.0699
B( 12-C , 13-H ) :   0.9802 B( 12-C , 14-H ) :   0.9735 B( 12-C , 15-H ) :   0.9735
B( 16-S , 17-C ) :   1.1747 B( 16-S , 20-C ) :   1.1354 B( 17-C , 18-C ) :   1.5955
B( 17-C , 33-H ) :   0.9646 B( 18-C , 19-C ) :   1.2436 B( 18-C , 21-H ) :   0.9906
B( 19-C , 20-C ) :   1.6127 B( 19-C , 22-C ) :   1.0355 B( 22-C , 23-H ) :   0.9478
B( 22-C , 24-H ) :   0.9319 B( 22-C , 25-C ) :   1.0423 B( 25-C , 26-H ) :   0.9440
B( 25-C , 27-H ) :   0.9605 B( 25-C , 28-C ) :   1.0803 B( 28-C , 29-H ) :   0.9712
B( 28-C , 30-H ) :   0.9780 B( 28-C , 31-H ) :   0.9725

Dispersion correction           -0.014376933
FINAL SINGLE POINT ENERGY     -1339.886119196839

DIPOLE MOMENT
-------------
                                X             Y             Z
Electronic contribution:    -30.18198      -2.58909      -4.89992
Nuclear contribution   :     30.76845       2.50962       5.13631
                        -----------------------------------------
Total Dipole Moment    :      0.58647      -0.07947       0.23640
                        -----------------------------------------
Magnitude (a.u.)       :      0.63729
Magnitude (Debye)      :      1.61987

Rotational constants in cm-1:     0.016925     0.009861     0.006721
Rotational constants in MHz :   507.385667   295.613308   201.490208

                             ****ORCA TERMINATED NORMALLY****
TOTAL RUN TIME: 0 days 0 hours 0 minutes 34 seconds 940 msec
