                         Program Version 4.2.1 -  RELEASE  -
|  1> ! wB97X-D3 SP def2-SVP
|  2> %pal
|  3> nprocs 16
|  4> end
|  5>
|  6> * xyz 0 1
|  7> S 	 41.2898 	 15.4906 	 83.9031
|  8> C 	 42.1787 	 16.7916 	 84.6901
|  9> C 	 43.4374 	 16.4188 	 85.2038
| 10> C 	 43.6298 	 14.9878 	 85.0208
| 11> C 	 42.6319 	 14.3966 	 84.2479
| 12> H 	 44.4853 	 14.4068 	 85.4305
| 13> C 	 44.3546 	 17.3349 	 86.0187
| 14> H 	 44.0118 	 17.1929 	 87.0375
| 15> H 	 44.058 	 18.3411 	 85.6691
| 16> C 	 45.8296 	 17.1461 	 85.8659
| 17> H 	 46.3338 	 17.9407 	 86.1975
| 18> H 	 46.0485 	 16.262 	 86.4453
| 19> C 	 46.3068 	 16.9194 	 84.3898
| 20> H 	 46.2581 	 15.8421 	 84.2122
| 21> H 	 45.6891 	 17.437 	 83.6358
| 22> H 	 47.3821 	 17.1948 	 84.2846
| 23> S 	 43.3129 	 12.6525 	 82.2615
| 24> C 	 43.0495 	 10.9808 	 82.4373
| 25> C 	 42.6465 	 10.6611 	 83.746
| 26> C 	 42.3866 	 11.7929 	 84.5758
| 27> C 	 42.5733 	 12.9847 	 83.8783
| 28> H 	 42.5867 	 9.61243 	 83.9734
| 29> C 	 41.9914 	 11.7404 	 86.0234
| 30> H 	 41.2525 	 10.9482 	 86.058
| 31> H 	 41.4528 	 12.6551 	 86.2578
| 32> C 	 43.1168 	 11.4078 	 86.9736
| 33> H 	 43.7165 	 12.2856 	 86.8851
| 34> H 	 43.7765 	 10.6477 	 86.6464
| 35> C 	 42.6008 	 10.9449 	 88.3779
| 36> H 	 43.4553 	 10.7746 	 89.0675
| 37> H 	 42.0296 	 10.0002 	 88.4039
| 38> H 	 41.954 	 11.7917 	 88.8255
| 39> H 	 41.7924 	 17.8127 	 84.8163
| 40> H 	 43.1757 	 10.2952 	 81.5809
| 41> *
| 42>
| 43>                          ****END OF INPUT****

CARTESIAN COORDINATES (ANGSTROEM)
---------------------------------
  S     41.289800   15.490600   83.903100
  C     42.178700   16.791600   84.690100
  C     43.437400   16.418800   85.203800
  C     43.629800   14.987800   85.020800
  C     42.631900   14.396600   84.247900
  H     44.485300   14.406800   85.430500
  C     44.354600   17.334900   86.018700
  H     44.011800   17.192900   87.037500
  H     44.058000   18.341100   85.669100
  C     45.829600   17.146100   85.865900
  H     46.333800   17.940700   86.197500
  H     46.048500   16.262000   86.445300
  C     46.306800   16.919400   84.389800
  H     46.258100   15.842100   84.212200
  H     45.689100   17.437000   83.635800
  H     47.382100   17.194800   84.284600
  S     43.312900   12.652500   82.261500
  C     43.049500   10.980800   82.437300
  C     42.646500   10.661100   83.746000
  C     42.386600   11.792900   84.575800
  C     42.573300   12.984700   83.878300
  H     42.586700    9.612430   83.973400
  C     41.991400   11.740400   86.023400
  H     41.252500   10.948200   86.058000
  H     41.452800   12.655100   86.257800
  C     43.116800   11.407800   86.973600
  H     43.716500   12.285600   86.885100
  H     43.776500   10.647700   86.646400
  C     42.600800   10.944900   88.377900
  H     43.455300   10.774600   89.067500
  H     42.029600   10.000200   88.403900
  H     41.954000   11.791700   88.825500
  H     41.792400   17.812700   84.816300
  H     43.175700   10.295200   81.580900

 Total Charge           Charge          ....    0
 Multiplicity           Mult            ....    1
 Number of Electrons    NEL             ....  134
 Basis Dimension        Dim             ....  322

ORBITAL ENERGIES
----------------

  NO   OCC          E(Eh)            E(eV)
   0   2.0000     -88.969468     -2420.9823
   1   2.0000     -88.958128     -2420.6737
   2   2.0000     -10.329534      -281.0809
   3   2.0000     -10.323818      -280.9254
   4   2.0000     -10.317907      -280.7645
   5   2.0000     -10.317539      -280.7545
   6   2.0000     -10.306312      -280.4490
   7   2.0000     -10.305533      -280.4278
   8   2.0000     -10.302181      -280.3366
   9   2.0000     -10.293576      -280.1024
  10   2.0000     -10.293068      -280.0886
  11   2.0000     -10.291952      -280.0583
  12   2.0000     -10.286159      -279.9006
  13   2.0000     -10.283133      -279.8183
  14   2.0000     -10.279574      -279.7214
  15   2.0000     -10.277144      -279.6553
  16   2.0000      -8.083449      -219.9618
  17   2.0000      -8.073404      -219.6885
  18   2.0000      -6.041907      -164.4086
  19   2.0000      -6.038179      -164.3072
  20   2.0000      -6.034195      -164.1988
  21   2.0000      -6.031703      -164.1310
  22   2.0000      -6.027858      -164.0264
  23   2.0000      -6.024325      -163.9302
  24   2.0000      -0.999098       -27.1868
  25   2.0000      -0.977349       -26.5950
  26   2.0000      -0.915766       -24.9193
  27   2.0000      -0.912578       -24.8325
  28   2.0000      -0.862902       -23.4808
  29   2.0000      -0.847372       -23.0582
  30   2.0000      -0.842022       -22.9126
  31   2.0000      -0.806894       -21.9567
  32   2.0000      -0.783026       -21.3072
  33   2.0000      -0.769532       -20.9400
  34   2.0000      -0.710075       -19.3221
  35   2.0000      -0.703722       -19.1492
  36   2.0000      -0.688586       -18.7374
  37   2.0000      -0.657217       -17.8838
  38   2.0000      -0.633991       -17.2518
  39   2.0000      -0.617868       -16.8130
  40   2.0000      -0.594885       -16.1876
  41   2.0000      -0.567921       -15.4539
  42   2.0000      -0.563454       -15.3324
  43   2.0000      -0.552329       -15.0296
  44   2.0000      -0.547898       -14.9091
  45   2.0000      -0.524885       -14.2828
  46   2.0000      -0.515994       -14.0409
  47   2.0000      -0.508488       -13.8367
  48   2.0000      -0.505371       -13.7519
  49   2.0000      -0.489135       -13.3100
  50   2.0000      -0.487538       -13.2666
  51   2.0000      -0.471011       -12.8169
  52   2.0000      -0.468066       -12.7367
  53   2.0000      -0.463284       -12.6066
  54   2.0000      -0.456969       -12.4348
  55   2.0000      -0.448084       -12.1930
  56   2.0000      -0.446459       -12.1488
  57   2.0000      -0.440839       -11.9958
  58   2.0000      -0.439067       -11.9476
  59   2.0000      -0.423305       -11.5187
  60   2.0000      -0.421083       -11.4582
  61   2.0000      -0.416604       -11.3364
  62   2.0000      -0.411122       -11.1872
  63   2.0000      -0.335361        -9.1256
  64   2.0000      -0.324951        -8.8424
  65   2.0000      -0.314416        -8.5557
  66   2.0000      -0.307680        -8.3724
  67   0.0000       0.041024         1.1163
  68   0.0000       0.053748         1.4626
  69   0.0000       0.110236         2.9997
  70   0.0000       0.115869         3.1529
  71   0.0000       0.126748         3.4490

MULLIKEN ATOMIC CHARGES
-----------------------
   0 S :    0.127808
   1 C :   -0.129156
   2 C :   -0.135820
   3 C :    0.033218
   4 C :   -0.183554
   5 H :    0.037984
   6 C :    0.075515
   7 H :    0.048657
   8 H :    0.018932
   9 C :   -0.019928
  10 H :    0.007680
  11 H :    0.025575
  12 C :   -0.077532
  13 H :    0.031319
  14 H :    0.048008
  15 H :    0.038661
  16 S :    0.097352
  17 C :   -0.106835
  18 C :   -0.048809
  19 C :   -0.011429
  20 C :   -0.196321
  21 H :    0.012661
  22 C :    0.094816
  23 H :    0.009995
  24 H :    0.032703
  25 C :   -0.030916
  26 H :    0.009498
  27 H :    0.018745
  28 C :   -0.085634
  29 H :    0.040404
  30 H :    0.046895
  31 H :    0.044935
  32 H :    0.051474
  33 H :    0.073098
Sum of atomic charges:   -0.0000000

LOEWDIN ATOMIC CHARGES
----------------------
   0 S :    0.402964
   1 C :   -0.201279
   2 C :   -0.061306
   3 C :   -0.060350
   4 C :   -0.206425
   5 H :    0.036415
   6 C :   -0.029384
   7 H :    0.036827
   8 H :    0.030382
   9 C :   -0.032894
  10 H :    0.009638
  11 H :    0.024729
  12 C :   -0.065556
  13 H :    0.025468
  14 H :    0.029577
  15 H :    0.029467
  16 S :    0.401846
  17 C :   -0.197789
  18 C :   -0.079711
  19 C :   -0.046279
  20 C :   -0.194097
  21 H :    0.028143
  22 C :   -0.027733
  23 H :    0.026836
  24 H :    0.033692
  25 C :   -0.037973
  26 H :    0.022239
  27 H :    0.020807
  28 C :   -0.073134
  29 H :    0.028555
  30 H :    0.029040
  31 H :    0.033834
  32 H :    0.028741
  33 H :    0.034709

  Mayer bond orders larger than 0.100000
B(  0-S ,  1-C ) :   1.1409 B(  0-S ,  4-C ) :   1.1453 B(  1-C ,  2-C ) :   1.6286
B(  1-C , 32-H ) :   0.9616 B(  2-C ,  3-C ) :   1.2221 B(  2-C ,  6-C ) :   1.0042
B(  3-C ,  4-C ) :   1.5993 B(  3-C ,  5-H ) :   0.9781 B(  4-C , 20-C ) :   1.0089
B(  6-C ,  7-H ) :   0.9417 B(  6-C ,  8-H ) :   0.9358 B(  6-C ,  9-C ) :   1.0820
B(  9-C , 10-H ) :   0.9564 B(  9-C , 11-H ) :   0.9516 B(  9-C , 12-C ) :   1.0760
B( 12-C , 13-H ) :   0.9723 B( 12-C , 14-H ) :   0.9778 B( 12-C , 15-H ) :   0.9773
B( 16-S , 17-C ) :   1.1846 B( 16-S , 20-C ) :   1.1428 B( 17-C , 18-C ) :   1.5793
B( 17-C , 20-C ) :   0.1067 B( 17-C , 33-H ) :   0.9650 B( 18-C , 19-C ) :   1.2294
B( 18-C , 21-H ) :   0.9995 B( 19-C , 20-C ) :   1.5941 B( 19-C , 22-C ) :   1.0453
B( 22-C , 23-H ) :   0.9306 B( 22-C , 24-H ) :   0.9293 B( 22-C , 25-C ) :   1.0548
B( 25-C , 26-H ) :   0.9502 B( 25-C , 27-H ) :   0.9581 B( 25-C , 28-C ) :   1.0690
B( 28-C , 29-H ) :   0.9755 B( 28-C , 30-H ) :   0.9750 B( 28-C , 31-H ) :   0.9755

Dispersion correction           -0.014856776
FINAL SINGLE POINT ENERGY     -1339.870369225195

DIPOLE MOMENT
-------------
                                X             Y             Z
Electronic contribution:    -12.33600      -0.48491     -20.04678
Nuclear contribution   :     12.68581       0.40531      20.63330
                        -----------------------------------------
Total Dipole Moment    :      0.34980      -0.07959       0.58652
                        -----------------------------------------
Magnitude (a.u.)       :      0.68754
Magnitude (Debye)      :      1.74758

Rotational constants in cm-1:     0.016370     0.009048     0.007745
Rotational constants in MHz :   490.761344   271.249698   232.202714

                             ****ORCA TERMINATED NORMALLY****
TOTAL RUN TIME: 0 days 0 hours 0 minutes 30 seconds 246 msec
