                         Program Version 4.2.1 -  RELEASE  -
|  1> ! wB97X-D3 SP def2-SVP
|  2> %pal
|  3> nprocs 16
|  4> end
|  5>
|  6> * xyz 0 1
|  7> S 	 -92.8158 	 62.4974 	 123.022
|  8> C 	 -93.3673 	 60.872 	 122.702
|  9> C 	 -92.6753 	 59.9033 	 123.467
| 10> C 	 -91.7925 	 60.5409 	 124.385
| 11> C 	 -91.8011 	 61.9321 	 124.358
| 12> H 	 -91.23 	 60.1397 	 125.146
| 13> C 	 -92.8296 	 58.397 	 123.292
| 14> H 	 -93.0055 	 58.347 	 122.177
| 15> H 	 -93.7702 	 58.038 	 123.792
| 16> C 	 -91.54 	 57.6187 	 123.668
| 17> H 	 -90.6694 	 58.1433 	 123.365
| 18> H 	 -91.5709 	 57.7235 	 124.714
| 19> C 	 -91.7698 	 56.1844 	 123.19
| 20> H 	 -91.1078 	 55.5187 	 123.795
| 21> H 	 -92.7422 	 55.9824 	 123.467
| 22> H 	 -91.5353 	 56.0569 	 122.138
| 23> S 	 -92.4678 	 64.2006 	 125.785
| 24> C 	 -91.224 	 64.9659 	 126.778
| 25> C 	 -90.0648 	 64.2029 	 126.764
| 26> C 	 -90.1007 	 63.0414 	 126.023
| 27> C 	 -91.2469 	 62.9282 	 125.302
| 28> H 	 -89.2761 	 64.563 	 127.436
| 29> C 	 -88.975 	 61.9867 	 125.941
| 30> H 	 -89.2694 	 61.0161 	 126.326
| 31> H 	 -88.1569 	 62.2365 	 126.581
| 32> C 	 -88.3757 	 61.7901 	 124.519
| 33> H 	 -88.0689 	 62.7227 	 124.05
| 34> H 	 -89.0314 	 61.2408 	 123.845
| 35> C 	 -87.0962 	 60.9893 	 124.466
| 36> H 	 -86.334 	 61.518 	 125.006
| 37> H 	 -86.6818 	 60.8555 	 123.409
| 38> H 	 -87.2201 	 60.0464 	 125.026
| 39> H 	 -94.1054 	 60.4689 	 121.961
| 40> H 	 -91.2177 	 65.8984 	 127.338
| 41> *
| 42>
| 43>                          ****END OF INPUT****

CARTESIAN COORDINATES (ANGSTROEM)
---------------------------------
  S    -92.815800   62.497400  123.022000
  C    -93.367300   60.872000  122.702000
  C    -92.675300   59.903300  123.467000
  C    -91.792500   60.540900  124.385000
  C    -91.801100   61.932100  124.358000
  H    -91.230000   60.139700  125.146000
  C    -92.829600   58.397000  123.292000
  H    -93.005500   58.347000  122.177000
  H    -93.770200   58.038000  123.792000
  C    -91.540000   57.618700  123.668000
  H    -90.669400   58.143300  123.365000
  H    -91.570900   57.723500  124.714000
  C    -91.769800   56.184400  123.190000
  H    -91.107800   55.518700  123.795000
  H    -92.742200   55.982400  123.467000
  H    -91.535300   56.056900  122.138000
  S    -92.467800   64.200600  125.785000
  C    -91.224000   64.965900  126.778000
  C    -90.064800   64.202900  126.764000
  C    -90.100700   63.041400  126.023000
  C    -91.246900   62.928200  125.302000
  H    -89.276100   64.563000  127.436000
  C    -88.975000   61.986700  125.941000
  H    -89.269400   61.016100  126.326000
  H    -88.156900   62.236500  126.581000
  C    -88.375700   61.790100  124.519000
  H    -88.068900   62.722700  124.050000
  H    -89.031400   61.240800  123.845000
  C    -87.096200   60.989300  124.466000
  H    -86.334000   61.518000  125.006000
  H    -86.681800   60.855500  123.409000
  H    -87.220100   60.046400  125.026000
  H    -94.105400   60.468900  121.961000
  H    -91.217700   65.898400  127.338000

 Total Charge           Charge          ....    0
 Multiplicity           Mult            ....    1
 Number of Electrons    NEL             ....  134
 Basis Dimension        Dim             ....  322

ORBITAL ENERGIES
----------------

  NO   OCC          E(Eh)            E(eV)
   0   2.0000     -88.969212     -2420.9753
   1   2.0000     -88.967327     -2420.9241
   2   2.0000     -10.331858      -281.1441
   3   2.0000     -10.331745      -281.1411
   4   2.0000     -10.317571      -280.7554
   5   2.0000     -10.316400      -280.7235
   6   2.0000     -10.302640      -280.3491
   7   2.0000     -10.302421      -280.3431
   8   2.0000     -10.299943      -280.2757
   9   2.0000     -10.297743      -280.2158
  10   2.0000     -10.291076      -280.0344
  11   2.0000     -10.289360      -279.9877
  12   2.0000     -10.282871      -279.8111
  13   2.0000     -10.280854      -279.7563
  14   2.0000     -10.278326      -279.6875
  15   2.0000     -10.277967      -279.6777
  16   2.0000      -8.083073      -219.9516
  17   2.0000      -8.080442      -219.8800
  18   2.0000      -6.041559      -164.3992
  19   2.0000      -6.039028      -164.3303
  20   2.0000      -6.037639      -164.2925
  21   2.0000      -6.035246      -164.2274
  22   2.0000      -6.033961      -164.1924
  23   2.0000      -6.031101      -164.1146
  24   2.0000      -1.002544       -27.2806
  25   2.0000      -0.980455       -26.6795
  26   2.0000      -0.915836       -24.9212
  27   2.0000      -0.907440       -24.6927
  28   2.0000      -0.866008       -23.5653
  29   2.0000      -0.855319       -23.2744
  30   2.0000      -0.845742       -23.0138
  31   2.0000      -0.814101       -22.1528
  32   2.0000      -0.782491       -21.2927
  33   2.0000      -0.768588       -20.9144
  34   2.0000      -0.717393       -19.5213
  35   2.0000      -0.697102       -18.9691
  36   2.0000      -0.686091       -18.6695
  37   2.0000      -0.659845       -17.9553
  38   2.0000      -0.641628       -17.4596
  39   2.0000      -0.617545       -16.8042
  40   2.0000      -0.596168       -16.2226
  41   2.0000      -0.581611       -15.8264
  42   2.0000      -0.566930       -15.4269
  43   2.0000      -0.558419       -15.1954
  44   2.0000      -0.526529       -14.3276
  45   2.0000      -0.525255       -14.2929
  46   2.0000      -0.517728       -14.0881
  47   2.0000      -0.506222       -13.7750
  48   2.0000      -0.501080       -13.6351
  49   2.0000      -0.494007       -13.4426
  50   2.0000      -0.490592       -13.3497
  51   2.0000      -0.482006       -13.1160
  52   2.0000      -0.473598       -12.8872
  53   2.0000      -0.466433       -12.6923
  54   2.0000      -0.458284       -12.4705
  55   2.0000      -0.453759       -12.3474
  56   2.0000      -0.444045       -12.0831
  57   2.0000      -0.440656       -11.9909
  58   2.0000      -0.429690       -11.6925
  59   2.0000      -0.426401       -11.6030
  60   2.0000      -0.420441       -11.4408
  61   2.0000      -0.417239       -11.3536
  62   2.0000      -0.408285       -11.1100
  63   2.0000      -0.346265        -9.4223
  64   2.0000      -0.338089        -9.1999
  65   2.0000      -0.327673        -8.9164
  66   2.0000      -0.285056        -7.7568
  67   0.0000       0.021583         0.5873
  68   0.0000       0.067237         1.8296
  69   0.0000       0.104742         2.8502
  70   0.0000       0.116464         3.1691
  71   0.0000       0.132634         3.6092

MULLIKEN ATOMIC CHARGES
-----------------------
   0 S :    0.121297
   1 C :   -0.124995
   2 C :   -0.103307
   3 C :    0.061010
   4 C :   -0.162208
   5 H :   -0.035758
   6 C :   -0.006482
   7 H :    0.033010
   8 H :    0.059716
   9 C :   -0.076230
  10 H :    0.027974
  11 H :    0.026314
  12 C :    0.018203
  13 H :    0.027856
  14 H :    0.012840
  15 H :    0.047256
  16 S :    0.100494
  17 C :   -0.085056
  18 C :   -0.074656
  19 C :    0.022825
  20 C :   -0.152500
  21 H :    0.019927
  22 C :    0.084321
  23 H :    0.029246
  24 H :    0.000335
  25 C :   -0.075493
  26 H :    0.031453
  27 H :    0.042402
  28 C :   -0.070986
  29 H :    0.014766
  30 H :    0.051513
  31 H :    0.022918
  32 H :    0.056545
  33 H :    0.055449
Sum of atomic charges:   -0.0000000

LOEWDIN ATOMIC CHARGES
----------------------
   0 S :    0.408154
   1 C :   -0.216609
   2 C :   -0.065375
   3 C :   -0.060984
   4 C :   -0.185038
   5 H :    0.014075
   6 C :   -0.039024
   7 H :    0.033637
   8 H :    0.038368
   9 C :   -0.034417
  10 H :    0.020725
  11 H :    0.019285
  12 C :   -0.048925
  13 H :    0.029869
  14 H :    0.016255
  15 H :    0.029943
  16 S :    0.375097
  17 C :   -0.185022
  18 C :   -0.077306
  19 C :   -0.061531
  20 C :   -0.162902
  21 H :    0.034816
  22 C :   -0.021646
  23 H :    0.029054
  24 H :    0.025623
  25 C :   -0.043186
  26 H :    0.026784
  27 H :    0.023832
  28 C :   -0.070923
  29 H :    0.014752
  30 H :    0.037670
  31 H :    0.020969
  32 H :    0.039333
  33 H :    0.034645

  Mayer bond orders larger than 0.100000
B(  0-S ,  1-C ) :   1.1428 B(  0-S ,  4-C ) :   1.1520 B(  1-C ,  2-C ) :   1.6066
B(  1-C ,  4-C ) :   0.1028 B(  1-C , 32-H ) :   0.9596 B(  2-C ,  3-C ) :   1.2491
B(  2-C ,  6-C ) :   0.9971 B(  3-C ,  4-C ) :   1.5546 B(  3-C ,  5-H ) :   1.0026
B(  4-C , 20-C ) :   1.0390 B(  6-C ,  7-H ) :   0.9484 B(  6-C ,  8-H ) :   0.9337
B(  6-C ,  9-C ) :   1.0685 B(  9-C , 10-H ) :   0.9631 B(  9-C , 11-H ) :   0.9443
B(  9-C , 12-C ) :   1.0758 B( 12-C , 13-H ) :   0.9717 B( 12-C , 14-H ) :   0.9684
B( 12-C , 15-H ) :   0.9782 B( 16-S , 17-C ) :   1.1377 B( 16-S , 20-C ) :   1.1286
B( 17-C , 18-C ) :   1.6287 B( 17-C , 20-C ) :   0.1095 B( 17-C , 33-H ) :   0.9618
B( 18-C , 19-C ) :   1.2450 B( 18-C , 21-H ) :   0.9838 B( 19-C , 20-C ) :   1.6039
B( 19-C , 22-C ) :   1.0331 B( 22-C , 23-H ) :   0.9302 B( 22-C , 24-H ) :   0.9332
B( 22-C , 25-C ) :   1.0617 B( 25-C , 26-H ) :   0.9571 B( 25-C , 27-H ) :   0.9514
B( 25-C , 28-C ) :   1.0916 B( 28-C , 29-H ) :   0.9736 B( 28-C , 30-H ) :   0.9729
B( 28-C , 31-H ) :   0.9708

Dispersion correction           -0.014170988
FINAL SINGLE POINT ENERGY     -1339.857805932409

DIPOLE MOMENT
-------------
                                X             Y             Z
Electronic contribution:    -17.17210      26.01398       2.51877
Nuclear contribution   :     17.57049     -26.56914      -2.31891
                        -----------------------------------------
Total Dipole Moment    :      0.39840      -0.55516       0.19986
                        -----------------------------------------
Magnitude (a.u.)       :      0.71195
Magnitude (Debye)      :      1.80963

Rotational constants in cm-1:     0.017986     0.009116     0.006783
Rotational constants in MHz :   539.208599   273.302954   203.349172

                             ****ORCA TERMINATED NORMALLY****
TOTAL RUN TIME: 0 days 0 hours 0 minutes 33 seconds 799 msec
