                         Program Version 4.2.1 -  RELEASE  -
|  1> ! wB97X-D3 SP def2-SVP
|  2> %pal
|  3> nprocs 16
|  4> end
|  5>
|  6> * xyz 0 1
|  7> S 	 4.28131 	 13.2608 	 87.2331
|  8> C 	 2.95724 	 13.8808 	 86.2046
|  9> C 	 3.3326 	 13.8409 	 84.8801
| 10> C 	 4.41842 	 12.9676 	 84.6562
| 11> C 	 5.09029 	 12.5347 	 85.8055
| 12> H 	 4.90335 	 12.7346 	 83.7733
| 13> C 	 2.60787 	 14.5419 	 83.7767
| 14> H 	 2.74356 	 15.6038 	 83.8851
| 15> H 	 1.51879 	 14.4101 	 83.802
| 16> C 	 2.8772 	 14.1381 	 82.3142
| 17> H 	 3.90503 	 14.2284 	 81.9918
| 18> H 	 2.63264 	 13.0504 	 82.238
| 19> C 	 2.16723 	 15.1867 	 81.4103
| 20> H 	 1.15445 	 15.391 	 81.7291
| 21> H 	 2.65844 	 16.1785 	 81.3035
| 22> H 	 2.22034 	 14.7999 	 80.4206
| 23> S 	 5.82539 	 10.0709 	 85.1634
| 24> C 	 7.22989 	 9.3872 	 85.8443
| 25> C 	 7.91636 	 10.243 	 86.6638
| 26> C 	 7.33796 	 11.5524 	 86.6305
| 27> C 	 6.1995 	 11.5945 	 85.8764
| 28> H 	 8.70774 	 9.95969 	 87.289
| 29> C 	 7.934 	 12.6623 	 87.5222
| 30> H 	 8.35481 	 12.184 	 88.374
| 31> H 	 7.17598 	 13.2625 	 87.9621
| 32> C 	 8.80132 	 13.7824 	 86.7776
| 33> H 	 8.08427 	 14.3384 	 86.2031
| 34> H 	 9.34016 	 13.3303 	 85.9318
| 35> C 	 9.66717 	 14.6157 	 87.7225
| 36> H 	 9.08566 	 15.2203 	 88.3913
| 37> H 	 10.3161 	 15.3308 	 87.175
| 38> H 	 10.2407 	 13.9474 	 88.3169
| 39> H 	 2.10966 	 14.376 	 86.516
| 40> H 	 7.61567 	 8.35855 	 85.727
| 41> *
| 42>
| 43>                          ****END OF INPUT****

CARTESIAN COORDINATES (ANGSTROEM)
---------------------------------
  S      4.281310   13.260800   87.233100
  C      2.957240   13.880800   86.204600
  C      3.332600   13.840900   84.880100
  C      4.418420   12.967600   84.656200
  C      5.090290   12.534700   85.805500
  H      4.903350   12.734600   83.773300
  C      2.607870   14.541900   83.776700
  H      2.743560   15.603800   83.885100
  H      1.518790   14.410100   83.802000
  C      2.877200   14.138100   82.314200
  H      3.905030   14.228400   81.991800
  H      2.632640   13.050400   82.238000
  C      2.167230   15.186700   81.410300
  H      1.154450   15.391000   81.729100
  H      2.658440   16.178500   81.303500
  H      2.220340   14.799900   80.420600
  S      5.825390   10.070900   85.163400
  C      7.229890    9.387200   85.844300
  C      7.916360   10.243000   86.663800
  C      7.337960   11.552400   86.630500
  C      6.199500   11.594500   85.876400
  H      8.707740    9.959690   87.289000
  C      7.934000   12.662300   87.522200
  H      8.354810   12.184000   88.374000
  H      7.175980   13.262500   87.962100
  C      8.801320   13.782400   86.777600
  H      8.084270   14.338400   86.203100
  H      9.340160   13.330300   85.931800
  C      9.667170   14.615700   87.722500
  H      9.085660   15.220300   88.391300
  H     10.316100   15.330800   87.175000
  H     10.240700   13.947400   88.316900
  H      2.109660   14.376000   86.516000
  H      7.615670    8.358550   85.727000

 Total Charge           Charge          ....    0
 Multiplicity           Mult            ....    1
 Number of Electrons    NEL             ....  134
 Basis Dimension        Dim             ....  322

ORBITAL ENERGIES
----------------

  NO   OCC          E(Eh)            E(eV)
   0   2.0000     -88.966819     -2420.9102
   1   2.0000     -88.965097     -2420.8634
   2   2.0000     -10.331859      -281.1442
   3   2.0000     -10.320924      -280.8466
   4   2.0000     -10.313503      -280.6447
   5   2.0000     -10.308928      -280.5202
   6   2.0000     -10.300824      -280.2997
   7   2.0000     -10.298381      -280.2332
   8   2.0000     -10.290971      -280.0316
   9   2.0000     -10.288614      -279.9674
  10   2.0000     -10.288000      -279.9507
  11   2.0000     -10.287155      -279.9277
  12   2.0000     -10.287138      -279.9273
  13   2.0000     -10.285834      -279.8918
  14   2.0000     -10.280250      -279.7398
  15   2.0000     -10.276530      -279.6386
  16   2.0000      -8.082791      -219.9439
  17   2.0000      -8.078142      -219.8174
  18   2.0000      -6.041247      -164.3907
  19   2.0000      -6.037084      -164.2774
  20   2.0000      -6.036831      -164.2705
  21   2.0000      -6.033553      -164.1813
  22   2.0000      -6.032946      -164.1648
  23   2.0000      -6.028762      -164.0510
  24   2.0000      -1.011685       -27.5294
  25   2.0000      -0.982787       -26.7430
  26   2.0000      -0.911461       -24.8021
  27   2.0000      -0.900679       -24.5087
  28   2.0000      -0.872639       -23.7457
  29   2.0000      -0.853879       -23.2352
  30   2.0000      -0.842773       -22.9330
  31   2.0000      -0.815834       -22.2000
  32   2.0000      -0.783300       -21.3147
  33   2.0000      -0.771638       -20.9973
  34   2.0000      -0.713695       -19.4206
  35   2.0000      -0.703479       -19.1426
  36   2.0000      -0.692475       -18.8432
  37   2.0000      -0.669709       -18.2237
  38   2.0000      -0.642005       -17.4699
  39   2.0000      -0.619205       -16.8494
  40   2.0000      -0.598099       -16.2751
  41   2.0000      -0.574029       -15.6201
  42   2.0000      -0.566904       -15.4262
  43   2.0000      -0.553465       -15.0606
  44   2.0000      -0.528882       -14.3916
  45   2.0000      -0.523430       -14.2433
  46   2.0000      -0.511010       -13.9053
  47   2.0000      -0.507930       -13.8215
  48   2.0000      -0.504763       -13.7353
  49   2.0000      -0.497794       -13.5457
  50   2.0000      -0.490024       -13.3342
  51   2.0000      -0.486198       -13.2301
  52   2.0000      -0.479328       -13.0432
  53   2.0000      -0.466361       -12.6903
  54   2.0000      -0.456253       -12.4153
  55   2.0000      -0.453384       -12.3372
  56   2.0000      -0.448185       -12.1957
  57   2.0000      -0.438603       -11.9350
  58   2.0000      -0.434740       -11.8299
  59   2.0000      -0.425052       -11.5663
  60   2.0000      -0.421573       -11.4716
  61   2.0000      -0.411090       -11.1863
  62   2.0000      -0.406508       -11.0616
  63   2.0000      -0.343928        -9.3588
  64   2.0000      -0.332407        -9.0453
  65   2.0000      -0.329363        -8.9624
  66   2.0000      -0.288957        -7.8629
  67   0.0000       0.030038         0.8174
  68   0.0000       0.065174         1.7735
  69   0.0000       0.104045         2.8312
  70   0.0000       0.115337         3.1385
  71   0.0000       0.135642         3.6910

MULLIKEN ATOMIC CHARGES
-----------------------
   0 S :    0.099795
   1 C :   -0.098700
   2 C :   -0.024405
   3 C :    0.016141
   4 C :   -0.122425
   5 H :   -0.016860
   6 C :    0.027231
   7 H :    0.032718
   8 H :    0.032229
   9 C :   -0.100050
  10 H :    0.029983
  11 H :    0.047139
  12 C :   -0.039638
  13 H :    0.026570
  14 H :    0.039714
  15 H :    0.026724
  16 S :    0.133226
  17 C :   -0.087081
  18 C :   -0.028533
  19 C :   -0.057676
  20 C :   -0.158319
  21 H :    0.000246
  22 C :    0.076820
  23 H :    0.009717
  24 H :    0.005442
  25 C :   -0.068581
  26 H :    0.020940
  27 H :    0.025794
  28 C :   -0.012645
  29 H :    0.024089
  30 H :    0.039714
  31 H :    0.024829
  32 H :    0.014300
  33 H :    0.061552
Sum of atomic charges:    0.0000000

LOEWDIN ATOMIC CHARGES
----------------------
   0 S :    0.374251
   1 C :   -0.170725
   2 C :   -0.059498
   3 C :   -0.064418
   4 C :   -0.176232
   5 H :    0.017403
   6 C :   -0.039650
   7 H :    0.031387
   8 H :    0.035801
   9 C :   -0.042744
  10 H :    0.020204
  11 H :    0.031058
  12 C :   -0.061687
  13 H :    0.019595
  14 H :    0.033129
  15 H :    0.023869
  16 S :    0.448248
  17 C :   -0.202407
  18 C :   -0.064190
  19 C :   -0.054579
  20 C :   -0.211222
  21 H :    0.023774
  22 C :   -0.027598
  23 H :    0.022564
  24 H :    0.019674
  25 C :   -0.036803
  26 H :    0.021770
  27 H :    0.022527
  28 C :   -0.059406
  29 H :    0.022937
  30 H :    0.032855
  31 H :    0.021377
  32 H :    0.012160
  33 H :    0.036578

  Mayer bond orders larger than 0.100000
B(  0-S ,  1-C ) :   1.1297 B(  0-S ,  4-C ) :   1.1259 B(  1-C ,  2-C ) :   1.6096
B(  1-C ,  4-C ) :   0.1023 B(  1-C , 32-H ) :   0.9829 B(  2-C ,  3-C ) :   1.2355
B(  2-C ,  6-C ) :   1.0074 B(  3-C ,  4-C ) :   1.5520 B(  3-C ,  5-H ) :   1.0046
B(  4-C , 20-C ) :   1.0543 B(  6-C ,  7-H ) :   0.9350 B(  6-C ,  8-H ) :   0.9423
B(  6-C ,  9-C ) :   1.0817 B(  9-C , 10-H ) :   0.9485 B(  9-C , 11-H ) :   0.9577
B(  9-C , 12-C ) :   1.0688 B( 12-C , 13-H ) :   0.9768 B( 12-C , 14-H ) :   0.9741
B( 12-C , 15-H ) :   0.9717 B( 16-S , 17-C ) :   1.1646 B( 16-S , 20-C ) :   1.1482
B( 17-C , 18-C ) :   1.6039 B( 17-C , 33-H ) :   0.9604 B( 18-C , 19-C ) :   1.2481
B( 18-C , 21-H ) :   1.0007 B( 19-C , 20-C ) :   1.5935 B( 19-C , 22-C ) :   1.0443
B( 22-C , 23-H ) :   0.9448 B( 22-C , 24-H ) :   0.9342 B( 22-C , 25-C ) :   1.0308
B( 25-C , 26-H ) :   0.9557 B( 25-C , 27-H ) :   0.9632 B( 25-C , 28-C ) :   1.0736
B( 28-C , 29-H ) :   0.9750 B( 28-C , 30-H ) :   0.9736 B( 28-C , 31-H ) :   0.9777

Dispersion correction           -0.013652134
FINAL SINGLE POINT ENERGY     -1339.858986920006

DIPOLE MOMENT
-------------
                                X             Y             Z
Electronic contribution:     -3.86973     -17.48451       9.05307
Nuclear contribution   :      3.98908      17.75003      -9.24835
                        -----------------------------------------
Total Dipole Moment    :      0.11935       0.26551      -0.19528
                        -----------------------------------------
Magnitude (a.u.)       :      0.35054
Magnitude (Debye)      :      0.89099

Rotational constants in cm-1:     0.018465     0.007664     0.006657
Rotational constants in MHz :   553.556292   229.770427   199.561992

                             ****ORCA TERMINATED NORMALLY****
TOTAL RUN TIME: 0 days 0 hours 0 minutes 33 seconds 7 msec
