                         Program Version 4.2.1 -  RELEASE  -
|  1> ! wB97X-D3 SP def2-SVP
|  2> %pal
|  3> nprocs 16
|  4> end
|  5>
|  6> * xyz 0 1
|  7> S 	 -13.7286 	 31.5089 	 38.5386
|  8> C 	 -13.5344 	 32.6157 	 37.2248
|  9> C 	 -14.7419 	 32.8464 	 36.5364
| 10> C 	 -15.7814 	 32.0052 	 37.0091
| 11> C 	 -15.3889 	 31.2487 	 38.0895
| 12> H 	 -16.8533 	 32.12 	 36.677
| 13> C 	 -14.9867 	 33.609 	 35.2502
| 14> H 	 -14.2994 	 34.4346 	 35.2526
| 15> H 	 -16.0171 	 33.9272 	 35.3339
| 16> C 	 -14.7733 	 32.7812 	 33.9394
| 17> H 	 -13.6848 	 32.6555 	 33.8683
| 18> H 	 -15.2191 	 31.832 	 34.0999
| 19> C 	 -15.2517 	 33.5023 	 32.6331
| 20> H 	 -15.2357 	 32.8668 	 31.7261
| 21> H 	 -16.2361 	 33.8277 	 32.7311
| 22> H 	 -14.6665 	 34.3738 	 32.3968
| 23> S 	 -15.7537 	 30.2342 	 40.593
| 24> C 	 -16.8288 	 28.9766 	 40.8776
| 25> C 	 -17.6597 	 28.8143 	 39.8225
| 26> C 	 -17.3074 	 29.5781 	 38.6595
| 27> C 	 -16.1526 	 30.3793 	 38.8915
| 28> H 	 -18.5046 	 28.1352 	 39.7801
| 29> C 	 -18.1143 	 29.5962 	 37.3239
| 30> H 	 -18.4275 	 28.5626 	 37.1797
| 31> H 	 -17.4978 	 29.6902 	 36.4355
| 32> C 	 -19.2729 	 30.6323 	 37.2725
| 33> H 	 -19.8311 	 30.4679 	 36.3124
| 34> H 	 -19.065 	 31.6696 	 37.3934
| 35> C 	 -20.2717 	 30.45 	 38.4298
| 36> H 	 -20.6892 	 29.4945 	 38.5494
| 37> H 	 -21.0279 	 31.1884 	 38.1795
| 38> H 	 -19.7718 	 30.7068 	 39.3265
| 39> H 	 -12.6317 	 33.1876 	 36.9817
| 40> H 	 -16.9139 	 28.3762 	 41.7946
| 41> *
| 42>
| 43>                          ****END OF INPUT****

CARTESIAN COORDINATES (ANGSTROEM)
---------------------------------
  S    -13.728600   31.508900   38.538600
  C    -13.534400   32.615700   37.224800
  C    -14.741900   32.846400   36.536400
  C    -15.781400   32.005200   37.009100
  C    -15.388900   31.248700   38.089500
  H    -16.853300   32.120000   36.677000
  C    -14.986700   33.609000   35.250200
  H    -14.299400   34.434600   35.252600
  H    -16.017100   33.927200   35.333900
  C    -14.773300   32.781200   33.939400
  H    -13.684800   32.655500   33.868300
  H    -15.219100   31.832000   34.099900
  C    -15.251700   33.502300   32.633100
  H    -15.235700   32.866800   31.726100
  H    -16.236100   33.827700   32.731100
  H    -14.666500   34.373800   32.396800
  S    -15.753700   30.234200   40.593000
  C    -16.828800   28.976600   40.877600
  C    -17.659700   28.814300   39.822500
  C    -17.307400   29.578100   38.659500
  C    -16.152600   30.379300   38.891500
  H    -18.504600   28.135200   39.780100
  C    -18.114300   29.596200   37.323900
  H    -18.427500   28.562600   37.179700
  H    -17.497800   29.690200   36.435500
  C    -19.272900   30.632300   37.272500
  H    -19.831100   30.467900   36.312400
  H    -19.065000   31.669600   37.393400
  C    -20.271700   30.450000   38.429800
  H    -20.689200   29.494500   38.549400
  H    -21.027900   31.188400   38.179500
  H    -19.771800   30.706800   39.326500
  H    -12.631700   33.187600   36.981700
  H    -16.913900   28.376200   41.794600

 Total Charge           Charge          ....    0
 Multiplicity           Mult            ....    1
 Number of Electrons    NEL             ....  134
 Basis Dimension        Dim             ....  322

ORBITAL ENERGIES
----------------

  NO   OCC          E(Eh)            E(eV)
   0   2.0000     -88.970240     -2421.0033
   1   2.0000     -88.962971     -2420.8055
   2   2.0000     -10.325639      -280.9749
   3   2.0000     -10.324495      -280.9438
   4   2.0000     -10.315586      -280.7014
   5   2.0000     -10.311376      -280.5868
   6   2.0000     -10.306174      -280.4452
   7   2.0000     -10.299745      -280.2703
   8   2.0000     -10.295829      -280.1637
   9   2.0000     -10.294634      -280.1312
  10   2.0000     -10.290604      -280.0216
  11   2.0000     -10.290413      -280.0164
  12   2.0000     -10.290291      -280.0131
  13   2.0000     -10.288526      -279.9650
  14   2.0000     -10.276791      -279.6457
  15   2.0000     -10.265841      -279.3477
  16   2.0000      -8.085310      -220.0125
  17   2.0000      -8.079174      -219.8455
  18   2.0000      -6.043722      -164.4580
  19   2.0000      -6.039797      -164.3512
  20   2.0000      -6.037587      -164.2911
  21   2.0000      -6.036111      -164.2509
  22   2.0000      -6.033428      -164.1779
  23   2.0000      -6.029983      -164.0842
  24   2.0000      -1.014681       -27.6109
  25   2.0000      -0.989207       -26.9177
  26   2.0000      -0.910208       -24.7680
  27   2.0000      -0.907004       -24.6808
  28   2.0000      -0.872878       -23.7522
  29   2.0000      -0.854394       -23.2492
  30   2.0000      -0.844822       -22.9888
  31   2.0000      -0.812835       -22.1184
  32   2.0000      -0.787189       -21.4205
  33   2.0000      -0.772320       -21.0159
  34   2.0000      -0.709264       -19.3000
  35   2.0000      -0.706145       -19.2152
  36   2.0000      -0.692505       -18.8440
  37   2.0000      -0.661784       -18.0080
  38   2.0000      -0.632969       -17.2240
  39   2.0000      -0.622579       -16.9412
  40   2.0000      -0.597770       -16.2662
  41   2.0000      -0.565392       -15.3851
  42   2.0000      -0.559771       -15.2321
  43   2.0000      -0.553037       -15.0489
  44   2.0000      -0.548745       -14.9321
  45   2.0000      -0.523749       -14.2519
  46   2.0000      -0.516462       -14.0536
  47   2.0000      -0.509324       -13.8594
  48   2.0000      -0.504499       -13.7281
  49   2.0000      -0.500974       -13.6322
  50   2.0000      -0.494287       -13.4502
  51   2.0000      -0.483836       -13.1658
  52   2.0000      -0.472124       -12.8472
  53   2.0000      -0.464824       -12.6485
  54   2.0000      -0.462196       -12.5770
  55   2.0000      -0.451304       -12.2806
  56   2.0000      -0.446459       -12.1488
  57   2.0000      -0.438195       -11.9239
  58   2.0000      -0.433635       -11.7998
  59   2.0000      -0.430486       -11.7141
  60   2.0000      -0.422615       -11.4999
  61   2.0000      -0.419702       -11.4207
  62   2.0000      -0.404576       -11.0091
  63   2.0000      -0.359574        -9.7845
  64   2.0000      -0.333286        -9.0692
  65   2.0000      -0.329680        -8.9710
  66   2.0000      -0.279804        -7.6138
  67   0.0000       0.019219         0.5230
  68   0.0000       0.081641         2.2216
  69   0.0000       0.108073         2.9408
  70   0.0000       0.120896         3.2898
  71   0.0000       0.133912         3.6439

MULLIKEN ATOMIC CHARGES
-----------------------
   0 S :    0.125687
   1 C :   -0.119612
   2 C :   -0.103722
   3 C :   -0.034275
   4 C :   -0.112035
   5 H :    0.031969
   6 C :    0.069084
   7 H :    0.015583
   8 H :    0.018719
   9 C :   -0.053465
  10 H :    0.027957
  11 H :    0.023753
  12 C :   -0.025381
  13 H :    0.038920
  14 H :    0.013179
  15 H :    0.026709
  16 S :    0.103767
  17 C :   -0.082124
  18 C :   -0.029036
  19 C :   -0.081165
  20 C :   -0.136235
  21 H :    0.010187
  22 C :    0.073787
  23 H :    0.018664
  24 H :    0.023650
  25 C :   -0.085274
  26 H :    0.037165
  27 H :    0.037063
  28 C :   -0.039092
  29 H :    0.017442
  30 H :    0.029017
  31 H :    0.040684
  32 H :    0.050931
  33 H :    0.067502
Sum of atomic charges:    0.0000000

LOEWDIN ATOMIC CHARGES
----------------------
   0 S :    0.427674
   1 C :   -0.212041
   2 C :   -0.062925
   3 C :   -0.070939
   4 C :   -0.193752
   5 H :    0.042666
   6 C :   -0.027357
   7 H :    0.024102
   8 H :    0.026505
   9 C :   -0.029315
  10 H :    0.026454
  11 H :    0.017949
  12 C :   -0.062708
  13 H :    0.032369
  14 H :    0.014317
  15 H :    0.024448
  16 S :    0.427160
  17 C :   -0.213921
  18 C :   -0.078143
  19 C :   -0.057323
  20 C :   -0.197929
  21 H :    0.028923
  22 C :   -0.037169
  23 H :    0.031421
  24 H :    0.028798
  25 C :   -0.037695
  26 H :    0.028719
  27 H :    0.021407
  28 C :   -0.055643
  29 H :    0.012234
  30 H :    0.028278
  31 H :    0.022042
  32 H :    0.031151
  33 H :    0.040238

  Mayer bond orders larger than 0.100000
B(  0-S ,  1-C ) :   1.1437 B(  0-S ,  4-C ) :   1.1497 B(  1-C ,  2-C ) :   1.5897
B(  1-C , 32-H ) :   0.9647 B(  2-C ,  3-C ) :   1.2591 B(  2-C ,  6-C ) :   1.0412
B(  3-C ,  4-C ) :   1.5425 B(  3-C ,  5-H ) :   0.9806 B(  4-C , 20-C ) :   1.1133
B(  6-C ,  7-H ) :   0.9367 B(  6-C ,  8-H ) :   0.9360 B(  6-C ,  9-C ) :   1.0601
B(  9-C , 10-H ) :   0.9567 B(  9-C , 11-H ) :   0.9603 B(  9-C , 12-C ) :   1.0729
B( 12-C , 13-H ) :   0.9755 B( 12-C , 14-H ) :   0.9767 B( 12-C , 15-H ) :   0.9757
B( 16-S , 17-C ) :   1.1645 B( 16-S , 20-C ) :   1.1513 B( 17-C , 18-C ) :   1.5659
B( 17-C , 33-H ) :   0.9662 B( 18-C , 19-C ) :   1.2869 B( 18-C , 21-H ) :   0.9898
B( 19-C , 20-C ) :   1.5354 B( 19-C , 22-C ) :   1.0347 B( 22-C , 23-H ) :   0.9353
B( 22-C , 24-H ) :   0.9380 B( 22-C , 25-C ) :   1.0596 B( 25-C , 26-H ) :   0.9580
B( 25-C , 27-H ) :   0.9590 B( 25-C , 28-C ) :   1.0718 B( 28-C , 29-H ) :   0.9779
B( 28-C , 30-H ) :   0.9749 B( 28-C , 31-H ) :   0.9743

Dispersion correction           -0.014564563
FINAL SINGLE POINT ENERGY     -1339.876445767901

DIPOLE MOMENT
-------------
                                X             Y             Z
Electronic contribution:     16.34441      -6.31328      24.35772
Nuclear contribution   :    -16.76741       6.39444     -24.83046
                        -----------------------------------------
Total Dipole Moment    :     -0.42300       0.08116      -0.47274
                        -----------------------------------------
Magnitude (a.u.)       :      0.63953
Magnitude (Debye)      :      1.62556

Rotational constants in cm-1:     0.019508     0.008948     0.006487
Rotational constants in MHz :   584.842400   268.265788   194.472990

                             ****ORCA TERMINATED NORMALLY****
TOTAL RUN TIME: 0 days 0 hours 0 minutes 32 seconds 211 msec
