                         Program Version 4.2.1 -  RELEASE  -
|  1> ! wB97X-D3 SP def2-SVP
|  2> %pal
|  3> nprocs 16
|  4> end
|  5>
|  6> * xyz 0 1
|  7> S 	 -45.5136 	 54.3067 	 100.357
|  8> C 	 -46.7369 	 52.9745 	 100.166
|  9> C 	 -46.8553 	 52.5232 	 98.8464
| 10> C 	 -46.0387 	 53.2279 	 97.9983
| 11> C 	 -45.2644 	 54.1905 	 98.6322
| 12> H 	 -45.9814 	 53.2215 	 96.9251
| 13> C 	 -47.8594 	 51.4781 	 98.3586
| 14> H 	 -48.8155 	 51.9297 	 97.9817
| 15> H 	 -48.1435 	 50.8506 	 99.1951
| 16> C 	 -47.3442 	 50.5151 	 97.3127
| 17> H 	 -48.2221 	 49.9406 	 97.1721
| 18> H 	 -46.9101 	 50.972 	 96.3987
| 19> C 	 -46.2174 	 49.6164 	 97.8698
| 20> H 	 -46.6023 	 48.979 	 98.7356
| 21> H 	 -45.7751 	 48.9368 	 97.1585
| 22> H 	 -45.4071 	 50.1505 	 98.4086
| 23> S 	 -44.8134 	 56.4403 	 97.1462
| 24> C 	 -43.1995 	 56.8091 	 96.7053
| 25> C 	 -42.2833 	 56.0516 	 97.3597
| 26> C 	 -42.8531 	 54.9612 	 98.0363
| 27> C 	 -44.2638 	 55.0337 	 97.9967
| 28> H 	 -41.2395 	 56.3359 	 97.2445
| 29> C 	 -42.0578 	 53.862 	 98.6789
| 30> H 	 -41.9934 	 53.1083 	 97.8754
| 31> H 	 -42.6381 	 53.4007 	 99.4787
| 32> C 	 -40.8291 	 54.3234 	 99.3655
| 33> H 	 -40.153 	 54.9353 	 98.664
| 34> H 	 -40.2391 	 53.5106 	 99.642
| 35> C 	 -41.0871 	 55.2881 	 100.537
| 36> H 	 -40.1429 	 55.4741 	 101.205
| 37> H 	 -41.781 	 54.8376 	 101.259
| 38> H 	 -41.4853 	 56.1904 	 100.172
| 39> H 	 -47.2589 	 52.5977 	 100.982
| 40> H 	 -42.8873 	 57.6019 	 96.0189
| 41> *
| 42>
| 43>                          ****END OF INPUT****

CARTESIAN COORDINATES (ANGSTROEM)
---------------------------------
  S    -45.513600   54.306700  100.357000
  C    -46.736900   52.974500  100.166000
  C    -46.855300   52.523200   98.846400
  C    -46.038700   53.227900   97.998300
  C    -45.264400   54.190500   98.632200
  H    -45.981400   53.221500   96.925100
  C    -47.859400   51.478100   98.358600
  H    -48.815500   51.929700   97.981700
  H    -48.143500   50.850600   99.195100
  C    -47.344200   50.515100   97.312700
  H    -48.222100   49.940600   97.172100
  H    -46.910100   50.972000   96.398700
  C    -46.217400   49.616400   97.869800
  H    -46.602300   48.979000   98.735600
  H    -45.775100   48.936800   97.158500
  H    -45.407100   50.150500   98.408600
  S    -44.813400   56.440300   97.146200
  C    -43.199500   56.809100   96.705300
  C    -42.283300   56.051600   97.359700
  C    -42.853100   54.961200   98.036300
  C    -44.263800   55.033700   97.996700
  H    -41.239500   56.335900   97.244500
  C    -42.057800   53.862000   98.678900
  H    -41.993400   53.108300   97.875400
  H    -42.638100   53.400700   99.478700
  C    -40.829100   54.323400   99.365500
  H    -40.153000   54.935300   98.664000
  H    -40.239100   53.510600   99.642000
  C    -41.087100   55.288100  100.537000
  H    -40.142900   55.474100  101.205000
  H    -41.781000   54.837600  101.259000
  H    -41.485300   56.190400  100.172000
  H    -47.258900   52.597700  100.982000
  H    -42.887300   57.601900   96.018900

 Total Charge           Charge          ....    0
 Multiplicity           Mult            ....    1
 Number of Electrons    NEL             ....  134
 Basis Dimension        Dim             ....  322

ORBITAL ENERGIES
----------------

  NO   OCC          E(Eh)            E(eV)
   0   2.0000     -88.969967     -2420.9959
   1   2.0000     -88.963793     -2420.8279
   2   2.0000     -10.324279      -280.9379
   3   2.0000     -10.317720      -280.7594
   4   2.0000     -10.314608      -280.6748
   5   2.0000     -10.309113      -280.5252
   6   2.0000     -10.300322      -280.2860
   7   2.0000     -10.299645      -280.2676
   8   2.0000     -10.295755      -280.1617
   9   2.0000     -10.288005      -279.9508
  10   2.0000     -10.287175      -279.9283
  11   2.0000     -10.286274      -279.9037
  12   2.0000     -10.285678      -279.8875
  13   2.0000     -10.283143      -279.8185
  14   2.0000     -10.280016      -279.7334
  15   2.0000     -10.279025      -279.7065
  16   2.0000      -8.083382      -219.9600
  17   2.0000      -8.079461      -219.8533
  18   2.0000      -6.041654      -164.4018
  19   2.0000      -6.038172      -164.3070
  20   2.0000      -6.037706      -164.2943
  21   2.0000      -6.034376      -164.2037
  22   2.0000      -6.033857      -164.1896
  23   2.0000      -6.030443      -164.0967
  24   2.0000      -1.008292       -27.4370
  25   2.0000      -0.984718       -26.7955
  26   2.0000      -0.917396       -24.9636
  27   2.0000      -0.915680       -24.9169
  28   2.0000      -0.866665       -23.5831
  29   2.0000      -0.848499       -23.0888
  30   2.0000      -0.844609       -22.9830
  31   2.0000      -0.811163       -22.0729
  32   2.0000      -0.784730       -21.3536
  33   2.0000      -0.771183       -20.9849
  34   2.0000      -0.708286       -19.2734
  35   2.0000      -0.697282       -18.9740
  36   2.0000      -0.691500       -18.8167
  37   2.0000      -0.654598       -17.8125
  38   2.0000      -0.638969       -17.3872
  39   2.0000      -0.625370       -17.0172
  40   2.0000      -0.601710       -16.3734
  41   2.0000      -0.567705       -15.4480
  42   2.0000      -0.559428       -15.2228
  43   2.0000      -0.553683       -15.0665
  44   2.0000      -0.539326       -14.6758
  45   2.0000      -0.533562       -14.5190
  46   2.0000      -0.520192       -14.1551
  47   2.0000      -0.516718       -14.0606
  48   2.0000      -0.492726       -13.4078
  49   2.0000      -0.488066       -13.2810
  50   2.0000      -0.486982       -13.2514
  51   2.0000      -0.474486       -12.9114
  52   2.0000      -0.467900       -12.7322
  53   2.0000      -0.463636       -12.6162
  54   2.0000      -0.454669       -12.3722
  55   2.0000      -0.449314       -12.2265
  56   2.0000      -0.448519       -12.2048
  57   2.0000      -0.440976       -11.9996
  58   2.0000      -0.437859       -11.9147
  59   2.0000      -0.423068       -11.5123
  60   2.0000      -0.420548       -11.4437
  61   2.0000      -0.417053       -11.3486
  62   2.0000      -0.407888       -11.0992
  63   2.0000      -0.339951        -9.2505
  64   2.0000      -0.332845        -9.0572
  65   2.0000      -0.316349        -8.6083
  66   2.0000      -0.300846        -8.1864
  67   0.0000       0.038259         1.0411
  68   0.0000       0.059075         1.6075
  69   0.0000       0.104885         2.8541
  70   0.0000       0.124498         3.3878
  71   0.0000       0.127936         3.4813

MULLIKEN ATOMIC CHARGES
-----------------------
   0 S :    0.118399
   1 C :   -0.114745
   2 C :   -0.043396
   3 C :    0.037747
   4 C :   -0.183406
   5 H :    0.007490
   6 C :    0.063514
   7 H :    0.053978
   8 H :    0.010310
   9 C :   -0.055583
  10 H :    0.029000
  11 H :    0.045705
  12 C :   -0.095757
  13 H :    0.021762
  14 H :    0.039029
  15 H :    0.044715
  16 S :    0.131524
  17 C :   -0.095305
  18 C :   -0.059165
  19 C :   -0.040014
  20 C :   -0.211137
  21 H :    0.019701
  22 C :    0.118834
  23 H :    0.048372
  24 H :    0.017618
  25 C :   -0.066043
  26 H :    0.025657
  27 H :    0.015567
  28 C :   -0.067602
  29 H :    0.046125
  30 H :    0.026717
  31 H :    0.038418
  32 H :    0.018268
  33 H :    0.053704
Sum of atomic charges:   -0.0000000

LOEWDIN ATOMIC CHARGES
----------------------
   0 S :    0.391326
   1 C :   -0.165898
   2 C :   -0.062233
   3 C :   -0.059559
   4 C :   -0.194361
   5 H :    0.032417
   6 C :   -0.028409
   7 H :    0.039746
   8 H :    0.028325
   9 C :   -0.041072
  10 H :    0.025902
  11 H :    0.027748
  12 C :   -0.076998
  13 H :    0.027610
  14 H :    0.022243
  15 H :    0.029728
  16 S :    0.431607
  17 C :   -0.197292
  18 C :   -0.081466
  19 C :   -0.052491
  20 C :   -0.222717
  21 H :    0.033659
  22 C :   -0.034180
  23 H :    0.042660
  24 H :    0.029030
  25 C :   -0.043071
  26 H :    0.025255
  27 H :    0.016627
  28 C :   -0.064218
  29 H :    0.038936
  30 H :    0.022360
  31 H :    0.018112
  32 H :    0.008966
  33 H :    0.031709

  Mayer bond orders larger than 0.100000
B(  0-S ,  1-C ) :   1.1357 B(  0-S ,  4-C ) :   1.1588 B(  1-C ,  2-C ) :   1.5938
B(  1-C ,  4-C ) :   0.1111 B(  1-C , 32-H ) :   0.9777 B(  2-C ,  3-C ) :   1.2411
B(  2-C ,  6-C ) :   1.0160 B(  3-C ,  4-C ) :   1.5866 B(  3-C ,  5-H ) :   0.9941
B(  4-C , 20-C ) :   1.0161 B(  6-C ,  7-H ) :   0.9403 B(  6-C ,  8-H ) :   0.9370
B(  6-C ,  9-C ) :   1.0732 B(  9-C , 10-H ) :   0.9548 B(  9-C , 11-H ) :   0.9538
B(  9-C , 12-C ) :   1.0707 B( 12-C , 13-H ) :   0.9714 B( 12-C , 14-H ) :   0.9774
B( 12-C , 15-H ) :   0.9751 B( 16-S , 17-C ) :   1.1700 B( 16-S , 20-C ) :   1.1685
B( 17-C , 18-C ) :   1.6074 B( 17-C , 20-C ) :   0.1032 B( 17-C , 33-H ) :   0.9610
B( 18-C , 19-C ) :   1.2521 B( 18-C , 21-H ) :   0.9905 B( 19-C , 20-C ) :   1.5605
B( 19-C , 22-C ) :   1.0309 B( 22-C , 23-H ) :   0.9277 B( 22-C , 24-H ) :   0.9238
B( 22-C , 25-C ) :   1.0752 B( 25-C , 26-H ) :   0.9492 B( 25-C , 27-H ) :   0.9528
B( 25-C , 28-C ) :   1.0673 B( 28-C , 29-H ) :   0.9740 B( 28-C , 30-H ) :   0.9738
B( 28-C , 31-H ) :   0.9746

Dispersion correction           -0.015115975
FINAL SINGLE POINT ENERGY     -1339.872594383522

DIPOLE MOMENT
-------------
                                X             Y             Z
Electronic contribution:     -7.35254      18.01178      -1.26272
Nuclear contribution   :      7.44330     -18.40655       1.13907
                        -----------------------------------------
Total Dipole Moment    :      0.09076      -0.39477      -0.12366
                        -----------------------------------------
Magnitude (a.u.)       :      0.42352
Magnitude (Debye)      :      1.07651

Rotational constants in cm-1:     0.020561     0.008325     0.007623
Rotational constants in MHz :   616.400150   249.584231   228.544068

                             ****ORCA TERMINATED NORMALLY****
TOTAL RUN TIME: 0 days 0 hours 0 minutes 30 seconds 909 msec
