                         Program Version 4.2.1 -  RELEASE  -
|  1> ! wB97X-D3 SP def2-SVP
|  2> %pal
|  3> nprocs 16
|  4> end
|  5>
|  6> * xyz 0 1
|  7> S 	 -46.1369 	 41.1278 	 81.8645
|  8> C 	 -47.1336 	 41.8313 	 83.1584
|  9> C 	 -46.8183 	 41.2876 	 84.4048
| 10> C 	 -45.8121 	 40.2947 	 84.312
| 11> C 	 -45.4344 	 40.0113 	 82.9995
| 12> H 	 -45.4442 	 39.6962 	 85.1901
| 13> C 	 -47.3929 	 41.6445 	 85.7379
| 14> H 	 -47.7109 	 42.6694 	 85.6292
| 15> H 	 -46.5331 	 41.5628 	 86.4045
| 16> C 	 -48.6451 	 40.9257 	 86.2909
| 17> H 	 -48.9143 	 41.4487 	 87.192
| 18> H 	 -49.4126 	 41.1589 	 85.5356
| 19> C 	 -48.3526 	 39.4035 	 86.4267
| 20> H 	 -49.1858 	 38.9364 	 86.9108
| 21> H 	 -48.2023 	 38.9717 	 85.388
| 22> H 	 -47.5682 	 39.1897 	 87.1781
| 23> S 	 -42.7898 	 39.365 	 82.4023
| 24> C 	 -42.3879 	 37.7324 	 82.2248
| 25> C 	 -43.5067 	 36.9333 	 82.1057
| 26> C 	 -44.743 	 37.6661 	 82.234
| 27> C 	 -44.5016 	 38.9979 	 82.61
| 28> H 	 -43.3975 	 35.852 	 81.9999
| 29> C 	 -46.174 	 37.0911 	 82.0019
| 30> H 	 -46.6722 	 37.3337 	 82.9642
| 31> H 	 -46.0835 	 35.9887 	 81.9231
| 32> C 	 -46.7891 	 37.5391 	 80.6434
| 33> H 	 -46.7793 	 38.5561 	 80.581
| 34> H 	 -47.8166 	 37.2318 	 80.6711
| 35> C 	 -46.146 	 36.9083 	 79.345
| 36> H 	 -46.7068 	 37.1089 	 78.4511
| 37> H 	 -46.0982 	 35.7697 	 79.3783
| 38> H 	 -45.1688 	 37.3514 	 79.206
| 39> H 	 -47.6646 	 42.8051 	 83.1154
| 40> H 	 -41.3533 	 37.3298 	 82.094
| 41> *
| 42>
| 43>                          ****END OF INPUT****

CARTESIAN COORDINATES (ANGSTROEM)
---------------------------------
  S    -46.136900   41.127800   81.864500
  C    -47.133600   41.831300   83.158400
  C    -46.818300   41.287600   84.404800
  C    -45.812100   40.294700   84.312000
  C    -45.434400   40.011300   82.999500
  H    -45.444200   39.696200   85.190100
  C    -47.392900   41.644500   85.737900
  H    -47.710900   42.669400   85.629200
  H    -46.533100   41.562800   86.404500
  C    -48.645100   40.925700   86.290900
  H    -48.914300   41.448700   87.192000
  H    -49.412600   41.158900   85.535600
  C    -48.352600   39.403500   86.426700
  H    -49.185800   38.936400   86.910800
  H    -48.202300   38.971700   85.388000
  H    -47.568200   39.189700   87.178100
  S    -42.789800   39.365000   82.402300
  C    -42.387900   37.732400   82.224800
  C    -43.506700   36.933300   82.105700
  C    -44.743000   37.666100   82.234000
  C    -44.501600   38.997900   82.610000
  H    -43.397500   35.852000   81.999900
  C    -46.174000   37.091100   82.001900
  H    -46.672200   37.333700   82.964200
  H    -46.083500   35.988700   81.923100
  C    -46.789100   37.539100   80.643400
  H    -46.779300   38.556100   80.581000
  H    -47.816600   37.231800   80.671100
  C    -46.146000   36.908300   79.345000
  H    -46.706800   37.108900   78.451100
  H    -46.098200   35.769700   79.378300
  H    -45.168800   37.351400   79.206000
  H    -47.664600   42.805100   83.115400
  H    -41.353300   37.329800   82.094000

 Total Charge           Charge          ....    0
 Multiplicity           Mult            ....    1
 Number of Electrons    NEL             ....  134
 Basis Dimension        Dim             ....  322

ORBITAL ENERGIES
----------------

  NO   OCC          E(Eh)            E(eV)
   0   2.0000     -88.971133     -2421.0276
   1   2.0000     -88.962703     -2420.7982
   2   2.0000     -10.326864      -281.0082
   3   2.0000     -10.319661      -280.8123
   4   2.0000     -10.317735      -280.7598
   5   2.0000     -10.314097      -280.6608
   6   2.0000     -10.305316      -280.4219
   7   2.0000     -10.299183      -280.2550
   8   2.0000     -10.297584      -280.2115
   9   2.0000     -10.296489      -280.1817
  10   2.0000     -10.291473      -280.0452
  11   2.0000     -10.291104      -280.0352
  12   2.0000     -10.287214      -279.9293
  13   2.0000     -10.284184      -279.8469
  14   2.0000     -10.279718      -279.7254
  15   2.0000     -10.278344      -279.6880
  16   2.0000      -8.084811      -219.9989
  17   2.0000      -8.078351      -219.8231
  18   2.0000      -6.043253      -164.4453
  19   2.0000      -6.039435      -164.3414
  20   2.0000      -6.036702      -164.2670
  21   2.0000      -6.035733      -164.2407
  22   2.0000      -6.032743      -164.1593
  23   2.0000      -6.029211      -164.0632
  24   2.0000      -1.005777       -27.3686
  25   2.0000      -0.983398       -26.7596
  26   2.0000      -0.913602       -24.8604
  27   2.0000      -0.898543       -24.4506
  28   2.0000      -0.866114       -23.5682
  29   2.0000      -0.846338       -23.0300
  30   2.0000      -0.841124       -22.8882
  31   2.0000      -0.808298       -21.9949
  32   2.0000      -0.783074       -21.3085
  33   2.0000      -0.769643       -20.9430
  34   2.0000      -0.707690       -19.2572
  35   2.0000      -0.706370       -19.2213
  36   2.0000      -0.690847       -18.7989
  37   2.0000      -0.652413       -17.7531
  38   2.0000      -0.632237       -17.2040
  39   2.0000      -0.609920       -16.5968
  40   2.0000      -0.586470       -15.9587
  41   2.0000      -0.572093       -15.5674
  42   2.0000      -0.551596       -15.0097
  43   2.0000      -0.546575       -14.8731
  44   2.0000      -0.543401       -14.7867
  45   2.0000      -0.539502       -14.6806
  46   2.0000      -0.511406       -13.9161
  47   2.0000      -0.505225       -13.7479
  48   2.0000      -0.501998       -13.6600
  49   2.0000      -0.487961       -13.2781
  50   2.0000      -0.477483       -12.9930
  51   2.0000      -0.475267       -12.9327
  52   2.0000      -0.469441       -12.7742
  53   2.0000      -0.465070       -12.6552
  54   2.0000      -0.459283       -12.4977
  55   2.0000      -0.451602       -12.2887
  56   2.0000      -0.449130       -12.2215
  57   2.0000      -0.438091       -11.9211
  58   2.0000      -0.433368       -11.7925
  59   2.0000      -0.426047       -11.5933
  60   2.0000      -0.424553       -11.5527
  61   2.0000      -0.413312       -11.2468
  62   2.0000      -0.408205       -11.1078
  63   2.0000      -0.334529        -9.1030
  64   2.0000      -0.325943        -8.8694
  65   2.0000      -0.312691        -8.5088
  66   2.0000      -0.311819        -8.4850
  67   0.0000       0.040207         1.0941
  68   0.0000       0.050280         1.3682
  69   0.0000       0.108484         2.9520
  70   0.0000       0.123403         3.3580
  71   0.0000       0.127362         3.4657

MULLIKEN ATOMIC CHARGES
-----------------------
   0 S :    0.123927
   1 C :   -0.129794
   2 C :   -0.123346
   3 C :    0.034332
   4 C :   -0.185663
   5 H :    0.035811
   6 C :    0.052934
   7 H :    0.011300
   8 H :    0.028199
   9 C :   -0.036312
  10 H :    0.031960
  11 H :    0.028315
  12 C :   -0.075584
  13 H :    0.025927
  14 H :    0.070801
  15 H :    0.034437
  16 S :    0.127126
  17 C :   -0.104177
  18 C :   -0.052539
  19 C :   -0.042545
  20 C :   -0.198951
  21 H :    0.021936
  22 C :    0.068275
  23 H :    0.052472
  24 H :    0.016865
  25 C :   -0.009720
  26 H :    0.001947
  27 H :    0.024479
  28 C :   -0.075721
  29 H :    0.032836
  30 H :    0.034778
  31 H :    0.043326
  32 H :    0.060571
  33 H :    0.071798
Sum of atomic charges:   -0.0000000

LOEWDIN ATOMIC CHARGES
----------------------
   0 S :    0.413847
   1 C :   -0.206943
   2 C :   -0.067141
   3 C :   -0.058706
   4 C :   -0.204522
   5 H :    0.042578
   6 C :   -0.035356
   7 H :    0.027352
   8 H :    0.029959
   9 C :   -0.031615
  10 H :    0.023215
  11 H :    0.027289
  12 C :   -0.074984
  13 H :    0.021549
  14 H :    0.040785
  15 H :    0.028823
  16 S :    0.425879
  17 C :   -0.211702
  18 C :   -0.085643
  19 C :   -0.045724
  20 C :   -0.217992
  21 H :    0.032228
  22 C :   -0.030425
  23 H :    0.039973
  24 H :    0.028791
  25 C :   -0.026180
  26 H :    0.000156
  27 H :    0.023498
  28 C :   -0.065334
  29 H :    0.024356
  30 H :    0.029757
  31 H :    0.025691
  32 H :    0.035612
  33 H :    0.040931

  Mayer bond orders larger than 0.100000
B(  0-S ,  1-C ) :   1.1343 B(  0-S ,  4-C ) :   1.1625 B(  1-C ,  2-C ) :   1.6086
B(  1-C ,  4-C ) :   0.1030 B(  1-C , 32-H ) :   0.9561 B(  2-C ,  3-C ) :   1.2560
B(  2-C ,  6-C ) :   1.0216 B(  3-C ,  4-C ) :   1.5713 B(  3-C ,  5-H ) :   0.9820
B(  4-C , 20-C ) :   1.0384 B(  6-C ,  7-H ) :   0.9319 B(  6-C ,  8-H ) :   0.9417
B(  6-C ,  9-C ) :   1.0697 B(  9-C , 10-H ) :   0.9549 B(  9-C , 11-H ) :   0.9536
B(  9-C , 12-C ) :   1.0774 B( 12-C , 13-H ) :   0.9725 B( 12-C , 14-H ) :   0.9688
B( 12-C , 15-H ) :   0.9736 B( 16-S , 17-C ) :   1.1773 B( 16-S , 20-C ) :   1.1485
B( 17-C , 18-C ) :   1.5930 B( 17-C , 20-C ) :   0.1005 B( 17-C , 33-H ) :   0.9596
B( 18-C , 19-C ) :   1.2585 B( 18-C , 21-H ) :   0.9899 B( 19-C , 20-C ) :   1.5725
B( 19-C , 22-C ) :   1.0261 B( 22-C , 23-H ) :   0.9337 B( 22-C , 24-H ) :   0.9387
B( 22-C , 25-C ) :   1.0597 B( 25-C , 26-H ) :   0.9567 B( 25-C , 27-H ) :   0.9552
B( 25-C , 28-C ) :   1.0703 B( 28-C , 29-H ) :   0.9759 B( 28-C , 30-H ) :   0.9758
B( 28-C , 31-H ) :   0.9777

Dispersion correction           -0.015545831
FINAL SINGLE POINT ENERGY     -1339.873748611402

DIPOLE MOMENT
-------------
                                X             Y             Z
Electronic contribution:     17.57988       9.72140      -6.48039
Nuclear contribution   :    -17.90712      -9.91811       6.82986
                        -----------------------------------------
Total Dipole Moment    :     -0.32723      -0.19671       0.34947
                        -----------------------------------------
Magnitude (a.u.)       :      0.51759
Magnitude (Debye)      :      1.31562

Rotational constants in cm-1:     0.019850     0.008558     0.007947
Rotational constants in MHz :   595.092536   256.568599   238.235559

                             ****ORCA TERMINATED NORMALLY****
TOTAL RUN TIME: 0 days 0 hours 0 minutes 29 seconds 465 msec
