                         Program Version 4.2.1 -  RELEASE  -
|  1> ! wB97X-D3 SP def2-SVP
|  2> %pal
|  3> nprocs 16
|  4> end
|  5>
|  6> * xyz 0 1
|  7> S 	 -38.1015 	 15.5338 	 79.1465
|  8> C 	 -37.1306 	 14.5478 	 78.0735
|  9> C 	 -37.9152 	 13.8214 	 77.1798
| 10> C 	 -39.3145 	 14.1463 	 77.2661
| 11> C 	 -39.5907 	 15.125 	 78.2516
| 12> H 	 -40.0583 	 13.8635 	 76.573
| 13> C 	 -37.3456 	 12.9207 	 76.0803
| 14> H 	 -38.2187 	 12.8231 	 75.3669
| 15> H 	 -37.07 	 11.9857 	 76.4355
| 16> C 	 -36.1361 	 13.5934 	 75.2272
| 17> H 	 -35.1459 	 13.79 	 75.728
| 18> H 	 -36.0059 	 12.8461 	 74.4791
| 19> C 	 -36.733 	 14.8675 	 74.5058
| 20> H 	 -36.9452 	 15.6139 	 75.2475
| 21> H 	 -35.9099 	 15.1364 	 73.8078
| 22> H 	 -37.6258 	 14.6641 	 73.9139
| 23> S 	 -40.9648 	 17.3421 	 79.2975
| 24> C 	 -42.6575 	 17.3218 	 79.4391
| 25> C 	 -43.1801 	 16.1644 	 78.9161
| 26> C 	 -42.2472 	 15.3492 	 78.2182
| 27> C 	 -40.8986 	 15.7182 	 78.5417
| 28> H 	 -44.2026 	 16.141 	 79.0133
| 29> C 	 -42.7113 	 14.0438 	 77.6309
| 30> H 	 -42.0789 	 13.9599 	 76.771
| 31> H 	 -43.7777 	 14.1008 	 77.4094
| 32> C 	 -42.4882 	 12.7951 	 78.482
| 33> H 	 -41.4806 	 12.6433 	 78.7581
| 34> H 	 -42.7376 	 11.9883 	 77.8875
| 35> C 	 -43.2868 	 12.8355 	 79.8549
| 36> H 	 -42.961 	 13.5102 	 80.627
| 37> H 	 -43.1394 	 11.8473 	 80.2601
| 38> H 	 -44.3566 	 13.1213 	 79.6665
| 39> H 	 -36.0986 	 14.4324 	 78.1294
| 40> H 	 -43.2004 	 17.9135 	 80.1342
| 41> *
| 42>
| 43>                          ****END OF INPUT****

CARTESIAN COORDINATES (ANGSTROEM)
---------------------------------
  S    -38.101500   15.533800   79.146500
  C    -37.130600   14.547800   78.073500
  C    -37.915200   13.821400   77.179800
  C    -39.314500   14.146300   77.266100
  C    -39.590700   15.125000   78.251600
  H    -40.058300   13.863500   76.573000
  C    -37.345600   12.920700   76.080300
  H    -38.218700   12.823100   75.366900
  H    -37.070000   11.985700   76.435500
  C    -36.136100   13.593400   75.227200
  H    -35.145900   13.790000   75.728000
  H    -36.005900   12.846100   74.479100
  C    -36.733000   14.867500   74.505800
  H    -36.945200   15.613900   75.247500
  H    -35.909900   15.136400   73.807800
  H    -37.625800   14.664100   73.913900
  S    -40.964800   17.342100   79.297500
  C    -42.657500   17.321800   79.439100
  C    -43.180100   16.164400   78.916100
  C    -42.247200   15.349200   78.218200
  C    -40.898600   15.718200   78.541700
  H    -44.202600   16.141000   79.013300
  C    -42.711300   14.043800   77.630900
  H    -42.078900   13.959900   76.771000
  H    -43.777700   14.100800   77.409400
  C    -42.488200   12.795100   78.482000
  H    -41.480600   12.643300   78.758100
  H    -42.737600   11.988300   77.887500
  C    -43.286800   12.835500   79.854900
  H    -42.961000   13.510200   80.627000
  H    -43.139400   11.847300   80.260100
  H    -44.356600   13.121300   79.666500
  H    -36.098600   14.432400   78.129400
  H    -43.200400   17.913500   80.134200

 Total Charge           Charge          ....    0
 Multiplicity           Mult            ....    1
 Number of Electrons    NEL             ....  134
 Basis Dimension        Dim             ....  322

ORBITAL ENERGIES
----------------

  NO   OCC          E(Eh)            E(eV)
   0   2.0000     -88.971372     -2421.0341
   1   2.0000     -88.963256     -2420.8133
   2   2.0000     -10.340180      -281.3706
   3   2.0000     -10.336967      -281.2832
   4   2.0000     -10.311527      -280.5909
   5   2.0000     -10.307843      -280.4907
   6   2.0000     -10.307429      -280.4794
   7   2.0000     -10.304136      -280.3898
   8   2.0000     -10.297990      -280.2226
   9   2.0000     -10.297713      -280.2150
  10   2.0000     -10.297461      -280.2082
  11   2.0000     -10.288491      -279.9641
  12   2.0000     -10.285148      -279.8731
  13   2.0000     -10.278307      -279.6870
  14   2.0000     -10.278246      -279.6853
  15   2.0000     -10.277196      -279.6567
  16   2.0000      -8.085069      -220.0059
  17   2.0000      -8.078338      -219.8228
  18   2.0000      -6.043698      -164.4574
  19   2.0000      -6.039666      -164.3477
  20   2.0000      -6.036811      -164.2700
  21   2.0000      -6.035823      -164.2431
  22   2.0000      -6.032659      -164.1570
  23   2.0000      -6.029260      -164.0645
  24   2.0000      -1.002024       -27.2664
  25   2.0000      -0.981436       -26.7062
  26   2.0000      -0.911260       -24.7966
  27   2.0000      -0.901362       -24.5273
  28   2.0000      -0.865812       -23.5599
  29   2.0000      -0.848106       -23.0781
  30   2.0000      -0.841852       -22.9080
  31   2.0000      -0.812298       -22.1038
  32   2.0000      -0.783466       -21.3192
  33   2.0000      -0.771367       -20.9900
  34   2.0000      -0.716151       -19.4875
  35   2.0000      -0.703513       -19.1436
  36   2.0000      -0.693466       -18.8702
  37   2.0000      -0.663705       -18.0603
  38   2.0000      -0.640282       -17.4229
  39   2.0000      -0.615535       -16.7496
  40   2.0000      -0.588545       -16.0151
  41   2.0000      -0.573497       -15.6056
  42   2.0000      -0.563896       -15.3444
  43   2.0000      -0.550925       -14.9914
  44   2.0000      -0.541843       -14.7443
  45   2.0000      -0.538996       -14.6668
  46   2.0000      -0.513837       -13.9822
  47   2.0000      -0.509582       -13.8664
  48   2.0000      -0.507700       -13.8152
  49   2.0000      -0.492292       -13.3960
  50   2.0000      -0.488959       -13.3052
  51   2.0000      -0.483446       -13.1552
  52   2.0000      -0.477504       -12.9935
  53   2.0000      -0.463447       -12.6110
  54   2.0000      -0.458656       -12.4807
  55   2.0000      -0.450395       -12.2559
  56   2.0000      -0.441702       -12.0193
  57   2.0000      -0.436758       -11.8848
  58   2.0000      -0.431158       -11.7324
  59   2.0000      -0.420032       -11.4296
  60   2.0000      -0.417011       -11.3474
  61   2.0000      -0.414025       -11.2662
  62   2.0000      -0.412485       -11.2243
  63   2.0000      -0.357991        -9.7414
  64   2.0000      -0.332672        -9.0525
  65   2.0000      -0.329323        -8.9613
  66   2.0000      -0.277955        -7.5635
  67   0.0000       0.010738         0.2922
  68   0.0000       0.081992         2.2311
  69   0.0000       0.102882         2.7996
  70   0.0000       0.117306         3.1920
  71   0.0000       0.132772         3.6129

MULLIKEN ATOMIC CHARGES
-----------------------
   0 S :    0.115540
   1 C :   -0.087116
   2 C :   -0.100491
   3 C :    0.012848
   4 C :   -0.116380
   5 H :   -0.006321
   6 C :    0.062253
   7 H :    0.027158
   8 H :    0.030102
   9 C :   -0.105969
  10 H :    0.053569
  11 H :    0.028122
  12 C :   -0.067052
  13 H :    0.054387
  14 H :    0.040738
  15 H :    0.034087
  16 S :    0.093560
  17 C :   -0.074163
  18 C :   -0.032971
  19 C :   -0.037650
  20 C :   -0.145899
  21 H :   -0.010267
  22 C :    0.057381
  23 H :    0.018275
  24 H :    0.025545
  25 C :   -0.009648
  26 H :    0.023203
  27 H :    0.014137
  28 C :   -0.077917
  29 H :    0.044514
  30 H :    0.033810
  31 H :    0.028474
  32 H :    0.021636
  33 H :    0.052504
Sum of atomic charges:    0.0000000

LOEWDIN ATOMIC CHARGES
----------------------
   0 S :    0.398060
   1 C :   -0.190642
   2 C :   -0.060244
   3 C :   -0.065656
   4 C :   -0.177808
   5 H :    0.021141
   6 C :   -0.024316
   7 H :    0.035384
   8 H :    0.018036
   9 C :   -0.037242
  10 H :    0.029771
  11 H :    0.018877
  12 C :   -0.063998
  13 H :    0.024880
  14 H :    0.030161
  15 H :    0.024479
  16 S :    0.408647
  17 C :   -0.199233
  18 C :   -0.065918
  19 C :   -0.050457
  20 C :   -0.184578
  21 H :    0.018923
  22 C :   -0.030838
  23 H :    0.025000
  24 H :    0.032595
  25 C :   -0.023033
  26 H :    0.021139
  27 H :    0.015886
  28 C :   -0.066032
  29 H :    0.025532
  30 H :    0.025825
  31 H :    0.024380
  32 H :    0.015302
  33 H :    0.025979

  Mayer bond orders larger than 0.100000
B(  0-S ,  1-C ) :   1.1301 B(  0-S ,  4-C ) :   1.1498 B(  1-C ,  2-C ) :   1.6008
B(  1-C , 32-H ) :   0.9761 B(  2-C ,  3-C ) :   1.2641 B(  2-C ,  6-C ) :   1.0104
B(  3-C ,  4-C ) :   1.5377 B(  3-C ,  5-H ) :   0.9891 B(  4-C , 20-C ) :   1.1083
B(  6-C ,  7-H ) :   0.9515 B(  6-C ,  8-H ) :   0.9388 B(  6-C ,  9-C ) :   1.0616
B(  9-C , 10-H ) :   0.9591 B(  9-C , 11-H ) :   0.9596 B(  9-C , 12-C ) :   1.0611
B( 12-C , 13-H ) :   0.9783 B( 12-C , 14-H ) :   0.9768 B( 12-C , 15-H ) :   0.9775
B( 16-S , 17-C ) :   1.1680 B( 16-S , 20-C ) :   1.1477 B( 17-C , 18-C ) :   1.6095
B( 17-C , 20-C ) :   0.1038 B( 17-C , 33-H ) :   0.9617 B( 18-C , 19-C ) :   1.2463
B( 18-C , 21-H ) :   0.9992 B( 19-C , 20-C ) :   1.5108 B( 19-C , 22-C ) :   1.0565
B( 22-C , 23-H ) :   0.9245 B( 22-C , 24-H ) :   0.9340 B( 22-C , 25-C ) :   1.0898
B( 25-C , 26-H ) :   0.9482 B( 25-C , 27-H ) :   0.9547 B( 25-C , 28-C ) :   1.0655
B( 28-C , 29-H ) :   0.9766 B( 28-C , 30-H ) :   0.9756 B( 28-C , 31-H ) :   0.9781

Dispersion correction           -0.015163798
FINAL SINGLE POINT ENERGY     -1339.851738431869

DIPOLE MOMENT
-------------
                                X             Y             Z
Electronic contribution:      1.49156      17.35386      13.52188
Nuclear contribution   :     -1.60051     -17.90835     -13.84399
                        -----------------------------------------
Total Dipole Moment    :     -0.10896      -0.55449      -0.32211
                        -----------------------------------------
Magnitude (a.u.)       :      0.65044
Magnitude (Debye)      :      1.65330

Rotational constants in cm-1:     0.021469     0.008323     0.007058
Rotational constants in MHz :   643.619035   249.529681   211.601718

                             ****ORCA TERMINATED NORMALLY****
TOTAL RUN TIME: 0 days 0 hours 0 minutes 30 seconds 997 msec
