                         Program Version 4.2.1 -  RELEASE  -
|  1> ! wB97X-D3 SP def2-SVP
|  2> %pal
|  3> nprocs 16
|  4> end
|  5>
|  6> * xyz 0 1
|  7> S 	 -29.6675 	 28.3907 	 47.7976
|  8> C 	 -28.9477 	 28.4354 	 49.393
|  9> C 	 -29.7893 	 28.9905 	 50.3316
| 10> C 	 -31.0946 	 29.331 	 49.8091
| 11> C 	 -31.1554 	 29.0799 	 48.4663
| 12> H 	 -31.8734 	 29.8096 	 50.3766
| 13> C 	 -29.4178 	 28.9886 	 51.7776
| 14> H 	 -28.3707 	 28.865 	 51.8343
| 15> H 	 -29.8292 	 28.1868 	 52.3707
| 16> C 	 -29.6055 	 30.3112 	 52.514
| 17> H 	 -30.6353 	 30.6661 	 52.464
| 18> H 	 -29.3199 	 30.1983 	 53.5709
| 19> C 	 -28.8639 	 31.4279 	 51.8335
| 20> H 	 -29.2212 	 31.517 	 50.7873
| 21> H 	 -29.0383 	 32.3858 	 52.3258
| 22> H 	 -27.8201 	 31.2439 	 51.7988
| 23> S 	 -31.9658 	 30.793 	 46.3726
| 24> C 	 -33.6646 	 30.9718 	 46.2279
| 25> C 	 -34.4355 	 30.1838 	 47.0167
| 26> C 	 -33.6684 	 29.4239 	 47.8928
| 27> C 	 -32.2857 	 29.5073 	 47.6257
| 28> H 	 -35.5608 	 30.2308 	 46.9124
| 29> C 	 -34.2351 	 28.4468 	 48.9399
| 30> H 	 -34.1428 	 29.0161 	 49.9197
| 31> H 	 -33.4449 	 27.6215 	 49.0197
| 32> C 	 -35.5611 	 27.8815 	 48.6926
| 33> H 	 -35.7132 	 27.6067 	 47.6444
| 34> H 	 -36.2575 	 28.7028 	 48.8857
| 35> C 	 -35.9586 	 26.8146 	 49.7806
| 36> H 	 -36.8556 	 26.3046 	 49.4538
| 37> H 	 -36.1545 	 27.2083 	 50.8212
| 38> H 	 -35.1648 	 26.1006 	 49.8746
| 39> H 	 -27.915 	 28.0857 	 49.521
| 40> H 	 -34.1513 	 31.6582 	 45.5766
| 41> *
| 42>
| 43>                          ****END OF INPUT****

CARTESIAN COORDINATES (ANGSTROEM)
---------------------------------
  S    -29.667500   28.390700   47.797600
  C    -28.947700   28.435400   49.393000
  C    -29.789300   28.990500   50.331600
  C    -31.094600   29.331000   49.809100
  C    -31.155400   29.079900   48.466300
  H    -31.873400   29.809600   50.376600
  C    -29.417800   28.988600   51.777600
  H    -28.370700   28.865000   51.834300
  H    -29.829200   28.186800   52.370700
  C    -29.605500   30.311200   52.514000
  H    -30.635300   30.666100   52.464000
  H    -29.319900   30.198300   53.570900
  C    -28.863900   31.427900   51.833500
  H    -29.221200   31.517000   50.787300
  H    -29.038300   32.385800   52.325800
  H    -27.820100   31.243900   51.798800
  S    -31.965800   30.793000   46.372600
  C    -33.664600   30.971800   46.227900
  C    -34.435500   30.183800   47.016700
  C    -33.668400   29.423900   47.892800
  C    -32.285700   29.507300   47.625700
  H    -35.560800   30.230800   46.912400
  C    -34.235100   28.446800   48.939900
  H    -34.142800   29.016100   49.919700
  H    -33.444900   27.621500   49.019700
  C    -35.561100   27.881500   48.692600
  H    -35.713200   27.606700   47.644400
  H    -36.257500   28.702800   48.885700
  C    -35.958600   26.814600   49.780600
  H    -36.855600   26.304600   49.453800
  H    -36.154500   27.208300   50.821200
  H    -35.164800   26.100600   49.874600
  H    -27.915000   28.085700   49.521000
  H    -34.151300   31.658200   45.576600

 Total Charge           Charge          ....    0
 Multiplicity           Mult            ....    1
 Number of Electrons    NEL             ....  134
 Basis Dimension        Dim             ....  322

ORBITAL ENERGIES
----------------

  NO   OCC          E(Eh)            E(eV)
   0   2.0000     -88.966880     -2420.9119
   1   2.0000     -88.965466     -2420.8734
   2   2.0000     -10.330147      -281.0976
   3   2.0000     -10.326636      -281.0020
   4   2.0000     -10.315046      -280.6867
   5   2.0000     -10.309584      -280.5380
   6   2.0000     -10.303778      -280.3800
   7   2.0000     -10.300726      -280.2970
   8   2.0000     -10.296811      -280.1905
   9   2.0000     -10.294864      -280.1375
  10   2.0000     -10.290818      -280.0274
  11   2.0000     -10.287634      -279.9407
  12   2.0000     -10.283666      -279.8328
  13   2.0000     -10.282100      -279.7902
  14   2.0000     -10.280998      -279.7602
  15   2.0000     -10.267681      -279.3978
  16   2.0000      -8.081228      -219.9014
  17   2.0000      -8.080161      -219.8724
  18   2.0000      -6.039539      -164.3442
  19   2.0000      -6.038631      -164.3195
  20   2.0000      -6.035986      -164.2475
  21   2.0000      -6.034811      -164.2156
  22   2.0000      -6.032013      -164.1394
  23   2.0000      -6.030837      -164.1074
  24   2.0000      -1.003711       -27.3124
  25   2.0000      -0.984328       -26.7849
  26   2.0000      -0.917597       -24.9691
  27   2.0000      -0.913341       -24.8533
  28   2.0000      -0.868221       -23.6255
  29   2.0000      -0.851812       -23.1790
  30   2.0000      -0.845209       -22.9993
  31   2.0000      -0.814056       -22.1516
  32   2.0000      -0.783367       -21.3165
  33   2.0000      -0.769677       -20.9440
  34   2.0000      -0.707108       -19.2414
  35   2.0000      -0.700491       -19.0613
  36   2.0000      -0.687245       -18.7009
  37   2.0000      -0.646427       -17.5902
  38   2.0000      -0.640956       -17.4413
  39   2.0000      -0.624789       -17.0014
  40   2.0000      -0.597819       -16.2675
  41   2.0000      -0.569551       -15.4983
  42   2.0000      -0.565083       -15.3767
  43   2.0000      -0.557166       -15.1613
  44   2.0000      -0.541496       -14.7349
  45   2.0000      -0.527055       -14.3419
  46   2.0000      -0.514724       -14.0063
  47   2.0000      -0.511173       -13.9097
  48   2.0000      -0.497864       -13.5476
  49   2.0000      -0.493587       -13.4312
  50   2.0000      -0.487612       -13.2686
  51   2.0000      -0.473255       -12.8779
  52   2.0000      -0.469236       -12.7686
  53   2.0000      -0.466424       -12.6920
  54   2.0000      -0.458926       -12.4880
  55   2.0000      -0.452575       -12.3152
  56   2.0000      -0.448988       -12.2176
  57   2.0000      -0.440690       -11.9918
  58   2.0000      -0.436898       -11.8886
  59   2.0000      -0.419883       -11.4256
  60   2.0000      -0.418463       -11.3870
  61   2.0000      -0.414052       -11.2669
  62   2.0000      -0.410533       -11.1712
  63   2.0000      -0.347810        -9.4644
  64   2.0000      -0.334413        -9.0999
  65   2.0000      -0.328290        -8.9332
  66   2.0000      -0.289546        -7.8789
  67   0.0000       0.031052         0.8450
  68   0.0000       0.065415         1.7800
  69   0.0000       0.113568         3.0904
  70   0.0000       0.123988         3.3739
  71   0.0000       0.126392         3.4393

MULLIKEN ATOMIC CHARGES
-----------------------
   0 S :    0.102141
   1 C :   -0.136220
   2 C :   -0.097979
   3 C :    0.034014
   4 C :   -0.148981
   5 H :    0.016913
   6 C :    0.110971
   7 H :   -0.006089
   8 H :    0.039938
   9 C :   -0.094931
  10 H :    0.022319
  11 H :    0.032650
  12 C :   -0.057696
  13 H :    0.047437
  14 H :    0.032830
  15 H :    0.016074
  16 S :    0.108469
  17 C :   -0.059036
  18 C :   -0.076049
  19 C :   -0.034554
  20 C :   -0.146224
  21 H :    0.039566
  22 C :    0.007681
  23 H :    0.042814
  24 H :    0.047592
  25 C :   -0.070691
  26 H :    0.042294
  27 H :    0.026540
  28 C :   -0.038377
  29 H :    0.033982
  30 H :    0.041184
  31 H :    0.026218
  32 H :    0.060495
  33 H :    0.034704
Sum of atomic charges:   -0.0000000

LOEWDIN ATOMIC CHARGES
----------------------
   0 S :    0.388899
   1 C :   -0.192616
   2 C :   -0.063221
   3 C :   -0.053801
   4 C :   -0.184554
   5 H :    0.032139
   6 C :   -0.029995
   7 H :    0.023837
   8 H :    0.032231
   9 C :   -0.044767
  10 H :    0.018995
  11 H :    0.025635
  12 C :   -0.064176
  13 H :    0.032546
  14 H :    0.025966
  15 H :    0.014633
  16 S :    0.394455
  17 C :   -0.182477
  18 C :   -0.090838
  19 C :   -0.049798
  20 C :   -0.188785
  21 H :    0.044976
  22 C :   -0.043262
  23 H :    0.037535
  24 H :    0.037549
  25 C :   -0.049533
  26 H :    0.029447
  27 H :    0.026725
  28 C :   -0.059531
  29 H :    0.025991
  30 H :    0.033479
  31 H :    0.019057
  32 H :    0.031277
  33 H :    0.021984

  Mayer bond orders larger than 0.100000
B(  0-S ,  1-C ) :   1.1267 B(  0-S ,  4-C ) :   1.1441 B(  1-C ,  2-C ) :   1.6280
B(  1-C , 32-H ) :   0.9656 B(  2-C ,  3-C ) :   1.2089 B(  2-C ,  6-C ) :   1.0304
B(  3-C ,  4-C ) :   1.5880 B(  3-C ,  5-H ) :   0.9958 B(  4-C , 20-C ) :   1.0261
B(  6-C ,  7-H ) :   0.9340 B(  6-C ,  8-H ) :   0.9398 B(  6-C ,  9-C ) :   1.0685
B(  9-C , 10-H ) :   0.9568 B(  9-C , 11-H ) :   0.9553 B(  9-C , 12-C ) :   1.0801
B( 12-C , 13-H ) :   0.9681 B( 12-C , 14-H ) :   0.9730 B( 12-C , 15-H ) :   0.9759
B( 16-S , 17-C ) :   1.1731 B( 16-S , 20-C ) :   1.1220 B( 17-C , 18-C ) :   1.6145
B( 17-C , 33-H ) :   0.9569 B( 18-C , 19-C ) :   1.2539 B( 18-C , 21-H ) :   0.9811
B( 19-C , 20-C ) :   1.6025 B( 19-C , 22-C ) :   1.0099 B( 22-C , 23-H ) :   0.9237
B( 22-C , 24-H ) :   0.9418 B( 22-C , 25-C ) :   1.0863 B( 25-C , 26-H ) :   0.9586
B( 25-C , 27-H ) :   0.9360 B( 25-C , 28-C ) :   1.0742 B( 28-C , 29-H ) :   0.9748
B( 28-C , 30-H ) :   0.9754 B( 28-C , 31-H ) :   0.9784

Dispersion correction           -0.014231944
FINAL SINGLE POINT ENERGY     -1339.880401337103

DIPOLE MOMENT
-------------
                                X             Y             Z
Electronic contribution:      8.99495       2.70480     -22.75335
Nuclear contribution   :     -9.37626      -2.68105      23.30671
                        -----------------------------------------
Total Dipole Moment    :     -0.38131       0.02375       0.55336
                        -----------------------------------------
Magnitude (a.u.)       :      0.67244
Magnitude (Debye)      :      1.70920

Rotational constants in cm-1:     0.016795     0.008722     0.007173
Rotational constants in MHz :   503.515501   261.474951   215.047258

                             ****ORCA TERMINATED NORMALLY****
TOTAL RUN TIME: 0 days 0 hours 0 minutes 34 seconds 670 msec
