                         Program Version 4.2.1 -  RELEASE  -
|  1> ! wB97X-D3 SP def2-SVP
|  2> %pal
|  3> nprocs 16
|  4> end
|  5>
|  6> * xyz 0 1
|  7> S 	 44.719 	 21.3406 	 47.5297
|  8> C 	 43.2489 	 20.52 	 47.0179
|  9> C 	 43.4738 	 19.4678 	 46.1533
| 10> C 	 44.8979 	 19.229 	 46.0709
| 11> C 	 45.655 	 20.1873 	 46.6718
| 12> H 	 45.4815 	 18.4379 	 45.5957
| 13> C 	 42.4719 	 18.5432 	 45.5629
| 14> H 	 41.5492 	 18.9884 	 45.776
| 15> H 	 42.4711 	 17.6832 	 46.2057
| 16> C 	 42.6441 	 18.2604 	 44.0621
| 17> H 	 43.5726 	 17.6999 	 43.8277
| 18> H 	 41.9513 	 17.5279 	 43.7488
| 19> C 	 42.3716 	 19.5211 	 43.2296
| 20> H 	 43.241 	 20.2108 	 43.3701
| 21> H 	 42.1202 	 19.344 	 42.1693
| 22> H 	 41.5306 	 20.0256 	 43.5503
| 23> S 	 48.0242 	 19.7299 	 48.0372
| 24> C 	 49.6088 	 20.123 	 47.3147
| 25> C 	 49.4009 	 20.681 	 46.0767
| 26> C 	 48.0146 	 20.8048 	 45.7114
| 27> C 	 47.1011 	 20.2537 	 46.6351
| 28> H 	 50.2538 	 20.8733 	 45.4624
| 29> C 	 47.5959 	 21.5556 	 44.4271
| 30> H 	 47.702 	 22.6094 	 44.7072
| 31> H 	 46.5167 	 21.4146 	 44.4135
| 32> C 	 48.1927 	 21.0613 	 43.1404
| 33> H 	 49.2768 	 20.9813 	 43.2745
| 34> H 	 47.9574 	 21.7597 	 42.3406
| 35> C 	 47.6301 	 19.6569 	 42.7414
| 36> H 	 47.7692 	 18.9022 	 43.5129
| 37> H 	 48.2488 	 19.4493 	 41.8875
| 38> H 	 46.63 	 19.5526 	 42.3654
| 39> H 	 42.2753 	 20.6651 	 47.3923
| 40> H 	 50.5271 	 20.0194 	 47.8298
| 41> *
| 42>
| 43>                          ****END OF INPUT****

CARTESIAN COORDINATES (ANGSTROEM)
---------------------------------
  S     44.719000   21.340600   47.529700
  C     43.248900   20.520000   47.017900
  C     43.473800   19.467800   46.153300
  C     44.897900   19.229000   46.070900
  C     45.655000   20.187300   46.671800
  H     45.481500   18.437900   45.595700
  C     42.471900   18.543200   45.562900
  H     41.549200   18.988400   45.776000
  H     42.471100   17.683200   46.205700
  C     42.644100   18.260400   44.062100
  H     43.572600   17.699900   43.827700
  H     41.951300   17.527900   43.748800
  C     42.371600   19.521100   43.229600
  H     43.241000   20.210800   43.370100
  H     42.120200   19.344000   42.169300
  H     41.530600   20.025600   43.550300
  S     48.024200   19.729900   48.037200
  C     49.608800   20.123000   47.314700
  C     49.400900   20.681000   46.076700
  C     48.014600   20.804800   45.711400
  C     47.101100   20.253700   46.635100
  H     50.253800   20.873300   45.462400
  C     47.595900   21.555600   44.427100
  H     47.702000   22.609400   44.707200
  H     46.516700   21.414600   44.413500
  C     48.192700   21.061300   43.140400
  H     49.276800   20.981300   43.274500
  H     47.957400   21.759700   42.340600
  C     47.630100   19.656900   42.741400
  H     47.769200   18.902200   43.512900
  H     48.248800   19.449300   41.887500
  H     46.630000   19.552600   42.365400
  H     42.275300   20.665100   47.392300
  H     50.527100   20.019400   47.829800

 Total Charge           Charge          ....    0
 Multiplicity           Mult            ....    1
 Number of Electrons    NEL             ....  134
 Basis Dimension        Dim             ....  322

ORBITAL ENERGIES
----------------

  NO   OCC          E(Eh)            E(eV)
   0   2.0000     -88.965992     -2420.8877
   1   2.0000     -88.958976     -2420.6968
   2   2.0000     -10.325456      -280.9699
   3   2.0000     -10.321405      -280.8597
   4   2.0000     -10.318341      -280.7763
   5   2.0000     -10.310315      -280.5579
   6   2.0000     -10.305644      -280.4308
   7   2.0000     -10.300784      -280.2986
   8   2.0000     -10.292477      -280.0725
   9   2.0000     -10.291392      -280.0430
  10   2.0000     -10.288675      -279.9691
  11   2.0000     -10.288423      -279.9622
  12   2.0000     -10.287020      -279.9240
  13   2.0000     -10.284076      -279.8439
  14   2.0000     -10.275696      -279.6159
  15   2.0000     -10.272584      -279.5312
  16   2.0000      -8.081147      -219.8992
  17   2.0000      -8.073282      -219.6852
  18   2.0000      -6.039633      -164.3468
  19   2.0000      -6.035649      -164.2384
  20   2.0000      -6.031881      -164.1358
  21   2.0000      -6.031843      -164.1348
  22   2.0000      -6.027691      -164.0218
  23   2.0000      -6.024128      -163.9249
  24   2.0000      -1.006645       -27.3922
  25   2.0000      -0.980111       -26.6702
  26   2.0000      -0.918664       -24.9981
  27   2.0000      -0.905751       -24.6467
  28   2.0000      -0.871424       -23.7126
  29   2.0000      -0.847854       -23.0713
  30   2.0000      -0.838397       -22.8139
  31   2.0000      -0.818385       -22.2694
  32   2.0000      -0.785754       -21.3815
  33   2.0000      -0.772494       -21.0206
  34   2.0000      -0.717420       -19.5220
  35   2.0000      -0.702518       -19.1165
  36   2.0000      -0.697106       -18.9692
  37   2.0000      -0.653685       -17.7877
  38   2.0000      -0.644586       -17.5401
  39   2.0000      -0.617506       -16.8032
  40   2.0000      -0.595098       -16.1934
  41   2.0000      -0.569649       -15.5009
  42   2.0000      -0.562029       -15.2936
  43   2.0000      -0.553370       -15.0580
  44   2.0000      -0.538650       -14.6574
  45   2.0000      -0.534707       -14.5501
  46   2.0000      -0.523968       -14.2579
  47   2.0000      -0.515367       -14.0238
  48   2.0000      -0.504414       -13.7258
  49   2.0000      -0.495219       -13.4756
  50   2.0000      -0.487205       -13.2575
  51   2.0000      -0.475838       -12.9482
  52   2.0000      -0.473014       -12.8714
  53   2.0000      -0.463541       -12.6136
  54   2.0000      -0.459441       -12.5020
  55   2.0000      -0.447871       -12.1872
  56   2.0000      -0.442590       -12.0435
  57   2.0000      -0.438164       -11.9230
  58   2.0000      -0.433628       -11.7996
  59   2.0000      -0.424995       -11.5647
  60   2.0000      -0.421956       -11.4820
  61   2.0000      -0.416011       -11.3202
  62   2.0000      -0.405411       -11.0318
  63   2.0000      -0.334029        -9.0894
  64   2.0000      -0.327608        -8.9147
  65   2.0000      -0.319382        -8.6908
  66   2.0000      -0.310510        -8.4494
  67   0.0000       0.044721         1.2169
  68   0.0000       0.058368         1.5883
  69   0.0000       0.122797         3.3415
  70   0.0000       0.124680         3.3927
  71   0.0000       0.125217         3.4073

MULLIKEN ATOMIC CHARGES
-----------------------
   0 S :    0.131669
   1 C :   -0.097214
   2 C :   -0.116784
   3 C :    0.036762
   4 C :   -0.184667
   5 H :    0.016413
   6 C :    0.123529
   7 H :   -0.011123
   8 H :    0.036683
   9 C :   -0.054351
  10 H :    0.033376
  11 H :    0.011640
  12 C :   -0.041567
  13 H :    0.052606
  14 H :    0.036258
  15 H :    0.008267
  16 S :    0.085266
  17 C :   -0.085383
  18 C :   -0.024860
  19 C :   -0.063142
  20 C :   -0.179022
  21 H :    0.017928
  22 C :    0.087412
  23 H :    0.042534
  24 H :    0.017307
  25 C :   -0.061612
  26 H :    0.031326
  27 H :    0.035508
  28 C :   -0.055160
  29 H :    0.041300
  30 H :    0.023072
  31 H :    0.031715
  32 H :    0.023471
  33 H :    0.050847
Sum of atomic charges:    0.0000000

LOEWDIN ATOMIC CHARGES
----------------------
   0 S :    0.416449
   1 C :   -0.189835
   2 C :   -0.057882
   3 C :   -0.056810
   4 C :   -0.214319
   5 H :    0.034936
   6 C :   -0.026104
   7 H :    0.021570
   8 H :    0.036917
   9 C :   -0.039378
  10 H :    0.028287
  11 H :    0.019596
  12 C :   -0.062051
  13 H :    0.034192
  14 H :    0.030433
  15 H :    0.014627
  16 S :    0.384077
  17 C :   -0.161867
  18 C :   -0.076598
  19 C :   -0.050393
  20 C :   -0.209626
  21 H :    0.028499
  22 C :   -0.038833
  23 H :    0.035119
  24 H :    0.028813
  25 C :   -0.035727
  26 H :    0.023505
  27 H :    0.028594
  28 C :   -0.062627
  29 H :    0.025105
  30 H :    0.025883
  31 H :    0.023172
  32 H :    0.018036
  33 H :    0.024237

  Mayer bond orders larger than 0.100000
B(  0-S ,  1-C ) :   1.1314 B(  0-S ,  4-C ) :   1.1436 B(  1-C ,  2-C ) :   1.6391
B(  1-C , 32-H ) :   0.9658 B(  2-C ,  3-C ) :   1.1872 B(  2-C ,  6-C ) :   1.0230
B(  3-C ,  4-C ) :   1.6339 B(  3-C ,  5-H ) :   0.9879 B(  4-C , 20-C ) :   1.0138
B(  6-C ,  7-H ) :   0.9286 B(  6-C ,  8-H ) :   0.9305 B(  6-C ,  9-C ) :   1.0770
B(  9-C , 10-H ) :   0.9559 B(  9-C , 11-H ) :   0.9518 B(  9-C , 12-C ) :   1.0652
B( 12-C , 13-H ) :   0.9751 B( 12-C , 14-H ) :   0.9748 B( 12-C , 15-H ) :   0.9720
B( 16-S , 17-C ) :   1.1574 B( 16-S , 20-C ) :   1.1384 B( 17-C , 18-C ) :   1.6055
B( 17-C , 20-C ) :   0.1034 B( 17-C , 33-H ) :   0.9740 B( 18-C , 19-C ) :   1.2322
B( 18-C , 21-H ) :   0.9932 B( 19-C , 20-C ) :   1.5945 B( 19-C , 22-C ) :   1.0254
B( 22-C , 23-H ) :   0.9365 B( 22-C , 24-H ) :   0.9300 B( 22-C , 25-C ) :   1.0673
B( 25-C , 26-H ) :   0.9611 B( 25-C , 27-H ) :   0.9518 B( 25-C , 28-C ) :   1.0698
B( 28-C , 29-H ) :   0.9769 B( 28-C , 30-H ) :   0.9735 B( 28-C , 31-H ) :   0.9758

Dispersion correction           -0.015424394
FINAL SINGLE POINT ENERGY     -1339.873583689941

DIPOLE MOMENT
-------------
                                X             Y             Z
Electronic contribution:      7.85198       5.39654      26.40825
Nuclear contribution   :     -8.02543      -5.58445     -26.98402
                        -----------------------------------------
Total Dipole Moment    :     -0.17345      -0.18791      -0.57577
                        -----------------------------------------
Magnitude (a.u.)       :      0.63001
Magnitude (Debye)      :      1.60135

Rotational constants in cm-1:     0.018645     0.009765     0.007441
Rotational constants in MHz :   558.952424   292.752357   223.083170

                             ****ORCA TERMINATED NORMALLY****
TOTAL RUN TIME: 0 days 0 hours 0 minutes 36 seconds 85 msec
