                         Program Version 4.2.1 -  RELEASE  -
|  1> ! wB97X-D3 SP def2-SVP
|  2> %pal
|  3> nprocs 16
|  4> end
|  5>
|  6> * xyz 0 1
|  7> S 	 39.7342 	 26.828 	 82.8964
|  8> C 	 38.7568 	 27.8051 	 83.9716
|  9> C 	 39.5673 	 28.4634 	 84.8679
| 10> C 	 40.9817 	 28.1384 	 84.6652
| 11> C 	 41.2401 	 27.3272 	 83.603
| 12> H 	 41.7769 	 28.4612 	 85.3284
| 13> C 	 39.0868 	 29.2878 	 85.9796
| 14> H 	 38.0387 	 29.5457 	 85.7176
| 15> H 	 39.6968 	 30.1459 	 86.0223
| 16> C 	 39.2276 	 28.6536 	 87.3719
| 17> H 	 38.5577 	 27.8145 	 87.2555
| 18> H 	 40.1815 	 28.2815 	 87.5224
| 19> C 	 39.0473 	 29.6573 	 88.502
| 20> H 	 39.1127 	 28.993 	 89.3133
| 21> H 	 39.8599 	 30.3936 	 88.5666
| 22> H 	 38.0805 	 30.1512 	 88.5583
| 23> S 	 42.506 	 26.8536 	 81.2675
| 24> C 	 44.2771 	 26.5341 	 81.2625
| 25> C 	 44.8817 	 26.6421 	 82.4991
| 26> C 	 43.8804 	 27.0532 	 83.518
| 27> C 	 42.5528 	 27.0639 	 83.0692
| 28> H 	 45.9157 	 26.4851 	 82.7395
| 29> C 	 44.2655 	 27.2998 	 85.0074
| 30> H 	 43.5143 	 26.7645 	 85.6963
| 31> H 	 44.1292 	 28.3261 	 85.2509
| 32> C 	 45.5356 	 26.7146 	 85.5866
| 33> H 	 46.4485 	 27.1861 	 85.1069
| 34> H 	 45.4967 	 25.6933 	 85.2892
| 35> C 	 45.802 	 26.9312 	 87.096
| 36> H 	 46.6458 	 26.337 	 87.4591
| 37> H 	 44.8667 	 26.6646 	 87.6364
| 38> H 	 45.9056 	 27.9984 	 87.2715
| 39> H 	 37.6886 	 27.963 	 84.048
| 40> H 	 44.82 	 26.2336 	 80.3904
| 41> *
| 42>
| 43>                          ****END OF INPUT****

CARTESIAN COORDINATES (ANGSTROEM)
---------------------------------
  S     39.734200   26.828000   82.896400
  C     38.756800   27.805100   83.971600
  C     39.567300   28.463400   84.867900
  C     40.981700   28.138400   84.665200
  C     41.240100   27.327200   83.603000
  H     41.776900   28.461200   85.328400
  C     39.086800   29.287800   85.979600
  H     38.038700   29.545700   85.717600
  H     39.696800   30.145900   86.022300
  C     39.227600   28.653600   87.371900
  H     38.557700   27.814500   87.255500
  H     40.181500   28.281500   87.522400
  C     39.047300   29.657300   88.502000
  H     39.112700   28.993000   89.313300
  H     39.859900   30.393600   88.566600
  H     38.080500   30.151200   88.558300
  S     42.506000   26.853600   81.267500
  C     44.277100   26.534100   81.262500
  C     44.881700   26.642100   82.499100
  C     43.880400   27.053200   83.518000
  C     42.552800   27.063900   83.069200
  H     45.915700   26.485100   82.739500
  C     44.265500   27.299800   85.007400
  H     43.514300   26.764500   85.696300
  H     44.129200   28.326100   85.250900
  C     45.535600   26.714600   85.586600
  H     46.448500   27.186100   85.106900
  H     45.496700   25.693300   85.289200
  C     45.802000   26.931200   87.096000
  H     46.645800   26.337000   87.459100
  H     44.866700   26.664600   87.636400
  H     45.905600   27.998400   87.271500
  H     37.688600   27.963000   84.048000
  H     44.820000   26.233600   80.390400

 Total Charge           Charge          ....    0
 Multiplicity           Mult            ....    1
 Number of Electrons    NEL             ....  134
 Basis Dimension        Dim             ....  322

ORBITAL ENERGIES
----------------

  NO   OCC          E(Eh)            E(eV)
   0   2.0000     -88.966819     -2420.9102
   1   2.0000     -88.964522     -2420.8477
   2   2.0000     -10.336162      -281.2613
   3   2.0000     -10.329367      -281.0764
   4   2.0000     -10.322538      -280.8905
   5   2.0000     -10.317810      -280.7619
   6   2.0000     -10.314048      -280.6595
   7   2.0000     -10.303615      -280.3756
   8   2.0000     -10.299606      -280.2665
   9   2.0000     -10.297239      -280.2021
  10   2.0000     -10.291787      -280.0538
  11   2.0000     -10.290794      -280.0267
  12   2.0000     -10.287699      -279.9425
  13   2.0000     -10.283163      -279.8191
  14   2.0000     -10.280798      -279.7547
  15   2.0000     -10.277863      -279.6749
  16   2.0000      -8.081505      -219.9089
  17   2.0000      -8.077837      -219.8091
  18   2.0000      -6.040319      -164.3654
  19   2.0000      -6.036638      -164.2653
  20   2.0000      -6.035955      -164.2467
  21   2.0000      -6.032701      -164.1581
  22   2.0000      -6.031971      -164.1383
  23   2.0000      -6.028199      -164.0356
  24   2.0000      -1.006058       -27.3762
  25   2.0000      -0.974123       -26.5072
  26   2.0000      -0.921875       -25.0855
  27   2.0000      -0.909083       -24.7374
  28   2.0000      -0.875890       -23.8342
  29   2.0000      -0.852596       -23.2003
  30   2.0000      -0.841892       -22.9090
  31   2.0000      -0.818400       -22.2698
  32   2.0000      -0.782811       -21.3014
  33   2.0000      -0.774935       -21.0870
  34   2.0000      -0.712946       -19.4003
  35   2.0000      -0.702236       -19.1088
  36   2.0000      -0.698152       -18.9977
  37   2.0000      -0.658406       -17.9161
  38   2.0000      -0.638019       -17.3614
  39   2.0000      -0.621118       -16.9015
  40   2.0000      -0.596848       -16.2411
  41   2.0000      -0.578904       -15.7528
  42   2.0000      -0.573642       -15.6096
  43   2.0000      -0.566732       -15.4216
  44   2.0000      -0.532890       -14.5007
  45   2.0000      -0.530371       -14.4321
  46   2.0000      -0.522636       -14.2216
  47   2.0000      -0.511588       -13.9210
  48   2.0000      -0.505590       -13.7578
  49   2.0000      -0.503240       -13.6939
  50   2.0000      -0.490397       -13.3444
  51   2.0000      -0.482390       -13.1265
  52   2.0000      -0.471091       -12.8190
  53   2.0000      -0.462896       -12.5961
  54   2.0000      -0.459805       -12.5119
  55   2.0000      -0.456425       -12.4200
  56   2.0000      -0.452032       -12.3004
  57   2.0000      -0.436883       -11.8882
  58   2.0000      -0.434775       -11.8308
  59   2.0000      -0.428432       -11.6582
  60   2.0000      -0.416487       -11.3332
  61   2.0000      -0.412983       -11.2378
  62   2.0000      -0.406236       -11.0542
  63   2.0000      -0.360881        -9.8201
  64   2.0000      -0.330284        -8.9875
  65   2.0000      -0.323035        -8.7902
  66   2.0000      -0.287172        -7.8143
  67   0.0000       0.021351         0.5810
  68   0.0000       0.076513         2.0820
  69   0.0000       0.101043         2.7495
  70   0.0000       0.120625         3.2824
  71   0.0000       0.128014         3.4834

MULLIKEN ATOMIC CHARGES
-----------------------
   0 S :    0.110181
   1 C :   -0.101781
   2 C :   -0.112132
   3 C :   -0.012833
   4 C :   -0.088690
   5 H :    0.000461
   6 C :    0.091389
   7 H :    0.019744
   8 H :    0.002478
   9 C :   -0.065545
  10 H :    0.023054
  11 H :    0.008860
  12 C :   -0.012924
  13 H :    0.021824
  14 H :    0.038151
  15 H :    0.033932
  16 S :    0.072131
  17 C :   -0.066653
  18 C :   -0.011680
  19 C :   -0.049034
  20 C :   -0.123804
  21 H :    0.023710
  22 C :   -0.016965
  23 H :    0.041529
  24 H :    0.039186
  25 C :   -0.097011
  26 H :    0.030602
  27 H :    0.031959
  28 C :   -0.032312
  29 H :    0.052706
  30 H :    0.023249
  31 H :    0.032215
  32 H :    0.041537
  33 H :    0.052468
Sum of atomic charges:    0.0000000

LOEWDIN ATOMIC CHARGES
----------------------
   0 S :    0.403956
   1 C :   -0.202224
   2 C :   -0.060506
   3 C :   -0.064363
   4 C :   -0.200724
   5 H :    0.026297
   6 C :   -0.034335
   7 H :    0.031877
   8 H :    0.022200
   9 C :   -0.029209
  10 H :    0.024844
  11 H :    0.015732
  12 C :   -0.057177
  13 H :    0.024791
  14 H :    0.029497
  15 H :    0.024919
  16 S :    0.354556
  17 C :   -0.160509
  18 C :   -0.063977
  19 C :   -0.050365
  20 C :   -0.161575
  21 H :    0.032774
  22 C :   -0.043493
  23 H :    0.040722
  24 H :    0.021093
  25 C :   -0.049881
  26 H :    0.022927
  27 H :    0.020455
  28 C :   -0.060648
  29 H :    0.033273
  30 H :    0.024148
  31 H :    0.026097
  32 H :    0.033879
  33 H :    0.024948

  Mayer bond orders larger than 0.100000
B(  0-S ,  1-C ) :   1.1098 B(  0-S ,  4-C ) :   1.1290 B(  1-C ,  2-C ) :   1.6336
B(  1-C , 32-H ) :   0.9632 B(  2-C ,  3-C ) :   1.2120 B(  2-C ,  6-C ) :   1.0576
B(  3-C ,  4-C ) :   1.5750 B(  3-C ,  5-H ) :   0.9924 B(  4-C , 20-C ) :   1.0831
B(  6-C ,  7-H ) :   0.9372 B(  6-C ,  8-H ) :   0.9202 B(  6-C ,  9-C ) :   1.0611
B(  9-C , 10-H ) :   0.9566 B(  9-C , 11-H ) :   0.9541 B(  9-C , 12-C ) :   1.0742
B( 12-C , 13-H ) :   0.9733 B( 12-C , 14-H ) :   0.9714 B( 12-C , 15-H ) :   0.9761
B( 16-S , 17-C ) :   1.1286 B( 16-S , 20-C ) :   1.1001 B( 17-C , 18-C ) :   1.6423
B( 17-C , 33-H ) :   0.9647 B( 18-C , 19-C ) :   1.2045 B( 18-C , 21-H ) :   0.9865
B( 19-C , 20-C ) :   1.6386 B( 19-C , 22-C ) :   1.0235 B( 22-C , 23-H ) :   0.9429
B( 22-C , 24-H ) :   0.9314 B( 22-C , 25-C ) :   1.0640 B( 25-C , 26-H ) :   0.9435
B( 25-C , 27-H ) :   0.9578 B( 25-C , 28-C ) :   1.0803 B( 28-C , 29-H ) :   0.9731
B( 28-C , 30-H ) :   0.9738 B( 28-C , 31-H ) :   0.9746

Dispersion correction           -0.013272020
FINAL SINGLE POINT ENERGY     -1339.859221941894

DIPOLE MOMENT
-------------
                                X             Y             Z
Electronic contribution:     -6.76578      -7.91504     -31.04961
Nuclear contribution   :      7.07469       8.14789      31.85339
                        -----------------------------------------
Total Dipole Moment    :      0.30891       0.23285       0.80378
                        -----------------------------------------
Magnitude (a.u.)       :      0.89202
Magnitude (Debye)      :      2.26734

Rotational constants in cm-1:     0.015779     0.009140     0.005995
Rotational constants in MHz :   473.050694   274.024491   179.715300

                             ****ORCA TERMINATED NORMALLY****
TOTAL RUN TIME: 0 days 0 hours 0 minutes 30 seconds 540 msec
