                         Program Version 4.2.1 -  RELEASE  -
|  1> ! wB97X-D3 SP def2-SVP
|  2> %pal
|  3> nprocs 16
|  4> end
|  5>
|  6> * xyz 0 1
|  7> S 	 -55.6122 	 57.0226 	 134.217
|  8> C 	 -54.1429 	 57.7269 	 133.739
|  9> C 	 -53.7357 	 58.7923 	 134.479
| 10> C 	 -54.5792 	 58.965 	 135.652
| 11> C 	 -55.5965 	 58.0392 	 135.695
| 12> H 	 -54.5036 	 59.7301 	 136.438
| 13> C 	 -52.5767 	 59.7562 	 134.229
| 14> H 	 -52.9775 	 60.7963 	 134.232
| 15> H 	 -52.3009 	 59.6149 	 133.176
| 16> C 	 -51.4008 	 59.6386 	 135.139
| 17> H 	 -51.6394 	 59.7853 	 136.258
| 18> H 	 -51.0608 	 58.5931 	 135.109
| 19> C 	 -50.1839 	 60.5487 	 134.881
| 20> H 	 -49.4303 	 60.587 	 135.694
| 21> H 	 -49.57 	 60.2012 	 134.025
| 22> H 	 -50.5083 	 61.5785 	 134.717
| 23> S 	 -58.1966 	 57.7289 	 136.247
| 24> C 	 -58.7432 	 57.766 	 137.884
| 25> C 	 -57.7384 	 57.9771 	 138.776
| 26> C 	 -56.4528 	 57.9169 	 138.157
| 27> C 	 -56.5776 	 57.834 	 136.764
| 28> H 	 -57.9774 	 58.0735 	 139.843
| 29> C 	 -55.2242 	 58.1329 	 138.944
| 30> H 	 -55.4562 	 58.25 	 140.008
| 31> H 	 -54.7671 	 58.9941 	 138.489
| 32> C 	 -54.2012 	 57.0465 	 138.926
| 33> H 	 -53.2307 	 57.1721 	 139.514
| 34> H 	 -53.7771 	 57.0611 	 137.937
| 35> C 	 -54.7879 	 55.6419 	 139.139
| 36> H 	 -55.5701 	 55.3223 	 138.421
| 37> H 	 -55.2175 	 55.6525 	 140.184
| 38> H 	 -54.0173 	 54.8358 	 139.002
| 39> H 	 -53.6642 	 57.2926 	 132.829
| 40> H 	 -59.7349 	 57.7957 	 138.262
| 41> *
| 42>
| 43>                          ****END OF INPUT****

CARTESIAN COORDINATES (ANGSTROEM)
---------------------------------
  S    -55.612200   57.022600  134.217000
  C    -54.142900   57.726900  133.739000
  C    -53.735700   58.792300  134.479000
  C    -54.579200   58.965000  135.652000
  C    -55.596500   58.039200  135.695000
  H    -54.503600   59.730100  136.438000
  C    -52.576700   59.756200  134.229000
  H    -52.977500   60.796300  134.232000
  H    -52.300900   59.614900  133.176000
  C    -51.400800   59.638600  135.139000
  H    -51.639400   59.785300  136.258000
  H    -51.060800   58.593100  135.109000
  C    -50.183900   60.548700  134.881000
  H    -49.430300   60.587000  135.694000
  H    -49.570000   60.201200  134.025000
  H    -50.508300   61.578500  134.717000
  S    -58.196600   57.728900  136.247000
  C    -58.743200   57.766000  137.884000
  C    -57.738400   57.977100  138.776000
  C    -56.452800   57.916900  138.157000
  C    -56.577600   57.834000  136.764000
  H    -57.977400   58.073500  139.843000
  C    -55.224200   58.132900  138.944000
  H    -55.456200   58.250000  140.008000
  H    -54.767100   58.994100  138.489000
  C    -54.201200   57.046500  138.926000
  H    -53.230700   57.172100  139.514000
  H    -53.777100   57.061100  137.937000
  C    -54.787900   55.641900  139.139000
  H    -55.570100   55.322300  138.421000
  H    -55.217500   55.652500  140.184000
  H    -54.017300   54.835800  139.002000
  H    -53.664200   57.292600  132.829000
  H    -59.734900   57.795700  138.262000

 Total Charge           Charge          ....    0
 Multiplicity           Mult            ....    1
 Number of Electrons    NEL             ....  134
 Basis Dimension        Dim             ....  322

ORBITAL ENERGIES
----------------

  NO   OCC          E(Eh)            E(eV)
   0   2.0000     -88.967707     -2420.9344
   1   2.0000     -88.965011     -2420.8610
   2   2.0000     -10.331471      -281.1336
   3   2.0000     -10.322404      -280.8869
   4   2.0000     -10.314901      -280.6827
   5   2.0000     -10.307815      -280.4899
   6   2.0000     -10.304332      -280.3951
   7   2.0000     -10.301162      -280.3089
   8   2.0000     -10.298870      -280.2465
   9   2.0000     -10.297356      -280.2053
  10   2.0000     -10.293591      -280.1029
  11   2.0000     -10.290491      -280.0185
  12   2.0000     -10.284870      -279.8655
  13   2.0000     -10.284643      -279.8594
  14   2.0000     -10.279930      -279.7311
  15   2.0000     -10.278109      -279.6816
  16   2.0000      -8.083601      -219.9660
  17   2.0000      -8.080592      -219.8841
  18   2.0000      -6.042013      -164.4115
  19   2.0000      -6.038998      -164.3295
  20   2.0000      -6.037969      -164.3015
  21   2.0000      -6.035201      -164.2262
  22   2.0000      -6.034379      -164.2038
  23   2.0000      -6.031195      -164.1172
  24   2.0000      -1.013532       -27.5796
  25   2.0000      -0.990455       -26.9517
  26   2.0000      -0.917632       -24.9700
  27   2.0000      -0.911800       -24.8113
  28   2.0000      -0.873509       -23.7694
  29   2.0000      -0.852129       -23.1876
  30   2.0000      -0.844798       -22.9881
  31   2.0000      -0.815968       -22.2036
  32   2.0000      -0.782783       -21.3006
  33   2.0000      -0.771804       -21.0018
  34   2.0000      -0.707336       -19.2476
  35   2.0000      -0.696027       -18.9399
  36   2.0000      -0.682212       -18.5639
  37   2.0000      -0.666952       -18.1487
  38   2.0000      -0.643076       -17.4990
  39   2.0000      -0.621115       -16.9014
  40   2.0000      -0.588063       -16.0020
  41   2.0000      -0.570652       -15.5282
  42   2.0000      -0.566535       -15.4162
  43   2.0000      -0.552159       -15.0250
  44   2.0000      -0.543521       -14.7900
  45   2.0000      -0.524847       -14.2818
  46   2.0000      -0.517563       -14.0836
  47   2.0000      -0.510667       -13.8960
  48   2.0000      -0.499639       -13.5959
  49   2.0000      -0.496068       -13.4987
  50   2.0000      -0.490830       -13.3562
  51   2.0000      -0.480026       -13.0622
  52   2.0000      -0.474628       -12.9153
  53   2.0000      -0.467060       -12.7094
  54   2.0000      -0.461967       -12.5708
  55   2.0000      -0.450601       -12.2615
  56   2.0000      -0.441648       -12.0178
  57   2.0000      -0.437633       -11.9086
  58   2.0000      -0.428777       -11.6676
  59   2.0000      -0.424238       -11.5441
  60   2.0000      -0.423555       -11.5255
  61   2.0000      -0.408760       -11.1229
  62   2.0000      -0.400110       -10.8875
  63   2.0000      -0.355079        -9.6622
  64   2.0000      -0.334965        -9.1149
  65   2.0000      -0.328909        -8.9501
  66   2.0000      -0.287918        -7.8346
  67   0.0000       0.030614         0.8331
  68   0.0000       0.073028         1.9872
  69   0.0000       0.102243         2.7822
  70   0.0000       0.120594         3.2815
  71   0.0000       0.132622         3.6088

MULLIKEN ATOMIC CHARGES
-----------------------
   0 S :    0.104921
   1 C :   -0.146080
   2 C :   -0.067753
   3 C :    0.005004
   4 C :   -0.148032
   5 H :    0.028393
   6 C :    0.087225
   7 H :    0.033732
   8 H :    0.015542
   9 C :   -0.098215
  10 H :    0.035928
  11 H :    0.029715
  12 C :   -0.058229
  13 H :    0.037172
  14 H :    0.034562
  15 H :    0.030445
  16 S :    0.122056
  17 C :   -0.060305
  18 C :   -0.069430
  19 C :   -0.062931
  20 C :   -0.142070
  21 H :    0.027550
  22 C :    0.123299
  23 H :    0.019689
  24 H :    0.018361
  25 C :   -0.090658
  26 H :    0.037923
  27 H :    0.017540
  28 C :   -0.086644
  29 H :    0.053065
  30 H :    0.031042
  31 H :    0.037899
  32 H :    0.063188
  33 H :    0.036098
Sum of atomic charges:    0.0000000

LOEWDIN ATOMIC CHARGES
----------------------
   0 S :    0.396146
   1 C :   -0.209035
   2 C :   -0.065296
   3 C :   -0.059874
   4 C :   -0.179501
   5 H :    0.035795
   6 C :   -0.036276
   7 H :    0.035762
   8 H :    0.030988
   9 C :   -0.054721
  10 H :    0.030895
  11 H :    0.026622
  12 C :   -0.072241
  13 H :    0.030501
  14 H :    0.026844
  15 H :    0.023405
  16 S :    0.439994
  17 C :   -0.193052
  18 C :   -0.069603
  19 C :   -0.053702
  20 C :   -0.216825
  21 H :    0.036722
  22 C :   -0.032897
  23 H :    0.031769
  24 H :    0.031713
  25 C :   -0.055338
  26 H :    0.033715
  27 H :    0.018463
  28 C :   -0.075818
  29 H :    0.030513
  30 H :    0.025419
  31 H :    0.029583
  32 H :    0.034660
  33 H :    0.024671

  Mayer bond orders larger than 0.100000
B(  0-S ,  1-C ) :   1.1430 B(  0-S ,  4-C ) :   1.1347 B(  1-C ,  2-C ) :   1.6448
B(  1-C , 32-H ) :   0.9598 B(  2-C ,  3-C ) :   1.1962 B(  2-C ,  6-C ) :   1.0250
B(  3-C ,  4-C ) :   1.6177 B(  3-C ,  5-H ) :   0.9887 B(  4-C , 20-C ) :   1.0241
B(  6-C ,  7-H ) :   0.9341 B(  6-C ,  8-H ) :   0.9375 B(  6-C ,  9-C ) :   1.0627
B(  9-C , 10-H ) :   0.9552 B(  9-C , 11-H ) :   0.9529 B(  9-C , 12-C ) :   1.0792
B( 12-C , 13-H ) :   0.9756 B( 12-C , 14-H ) :   0.9754 B( 12-C , 15-H ) :   0.9746
B( 16-S , 17-C ) :   1.1533 B( 16-S , 20-C ) :   1.1646 B( 17-C , 18-C ) :   1.6277
B( 17-C , 33-H ) :   0.9665 B( 18-C , 19-C ) :   1.2472 B( 18-C , 21-H ) :   0.9859
B( 19-C , 20-C ) :   1.5614 B( 19-C , 22-C ) :   1.0462 B( 22-C , 23-H ) :   0.9328
B( 22-C , 24-H ) :   0.9254 B( 22-C , 25-C ) :   1.0719 B( 25-C , 26-H ) :   0.9566
B( 25-C , 27-H ) :   0.9451 B( 25-C , 28-C ) :   1.0803 B( 28-C , 29-H ) :   0.9673
B( 28-C , 30-H ) :   0.9775 B( 28-C , 31-H ) :   0.9739

Dispersion correction           -0.014969326
FINAL SINGLE POINT ENERGY     -1339.881313635587

DIPOLE MOMENT
-------------
                                X             Y             Z
Electronic contribution:    -26.01390      -5.72285     -10.39005
Nuclear contribution   :     26.45004       6.05876      10.61730
                        -----------------------------------------
Total Dipole Moment    :      0.43613       0.33591       0.22724
                        -----------------------------------------
Magnitude (a.u.)       :      0.59555
Magnitude (Debye)      :      1.51378

Rotational constants in cm-1:     0.020286     0.008646     0.007091
Rotational constants in MHz :   608.156499   259.191259   212.596729

                             ****ORCA TERMINATED NORMALLY****
TOTAL RUN TIME: 0 days 0 hours 0 minutes 36 seconds 665 msec
