                         Program Version 4.2.1 -  RELEASE  -
|  1> ! wB97X-D3 SP def2-SVP
|  2> %pal
|  3> nprocs 16
|  4> end
|  5>
|  6> * xyz 0 1
|  7> S 	 -27.4008 	 62.9965 	 103.818
|  8> C 	 -29.0277 	 63.5679 	 103.673
|  9> C 	 -29.8951 	 63.1039 	 104.634
| 10> C 	 -29.1961 	 62.1406 	 105.417
| 11> C 	 -27.8807 	 61.9234 	 105.072
| 12> H 	 -29.683 	 61.6639 	 106.264
| 13> C 	 -31.3263 	 63.619 	 104.907
| 14> H 	 -31.2822 	 64.5979 	 104.67
| 15> H 	 -31.5664 	 63.409 	 105.918
| 16> C 	 -32.4883 	 63.0741 	 104.017
| 17> H 	 -33.4235 	 63.5549 	 104.261
| 18> H 	 -32.1948 	 63.2568 	 103.005
| 19> C 	 -32.6747 	 61.5613 	 104.263
| 20> H 	 -33.0139 	 61.3813 	 105.262
| 21> H 	 -33.5855 	 61.1873 	 103.724
| 22> H 	 -31.7595 	 61.1414 	 103.96
| 23> S 	 -25.4229 	 61.677 	 106.091
| 24> C 	 -24.919 	 60.1313 	 106.756
| 25> C 	 -25.93 	 59.2387 	 106.83
| 26> C 	 -27.1767 	 59.7185 	 106.279
| 27> C 	 -27.0072 	 61.0115 	 105.752
| 28> H 	 -25.8087 	 58.2247 	 107.208
| 29> C 	 -28.5115 	 58.9005 	 106.245
| 30> H 	 -28.8653 	 59.1384 	 105.232
| 31> H 	 -29.1667 	 59.4088 	 107.017
| 32> C 	 -28.48 	 57.3773 	 106.611
| 33> H 	 -27.5788 	 56.8979 	 106.189
| 34> H 	 -29.307 	 56.9679 	 106.104
| 35> C 	 -28.4976 	 56.9679 	 108.126
| 36> H 	 -27.9561 	 57.7465 	 108.628
| 37> H 	 -28.2583 	 55.915 	 108.287
| 38> H 	 -29.5055 	 57.0051 	 108.475
| 39> H 	 -29.4324 	 64.3043 	 102.97
| 40> H 	 -23.9499 	 59.944 	 107.12
| 41> *
| 42>
| 43>                          ****END OF INPUT****

CARTESIAN COORDINATES (ANGSTROEM)
---------------------------------
  S    -27.400800   62.996500  103.818000
  C    -29.027700   63.567900  103.673000
  C    -29.895100   63.103900  104.634000
  C    -29.196100   62.140600  105.417000
  C    -27.880700   61.923400  105.072000
  H    -29.683000   61.663900  106.264000
  C    -31.326300   63.619000  104.907000
  H    -31.282200   64.597900  104.670000
  H    -31.566400   63.409000  105.918000
  C    -32.488300   63.074100  104.017000
  H    -33.423500   63.554900  104.261000
  H    -32.194800   63.256800  103.005000
  C    -32.674700   61.561300  104.263000
  H    -33.013900   61.381300  105.262000
  H    -33.585500   61.187300  103.724000
  H    -31.759500   61.141400  103.960000
  S    -25.422900   61.677000  106.091000
  C    -24.919000   60.131300  106.756000
  C    -25.930000   59.238700  106.830000
  C    -27.176700   59.718500  106.279000
  C    -27.007200   61.011500  105.752000
  H    -25.808700   58.224700  107.208000
  C    -28.511500   58.900500  106.245000
  H    -28.865300   59.138400  105.232000
  H    -29.166700   59.408800  107.017000
  C    -28.480000   57.377300  106.611000
  H    -27.578800   56.897900  106.189000
  H    -29.307000   56.967900  106.104000
  C    -28.497600   56.967900  108.126000
  H    -27.956100   57.746500  108.628000
  H    -28.258300   55.915000  108.287000
  H    -29.505500   57.005100  108.475000
  H    -29.432400   64.304300  102.970000
  H    -23.949900   59.944000  107.120000

 Total Charge           Charge          ....    0
 Multiplicity           Mult            ....    1
 Number of Electrons    NEL             ....  134
 Basis Dimension        Dim             ....  322

ORBITAL ENERGIES
----------------

  NO   OCC          E(Eh)            E(eV)
   0   2.0000     -88.971518     -2421.0381
   1   2.0000     -88.962542     -2420.7938
   2   2.0000     -10.323863      -280.9266
   3   2.0000     -10.322827      -280.8984
   4   2.0000     -10.311246      -280.5833
   5   2.0000     -10.309630      -280.5393
   6   2.0000     -10.307051      -280.4691
   7   2.0000     -10.304992      -280.4131
   8   2.0000     -10.298677      -280.2413
   9   2.0000     -10.291718      -280.0519
  10   2.0000     -10.290306      -280.0134
  11   2.0000     -10.289471      -279.9907
  12   2.0000     -10.286099      -279.8990
  13   2.0000     -10.285060      -279.8707
  14   2.0000     -10.279836      -279.7286
  15   2.0000     -10.273143      -279.5464
  16   2.0000      -8.086740      -220.0514
  17   2.0000      -8.077482      -219.7994
  18   2.0000      -6.045169      -164.4974
  19   2.0000      -6.041308      -164.3923
  20   2.0000      -6.037415      -164.2864
  21   2.0000      -6.035966      -164.2470
  22   2.0000      -6.032107      -164.1420
  23   2.0000      -6.028135      -164.0339
  24   2.0000      -1.011831       -27.5333
  25   2.0000      -0.984370       -26.7861
  26   2.0000      -0.914349       -24.8807
  27   2.0000      -0.900287       -24.4981
  28   2.0000      -0.872733       -23.7483
  29   2.0000      -0.852773       -23.2051
  30   2.0000      -0.843444       -22.9513
  31   2.0000      -0.814421       -22.1615
  32   2.0000      -0.788159       -21.4469
  33   2.0000      -0.774757       -21.0822
  34   2.0000      -0.708682       -19.2842
  35   2.0000      -0.703208       -19.1353
  36   2.0000      -0.696294       -18.9471
  37   2.0000      -0.657779       -17.8991
  38   2.0000      -0.633401       -17.2357
  39   2.0000      -0.618747       -16.8370
  40   2.0000      -0.594157       -16.1678
  41   2.0000      -0.582397       -15.8478
  42   2.0000      -0.559717       -15.2307
  43   2.0000      -0.557282       -15.1644
  44   2.0000      -0.547854       -14.9079
  45   2.0000      -0.536075       -14.5873
  46   2.0000      -0.516653       -14.0589
  47   2.0000      -0.508430       -13.8351
  48   2.0000      -0.502288       -13.6680
  49   2.0000      -0.495350       -13.4791
  50   2.0000      -0.492123       -13.3914
  51   2.0000      -0.480483       -13.0746
  52   2.0000      -0.468597       -12.7512
  53   2.0000      -0.465384       -12.6637
  54   2.0000      -0.456517       -12.4225
  55   2.0000      -0.456300       -12.4166
  56   2.0000      -0.446445       -12.1484
  57   2.0000      -0.441671       -12.0185
  58   2.0000      -0.433712       -11.8019
  59   2.0000      -0.426779       -11.6132
  60   2.0000      -0.423877       -11.5343
  61   2.0000      -0.418029       -11.3752
  62   2.0000      -0.412450       -11.2233
  63   2.0000      -0.353075        -9.6077
  64   2.0000      -0.333642        -9.0789
  65   2.0000      -0.328616        -8.9421
  66   2.0000      -0.284130        -7.7316
  67   0.0000       0.028378         0.7722
  68   0.0000       0.075539         2.0555
  69   0.0000       0.106545         2.8992
  70   0.0000       0.128557         3.4982
  71   0.0000       0.132579         3.6077

MULLIKEN ATOMIC CHARGES
-----------------------
   0 S :    0.140066
   1 C :   -0.124094
   2 C :   -0.127805
   3 C :   -0.003762
   4 C :   -0.133648
   5 H :    0.001254
   6 C :    0.152019
   7 H :    0.000454
   8 H :    0.013029
   9 C :   -0.070174
  10 H :    0.029373
  11 H :    0.022013
  12 C :   -0.046146
  13 H :    0.016223
  14 H :    0.031860
  15 H :    0.043811
  16 S :    0.089955
  17 C :   -0.054768
  18 C :   -0.037618
  19 C :   -0.058718
  20 C :   -0.159090
  21 H :    0.020156
  22 C :    0.019984
  23 H :    0.052865
  24 H :    0.054193
  25 C :   -0.069190
  26 H :    0.033627
  27 H :    0.024665
  28 C :   -0.037392
  29 H :    0.039173
  30 H :    0.044054
  31 H :    0.018958
  32 H :    0.040486
  33 H :    0.034187
Sum of atomic charges:   -0.0000000

LOEWDIN ATOMIC CHARGES
----------------------
   0 S :    0.432373
   1 C :   -0.208041
   2 C :   -0.064641
   3 C :   -0.063421
   4 C :   -0.215928
   5 H :    0.027487
   6 C :   -0.010324
   7 H :    0.017284
   8 H :    0.025734
   9 C :   -0.027450
  10 H :    0.021439
  11 H :    0.017794
  12 C :   -0.062801
  13 H :    0.019306
  14 H :    0.030671
  15 H :    0.020932
  16 S :    0.392564
  17 C :   -0.174726
  18 C :   -0.074123
  19 C :   -0.055605
  20 C :   -0.193728
  21 H :    0.033417
  22 C :   -0.034198
  23 H :    0.039518
  24 H :    0.037853
  25 C :   -0.041899
  26 H :    0.024677
  27 H :    0.020706
  28 C :   -0.063468
  29 H :    0.025246
  30 H :    0.032895
  31 H :    0.021636
  32 H :    0.029596
  33 H :    0.019221

  Mayer bond orders larger than 0.100000
B(  0-S ,  1-C ) :   1.1487 B(  0-S ,  4-C ) :   1.1457 B(  1-C ,  2-C ) :   1.6173
B(  1-C , 32-H ) :   0.9557 B(  2-C ,  3-C ) :   1.2619 B(  2-C ,  6-C ) :   1.0068
B(  3-C ,  4-C ) :   1.5411 B(  3-C ,  5-H ) :   0.9971 B(  4-C , 20-C ) :   1.0691
B(  6-C ,  7-H ) :   0.9294 B(  6-C ,  8-H ) :   0.9428 B(  6-C ,  9-C ) :   1.0753
B(  9-C , 10-H ) :   0.9575 B(  9-C , 11-H ) :   0.9583 B(  9-C , 12-C ) :   1.0784
B( 12-C , 13-H ) :   0.9748 B( 12-C , 14-H ) :   0.9733 B( 12-C , 15-H ) :   0.9790
B( 16-S , 17-C ) :   1.1334 B( 16-S , 20-C ) :   1.1416 B( 17-C , 18-C ) :   1.6287
B( 17-C , 33-H ) :   0.9706 B( 18-C , 19-C ) :   1.2391 B( 18-C , 21-H ) :   0.9821
B( 19-C , 20-C ) :   1.6055 B( 19-C , 22-C ) :   1.0091 B( 22-C , 23-H ) :   0.9378
B( 22-C , 24-H ) :   0.9372 B( 22-C , 25-C ) :   1.0631 B( 25-C , 26-H ) :   0.9610
B( 25-C , 27-H ) :   0.9555 B( 25-C , 28-C ) :   1.0644 B( 28-C , 29-H ) :   0.9805
B( 28-C , 30-H ) :   0.9750 B( 28-C , 31-H ) :   0.9734

Dispersion correction           -0.014150629
FINAL SINGLE POINT ENERGY     -1339.864685355432

DIPOLE MOMENT
-------------
                                X             Y             Z
Electronic contribution:     25.52284      14.86935      -5.48209
Nuclear contribution   :    -26.19526     -15.16150       5.71333
                        -----------------------------------------
Total Dipole Moment    :     -0.67242      -0.29216       0.23123
                        -----------------------------------------
Magnitude (a.u.)       :      0.76875
Magnitude (Debye)      :      1.95401

Rotational constants in cm-1:     0.017437     0.009136     0.006309
Rotational constants in MHz :   522.749334   273.898035   189.151212

                             ****ORCA TERMINATED NORMALLY****
TOTAL RUN TIME: 0 days 0 hours 0 minutes 30 seconds 75 msec
