                         Program Version 4.2.1 -  RELEASE  -
|  1> ! wB97X-D3 SP def2-SVP
|  2> %pal
|  3> nprocs 16
|  4> end
|  5>
|  6> * xyz 0 1
|  7> S 	 -52.8175 	 26.2166 	 96.6871
|  8> C 	 -51.1114 	 26.1007 	 96.5481
|  9> C 	 -50.6136 	 26.4793 	 95.3019
| 10> C 	 -51.6239 	 27.1044 	 94.4412
| 11> C 	 -52.845 	 27.1159 	 95.1156
| 12> H 	 -51.5539 	 27.5225 	 93.4124
| 13> C 	 -49.158 	 26.3087 	 94.8713
| 14> H 	 -48.6718 	 27.1827 	 95.1044
| 15> H 	 -48.9809 	 26.1739 	 93.8168
| 16> C 	 -48.4923 	 25.1186 	 95.4838
| 17> H 	 -48.4612 	 25.351 	 96.523
| 18> H 	 -48.9092 	 24.1784 	 95.3821
| 19> C 	 -47.0285 	 25.1298 	 95.0666
| 20> H 	 -46.438 	 24.414 	 95.5606
| 21> H 	 -46.9397 	 25.0023 	 93.999
| 22> H 	 -46.6249 	 26.0834 	 95.4707
| 23> S 	 -55.1353 	 26.7264 	 93.6051
| 24> C 	 -56.1048 	 28.1117 	 93.2509
| 25> C 	 -55.7273 	 29.2209 	 93.9934
| 26> C 	 -54.4993 	 29.0593 	 94.723
| 27> C 	 -54.0828 	 27.7443 	 94.6442
| 28> H 	 -56.1768 	 30.0925 	 93.6575
| 29> C 	 -53.6903 	 30.1723 	 95.3862
| 30> H 	 -53.0996 	 30.622 	 94.5591
| 31> H 	 -52.8368 	 29.8152 	 95.9586
| 32> C 	 -54.4692 	 31.3339 	 96.154
| 33> H 	 -54.8388 	 31.0685 	 97.1665
| 34> H 	 -55.446 	 31.4591 	 95.6384
| 35> C 	 -53.632 	 32.5965 	 96.2328
| 36> H 	 -52.6125 	 32.2929 	 96.4336
| 37> H 	 -53.8335 	 33.3615 	 96.9706
| 38> H 	 -53.6772 	 33.0313 	 95.2591
| 39> H 	 -50.5297 	 25.536 	 97.3198
| 40> H 	 -57.0378 	 28.1385 	 92.6794
| 41> *
| 42>
| 43>                          ****END OF INPUT****

CARTESIAN COORDINATES (ANGSTROEM)
---------------------------------
  S    -52.817500   26.216600   96.687100
  C    -51.111400   26.100700   96.548100
  C    -50.613600   26.479300   95.301900
  C    -51.623900   27.104400   94.441200
  C    -52.845000   27.115900   95.115600
  H    -51.553900   27.522500   93.412400
  C    -49.158000   26.308700   94.871300
  H    -48.671800   27.182700   95.104400
  H    -48.980900   26.173900   93.816800
  C    -48.492300   25.118600   95.483800
  H    -48.461200   25.351000   96.523000
  H    -48.909200   24.178400   95.382100
  C    -47.028500   25.129800   95.066600
  H    -46.438000   24.414000   95.560600
  H    -46.939700   25.002300   93.999000
  H    -46.624900   26.083400   95.470700
  S    -55.135300   26.726400   93.605100
  C    -56.104800   28.111700   93.250900
  C    -55.727300   29.220900   93.993400
  C    -54.499300   29.059300   94.723000
  C    -54.082800   27.744300   94.644200
  H    -56.176800   30.092500   93.657500
  C    -53.690300   30.172300   95.386200
  H    -53.099600   30.622000   94.559100
  H    -52.836800   29.815200   95.958600
  C    -54.469200   31.333900   96.154000
  H    -54.838800   31.068500   97.166500
  H    -55.446000   31.459100   95.638400
  C    -53.632000   32.596500   96.232800
  H    -52.612500   32.292900   96.433600
  H    -53.833500   33.361500   96.970600
  H    -53.677200   33.031300   95.259100
  H    -50.529700   25.536000   97.319800
  H    -57.037800   28.138500   92.679400

 Total Charge           Charge          ....    0
 Multiplicity           Mult            ....    1
 Number of Electrons    NEL             ....  134
 Basis Dimension        Dim             ....  322

ORBITAL ENERGIES
----------------

  NO   OCC          E(Eh)            E(eV)
   0   2.0000     -88.964860     -2420.8569
   1   2.0000     -88.963581     -2420.8221
   2   2.0000     -10.330397      -281.1044
   3   2.0000     -10.322756      -280.8965
   4   2.0000     -10.315701      -280.7045
   5   2.0000     -10.314859      -280.6816
   6   2.0000     -10.308572      -280.5105
   7   2.0000     -10.306086      -280.4429
   8   2.0000     -10.304463      -280.3987
   9   2.0000     -10.298894      -280.2472
  10   2.0000     -10.293174      -280.0915
  11   2.0000     -10.287054      -279.9250
  12   2.0000     -10.281120      -279.7635
  13   2.0000     -10.273714      -279.5620
  14   2.0000     -10.272977      -279.5419
  15   2.0000     -10.271754      -279.5086
  16   2.0000      -8.079411      -219.8519
  17   2.0000      -8.078141      -219.8174
  18   2.0000      -6.037815      -164.2973
  19   2.0000      -6.036575      -164.2636
  20   2.0000      -6.034153      -164.1976
  21   2.0000      -6.032690      -164.1578
  22   2.0000      -6.030078      -164.0868
  23   2.0000      -6.028969      -164.0566
  24   2.0000      -0.998413       -27.1682
  25   2.0000      -0.977923       -26.6106
  26   2.0000      -0.922100       -25.0916
  27   2.0000      -0.901653       -24.5352
  28   2.0000      -0.865959       -23.5639
  29   2.0000      -0.851210       -23.1626
  30   2.0000      -0.849296       -23.1105
  31   2.0000      -0.811375       -22.0786
  32   2.0000      -0.781383       -21.2625
  33   2.0000      -0.765409       -20.8278
  34   2.0000      -0.711265       -19.3545
  35   2.0000      -0.704194       -19.1621
  36   2.0000      -0.690687       -18.7946
  37   2.0000      -0.651910       -17.7394
  38   2.0000      -0.642530       -17.4841
  39   2.0000      -0.611147       -16.6301
  40   2.0000      -0.596467       -16.2307
  41   2.0000      -0.586246       -15.9526
  42   2.0000      -0.563123       -15.3234
  43   2.0000      -0.553360       -15.0577
  44   2.0000      -0.526527       -14.3275
  45   2.0000      -0.522939       -14.2299
  46   2.0000      -0.514131       -13.9902
  47   2.0000      -0.511615       -13.9218
  48   2.0000      -0.504900       -13.7390
  49   2.0000      -0.496154       -13.5010
  50   2.0000      -0.491157       -13.3651
  51   2.0000      -0.482124       -13.1193
  52   2.0000      -0.465454       -12.6656
  53   2.0000      -0.461222       -12.5505
  54   2.0000      -0.458300       -12.4710
  55   2.0000      -0.450587       -12.2611
  56   2.0000      -0.445140       -12.1129
  57   2.0000      -0.442092       -12.0299
  58   2.0000      -0.434909       -11.8345
  59   2.0000      -0.426290       -11.5999
  60   2.0000      -0.423525       -11.5247
  61   2.0000      -0.412139       -11.2149
  62   2.0000      -0.407893       -11.0993
  63   2.0000      -0.337555        -9.1853
  64   2.0000      -0.327773        -8.9192
  65   2.0000      -0.314407        -8.5555
  66   2.0000      -0.307501        -8.3675
  67   0.0000       0.047106         1.2818
  68   0.0000       0.049862         1.3568
  69   0.0000       0.108893         2.9631
  70   0.0000       0.122656         3.3376
  71   0.0000       0.125309         3.4098

MULLIKEN ATOMIC CHARGES
-----------------------
   0 S :    0.117974
   1 C :   -0.145392
   2 C :   -0.082069
   3 C :    0.042398
   4 C :   -0.193490
   5 H :    0.041247
   6 C :    0.105186
   7 H :    0.012886
   8 H :    0.011841
   9 C :   -0.078032
  10 H :    0.013934
  11 H :    0.024085
  12 C :   -0.025621
  13 H :    0.016138
  14 H :    0.032190
  15 H :    0.021840
  16 S :    0.113497
  17 C :   -0.108656
  18 C :   -0.025423
  19 C :    0.018123
  20 C :   -0.205908
  21 H :    0.003625
  22 C :    0.048670
  23 H :    0.034264
  24 H :    0.033972
  25 C :   -0.079957
  26 H :    0.036088
  27 H :    0.028756
  28 C :   -0.038861
  29 H :    0.026653
  30 H :    0.035871
  31 H :    0.029708
  32 H :    0.070159
  33 H :    0.064304
Sum of atomic charges:   -0.0000000

LOEWDIN ATOMIC CHARGES
----------------------
   0 S :    0.394595
   1 C :   -0.218126
   2 C :   -0.058086
   3 C :   -0.054444
   4 C :   -0.182313
   5 H :    0.046143
   6 C :   -0.024316
   7 H :    0.023391
   8 H :    0.027567
   9 C :   -0.034057
  10 H :    0.018733
  11 H :    0.014813
  12 C :   -0.054807
  13 H :    0.017084
  14 H :    0.021219
  15 H :    0.029574
  16 S :    0.395140
  17 C :   -0.189005
  18 C :   -0.076441
  19 C :   -0.043703
  20 C :   -0.198562
  21 H :    0.019085
  22 C :   -0.033520
  23 H :    0.040182
  24 H :    0.032818
  25 C :   -0.042641
  26 H :    0.026586
  27 H :    0.023147
  28 C :   -0.065092
  29 H :    0.025623
  30 H :    0.026918
  31 H :    0.024112
  32 H :    0.034137
  33 H :    0.034244

  Mayer bond orders larger than 0.100000
B(  0-S ,  1-C ) :   1.1398 B(  0-S ,  4-C ) :   1.1390 B(  1-C ,  2-C ) :   1.6341
B(  1-C , 32-H ) :   0.9553 B(  2-C ,  3-C ) :   1.2043 B(  2-C ,  6-C ) :   1.0032
B(  3-C ,  4-C ) :   1.6127 B(  3-C ,  5-H ) :   0.9880 B(  4-C , 20-C ) :   1.0111
B(  6-C ,  7-H ) :   0.9282 B(  6-C ,  8-H ) :   0.9503 B(  6-C ,  9-C ) :   1.0702
B(  9-C , 10-H ) :   0.9415 B(  9-C , 11-H ) :   0.9675 B(  9-C , 12-C ) :   1.0918
B( 12-C , 13-H ) :   0.9710 B( 12-C , 14-H ) :   0.9754 B( 12-C , 15-H ) :   0.9743
B( 16-S , 17-C ) :   1.1581 B( 16-S , 20-C ) :   1.1349 B( 17-C , 18-C ) :   1.6504
B( 17-C , 33-H ) :   0.9578 B( 18-C , 19-C ) :   1.2097 B( 18-C , 21-H ) :   0.9837
B( 19-C , 20-C ) :   1.6284 B( 19-C , 22-C ) :   1.0392 B( 22-C , 23-H ) :   0.9378
B( 22-C , 24-H ) :   0.9274 B( 22-C , 25-C ) :   1.0287 B( 25-C , 26-H ) :   0.9589
B( 25-C , 27-H ) :   0.9656 B( 25-C , 28-C ) :   1.0652 B( 28-C , 29-H ) :   0.9755
B( 28-C , 30-H ) :   0.9755 B( 28-C , 31-H ) :   0.9775

Dispersion correction           -0.013407082
FINAL SINGLE POINT ENERGY     -1339.855318980416

DIPOLE MOMENT
-------------
                                X             Y             Z
Electronic contribution:    -20.38176     -12.98873      -2.81876
Nuclear contribution   :     20.85296      13.37746       2.65807
                        -----------------------------------------
Total Dipole Moment    :      0.47121       0.38874      -0.16069
                        -----------------------------------------
Magnitude (a.u.)       :      0.63165
Magnitude (Debye)      :      1.60551

Rotational constants in cm-1:     0.019580     0.007109     0.005984
Rotational constants in MHz :   587.005524   213.122338   179.401647

                             ****ORCA TERMINATED NORMALLY****
TOTAL RUN TIME: 0 days 0 hours 0 minutes 30 seconds 195 msec
