                         Program Version 4.2.1 -  RELEASE  -
|  1> ! wB97X-D3 SP def2-SVP
|  2> %pal
|  3> nprocs 16
|  4> end
|  5>
|  6> * xyz 0 1
|  7> S 	 -90.8963 	 50.7063 	 124.005
|  8> C 	 -89.4417 	 50.0614 	 124.686
|  9> C 	 -89.5353 	 48.8976 	 125.425
| 10> C 	 -90.9125 	 48.5921 	 125.651
| 11> C 	 -91.6879 	 49.6578 	 125.243
| 12> H 	 -91.5117 	 47.858 	 126.261
| 13> C 	 -88.3623 	 47.9309 	 125.842
| 14> H 	 -87.7316 	 48.5831 	 126.485
| 15> H 	 -87.8429 	 47.6669 	 124.898
| 16> C 	 -88.7442 	 46.7053 	 126.654
| 17> H 	 -89.3807 	 46.9153 	 127.552
| 18> H 	 -89.3497 	 45.9975 	 126.047
| 19> C 	 -87.44 	 46.0344 	 127.171
| 20> H 	 -86.8056 	 45.7759 	 126.37
| 21> H 	 -86.783 	 46.6432 	 127.8
| 22> H 	 -87.6638 	 45.0928 	 127.65
| 23> S 	 -94.089 	 49.936 	 123.831
| 24> C 	 -95.5661 	 50.0324 	 124.745
| 25> C 	 -95.4217 	 49.7577 	 126.075
| 26> C 	 -94.0013 	 49.6139 	 126.364
| 27> C 	 -93.1325 	 49.7152 	 125.317
| 28> H 	 -96.2757 	 49.712 	 126.726
| 29> C 	 -93.5298 	 49.4191 	 127.789
| 30> H 	 -92.5086 	 49.1282 	 127.772
| 31> H 	 -94.055 	 48.5325 	 128.171
| 32> C 	 -93.7465 	 50.5633 	 128.814
| 33> H 	 -93.6337 	 50.2479 	 129.815
| 34> H 	 -94.802 	 50.9026 	 128.84
| 35> C 	 -92.8199 	 51.8304 	 128.6
| 36> H 	 -91.8513 	 51.5029 	 128.328
| 37> H 	 -92.783 	 52.402 	 129.554
| 38> H 	 -93.1037 	 52.3759 	 127.752
| 39> H 	 -88.5088 	 50.5081 	 124.439
| 40> H 	 -96.5359 	 50.0748 	 124.307
| 41> *
| 42>
| 43>                          ****END OF INPUT****

CARTESIAN COORDINATES (ANGSTROEM)
---------------------------------
  S    -90.896300   50.706300  124.005000
  C    -89.441700   50.061400  124.686000
  C    -89.535300   48.897600  125.425000
  C    -90.912500   48.592100  125.651000
  C    -91.687900   49.657800  125.243000
  H    -91.511700   47.858000  126.261000
  C    -88.362300   47.930900  125.842000
  H    -87.731600   48.583100  126.485000
  H    -87.842900   47.666900  124.898000
  C    -88.744200   46.705300  126.654000
  H    -89.380700   46.915300  127.552000
  H    -89.349700   45.997500  126.047000
  C    -87.440000   46.034400  127.171000
  H    -86.805600   45.775900  126.370000
  H    -86.783000   46.643200  127.800000
  H    -87.663800   45.092800  127.650000
  S    -94.089000   49.936000  123.831000
  C    -95.566100   50.032400  124.745000
  C    -95.421700   49.757700  126.075000
  C    -94.001300   49.613900  126.364000
  C    -93.132500   49.715200  125.317000
  H    -96.275700   49.712000  126.726000
  C    -93.529800   49.419100  127.789000
  H    -92.508600   49.128200  127.772000
  H    -94.055000   48.532500  128.171000
  C    -93.746500   50.563300  128.814000
  H    -93.633700   50.247900  129.815000
  H    -94.802000   50.902600  128.840000
  C    -92.819900   51.830400  128.600000
  H    -91.851300   51.502900  128.328000
  H    -92.783000   52.402000  129.554000
  H    -93.103700   52.375900  127.752000
  H    -88.508800   50.508100  124.439000
  H    -96.535900   50.074800  124.307000

 Total Charge           Charge          ....    0
 Multiplicity           Mult            ....    1
 Number of Electrons    NEL             ....  134
 Basis Dimension        Dim             ....  322

ORBITAL ENERGIES
----------------

  NO   OCC          E(Eh)            E(eV)
   0   2.0000     -88.968323     -2420.9512
   1   2.0000     -88.959896     -2420.7218
   2   2.0000     -10.328732      -281.0591
   3   2.0000     -10.320854      -280.8447
   4   2.0000     -10.311876      -280.6004
   5   2.0000     -10.310271      -280.5567
   6   2.0000     -10.307978      -280.4943
   7   2.0000     -10.304228      -280.3923
   8   2.0000     -10.302158      -280.3360
   9   2.0000     -10.299294      -280.2580
  10   2.0000     -10.298401      -280.2337
  11   2.0000     -10.292786      -280.0809
  12   2.0000     -10.284575      -279.8575
  13   2.0000     -10.283021      -279.8152
  14   2.0000     -10.277955      -279.6774
  15   2.0000     -10.266538      -279.3667
  16   2.0000      -8.082968      -219.9487
  17   2.0000      -8.074766      -219.7256
  18   2.0000      -6.041160      -164.3883
  19   2.0000      -6.038249      -164.3091
  20   2.0000      -6.033433      -164.1781
  21   2.0000      -6.033283      -164.1740
  22   2.0000      -6.029394      -164.0682
  23   2.0000      -6.025219      -163.9545
  24   2.0000      -1.006696       -27.3936
  25   2.0000      -0.982911       -26.7464
  26   2.0000      -0.909721       -24.7548
  27   2.0000      -0.898973       -24.4623
  28   2.0000      -0.871110       -23.7041
  29   2.0000      -0.853685       -23.2300
  30   2.0000      -0.839232       -22.8367
  31   2.0000      -0.814971       -22.1765
  32   2.0000      -0.781842       -21.2750
  33   2.0000      -0.770530       -20.9672
  34   2.0000      -0.712285       -19.3823
  35   2.0000      -0.699694       -19.0397
  36   2.0000      -0.691037       -18.8041
  37   2.0000      -0.657637       -17.8952
  38   2.0000      -0.643793       -17.5185
  39   2.0000      -0.614833       -16.7305
  40   2.0000      -0.590372       -16.0648
  41   2.0000      -0.571751       -15.5581
  42   2.0000      -0.565203       -15.3799
  43   2.0000      -0.546572       -14.8730
  44   2.0000      -0.536427       -14.5969
  45   2.0000      -0.524482       -14.2719
  46   2.0000      -0.508367       -13.8334
  47   2.0000      -0.506578       -13.7847
  48   2.0000      -0.500062       -13.6074
  49   2.0000      -0.490157       -13.3378
  50   2.0000      -0.487197       -13.2573
  51   2.0000      -0.482538       -13.1305
  52   2.0000      -0.474995       -12.9253
  53   2.0000      -0.465535       -12.6679
  54   2.0000      -0.457396       -12.4464
  55   2.0000      -0.450014       -12.2455
  56   2.0000      -0.445642       -12.1265
  57   2.0000      -0.441424       -12.0118
  58   2.0000      -0.430219       -11.7068
  59   2.0000      -0.426632       -11.6092
  60   2.0000      -0.421051       -11.4574
  61   2.0000      -0.416391       -11.3306
  62   2.0000      -0.408350       -11.1118
  63   2.0000      -0.352031        -9.5793
  64   2.0000      -0.333920        -9.0864
  65   2.0000      -0.326443        -8.8830
  66   2.0000      -0.283737        -7.7209
  67   0.0000       0.023977         0.6524
  68   0.0000       0.063498         1.7279
  69   0.0000       0.095647         2.6027
  70   0.0000       0.126733         3.4486
  71   0.0000       0.132191         3.5971

MULLIKEN ATOMIC CHARGES
-----------------------
   0 S :    0.104224
   1 C :   -0.095049
   2 C :   -0.066387
   3 C :   -0.003880
   4 C :   -0.164890
   5 H :    0.054538
   6 C :    0.045467
   7 H :    0.041517
   8 H :    0.055164
   9 C :   -0.103763
  10 H :    0.041561
  11 H :    0.040784
  12 C :   -0.018838
  13 H :    0.011713
  14 H :    0.032614
  15 H :    0.030057
  16 S :    0.081608
  17 C :   -0.072129
  18 C :   -0.020492
  19 C :   -0.073037
  20 C :   -0.139857
  21 H :    0.019965
  22 C :    0.079677
  23 H :   -0.003622
  24 H :    0.023473
  25 C :   -0.062050
  26 H :    0.012065
  27 H :    0.020135
  28 C :   -0.031148
  29 H :    0.013755
  30 H :    0.043000
  31 H :    0.031640
  32 H :    0.026083
  33 H :    0.046103
Sum of atomic charges:    0.0000000

LOEWDIN ATOMIC CHARGES
----------------------
   0 S :    0.384822
   1 C :   -0.189796
   2 C :   -0.061572
   3 C :   -0.061247
   4 C :   -0.167893
   5 H :    0.048334
   6 C :   -0.032379
   7 H :    0.038110
   8 H :    0.039501
   9 C :   -0.047375
  10 H :    0.029364
  11 H :    0.028501
  12 C :   -0.061569
  13 H :    0.018437
  14 H :    0.027085
  15 H :    0.025908
  16 S :    0.375705
  17 C :   -0.174680
  18 C :   -0.066990
  19 C :   -0.061596
  20 C :   -0.194689
  21 H :    0.033173
  22 C :   -0.033397
  23 H :    0.017890
  24 H :    0.033681
  25 C :   -0.036440
  26 H :    0.015922
  27 H :    0.022504
  28 C :   -0.058903
  29 H :    0.018688
  30 H :    0.032183
  31 H :    0.020612
  32 H :    0.014404
  33 H :    0.023701

  Mayer bond orders larger than 0.100000
B(  0-S ,  1-C ) :   1.1345 B(  0-S ,  4-C ) :   1.1234 B(  1-C ,  2-C ) :   1.6454
B(  1-C , 32-H ) :   0.9746 B(  2-C ,  3-C ) :   1.1977 B(  2-C ,  6-C ) :   0.9832
B(  3-C ,  4-C ) :   1.6002 B(  3-C ,  5-H ) :   0.9748 B(  4-C , 20-C ) :   1.0623
B(  6-C ,  7-H ) :   0.9434 B(  6-C ,  8-H ) :   0.9424 B(  6-C ,  9-C ) :   1.0906
B(  9-C , 10-H ) :   0.9533 B(  9-C , 11-H ) :   0.9470 B(  9-C , 12-C ) :   1.0783
B( 12-C , 13-H ) :   0.9719 B( 12-C , 14-H ) :   0.9766 B( 12-C , 15-H ) :   0.9724
B( 16-S , 17-C ) :   1.1437 B( 16-S , 20-C ) :   1.0955 B( 17-C , 18-C ) :   1.6480
B( 17-C , 33-H ) :   0.9640 B( 18-C , 19-C ) :   1.1884 B( 18-C , 21-H ) :   0.9973
B( 19-C , 20-C ) :   1.6581 B( 19-C , 22-C ) :   1.0536 B( 22-C , 23-H ) :   0.9303
B( 22-C , 24-H ) :   0.9269 B( 22-C , 25-C ) :   1.0777 B( 25-C , 26-H ) :   0.9575
B( 25-C , 27-H ) :   0.9562 B( 25-C , 28-C ) :   1.0624 B( 28-C , 29-H ) :   0.9766
B( 28-C , 30-H ) :   0.9775 B( 28-C , 31-H ) :   0.9785

Dispersion correction           -0.014353275
FINAL SINGLE POINT ENERGY     -1339.856146184743

DIPOLE MOMENT
-------------
                                X             Y             Z
Electronic contribution:    -11.91601       9.38334     -23.15457
Nuclear contribution   :     12.14470      -9.84983      23.63625
                        -----------------------------------------
Total Dipole Moment    :      0.22868      -0.46649       0.48167
                        -----------------------------------------
Magnitude (a.u.)       :      0.70846
Magnitude (Debye)      :      1.80077

Rotational constants in cm-1:     0.018654     0.008387     0.007096
Rotational constants in MHz :   559.238367   251.449839   212.738091

                             ****ORCA TERMINATED NORMALLY****
TOTAL RUN TIME: 0 days 0 hours 0 minutes 35 seconds 729 msec
