                         Program Version 4.2.1 -  RELEASE  -
|  1> ! wB97X-D3 SP def2-SVP
|  2> %pal
|  3> nprocs 16
|  4> end
|  5>
|  6> * xyz 0 1
|  7> S 	 -59.4365 	 17.3555 	 86.1964
|  8> C 	 -58.4808 	 15.9332 	 85.8514
|  9> C 	 -57.2743 	 16.0236 	 86.5133
| 10> C 	 -57.0949 	 17.3357 	 87.0859
| 11> C 	 -58.1492 	 18.1774 	 86.9652
| 12> H 	 -56.1536 	 17.6915 	 87.459
| 13> C 	 -56.3331 	 14.8965 	 86.5783
| 14> H 	 -56.8563 	 13.9688 	 86.3494
| 15> H 	 -56.1154 	 14.7524 	 87.6502
| 16> C 	 -55.1632 	 15.1657 	 85.7079
| 17> H 	 -54.7527 	 14.2533 	 85.2869
| 18> H 	 -55.4434 	 15.7943 	 84.8186
| 19> C 	 -53.9371 	 15.9385 	 86.3686
| 20> H 	 -53.4864 	 15.2795 	 87.1673
| 21> H 	 -53.3201 	 16.0685 	 85.4745
| 22> H 	 -54.1634 	 16.8445 	 86.8596
| 23> S 	 -58.5559 	 20.5982 	 85.8727
| 24> C 	 -58.2328 	 22.0245 	 86.8301
| 25> C 	 -57.9567 	 21.7786 	 88.1191
| 26> C 	 -57.7755 	 20.3964 	 88.3709
| 27> C 	 -58.1246 	 19.57 	 87.2744
| 28> H 	 -58.0966 	 22.5871 	 88.8047
| 29> C 	 -57.4728 	 19.8484 	 89.761
| 30> H 	 -56.6117 	 20.324 	 90.2181
| 31> H 	 -57.2375 	 18.8014 	 89.6782
| 32> C 	 -58.6399 	 19.911 	 90.7371
| 33> H 	 -59.4553 	 19.4319 	 90.2423
| 34> H 	 -58.949 	 20.9446 	 90.9764
| 35> C 	 -58.399 	 19.2026 	 92.0798
| 36> H 	 -57.6983 	 19.8086 	 92.6736
| 37> H 	 -58.0959 	 18.1598 	 91.9968
| 38> H 	 -59.3175 	 19.276 	 92.638
| 39> H 	 -59.0056 	 15.1506 	 85.4435
| 40> H 	 -58.4321 	 23.0424 	 86.5018
| 41> *
| 42>
| 43>                          ****END OF INPUT****

CARTESIAN COORDINATES (ANGSTROEM)
---------------------------------
  S    -59.436500   17.355500   86.196400
  C    -58.480800   15.933200   85.851400
  C    -57.274300   16.023600   86.513300
  C    -57.094900   17.335700   87.085900
  C    -58.149200   18.177400   86.965200
  H    -56.153600   17.691500   87.459000
  C    -56.333100   14.896500   86.578300
  H    -56.856300   13.968800   86.349400
  H    -56.115400   14.752400   87.650200
  C    -55.163200   15.165700   85.707900
  H    -54.752700   14.253300   85.286900
  H    -55.443400   15.794300   84.818600
  C    -53.937100   15.938500   86.368600
  H    -53.486400   15.279500   87.167300
  H    -53.320100   16.068500   85.474500
  H    -54.163400   16.844500   86.859600
  S    -58.555900   20.598200   85.872700
  C    -58.232800   22.024500   86.830100
  C    -57.956700   21.778600   88.119100
  C    -57.775500   20.396400   88.370900
  C    -58.124600   19.570000   87.274400
  H    -58.096600   22.587100   88.804700
  C    -57.472800   19.848400   89.761000
  H    -56.611700   20.324000   90.218100
  H    -57.237500   18.801400   89.678200
  C    -58.639900   19.911000   90.737100
  H    -59.455300   19.431900   90.242300
  H    -58.949000   20.944600   90.976400
  C    -58.399000   19.202600   92.079800
  H    -57.698300   19.808600   92.673600
  H    -58.095900   18.159800   91.996800
  H    -59.317500   19.276000   92.638000
  H    -59.005600   15.150600   85.443500
  H    -58.432100   23.042400   86.501800

 Total Charge           Charge          ....    0
 Multiplicity           Mult            ....    1
 Number of Electrons    NEL             ....  134
 Basis Dimension        Dim             ....  322

ORBITAL ENERGIES
----------------

  NO   OCC          E(Eh)            E(eV)
   0   2.0000     -88.962621     -2420.7960
   1   2.0000     -88.959334     -2420.7065
   2   2.0000     -10.329956      -281.0924
   3   2.0000     -10.322640      -280.8933
   4   2.0000     -10.311422      -280.5881
   5   2.0000     -10.308444      -280.5070
   6   2.0000     -10.306612      -280.4572
   7   2.0000     -10.300004      -280.2774
   8   2.0000     -10.288585      -279.9666
   9   2.0000     -10.288190      -279.9559
  10   2.0000     -10.287034      -279.9244
  11   2.0000     -10.286918      -279.9213
  12   2.0000     -10.285518      -279.8832
  13   2.0000     -10.282676      -279.8058
  14   2.0000     -10.281057      -279.7618
  15   2.0000     -10.276456      -279.6366
  16   2.0000      -8.077078      -219.7885
  17   2.0000      -8.075385      -219.7424
  18   2.0000      -6.035613      -164.2374
  19   2.0000      -6.033857      -164.1896
  20   2.0000      -6.031707      -164.1311
  21   2.0000      -6.029656      -164.0753
  22   2.0000      -6.027722      -164.0227
  23   2.0000      -6.026152      -163.9799
  24   2.0000      -1.012217       -27.5438
  25   2.0000      -0.986460       -26.8429
  26   2.0000      -0.921000       -25.0617
  27   2.0000      -0.908483       -24.7211
  28   2.0000      -0.875592       -23.8261
  29   2.0000      -0.849249       -23.1093
  30   2.0000      -0.841370       -22.8948
  31   2.0000      -0.821327       -22.3495
  32   2.0000      -0.785918       -21.3859
  33   2.0000      -0.771464       -20.9926
  34   2.0000      -0.708677       -19.2841
  35   2.0000      -0.700786       -19.0694
  36   2.0000      -0.692054       -18.8318
  37   2.0000      -0.660266       -17.9667
  38   2.0000      -0.649866       -17.6837
  39   2.0000      -0.624730       -16.9998
  40   2.0000      -0.597289       -16.2531
  41   2.0000      -0.576399       -15.6846
  42   2.0000      -0.567945       -15.4546
  43   2.0000      -0.550787       -14.9877
  44   2.0000      -0.539742       -14.6871
  45   2.0000      -0.528147       -14.3716
  46   2.0000      -0.519864       -14.1462
  47   2.0000      -0.516746       -14.0614
  48   2.0000      -0.505946       -13.7675
  49   2.0000      -0.498990       -13.5782
  50   2.0000      -0.491220       -13.3668
  51   2.0000      -0.480036       -13.0625
  52   2.0000      -0.473662       -12.8890
  53   2.0000      -0.471221       -12.8226
  54   2.0000      -0.459403       -12.5010
  55   2.0000      -0.449388       -12.2285
  56   2.0000      -0.445806       -12.1310
  57   2.0000      -0.431124       -11.7315
  58   2.0000      -0.426255       -11.5990
  59   2.0000      -0.423307       -11.5188
  60   2.0000      -0.421788       -11.4774
  61   2.0000      -0.418897       -11.3988
  62   2.0000      -0.402706       -10.9582
  63   2.0000      -0.350436        -9.5358
  64   2.0000      -0.330040        -8.9808
  65   2.0000      -0.324395        -8.8272
  66   2.0000      -0.292920        -7.9708
  67   0.0000       0.031474         0.8564
  68   0.0000       0.071278         1.9396
  69   0.0000       0.113096         3.0775
  70   0.0000       0.124411         3.3854
  71   0.0000       0.128818         3.5053

MULLIKEN ATOMIC CHARGES
-----------------------
   0 S :    0.093649
   1 C :   -0.107117
   2 C :   -0.108316
   3 C :    0.042552
   4 C :   -0.133733
   5 H :   -0.002534
   6 C :    0.112005
   7 H :    0.013856
   8 H :    0.032156
   9 C :   -0.096659
  10 H :    0.026671
  11 H :    0.046171
  12 C :   -0.057910
  13 H :    0.038307
  14 H :    0.046898
  15 H :    0.026414
  16 S :    0.096550
  17 C :   -0.083205
  18 C :   -0.031802
  19 C :   -0.020775
  20 C :   -0.166959
  21 H :    0.020768
  22 C :    0.094348
  23 H :    0.018515
  24 H :    0.004744
  25 C :   -0.087867
  26 H :    0.024159
  27 H :    0.023713
  28 C :   -0.037286
  29 H :    0.025750
  30 H :    0.039799
  31 H :    0.029652
  32 H :    0.025690
  33 H :    0.051796
Sum of atomic charges:   -0.0000000

LOEWDIN ATOMIC CHARGES
----------------------
   0 S :    0.411522
   1 C :   -0.182162
   2 C :   -0.053096
   3 C :   -0.064365
   4 C :   -0.214048
   5 H :    0.024432
   6 C :   -0.041302
   7 H :    0.032092
   8 H :    0.036753
   9 C :   -0.041828
  10 H :    0.022918
  11 H :    0.032959
  12 C :   -0.060658
  13 H :    0.029130
  14 H :    0.032534
  15 H :    0.012061
  16 S :    0.390273
  17 C :   -0.177806
  18 C :   -0.075136
  19 C :   -0.046538
  20 C :   -0.179474
  21 H :    0.034443
  22 C :   -0.031885
  23 H :    0.026671
  24 H :    0.025884
  25 C :   -0.037893
  26 H :    0.020809
  27 H :    0.022223
  28 C :   -0.063100
  29 H :    0.024980
  30 H :    0.024907
  31 H :    0.027191
  32 H :    0.008695
  33 H :    0.028810

  Mayer bond orders larger than 0.100000
B(  0-S ,  1-C ) :   1.1337 B(  0-S ,  4-C ) :   1.1578 B(  1-C ,  2-C ) :   1.5895
B(  1-C , 32-H ) :   0.9871 B(  2-C ,  3-C ) :   1.2293 B(  2-C ,  6-C ) :   1.0383
B(  3-C ,  4-C ) :   1.5770 B(  3-C ,  5-H ) :   0.9953 B(  4-C , 20-C ) :   1.0430
B(  6-C ,  7-H ) :   0.9342 B(  6-C ,  8-H ) :   0.9366 B(  6-C ,  9-C ) :   1.0467
B(  9-C , 10-H ) :   0.9553 B(  9-C , 11-H ) :   0.9620 B(  9-C , 12-C ) :   1.0669
B( 12-C , 13-H ) :   0.9759 B( 12-C , 14-H ) :   0.9758 B( 12-C , 15-H ) :   0.9788
B( 16-S , 17-C ) :   1.1486 B( 16-S , 20-C ) :   1.1285 B( 17-C , 18-C ) :   1.6541
B( 17-C , 20-C ) :   0.1026 B( 17-C , 33-H ) :   0.9586 B( 18-C , 19-C ) :   1.2124
B( 18-C , 21-H ) :   0.9898 B( 19-C , 20-C ) :   1.5991 B( 19-C , 22-C ) :   1.0575
B( 22-C , 23-H ) :   0.9304 B( 22-C , 24-H ) :   0.9300 B( 22-C , 25-C ) :   1.0699
B( 25-C , 26-H ) :   0.9539 B( 25-C , 27-H ) :   0.9532 B( 25-C , 28-C ) :   1.0931
B( 28-C , 29-H ) :   0.9735 B( 28-C , 30-H ) :   0.9744 B( 28-C , 31-H ) :   0.9720

Dispersion correction           -0.014041768
FINAL SINGLE POINT ENERGY     -1339.871647304394

DIPOLE MOMENT
-------------
                                X             Y             Z
Electronic contribution:    -14.95061       9.04670     -16.63152
Nuclear contribution   :     15.22611      -9.24277      17.04644
                        -----------------------------------------
Total Dipole Moment    :      0.27550      -0.19608       0.41492
                        -----------------------------------------
Magnitude (a.u.)       :      0.53526
Magnitude (Debye)      :      1.36053

Rotational constants in cm-1:     0.017065     0.008672     0.007451
Rotational constants in MHz :   511.583777   259.986565   223.367752

                             ****ORCA TERMINATED NORMALLY****
TOTAL RUN TIME: 0 days 0 hours 0 minutes 29 seconds 929 msec
