                         Program Version 4.2.1 -  RELEASE  -
|  1> ! wB97X-D3 SP def2-SVP
|  2> %pal
|  3> nprocs 16
|  4> end
|  5>
|  6> * xyz 0 1
|  7> S 	 21.7779 	 -7.20071 	 80.6192
|  8> C 	 20.5242 	 -6.05473 	 81.1617
|  9> C 	 19.2535 	 -6.54611 	 80.9656
| 10> C 	 19.2359 	 -7.91322 	 80.6095
| 11> C 	 20.5105 	 -8.3722 	 80.3254
| 12> H 	 18.3684 	 -8.58394 	 80.5579
| 13> C 	 18.054 	 -5.66631 	 81.1854
| 14> H 	 18.4442 	 -4.66424 	 81.4501
| 15> H 	 17.451 	 -6.10147 	 82.0225
| 16> C 	 17.1264 	 -5.55955 	 80.0186
| 17> H 	 17.6193 	 -5.65781 	 79.1152
| 18> H 	 16.5075 	 -6.38903 	 80.1083
| 19> C 	 16.0288 	 -4.52768 	 80.0206
| 20> H 	 15.5513 	 -4.63461 	 79.0062
| 21> H 	 15.3728 	 -4.59577 	 80.9069
| 22> H 	 16.4832 	 -3.57268 	 80.1137
| 23> S 	 20.8441 	 -10.815 	 81.6881
| 24> C 	 21.0503 	 -12.2444 	 80.7612
| 25> C 	 21.1949 	 -12.0032 	 79.4146
| 26> C 	 21.0285 	 -10.6224 	 79.0492
| 27> C 	 20.8348 	 -9.84983 	 80.1743
| 28> H 	 21.4249 	 -12.7972 	 78.7509
| 29> C 	 21.2821 	 -10.0497 	 77.7146
| 30> H 	 22.0126 	 -10.6776 	 77.171
| 31> H 	 21.6981 	 -9.14155 	 77.9615
| 32> C 	 20.0706 	 -9.81279 	 76.825
| 33> H 	 20.3456 	 -9.34547 	 75.8748
| 34> H 	 19.45 	 -9.03122 	 77.2982
| 35> C 	 19.2072 	 -11.0254 	 76.7097
| 36> H 	 19.6333 	 -11.6535 	 75.9522
| 37> H 	 18.1812 	 -10.8252 	 76.2952
| 38> H 	 18.9792 	 -11.5452 	 77.6841
| 39> H 	 20.7752 	 -5.06621 	 81.519
| 40> H 	 21.121 	 -13.2269 	 81.1669
| 41> *
| 42>
| 43>                          ****END OF INPUT****

CARTESIAN COORDINATES (ANGSTROEM)
---------------------------------
  S     21.777900   -7.200710   80.619200
  C     20.524200   -6.054730   81.161700
  C     19.253500   -6.546110   80.965600
  C     19.235900   -7.913220   80.609500
  C     20.510500   -8.372200   80.325400
  H     18.368400   -8.583940   80.557900
  C     18.054000   -5.666310   81.185400
  H     18.444200   -4.664240   81.450100
  H     17.451000   -6.101470   82.022500
  C     17.126400   -5.559550   80.018600
  H     17.619300   -5.657810   79.115200
  H     16.507500   -6.389030   80.108300
  C     16.028800   -4.527680   80.020600
  H     15.551300   -4.634610   79.006200
  H     15.372800   -4.595770   80.906900
  H     16.483200   -3.572680   80.113700
  S     20.844100  -10.815000   81.688100
  C     21.050300  -12.244400   80.761200
  C     21.194900  -12.003200   79.414600
  C     21.028500  -10.622400   79.049200
  C     20.834800   -9.849830   80.174300
  H     21.424900  -12.797200   78.750900
  C     21.282100  -10.049700   77.714600
  H     22.012600  -10.677600   77.171000
  H     21.698100   -9.141550   77.961500
  C     20.070600   -9.812790   76.825000
  H     20.345600   -9.345470   75.874800
  H     19.450000   -9.031220   77.298200
  C     19.207200  -11.025400   76.709700
  H     19.633300  -11.653500   75.952200
  H     18.181200  -10.825200   76.295200
  H     18.979200  -11.545200   77.684100
  H     20.775200   -5.066210   81.519000
  H     21.121000  -13.226900   81.166900

 Total Charge           Charge          ....    0
 Multiplicity           Mult            ....    1
 Number of Electrons    NEL             ....  134
 Basis Dimension        Dim             ....  322

ORBITAL ENERGIES
----------------

  NO   OCC          E(Eh)            E(eV)
   0   2.0000     -88.968319     -2420.9510
   1   2.0000     -88.963737     -2420.8264
   2   2.0000     -10.331584      -281.1367
   3   2.0000     -10.325771      -280.9785
   4   2.0000     -10.315675      -280.7038
   5   2.0000     -10.310852      -280.5725
   6   2.0000     -10.300247      -280.2840
   7   2.0000     -10.298508      -280.2367
   8   2.0000     -10.297574      -280.2112
   9   2.0000     -10.292406      -280.0706
  10   2.0000     -10.287498      -279.9370
  11   2.0000     -10.280323      -279.7418
  12   2.0000     -10.280270      -279.7404
  13   2.0000     -10.280215      -279.7389
  14   2.0000     -10.274496      -279.5832
  15   2.0000     -10.267579      -279.3950
  16   2.0000      -8.082470      -219.9352
  17   2.0000      -8.078441      -219.8255
  18   2.0000      -6.040880      -164.3807
  19   2.0000      -6.037187      -164.2802
  20   2.0000      -6.036915      -164.2728
  21   2.0000      -6.033238      -164.1728
  22   2.0000      -6.033035      -164.1672
  23   2.0000      -6.029161      -164.0618
  24   2.0000      -1.002954       -27.2918
  25   2.0000      -0.984176       -26.7808
  26   2.0000      -0.921395       -25.0724
  27   2.0000      -0.916554       -24.9407
  28   2.0000      -0.866494       -23.5785
  29   2.0000      -0.851017       -23.1574
  30   2.0000      -0.848882       -23.0993
  31   2.0000      -0.815242       -22.1839
  32   2.0000      -0.785331       -21.3699
  33   2.0000      -0.772495       -21.0206
  34   2.0000      -0.707361       -19.2483
  35   2.0000      -0.695416       -18.9232
  36   2.0000      -0.684059       -18.6142
  37   2.0000      -0.661938       -18.0122
  38   2.0000      -0.641999       -17.4697
  39   2.0000      -0.616108       -16.7651
  40   2.0000      -0.591015       -16.0823
  41   2.0000      -0.583988       -15.8911
  42   2.0000      -0.564796       -15.3689
  43   2.0000      -0.555918       -15.1273
  44   2.0000      -0.551168       -14.9980
  45   2.0000      -0.528512       -14.3815
  46   2.0000      -0.514978       -14.0133
  47   2.0000      -0.514226       -13.9928
  48   2.0000      -0.503386       -13.6978
  49   2.0000      -0.492071       -13.3899
  50   2.0000      -0.490416       -13.3449
  51   2.0000      -0.480981       -13.0882
  52   2.0000      -0.470752       -12.8098
  53   2.0000      -0.460845       -12.5402
  54   2.0000      -0.460622       -12.5342
  55   2.0000      -0.452561       -12.3148
  56   2.0000      -0.441540       -12.0149
  57   2.0000      -0.436259       -11.8712
  58   2.0000      -0.433482       -11.7956
  59   2.0000      -0.427332       -11.6283
  60   2.0000      -0.425775       -11.5859
  61   2.0000      -0.406005       -11.0480
  62   2.0000      -0.404998       -11.0205
  63   2.0000      -0.338440        -9.2094
  64   2.0000      -0.328636        -8.9426
  65   2.0000      -0.318602        -8.6696
  66   2.0000      -0.309929        -8.4336
  67   0.0000       0.044216         1.2032
  68   0.0000       0.054076         1.4715
  69   0.0000       0.111049         3.0218
  70   0.0000       0.113914         3.0998
  71   0.0000       0.124729         3.3941

MULLIKEN ATOMIC CHARGES
-----------------------
   0 S :    0.110499
   1 C :   -0.138436
   2 C :   -0.075170
   3 C :    0.029310
   4 C :   -0.164689
   5 H :    0.031529
   6 C :    0.085407
   7 H :    0.010252
   8 H :    0.035613
   9 C :   -0.059641
  10 H :    0.017541
  11 H :    0.003588
  12 C :   -0.033101
  13 H :    0.051035
  14 H :    0.032971
  15 H :    0.012620
  16 S :    0.117652
  17 C :   -0.078459
  18 C :   -0.024501
  19 C :   -0.049109
  20 C :   -0.197156
  21 H :    0.001652
  22 C :    0.141163
  23 H :    0.026748
  24 H :   -0.001379
  25 C :   -0.057934
  26 H :    0.029029
  27 H :    0.020855
  28 C :   -0.080472
  29 H :    0.022832
  30 H :    0.028994
  31 H :    0.058377
  32 H :    0.047460
  33 H :    0.044918
Sum of atomic charges:    0.0000000

LOEWDIN ATOMIC CHARGES
----------------------
   0 S :    0.391768
   1 C :   -0.182496
   2 C :   -0.063064
   3 C :   -0.057168
   4 C :   -0.196517
   5 H :    0.040013
   6 C :   -0.028745
   7 H :    0.025708
   8 H :    0.037146
   9 C :   -0.047602
  10 H :    0.015796
  11 H :    0.019767
  12 C :   -0.056447
  13 H :    0.040972
  14 H :    0.028318
  15 H :    0.012831
  16 S :    0.401174
  17 C :   -0.188392
  18 C :   -0.070818
  19 C :   -0.053001
  20 C :   -0.189413
  21 H :    0.024478
  22 C :   -0.024052
  23 H :    0.034099
  24 H :    0.021193
  25 C :   -0.042573
  26 H :    0.025965
  27 H :    0.024440
  28 C :   -0.077021
  29 H :    0.019792
  30 H :    0.028958
  31 H :    0.036316
  32 H :    0.024232
  33 H :    0.024341

  Mayer bond orders larger than 0.100000
B(  0-S ,  1-C ) :   1.1305 B(  0-S ,  4-C ) :   1.1597 B(  1-C ,  2-C ) :   1.6223
B(  1-C , 32-H ) :   0.9681 B(  2-C ,  3-C ) :   1.2104 B(  2-C ,  6-C ) :   1.0365
B(  3-C ,  4-C ) :   1.5939 B(  3-C ,  5-H ) :   0.9951 B(  4-C , 20-C ) :   0.9714
B(  6-C ,  7-H ) :   0.9413 B(  6-C ,  8-H ) :   0.9300 B(  6-C ,  9-C ) :   1.0647
B(  9-C , 10-H ) :   0.9616 B(  9-C , 11-H ) :   0.9434 B(  9-C , 12-C ) :   1.0861
B( 12-C , 13-H ) :   0.9723 B( 12-C , 14-H ) :   0.9728 B( 12-C , 15-H ) :   0.9756
B( 16-S , 17-C ) :   1.1572 B( 16-S , 20-C ) :   1.1372 B( 17-C , 18-C ) :   1.6224
B( 17-C , 33-H ) :   0.9676 B( 18-C , 19-C ) :   1.2131 B( 18-C , 21-H ) :   0.9963
B( 19-C , 20-C ) :   1.6354 B( 19-C , 22-C ) :   1.0271 B( 22-C , 23-H ) :   0.9396
B( 22-C , 24-H ) :   0.9164 B( 22-C , 25-C ) :   1.0762 B( 25-C , 26-H ) :   0.9544
B( 25-C , 27-H ) :   0.9512 B( 25-C , 28-C ) :   1.0827 B( 28-C , 29-H ) :   0.9754
B( 28-C , 30-H ) :   0.9717 B( 28-C , 31-H ) :   0.9660

Dispersion correction           -0.014590561
FINAL SINGLE POINT ENERGY     -1339.866990725699

DIPOLE MOMENT
-------------
                                X             Y             Z
Electronic contribution:     19.53293      -7.92448      15.53363
Nuclear contribution   :    -19.92807       8.00386     -15.78684
                        -----------------------------------------
Total Dipole Moment    :     -0.39514       0.07939      -0.25320
                        -----------------------------------------
Magnitude (a.u.)       :      0.47597
Magnitude (Debye)      :      1.20982

Rotational constants in cm-1:     0.019050     0.008269     0.007069
Rotational constants in MHz :   571.096681   247.900306   211.927818

                             ****ORCA TERMINATED NORMALLY****
TOTAL RUN TIME: 0 days 0 hours 0 minutes 30 seconds 704 msec
