                         Program Version 4.2.1 -  RELEASE  -
|  1> ! wB97X-D3 SP def2-SVP
|  2> %pal
|  3> nprocs 16
|  4> end
|  5>
|  6> * xyz 0 1
|  7> S 	 -58.3133 	 25.903 	 95.1623
|  8> C 	 -56.9225 	 24.9888 	 94.7953
|  9> C 	 -56.6759 	 24.7741 	 93.431
| 10> C 	 -57.6333 	 25.5256 	 92.6654
| 11> C 	 -58.5496 	 26.2524 	 93.4143
| 12> H 	 -57.6051 	 25.4786 	 91.5632
| 13> C 	 -55.588 	 23.9059 	 92.8424
| 14> H 	 -55.9278 	 23.5602 	 91.8577
| 15> H 	 -55.6277 	 23.025 	 93.4067
| 16> C 	 -54.2096 	 24.5581 	 92.7631
| 17> H 	 -54.2513 	 25.5435 	 92.3381
| 18> H 	 -53.8553 	 24.7788 	 93.7946
| 19> C 	 -53.26 	 23.6447 	 92.0696
| 20> H 	 -53.4267 	 23.4797 	 90.9834
| 21> H 	 -52.2796 	 24.1335 	 92.2411
| 22> H 	 -53.2118 	 22.6273 	 92.611
| 23> S 	 -61.2341 	 26.9264 	 93.5491
| 24> C 	 -61.9351 	 27.8077 	 92.2927
| 25> C 	 -61.0145 	 28.1991 	 91.3378
| 26> C 	 -59.6658 	 27.8231 	 91.6241
| 27> C 	 -59.6237 	 27.0606 	 92.8065
| 28> H 	 -61.3299 	 28.7251 	 90.4708
| 29> C 	 -58.4941 	 28.1935 	 90.7381
| 30> H 	 -58.338 	 27.41 	 90.0886
| 31> H 	 -57.5527 	 28.189 	 91.3497
| 32> C 	 -58.5998 	 29.5666 	 90.0301
| 33> H 	 -58.599 	 30.3138 	 90.8488
| 34> H 	 -59.6008 	 29.6476 	 89.5662
| 35> C 	 -57.5141 	 29.9425 	 88.9868
| 36> H 	 -57.5093 	 30.915 	 88.5342
| 37> H 	 -57.8315 	 29.3892 	 88.2066
| 38> H 	 -56.4579 	 29.5164 	 89.2664
| 39> H 	 -56.3282 	 24.5268 	 95.5637
| 40> H 	 -62.9909 	 28.0045 	 92.1961
| 41> *
| 42>
| 43>                          ****END OF INPUT****

CARTESIAN COORDINATES (ANGSTROEM)
---------------------------------
  S    -58.313300   25.903000   95.162300
  C    -56.922500   24.988800   94.795300
  C    -56.675900   24.774100   93.431000
  C    -57.633300   25.525600   92.665400
  C    -58.549600   26.252400   93.414300
  H    -57.605100   25.478600   91.563200
  C    -55.588000   23.905900   92.842400
  H    -55.927800   23.560200   91.857700
  H    -55.627700   23.025000   93.406700
  C    -54.209600   24.558100   92.763100
  H    -54.251300   25.543500   92.338100
  H    -53.855300   24.778800   93.794600
  C    -53.260000   23.644700   92.069600
  H    -53.426700   23.479700   90.983400
  H    -52.279600   24.133500   92.241100
  H    -53.211800   22.627300   92.611000
  S    -61.234100   26.926400   93.549100
  C    -61.935100   27.807700   92.292700
  C    -61.014500   28.199100   91.337800
  C    -59.665800   27.823100   91.624100
  C    -59.623700   27.060600   92.806500
  H    -61.329900   28.725100   90.470800
  C    -58.494100   28.193500   90.738100
  H    -58.338000   27.410000   90.088600
  H    -57.552700   28.189000   91.349700
  C    -58.599800   29.566600   90.030100
  H    -58.599000   30.313800   90.848800
  H    -59.600800   29.647600   89.566200
  C    -57.514100   29.942500   88.986800
  H    -57.509300   30.915000   88.534200
  H    -57.831500   29.389200   88.206600
  H    -56.457900   29.516400   89.266400
  H    -56.328200   24.526800   95.563700
  H    -62.990900   28.004500   92.196100

 Total Charge           Charge          ....    0
 Multiplicity           Mult            ....    1
 Number of Electrons    NEL             ....  134
 Basis Dimension        Dim             ....  322

ORBITAL ENERGIES
----------------

  NO   OCC          E(Eh)            E(eV)
   0   2.0000     -88.969988     -2420.9964
   1   2.0000     -88.964376     -2420.8438
   2   2.0000     -10.332540      -281.1627
   3   2.0000     -10.329490      -281.0797
   4   2.0000     -10.310882      -280.5734
   5   2.0000     -10.310717      -280.5689
   6   2.0000     -10.306359      -280.4503
   7   2.0000     -10.299109      -280.2530
   8   2.0000     -10.295757      -280.1618
   9   2.0000     -10.293207      -280.0924
  10   2.0000     -10.292019      -280.0601
  11   2.0000     -10.288536      -279.9653
  12   2.0000     -10.287781      -279.9448
  13   2.0000     -10.287246      -279.9302
  14   2.0000     -10.286507      -279.9101
  15   2.0000     -10.279164      -279.7103
  16   2.0000      -8.084452      -219.9891
  17   2.0000      -8.079965      -219.8670
  18   2.0000      -6.042955      -164.4372
  19   2.0000      -6.039110      -164.3325
  20   2.0000      -6.038322      -164.3111
  21   2.0000      -6.035143      -164.2246
  22   2.0000      -6.034337      -164.2027
  23   2.0000      -6.030863      -164.1081
  24   2.0000      -1.003084       -27.2953
  25   2.0000      -0.983661       -26.7668
  26   2.0000      -0.916863       -24.9491
  27   2.0000      -0.909015       -24.7355
  28   2.0000      -0.867104       -23.5951
  29   2.0000      -0.855859       -23.2891
  30   2.0000      -0.849324       -23.1113
  31   2.0000      -0.811221       -22.0744
  32   2.0000      -0.787438       -21.4273
  33   2.0000      -0.768533       -20.9129
  34   2.0000      -0.707073       -19.2404
  35   2.0000      -0.701725       -19.0949
  36   2.0000      -0.695275       -18.9194
  37   2.0000      -0.654859       -17.8196
  38   2.0000      -0.636245       -17.3131
  39   2.0000      -0.622602       -16.9419
  40   2.0000      -0.600580       -16.3426
  41   2.0000      -0.568741       -15.4762
  42   2.0000      -0.562262       -15.2999
  43   2.0000      -0.559260       -15.2182
  44   2.0000      -0.530646       -14.4396
  45   2.0000      -0.525439       -14.2979
  46   2.0000      -0.520074       -14.1519
  47   2.0000      -0.510916       -13.9027
  48   2.0000      -0.498919       -13.5763
  49   2.0000      -0.495272       -13.4770
  50   2.0000      -0.494207       -13.4481
  51   2.0000      -0.479604       -13.0507
  52   2.0000      -0.467633       -12.7250
  53   2.0000      -0.463386       -12.6094
  54   2.0000      -0.462812       -12.5937
  55   2.0000      -0.456379       -12.4187
  56   2.0000      -0.454739       -12.3741
  57   2.0000      -0.441065       -12.0020
  58   2.0000      -0.426341       -11.6013
  59   2.0000      -0.424748       -11.5580
  60   2.0000      -0.422589       -11.4992
  61   2.0000      -0.415431       -11.3045
  62   2.0000      -0.413478       -11.2513
  63   2.0000      -0.353772        -9.6266
  64   2.0000      -0.331720        -9.0266
  65   2.0000      -0.329273        -8.9600
  66   2.0000      -0.280355        -7.6288
  67   0.0000       0.027834         0.7574
  68   0.0000       0.075413         2.0521
  69   0.0000       0.107946         2.9374
  70   0.0000       0.128672         3.5013
  71   0.0000       0.135270         3.6809

MULLIKEN ATOMIC CHARGES
-----------------------
   0 S :    0.123037
   1 C :   -0.119095
   2 C :   -0.109503
   3 C :   -0.006171
   4 C :   -0.122663
   5 H :    0.017837
   6 C :    0.092802
   7 H :    0.010647
   8 H :    0.011547
   9 C :   -0.053895
  10 H :    0.025371
  11 H :    0.025262
  12 C :   -0.064509
  13 H :    0.048045
  14 H :    0.037146
  15 H :    0.039509
  16 S :    0.109684
  17 C :   -0.078165
  18 C :   -0.050012
  19 C :   -0.032935
  20 C :   -0.162668
  21 H :    0.003566
  22 C :    0.085689
  23 H :    0.015613
  24 H :    0.038374
  25 C :   -0.115475
  26 H :    0.038027
  27 H :    0.030559
  28 C :   -0.011990
  29 H :    0.037207
  30 H :   -0.001079
  31 H :    0.045394
  32 H :    0.039517
  33 H :    0.053329
Sum of atomic charges:   -0.0000000

LOEWDIN ATOMIC CHARGES
----------------------
   0 S :    0.406568
   1 C :   -0.208120
   2 C :   -0.063641
   3 C :   -0.061924
   4 C :   -0.188942
   5 H :    0.033482
   6 C :   -0.030802
   7 H :    0.030111
   8 H :    0.024986
   9 C :   -0.042446
  10 H :    0.023898
  11 H :    0.028819
  12 C :   -0.073603
  13 H :    0.028245
  14 H :    0.030743
  15 H :    0.034313
  16 S :    0.420106
  17 C :   -0.203039
  18 C :   -0.073948
  19 C :   -0.049607
  20 C :   -0.186856
  21 H :    0.023224
  22 C :   -0.029847
  23 H :    0.016890
  24 H :    0.040229
  25 C :   -0.039378
  26 H :    0.025515
  27 H :    0.021963
  28 C :   -0.069514
  29 H :    0.030190
  30 H :    0.011444
  31 H :    0.039223
  32 H :    0.022410
  33 H :    0.029309

  Mayer bond orders larger than 0.100000
B(  0-S ,  1-C ) :   1.1574 B(  0-S ,  4-C ) :   1.1329 B(  1-C ,  2-C ) :   1.5935
B(  1-C , 32-H ) :   0.9648 B(  2-C ,  3-C ) :   1.2724 B(  2-C ,  6-C ) :   1.0184
B(  3-C ,  4-C ) :   1.5483 B(  3-C ,  5-H ) :   0.9871 B(  4-C , 20-C ) :   1.0637
B(  6-C ,  7-H ) :   0.9398 B(  6-C ,  8-H ) :   0.9296 B(  6-C ,  9-C ) :   1.0614
B(  9-C , 10-H ) :   0.9531 B(  9-C , 11-H ) :   0.9500 B(  9-C , 12-C ) :   1.0867
B( 12-C , 13-H ) :   0.9739 B( 12-C , 14-H ) :   0.9720 B( 12-C , 15-H ) :   0.9699
B( 16-S , 17-C ) :   1.1736 B( 16-S , 20-C ) :   1.1461 B( 17-C , 18-C ) :   1.5930
B( 17-C , 33-H ) :   0.9662 B( 18-C , 19-C ) :   1.2525 B( 18-C , 21-H ) :   0.9944
B( 19-C , 20-C ) :   1.5775 B( 19-C , 22-C ) :   1.0330 B( 22-C , 23-H ) :   0.9255
B( 22-C , 24-H ) :   0.9310 B( 22-C , 25-C ) :   1.0537 B( 25-C , 26-H ) :   0.9624
B( 25-C , 27-H ) :   0.9572 B( 25-C , 28-C ) :   1.0641 B( 28-C , 29-H ) :   0.9722
B( 28-C , 30-H ) :   0.9702 B( 28-C , 31-H ) :   0.9744

Dispersion correction           -0.013351385
FINAL SINGLE POINT ENERGY     -1339.871301224912

DIPOLE MOMENT
-------------
                                X             Y             Z
Electronic contribution:    -23.99356      -1.46218      20.78520
Nuclear contribution   :     24.39780       1.34007     -21.41141
                        -----------------------------------------
Total Dipole Moment    :      0.40424      -0.12211      -0.62621
                        -----------------------------------------
Magnitude (a.u.)       :      0.75529
Magnitude (Debye)      :      1.91981

Rotational constants in cm-1:     0.016335     0.008428     0.005911
Rotational constants in MHz :   489.699497   252.671144   177.192493

                             ****ORCA TERMINATED NORMALLY****
TOTAL RUN TIME: 0 days 0 hours 0 minutes 28 seconds 917 msec
