                         Program Version 4.2.1 -  RELEASE  -
|  1> ! wB97X-D3 SP def2-SVP
|  2> %pal
|  3> nprocs 16
|  4> end
|  5>
|  6> * xyz 0 1
|  7> S 	 -57.7528 	 50.8791 	 137.459
|  8> C 	 -57.4765 	 52.4461 	 136.909
|  9> C 	 -57.8519 	 53.4143 	 137.77
| 10> C 	 -58.4384 	 52.8483 	 138.962
| 11> C 	 -58.2767 	 51.4652 	 139.03
| 12> H 	 -58.8567 	 53.4937 	 139.767
| 13> C 	 -57.8998 	 54.8424 	 137.507
| 14> H 	 -57.2517 	 55.0713 	 136.665
| 15> H 	 -57.3272 	 55.3324 	 138.301
| 16> C 	 -59.2247 	 55.5431 	 137.263
| 17> H 	 -59.879 	 54.9132 	 136.584
| 18> H 	 -59.7098 	 55.6449 	 138.264
| 19> C 	 -59.12 	 56.9606 	 136.746
| 20> H 	 -58.8685 	 57.0749 	 135.701
| 21> H 	 -60.0761 	 57.4243 	 136.831
| 22> H 	 -58.5341 	 57.519 	 137.438
| 23> S 	 -58.0366 	 48.9791 	 139.97
| 24> C 	 -59.271 	 48.2458 	 140.92
| 25> C 	 -60.2662 	 49.1161 	 141.213
| 26> C 	 -59.9972 	 50.4337 	 140.78
| 27> C 	 -58.8546 	 50.5113 	 139.999
| 28> H 	 -61.1048 	 48.8743 	 141.857
| 29> C 	 -61.0322 	 51.5287 	 141.051
| 30> H 	 -60.5409 	 52.4985 	 141.073
| 31> H 	 -61.6258 	 51.2956 	 141.918
| 32> C 	 -61.9835 	 51.7075 	 139.909
| 33> H 	 -62.2213 	 50.819 	 139.387
| 34> H 	 -61.4109 	 52.1952 	 139.098
| 35> C 	 -63.2529 	 52.5694 	 140.162
| 36> H 	 -62.9889 	 53.5847 	 140.542
| 37> H 	 -64.0054 	 52.0883 	 140.834
| 38> H 	 -63.7247 	 52.7635 	 139.277
| 39> H 	 -57.0069 	 52.7016 	 135.898
| 40> H 	 -59.2793 	 47.1974 	 141.299
| 41> *
| 42>
| 43>                          ****END OF INPUT****

CARTESIAN COORDINATES (ANGSTROEM)
---------------------------------
  S    -57.752800   50.879100  137.459000
  C    -57.476500   52.446100  136.909000
  C    -57.851900   53.414300  137.770000
  C    -58.438400   52.848300  138.962000
  C    -58.276700   51.465200  139.030000
  H    -58.856700   53.493700  139.767000
  C    -57.899800   54.842400  137.507000
  H    -57.251700   55.071300  136.665000
  H    -57.327200   55.332400  138.301000
  C    -59.224700   55.543100  137.263000
  H    -59.879000   54.913200  136.584000
  H    -59.709800   55.644900  138.264000
  C    -59.120000   56.960600  136.746000
  H    -58.868500   57.074900  135.701000
  H    -60.076100   57.424300  136.831000
  H    -58.534100   57.519000  137.438000
  S    -58.036600   48.979100  139.970000
  C    -59.271000   48.245800  140.920000
  C    -60.266200   49.116100  141.213000
  C    -59.997200   50.433700  140.780000
  C    -58.854600   50.511300  139.999000
  H    -61.104800   48.874300  141.857000
  C    -61.032200   51.528700  141.051000
  H    -60.540900   52.498500  141.073000
  H    -61.625800   51.295600  141.918000
  C    -61.983500   51.707500  139.909000
  H    -62.221300   50.819000  139.387000
  H    -61.410900   52.195200  139.098000
  C    -63.252900   52.569400  140.162000
  H    -62.988900   53.584700  140.542000
  H    -64.005400   52.088300  140.834000
  H    -63.724700   52.763500  139.277000
  H    -57.006900   52.701600  135.898000
  H    -59.279300   47.197400  141.299000

 Total Charge           Charge          ....    0
 Multiplicity           Mult            ....    1
 Number of Electrons    NEL             ....  134
 Basis Dimension        Dim             ....  322

ORBITAL ENERGIES
----------------

  NO   OCC          E(Eh)            E(eV)
   0   2.0000     -88.966093     -2420.8905
   1   2.0000     -88.963887     -2420.8304
   2   2.0000     -10.333110      -281.1782
   3   2.0000     -10.326817      -281.0070
   4   2.0000     -10.314721      -280.6778
   5   2.0000     -10.309969      -280.5485
   6   2.0000     -10.302353      -280.3413
   7   2.0000     -10.297827      -280.2181
   8   2.0000     -10.293588      -280.1028
   9   2.0000     -10.291992      -280.0593
  10   2.0000     -10.288443      -279.9628
  11   2.0000     -10.288233      -279.9570
  12   2.0000     -10.284352      -279.8515
  13   2.0000     -10.277158      -279.6557
  14   2.0000     -10.276753      -279.6447
  15   2.0000     -10.274000      -279.5698
  16   2.0000      -8.081907      -219.9199
  17   2.0000      -8.079623      -219.8577
  18   2.0000      -6.040440      -164.3687
  19   2.0000      -6.038068      -164.3042
  20   2.0000      -6.036276      -164.2554
  21   2.0000      -6.033933      -164.1917
  22   2.0000      -6.032534      -164.1536
  23   2.0000      -6.030435      -164.0965
  24   2.0000      -1.015114       -27.6227
  25   2.0000      -0.994198       -27.0535
  26   2.0000      -0.919606       -25.0238
  27   2.0000      -0.912586       -24.8327
  28   2.0000      -0.874288       -23.7906
  29   2.0000      -0.854740       -23.2586
  30   2.0000      -0.849110       -23.1055
  31   2.0000      -0.817246       -22.2384
  32   2.0000      -0.786104       -21.3910
  33   2.0000      -0.775559       -21.1040
  34   2.0000      -0.707823       -19.2609
  35   2.0000      -0.697910       -18.9911
  36   2.0000      -0.688067       -18.7233
  37   2.0000      -0.667283       -18.1577
  38   2.0000      -0.633604       -17.2412
  39   2.0000      -0.626304       -17.0426
  40   2.0000      -0.600523       -16.3411
  41   2.0000      -0.576772       -15.6948
  42   2.0000      -0.566795       -15.4233
  43   2.0000      -0.559213       -15.2170
  44   2.0000      -0.528155       -14.3718
  45   2.0000      -0.521956       -14.2031
  46   2.0000      -0.515514       -14.0278
  47   2.0000      -0.512725       -13.9520
  48   2.0000      -0.510055       -13.8793
  49   2.0000      -0.496670       -13.5151
  50   2.0000      -0.491246       -13.3675
  51   2.0000      -0.484513       -13.1843
  52   2.0000      -0.475768       -12.9463
  53   2.0000      -0.466923       -12.7056
  54   2.0000      -0.462598       -12.5879
  55   2.0000      -0.453191       -12.3319
  56   2.0000      -0.448828       -12.2132
  57   2.0000      -0.438087       -11.9210
  58   2.0000      -0.432870       -11.7790
  59   2.0000      -0.428276       -11.6540
  60   2.0000      -0.420874       -11.4526
  61   2.0000      -0.410749       -11.1770
  62   2.0000      -0.407853       -11.0982
  63   2.0000      -0.358196        -9.7470
  64   2.0000      -0.333270        -9.0688
  65   2.0000      -0.328959        -8.9514
  66   2.0000      -0.287209        -7.8154
  67   0.0000       0.028221         0.7679
  68   0.0000       0.078648         2.1401
  69   0.0000       0.114635         3.1194
  70   0.0000       0.115507         3.1431
  71   0.0000       0.126118         3.4319

MULLIKEN ATOMIC CHARGES
-----------------------
   0 S :    0.115377
   1 C :   -0.133838
   2 C :   -0.081946
   3 C :   -0.032939
   4 C :   -0.083418
   5 H :    0.030079
   6 C :    0.069928
   7 H :   -0.001542
   8 H :    0.021548
   9 C :   -0.094955
  10 H :    0.041711
  11 H :    0.026408
  12 C :   -0.008384
  13 H :    0.037705
  14 H :    0.019110
  15 H :    0.018999
  16 S :    0.096809
  17 C :   -0.087922
  18 C :   -0.038225
  19 C :   -0.064370
  20 C :   -0.154399
  21 H :    0.017962
  22 C :    0.123561
  23 H :    0.015598
  24 H :    0.014233
  25 C :   -0.095113
  26 H :    0.013138
  27 H :    0.019736
  28 C :   -0.016536
  29 H :    0.024518
  30 H :    0.038529
  31 H :    0.012621
  32 H :    0.067153
  33 H :    0.068866
Sum of atomic charges:   -0.0000000

LOEWDIN ATOMIC CHARGES
----------------------
   0 S :    0.428392
   1 C :   -0.224248
   2 C :   -0.075605
   3 C :   -0.066447
   4 C :   -0.193141
   5 H :    0.034759
   6 C :   -0.046278
   7 H :    0.026822
   8 H :    0.033151
   9 C :   -0.040985
  10 H :    0.030327
  11 H :    0.026144
  12 C :   -0.061478
  13 H :    0.025509
  14 H :    0.026837
  15 H :    0.023363
  16 S :    0.421484
  17 C :   -0.197313
  18 C :   -0.075234
  19 C :   -0.052664
  20 C :   -0.200119
  21 H :    0.033045
  22 C :   -0.025008
  23 H :    0.029992
  24 H :    0.026741
  25 C :   -0.045915
  26 H :    0.016388
  27 H :    0.027317
  28 C :   -0.060632
  29 H :    0.027448
  30 H :    0.027988
  31 H :    0.014557
  32 H :    0.044491
  33 H :    0.040310

  Mayer bond orders larger than 0.100000
B(  0-S ,  1-C ) :   1.1423 B(  0-S ,  4-C ) :   1.1567 B(  1-C ,  2-C ) :   1.6229
B(  1-C , 32-H ) :   0.9480 B(  2-C ,  3-C ) :   1.2415 B(  2-C ,  6-C ) :   1.0546
B(  3-C ,  4-C ) :   1.5650 B(  3-C ,  5-H ) :   0.9916 B(  4-C , 20-C ) :   1.0353
B(  6-C ,  7-H ) :   0.9321 B(  6-C ,  8-H ) :   0.9180 B(  6-C ,  9-C ) :   1.0583
B(  9-C , 10-H ) :   0.9566 B(  9-C , 11-H ) :   0.9478 B(  9-C , 12-C ) :   1.0991
B( 12-C , 13-H ) :   0.9731 B( 12-C , 14-H ) :   0.9686 B( 12-C , 15-H ) :   0.9690
B( 16-S , 17-C ) :   1.1573 B( 16-S , 20-C ) :   1.1464 B( 17-C , 18-C ) :   1.6016
B( 17-C , 33-H ) :   0.9611 B( 18-C , 19-C ) :   1.2686 B( 18-C , 21-H ) :   0.9872
B( 19-C , 20-C ) :   1.5753 B( 19-C , 22-C ) :   1.0544 B( 22-C , 23-H ) :   0.9304
B( 22-C , 24-H ) :   0.9337 B( 22-C , 25-C ) :   1.0611 B( 25-C , 26-H ) :   0.9534
B( 25-C , 27-H ) :   0.9493 B( 25-C , 28-C ) :   1.0843 B( 28-C , 29-H ) :   0.9718
B( 28-C , 30-H ) :   0.9750 B( 28-C , 31-H ) :   0.9712

Dispersion correction           -0.014206254
FINAL SINGLE POINT ENERGY     -1339.875212231773

DIPOLE MOMENT
-------------
                                X             Y             Z
Electronic contribution:     18.22657     -26.91276       1.62777
Nuclear contribution   :    -18.72862      27.43011      -1.64795
                        -----------------------------------------
Total Dipole Moment    :     -0.50206       0.51735      -0.02018
                        -----------------------------------------
Magnitude (a.u.)       :      0.72120
Magnitude (Debye)      :      1.83314

Rotational constants in cm-1:     0.018794     0.009113     0.006543
Rotational constants in MHz :   563.420689   273.209314   196.145302

                             ****ORCA TERMINATED NORMALLY****
TOTAL RUN TIME: 0 days 0 hours 0 minutes 35 seconds 126 msec
