                         Program Version 4.2.1 -  RELEASE  -
|  1> ! wB97X-D3 SP def2-SVP
|  2> %pal
|  3> nprocs 16
|  4> end
|  5>
|  6> * xyz 0 1
|  7> S 	 -54.1517 	 12.2534 	 89.8909
|  8> C 	 -53.274 	 13.7843 	 89.8955
|  9> C 	 -52.5166 	 13.9293 	 88.7436
| 10> C 	 -52.6519 	 12.8308 	 87.8485
| 11> C 	 -53.5892 	 11.8631 	 88.2758
| 12> H 	 -52.0443 	 12.6777 	 86.9534
| 13> C 	 -51.534 	 15.0703 	 88.5402
| 14> H 	 -52.0787 	 15.9664 	 88.7114
| 15> H 	 -51.2632 	 15.0546 	 87.4882
| 16> C 	 -50.2965 	 15.1387 	 89.4494
| 17> H 	 -49.5828 	 15.8727 	 88.9722
| 18> H 	 -50.3743 	 15.4074 	 90.5205
| 19> C 	 -49.5019 	 13.8034 	 89.4618
| 20> H 	 -50.022 	 13.1194 	 90.0833
| 21> H 	 -49.4173 	 13.3602 	 88.4181
| 22> H 	 -48.503 	 14.0257 	 89.8221
| 23> S 	 -54.0309 	 9.15918 	 88.3295
| 24> C 	 -54.5866 	 8.27882 	 86.9766
| 25> C 	 -54.7403 	 9.19364 	 85.9013
| 26> C 	 -54.4755 	 10.5429 	 86.209
| 27> C 	 -54.0508 	 10.7145 	 87.5102
| 28> H 	 -55.1875 	 8.90687 	 84.9899
| 29> C 	 -54.6813 	 11.67 	 85.2218
| 30> H 	 -54.2457 	 12.6629 	 85.5791
| 31> H 	 -55.7485 	 11.9109 	 85.0632
| 32> C 	 -54.1951 	 11.3816 	 83.754
| 33> H 	 -54.5707 	 12.2344 	 83.1368
| 34> H 	 -54.6352 	 10.4289 	 83.4522
| 35> C 	 -52.6844 	 11.3463 	 83.5885
| 36> H 	 -52.5176 	 10.8306 	 82.6195
| 37> H 	 -52.2145 	 10.6658 	 84.2713
| 38> H 	 -52.228 	 12.3057 	 83.7557
| 39> H 	 -53.3523 	 14.6468 	 90.5777
| 40> H 	 -54.572 	 7.2316 	 86.8835
| 41> *
| 42>
| 43>                          ****END OF INPUT****

CARTESIAN COORDINATES (ANGSTROEM)
---------------------------------
  S    -54.151700   12.253400   89.890900
  C    -53.274000   13.784300   89.895500
  C    -52.516600   13.929300   88.743600
  C    -52.651900   12.830800   87.848500
  C    -53.589200   11.863100   88.275800
  H    -52.044300   12.677700   86.953400
  C    -51.534000   15.070300   88.540200
  H    -52.078700   15.966400   88.711400
  H    -51.263200   15.054600   87.488200
  C    -50.296500   15.138700   89.449400
  H    -49.582800   15.872700   88.972200
  H    -50.374300   15.407400   90.520500
  C    -49.501900   13.803400   89.461800
  H    -50.022000   13.119400   90.083300
  H    -49.417300   13.360200   88.418100
  H    -48.503000   14.025700   89.822100
  S    -54.030900    9.159180   88.329500
  C    -54.586600    8.278820   86.976600
  C    -54.740300    9.193640   85.901300
  C    -54.475500   10.542900   86.209000
  C    -54.050800   10.714500   87.510200
  H    -55.187500    8.906870   84.989900
  C    -54.681300   11.670000   85.221800
  H    -54.245700   12.662900   85.579100
  H    -55.748500   11.910900   85.063200
  C    -54.195100   11.381600   83.754000
  H    -54.570700   12.234400   83.136800
  H    -54.635200   10.428900   83.452200
  C    -52.684400   11.346300   83.588500
  H    -52.517600   10.830600   82.619500
  H    -52.214500   10.665800   84.271300
  H    -52.228000   12.305700   83.755700
  H    -53.352300   14.646800   90.577700
  H    -54.572000    7.231600   86.883500

 Total Charge           Charge          ....    0
 Multiplicity           Mult            ....    1
 Number of Electrons    NEL             ....  134
 Basis Dimension        Dim             ....  322

ORBITAL ENERGIES
----------------

  NO   OCC          E(Eh)            E(eV)
   0   2.0000     -88.971906     -2421.0486
   1   2.0000     -88.965882     -2420.8847
   2   2.0000     -10.335164      -281.2341
   3   2.0000     -10.327985      -281.0388
   4   2.0000     -10.318940      -280.7926
   5   2.0000     -10.316166      -280.7171
   6   2.0000     -10.303491      -280.3723
   7   2.0000     -10.299994      -280.2771
   8   2.0000     -10.297613      -280.2123
   9   2.0000     -10.295943      -280.1668
  10   2.0000     -10.293559      -280.1020
  11   2.0000     -10.292902      -280.0841
  12   2.0000     -10.291526      -280.0467
  13   2.0000     -10.290698      -280.0241
  14   2.0000     -10.273666      -279.5607
  15   2.0000     -10.273283      -279.5503
  16   2.0000      -8.085833      -220.0267
  17   2.0000      -8.081348      -219.9047
  18   2.0000      -6.044395      -164.4763
  19   2.0000      -6.040376      -164.3670
  20   2.0000      -6.039758      -164.3502
  21   2.0000      -6.036648      -164.2655
  22   2.0000      -6.035483      -164.2338
  23   2.0000      -6.032425      -164.1506
  24   2.0000      -1.008355       -27.4387
  25   2.0000      -0.984911       -26.8008
  26   2.0000      -0.910466       -24.7750
  27   2.0000      -0.906958       -24.6796
  28   2.0000      -0.867637       -23.6096
  29   2.0000      -0.852952       -23.2100
  30   2.0000      -0.843657       -22.9571
  31   2.0000      -0.810907       -22.0659
  32   2.0000      -0.783859       -21.3299
  33   2.0000      -0.775380       -21.0992
  34   2.0000      -0.705411       -19.1952
  35   2.0000      -0.699045       -19.0220
  36   2.0000      -0.692572       -18.8458
  37   2.0000      -0.660867       -17.9831
  38   2.0000      -0.633316       -17.2334
  39   2.0000      -0.615037       -16.7360
  40   2.0000      -0.602176       -16.3860
  41   2.0000      -0.572904       -15.5895
  42   2.0000      -0.550058       -14.9678
  43   2.0000      -0.548808       -14.9338
  44   2.0000      -0.545267       -14.8375
  45   2.0000      -0.538330       -14.6487
  46   2.0000      -0.526809       -14.3352
  47   2.0000      -0.511677       -13.9234
  48   2.0000      -0.504389       -13.7251
  49   2.0000      -0.499515       -13.5925
  50   2.0000      -0.493321       -13.4240
  51   2.0000      -0.478237       -13.0135
  52   2.0000      -0.471919       -12.8416
  53   2.0000      -0.465674       -12.6716
  54   2.0000      -0.460202       -12.5227
  55   2.0000      -0.443270       -12.0620
  56   2.0000      -0.440253       -11.9799
  57   2.0000      -0.437826       -11.9139
  58   2.0000      -0.427086       -11.6216
  59   2.0000      -0.424875       -11.5614
  60   2.0000      -0.418856       -11.3976
  61   2.0000      -0.413096       -11.2409
  62   2.0000      -0.409854       -11.1527
  63   2.0000      -0.348319        -9.4782
  64   2.0000      -0.333243        -9.0680
  65   2.0000      -0.332052        -9.0356
  66   2.0000      -0.287384        -7.8201
  67   0.0000       0.023866         0.6494
  68   0.0000       0.062697         1.7061
  69   0.0000       0.112061         3.0493
  70   0.0000       0.118399         3.2218
  71   0.0000       0.128291         3.4910

MULLIKEN ATOMIC CHARGES
-----------------------
   0 S :    0.125981
   1 C :   -0.124121
   2 C :   -0.125039
   3 C :    0.024794
   4 C :   -0.149691
   5 H :    0.019649
   6 C :    0.110404
   7 H :    0.022668
   8 H :    0.018820
   9 C :   -0.104356
  10 H :    0.035446
  11 H :    0.039999
  12 C :   -0.063482
  13 H :    0.042338
  14 H :    0.030024
  15 H :    0.033616
  16 S :    0.108021
  17 C :   -0.069329
  18 C :   -0.052587
  19 C :    0.007026
  20 C :   -0.168540
  21 H :    0.006510
  22 C :    0.028680
  23 H :    0.032351
  24 H :    0.042625
  25 C :   -0.112997
  26 H :    0.039875
  27 H :    0.029123
  28 C :   -0.027504
  29 H :    0.036051
  30 H :    0.022567
  31 H :    0.031951
  32 H :    0.055466
  33 H :    0.053661
Sum of atomic charges:   -0.0000000

LOEWDIN ATOMIC CHARGES
----------------------
   0 S :    0.410753
   1 C :   -0.205788
   2 C :   -0.066520
   3 C :   -0.067247
   4 C :   -0.193031
   5 H :    0.032468
   6 C :   -0.031254
   7 H :    0.029896
   8 H :    0.031539
   9 C :   -0.045262
  10 H :    0.029838
  11 H :    0.027312
  12 C :   -0.065287
  13 H :    0.020041
  14 H :    0.027121
  15 H :    0.023500
  16 S :    0.429151
  17 C :   -0.191199
  18 C :   -0.069084
  19 C :   -0.060541
  20 C :   -0.197616
  21 H :    0.020763
  22 C :   -0.039613
  23 H :    0.034718
  24 H :    0.036637
  25 C :   -0.041081
  26 H :    0.030346
  27 H :    0.019605
  28 C :   -0.069290
  29 H :    0.034121
  30 H :    0.021024
  31 H :    0.022554
  32 H :    0.037376
  33 H :    0.024052

  Mayer bond orders larger than 0.100000
B(  0-S ,  1-C ) :   1.1334 B(  0-S ,  4-C ) :   1.1659 B(  1-C ,  2-C ) :   1.5994
B(  1-C ,  4-C ) :   0.1051 B(  1-C , 32-H ) :   0.9643 B(  2-C ,  3-C ) :   1.2681
B(  2-C ,  6-C ) :   1.0218 B(  3-C ,  4-C ) :   1.5347 B(  3-C ,  5-H ) :   0.9886
B(  4-C , 20-C ) :   1.0383 B(  6-C ,  7-H ) :   0.9314 B(  6-C ,  8-H ) :   0.9387
B(  6-C ,  9-C ) :   1.0746 B(  9-C , 10-H ) :   0.9585 B(  9-C , 11-H ) :   0.9576
B(  9-C , 12-C ) :   1.0710 B( 12-C , 13-H ) :   0.9747 B( 12-C , 14-H ) :   0.9776
B( 12-C , 15-H ) :   0.9760 B( 16-S , 17-C ) :   1.1880 B( 16-S , 20-C ) :   1.1585
B( 17-C , 18-C ) :   1.5439 B( 17-C , 20-C ) :   0.1100 B( 17-C , 33-H ) :   0.9757
B( 18-C , 19-C ) :   1.2850 B( 18-C , 21-H ) :   0.9918 B( 19-C , 20-C ) :   1.5587
B( 19-C , 22-C ) :   1.0374 B( 22-C , 23-H ) :   0.9402 B( 22-C , 24-H ) :   0.9329
B( 22-C , 25-C ) :   1.0684 B( 25-C , 26-H ) :   0.9559 B( 25-C , 27-H ) :   0.9553
B( 25-C , 28-C ) :   1.0817 B( 28-C , 29-H ) :   0.9715 B( 28-C , 30-H ) :   0.9734
B( 28-C , 31-H ) :   0.9735

Dispersion correction           -0.014747396
FINAL SINGLE POINT ENERGY     -1339.881506683828

DIPOLE MOMENT
-------------
                                X             Y             Z
Electronic contribution:    -15.14284     -13.93283      15.56520
Nuclear contribution   :     15.35371      14.24382     -16.03333
                        -----------------------------------------
Total Dipole Moment    :      0.21087       0.31099      -0.46813
                        -----------------------------------------
Magnitude (a.u.)       :      0.60027
Magnitude (Debye)      :      1.52578

Rotational constants in cm-1:     0.019332     0.008684     0.006985
Rotational constants in MHz :   579.572056   260.341204   209.399404

                             ****ORCA TERMINATED NORMALLY****
TOTAL RUN TIME: 0 days 0 hours 0 minutes 30 seconds 331 msec
