                         Program Version 4.2.1 -  RELEASE  -
|  1> ! wB97X-D3 SP def2-SVP
|  2> %pal
|  3> nprocs 16
|  4> end
|  5>
|  6> * xyz 0 1
|  7> S 	 -76.3135 	 50.7503 	 138.249
|  8> C 	 -77.6325 	 49.6227 	 138.826
|  9> C 	 -78.7764 	 49.8164 	 138.151
| 10> C 	 -78.6364 	 50.9742 	 137.33
| 11> C 	 -77.3475 	 51.4832 	 137.129
| 12> H 	 -79.4013 	 51.2682 	 136.671
| 13> C 	 -80.1304 	 49.0879 	 138.264
| 14> H 	 -79.9177 	 48.0609 	 138.557
| 15> H 	 -80.4364 	 49.2384 	 137.293
| 16> C 	 -81.0348 	 49.8154 	 139.203
| 17> H 	 -80.5594 	 49.7471 	 140.214
| 18> H 	 -81.0958 	 50.89 	 138.993
| 19> C 	 -82.4063 	 49.0817 	 139.299
| 20> H 	 -82.3032 	 48.1263 	 139.773
| 21> H 	 -83.121 	 49.5388 	 139.994
| 22> H 	 -82.9458 	 49.0036 	 138.333
| 23> S 	 -77.1015 	 52.234 	 134.543
| 24> C 	 -76.5925 	 53.8265 	 134.133
| 25> C 	 -76.222 	 54.5284 	 135.276
| 26> C 	 -76.4122 	 53.7597 	 136.474
| 27> C 	 -76.8838 	 52.4923 	 136.224
| 28> H 	 -75.9213 	 55.5816 	 135.285
| 29> C 	 -76.1989 	 54.3149 	 137.845
| 30> H 	 -75.1095 	 54.5985 	 137.965
| 31> H 	 -76.4155 	 53.4934 	 138.524
| 32> C 	 -77.1764 	 55.3712 	 138.219
| 33> H 	 -77.1939 	 56.1554 	 137.524
| 34> H 	 -76.9389 	 55.7271 	 139.164
| 35> C 	 -78.6379 	 54.8031 	 138.283
| 36> H 	 -79.3282 	 55.5449 	 138.597
| 37> H 	 -78.7587 	 54.043 	 139.054
| 38> H 	 -79.0273 	 54.544 	 137.306
| 39> H 	 -77.5112 	 48.8218 	 139.602
| 40> H 	 -76.6151 	 54.2866 	 133.163
| 41> *
| 42>
| 43>                          ****END OF INPUT****

CARTESIAN COORDINATES (ANGSTROEM)
---------------------------------
  S    -76.313500   50.750300  138.249000
  C    -77.632500   49.622700  138.826000
  C    -78.776400   49.816400  138.151000
  C    -78.636400   50.974200  137.330000
  C    -77.347500   51.483200  137.129000
  H    -79.401300   51.268200  136.671000
  C    -80.130400   49.087900  138.264000
  H    -79.917700   48.060900  138.557000
  H    -80.436400   49.238400  137.293000
  C    -81.034800   49.815400  139.203000
  H    -80.559400   49.747100  140.214000
  H    -81.095800   50.890000  138.993000
  C    -82.406300   49.081700  139.299000
  H    -82.303200   48.126300  139.773000
  H    -83.121000   49.538800  139.994000
  H    -82.945800   49.003600  138.333000
  S    -77.101500   52.234000  134.543000
  C    -76.592500   53.826500  134.133000
  C    -76.222000   54.528400  135.276000
  C    -76.412200   53.759700  136.474000
  C    -76.883800   52.492300  136.224000
  H    -75.921300   55.581600  135.285000
  C    -76.198900   54.314900  137.845000
  H    -75.109500   54.598500  137.965000
  H    -76.415500   53.493400  138.524000
  C    -77.176400   55.371200  138.219000
  H    -77.193900   56.155400  137.524000
  H    -76.938900   55.727100  139.164000
  C    -78.637900   54.803100  138.283000
  H    -79.328200   55.544900  138.597000
  H    -78.758700   54.043000  139.054000
  H    -79.027300   54.544000  137.306000
  H    -77.511200   48.821800  139.602000
  H    -76.615100   54.286600  133.163000

 Total Charge           Charge          ....    0
 Multiplicity           Mult            ....    1
 Number of Electrons    NEL             ....  134
 Basis Dimension        Dim             ....  322

ORBITAL ENERGIES
----------------

  NO   OCC          E(Eh)            E(eV)
   0   2.0000     -88.965605     -2420.8772
   1   2.0000     -88.963301     -2420.8145
   2   2.0000     -10.325063      -280.9593
   3   2.0000     -10.318449      -280.7793
   4   2.0000     -10.316877      -280.7365
   5   2.0000     -10.316255      -280.7196
   6   2.0000     -10.296988      -280.1953
   7   2.0000     -10.296352      -280.1780
   8   2.0000     -10.294787      -280.1354
   9   2.0000     -10.292175      -280.0643
  10   2.0000     -10.289646      -279.9955
  11   2.0000     -10.286787      -279.9177
  12   2.0000     -10.283884      -279.8387
  13   2.0000     -10.281173      -279.7649
  14   2.0000     -10.273257      -279.5495
  15   2.0000     -10.268106      -279.4094
  16   2.0000      -8.081324      -219.9040
  17   2.0000      -8.077757      -219.8069
  18   2.0000      -6.039750      -164.3500
  19   2.0000      -6.036280      -164.2555
  20   2.0000      -6.035548      -164.2356
  21   2.0000      -6.032252      -164.1459
  22   2.0000      -6.032250      -164.1459
  23   2.0000      -6.028536      -164.0448
  24   2.0000      -1.013568       -27.5806
  25   2.0000      -0.987757       -26.8782
  26   2.0000      -0.921703       -25.0808
  27   2.0000      -0.915883       -24.9224
  28   2.0000      -0.872859       -23.7517
  29   2.0000      -0.847206       -23.0537
  30   2.0000      -0.840835       -22.8803
  31   2.0000      -0.807985       -21.9864
  32   2.0000      -0.788203       -21.4481
  33   2.0000      -0.776745       -21.1363
  34   2.0000      -0.709344       -19.3022
  35   2.0000      -0.704943       -19.1825
  36   2.0000      -0.698487       -19.0068
  37   2.0000      -0.661332       -17.9958
  38   2.0000      -0.633748       -17.2452
  39   2.0000      -0.620869       -16.8947
  40   2.0000      -0.601322       -16.3628
  41   2.0000      -0.573807       -15.6141
  42   2.0000      -0.565715       -15.3939
  43   2.0000      -0.553948       -15.0737
  44   2.0000      -0.547968       -14.9110
  45   2.0000      -0.524737       -14.2788
  46   2.0000      -0.514784       -14.0080
  47   2.0000      -0.511770       -13.9260
  48   2.0000      -0.509289       -13.8585
  49   2.0000      -0.499787       -13.5999
  50   2.0000      -0.487696       -13.2709
  51   2.0000      -0.474893       -12.9225
  52   2.0000      -0.468665       -12.7530
  53   2.0000      -0.465175       -12.6581
  54   2.0000      -0.460762       -12.5380
  55   2.0000      -0.446322       -12.1450
  56   2.0000      -0.442809       -12.0495
  57   2.0000      -0.440241       -11.9796
  58   2.0000      -0.436703       -11.8833
  59   2.0000      -0.428376       -11.6567
  60   2.0000      -0.420978       -11.4554
  61   2.0000      -0.414550       -11.2805
  62   2.0000      -0.409478       -11.1425
  63   2.0000      -0.340543        -9.2667
  64   2.0000      -0.331185        -9.0120
  65   2.0000      -0.327448        -8.9103
  66   2.0000      -0.299415        -8.1475
  67   0.0000       0.037244         1.0135
  68   0.0000       0.070641         1.9222
  69   0.0000       0.114258         3.1091
  70   0.0000       0.120896         3.2897
  71   0.0000       0.128755         3.5036

MULLIKEN ATOMIC CHARGES
-----------------------
   0 S :    0.106140
   1 C :   -0.157385
   2 C :   -0.106478
   3 C :    0.048349
   4 C :   -0.181435
   5 H :   -0.015449
   6 C :    0.145854
   7 H :    0.029357
   8 H :    0.006930
   9 C :   -0.094210
  10 H :    0.027879
  11 H :    0.039626
  12 C :   -0.038104
  13 H :    0.024418
  14 H :    0.028135
  15 H :    0.039048
  16 S :    0.127214
  17 C :   -0.087334
  18 C :   -0.041331
  19 C :   -0.057262
  20 C :   -0.154265
  21 H :    0.025048
  22 C :    0.078791
  23 H :    0.046812
  24 H :    0.007798
  25 C :   -0.001615
  26 H :    0.009073
  27 H :    0.011683
  28 C :   -0.063319
  29 H :    0.012511
  30 H :    0.034806
  31 H :    0.038778
  32 H :    0.054863
  33 H :    0.055074
Sum of atomic charges:   -0.0000000

LOEWDIN ATOMIC CHARGES
----------------------
   0 S :    0.406944
   1 C :   -0.185808
   2 C :   -0.061536
   3 C :   -0.067098
   4 C :   -0.209257
   5 H :    0.014697
   6 C :   -0.013780
   7 H :    0.034111
   8 H :    0.021860
   9 C :   -0.039914
  10 H :    0.029609
  11 H :    0.027971
  12 C :   -0.071995
  13 H :    0.023255
  14 H :    0.026948
  15 H :    0.027968
  16 S :    0.441248
  17 C :   -0.193293
  18 C :   -0.073145
  19 C :   -0.053909
  20 C :   -0.222304
  21 H :    0.033301
  22 C :   -0.038380
  23 H :    0.039121
  24 H :    0.020942
  25 C :   -0.023215
  26 H :    0.013054
  27 H :    0.017026
  28 C :   -0.060865
  29 H :    0.019984
  30 H :    0.025851
  31 H :    0.025557
  32 H :    0.035428
  33 H :    0.029627

  Mayer bond orders larger than 0.100000
B(  0-S ,  1-C ) :   1.1174 B(  0-S ,  4-C ) :   1.1607 B(  1-C ,  2-C ) :   1.6467
B(  1-C , 32-H ) :   0.9608 B(  2-C ,  3-C ) :   1.2367 B(  2-C ,  6-C ) :   0.9967
B(  3-C ,  4-C ) :   1.5906 B(  3-C ,  5-H ) :   0.9862 B(  4-C , 20-C ) :   1.0086
B(  6-C ,  7-H ) :   0.9399 B(  6-C ,  8-H ) :   0.9261 B(  6-C ,  9-C ) :   1.0787
B(  9-C , 10-H ) :   0.9536 B(  9-C , 11-H ) :   0.9572 B(  9-C , 12-C ) :   1.0758
B( 12-C , 13-H ) :   0.9722 B( 12-C , 14-H ) :   0.9737 B( 12-C , 15-H ) :   0.9765
B( 16-S , 17-C ) :   1.1731 B( 16-S , 20-C ) :   1.1527 B( 17-C , 18-C ) :   1.5777
B( 17-C , 33-H ) :   0.9710 B( 18-C , 19-C ) :   1.2595 B( 18-C , 21-H ) :   0.9868
B( 19-C , 20-C ) :   1.5823 B( 19-C , 22-C ) :   1.0459 B( 22-C , 23-H ) :   0.9310
B( 22-C , 24-H ) :   0.9199 B( 22-C , 25-C ) :   1.0824 B( 25-C , 26-H ) :   0.9570
B( 25-C , 27-H ) :   0.9511 B( 25-C , 28-C ) :   1.0784 B( 28-C , 29-H ) :   0.9708
B( 28-C , 30-H ) :   0.9745 B( 28-C , 31-H ) :   0.9747

Dispersion correction           -0.015330918
FINAL SINGLE POINT ENERGY     -1339.873005282321

DIPOLE MOMENT
-------------
                                X             Y             Z
Electronic contribution:     19.64298      -3.55023     -14.46981
Nuclear contribution   :    -20.14926       3.75241      14.68414
                        -----------------------------------------
Total Dipole Moment    :     -0.50628       0.20218       0.21433
                        -----------------------------------------
Magnitude (a.u.)       :      0.58577
Magnitude (Debye)      :      1.48892

Rotational constants in cm-1:     0.021194     0.008034     0.007579
Rotational constants in MHz :   635.378405   240.847834   227.200769

                             ****ORCA TERMINATED NORMALLY****
TOTAL RUN TIME: 0 days 0 hours 0 minutes 36 seconds 118 msec
