                         Program Version 4.2.1 -  RELEASE  -
|  1> ! wB97X-D3 SP def2-SVP
|  2> %pal
|  3> nprocs 16
|  4> end
|  5>
|  6> * xyz 0 1
|  7> S 	 49.7157 	 16.4896 	 77.1934
|  8> C 	 50.1965 	 16.9301 	 78.8057
|  9> C 	 49.2933 	 17.7052 	 79.4343
| 10> C 	 48.0933 	 17.8631 	 78.67
| 11> C 	 48.1457 	 17.1305 	 77.4927
| 12> H 	 47.2298 	 18.4271 	 79.0415
| 13> C 	 49.5489 	 18.5413 	 80.684
| 14> H 	 49.6036 	 19.5736 	 80.411
| 15> H 	 50.501 	 18.2656 	 81.1332
| 16> C 	 48.4877 	 18.5022 	 81.7586
| 17> H 	 47.5913 	 18.7174 	 81.2422
| 18> H 	 48.4667 	 17.5317 	 82.1902
| 19> C 	 48.6836 	 19.5251 	 82.9048
| 20> H 	 48.8437 	 20.5505 	 82.4947
| 21> H 	 47.6974 	 19.6728 	 83.3571
| 22> H 	 49.4468 	 19.2301 	 83.614
| 23> S 	 47.8356 	 17.3245 	 74.8212
| 24> C 	 46.2692 	 17.4953 	 74.0697
| 25> C 	 45.3014 	 17.2463 	 75.0217
| 26> C 	 45.7895 	 17.1521 	 76.3443
| 27> C 	 47.187 	 17.1727 	 76.4301
| 28> H 	 44.2782 	 17.2285 	 74.6491
| 29> C 	 44.7816 	 17.214 	 77.4617
| 30> H 	 45.3332 	 17.1212 	 78.4084
| 31> H 	 43.9421 	 16.4997 	 77.3393
| 32> C 	 44.2586 	 18.5801 	 77.683
| 33> H 	 43.6223 	 18.7615 	 76.7933
| 34> H 	 44.9473 	 19.3647 	 77.5484
| 35> C 	 43.3757 	 18.8604 	 78.9101
| 36> H 	 42.8739 	 19.8154 	 78.8894
| 37> H 	 43.8913 	 18.7305 	 79.8324
| 38> H 	 42.5251 	 18.1954 	 78.9845
| 39> H 	 51.2496 	 16.8471 	 79.1127
| 40> H 	 45.9513 	 17.6014 	 73.04
| 41> *
| 42>
| 43>                          ****END OF INPUT****

CARTESIAN COORDINATES (ANGSTROEM)
---------------------------------
  S     49.715700   16.489600   77.193400
  C     50.196500   16.930100   78.805700
  C     49.293300   17.705200   79.434300
  C     48.093300   17.863100   78.670000
  C     48.145700   17.130500   77.492700
  H     47.229800   18.427100   79.041500
  C     49.548900   18.541300   80.684000
  H     49.603600   19.573600   80.411000
  H     50.501000   18.265600   81.133200
  C     48.487700   18.502200   81.758600
  H     47.591300   18.717400   81.242200
  H     48.466700   17.531700   82.190200
  C     48.683600   19.525100   82.904800
  H     48.843700   20.550500   82.494700
  H     47.697400   19.672800   83.357100
  H     49.446800   19.230100   83.614000
  S     47.835600   17.324500   74.821200
  C     46.269200   17.495300   74.069700
  C     45.301400   17.246300   75.021700
  C     45.789500   17.152100   76.344300
  C     47.187000   17.172700   76.430100
  H     44.278200   17.228500   74.649100
  C     44.781600   17.214000   77.461700
  H     45.333200   17.121200   78.408400
  H     43.942100   16.499700   77.339300
  C     44.258600   18.580100   77.683000
  H     43.622300   18.761500   76.793300
  H     44.947300   19.364700   77.548400
  C     43.375700   18.860400   78.910100
  H     42.873900   19.815400   78.889400
  H     43.891300   18.730500   79.832400
  H     42.525100   18.195400   78.984500
  H     51.249600   16.847100   79.112700
  H     45.951300   17.601400   73.040000

 Total Charge           Charge          ....    0
 Multiplicity           Mult            ....    1
 Number of Electrons    NEL             ....  134
 Basis Dimension        Dim             ....  322

ORBITAL ENERGIES
----------------

  NO   OCC          E(Eh)            E(eV)
   0   2.0000     -88.967629     -2420.9323
   1   2.0000     -88.965254     -2420.8676
   2   2.0000     -10.330201      -281.0991
   3   2.0000     -10.327662      -281.0300
   4   2.0000     -10.315196      -280.6907
   5   2.0000     -10.310330      -280.5583
   6   2.0000     -10.302865      -280.3552
   7   2.0000     -10.298261      -280.2299
   8   2.0000     -10.297146      -280.1996
   9   2.0000     -10.290413      -280.0164
  10   2.0000     -10.289945      -280.0036
  11   2.0000     -10.287555      -279.9386
  12   2.0000     -10.283528      -279.8290
  13   2.0000     -10.279518      -279.7199
  14   2.0000     -10.279230      -279.7121
  15   2.0000     -10.275234      -279.6033
  16   2.0000      -8.083358      -219.9594
  17   2.0000      -8.080182      -219.8729
  18   2.0000      -6.041861      -164.4074
  19   2.0000      -6.038828      -164.3249
  20   2.0000      -6.037914      -164.3000
  21   2.0000      -6.034566      -164.2089
  22   2.0000      -6.033879      -164.1902
  23   2.0000      -6.030856      -164.1079
  24   2.0000      -1.016564       -27.6621
  25   2.0000      -0.990354       -26.9489
  26   2.0000      -0.920517       -25.0485
  27   2.0000      -0.916678       -24.9441
  28   2.0000      -0.877481       -23.8775
  29   2.0000      -0.853848       -23.2344
  30   2.0000      -0.846446       -23.0330
  31   2.0000      -0.817050       -22.2331
  32   2.0000      -0.786014       -21.3885
  33   2.0000      -0.778109       -21.1734
  34   2.0000      -0.714812       -19.4510
  35   2.0000      -0.698036       -18.9945
  36   2.0000      -0.694501       -18.8983
  37   2.0000      -0.664037       -18.0694
  38   2.0000      -0.637714       -17.3531
  39   2.0000      -0.630505       -17.1569
  40   2.0000      -0.598243       -16.2790
  41   2.0000      -0.580967       -15.8089
  42   2.0000      -0.571427       -15.5493
  43   2.0000      -0.565851       -15.3976
  44   2.0000      -0.526291       -14.3211
  45   2.0000      -0.522271       -14.2117
  46   2.0000      -0.517160       -14.0726
  47   2.0000      -0.513665       -13.9775
  48   2.0000      -0.509853       -13.8738
  49   2.0000      -0.502503       -13.6738
  50   2.0000      -0.498074       -13.5533
  51   2.0000      -0.486471       -13.2375
  52   2.0000      -0.474856       -12.9215
  53   2.0000      -0.472632       -12.8610
  54   2.0000      -0.461961       -12.5706
  55   2.0000      -0.455211       -12.3869
  56   2.0000      -0.449579       -12.2337
  57   2.0000      -0.435394       -11.8477
  58   2.0000      -0.433380       -11.7929
  59   2.0000      -0.425984       -11.5916
  60   2.0000      -0.422860       -11.5066
  61   2.0000      -0.416255       -11.3269
  62   2.0000      -0.400285       -10.8923
  63   2.0000      -0.358205        -9.7473
  64   2.0000      -0.334895        -9.1130
  65   2.0000      -0.328367        -8.9353
  66   2.0000      -0.287302        -7.8179
  67   0.0000       0.024258         0.6601
  68   0.0000       0.074306         2.0220
  69   0.0000       0.105208         2.8628
  70   0.0000       0.123527         3.3613
  71   0.0000       0.126711         3.4480

MULLIKEN ATOMIC CHARGES
-----------------------
   0 S :    0.102810
   1 C :   -0.133541
   2 C :   -0.052804
   3 C :   -0.013864
   4 C :   -0.105847
   5 H :    0.025968
   6 C :    0.088558
   7 H :    0.023928
   8 H :    0.008234
   9 C :   -0.079967
  10 H :    0.010647
  11 H :    0.027107
  12 C :   -0.047614
  13 H :    0.023722
  14 H :    0.032404
  15 H :    0.048140
  16 S :    0.094621
  17 C :   -0.083825
  18 C :   -0.062481
  19 C :   -0.035207
  20 C :   -0.134451
  21 H :    0.023445
  22 C :    0.094374
  23 H :    0.004868
  24 H :    0.039214
  25 C :   -0.090956
  26 H :    0.005867
  27 H :    0.019696
  28 C :   -0.007186
  29 H :    0.031280
  30 H :    0.020585
  31 H :    0.013631
  32 H :    0.053890
  33 H :    0.054754
Sum of atomic charges:    0.0000000

LOEWDIN ATOMIC CHARGES
----------------------
   0 S :    0.418395
   1 C :   -0.201132
   2 C :   -0.062250
   3 C :   -0.063301
   4 C :   -0.192839
   5 H :    0.031991
   6 C :   -0.026442
   7 H :    0.029234
   8 H :    0.025005
   9 C :   -0.035886
  10 H :    0.014439
  11 H :    0.021800
  12 C :   -0.064937
  13 H :    0.026872
  14 H :    0.030638
  15 H :    0.026148
  16 S :    0.409538
  17 C :   -0.192967
  18 C :   -0.072702
  19 C :   -0.059046
  20 C :   -0.195296
  21 H :    0.033097
  22 C :   -0.033358
  23 H :    0.027229
  24 H :    0.037191
  25 C :   -0.047392
  26 H :    0.021469
  27 H :    0.018573
  28 C :   -0.062174
  29 H :    0.030025
  30 H :    0.017475
  31 H :    0.023844
  32 H :    0.031572
  33 H :    0.035186

  Mayer bond orders larger than 0.100000
B(  0-S ,  1-C ) :   1.1246 B(  0-S ,  4-C ) :   1.1584 B(  1-C ,  2-C ) :   1.6443
B(  1-C , 32-H ) :   0.9610 B(  2-C ,  3-C ) :   1.2390 B(  2-C ,  6-C ) :   1.0261
B(  3-C ,  4-C ) :   1.5475 B(  3-C ,  5-H ) :   0.9870 B(  4-C , 20-C ) :   1.0730
B(  6-C ,  7-H ) :   0.9367 B(  6-C ,  8-H ) :   0.9401 B(  6-C ,  9-C ) :   1.0646
B(  9-C , 10-H ) :   0.9557 B(  9-C , 11-H ) :   0.9552 B(  9-C , 12-C ) :   1.0925
B( 12-C , 13-H ) :   0.9708 B( 12-C , 14-H ) :   0.9734 B( 12-C , 15-H ) :   0.9771
B( 16-S , 17-C ) :   1.1506 B( 16-S , 20-C ) :   1.1393 B( 17-C , 18-C ) :   1.6169
B( 17-C , 20-C ) :   0.1040 B( 17-C , 33-H ) :   0.9657 B( 18-C , 19-C ) :   1.2402
B( 18-C , 21-H ) :   0.9887 B( 19-C , 20-C ) :   1.5717 B( 19-C , 22-C ) :   1.0671
B( 22-C , 23-H ) :   0.9276 B( 22-C , 24-H ) :   0.9303 B( 22-C , 25-C ) :   1.0615
B( 25-C , 26-H ) :   0.9434 B( 25-C , 27-H ) :   0.9505 B( 25-C , 28-C ) :   1.0889
B( 28-C , 29-H ) :   0.9715 B( 28-C , 30-H ) :   0.9743 B( 28-C , 31-H ) :   0.9693

Dispersion correction           -0.013769737
FINAL SINGLE POINT ENERGY     -1339.870325044111

DIPOLE MOMENT
-------------
                                X             Y             Z
Electronic contribution:     15.45708     -13.09317     -26.31378
Nuclear contribution   :    -15.86232      13.53353      26.70055
                        -----------------------------------------
Total Dipole Moment    :     -0.40524       0.44036       0.38677
                        -----------------------------------------
Magnitude (a.u.)       :      0.71254
Magnitude (Debye)      :      1.81114

Rotational constants in cm-1:     0.016958     0.009550     0.006386
Rotational constants in MHz :   508.393326   286.301682   191.458435

                             ****ORCA TERMINATED NORMALLY****
TOTAL RUN TIME: 0 days 0 hours 0 minutes 30 seconds 654 msec
