                         Program Version 4.2.1 -  RELEASE  -
|  1> ! wB97X-D3 SP def2-SVP
|  2> %pal
|  3> nprocs 16
|  4> end
|  5>
|  6> * xyz 0 1
|  7> S 	 50.7081 	 10.0034 	 88.7178
|  8> C 	 50.8838 	 11.1885 	 90.0311
|  9> C 	 52.2328 	 11.506 	 90.2418
| 10> C 	 53.0286 	 10.9789 	 89.1451
| 11> C 	 52.2961 	 10.2064 	 88.2186
| 12> H 	 54.1259 	 11.0594 	 89.1205
| 13> C 	 52.8514 	 12.4904 	 91.2056
| 14> H 	 52.0424 	 13.1711 	 91.4507
| 15> H 	 53.4828 	 13.1747 	 90.6045
| 16> C 	 53.4821 	 12.0481 	 92.4695
| 17> H 	 54.0259 	 12.9043 	 92.9512
| 18> H 	 52.6667 	 11.7198 	 93.0076
| 19> C 	 54.441 	 10.8834 	 92.2699
| 20> H 	 55.2428 	 11.069 	 91.5152
| 21> H 	 55.0839 	 10.6914 	 93.1202
| 22> H 	 53.8832 	 9.9626 	 91.9943
| 23> S 	 54.35 	 8.51651 	 87.4586
| 24> C 	 54.5539 	 8.16712 	 85.7799
| 25> C 	 53.5368 	 8.69074 	 85.012
| 26> C 	 52.5769 	 9.47908 	 85.742
| 27> C 	 52.9443 	 9.55929 	 87.0827
| 28> H 	 53.5155 	 8.51946 	 83.911
| 29> C 	 51.4871 	 10.313 	 85.0099
| 30> H 	 51.9051 	 11.1692 	 84.5121
| 31> H 	 50.825 	 10.7204 	 85.7811
| 32> C 	 50.6484 	 9.47245 	 84.0791
| 33> H 	 50.3283 	 8.52713 	 84.6092
| 34> H 	 51.1032 	 9.11436 	 83.2059
| 35> C 	 49.3893 	 10.2215 	 83.5424
| 36> H 	 49.7294 	 10.9078 	 82.7263
| 37> H 	 49.0034 	 10.9209 	 84.2912
| 38> H 	 48.5914 	 9.5014 	 83.2754
| 39> H 	 50.0984 	 11.549 	 90.6246
| 40> H 	 55.2744 	 7.4688 	 85.3929
| 41> *
| 42>
| 43>                          ****END OF INPUT****

CARTESIAN COORDINATES (ANGSTROEM)
---------------------------------
  S     50.708100   10.003400   88.717800
  C     50.883800   11.188500   90.031100
  C     52.232800   11.506000   90.241800
  C     53.028600   10.978900   89.145100
  C     52.296100   10.206400   88.218600
  H     54.125900   11.059400   89.120500
  C     52.851400   12.490400   91.205600
  H     52.042400   13.171100   91.450700
  H     53.482800   13.174700   90.604500
  C     53.482100   12.048100   92.469500
  H     54.025900   12.904300   92.951200
  H     52.666700   11.719800   93.007600
  C     54.441000   10.883400   92.269900
  H     55.242800   11.069000   91.515200
  H     55.083900   10.691400   93.120200
  H     53.883200    9.962600   91.994300
  S     54.350000    8.516510   87.458600
  C     54.553900    8.167120   85.779900
  C     53.536800    8.690740   85.012000
  C     52.576900    9.479080   85.742000
  C     52.944300    9.559290   87.082700
  H     53.515500    8.519460   83.911000
  C     51.487100   10.313000   85.009900
  H     51.905100   11.169200   84.512100
  H     50.825000   10.720400   85.781100
  C     50.648400    9.472450   84.079100
  H     50.328300    8.527130   84.609200
  H     51.103200    9.114360   83.205900
  C     49.389300   10.221500   83.542400
  H     49.729400   10.907800   82.726300
  H     49.003400   10.920900   84.291200
  H     48.591400    9.501400   83.275400
  H     50.098400   11.549000   90.624600
  H     55.274400    7.468800   85.392900

 Total Charge           Charge          ....    0
 Multiplicity           Mult            ....    1
 Number of Electrons    NEL             ....  134
 Basis Dimension        Dim             ....  322

ORBITAL ENERGIES
----------------

  NO   OCC          E(Eh)            E(eV)
   0   2.0000     -88.970445     -2421.0089
   1   2.0000     -88.965972     -2420.8872
   2   2.0000     -10.329127      -281.0698
   3   2.0000     -10.325173      -280.9622
   4   2.0000     -10.314755      -280.6787
   5   2.0000     -10.314127      -280.6617
   6   2.0000     -10.306951      -280.4664
   7   2.0000     -10.305024      -280.4140
   8   2.0000     -10.295365      -280.1511
   9   2.0000     -10.292830      -280.0821
  10   2.0000     -10.292639      -280.0769
  11   2.0000     -10.287523      -279.9377
  12   2.0000     -10.283056      -279.8162
  13   2.0000     -10.281861      -279.7837
  14   2.0000     -10.281588      -279.7762
  15   2.0000     -10.276528      -279.6385
  16   2.0000      -8.085400      -220.0149
  17   2.0000      -8.080419      -219.8794
  18   2.0000      -6.043901      -164.4629
  19   2.0000      -6.039792      -164.3511
  20   2.0000      -6.038848      -164.3254
  21   2.0000      -6.036240      -164.2544
  22   2.0000      -6.035064      -164.2224
  23   2.0000      -6.031180      -164.1168
  24   2.0000      -1.005443       -27.3595
  25   2.0000      -0.981898       -26.7188
  26   2.0000      -0.921376       -25.0719
  27   2.0000      -0.907944       -24.7064
  28   2.0000      -0.867191       -23.5975
  29   2.0000      -0.847486       -23.0613
  30   2.0000      -0.843541       -22.9539
  31   2.0000      -0.804941       -21.9036
  32   2.0000      -0.785896       -21.3853
  33   2.0000      -0.773686       -21.0531
  34   2.0000      -0.704594       -19.1730
  35   2.0000      -0.699618       -19.0376
  36   2.0000      -0.696618       -18.9559
  37   2.0000      -0.655478       -17.8365
  38   2.0000      -0.634277       -17.2596
  39   2.0000      -0.609879       -16.5956
  40   2.0000      -0.597197       -16.2506
  41   2.0000      -0.577812       -15.7231
  42   2.0000      -0.566254       -15.4085
  43   2.0000      -0.552437       -15.0326
  44   2.0000      -0.543208       -14.7814
  45   2.0000      -0.528186       -14.3727
  46   2.0000      -0.515480       -14.0269
  47   2.0000      -0.508596       -13.8396
  48   2.0000      -0.500485       -13.6189
  49   2.0000      -0.495940       -13.4952
  50   2.0000      -0.485188       -13.2026
  51   2.0000      -0.475287       -12.9332
  52   2.0000      -0.469950       -12.7880
  53   2.0000      -0.465275       -12.6608
  54   2.0000      -0.457694       -12.4545
  55   2.0000      -0.447570       -12.1790
  56   2.0000      -0.444091       -12.0843
  57   2.0000      -0.438333       -11.9277
  58   2.0000      -0.429273       -11.6811
  59   2.0000      -0.423490       -11.5238
  60   2.0000      -0.416825       -11.3424
  61   2.0000      -0.415333       -11.3018
  62   2.0000      -0.412713       -11.2305
  63   2.0000      -0.340904        -9.2765
  64   2.0000      -0.332309        -9.0426
  65   2.0000      -0.328116        -8.9285
  66   2.0000      -0.293248        -7.9797
  67   0.0000       0.029620         0.8060
  68   0.0000       0.072842         1.9821
  69   0.0000       0.101961         2.7745
  70   0.0000       0.116153         3.1607
  71   0.0000       0.128334         3.4921

MULLIKEN ATOMIC CHARGES
-----------------------
   0 S :    0.133266
   1 C :   -0.119766
   2 C :   -0.082121
   3 C :   -0.016552
   4 C :   -0.136705
   5 H :    0.023084
   6 C :    0.030121
   7 H :    0.010989
   8 H :    0.031003
   9 C :    0.005379
  10 H :    0.041745
  11 H :    0.012352
  12 C :   -0.085784
  13 H :    0.025885
  14 H :    0.027099
  15 H :    0.054417
  16 S :    0.111363
  17 C :   -0.084312
  18 C :   -0.053406
  19 C :   -0.027236
  20 C :   -0.172492
  21 H :    0.032865
  22 C :    0.107834
  23 H :    0.039464
  24 H :    0.014286
  25 C :   -0.115172
  26 H :    0.036978
  27 H :    0.021832
  28 C :   -0.060412
  29 H :    0.036001
  30 H :    0.024602
  31 H :    0.050628
  32 H :    0.028117
  33 H :    0.054647
Sum of atomic charges:   -0.0000000

LOEWDIN ATOMIC CHARGES
----------------------
   0 S :    0.436465
   1 C :   -0.189192
   2 C :   -0.055425
   3 C :   -0.070255
   4 C :   -0.226285
   5 H :    0.028445
   6 C :   -0.039689
   7 H :    0.030318
   8 H :    0.033531
   9 C :   -0.036203
  10 H :    0.035988
  11 H :    0.017842
  12 C :   -0.074337
  13 H :    0.025824
  14 H :    0.023775
  15 H :    0.033357
  16 S :    0.403875
  17 C :   -0.191685
  18 C :   -0.075840
  19 C :   -0.052877
  20 C :   -0.183959
  21 H :    0.036427
  22 C :   -0.024503
  23 H :    0.031852
  24 H :    0.026244
  25 C :   -0.046763
  26 H :    0.030857
  27 H :    0.013472
  28 C :   -0.069006
  29 H :    0.029282
  30 H :    0.021735
  31 H :    0.032497
  32 H :    0.015938
  33 H :    0.028294

  Mayer bond orders larger than 0.100000
B(  0-S ,  1-C ) :   1.1415 B(  0-S ,  4-C ) :   1.1679 B(  1-C ,  2-C ) :   1.5853
B(  1-C , 32-H ) :   0.9751 B(  2-C ,  3-C ) :   1.2518 B(  2-C ,  6-C ) :   1.0111
B(  3-C ,  4-C ) :   1.5254 B(  3-C ,  5-H ) :   0.9906 B(  4-C , 20-C ) :   1.0528
B(  6-C ,  7-H ) :   0.9407 B(  6-C ,  8-H ) :   0.9440 B(  6-C ,  9-C ) :   1.0749
B(  9-C , 10-H ) :   0.9502 B(  9-C , 11-H ) :   0.9488 B(  9-C , 12-C ) :   1.0930
B( 12-C , 13-H ) :   0.9732 B( 12-C , 14-H ) :   0.9727 B( 12-C , 15-H ) :   0.9677
B( 16-S , 17-C ) :   1.1486 B( 16-S , 20-C ) :   1.1383 B( 17-C , 18-C ) :   1.6271
B( 17-C , 33-H ) :   0.9670 B( 18-C , 19-C ) :   1.2233 B( 18-C , 21-H ) :   0.9822
B( 19-C , 20-C ) :   1.6003 B( 19-C , 22-C ) :   1.0383 B( 22-C , 23-H ) :   0.9414
B( 22-C , 24-H ) :   0.9267 B( 22-C , 25-C ) :   1.0564 B( 25-C , 26-H ) :   0.9607
B( 25-C , 27-H ) :   0.9558 B( 25-C , 28-C ) :   1.0776 B( 28-C , 29-H ) :   0.9744
B( 28-C , 30-H ) :   0.9774 B( 28-C , 31-H ) :   0.9759

Dispersion correction           -0.014183946
FINAL SINGLE POINT ENERGY     -1339.875610369988

DIPOLE MOMENT
-------------
                                X             Y             Z
Electronic contribution:      3.18180      -9.35392       0.23748
Nuclear contribution   :     -3.14887       9.60689      -0.29237
                        -----------------------------------------
Total Dipole Moment    :      0.03293       0.25297      -0.05489
                        -----------------------------------------
Magnitude (a.u.)       :      0.26094
Magnitude (Debye)      :      0.66326

Rotational constants in cm-1:     0.022072     0.007987     0.006277
Rotational constants in MHz :   661.689872   239.440093   188.173015

                             ****ORCA TERMINATED NORMALLY****
TOTAL RUN TIME: 0 days 0 hours 0 minutes 27 seconds 798 msec
