                         Program Version 4.2.1 -  RELEASE  -
|  1> ! wB97X-D3 SP def2-SVP
|  2> %pal
|  3> nprocs 16
|  4> end
|  5>
|  6> * xyz 0 1
|  7> S 	 -104.751 	 52.9723 	 119.485
|  8> C 	 -104.633 	 53.9447 	 118.029
|  9> C 	 -104.724 	 55.2716 	 118.314
| 10> C 	 -104.852 	 55.5158 	 119.7
| 11> C 	 -105.014 	 54.3743 	 120.437
| 12> H 	 -104.907 	 56.482 	 120.17
| 13> C 	 -104.716 	 56.3685 	 117.289
| 14> H 	 -104.119 	 55.9447 	 116.446
| 15> H 	 -104.045 	 57.1528 	 117.67
| 16> C 	 -106.032 	 57.1058 	 116.925
| 17> H 	 -106.168 	 57.8599 	 117.694
| 18> H 	 -105.768 	 57.7332 	 116.051
| 19> C 	 -107.248 	 56.1552 	 116.603
| 20> H 	 -108.046 	 56.5948 	 115.95
| 21> H 	 -106.965 	 55.365 	 115.966
| 22> H 	 -107.718 	 55.6756 	 117.498
| 23> S 	 -103.611 	 53.448 	 122.529
| 24> C 	 -104.062 	 53.7939 	 124.207
| 25> C 	 -105.28 	 54.4653 	 124.209
| 26> C 	 -105.887 	 54.7283 	 122.901
| 27> C 	 -105.033 	 54.2333 	 121.88
| 28> H 	 -105.626 	 55.0116 	 125.059
| 29> C 	 -107.195 	 55.5152 	 122.713
| 30> H 	 -108.019 	 54.9265 	 123.119
| 31> H 	 -107.324 	 55.6526 	 121.642
| 32> C 	 -107.188 	 56.8657 	 123.308
| 33> H 	 -106.635 	 57.6366 	 122.771
| 34> H 	 -106.676 	 56.845 	 124.24
| 35> C 	 -108.647 	 57.3523 	 123.365
| 36> H 	 -108.973 	 57.696 	 122.367
| 37> H 	 -108.732 	 58.2831 	 123.969
| 38> H 	 -109.35 	 56.6974 	 123.924
| 39> H 	 -104.327 	 53.5464 	 117.105
| 40> H 	 -103.397 	 53.6678 	 125.049
| 41> *
| 42>
| 43>                          ****END OF INPUT****

CARTESIAN COORDINATES (ANGSTROEM)
---------------------------------
  S    -104.751000   52.972300  119.485000
  C    -104.633000   53.944700  118.029000
  C    -104.724000   55.271600  118.314000
  C    -104.852000   55.515800  119.700000
  C    -105.014000   54.374300  120.437000
  H    -104.907000   56.482000  120.170000
  C    -104.716000   56.368500  117.289000
  H    -104.119000   55.944700  116.446000
  H    -104.045000   57.152800  117.670000
  C    -106.032000   57.105800  116.925000
  H    -106.168000   57.859900  117.694000
  H    -105.768000   57.733200  116.051000
  C    -107.248000   56.155200  116.603000
  H    -108.046000   56.594800  115.950000
  H    -106.965000   55.365000  115.966000
  H    -107.718000   55.675600  117.498000
  S    -103.611000   53.448000  122.529000
  C    -104.062000   53.793900  124.207000
  C    -105.280000   54.465300  124.209000
  C    -105.887000   54.728300  122.901000
  C    -105.033000   54.233300  121.880000
  H    -105.626000   55.011600  125.059000
  C    -107.195000   55.515200  122.713000
  H    -108.019000   54.926500  123.119000
  H    -107.324000   55.652600  121.642000
  C    -107.188000   56.865700  123.308000
  H    -106.635000   57.636600  122.771000
  H    -106.676000   56.845000  124.240000
  C    -108.647000   57.352300  123.365000
  H    -108.973000   57.696000  122.367000
  H    -108.732000   58.283100  123.969000
  H    -109.350000   56.697400  123.924000
  H    -104.327000   53.546400  117.105000
  H    -103.397000   53.667800  125.049000

 Total Charge           Charge          ....    0
 Multiplicity           Mult            ....    1
 Number of Electrons    NEL             ....  134
 Basis Dimension        Dim             ....  322

ORBITAL ENERGIES
----------------

  NO   OCC          E(Eh)            E(eV)
   0   2.0000     -88.963352     -2420.8159
   1   2.0000     -88.963194     -2420.8116
   2   2.0000     -10.328287      -281.0470
   3   2.0000     -10.323535      -280.9177
   4   2.0000     -10.321090      -280.8511
   5   2.0000     -10.309464      -280.5348
   6   2.0000     -10.307130      -280.4713
   7   2.0000     -10.297278      -280.2032
   8   2.0000     -10.296319      -280.1771
   9   2.0000     -10.295088      -280.1436
  10   2.0000     -10.294354      -280.1236
  11   2.0000     -10.289778      -279.9991
  12   2.0000     -10.288983      -279.9775
  13   2.0000     -10.285057      -279.8706
  14   2.0000     -10.282324      -279.7963
  15   2.0000     -10.282222      -279.7935
  16   2.0000      -8.078834      -219.8363
  17   2.0000      -8.077821      -219.8087
  18   2.0000      -6.037239      -164.2816
  19   2.0000      -6.036441      -164.2599
  20   2.0000      -6.033232      -164.1726
  21   2.0000      -6.032225      -164.1452
  22   2.0000      -6.029621      -164.0743
  23   2.0000      -6.028593      -164.0464
  24   2.0000      -1.011037       -27.5117
  25   2.0000      -0.980033       -26.6680
  26   2.0000      -0.918741       -25.0002
  27   2.0000      -0.908087       -24.7103
  28   2.0000      -0.867300       -23.6004
  29   2.0000      -0.847740       -23.0682
  30   2.0000      -0.841497       -22.8983
  31   2.0000      -0.813600       -22.1392
  32   2.0000      -0.783495       -21.3200
  33   2.0000      -0.772298       -21.0153
  34   2.0000      -0.712583       -19.3904
  35   2.0000      -0.703500       -19.1432
  36   2.0000      -0.697077       -18.9684
  37   2.0000      -0.658720       -17.9247
  38   2.0000      -0.643940       -17.5225
  39   2.0000      -0.618338       -16.8258
  40   2.0000      -0.599824       -16.3220
  41   2.0000      -0.572688       -15.5836
  42   2.0000      -0.560345       -15.2478
  43   2.0000      -0.544419       -14.8144
  44   2.0000      -0.539975       -14.6935
  45   2.0000      -0.524824       -14.2812
  46   2.0000      -0.517533       -14.0828
  47   2.0000      -0.510227       -13.8840
  48   2.0000      -0.507293       -13.8042
  49   2.0000      -0.500649       -13.6234
  50   2.0000      -0.489240       -13.3129
  51   2.0000      -0.476180       -12.9575
  52   2.0000      -0.473440       -12.8829
  53   2.0000      -0.462693       -12.5905
  54   2.0000      -0.459393       -12.5007
  55   2.0000      -0.450834       -12.2678
  56   2.0000      -0.445067       -12.1109
  57   2.0000      -0.439258       -11.9528
  58   2.0000      -0.431361       -11.7379
  59   2.0000      -0.424761       -11.5583
  60   2.0000      -0.417492       -11.3605
  61   2.0000      -0.415848       -11.3158
  62   2.0000      -0.411905       -11.2085
  63   2.0000      -0.342054        -9.3078
  64   2.0000      -0.330710        -8.9991
  65   2.0000      -0.325466        -8.8564
  66   2.0000      -0.297673        -8.1001
  67   0.0000       0.036057         0.9812
  68   0.0000       0.064122         1.7448
  69   0.0000       0.112676         3.0661
  70   0.0000       0.121288         3.3004
  71   0.0000       0.126861         3.4521

MULLIKEN ATOMIC CHARGES
-----------------------
   0 S :    0.105000
   1 C :   -0.107686
   2 C :   -0.083931
   3 C :    0.049803
   4 C :   -0.166237
   5 H :    0.003046
   6 C :    0.034384
   7 H :    0.023230
   8 H :    0.024919
   9 C :   -0.039344
  10 H :    0.026327
  11 H :    0.033772
  12 C :   -0.055177
  13 H :    0.035848
  14 H :    0.016270
  15 H :    0.055051
  16 S :    0.100681
  17 C :   -0.095964
  18 C :   -0.025096
  19 C :   -0.051120
  20 C :   -0.161543
  21 H :    0.016592
  22 C :    0.101908
  23 H :    0.039066
  24 H :    0.023011
  25 C :   -0.067402
  26 H :    0.025113
  27 H :    0.012500
  28 C :   -0.074512
  29 H :    0.041140
  30 H :    0.024654
  31 H :    0.041959
  32 H :    0.028467
  33 H :    0.065268
Sum of atomic charges:   -0.0000000

LOEWDIN ATOMIC CHARGES
----------------------
   0 S :    0.417673
   1 C :   -0.186967
   2 C :   -0.068367
   3 C :   -0.059916
   4 C :   -0.207090
   5 H :    0.029648
   6 C :   -0.039771
   7 H :    0.031321
   8 H :    0.033830
   9 C :   -0.038491
  10 H :    0.022735
  11 H :    0.032312
  12 C :   -0.075665
  13 H :    0.032679
  14 H :    0.019735
  15 H :    0.035404
  16 S :    0.399814
  17 C :   -0.182249
  18 C :   -0.070552
  19 C :   -0.052572
  20 C :   -0.200763
  21 H :    0.023352
  22 C :   -0.028882
  23 H :    0.036212
  24 H :    0.032723
  25 C :   -0.042769
  26 H :    0.027338
  27 H :    0.015401
  28 C :   -0.070629
  29 H :    0.030100
  30 H :    0.027212
  31 H :    0.028201
  32 H :    0.017435
  33 H :    0.031558

  Mayer bond orders larger than 0.100000
B(  0-S ,  1-C ) :   1.1343 B(  0-S ,  4-C ) :   1.1649 B(  1-C ,  2-C ) :   1.6095
B(  1-C , 32-H ) :   0.9736 B(  2-C ,  3-C ) :   1.2382 B(  2-C ,  6-C ) :   1.0266
B(  3-C ,  4-C ) :   1.5708 B(  3-C ,  5-H ) :   1.0014 B(  4-C , 20-C ) :   1.0106
B(  6-C ,  7-H ) :   0.9406 B(  6-C ,  8-H ) :   0.9377 B(  6-C ,  9-C ) :   1.0668
B(  9-C , 10-H ) :   0.9588 B(  9-C , 11-H ) :   0.9535 B(  9-C , 12-C ) :   1.0604
B( 12-C , 13-H ) :   0.9757 B( 12-C , 14-H ) :   0.9756 B( 12-C , 15-H ) :   0.9742
B( 16-S , 17-C ) :   1.1421 B( 16-S , 20-C ) :   1.1577 B( 17-C , 18-C ) :   1.6137
B( 17-C , 33-H ) :   0.9713 B( 18-C , 19-C ) :   1.2351 B( 18-C , 21-H ) :   0.9803
B( 19-C , 20-C ) :   1.5987 B( 19-C , 22-C ) :   1.0390 B( 22-C , 23-H ) :   0.9398
B( 22-C , 24-H ) :   0.9287 B( 22-C , 25-C ) :   1.0633 B( 25-C , 26-H ) :   0.9459
B( 25-C , 27-H ) :   0.9610 B( 25-C , 28-C ) :   1.0829 B( 28-C , 29-H ) :   0.9739
B( 28-C , 30-H ) :   0.9711 B( 28-C , 31-H ) :   0.9760

Dispersion correction           -0.014056391
FINAL SINGLE POINT ENERGY     -1339.875167639528

DIPOLE MOMENT
-------------
                                X             Y             Z
Electronic contribution:     18.27071     -22.28084       6.49431
Nuclear contribution   :    -18.41547      23.04418      -6.54953
                        -----------------------------------------
Total Dipole Moment    :     -0.14476       0.76334      -0.05522
                        -----------------------------------------
Magnitude (a.u.)       :      0.77891
Magnitude (Debye)      :      1.97983

Rotational constants in cm-1:     0.016919     0.009514     0.006658
Rotational constants in MHz :   507.214598   285.224037   199.602902

                             ****ORCA TERMINATED NORMALLY****
TOTAL RUN TIME: 0 days 0 hours 0 minutes 34 seconds 965 msec
