                         Program Version 4.2.1 -  RELEASE  -
|  1> ! wB97X-D3 SP def2-SVP
|  2> %pal
|  3> nprocs 16
|  4> end
|  5>
|  6> * xyz 0 1
|  7> S 	 -54.4731 	 36.4481 	 113.398
|  8> C 	 -52.7742 	 36.3859 	 113.85
|  9> C 	 -52.1513 	 37.6356 	 113.815
| 10> C 	 -53.1165 	 38.6514 	 113.577
| 11> C 	 -54.3721 	 38.1711 	 113.304
| 12> H 	 -52.8561 	 39.6933 	 113.63
| 13> C 	 -50.7454 	 37.8874 	 114.283
| 14> H 	 -50.1661 	 38.0376 	 113.351
| 15> H 	 -50.3412 	 36.9538 	 114.821
| 16> C 	 -50.5647 	 39.1872 	 115.151
| 17> H 	 -49.4765 	 39.1941 	 115.365
| 18> H 	 -50.6381 	 40.0836 	 114.509
| 19> C 	 -51.4019 	 39.3592 	 116.489
| 20> H 	 -51.0099 	 38.8389 	 117.382
| 21> H 	 -51.3738 	 40.4089 	 116.808
| 22> H 	 -52.4144 	 38.9478 	 116.472
| 23> S 	 -56.5668 	 38.4072 	 111.731
| 24> C 	 -57.3025 	 39.964 	 111.685
| 25> C 	 -57.1893 	 40.5949 	 112.884
| 26> C 	 -56.0643 	 40.1552 	 113.627
| 27> C 	 -55.5269 	 38.9721 	 113.038
| 28> H 	 -57.7825 	 41.4358 	 113.121
| 29> C 	 -55.4943 	 41.0317 	 114.748
| 30> H 	 -55.4658 	 42.0459 	 114.267
| 31> H 	 -54.5367 	 40.7102 	 115.033
| 32> C 	 -56.261 	 41.0891 	 116.12
| 33> H 	 -56.6419 	 40.1171 	 116.468
| 34> H 	 -57.1928 	 41.6211 	 116.001
| 35> C 	 -55.529 	 41.7451 	 117.283
| 36> H 	 -54.7517 	 41.0686 	 117.542
| 37> H 	 -56.2919 	 41.8066 	 118.04
| 38> H 	 -55.1004 	 42.7158 	 116.923
| 39> H 	 -52.2224 	 35.4683 	 114.129
| 40> H 	 -57.9202 	 40.3855 	 110.91
| 41> *
| 42>
| 43>                          ****END OF INPUT****

CARTESIAN COORDINATES (ANGSTROEM)
---------------------------------
  S    -54.473100   36.448100  113.398000
  C    -52.774200   36.385900  113.850000
  C    -52.151300   37.635600  113.815000
  C    -53.116500   38.651400  113.577000
  C    -54.372100   38.171100  113.304000
  H    -52.856100   39.693300  113.630000
  C    -50.745400   37.887400  114.283000
  H    -50.166100   38.037600  113.351000
  H    -50.341200   36.953800  114.821000
  C    -50.564700   39.187200  115.151000
  H    -49.476500   39.194100  115.365000
  H    -50.638100   40.083600  114.509000
  C    -51.401900   39.359200  116.489000
  H    -51.009900   38.838900  117.382000
  H    -51.373800   40.408900  116.808000
  H    -52.414400   38.947800  116.472000
  S    -56.566800   38.407200  111.731000
  C    -57.302500   39.964000  111.685000
  C    -57.189300   40.594900  112.884000
  C    -56.064300   40.155200  113.627000
  C    -55.526900   38.972100  113.038000
  H    -57.782500   41.435800  113.121000
  C    -55.494300   41.031700  114.748000
  H    -55.465800   42.045900  114.267000
  H    -54.536700   40.710200  115.033000
  C    -56.261000   41.089100  116.120000
  H    -56.641900   40.117100  116.468000
  H    -57.192800   41.621100  116.001000
  C    -55.529000   41.745100  117.283000
  H    -54.751700   41.068600  117.542000
  H    -56.291900   41.806600  118.040000
  H    -55.100400   42.715800  116.923000
  H    -52.222400   35.468300  114.129000
  H    -57.920200   40.385500  110.910000

 Total Charge           Charge          ....    0
 Multiplicity           Mult            ....    1
 Number of Electrons    NEL             ....  134
 Basis Dimension        Dim             ....  322

ORBITAL ENERGIES
----------------

  NO   OCC          E(Eh)            E(eV)
   0   2.0000     -88.966582     -2420.9038
   1   2.0000     -88.962048     -2420.7804
   2   2.0000     -10.324995      -280.9574
   3   2.0000     -10.322859      -280.8993
   4   2.0000     -10.311668      -280.5948
   5   2.0000     -10.310978      -280.5760
   6   2.0000     -10.307285      -280.4755
   7   2.0000     -10.303986      -280.3857
   8   2.0000     -10.301410      -280.3156
   9   2.0000     -10.296543      -280.1832
  10   2.0000     -10.296318      -280.1771
  11   2.0000     -10.286247      -279.9030
  12   2.0000     -10.286142      -279.9001
  13   2.0000     -10.285832      -279.8917
  14   2.0000     -10.284383      -279.8523
  15   2.0000     -10.278250      -279.6854
  16   2.0000      -8.081476      -219.9081
  17   2.0000      -8.077576      -219.8020
  18   2.0000      -6.039984      -164.3563
  19   2.0000      -6.036134      -164.2516
  20   2.0000      -6.036006      -164.2481
  21   2.0000      -6.032413      -164.1503
  22   2.0000      -6.032087      -164.1414
  23   2.0000      -6.027924      -164.0282
  24   2.0000      -1.009036       -27.4573
  25   2.0000      -0.985024       -26.8039
  26   2.0000      -0.907028       -24.6815
  27   2.0000      -0.904469       -24.6119
  28   2.0000      -0.866394       -23.5758
  29   2.0000      -0.856001       -23.2930
  30   2.0000      -0.841540       -22.8995
  31   2.0000      -0.812881       -22.1196
  32   2.0000      -0.785225       -21.3670
  33   2.0000      -0.770087       -20.9551
  34   2.0000      -0.711216       -19.3532
  35   2.0000      -0.695052       -18.9133
  36   2.0000      -0.691770       -18.8240
  37   2.0000      -0.658328       -17.9140
  38   2.0000      -0.631083       -17.1726
  39   2.0000      -0.624667       -16.9980
  40   2.0000      -0.597840       -16.2680
  41   2.0000      -0.566070       -15.4035
  42   2.0000      -0.556098       -15.1322
  43   2.0000      -0.550051       -14.9677
  44   2.0000      -0.533286       -14.5114
  45   2.0000      -0.526865       -14.3367
  46   2.0000      -0.523072       -14.2335
  47   2.0000      -0.509427       -13.8622
  48   2.0000      -0.498043       -13.5524
  49   2.0000      -0.489836       -13.3291
  50   2.0000      -0.487469       -13.2647
  51   2.0000      -0.486108       -13.2277
  52   2.0000      -0.472264       -12.8510
  53   2.0000      -0.465929       -12.6786
  54   2.0000      -0.456964       -12.4346
  55   2.0000      -0.454876       -12.3778
  56   2.0000      -0.449209       -12.2236
  57   2.0000      -0.441040       -12.0013
  58   2.0000      -0.428718       -11.6660
  59   2.0000      -0.428503       -11.6601
  60   2.0000      -0.421112       -11.4590
  61   2.0000      -0.414574       -11.2811
  62   2.0000      -0.411202       -11.1894
  63   2.0000      -0.348184        -9.4746
  64   2.0000      -0.331883        -9.0310
  65   2.0000      -0.324227        -8.8227
  66   2.0000      -0.275448        -7.4953
  67   0.0000       0.029484         0.8023
  68   0.0000       0.062947         1.7129
  69   0.0000       0.102784         2.7969
  70   0.0000       0.117519         3.1979
  71   0.0000       0.132252         3.5988

MULLIKEN ATOMIC CHARGES
-----------------------
   0 S :    0.115355
   1 C :   -0.151649
   2 C :   -0.075438
   3 C :   -0.005217
   4 C :   -0.108440
   5 H :    0.005355
   6 C :    0.045671
   7 H :    0.047488
   8 H :    0.042516
   9 C :   -0.108399
  10 H :    0.034980
  11 H :    0.035843
  12 C :   -0.061647
  13 H :    0.028831
  14 H :    0.038855
  15 H :    0.052778
  16 S :    0.102771
  17 C :   -0.088088
  18 C :   -0.018085
  19 C :   -0.023715
  20 C :   -0.163479
  21 H :    0.005128
  22 C :    0.087108
  23 H :    0.043392
  24 H :   -0.004083
  25 C :   -0.103889
  26 H :    0.027822
  27 H :    0.011422
  28 C :   -0.027129
  29 H :    0.032382
  30 H :    0.039238
  31 H :    0.037573
  32 H :    0.052363
  33 H :    0.052387
Sum of atomic charges:   -0.0000000

LOEWDIN ATOMIC CHARGES
----------------------
   0 S :    0.405982
   1 C :   -0.207699
   2 C :   -0.066429
   3 C :   -0.068336
   4 C :   -0.196892
   5 H :    0.027426
   6 C :   -0.036988
   7 H :    0.041347
   8 H :    0.038929
   9 C :   -0.049092
  10 H :    0.031331
  11 H :    0.025411
  12 C :   -0.078252
  13 H :    0.029280
  14 H :    0.030167
  15 H :    0.028940
  16 S :    0.399213
  17 C :   -0.182420
  18 C :   -0.065282
  19 C :   -0.048141
  20 C :   -0.191898
  21 H :    0.024050
  22 C :   -0.027356
  23 H :    0.040419
  24 H :    0.018191
  25 C :   -0.043433
  26 H :    0.025666
  27 H :    0.013990
  28 C :   -0.057081
  29 H :    0.020108
  30 H :    0.030031
  31 H :    0.029982
  32 H :    0.030399
  33 H :    0.028431

  Mayer bond orders larger than 0.100000
B(  0-S ,  1-C ) :   1.1274 B(  0-S ,  4-C ) :   1.1470 B(  1-C ,  2-C ) :   1.6131
B(  1-C , 32-H ) :   0.9626 B(  2-C ,  3-C ) :   1.2432 B(  2-C ,  6-C ) :   1.0185
B(  3-C ,  4-C ) :   1.5664 B(  3-C ,  5-H ) :   0.9977 B(  4-C , 20-C ) :   1.0663
B(  6-C ,  7-H ) :   0.9228 B(  6-C ,  8-H ) :   0.9509 B(  6-C ,  9-C ) :   1.0824
B(  9-C , 10-H ) :   0.9541 B(  9-C , 11-H ) :   0.9535 B(  9-C , 12-C ) :   1.0518
B( 12-C , 13-H ) :   0.9748 B( 12-C , 14-H ) :   0.9766 B( 12-C , 15-H ) :   0.9766
B( 16-S , 17-C ) :   1.1509 B( 16-S , 20-C ) :   1.1243 B( 17-C , 18-C ) :   1.6205
B( 17-C , 20-C ) :   0.1047 B( 17-C , 33-H ) :   0.9714 B( 18-C , 19-C ) :   1.2266
B( 18-C , 21-H ) :   0.9936 B( 19-C , 20-C ) :   1.5708 B( 19-C , 22-C ) :   1.0448
B( 22-C , 23-H ) :   0.9347 B( 22-C , 24-H ) :   0.9343 B( 22-C , 25-C ) :   1.0528
B( 25-C , 26-H ) :   0.9555 B( 25-C , 27-H ) :   0.9554 B( 25-C , 28-C ) :   1.0884
B( 28-C , 29-H ) :   0.9769 B( 28-C , 30-H ) :   0.9729 B( 28-C , 31-H ) :   0.9736

Dispersion correction           -0.014691026
FINAL SINGLE POINT ENERGY     -1339.856926585880

DIPOLE MOMENT
-------------
                                X             Y             Z
Electronic contribution:    -13.42475     -17.62900     -22.54941
Nuclear contribution   :     13.71422      18.22911      22.97951
                        -----------------------------------------
Total Dipole Moment    :      0.28947       0.60012       0.43010
                        -----------------------------------------
Magnitude (a.u.)       :      0.79305
Magnitude (Debye)      :      2.01577

Rotational constants in cm-1:     0.015604     0.010883     0.007181
Rotational constants in MHz :   467.792501   326.270227   215.279950

                             ****ORCA TERMINATED NORMALLY****
TOTAL RUN TIME: 0 days 0 hours 0 minutes 31 seconds 545 msec
