                         Program Version 4.2.1 -  RELEASE  -
|  1> ! wB97X-D3 SP def2-SVP
|  2> %pal
|  3> nprocs 16
|  4> end
|  5>
|  6> * xyz 0 1
|  7> S 	 -43.8563 	 14.3905 	 79.1182
|  8> C 	 -44.8484 	 12.9875 	 79.0194
|  9> C 	 -44.2177 	 11.8815 	 79.5179
| 10> C 	 -42.8845 	 12.1963 	 80.0452
| 11> C 	 -42.5709 	 13.5211 	 79.9138
| 12> H 	 -42.2291 	 11.541 	 80.6686
| 13> C 	 -44.7922 	 10.4916 	 79.6065
| 14> H 	 -44.2432 	 9.66653 	 79.2523
| 15> H 	 -45.5546 	 10.5292 	 78.9079
| 16> C 	 -45.3126 	 9.9647 	 81.0158
| 17> H 	 -45.5707 	 8.97351 	 81.0624
| 18> H 	 -44.4449 	 10.1035 	 81.7132
| 19> C 	 -46.5207 	 10.7982 	 81.6243
| 20> H 	 -47.3436 	 10.4691 	 81.0321
| 21> H 	 -46.6066 	 10.4126 	 82.6403
| 22> H 	 -46.2665 	 11.8534 	 81.7244
| 23> S 	 -41.8613 	 15.4936 	 81.7116
| 24> C 	 -40.2302 	 15.606 	 82.2832
| 25> C 	 -39.4066 	 14.7567 	 81.5447
| 26> C 	 -40.1105 	 14.0628 	 80.4824
| 27> C 	 -41.4706 	 14.2598 	 80.5056
| 28> H 	 -38.3096 	 14.7409 	 81.7933
| 29> C 	 -39.3916 	 13.1608 	 79.4642
| 30> H 	 -40.1006 	 12.3763 	 79.1735
| 31> H 	 -38.4355 	 12.7805 	 79.8456
| 32> C 	 -39.0415 	 13.933 	 78.1161
| 33> H 	 -40.0224 	 14.3225 	 77.7635
| 34> H 	 -38.6196 	 13.2473 	 77.3491
| 35> C 	 -37.9909 	 15.0589 	 78.2705
| 36> H 	 -37.0626 	 14.748 	 78.7722
| 37> H 	 -38.4323 	 15.668 	 79.103
| 38> H 	 -37.7758 	 15.615 	 77.3405
| 39> H 	 -45.8161 	 13.0657 	 78.518
| 40> H 	 -39.8325 	 16.2487 	 83.0367
| 41> *
| 42>
| 43>                          ****END OF INPUT****

CARTESIAN COORDINATES (ANGSTROEM)
---------------------------------
  S    -43.856300   14.390500   79.118200
  C    -44.848400   12.987500   79.019400
  C    -44.217700   11.881500   79.517900
  C    -42.884500   12.196300   80.045200
  C    -42.570900   13.521100   79.913800
  H    -42.229100   11.541000   80.668600
  C    -44.792200   10.491600   79.606500
  H    -44.243200    9.666530   79.252300
  H    -45.554600   10.529200   78.907900
  C    -45.312600    9.964700   81.015800
  H    -45.570700    8.973510   81.062400
  H    -44.444900   10.103500   81.713200
  C    -46.520700   10.798200   81.624300
  H    -47.343600   10.469100   81.032100
  H    -46.606600   10.412600   82.640300
  H    -46.266500   11.853400   81.724400
  S    -41.861300   15.493600   81.711600
  C    -40.230200   15.606000   82.283200
  C    -39.406600   14.756700   81.544700
  C    -40.110500   14.062800   80.482400
  C    -41.470600   14.259800   80.505600
  H    -38.309600   14.740900   81.793300
  C    -39.391600   13.160800   79.464200
  H    -40.100600   12.376300   79.173500
  H    -38.435500   12.780500   79.845600
  C    -39.041500   13.933000   78.116100
  H    -40.022400   14.322500   77.763500
  H    -38.619600   13.247300   77.349100
  C    -37.990900   15.058900   78.270500
  H    -37.062600   14.748000   78.772200
  H    -38.432300   15.668000   79.103000
  H    -37.775800   15.615000   77.340500
  H    -45.816100   13.065700   78.518000
  H    -39.832500   16.248700   83.036700

 Total Charge           Charge          ....    0
 Multiplicity           Mult            ....    1
 Number of Electrons    NEL             ....  134
 Basis Dimension        Dim             ....  322

ORBITAL ENERGIES
----------------

  NO   OCC          E(Eh)            E(eV)
   0   2.0000     -88.965695     -2420.8796
   1   2.0000     -88.964681     -2420.8520
   2   2.0000     -10.330138      -281.0973
   3   2.0000     -10.327482      -281.0251
   4   2.0000     -10.319132      -280.7979
   5   2.0000     -10.317460      -280.7524
   6   2.0000     -10.308527      -280.5093
   7   2.0000     -10.307975      -280.4943
   8   2.0000     -10.301842      -280.3274
   9   2.0000     -10.301314      -280.3130
  10   2.0000     -10.296551      -280.1834
  11   2.0000     -10.290210      -280.0108
  12   2.0000     -10.287261      -279.9306
  13   2.0000     -10.284029      -279.8427
  14   2.0000     -10.278176      -279.6834
  15   2.0000     -10.274102      -279.5725
  16   2.0000      -8.080551      -219.8830
  17   2.0000      -8.080485      -219.8812
  18   2.0000      -6.039023      -164.3302
  19   2.0000      -6.038993      -164.3294
  20   2.0000      -6.034911      -164.2183
  21   2.0000      -6.034847      -164.2165
  22   2.0000      -6.031327      -164.1207
  23   2.0000      -6.031269      -164.1192
  24   2.0000      -1.010908       -27.5082
  25   2.0000      -0.986731       -26.8503
  26   2.0000      -0.905728       -24.6461
  27   2.0000      -0.898979       -24.4625
  28   2.0000      -0.871372       -23.7112
  29   2.0000      -0.846959       -23.0469
  30   2.0000      -0.839132       -22.8339
  31   2.0000      -0.817826       -22.2542
  32   2.0000      -0.783389       -21.3171
  33   2.0000      -0.771951       -21.0059
  34   2.0000      -0.709971       -19.3193
  35   2.0000      -0.695899       -18.9364
  36   2.0000      -0.683433       -18.5971
  37   2.0000      -0.661135       -17.9904
  38   2.0000      -0.648157       -17.6373
  39   2.0000      -0.619054       -16.8453
  40   2.0000      -0.586338       -15.9551
  41   2.0000      -0.570072       -15.5124
  42   2.0000      -0.552580       -15.0365
  43   2.0000      -0.549813       -14.9612
  44   2.0000      -0.543881       -14.7997
  45   2.0000      -0.537503       -14.6262
  46   2.0000      -0.518427       -14.1071
  47   2.0000      -0.514409       -13.9978
  48   2.0000      -0.509009       -13.8508
  49   2.0000      -0.496225       -13.5030
  50   2.0000      -0.487713       -13.2714
  51   2.0000      -0.473007       -12.8712
  52   2.0000      -0.469981       -12.7888
  53   2.0000      -0.466819       -12.7028
  54   2.0000      -0.460479       -12.5303
  55   2.0000      -0.450319       -12.2538
  56   2.0000      -0.442976       -12.0540
  57   2.0000      -0.430696       -11.7198
  58   2.0000      -0.423733       -11.5304
  59   2.0000      -0.422677       -11.5016
  60   2.0000      -0.422232       -11.4895
  61   2.0000      -0.409805       -11.1514
  62   2.0000      -0.403535       -10.9807
  63   2.0000      -0.350607        -9.5405
  64   2.0000      -0.329963        -8.9788
  65   2.0000      -0.328027        -8.9261
  66   2.0000      -0.300338        -8.1726
  67   0.0000       0.033065         0.8997
  68   0.0000       0.065787         1.7902
  69   0.0000       0.113862         3.0983
  70   0.0000       0.119892         3.2624
  71   0.0000       0.127576         3.4715

MULLIKEN ATOMIC CHARGES
-----------------------
   0 S :    0.103971
   1 C :   -0.125421
   2 C :   -0.096830
   3 C :    0.040968
   4 C :   -0.179543
   5 H :    0.039921
   6 C :    0.121526
   7 H :    0.017596
   8 H :   -0.013904
   9 C :   -0.095170
  10 H :    0.016785
  11 H :    0.026181
  12 C :   -0.050568
  13 H :    0.033949
  14 H :    0.028551
  15 H :    0.053230
  16 S :    0.113167
  17 C :   -0.084168
  18 C :   -0.066215
  19 C :   -0.053977
  20 C :   -0.140068
  21 H :    0.042011
  22 C :    0.076256
  23 H :    0.033963
  24 H :    0.025192
  25 C :   -0.095553
  26 H :    0.038667
  27 H :    0.037965
  28 C :   -0.074527
  29 H :    0.021455
  30 H :    0.036001
  31 H :    0.055263
  32 H :    0.060949
  33 H :    0.052378
Sum of atomic charges:   -0.0000000

LOEWDIN ATOMIC CHARGES
----------------------
   0 S :    0.413359
   1 C :   -0.197825
   2 C :   -0.060562
   3 C :   -0.059916
   4 C :   -0.198408
   5 H :    0.042204
   6 C :   -0.031573
   7 H :    0.028559
   8 H :    0.017850
   9 C :   -0.027877
  10 H :    0.009880
  11 H :    0.023506
  12 C :   -0.062374
  13 H :    0.020938
  14 H :    0.026496
  15 H :    0.029088
  16 S :    0.408941
  17 C :   -0.187631
  18 C :   -0.083280
  19 C :   -0.057615
  20 C :   -0.202206
  21 H :    0.040367
  22 C :   -0.027476
  23 H :    0.033755
  24 H :    0.027263
  25 C :   -0.040095
  26 H :    0.026342
  27 H :    0.022822
  28 C :   -0.081561
  29 H :    0.021781
  30 H :    0.031476
  31 H :    0.031297
  32 H :    0.033066
  33 H :    0.029412

  Mayer bond orders larger than 0.100000
B(  0-S ,  1-C ) :   1.1386 B(  0-S ,  4-C ) :   1.1506 B(  1-C ,  2-C ) :   1.6245
B(  1-C , 32-H ) :   0.9672 B(  2-C ,  3-C ) :   1.2052 B(  2-C ,  6-C ) :   1.0318
B(  3-C ,  4-C ) :   1.6140 B(  3-C ,  5-H ) :   0.9837 B(  4-C , 20-C ) :   1.0121
B(  6-C ,  7-H ) :   0.9405 B(  6-C ,  8-H ) :   0.9328 B(  6-C ,  9-C ) :   1.0531
B(  9-C , 10-H ) :   0.9625 B(  9-C , 11-H ) :   0.9621 B(  9-C , 12-C ) :   1.0695
B( 12-C , 13-H ) :   0.9809 B( 12-C , 14-H ) :   0.9753 B( 12-C , 15-H ) :   0.9784
B( 16-S , 17-C ) :   1.1634 B( 16-S , 20-C ) :   1.1291 B( 17-C , 18-C ) :   1.6078
B( 17-C , 33-H ) :   0.9704 B( 18-C , 19-C ) :   1.2296 B( 18-C , 21-H ) :   0.9825
B( 19-C , 20-C ) :   1.6102 B( 19-C , 22-C ) :   1.0449 B( 22-C , 23-H ) :   0.9310
B( 22-C , 24-H ) :   0.9416 B( 22-C , 25-C ) :   1.0636 B( 25-C , 26-H ) :   0.9582
B( 25-C , 27-H ) :   0.9605 B( 25-C , 28-C ) :   1.0663 B( 28-C , 29-H ) :   0.9732
B( 28-C , 30-H ) :   0.9723 B( 28-C , 31-H ) :   0.9738

Dispersion correction           -0.014677875
FINAL SINGLE POINT ENERGY     -1339.871386454971

DIPOLE MOMENT
-------------
                                X             Y             Z
Electronic contribution:     -3.65379      15.16277       3.29546
Nuclear contribution   :      3.80735     -15.67767      -3.21381
                        -----------------------------------------
Total Dipole Moment    :      0.15356      -0.51490       0.08166
                        -----------------------------------------
Magnitude (a.u.)       :      0.54348
Magnitude (Debye)      :      1.38142

Rotational constants in cm-1:     0.022737     0.007607     0.006988
Rotational constants in MHz :   681.641753   228.055039   209.506825

                             ****ORCA TERMINATED NORMALLY****
TOTAL RUN TIME: 0 days 0 hours 0 minutes 29 seconds 838 msec
