                         Program Version 4.2.1 -  RELEASE  -
|  1> ! wB97X-D3 SP def2-SVP
|  2> %pal
|  3> nprocs 16
|  4> end
|  5>
|  6> * xyz 0 1
|  7> S 	 43.3324 	 11.9314 	 82.2696
|  8> C 	 43.7506 	 12.8936 	 80.8933
|  9> C 	 43.8654 	 14.2625 	 81.1689
| 10> C 	 43.6401 	 14.5009 	 82.585
| 11> C 	 43.2342 	 13.4012 	 83.2527
| 12> H 	 43.6592 	 15.4067 	 83.0843
| 13> C 	 44.347 	 15.3197 	 80.1675
| 14> H 	 44.8411 	 14.7641 	 79.3898
| 15> H 	 45.0544 	 16.0334 	 80.6297
| 16> C 	 43.2131 	 16.2322 	 79.4916
| 17> H 	 42.3432 	 15.7008 	 79.4451
| 18> H 	 42.9179 	 16.958 	 80.2651
| 19> C 	 43.7378 	 16.9273 	 78.2133
| 20> H 	 44.5594 	 17.5724 	 78.4804
| 21> H 	 44.0501 	 16.2728 	 77.4048
| 22> H 	 42.9961 	 17.5735 	 77.7675
| 23> S 	 41.4437 	 13.6364 	 85.437
| 24> C 	 42.1158 	 13.7649 	 87.032
| 25> C 	 43.4631 	 13.3856 	 87.0688
| 26> C 	 43.9849 	 13.292 	 85.7307
| 27> C 	 43.0293 	 13.3627 	 84.7146
| 28> H 	 43.9769 	 13.5278 	 87.9763
| 29> C 	 45.4279 	 13.1776 	 85.4241
| 30> H 	 45.4497 	 13.0025 	 84.3781
| 31> H 	 45.7538 	 12.2459 	 85.6914
| 32> C 	 46.3089 	 14.2929 	 85.8697
| 33> H 	 47.3136 	 14.0549 	 85.5371
| 34> H 	 46.3258 	 14.4339 	 86.9029
| 35> C 	 45.8706 	 15.7427 	 85.2726
| 36> H 	 44.8236 	 15.8171 	 85.3806
| 37> H 	 46.1193 	 15.7521 	 84.241
| 38> H 	 46.2605 	 16.5388 	 85.8474
| 39> H 	 43.8683 	 12.4383 	 79.901
| 40> H 	 41.4825 	 14.0409 	 87.8884
| 41> *
| 42>
| 43>                          ****END OF INPUT****

CARTESIAN COORDINATES (ANGSTROEM)
---------------------------------
  S     43.332400   11.931400   82.269600
  C     43.750600   12.893600   80.893300
  C     43.865400   14.262500   81.168900
  C     43.640100   14.500900   82.585000
  C     43.234200   13.401200   83.252700
  H     43.659200   15.406700   83.084300
  C     44.347000   15.319700   80.167500
  H     44.841100   14.764100   79.389800
  H     45.054400   16.033400   80.629700
  C     43.213100   16.232200   79.491600
  H     42.343200   15.700800   79.445100
  H     42.917900   16.958000   80.265100
  C     43.737800   16.927300   78.213300
  H     44.559400   17.572400   78.480400
  H     44.050100   16.272800   77.404800
  H     42.996100   17.573500   77.767500
  S     41.443700   13.636400   85.437000
  C     42.115800   13.764900   87.032000
  C     43.463100   13.385600   87.068800
  C     43.984900   13.292000   85.730700
  C     43.029300   13.362700   84.714600
  H     43.976900   13.527800   87.976300
  C     45.427900   13.177600   85.424100
  H     45.449700   13.002500   84.378100
  H     45.753800   12.245900   85.691400
  C     46.308900   14.292900   85.869700
  H     47.313600   14.054900   85.537100
  H     46.325800   14.433900   86.902900
  C     45.870600   15.742700   85.272600
  H     44.823600   15.817100   85.380600
  H     46.119300   15.752100   84.241000
  H     46.260500   16.538800   85.847400
  H     43.868300   12.438300   79.901000
  H     41.482500   14.040900   87.888400

 Total Charge           Charge          ....    0
 Multiplicity           Mult            ....    1
 Number of Electrons    NEL             ....  134
 Basis Dimension        Dim             ....  322

ORBITAL ENERGIES
----------------

  NO   OCC          E(Eh)            E(eV)
   0   2.0000     -88.967307     -2420.9235
   1   2.0000     -88.962583     -2420.7950
   2   2.0000     -10.325944      -280.9832
   3   2.0000     -10.322308      -280.8843
   4   2.0000     -10.321404      -280.8597
   5   2.0000     -10.318155      -280.7713
   6   2.0000     -10.307184      -280.4727
   7   2.0000     -10.300393      -280.2880
   8   2.0000     -10.297026      -280.1963
   9   2.0000     -10.292485      -280.0728
  10   2.0000     -10.290153      -280.0093
  11   2.0000     -10.284876      -279.8657
  12   2.0000     -10.281118      -279.7635
  13   2.0000     -10.279768      -279.7267
  14   2.0000     -10.268715      -279.4259
  15   2.0000     -10.268004      -279.4066
  16   2.0000      -8.082003      -219.9225
  17   2.0000      -8.077445      -219.7985
  18   2.0000      -6.040462      -164.3693
  19   2.0000      -6.036589      -164.2639
  20   2.0000      -6.035871      -164.2444
  21   2.0000      -6.032746      -164.1594
  22   2.0000      -6.031830      -164.1344
  23   2.0000      -6.028407      -164.0413
  24   2.0000      -1.003757       -27.3136
  25   2.0000      -0.982084       -26.7239
  26   2.0000      -0.911848       -24.8127
  27   2.0000      -0.901283       -24.5252
  28   2.0000      -0.867300       -23.6004
  29   2.0000      -0.850009       -23.1299
  30   2.0000      -0.841147       -22.8888
  31   2.0000      -0.816372       -22.2146
  32   2.0000      -0.785539       -21.3756
  33   2.0000      -0.770152       -20.9569
  34   2.0000      -0.712956       -19.4005
  35   2.0000      -0.708446       -19.2778
  36   2.0000      -0.691366       -18.8130
  37   2.0000      -0.654162       -17.8007
  38   2.0000      -0.651291       -17.7225
  39   2.0000      -0.619221       -16.8499
  40   2.0000      -0.599088       -16.3020
  41   2.0000      -0.572198       -15.5703
  42   2.0000      -0.557680       -15.1752
  43   2.0000      -0.550472       -14.9791
  44   2.0000      -0.541169       -14.7260
  45   2.0000      -0.526006       -14.3134
  46   2.0000      -0.519229       -14.1289
  47   2.0000      -0.510483       -13.8910
  48   2.0000      -0.500893       -13.6300
  49   2.0000      -0.493717       -13.4347
  50   2.0000      -0.485444       -13.2096
  51   2.0000      -0.478442       -13.0191
  52   2.0000      -0.473484       -12.8842
  53   2.0000      -0.465776       -12.6744
  54   2.0000      -0.463128       -12.6023
  55   2.0000      -0.453224       -12.3328
  56   2.0000      -0.448434       -12.2025
  57   2.0000      -0.439637       -11.9631
  58   2.0000      -0.436289       -11.8720
  59   2.0000      -0.427036       -11.6202
  60   2.0000      -0.422564       -11.4986
  61   2.0000      -0.416434       -11.3318
  62   2.0000      -0.404603       -11.0098
  63   2.0000      -0.339081        -9.2269
  64   2.0000      -0.329218        -8.9585
  65   2.0000      -0.315544        -8.5864
  66   2.0000      -0.311967        -8.4890
  67   0.0000       0.048011         1.3065
  68   0.0000       0.053105         1.4451
  69   0.0000       0.108084         2.9411
  70   0.0000       0.123521         3.3612
  71   0.0000       0.129099         3.5130

MULLIKEN ATOMIC CHARGES
-----------------------
   0 S :    0.116488
   1 C :   -0.132554
   2 C :   -0.076372
   3 C :    0.077561
   4 C :   -0.177823
   5 H :   -0.013119
   6 C :    0.040182
   7 H :    0.017249
   8 H :    0.037424
   9 C :   -0.041777
  10 H :    0.007627
  11 H :    0.022231
  12 C :   -0.036962
  13 H :    0.028570
  14 H :    0.035704
  15 H :    0.031238
  16 S :    0.105510
  17 C :   -0.130323
  18 C :    0.012403
  19 C :   -0.095114
  20 C :   -0.173595
  21 H :    0.013167
  22 C :    0.174261
  23 H :   -0.004729
  24 H :   -0.002352
  25 C :   -0.056944
  26 H :    0.027940
  27 H :    0.016032
  28 C :   -0.038314
  29 H :    0.029988
  30 H :    0.031229
  31 H :    0.024771
  32 H :    0.058164
  33 H :    0.072236
Sum of atomic charges:    0.0000000

LOEWDIN ATOMIC CHARGES
----------------------
   0 S :    0.402473
   1 C :   -0.199602
   2 C :   -0.061846
   3 C :   -0.041645
   4 C :   -0.191900
   5 H :    0.022303
   6 C :   -0.028353
   7 H :    0.024749
   8 H :    0.033236
   9 C :   -0.032875
  10 H :    0.008527
  11 H :    0.027028
  12 C :   -0.063275
  13 H :    0.026085
  14 H :    0.025802
  15 H :    0.027088
  16 S :    0.403937
  17 C :   -0.181336
  18 C :   -0.073356
  19 C :   -0.043908
  20 C :   -0.213248
  21 H :    0.025611
  22 C :   -0.035194
  23 H :    0.029014
  24 H :    0.024965
  25 C :   -0.021627
  26 H :    0.025576
  27 H :    0.011968
  28 C :   -0.051675
  29 H :    0.018475
  30 H :    0.019838
  31 H :    0.020565
  32 H :    0.030014
  33 H :    0.032588

  Mayer bond orders larger than 0.100000
B(  0-S ,  1-C ) :   1.1507 B(  0-S ,  4-C ) :   1.1297 B(  1-C ,  2-C ) :   1.6165
B(  1-C , 32-H ) :   0.9624 B(  2-C ,  3-C ) :   1.2046 B(  2-C ,  6-C ) :   1.0302
B(  3-C ,  4-C ) :   1.6300 B(  3-C ,  5-H ) :   1.0037 B(  4-C , 20-C ) :   0.9993
B(  6-C ,  7-H ) :   0.9486 B(  6-C ,  8-H ) :   0.9476 B(  6-C ,  9-C ) :   1.0410
B(  9-C , 10-H ) :   0.9632 B(  9-C , 11-H ) :   0.9544 B(  9-C , 12-C ) :   1.0735
B( 12-C , 13-H ) :   0.9745 B( 12-C , 14-H ) :   0.9782 B( 12-C , 15-H ) :   0.9743
B( 16-S , 17-C ) :   1.1900 B( 16-S , 20-C ) :   1.1312 B( 17-C , 18-C ) :   1.5840
B( 17-C , 33-H ) :   0.9635 B( 18-C , 19-C ) :   1.2339 B( 18-C , 21-H ) :   0.9953
B( 19-C , 20-C ) :   1.6014 B( 19-C , 22-C ) :   1.0476 B( 22-C , 23-H ) :   0.9090
B( 22-C , 24-H ) :   0.9100 B( 22-C , 25-C ) :   1.0701 B( 25-C , 26-H ) :   0.9557
B( 25-C , 27-H ) :   0.9619 B( 25-C , 28-C ) :   1.0665 B( 28-C , 29-H ) :   0.9760
B( 28-C , 30-H ) :   0.9791 B( 28-C , 31-H ) :   0.9748

Dispersion correction           -0.015598356
FINAL SINGLE POINT ENERGY     -1339.865409746817

DIPOLE MOMENT
-------------
                                X             Y             Z
Electronic contribution:    -15.14449     -18.69870      10.88092
Nuclear contribution   :     15.57486      19.15860     -10.96757
                        -----------------------------------------
Total Dipole Moment    :      0.43038       0.45990      -0.08665
                        -----------------------------------------
Magnitude (a.u.)       :      0.63580
Magnitude (Debye)      :      1.61607

Rotational constants in cm-1:     0.020596     0.007795     0.007142
Rotational constants in MHz :   617.463904   233.683830   214.116189

                             ****ORCA TERMINATED NORMALLY****
TOTAL RUN TIME: 0 days 0 hours 0 minutes 31 seconds 962 msec
