                         Program Version 4.2.1 -  RELEASE  -
|  1> ! wB97X-D3 SP def2-SVP
|  2> %pal
|  3> nprocs 16
|  4> end
|  5>
|  6> * xyz 0 1
|  7> S 	 -10.573 	 -1.32325 	 77.444
|  8> C 	 -9.11436 	 -1.487 	 78.5083
|  9> C 	 -9.3766 	 -2.2834 	 79.6478
| 10> C 	 -10.7543 	 -2.73134 	 79.6888
| 11> C 	 -11.5198 	 -2.36371 	 78.5707
| 12> H 	 -11.3532 	 -3.0795 	 80.5891
| 13> C 	 -8.45809 	 -2.48659 	 80.8707
| 14> H 	 -7.43568 	 -2.79518 	 80.5173
| 15> H 	 -8.95301 	 -3.28307 	 81.4255
| 16> C 	 -8.42819 	 -1.19954 	 81.7373
| 17> H 	 -7.84317 	 -0.440394 	 81.1433
| 18> H 	 -9.43498 	 -0.804286 	 81.8261
| 19> C 	 -7.66049 	 -1.48714 	 82.9363
| 20> H 	 -6.57837 	 -1.65396 	 82.7971
| 21> H 	 -7.69081 	 -0.58863 	 83.5468
| 22> H 	 -7.8637 	 -2.48112 	 83.5151
| 23> S 	 -13.829 	 -1.04816 	 79.005
| 24> C 	 -15.3893 	 -1.88244 	 78.9021
| 25> C 	 -15.2553 	 -3.14896 	 78.5277
| 26> C 	 -13.8995 	 -3.57202 	 78.3997
| 27> C 	 -12.978 	 -2.48253 	 78.5092
| 28> H 	 -16.0529 	 -3.83737 	 78.2292
| 29> C 	 -13.6103 	 -5.04588 	 78.1257
| 30> H 	 -12.4871 	 -5.12633 	 77.9953
| 31> H 	 -14.1216 	 -5.2446 	 77.1827
| 32> C 	 -14.0665 	 -6.04334 	 79.2275
| 33> H 	 -14.2191 	 -7.03338 	 78.8943
| 34> H 	 -15.0866 	 -5.81189 	 79.6385
| 35> C 	 -13.2479 	 -6.03127 	 80.6051
| 36> H 	 -13.6394 	 -6.62285 	 81.4641
| 37> H 	 -12.9284 	 -5.01358 	 81.0344
| 38> H 	 -12.2389 	 -6.54444 	 80.5862
| 39> H 	 -8.21374 	 -0.9002 	 78.4096
| 40> H 	 -16.3574 	 -1.2991 	 78.9599
| 41> *
| 42>
| 43>                          ****END OF INPUT****

CARTESIAN COORDINATES (ANGSTROEM)
---------------------------------
  S    -10.573000   -1.323250   77.444000
  C     -9.114360   -1.487000   78.508300
  C     -9.376600   -2.283400   79.647800
  C    -10.754300   -2.731340   79.688800
  C    -11.519800   -2.363710   78.570700
  H    -11.353200   -3.079500   80.589100
  C     -8.458090   -2.486590   80.870700
  H     -7.435680   -2.795180   80.517300
  H     -8.953010   -3.283070   81.425500
  C     -8.428190   -1.199540   81.737300
  H     -7.843170   -0.440394   81.143300
  H     -9.434980   -0.804286   81.826100
  C     -7.660490   -1.487140   82.936300
  H     -6.578370   -1.653960   82.797100
  H     -7.690810   -0.588630   83.546800
  H     -7.863700   -2.481120   83.515100
  S    -13.829000   -1.048160   79.005000
  C    -15.389300   -1.882440   78.902100
  C    -15.255300   -3.148960   78.527700
  C    -13.899500   -3.572020   78.399700
  C    -12.978000   -2.482530   78.509200
  H    -16.052900   -3.837370   78.229200
  C    -13.610300   -5.045880   78.125700
  H    -12.487100   -5.126330   77.995300
  H    -14.121600   -5.244600   77.182700
  C    -14.066500   -6.043340   79.227500
  H    -14.219100   -7.033380   78.894300
  H    -15.086600   -5.811890   79.638500
  C    -13.247900   -6.031270   80.605100
  H    -13.639400   -6.622850   81.464100
  H    -12.928400   -5.013580   81.034400
  H    -12.238900   -6.544440   80.586200
  H     -8.213740   -0.900200   78.409600
  H    -16.357400   -1.299100   78.959900

 Total Charge           Charge          ....    0
 Multiplicity           Mult            ....    1
 Number of Electrons    NEL             ....  134
 Basis Dimension        Dim             ....  322

ORBITAL ENERGIES
----------------

  NO   OCC          E(Eh)            E(eV)
   0   2.0000     -88.969590     -2420.9856
   1   2.0000     -88.962005     -2420.7792
   2   2.0000     -10.334650      -281.2201
   3   2.0000     -10.329530      -281.0808
   4   2.0000     -10.322715      -280.8953
   5   2.0000     -10.318572      -280.7826
   6   2.0000     -10.308958      -280.5210
   7   2.0000     -10.307517      -280.4818
   8   2.0000     -10.303799      -280.3806
   9   2.0000     -10.301446      -280.3166
  10   2.0000     -10.298652      -280.2406
  11   2.0000     -10.298482      -280.2359
  12   2.0000     -10.291826      -280.0548
  13   2.0000     -10.289935      -280.0034
  14   2.0000     -10.289828      -280.0005
  15   2.0000     -10.283030      -279.8155
  16   2.0000      -8.082214      -219.9282
  17   2.0000      -8.076941      -219.7847
  18   2.0000      -6.040875      -164.3806
  19   2.0000      -6.037082      -164.2774
  20   2.0000      -6.035575      -164.2364
  21   2.0000      -6.032857      -164.1624
  22   2.0000      -6.031389      -164.1224
  23   2.0000      -6.027573      -164.0186
  24   2.0000      -1.000037       -27.2124
  25   2.0000      -0.971963       -26.4485
  26   2.0000      -0.916576       -24.9413
  27   2.0000      -0.898585       -24.4518
  28   2.0000      -0.870357       -23.6836
  29   2.0000      -0.845460       -23.0061
  30   2.0000      -0.837958       -22.8020
  31   2.0000      -0.809728       -22.0338
  32   2.0000      -0.776219       -21.1220
  33   2.0000      -0.765496       -20.8302
  34   2.0000      -0.708594       -19.2818
  35   2.0000      -0.699779       -19.0420
  36   2.0000      -0.691299       -18.8112
  37   2.0000      -0.656281       -17.8583
  38   2.0000      -0.636921       -17.3315
  39   2.0000      -0.609725       -16.5915
  40   2.0000      -0.591303       -16.0902
  41   2.0000      -0.566207       -15.4073
  42   2.0000      -0.558473       -15.1968
  43   2.0000      -0.552836       -15.0434
  44   2.0000      -0.531519       -14.4634
  45   2.0000      -0.525423       -14.2975
  46   2.0000      -0.513709       -13.9787
  47   2.0000      -0.507062       -13.7979
  48   2.0000      -0.502159       -13.6644
  49   2.0000      -0.493473       -13.4281
  50   2.0000      -0.488615       -13.2959
  51   2.0000      -0.475337       -12.9346
  52   2.0000      -0.465594       -12.6694
  53   2.0000      -0.457736       -12.4556
  54   2.0000      -0.454020       -12.3545
  55   2.0000      -0.448290       -12.1986
  56   2.0000      -0.446975       -12.1628
  57   2.0000      -0.438212       -11.9244
  58   2.0000      -0.429192       -11.6789
  59   2.0000      -0.424708       -11.5569
  60   2.0000      -0.417577       -11.3628
  61   2.0000      -0.410934       -11.1821
  62   2.0000      -0.403857       -10.9895
  63   2.0000      -0.343719        -9.3531
  64   2.0000      -0.327125        -8.9015
  65   2.0000      -0.316968        -8.6251
  66   2.0000      -0.302997        -8.2450
  67   0.0000       0.030364         0.8262
  68   0.0000       0.058217         1.5842
  69   0.0000       0.107526         2.9259
  70   0.0000       0.117800         3.2055
  71   0.0000       0.122496         3.3333

MULLIKEN ATOMIC CHARGES
-----------------------
   0 S :    0.099498
   1 C :   -0.122400
   2 C :   -0.095023
   3 C :    0.015848
   4 C :   -0.170555
   5 H :    0.056044
   6 C :    0.029573
   7 H :    0.045066
   8 H :    0.027127
   9 C :   -0.063833
  10 H :    0.031829
  11 H :    0.041953
  12 C :   -0.047623
  13 H :    0.024400
  14 H :    0.035553
  15 H :    0.039066
  16 S :    0.097656
  17 C :   -0.105878
  18 C :   -0.011415
  19 C :   -0.065686
  20 C :   -0.175056
  21 H :    0.027655
  22 C :    0.070524
  23 H :    0.047470
  24 H :    0.040129
  25 C :   -0.043855
  26 H :    0.025677
  27 H :    0.032951
  28 C :   -0.123978
  29 H :    0.038033
  30 H :    0.043157
  31 H :    0.025298
  32 H :    0.051711
  33 H :    0.079083
Sum of atomic charges:   -0.0000000

LOEWDIN ATOMIC CHARGES
----------------------
   0 S :    0.364978
   1 C :   -0.183742
   2 C :   -0.059799
   3 C :   -0.067515
   4 C :   -0.193323
   5 H :    0.045662
   6 C :   -0.029399
   7 H :    0.036598
   8 H :    0.027735
   9 C :   -0.043678
  10 H :    0.033240
  11 H :    0.028372
  12 C :   -0.082077
  13 H :    0.028383
  14 H :    0.027948
  15 H :    0.034781
  16 S :    0.400483
  17 C :   -0.181935
  18 C :   -0.078020
  19 C :   -0.053166
  20 C :   -0.210679
  21 H :    0.037505
  22 C :   -0.032028
  23 H :    0.041638
  24 H :    0.036525
  25 C :   -0.039928
  26 H :    0.020970
  27 H :    0.030669
  28 C :   -0.093253
  29 H :    0.029729
  30 H :    0.030630
  31 H :    0.024382
  32 H :    0.026460
  33 H :    0.041852

  Mayer bond orders larger than 0.100000
B(  0-S ,  1-C ) :   1.1254 B(  0-S ,  4-C ) :   1.1329 B(  1-C ,  2-C ) :   1.6200
B(  1-C , 32-H ) :   0.9693 B(  2-C ,  3-C ) :   1.2315 B(  2-C ,  6-C ) :   1.0184
B(  3-C ,  4-C ) :   1.6076 B(  3-C ,  5-H ) :   0.9665 B(  4-C , 20-C ) :   1.0137
B(  6-C ,  7-H ) :   0.9418 B(  6-C ,  8-H ) :   0.9460 B(  6-C ,  9-C ) :   1.0619
B(  9-C , 10-H ) :   0.9455 B(  9-C , 11-H ) :   0.9591 B(  9-C , 12-C ) :   1.0894
B( 12-C , 13-H ) :   0.9650 B( 12-C , 14-H ) :   0.9678 B( 12-C , 15-H ) :   0.9689
B( 16-S , 17-C ) :   1.1422 B( 16-S , 20-C ) :   1.1518 B( 17-C , 18-C ) :   1.6222
B( 17-C , 33-H ) :   0.9562 B( 18-C , 19-C ) :   1.2426 B( 18-C , 21-H ) :   0.9829
B( 19-C , 20-C ) :   1.5920 B( 19-C , 22-C ) :   1.0396 B( 22-C , 23-H ) :   0.9420
B( 22-C , 24-H ) :   0.9354 B( 22-C , 25-C ) :   1.0558 B( 25-C , 26-H ) :   0.9598
B( 25-C , 27-H ) :   0.9605 B( 25-C , 28-C ) :   1.0428 B( 28-C , 29-H ) :   0.9768
B( 28-C , 30-H ) :   0.9774 B( 28-C , 31-H ) :   0.9753

Dispersion correction           -0.014415137
FINAL SINGLE POINT ENERGY     -1339.848129521758

DIPOLE MOMENT
-------------
                                X             Y             Z
Electronic contribution:     -9.18893      14.90607     -18.70192
Nuclear contribution   :      9.20671     -15.17607      19.13932
                        -----------------------------------------
Total Dipole Moment    :      0.01778      -0.26999       0.43739
                        -----------------------------------------
Magnitude (a.u.)       :      0.51432
Magnitude (Debye)      :      1.30730

Rotational constants in cm-1:     0.018610     0.008066     0.006944
Rotational constants in MHz :   557.912281   241.820513   208.162353

                             ****ORCA TERMINATED NORMALLY****
TOTAL RUN TIME: 0 days 0 hours 0 minutes 33 seconds 135 msec
