                         Program Version 4.2.1 -  RELEASE  -
|  1> ! wB97X-D3 SP def2-SVP
|  2> %pal
|  3> nprocs 16
|  4> end
|  5>
|  6> * xyz 0 1
|  7> S 	 -100.913 	 52.4079 	 124.035
|  8> C 	 -100.37 	 52.3353 	 122.386
|  9> C 	 -100.603 	 53.5505 	 121.756
| 10> C 	 -101.184 	 54.5203 	 122.641
| 11> C 	 -101.628 	 53.9825 	 123.825
| 12> H 	 -101.299 	 55.5525 	 122.444
| 13> C 	 -100.333 	 53.9351 	 120.356
| 14> H 	 -100.8 	 54.8503 	 120.164
| 15> H 	 -100.829 	 53.1891 	 119.703
| 16> C 	 -98.8706 	 54.0305 	 119.947
| 17> H 	 -98.392 	 54.8065 	 120.609
| 18> H 	 -98.2959 	 53.102 	 120.081
| 19> C 	 -98.686 	 54.5689 	 118.499
| 20> H 	 -97.621 	 54.5311 	 118.267
| 21> H 	 -99.1741 	 53.9517 	 117.684
| 22> H 	 -98.98 	 55.6005 	 118.33
| 23> S 	 -100.886 	 55.4049 	 126.025
| 24> C 	 -102.014 	 56.4685 	 126.85
| 25> C 	 -103.317 	 56.2417 	 126.37
| 26> C 	 -103.374 	 55.3423 	 125.227
| 27> C 	 -102.11 	 54.7715 	 124.952
| 28> H 	 -104.135 	 56.7668 	 126.843
| 29> C 	 -104.604 	 55.1875 	 124.411
| 30> H 	 -104.191 	 54.964 	 123.401
| 31> H 	 -105.063 	 56.1893 	 124.21
| 32> C 	 -105.651 	 54.2036 	 124.756
| 33> H 	 -105.257 	 53.1748 	 124.594
| 34> H 	 -106.473 	 54.2911 	 124.018
| 35> C 	 -106.201 	 54.3833 	 126.213
| 36> H 	 -105.519 	 54.0435 	 126.986
| 37> H 	 -107.13 	 53.9171 	 126.372
| 38> H 	 -106.245 	 55.4424 	 126.408
| 39> H 	 -99.7367 	 51.604 	 121.958
| 40> H 	 -101.759 	 56.8073 	 127.852
| 41> *
| 42>
| 43>                          ****END OF INPUT****

CARTESIAN COORDINATES (ANGSTROEM)
---------------------------------
  S    -100.913000   52.407900  124.035000
  C    -100.370000   52.335300  122.386000
  C    -100.603000   53.550500  121.756000
  C    -101.184000   54.520300  122.641000
  C    -101.628000   53.982500  123.825000
  H    -101.299000   55.552500  122.444000
  C    -100.333000   53.935100  120.356000
  H    -100.800000   54.850300  120.164000
  H    -100.829000   53.189100  119.703000
  C    -98.870600   54.030500  119.947000
  H    -98.392000   54.806500  120.609000
  H    -98.295900   53.102000  120.081000
  C    -98.686000   54.568900  118.499000
  H    -97.621000   54.531100  118.267000
  H    -99.174100   53.951700  117.684000
  H    -98.980000   55.600500  118.330000
  S    -100.886000   55.404900  126.025000
  C    -102.014000   56.468500  126.850000
  C    -103.317000   56.241700  126.370000
  C    -103.374000   55.342300  125.227000
  C    -102.110000   54.771500  124.952000
  H    -104.135000   56.766800  126.843000
  C    -104.604000   55.187500  124.411000
  H    -104.191000   54.964000  123.401000
  H    -105.063000   56.189300  124.210000
  C    -105.651000   54.203600  124.756000
  H    -105.257000   53.174800  124.594000
  H    -106.473000   54.291100  124.018000
  C    -106.201000   54.383300  126.213000
  H    -105.519000   54.043500  126.986000
  H    -107.130000   53.917100  126.372000
  H    -106.245000   55.442400  126.408000
  H    -99.736700   51.604000  121.958000
  H    -101.759000   56.807300  127.852000

 Total Charge           Charge          ....    0
 Multiplicity           Mult            ....    1
 Number of Electrons    NEL             ....  134
 Basis Dimension        Dim             ....  322

ORBITAL ENERGIES
----------------

  NO   OCC          E(Eh)            E(eV)
   0   2.0000     -88.966789     -2420.9094
   1   2.0000     -88.962738     -2420.7992
   2   2.0000     -10.328856      -281.0625
   3   2.0000     -10.325602      -280.9739
   4   2.0000     -10.318737      -280.7871
   5   2.0000     -10.312677      -280.6222
   6   2.0000     -10.308111      -280.4980
   7   2.0000     -10.299573      -280.2656
   8   2.0000     -10.298796      -280.2445
   9   2.0000     -10.294342      -280.1233
  10   2.0000     -10.291351      -280.0419
  11   2.0000     -10.287760      -279.9442
  12   2.0000     -10.286945      -279.9220
  13   2.0000     -10.285544      -279.8839
  14   2.0000     -10.283823      -279.8370
  15   2.0000     -10.270681      -279.4794
  16   2.0000      -8.081701      -219.9143
  17   2.0000      -8.077581      -219.8021
  18   2.0000      -6.040185      -164.3618
  19   2.0000      -6.036179      -164.2528
  20   2.0000      -6.036018      -164.2484
  21   2.0000      -6.032475      -164.1520
  22   2.0000      -6.031913      -164.1367
  23   2.0000      -6.028559      -164.0454
  24   2.0000      -1.007919       -27.4269
  25   2.0000      -0.981904       -26.7190
  26   2.0000      -0.915264       -24.9056
  27   2.0000      -0.911424       -24.8011
  28   2.0000      -0.868988       -23.6464
  29   2.0000      -0.850118       -23.1329
  30   2.0000      -0.842648       -22.9296
  31   2.0000      -0.813339       -22.1321
  32   2.0000      -0.784374       -21.3439
  33   2.0000      -0.773611       -21.0510
  34   2.0000      -0.709317       -19.3015
  35   2.0000      -0.702980       -19.1291
  36   2.0000      -0.688027       -18.7222
  37   2.0000      -0.660442       -17.9715
  38   2.0000      -0.648156       -17.6372
  39   2.0000      -0.616914       -16.7871
  40   2.0000      -0.589568       -16.0430
  41   2.0000      -0.574200       -15.6248
  42   2.0000      -0.561708       -15.2848
  43   2.0000      -0.552159       -15.0250
  44   2.0000      -0.545314       -14.8388
  45   2.0000      -0.525067       -14.2878
  46   2.0000      -0.516639       -14.0585
  47   2.0000      -0.512319       -13.9409
  48   2.0000      -0.507685       -13.8148
  49   2.0000      -0.500006       -13.6058
  50   2.0000      -0.485253       -13.2044
  51   2.0000      -0.479188       -13.0394
  52   2.0000      -0.473316       -12.8796
  53   2.0000      -0.465368       -12.6633
  54   2.0000      -0.455890       -12.4054
  55   2.0000      -0.452926       -12.3247
  56   2.0000      -0.445940       -12.1346
  57   2.0000      -0.436487       -11.8774
  58   2.0000      -0.432000       -11.7553
  59   2.0000      -0.423145       -11.5144
  60   2.0000      -0.419271       -11.4090
  61   2.0000      -0.416406       -11.3310
  62   2.0000      -0.405377       -11.0309
  63   2.0000      -0.337900        -9.1947
  64   2.0000      -0.324500        -8.8301
  65   2.0000      -0.318653        -8.6710
  66   2.0000      -0.310757        -8.4561
  67   0.0000       0.035988         0.9793
  68   0.0000       0.050644         1.3781
  69   0.0000       0.111994         3.0475
  70   0.0000       0.121331         3.3016
  71   0.0000       0.124988         3.4011

MULLIKEN ATOMIC CHARGES
-----------------------
   0 S :    0.110619
   1 C :   -0.090970
   2 C :   -0.098681
   3 C :    0.043227
   4 C :   -0.158987
   5 H :    0.008161
   6 C :    0.108351
   7 H :   -0.002093
   8 H :    0.034924
   9 C :   -0.100509
  10 H :    0.035649
  11 H :    0.036192
  12 C :   -0.065324
  13 H :    0.031685
  14 H :    0.035295
  15 H :    0.033706
  16 S :    0.106042
  17 C :   -0.106105
  18 C :   -0.047201
  19 C :   -0.028754
  20 C :   -0.165020
  21 H :    0.027425
  22 C :    0.023210
  23 H :    0.022675
  24 H :    0.033498
  25 C :   -0.047431
  26 H :    0.033541
  27 H :    0.031128
  28 C :   -0.032313
  29 H :    0.037198
  30 H :    0.029294
  31 H :    0.011415
  32 H :    0.036639
  33 H :    0.073513
Sum of atomic charges:    0.0000000

LOEWDIN ATOMIC CHARGES
----------------------
   0 S :    0.420797
   1 C :   -0.195492
   2 C :   -0.061154
   3 C :   -0.046546
   4 C :   -0.211486
   5 H :    0.026831
   6 C :   -0.035301
   7 H :    0.022544
   8 H :    0.038405
   9 C :   -0.040959
  10 H :    0.031292
  11 H :    0.024272
  12 C :   -0.073878
  13 H :    0.027008
  14 H :    0.028504
  15 H :    0.023261
  16 S :    0.410066
  17 C :   -0.196101
  18 C :   -0.065479
  19 C :   -0.053777
  20 C :   -0.203252
  21 H :    0.029873
  22 C :   -0.049958
  23 H :    0.037287
  24 H :    0.035809
  25 C :   -0.038820
  26 H :    0.027746
  27 H :    0.028777
  28 C :   -0.061973
  29 H :    0.028546
  30 H :    0.019959
  31 H :    0.019322
  32 H :    0.023571
  33 H :    0.030306

  Mayer bond orders larger than 0.100000
B(  0-S ,  1-C ) :   1.1489 B(  0-S ,  4-C ) :   1.1548 B(  1-C ,  2-C ) :   1.5872
B(  1-C , 32-H ) :   0.9746 B(  2-C ,  3-C ) :   1.2565 B(  2-C ,  6-C ) :   1.0338
B(  3-C ,  4-C ) :   1.5630 B(  3-C ,  5-H ) :   0.9992 B(  4-C , 20-C ) :   1.0084
B(  6-C ,  7-H ) :   0.9361 B(  6-C ,  8-H ) :   0.9309 B(  6-C ,  9-C ) :   1.0651
B(  9-C , 10-H ) :   0.9530 B(  9-C , 11-H ) :   0.9583 B(  9-C , 12-C ) :   1.0814
B( 12-C , 13-H ) :   0.9749 B( 12-C , 14-H ) :   0.9744 B( 12-C , 15-H ) :   0.9755
B( 16-S , 17-C ) :   1.1597 B( 16-S , 20-C ) :   1.1671 B( 17-C , 18-C ) :   1.6016
B( 17-C , 20-C ) :   0.1051 B( 17-C , 33-H ) :   0.9595 B( 18-C , 19-C ) :   1.2428
B( 18-C , 21-H ) :   0.9884 B( 19-C , 20-C ) :   1.5813 B( 19-C , 22-C ) :   1.0394
B( 22-C , 23-H ) :   0.9203 B( 22-C , 24-H ) :   0.9362 B( 22-C , 25-C ) :   1.0978
B( 25-C , 26-H ) :   0.9527 B( 25-C , 27-H ) :   0.9501 B( 25-C , 28-C ) :   1.0705
B( 28-C , 29-H ) :   0.9710 B( 28-C , 30-H ) :   0.9750 B( 28-C , 31-H ) :   0.9752

Dispersion correction           -0.014025872
FINAL SINGLE POINT ENERGY     -1339.876115485744

DIPOLE MOMENT
-------------
                                X             Y             Z
Electronic contribution:      8.20504      -3.48508      16.98431
Nuclear contribution   :     -8.30754       3.72419     -17.40877
                        -----------------------------------------
Total Dipole Moment    :     -0.10249       0.23912      -0.42446
                        -----------------------------------------
Magnitude (a.u.)       :      0.49785
Magnitude (Debye)      :      1.26543

Rotational constants in cm-1:     0.022779     0.006925     0.006439
Rotational constants in MHz :   682.900517   207.603580   193.048903

                             ****ORCA TERMINATED NORMALLY****
TOTAL RUN TIME: 0 days 0 hours 0 minutes 33 seconds 296 msec
