                         Program Version 4.2.1 -  RELEASE  -
|  1> ! wB97X-D3 SP def2-SVP
|  2> %pal
|  3> nprocs 16
|  4> end
|  5>
|  6> * xyz 0 1
|  7> S 	 -91.127 	 51.6179 	 123.74
|  8> C 	 -89.9192 	 51.2819 	 125.014
|  9> C 	 -90.5435 	 50.8641 	 126.149
| 10> C 	 -91.9744 	 50.574 	 125.954
| 11> C 	 -92.4405 	 50.9837 	 124.705
| 12> H 	 -92.5529 	 50.3928 	 126.881
| 13> C 	 -89.8551 	 50.394 	 127.396
| 14> H 	 -88.8 	 50.7426 	 127.265
| 15> H 	 -89.6396 	 49.3261 	 127.316
| 16> C 	 -90.34 	 51.0044 	 128.767
| 17> H 	 -90.3431 	 52.1405 	 128.652
| 18> H 	 -91.4113 	 50.6289 	 128.821
| 19> C 	 -89.4939 	 50.4611 	 129.924
| 20> H 	 -88.4375 	 50.8743 	 129.951
| 21> H 	 -89.9213 	 50.8193 	 130.934
| 22> H 	 -89.5581 	 49.3933 	 129.881
| 23> S 	 -94.0554 	 50.2649 	 122.614
| 24> C 	 -95.7677 	 50.6124 	 122.788
| 25> C 	 -96.1048 	 51.1777 	 124.001
| 26> C 	 -94.9736 	 51.4862 	 124.819
| 27> C 	 -93.7976 	 50.9535 	 124.263
| 28> H 	 -97.1243 	 51.4449 	 124.21
| 29> C 	 -95.0676 	 52.0831 	 126.168
| 30> H 	 -94.5346 	 53.0564 	 126.067
| 31> H 	 -94.3685 	 51.6005 	 126.876
| 32> C 	 -96.4106 	 52.3036 	 126.903
| 33> H 	 -96.3792 	 52.4509 	 127.93
| 34> H 	 -96.9808 	 51.3852 	 126.784
| 35> C 	 -97.2841 	 53.5237 	 126.404
| 36> H 	 -96.6824 	 54.3992 	 126.636
| 37> H 	 -98.2614 	 53.7228 	 126.758
| 38> H 	 -97.3899 	 53.4626 	 125.339
| 39> H 	 -88.8761 	 51.4507 	 124.924
| 40> H 	 -96.5796 	 50.3367 	 122.173
| 41> *
| 42>
| 43>                          ****END OF INPUT****

CARTESIAN COORDINATES (ANGSTROEM)
---------------------------------
  S    -91.127000   51.617900  123.740000
  C    -89.919200   51.281900  125.014000
  C    -90.543500   50.864100  126.149000
  C    -91.974400   50.574000  125.954000
  C    -92.440500   50.983700  124.705000
  H    -92.552900   50.392800  126.881000
  C    -89.855100   50.394000  127.396000
  H    -88.800000   50.742600  127.265000
  H    -89.639600   49.326100  127.316000
  C    -90.340000   51.004400  128.767000
  H    -90.343100   52.140500  128.652000
  H    -91.411300   50.628900  128.821000
  C    -89.493900   50.461100  129.924000
  H    -88.437500   50.874300  129.951000
  H    -89.921300   50.819300  130.934000
  H    -89.558100   49.393300  129.881000
  S    -94.055400   50.264900  122.614000
  C    -95.767700   50.612400  122.788000
  C    -96.104800   51.177700  124.001000
  C    -94.973600   51.486200  124.819000
  C    -93.797600   50.953500  124.263000
  H    -97.124300   51.444900  124.210000
  C    -95.067600   52.083100  126.168000
  H    -94.534600   53.056400  126.067000
  H    -94.368500   51.600500  126.876000
  C    -96.410600   52.303600  126.903000
  H    -96.379200   52.450900  127.930000
  H    -96.980800   51.385200  126.784000
  C    -97.284100   53.523700  126.404000
  H    -96.682400   54.399200  126.636000
  H    -98.261400   53.722800  126.758000
  H    -97.389900   53.462600  125.339000
  H    -88.876100   51.450700  124.924000
  H    -96.579600   50.336700  122.173000

 Total Charge           Charge          ....    0
 Multiplicity           Mult            ....    1
 Number of Electrons    NEL             ....  134
 Basis Dimension        Dim             ....  322

ORBITAL ENERGIES
----------------

  NO   OCC          E(Eh)            E(eV)
   0   2.0000     -88.969433     -2420.9814
   1   2.0000     -88.964862     -2420.8570
   2   2.0000     -10.330940      -281.1192
   3   2.0000     -10.327396      -281.0227
   4   2.0000     -10.315378      -280.6957
   5   2.0000     -10.312288      -280.6116
   6   2.0000     -10.309792      -280.5437
   7   2.0000     -10.305582      -280.4292
   8   2.0000     -10.298595      -280.2390
   9   2.0000     -10.297946      -280.2214
  10   2.0000     -10.296319      -280.1771
  11   2.0000     -10.293241      -280.0933
  12   2.0000     -10.292952      -280.0855
  13   2.0000     -10.292921      -280.0846
  14   2.0000     -10.290198      -280.0105
  15   2.0000     -10.275502      -279.6106
  16   2.0000      -8.083019      -219.9501
  17   2.0000      -8.079119      -219.8440
  18   2.0000      -6.041579      -164.3997
  19   2.0000      -6.037872      -164.2989
  20   2.0000      -6.037791      -164.2966
  21   2.0000      -6.033690      -164.1850
  22   2.0000      -6.033683      -164.1849
  23   2.0000      -6.029637      -164.0748
  24   2.0000      -1.002000       -27.2658
  25   2.0000      -0.977759       -26.6062
  26   2.0000      -0.909623       -24.7521
  27   2.0000      -0.907331       -24.6897
  28   2.0000      -0.871720       -23.7207
  29   2.0000      -0.852204       -23.1896
  30   2.0000      -0.840884       -22.8816
  31   2.0000      -0.814518       -22.1642
  32   2.0000      -0.784846       -21.3568
  33   2.0000      -0.769824       -20.9480
  34   2.0000      -0.718672       -19.5561
  35   2.0000      -0.705160       -19.1884
  36   2.0000      -0.693749       -18.8779
  37   2.0000      -0.658430       -17.9168
  38   2.0000      -0.635894       -17.3036
  39   2.0000      -0.621295       -16.9063
  40   2.0000      -0.597565       -16.2606
  41   2.0000      -0.568516       -15.4701
  42   2.0000      -0.558992       -15.2109
  43   2.0000      -0.547084       -14.8869
  44   2.0000      -0.545767       -14.8511
  45   2.0000      -0.522530       -14.2188
  46   2.0000      -0.515464       -14.0265
  47   2.0000      -0.511882       -13.9290
  48   2.0000      -0.505831       -13.7644
  49   2.0000      -0.500387       -13.6162
  50   2.0000      -0.490105       -13.3364
  51   2.0000      -0.479686       -13.0529
  52   2.0000      -0.472168       -12.8483
  53   2.0000      -0.466134       -12.6842
  54   2.0000      -0.457134       -12.4393
  55   2.0000      -0.450913       -12.2700
  56   2.0000      -0.449456       -12.2303
  57   2.0000      -0.440686       -11.9917
  58   2.0000      -0.429205       -11.6793
  59   2.0000      -0.425858       -11.5882
  60   2.0000      -0.421118       -11.4592
  61   2.0000      -0.416473       -11.3328
  62   2.0000      -0.402838       -10.9618
  63   2.0000      -0.344455        -9.3731
  64   2.0000      -0.332478        -9.0472
  65   2.0000      -0.326648        -8.8885
  66   2.0000      -0.289889        -7.8883
  67   0.0000       0.024312         0.6616
  68   0.0000       0.068532         1.8649
  69   0.0000       0.104355         2.8396
  70   0.0000       0.114301         3.1103
  71   0.0000       0.128416         3.4944

MULLIKEN ATOMIC CHARGES
-----------------------
   0 S :    0.104933
   1 C :   -0.115302
   2 C :   -0.083483
   3 C :    0.017261
   4 C :   -0.132380
   5 H :    0.031728
   6 C :    0.005586
   7 H :    0.003458
   8 H :    0.047170
   9 C :   -0.110453
  10 H :    0.055070
  11 H :    0.040002
  12 C :   -0.057978
  13 H :    0.050425
  14 H :    0.043671
  15 H :    0.039127
  16 S :    0.112090
  17 C :   -0.045750
  18 C :   -0.064330
  19 C :    0.014988
  20 C :   -0.180915
  21 H :    0.018696
  22 C :    0.027967
  23 H :    0.038923
  24 H :    0.029969
  25 C :   -0.032738
  26 H :    0.019248
  27 H :    0.026982
  28 C :   -0.051021
  29 H :    0.025348
  30 H :    0.031295
  31 H :    0.016814
  32 H :    0.037543
  33 H :    0.036057
Sum of atomic charges:   -0.0000000

LOEWDIN ATOMIC CHARGES
----------------------
   0 S :    0.387339
   1 C :   -0.181527
   2 C :   -0.065711
   3 C :   -0.071210
   4 C :   -0.194637
   5 H :    0.031340
   6 C :   -0.050143
   7 H :    0.028391
   8 H :    0.035973
   9 C :   -0.046622
  10 H :    0.035741
  11 H :    0.025528
  12 C :   -0.072637
  13 H :    0.034322
  14 H :    0.034660
  15 H :    0.024313
  16 S :    0.388653
  17 C :   -0.174834
  18 C :   -0.070874
  19 C :   -0.039874
  20 C :   -0.186645
  21 H :    0.029207
  22 C :   -0.042256
  23 H :    0.045216
  24 H :    0.038865
  25 C :   -0.032786
  26 H :    0.019855
  27 H :    0.022998
  28 C :   -0.064565
  29 H :    0.025928
  30 H :    0.021734
  31 H :    0.017384
  32 H :    0.023189
  33 H :    0.023687

  Mayer bond orders larger than 0.100000
B(  0-S ,  1-C ) :   1.1068 B(  0-S ,  4-C ) :   1.1446 B(  1-C ,  2-C ) :   1.6416
B(  1-C , 32-H ) :   0.9712 B(  2-C ,  3-C ) :   1.2173 B(  2-C ,  6-C ) :   1.0377
B(  3-C ,  4-C ) :   1.5761 B(  3-C ,  5-H ) :   0.9765 B(  4-C , 20-C ) :   1.0777
B(  6-C ,  7-H ) :   0.9377 B(  6-C ,  8-H ) :   0.9441 B(  6-C ,  9-C ) :   1.0308
B(  9-C , 10-H ) :   0.9571 B(  9-C , 11-H ) :   0.9559 B(  9-C , 12-C ) :   1.0776
B( 12-C , 13-H ) :   0.9738 B( 12-C , 14-H ) :   0.9732 B( 12-C , 15-H ) :   0.9731
B( 16-S , 17-C ) :   1.1469 B( 16-S , 20-C ) :   1.1200 B( 17-C , 18-C ) :   1.6381
B( 17-C , 20-C ) :   0.1014 B( 17-C , 33-H ) :   0.9606 B( 18-C , 19-C ) :   1.2368
B( 18-C , 21-H ) :   0.9780 B( 19-C , 20-C ) :   1.5839 B( 19-C , 22-C ) :   1.0404
B( 22-C , 23-H ) :   0.9109 B( 22-C , 24-H ) :   0.9334 B( 22-C , 25-C ) :   1.0698
B( 25-C , 26-H ) :   0.9577 B( 25-C , 27-H ) :   0.9536 B( 25-C , 28-C ) :   1.0614
B( 28-C , 29-H ) :   0.9749 B( 28-C , 30-H ) :   0.9775 B( 28-C , 31-H ) :   0.9809

Dispersion correction           -0.013790098
FINAL SINGLE POINT ENERGY     -1339.857726831361

DIPOLE MOMENT
-------------
                                X             Y             Z
Electronic contribution:      3.38050      -5.53184     -29.04249
Nuclear contribution   :     -3.53597       5.64682      29.81427
                        -----------------------------------------
Total Dipole Moment    :     -0.15547       0.11498       0.77178
                        -----------------------------------------
Magnitude (a.u.)       :      0.79563
Magnitude (Debye)      :      2.02234

Rotational constants in cm-1:     0.017458     0.008338     0.006124
Rotational constants in MHz :   523.366982   249.978284   183.604996

                             ****ORCA TERMINATED NORMALLY****
TOTAL RUN TIME: 0 days 0 hours 0 minutes 32 seconds 707 msec
