                         Program Version 4.2.1 -  RELEASE  -
|  1> ! wB97X-D3 SP def2-SVP
|  2> %pal
|  3> nprocs 16
|  4> end
|  5>
|  6> * xyz 0 1
|  7> S 	 14.4967 	 10.5366 	 85.5024
|  8> C 	 15.2053 	 9.13316 	 84.7401
|  9> C 	 14.6435 	 8.01218 	 85.2894
| 10> C 	 13.7064 	 8.30523 	 86.332
| 11> C 	 13.4862 	 9.63465 	 86.6146
| 12> H 	 13.0947 	 7.56441 	 86.8016
| 13> C 	 15.1139 	 6.58774 	 84.9881
| 14> H 	 15.7087 	 6.46415 	 84.0976
| 15> H 	 14.1794 	 6.17403 	 84.7091
| 16> C 	 15.6361 	 5.62707 	 86.1517
| 17> H 	 16.6093 	 6.05726 	 86.5662
| 18> H 	 14.9336 	 5.55034 	 86.9743
| 19> C 	 15.9153 	 4.27539 	 85.5455
| 20> H 	 15.6693 	 3.55166 	 86.2637
| 21> H 	 15.2439 	 4.09938 	 84.731
| 22> H 	 16.8949 	 4.10362 	 85.1113
| 23> S 	 11.5707 	 11.5763 	 86.905
| 24> C 	 10.5154 	 11.5429 	 88.2725
| 25> C 	 10.9173 	 10.5925 	 89.1337
| 26> C 	 11.9885 	 9.70724 	 88.7016
| 27> C 	 12.5349 	 10.2187 	 87.5296
| 28> H 	 10.2741 	 10.4894 	 89.9851
| 29> C 	 12.4512 	 8.53844 	 89.5774
| 30> H 	 12.4553 	 7.69774 	 88.8947
| 31> H 	 11.6883 	 8.42833 	 90.333
| 32> C 	 13.8208 	 8.8429 	 90.2012
| 33> H 	 13.8586 	 9.88293 	 90.5998
| 34> H 	 14.5038 	 8.94969 	 89.401
| 35> C 	 14.3569 	 7.87221 	 91.203
| 36> H 	 15.497 	 7.82742 	 91.1538
| 37> H 	 14.0239 	 6.85519 	 91.0131
| 38> H 	 14.0784 	 8.30168 	 92.2058
| 39> H 	 15.9284 	 9.15594 	 83.9231
| 40> H 	 9.69203 	 12.2518 	 88.4322
| 41> *
| 42>
| 43>                          ****END OF INPUT****

CARTESIAN COORDINATES (ANGSTROEM)
---------------------------------
  S     14.496700   10.536600   85.502400
  C     15.205300    9.133160   84.740100
  C     14.643500    8.012180   85.289400
  C     13.706400    8.305230   86.332000
  C     13.486200    9.634650   86.614600
  H     13.094700    7.564410   86.801600
  C     15.113900    6.587740   84.988100
  H     15.708700    6.464150   84.097600
  H     14.179400    6.174030   84.709100
  C     15.636100    5.627070   86.151700
  H     16.609300    6.057260   86.566200
  H     14.933600    5.550340   86.974300
  C     15.915300    4.275390   85.545500
  H     15.669300    3.551660   86.263700
  H     15.243900    4.099380   84.731000
  H     16.894900    4.103620   85.111300
  S     11.570700   11.576300   86.905000
  C     10.515400   11.542900   88.272500
  C     10.917300   10.592500   89.133700
  C     11.988500    9.707240   88.701600
  C     12.534900   10.218700   87.529600
  H     10.274100   10.489400   89.985100
  C     12.451200    8.538440   89.577400
  H     12.455300    7.697740   88.894700
  H     11.688300    8.428330   90.333000
  C     13.820800    8.842900   90.201200
  H     13.858600    9.882930   90.599800
  H     14.503800    8.949690   89.401000
  C     14.356900    7.872210   91.203000
  H     15.497000    7.827420   91.153800
  H     14.023900    6.855190   91.013100
  H     14.078400    8.301680   92.205800
  H     15.928400    9.155940   83.923100
  H      9.692030   12.251800   88.432200

 Total Charge           Charge          ....    0
 Multiplicity           Mult            ....    1
 Number of Electrons    NEL             ....  134
 Basis Dimension        Dim             ....  322

ORBITAL ENERGIES
----------------

  NO   OCC          E(Eh)            E(eV)
   0   2.0000     -88.962139     -2420.7829
   1   2.0000     -88.960589     -2420.7407
   2   2.0000     -10.330533      -281.1081
   3   2.0000     -10.330199      -281.0990
   4   2.0000     -10.314888      -280.6824
   5   2.0000     -10.313393      -280.6417
   6   2.0000     -10.309822      -280.5445
   7   2.0000     -10.300450      -280.2895
   8   2.0000     -10.296658      -280.1863
   9   2.0000     -10.295903      -280.1658
  10   2.0000     -10.291134      -280.0360
  11   2.0000     -10.290501      -280.0188
  12   2.0000     -10.289796      -279.9996
  13   2.0000     -10.283658      -279.8326
  14   2.0000     -10.279292      -279.7137
  15   2.0000     -10.270853      -279.4841
  16   2.0000      -8.077252      -219.7932
  17   2.0000      -8.075513      -219.7459
  18   2.0000      -6.035857      -164.2440
  19   2.0000      -6.034166      -164.1980
  20   2.0000      -6.031664      -164.1299
  21   2.0000      -6.029804      -164.0793
  22   2.0000      -6.027909      -164.0277
  23   2.0000      -6.026283      -163.9835
  24   2.0000      -1.008448       -27.4413
  25   2.0000      -0.986188       -26.8355
  26   2.0000      -0.913128       -24.8475
  27   2.0000      -0.909216       -24.7410
  28   2.0000      -0.876549       -23.8521
  29   2.0000      -0.853539       -23.2260
  30   2.0000      -0.844645       -22.9840
  31   2.0000      -0.818061       -22.2606
  32   2.0000      -0.783685       -21.3252
  33   2.0000      -0.773014       -21.0348
  34   2.0000      -0.711117       -19.3505
  35   2.0000      -0.701296       -19.0832
  36   2.0000      -0.692211       -18.8360
  37   2.0000      -0.662344       -18.0233
  38   2.0000      -0.639233       -17.3944
  39   2.0000      -0.623692       -16.9715
  40   2.0000      -0.594289       -16.1714
  41   2.0000      -0.569931       -15.5086
  42   2.0000      -0.565034       -15.3754
  43   2.0000      -0.562507       -15.3066
  44   2.0000      -0.531697       -14.4682
  45   2.0000      -0.526167       -14.3177
  46   2.0000      -0.517694       -14.0872
  47   2.0000      -0.510120       -13.8811
  48   2.0000      -0.508573       -13.8390
  49   2.0000      -0.506161       -13.7733
  50   2.0000      -0.497549       -13.5390
  51   2.0000      -0.484603       -13.1867
  52   2.0000      -0.477485       -12.9930
  53   2.0000      -0.469225       -12.7683
  54   2.0000      -0.455911       -12.4060
  55   2.0000      -0.450509       -12.2590
  56   2.0000      -0.443952       -12.0805
  57   2.0000      -0.436595       -11.8803
  58   2.0000      -0.433607       -11.7991
  59   2.0000      -0.421897       -11.4804
  60   2.0000      -0.421051       -11.4574
  61   2.0000      -0.408797       -11.1239
  62   2.0000      -0.404288       -11.0012
  63   2.0000      -0.358785        -9.7630
  64   2.0000      -0.330036        -8.9807
  65   2.0000      -0.323879        -8.8132
  66   2.0000      -0.290412        -7.9025
  67   0.0000       0.026251         0.7143
  68   0.0000       0.081242         2.2107
  69   0.0000       0.115985         3.1561
  70   0.0000       0.123897         3.3714
  71   0.0000       0.130196         3.5428

MULLIKEN ATOMIC CHARGES
-----------------------
   0 S :    0.086335
   1 C :   -0.124873
   2 C :   -0.063581
   3 C :   -0.001575
   4 C :   -0.118922
   5 H :   -0.001200
   6 C :    0.049140
   7 H :    0.016370
   8 H :    0.018175
   9 C :   -0.079673
  10 H :    0.045701
  11 H :    0.027803
  12 C :   -0.012679
  13 H :    0.019958
  14 H :    0.010013
  15 H :    0.038708
  16 S :    0.093191
  17 C :   -0.096476
  18 C :   -0.027539
  19 C :   -0.088085
  20 C :   -0.128411
  21 H :    0.009113
  22 C :    0.130698
  23 H :    0.022618
  24 H :    0.013749
  25 C :   -0.083314
  26 H :    0.032470
  27 H :    0.019208
  28 C :   -0.047032
  29 H :    0.041500
  30 H :    0.032011
  31 H :    0.045916
  32 H :    0.053686
  33 H :    0.066996
Sum of atomic charges:    0.0000000

LOEWDIN ATOMIC CHARGES
----------------------
   0 S :    0.396017
   1 C :   -0.196692
   2 C :   -0.066383
   3 C :   -0.069991
   4 C :   -0.190119
   5 H :    0.022524
   6 C :   -0.034120
   7 H :    0.026938
   8 H :    0.027762
   9 C :   -0.035072
  10 H :    0.031813
  11 H :    0.020565
  12 C :   -0.062788
  13 H :    0.022805
  14 H :    0.021401
  15 H :    0.028448
  16 S :    0.398055
  17 C :   -0.189133
  18 C :   -0.078371
  19 C :   -0.043789
  20 C :   -0.189518
  21 H :    0.027520
  22 C :   -0.019477
  23 H :    0.028087
  24 H :    0.027415
  25 C :   -0.050192
  26 H :    0.032178
  27 H :    0.019990
  28 C :   -0.072029
  29 H :    0.036568
  30 H :    0.023306
  31 H :    0.033748
  32 H :    0.034518
  33 H :    0.038017

  Mayer bond orders larger than 0.100000
B(  0-S ,  1-C ) :   1.1301 B(  0-S ,  4-C ) :   1.1432 B(  1-C ,  2-C ) :   1.6050
B(  1-C , 32-H ) :   0.9721 B(  2-C ,  3-C ) :   1.2512 B(  2-C ,  6-C ) :   1.0134
B(  3-C ,  4-C ) :   1.5650 B(  3-C ,  5-H ) :   0.9936 B(  4-C , 20-C ) :   1.0632
B(  6-C ,  7-H ) :   0.9536 B(  6-C ,  8-H ) :   0.9259 B(  6-C ,  9-C ) :   1.0609
B(  9-C , 10-H ) :   0.9592 B(  9-C , 11-H ) :   0.9567 B(  9-C , 12-C ) :   1.0741
B( 12-C , 13-H ) :   0.9716 B( 12-C , 14-H ) :   0.9732 B( 12-C , 15-H ) :   0.9749
B( 16-S , 17-C ) :   1.1439 B( 16-S , 20-C ) :   1.1349 B( 17-C , 18-C ) :   1.6470
B( 17-C , 33-H ) :   0.9621 B( 18-C , 19-C ) :   1.2151 B( 18-C , 21-H ) :   0.9868
B( 19-C , 20-C ) :   1.5965 B( 19-C , 22-C ) :   1.0363 B( 22-C , 23-H ) :   0.9222
B( 22-C , 24-H ) :   0.9302 B( 22-C , 25-C ) :   1.0690 B( 25-C , 26-H ) :   0.9557
B( 25-C , 27-H ) :   0.9518 B( 25-C , 28-C ) :   1.0794 B( 28-C , 29-H ) :   0.9737
B( 28-C , 30-H ) :   0.9731 B( 28-C , 31-H ) :   0.9784

Dispersion correction           -0.013947164
FINAL SINGLE POINT ENERGY     -1339.871716864602

DIPOLE MOMENT
-------------
                                X             Y             Z
Electronic contribution:    -10.93371      27.42018     -11.34578
Nuclear contribution   :     10.85889     -28.13183      11.63544
                        -----------------------------------------
Total Dipole Moment    :     -0.07483      -0.71165       0.28966
                        -----------------------------------------
Magnitude (a.u.)       :      0.77197
Magnitude (Debye)      :      1.96220

Rotational constants in cm-1:     0.017568     0.009051     0.006663
Rotational constants in MHz :   526.676137   271.348442   199.749893

                             ****ORCA TERMINATED NORMALLY****
TOTAL RUN TIME: 0 days 0 hours 0 minutes 34 seconds 716 msec
