                         Program Version 4.2.1 -  RELEASE  -
|  1> ! wB97X-D3 SP def2-SVP
|  2> %pal
|  3> nprocs 16
|  4> end
|  5>
|  6> * xyz 0 1
|  7> S 	 48.6868 	 21.5304 	 88.9492
|  8> C 	 47.4554 	 21.9254 	 90.2125
|  9> C 	 47.6076 	 23.2017 	 90.652
| 10> C 	 48.4009 	 23.9868 	 89.7268
| 11> C 	 49.0222 	 23.2328 	 88.745
| 12> H 	 48.5738 	 25.0439 	 89.6881
| 13> C 	 46.9006 	 23.8537 	 91.7989
| 14> H 	 46.2407 	 23.1788 	 92.2584
| 15> H 	 46.3062 	 24.6462 	 91.3666
| 16> C 	 47.7247 	 24.5172 	 92.8543
| 17> H 	 47.0916 	 24.6092 	 93.6825
| 18> H 	 48.5513 	 23.7981 	 93.1302
| 19> C 	 48.266 	 25.9467 	 92.4556
| 20> H 	 49.0707 	 25.8116 	 91.7247
| 21> H 	 47.519 	 26.4715 	 91.8639
| 22> H 	 48.6773 	 26.4893 	 93.279
| 23> S 	 48.9524 	 23.7382 	 86.1213
| 24> C 	 50.229 	 24.5351 	 85.3541
| 25> C 	 51.2567 	 24.8103 	 86.2027
| 26> C 	 51.0095 	 24.332 	 87.567
| 27> C 	 49.7511 	 23.7783 	 87.6395
| 28> H 	 52.2324 	 25.1799 	 85.9135
| 29> C 	 52.0313 	 24.6003 	 88.6456
| 30> H 	 51.4162 	 24.3939 	 89.5515
| 31> H 	 52.4105 	 25.6639 	 88.6441
| 32> C 	 53.3581 	 23.8348 	 88.5264
| 33> H 	 53.944 	 24.315 	 87.7432
| 34> H 	 53.2714 	 22.831 	 88.1785
| 35> C 	 54.086 	 24.0194 	 89.8624
| 36> H 	 55.0492 	 23.5651 	 89.9223
| 37> H 	 53.4709 	 23.5418 	 90.5958
| 38> H 	 54.1162 	 25.0805 	 90.0817
| 39> H 	 46.7664 	 21.2037 	 90.695
| 40> H 	 50.1954 	 24.6026 	 84.318
| 41> *
| 42>
| 43>                          ****END OF INPUT****

CARTESIAN COORDINATES (ANGSTROEM)
---------------------------------
  S     48.686800   21.530400   88.949200
  C     47.455400   21.925400   90.212500
  C     47.607600   23.201700   90.652000
  C     48.400900   23.986800   89.726800
  C     49.022200   23.232800   88.745000
  H     48.573800   25.043900   89.688100
  C     46.900600   23.853700   91.798900
  H     46.240700   23.178800   92.258400
  H     46.306200   24.646200   91.366600
  C     47.724700   24.517200   92.854300
  H     47.091600   24.609200   93.682500
  H     48.551300   23.798100   93.130200
  C     48.266000   25.946700   92.455600
  H     49.070700   25.811600   91.724700
  H     47.519000   26.471500   91.863900
  H     48.677300   26.489300   93.279000
  S     48.952400   23.738200   86.121300
  C     50.229000   24.535100   85.354100
  C     51.256700   24.810300   86.202700
  C     51.009500   24.332000   87.567000
  C     49.751100   23.778300   87.639500
  H     52.232400   25.179900   85.913500
  C     52.031300   24.600300   88.645600
  H     51.416200   24.393900   89.551500
  H     52.410500   25.663900   88.644100
  C     53.358100   23.834800   88.526400
  H     53.944000   24.315000   87.743200
  H     53.271400   22.831000   88.178500
  C     54.086000   24.019400   89.862400
  H     55.049200   23.565100   89.922300
  H     53.470900   23.541800   90.595800
  H     54.116200   25.080500   90.081700
  H     46.766400   21.203700   90.695000
  H     50.195400   24.602600   84.318000

 Total Charge           Charge          ....    0
 Multiplicity           Mult            ....    1
 Number of Electrons    NEL             ....  134
 Basis Dimension        Dim             ....  322

ORBITAL ENERGIES
----------------

  NO   OCC          E(Eh)            E(eV)
   0   2.0000     -88.963025     -2420.8070
   1   2.0000     -88.959577     -2420.7131
   2   2.0000     -10.323605      -280.9196
   3   2.0000     -10.317874      -280.7636
   4   2.0000     -10.317366      -280.7498
   5   2.0000     -10.306915      -280.4654
   6   2.0000     -10.301862      -280.3279
   7   2.0000     -10.300192      -280.2825
   8   2.0000     -10.296118      -280.1716
   9   2.0000     -10.292202      -280.0650
  10   2.0000     -10.290401      -280.0160
  11   2.0000     -10.286520      -279.9104
  12   2.0000     -10.282978      -279.8140
  13   2.0000     -10.282827      -279.8099
  14   2.0000     -10.280368      -279.7430
  15   2.0000     -10.271805      -279.5100
  16   2.0000      -8.077164      -219.7908
  17   2.0000      -8.076746      -219.7794
  18   2.0000      -6.035780      -164.2419
  19   2.0000      -6.035128      -164.2242
  20   2.0000      -6.032008      -164.1393
  21   2.0000      -6.030865      -164.1082
  22   2.0000      -6.027571      -164.0186
  23   2.0000      -6.027527      -164.0174
  24   2.0000      -1.012208       -27.5436
  25   2.0000      -0.984391       -26.7867
  26   2.0000      -0.918528       -24.9944
  27   2.0000      -0.913594       -24.8602
  28   2.0000      -0.873075       -23.7576
  29   2.0000      -0.853121       -23.2146
  30   2.0000      -0.839325       -22.8392
  31   2.0000      -0.813792       -22.1444
  32   2.0000      -0.786559       -21.4034
  33   2.0000      -0.773170       -21.0390
  34   2.0000      -0.708356       -19.2754
  35   2.0000      -0.703110       -19.1326
  36   2.0000      -0.697677       -18.9848
  37   2.0000      -0.663944       -18.0668
  38   2.0000      -0.640943       -17.4410
  39   2.0000      -0.615072       -16.7369
  40   2.0000      -0.603169       -16.4131
  41   2.0000      -0.574833       -15.6420
  42   2.0000      -0.570252       -15.5173
  43   2.0000      -0.551505       -15.0072
  44   2.0000      -0.539101       -14.6697
  45   2.0000      -0.531320       -14.4580
  46   2.0000      -0.516920       -14.0661
  47   2.0000      -0.514550       -14.0016
  48   2.0000      -0.505935       -13.7672
  49   2.0000      -0.494379       -13.4527
  50   2.0000      -0.489782       -13.3277
  51   2.0000      -0.482050       -13.1172
  52   2.0000      -0.474990       -12.9251
  53   2.0000      -0.462501       -12.5853
  54   2.0000      -0.459482       -12.5032
  55   2.0000      -0.447898       -12.1879
  56   2.0000      -0.443952       -12.0806
  57   2.0000      -0.441980       -12.0269
  58   2.0000      -0.431072       -11.7301
  59   2.0000      -0.427851       -11.6424
  60   2.0000      -0.424749       -11.5580
  61   2.0000      -0.419039       -11.4026
  62   2.0000      -0.411657       -11.2018
  63   2.0000      -0.334225        -9.0947
  64   2.0000      -0.326078        -8.8730
  65   2.0000      -0.322116        -8.7652
  66   2.0000      -0.308821        -8.4034
  67   0.0000       0.041255         1.1226
  68   0.0000       0.068914         1.8752
  69   0.0000       0.107470         2.9244
  70   0.0000       0.117181         3.1887
  71   0.0000       0.132099         3.5946

MULLIKEN ATOMIC CHARGES
-----------------------
   0 S :    0.105178
   1 C :   -0.152957
   2 C :   -0.052114
   3 C :    0.040830
   4 C :   -0.178390
   5 H :    0.008042
   6 C :    0.092660
   7 H :   -0.002142
   8 H :    0.024366
   9 C :   -0.068204
  10 H :    0.020212
  11 H :    0.038390
  12 C :   -0.043888
  13 H :    0.027711
  14 H :    0.025634
  15 H :    0.041007
  16 S :    0.122169
  17 C :   -0.060891
  18 C :   -0.020825
  19 C :   -0.008413
  20 C :   -0.203746
  21 H :    0.014202
  22 C :    0.012040
  23 H :    0.034098
  24 H :    0.041120
  25 C :   -0.074105
  26 H :    0.021882
  27 H :    0.028395
  28 C :   -0.001207
  29 H :    0.030324
  30 H :    0.023494
  31 H :    0.021469
  32 H :    0.057420
  33 H :    0.036240
Sum of atomic charges:   -0.0000000

LOEWDIN ATOMIC CHARGES
----------------------
   0 S :    0.372877
   1 C :   -0.182015
   2 C :   -0.059121
   3 C :   -0.057387
   4 C :   -0.198774
   5 H :    0.028413
   6 C :   -0.029985
   7 H :    0.022723
   8 H :    0.032369
   9 C :   -0.033606
  10 H :    0.017498
  11 H :    0.031758
  12 C :   -0.064260
  13 H :    0.024782
  14 H :    0.023716
  15 H :    0.025178
  16 S :    0.446265
  17 C :   -0.187974
  18 C :   -0.070918
  19 C :   -0.050891
  20 C :   -0.221536
  21 H :    0.027334
  22 C :   -0.038022
  23 H :    0.032575
  24 H :    0.040752
  25 C :   -0.036191
  26 H :    0.020442
  27 H :    0.018752
  28 C :   -0.054425
  29 H :    0.021360
  30 H :    0.023842
  31 H :    0.024722
  32 H :    0.035091
  33 H :    0.014656

  Mayer bond orders larger than 0.100000
B(  0-S ,  1-C ) :   1.1079 B(  0-S ,  4-C ) :   1.1338 B(  1-C ,  2-C ) :   1.6606
B(  1-C , 32-H ) :   0.9622 B(  2-C ,  3-C ) :   1.1664 B(  2-C ,  6-C ) :   1.0424
B(  3-C ,  4-C ) :   1.6265 B(  3-C ,  5-H ) :   0.9889 B(  4-C , 20-C ) :   1.0232
B(  6-C ,  7-H ) :   0.9312 B(  6-C ,  8-H ) :   0.9335 B(  6-C ,  9-C ) :   1.0771
B(  9-C , 10-H ) :   0.9556 B(  9-C , 11-H ) :   0.9536 B(  9-C , 12-C ) :   1.0709
B( 12-C , 13-H ) :   0.9715 B( 12-C , 14-H ) :   0.9747 B( 12-C , 15-H ) :   0.9724
B( 16-S , 17-C ) :   1.1720 B( 16-S , 20-C ) :   1.1578 B( 17-C , 18-C ) :   1.5950
B( 17-C , 33-H ) :   0.9786 B( 18-C , 19-C ) :   1.2264 B( 18-C , 21-H ) :   0.9912
B( 19-C , 20-C ) :   1.6123 B( 19-C , 22-C ) :   1.0464 B( 22-C , 23-H ) :   0.9389
B( 22-C , 24-H ) :   0.9368 B( 22-C , 25-C ) :   1.0464 B( 25-C , 26-H ) :   0.9517
B( 25-C , 27-H ) :   0.9609 B( 25-C , 28-C ) :   1.0834 B( 28-C , 29-H ) :   0.9732
B( 28-C , 30-H ) :   0.9779 B( 28-C , 31-H ) :   0.9674

Dispersion correction           -0.014206839
FINAL SINGLE POINT ENERGY     -1339.871855442481

DIPOLE MOMENT
-------------
                                X             Y             Z
Electronic contribution:    -11.59124     -12.47625     -20.56831
Nuclear contribution   :     11.76439      12.83465      20.93504
                        -----------------------------------------
Total Dipole Moment    :      0.17315       0.35839       0.36673
                        -----------------------------------------
Magnitude (a.u.)       :      0.54122
Magnitude (Debye)      :      1.37567

Rotational constants in cm-1:     0.016342     0.009341     0.007458
Rotational constants in MHz :   489.928172   280.025294   223.591028

                             ****ORCA TERMINATED NORMALLY****
TOTAL RUN TIME: 0 days 0 hours 0 minutes 30 seconds 440 msec
