                         Program Version 4.2.1 -  RELEASE  -
|  1> ! wB97X-D3 SP def2-SVP
|  2> %pal
|  3> nprocs 16
|  4> end
|  5>
|  6> * xyz 0 1
|  7> S 	 -78.4287 	 38.4623 	 138.735
|  8> C 	 -77.639 	 36.9065 	 138.6
|  9> C 	 -77.9227 	 36.2759 	 137.415
| 10> C 	 -78.7788 	 37.1031 	 136.587
| 11> C 	 -78.9908 	 38.3802 	 137.053
| 12> H 	 -79.2361 	 36.8755 	 135.587
| 13> C 	 -77.3848 	 34.8655 	 137.125
| 14> H 	 -78.1752 	 34.2551 	 136.732
| 15> H 	 -77.1719 	 34.456 	 138.141
| 16> C 	 -76.1419 	 34.8724 	 136.161
| 17> H 	 -75.4103 	 35.5794 	 136.634
| 18> H 	 -75.5742 	 33.9793 	 136.183
| 19> C 	 -76.43 	 35.3695 	 134.802
| 20> H 	 -77.3827 	 35.0925 	 134.439
| 21> H 	 -76.2938 	 36.4236 	 134.72
| 22> H 	 -75.7904 	 34.9905 	 133.977
| 23> S 	 -80.9588 	 40.2328 	 137.525
| 24> C 	 -81.4441 	 41.2482 	 136.276
| 25> C 	 -80.995 	 40.8437 	 134.999
| 26> C 	 -79.9684 	 39.8527 	 135.108
| 27> C 	 -79.8541 	 39.3978 	 136.449
| 28> H 	 -81.3694 	 41.3366 	 134.108
| 29> C 	 -79.2035 	 39.4241 	 133.921
| 30> H 	 -78.4427 	 38.7743 	 134.274
| 31> H 	 -78.7906 	 40.2626 	 133.477
| 32> C 	 -79.9703 	 38.6075 	 132.902
| 33> H 	 -80.6426 	 39.3585 	 132.408
| 34> H 	 -80.6443 	 37.9192 	 133.487
| 35> C 	 -79.1349 	 37.8175 	 131.842
| 36> H 	 -79.7174 	 37.153 	 131.273
| 37> H 	 -78.4191 	 37.1608 	 132.315
| 38> H 	 -78.5896 	 38.2982 	 131.088
| 39> H 	 -76.9532 	 36.5718 	 139.353
| 40> H 	 -82.2553 	 41.991 	 136.446
| 41> *
| 42>
| 43>                          ****END OF INPUT****

CARTESIAN COORDINATES (ANGSTROEM)
---------------------------------
  S    -78.428700   38.462300  138.735000
  C    -77.639000   36.906500  138.600000
  C    -77.922700   36.275900  137.415000
  C    -78.778800   37.103100  136.587000
  C    -78.990800   38.380200  137.053000
  H    -79.236100   36.875500  135.587000
  C    -77.384800   34.865500  137.125000
  H    -78.175200   34.255100  136.732000
  H    -77.171900   34.456000  138.141000
  C    -76.141900   34.872400  136.161000
  H    -75.410300   35.579400  136.634000
  H    -75.574200   33.979300  136.183000
  C    -76.430000   35.369500  134.802000
  H    -77.382700   35.092500  134.439000
  H    -76.293800   36.423600  134.720000
  H    -75.790400   34.990500  133.977000
  S    -80.958800   40.232800  137.525000
  C    -81.444100   41.248200  136.276000
  C    -80.995000   40.843700  134.999000
  C    -79.968400   39.852700  135.108000
  C    -79.854100   39.397800  136.449000
  H    -81.369400   41.336600  134.108000
  C    -79.203500   39.424100  133.921000
  H    -78.442700   38.774300  134.274000
  H    -78.790600   40.262600  133.477000
  C    -79.970300   38.607500  132.902000
  H    -80.642600   39.358500  132.408000
  H    -80.644300   37.919200  133.487000
  C    -79.134900   37.817500  131.842000
  H    -79.717400   37.153000  131.273000
  H    -78.419100   37.160800  132.315000
  H    -78.589600   38.298200  131.088000
  H    -76.953200   36.571800  139.353000
  H    -82.255300   41.991000  136.446000

 Total Charge           Charge          ....    0
 Multiplicity           Mult            ....    1
 Number of Electrons    NEL             ....  134
 Basis Dimension        Dim             ....  322

ORBITAL ENERGIES
----------------

  NO   OCC          E(Eh)            E(eV)
   0   2.0000     -88.968351     -2420.9519
   1   2.0000     -88.962019     -2420.7796
   2   2.0000     -10.329479      -281.0794
   3   2.0000     -10.328863      -281.0626
   4   2.0000     -10.316968      -280.7390
   5   2.0000     -10.312494      -280.6172
   6   2.0000     -10.305611      -280.4299
   7   2.0000     -10.304609      -280.4027
   8   2.0000     -10.298943      -280.2485
   9   2.0000     -10.298912      -280.2476
  10   2.0000     -10.297452      -280.2079
  11   2.0000     -10.296058      -280.1700
  12   2.0000     -10.286041      -279.8974
  13   2.0000     -10.277713      -279.6708
  14   2.0000     -10.274456      -279.5822
  15   2.0000     -10.270511      -279.4748
  16   2.0000      -8.084237      -219.9833
  17   2.0000      -8.076706      -219.7783
  18   2.0000      -6.042432      -164.4229
  19   2.0000      -6.038608      -164.3189
  20   2.0000      -6.035267      -164.2280
  21   2.0000      -6.035235      -164.2271
  22   2.0000      -6.031372      -164.1220
  23   2.0000      -6.027267      -164.0103
  24   2.0000      -1.006854       -27.3979
  25   2.0000      -0.984319       -26.7847
  26   2.0000      -0.918017       -24.9805
  27   2.0000      -0.910677       -24.7808
  28   2.0000      -0.869136       -23.6504
  29   2.0000      -0.855053       -23.2672
  30   2.0000      -0.842284       -22.9197
  31   2.0000      -0.814513       -22.1640
  32   2.0000      -0.792443       -21.5635
  33   2.0000      -0.772639       -21.0246
  34   2.0000      -0.709957       -19.3189
  35   2.0000      -0.704918       -19.1818
  36   2.0000      -0.692092       -18.8328
  37   2.0000      -0.661774       -18.0078
  38   2.0000      -0.640167       -17.4198
  39   2.0000      -0.613782       -16.7019
  40   2.0000      -0.596500       -16.2316
  41   2.0000      -0.573643       -15.6096
  42   2.0000      -0.570629       -15.5276
  43   2.0000      -0.549504       -14.9528
  44   2.0000      -0.538627       -14.6568
  45   2.0000      -0.521066       -14.1789
  46   2.0000      -0.516502       -14.0547
  47   2.0000      -0.512565       -13.9476
  48   2.0000      -0.507209       -13.8018
  49   2.0000      -0.502317       -13.6687
  50   2.0000      -0.494755       -13.4630
  51   2.0000      -0.482498       -13.1294
  52   2.0000      -0.474285       -12.9059
  53   2.0000      -0.463257       -12.6059
  54   2.0000      -0.460308       -12.5256
  55   2.0000      -0.454222       -12.3600
  56   2.0000      -0.443000       -12.0547
  57   2.0000      -0.440424       -11.9845
  58   2.0000      -0.431618       -11.7449
  59   2.0000      -0.428097       -11.6491
  60   2.0000      -0.424981       -11.5643
  61   2.0000      -0.416084       -11.3222
  62   2.0000      -0.410222       -11.1627
  63   2.0000      -0.352171        -9.5830
  64   2.0000      -0.332327        -9.0431
  65   2.0000      -0.327705        -8.9173
  66   2.0000      -0.284997        -7.7552
  67   0.0000       0.026133         0.7111
  68   0.0000       0.074910         2.0384
  69   0.0000       0.103030         2.8036
  70   0.0000       0.122341         3.3291
  71   0.0000       0.129140         3.5141

MULLIKEN ATOMIC CHARGES
-----------------------
   0 S :    0.088251
   1 C :   -0.122043
   2 C :   -0.086278
   3 C :    0.005807
   4 C :   -0.141100
   5 H :    0.026696
   6 C :    0.059944
   7 H :    0.031217
   8 H :    0.026723
   9 C :   -0.041531
  10 H :    0.023472
  11 H :    0.022813
  12 C :   -0.035552
  13 H :    0.014057
  14 H :    0.038399
  15 H :    0.025635
  16 S :    0.127763
  17 C :   -0.112277
  18 C :   -0.043540
  19 C :   -0.070689
  20 C :   -0.155959
  21 H :    0.024531
  22 C :    0.154759
  23 H :   -0.003900
  24 H :    0.015263
  25 C :   -0.120817
  26 H :    0.030553
  27 H :    0.040651
  28 C :    0.007212
  29 H :    0.014730
  30 H :    0.015789
  31 H :    0.018597
  32 H :    0.049680
  33 H :    0.071147
Sum of atomic charges:    0.0000000

LOEWDIN ATOMIC CHARGES
----------------------
   0 S :    0.380584
   1 C :   -0.187463
   2 C :   -0.063929
   3 C :   -0.069225
   4 C :   -0.187930
   5 H :    0.037309
   6 C :   -0.024232
   7 H :    0.025919
   8 H :    0.035096
   9 C :   -0.042888
  10 H :    0.031709
  11 H :    0.018886
  12 C :   -0.069195
  13 H :    0.015958
  14 H :    0.026043
  15 H :    0.033888
  16 S :    0.440059
  17 C :   -0.211796
  18 C :   -0.072053
  19 C :   -0.047521
  20 C :   -0.201380
  21 H :    0.031726
  22 C :   -0.030280
  23 H :    0.023425
  24 H :    0.024650
  25 C :   -0.036647
  26 H :    0.024699
  27 H :    0.029706
  28 C :   -0.063569
  29 H :    0.024110
  30 H :    0.025077
  31 H :    0.020755
  32 H :    0.025363
  33 H :    0.033144

  Mayer bond orders larger than 0.100000
B(  0-S ,  1-C ) :   1.1349 B(  0-S ,  4-C ) :   1.1327 B(  1-C ,  2-C ) :   1.6319
B(  1-C , 32-H ) :   0.9674 B(  2-C ,  3-C ) :   1.2159 B(  2-C ,  6-C ) :   1.0137
B(  3-C ,  4-C ) :   1.5911 B(  3-C ,  5-H ) :   0.9817 B(  4-C , 20-C ) :   1.0575
B(  6-C ,  7-H ) :   0.9471 B(  6-C ,  8-H ) :   0.9449 B(  6-C ,  9-C ) :   1.0586
B(  9-C , 10-H ) :   0.9549 B(  9-C , 11-H ) :   0.9607 B(  9-C , 12-C ) :   1.0768
B( 12-C , 13-H ) :   0.9747 B( 12-C , 14-H ) :   0.9732 B( 12-C , 15-H ) :   0.9662
B( 16-S , 17-C ) :   1.1933 B( 16-S , 20-C ) :   1.1557 B( 17-C , 18-C ) :   1.5707
B( 17-C , 33-H ) :   0.9615 B( 18-C , 19-C ) :   1.2554 B( 18-C , 21-H ) :   0.9917
B( 19-C , 20-C ) :   1.5543 B( 19-C , 22-C ) :   1.0687 B( 22-C , 23-H ) :   0.9177
B( 22-C , 24-H ) :   0.9190 B( 22-C , 25-C ) :   1.0576 B( 25-C , 26-H ) :   0.9538
B( 25-C , 27-H ) :   0.9564 B( 25-C , 28-C ) :   1.0766 B( 28-C , 29-H ) :   0.9714
B( 28-C , 30-H ) :   0.9721 B( 28-C , 31-H ) :   0.9745

Dispersion correction           -0.015086969
FINAL SINGLE POINT ENERGY     -1339.871616316026

DIPOLE MOMENT
-------------
                                X             Y             Z
Electronic contribution:    -10.87420      16.46119      25.17986
Nuclear contribution   :     10.99856     -16.81917     -25.79120
                        -----------------------------------------
Total Dipole Moment    :      0.12436      -0.35798      -0.61133
                        -----------------------------------------
Magnitude (a.u.)       :      0.71927
Magnitude (Debye)      :      1.82823

Rotational constants in cm-1:     0.016592     0.010688     0.006770
Rotational constants in MHz :   497.406200   320.403559   202.972012

                             ****ORCA TERMINATED NORMALLY****
TOTAL RUN TIME: 0 days 0 hours 0 minutes 35 seconds 839 msec
