                         Program Version 4.2.1 -  RELEASE  -
|  1> ! wB97X-D3 SP def2-SVP
|  2> %pal
|  3> nprocs 16
|  4> end
|  5>
|  6> * xyz 0 1
|  7> S 	 8.41777 	 23.3396 	 67.8155
|  8> C 	 9.31597 	 22.3697 	 66.6917
|  9> C 	 9.93573 	 23.1304 	 65.6901
| 10> C 	 9.76792 	 24.5183 	 65.9188
| 11> C 	 8.94777 	 24.8313 	 66.9936
| 12> H 	 10.0731 	 25.1861 	 65.2344
| 13> C 	 10.7934 	 22.6079 	 64.6066
| 14> H 	 11.5179 	 21.9001 	 65.0787
| 15> H 	 11.4776 	 23.3162 	 64.1424
| 16> C 	 9.9867 	 21.8159 	 63.5382
| 17> H 	 10.6597 	 21.4327 	 62.8755
| 18> H 	 9.53231 	 20.9952 	 64.1142
| 19> C 	 8.82568 	 22.5365 	 62.7366
| 20> H 	 8.36355 	 21.7524 	 62.1632
| 21> H 	 8.02673 	 23.0631 	 63.2997
| 22> H 	 9.23401 	 23.322 	 62.1217
| 23> S 	 7.11408 	 26.2035 	 68.192
| 24> C 	 7.31952 	 27.9161 	 68.5143
| 25> C 	 8.56877 	 28.3603 	 68.1721
| 26> C 	 9.34795 	 27.3872 	 67.4474
| 27> C 	 8.63133 	 26.1509 	 67.4251
| 28> H 	 8.85358 	 29.4382 	 68.2427
| 29> C 	 10.7154 	 27.5944 	 66.905
| 30> H 	 10.7384 	 28.5127 	 66.391
| 31> H 	 11.0106 	 26.8737 	 66.1794
| 32> C 	 11.8261 	 27.6211 	 67.9849
| 33> H 	 11.9366 	 26.6747 	 68.4467
| 34> H 	 11.6235 	 28.3696 	 68.768
| 35> C 	 13.1813 	 27.9052 	 67.4604
| 36> H 	 13.6475 	 26.9407 	 67.2121
| 37> H 	 13.7613 	 28.3442 	 68.1859
| 38> H 	 13.1648 	 28.5376 	 66.5673
| 39> H 	 9.16734 	 21.3374 	 66.6253
| 40> H 	 6.63236 	 28.5247 	 69.1937
| 41> *
| 42>
| 43>                          ****END OF INPUT****

CARTESIAN COORDINATES (ANGSTROEM)
---------------------------------
  S      8.417770   23.339600   67.815500
  C      9.315970   22.369700   66.691700
  C      9.935730   23.130400   65.690100
  C      9.767920   24.518300   65.918800
  C      8.947770   24.831300   66.993600
  H     10.073100   25.186100   65.234400
  C     10.793400   22.607900   64.606600
  H     11.517900   21.900100   65.078700
  H     11.477600   23.316200   64.142400
  C      9.986700   21.815900   63.538200
  H     10.659700   21.432700   62.875500
  H      9.532310   20.995200   64.114200
  C      8.825680   22.536500   62.736600
  H      8.363550   21.752400   62.163200
  H      8.026730   23.063100   63.299700
  H      9.234010   23.322000   62.121700
  S      7.114080   26.203500   68.192000
  C      7.319520   27.916100   68.514300
  C      8.568770   28.360300   68.172100
  C      9.347950   27.387200   67.447400
  C      8.631330   26.150900   67.425100
  H      8.853580   29.438200   68.242700
  C     10.715400   27.594400   66.905000
  H     10.738400   28.512700   66.391000
  H     11.010600   26.873700   66.179400
  C     11.826100   27.621100   67.984900
  H     11.936600   26.674700   68.446700
  H     11.623500   28.369600   68.768000
  C     13.181300   27.905200   67.460400
  H     13.647500   26.940700   67.212100
  H     13.761300   28.344200   68.185900
  H     13.164800   28.537600   66.567300
  H      9.167340   21.337400   66.625300
  H      6.632360   28.524700   69.193700

 Total Charge           Charge          ....    0
 Multiplicity           Mult            ....    1
 Number of Electrons    NEL             ....  134
 Basis Dimension        Dim             ....  322

ORBITAL ENERGIES
----------------

  NO   OCC          E(Eh)            E(eV)
   0   2.0000     -88.968581     -2420.9582
   1   2.0000     -88.964854     -2420.8568
   2   2.0000     -10.327857      -281.0353
   3   2.0000     -10.322589      -280.8919
   4   2.0000     -10.319049      -280.7956
   5   2.0000     -10.307967      -280.4941
   6   2.0000     -10.306365      -280.4504
   7   2.0000     -10.298476      -280.2358
   8   2.0000     -10.297558      -280.2108
   9   2.0000     -10.292087      -280.0619
  10   2.0000     -10.285597      -279.8853
  11   2.0000     -10.285103      -279.8719
  12   2.0000     -10.280980      -279.7597
  13   2.0000     -10.278308      -279.6870
  14   2.0000     -10.276460      -279.6367
  15   2.0000     -10.266522      -279.3663
  16   2.0000      -8.082770      -219.9433
  17   2.0000      -8.080732      -219.8879
  18   2.0000      -6.041364      -164.3939
  19   2.0000      -6.039139      -164.3333
  20   2.0000      -6.037307      -164.2835
  21   2.0000      -6.035110      -164.2237
  22   2.0000      -6.033534      -164.1808
  23   2.0000      -6.031488      -164.1251
  24   2.0000      -1.009994       -27.4833
  25   2.0000      -0.982364       -26.7315
  26   2.0000      -0.917634       -24.9701
  27   2.0000      -0.909123       -24.7385
  28   2.0000      -0.870940       -23.6995
  29   2.0000      -0.860194       -23.4071
  30   2.0000      -0.847187       -23.0531
  31   2.0000      -0.815092       -22.1798
  32   2.0000      -0.784944       -21.3594
  33   2.0000      -0.769388       -20.9361
  34   2.0000      -0.707754       -19.2590
  35   2.0000      -0.703858       -19.1530
  36   2.0000      -0.692437       -18.8422
  37   2.0000      -0.664008       -18.0686
  38   2.0000      -0.641586       -17.4584
  39   2.0000      -0.621037       -16.8993
  40   2.0000      -0.599155       -16.3038
  41   2.0000      -0.575518       -15.6606
  42   2.0000      -0.571659       -15.5556
  43   2.0000      -0.542322       -14.7573
  44   2.0000      -0.536754       -14.6058
  45   2.0000      -0.530896       -14.4464
  46   2.0000      -0.516651       -14.0588
  47   2.0000      -0.513025       -13.9601
  48   2.0000      -0.507757       -13.8168
  49   2.0000      -0.498211       -13.5570
  50   2.0000      -0.492615       -13.4047
  51   2.0000      -0.482455       -13.1283
  52   2.0000      -0.472310       -12.8522
  53   2.0000      -0.462109       -12.5746
  54   2.0000      -0.460573       -12.5328
  55   2.0000      -0.452246       -12.3063
  56   2.0000      -0.444469       -12.0946
  57   2.0000      -0.437346       -11.9008
  58   2.0000      -0.432829       -11.7779
  59   2.0000      -0.429025       -11.6744
  60   2.0000      -0.425121       -11.5681
  61   2.0000      -0.415343       -11.3021
  62   2.0000      -0.411184       -11.1889
  63   2.0000      -0.356403        -9.6982
  64   2.0000      -0.334892        -9.1129
  65   2.0000      -0.326141        -8.8748
  66   2.0000      -0.276998        -7.5375
  67   0.0000       0.019628         0.5341
  68   0.0000       0.075778         2.0620
  69   0.0000       0.104815         2.8522
  70   0.0000       0.114738         3.1222
  71   0.0000       0.134281         3.6540

MULLIKEN ATOMIC CHARGES
-----------------------
   0 S :    0.113577
   1 C :   -0.105951
   2 C :   -0.061183
   3 C :    0.018253
   4 C :   -0.100157
   5 H :   -0.029386
   6 C :    0.032059
   7 H :    0.039335
   8 H :    0.018608
   9 C :   -0.050341
  10 H :    0.010799
  11 H :    0.024306
  12 C :   -0.058992
  13 H :    0.037835
  14 H :    0.046641
  15 H :    0.027112
  16 S :    0.098667
  17 C :   -0.107336
  18 C :   -0.048742
  19 C :   -0.041729
  20 C :   -0.156241
  21 H :    0.036664
  22 C :    0.115266
  23 H :    0.005931
  24 H :    0.000843
  25 C :   -0.086934
  26 H :    0.025057
  27 H :    0.025017
  28 C :   -0.007356
  29 H :    0.028300
  30 H :    0.015889
  31 H :    0.021366
  32 H :    0.033314
  33 H :    0.079508
Sum of atomic charges:   -0.0000000

LOEWDIN ATOMIC CHARGES
----------------------
   0 S :    0.399188
   1 C :   -0.199802
   2 C :   -0.053696
   3 C :   -0.055390
   4 C :   -0.184186
   5 H :    0.009048
   6 C :   -0.039330
   7 H :    0.041510
   8 H :    0.025920
   9 C :   -0.026358
  10 H :    0.010343
  11 H :    0.023616
  12 C :   -0.066754
  13 H :    0.027119
  14 H :    0.031753
  15 H :    0.020889
  16 S :    0.425364
  17 C :   -0.203591
  18 C :   -0.072164
  19 C :   -0.051398
  20 C :   -0.204664
  21 H :    0.040008
  22 C :   -0.027273
  23 H :    0.025735
  24 H :    0.026138
  25 C :   -0.034889
  26 H :    0.023589
  27 H :    0.022706
  28 C :   -0.058571
  29 H :    0.028301
  30 H :    0.016893
  31 H :    0.022659
  32 H :    0.013698
  33 H :    0.043589

  Mayer bond orders larger than 0.100000
B(  0-S ,  1-C ) :   1.1412 B(  0-S ,  4-C ) :   1.1385 B(  1-C ,  2-C ) :   1.5805
B(  1-C ,  4-C ) :   0.1038 B(  1-C , 32-H ) :   0.9679 B(  2-C ,  3-C ) :   1.2717
B(  2-C ,  6-C ) :   1.0245 B(  3-C ,  4-C ) :   1.5333 B(  3-C ,  5-H ) :   1.0118
B(  4-C , 20-C ) :   1.1020 B(  6-C ,  7-H ) :   0.9384 B(  6-C ,  8-H ) :   0.9484
B(  6-C ,  9-C ) :   1.0687 B(  9-C , 10-H ) :   0.9555 B(  9-C , 11-H ) :   0.9614
B(  9-C , 12-C ) :   1.0657 B( 12-C , 13-H ) :   0.9759 B( 12-C , 14-H ) :   0.9763
B( 12-C , 15-H ) :   0.9778 B( 16-S , 17-C ) :   1.1431 B( 16-S , 20-C ) :   1.1584
B( 17-C , 18-C ) :   1.6230 B( 17-C , 33-H ) :   0.9560 B( 18-C , 19-C ) :   1.2548
B( 18-C , 21-H ) :   0.9755 B( 19-C , 20-C ) :   1.5312 B( 19-C , 22-C ) :   1.0643
B( 22-C , 23-H ) :   0.9134 B( 22-C , 24-H ) :   0.9301 B( 22-C , 25-C ) :   1.0706
B( 25-C , 26-H ) :   0.9570 B( 25-C , 27-H ) :   0.9607 B( 25-C , 28-C ) :   1.0866
B( 28-C , 29-H ) :   0.9767 B( 28-C , 30-H ) :   0.9707 B( 28-C , 31-H ) :   0.9715

Dispersion correction           -0.014070514
FINAL SINGLE POINT ENERGY     -1339.862793863368

DIPOLE MOMENT
-------------
                                X             Y             Z
Electronic contribution:    -19.72787      -0.95649      16.05484
Nuclear contribution   :     20.24619       1.10284     -16.41105
                        -----------------------------------------
Total Dipole Moment    :      0.51832       0.14635      -0.35622
                        -----------------------------------------
Magnitude (a.u.)       :      0.64573
Magnitude (Debye)      :      1.64131

Rotational constants in cm-1:     0.017898     0.008910     0.006971
Rotational constants in MHz :   536.573320   267.120506   208.996069

                             ****ORCA TERMINATED NORMALLY****
TOTAL RUN TIME: 0 days 0 hours 0 minutes 35 seconds 256 msec
