                         Program Version 4.2.1 -  RELEASE  -
|  1> ! wB97X-D3 SP def2-SVP
|  2> %pal
|  3> nprocs 16
|  4> end
|  5>
|  6> * xyz 0 1
|  7> S 	 14.046 	 32.5031 	 61.6606
|  8> C 	 15.7165 	 31.9104 	 61.4059
|  9> C 	 16.6103 	 32.8701 	 61.6636
| 10> C 	 15.9735 	 34.1538 	 62.0459
| 11> C 	 14.5848 	 34.0913 	 61.9859
| 12> H 	 16.5252 	 35.0843 	 62.405
| 13> C 	 18.0506 	 32.5918 	 61.7281
| 14> H 	 18.268 	 31.609 	 61.2988
| 15> H 	 18.1794 	 32.4528 	 62.7547
| 16> C 	 18.9809 	 33.6075 	 61.0307
| 17> H 	 18.7226 	 34.6147 	 61.3869
| 18> H 	 19.9826 	 33.3855 	 61.311
| 19> C 	 19.1462 	 33.4763 	 59.4937
| 20> H 	 19.795 	 32.682 	 59.1041
| 21> H 	 18.2262 	 33.5306 	 58.8961
| 22> H 	 19.7498 	 34.1721 	 59.0744
| 23> S 	 12.2514 	 34.8532 	 63.3432
| 24> C 	 11.4747 	 36.4497 	 63.0089
| 25> C 	 12.2408 	 37.1155 	 62.1164
| 26> C 	 13.4606 	 36.4179 	 61.7515
| 27> C 	 13.5923 	 35.1934 	 62.2693
| 28> H 	 11.9352 	 38.1264 	 61.7126
| 29> C 	 14.4979 	 37.0258 	 60.8224
| 30> H 	 15.4504 	 36.6974 	 61.2048
| 31> H 	 14.4986 	 38.1475 	 60.98
| 32> C 	 14.3462 	 36.9294 	 59.3107
| 33> H 	 15.2064 	 37.3732 	 58.8548
| 34> H 	 13.4223 	 37.478 	 59.1217
| 35> C 	 14.4014 	 35.4428 	 58.8247
| 36> H 	 15.4126 	 35.0455 	 58.8591
| 37> H 	 13.9755 	 35.4833 	 57.8608
| 38> H 	 13.8289 	 34.781 	 59.4758
| 39> H 	 15.9873 	 30.9081 	 61.2456
| 40> H 	 10.4576 	 36.7359 	 63.3974
| 41> *
| 42>
| 43>                          ****END OF INPUT****

CARTESIAN COORDINATES (ANGSTROEM)
---------------------------------
  S     14.046000   32.503100   61.660600
  C     15.716500   31.910400   61.405900
  C     16.610300   32.870100   61.663600
  C     15.973500   34.153800   62.045900
  C     14.584800   34.091300   61.985900
  H     16.525200   35.084300   62.405000
  C     18.050600   32.591800   61.728100
  H     18.268000   31.609000   61.298800
  H     18.179400   32.452800   62.754700
  C     18.980900   33.607500   61.030700
  H     18.722600   34.614700   61.386900
  H     19.982600   33.385500   61.311000
  C     19.146200   33.476300   59.493700
  H     19.795000   32.682000   59.104100
  H     18.226200   33.530600   58.896100
  H     19.749800   34.172100   59.074400
  S     12.251400   34.853200   63.343200
  C     11.474700   36.449700   63.008900
  C     12.240800   37.115500   62.116400
  C     13.460600   36.417900   61.751500
  C     13.592300   35.193400   62.269300
  H     11.935200   38.126400   61.712600
  C     14.497900   37.025800   60.822400
  H     15.450400   36.697400   61.204800
  H     14.498600   38.147500   60.980000
  C     14.346200   36.929400   59.310700
  H     15.206400   37.373200   58.854800
  H     13.422300   37.478000   59.121700
  C     14.401400   35.442800   58.824700
  H     15.412600   35.045500   58.859100
  H     13.975500   35.483300   57.860800
  H     13.828900   34.781000   59.475800
  H     15.987300   30.908100   61.245600
  H     10.457600   36.735900   63.397400

 Total Charge           Charge          ....    0
 Multiplicity           Mult            ....    1
 Number of Electrons    NEL             ....  134
 Basis Dimension        Dim             ....  322

ORBITAL ENERGIES
----------------

  NO   OCC          E(Eh)            E(eV)
   0   2.0000     -88.965066     -2420.8625
   1   2.0000     -88.960056     -2420.7262
   2   2.0000     -10.337140      -281.2879
   3   2.0000     -10.327408      -281.0231
   4   2.0000     -10.325887      -280.9817
   5   2.0000     -10.307535      -280.4823
   6   2.0000     -10.305652      -280.4310
   7   2.0000     -10.301050      -280.3058
   8   2.0000     -10.300165      -280.2817
   9   2.0000     -10.299438      -280.2620
  10   2.0000     -10.293128      -280.0903
  11   2.0000     -10.287680      -279.9420
  12   2.0000     -10.285980      -279.8958
  13   2.0000     -10.281109      -279.7632
  14   2.0000     -10.274017      -279.5702
  15   2.0000     -10.263329      -279.2794
  16   2.0000      -8.079811      -219.8628
  17   2.0000      -8.074472      -219.7175
  18   2.0000      -6.038446      -164.3145
  19   2.0000      -6.034341      -164.2028
  20   2.0000      -6.033231      -164.1726
  21   2.0000      -6.030385      -164.0951
  22   2.0000      -6.029040      -164.0585
  23   2.0000      -6.024944      -163.9471
  24   2.0000      -1.007514       -27.4158
  25   2.0000      -0.986008       -26.8307
  26   2.0000      -0.918104       -24.9829
  27   2.0000      -0.903968       -24.5982
  28   2.0000      -0.871588       -23.7171
  29   2.0000      -0.846788       -23.0423
  30   2.0000      -0.838689       -22.8219
  31   2.0000      -0.819172       -22.2908
  32   2.0000      -0.790638       -21.5144
  33   2.0000      -0.774044       -21.0628
  34   2.0000      -0.717546       -19.5254
  35   2.0000      -0.697308       -18.9747
  36   2.0000      -0.691095       -18.8056
  37   2.0000      -0.656995       -17.8777
  38   2.0000      -0.639492       -17.4015
  39   2.0000      -0.618577       -16.8323
  40   2.0000      -0.591597       -16.0982
  41   2.0000      -0.570525       -15.5248
  42   2.0000      -0.561008       -15.2658
  43   2.0000      -0.549401       -14.9500
  44   2.0000      -0.541964       -14.7476
  45   2.0000      -0.539895       -14.6913
  46   2.0000      -0.520879       -14.1738
  47   2.0000      -0.507258       -13.8032
  48   2.0000      -0.502941       -13.6857
  49   2.0000      -0.499067       -13.5803
  50   2.0000      -0.492339       -13.3972
  51   2.0000      -0.482335       -13.1250
  52   2.0000      -0.470906       -12.8140
  53   2.0000      -0.467214       -12.7135
  54   2.0000      -0.463396       -12.6096
  55   2.0000      -0.448028       -12.1914
  56   2.0000      -0.440288       -11.9808
  57   2.0000      -0.436093       -11.8667
  58   2.0000      -0.428346       -11.6559
  59   2.0000      -0.422519       -11.4973
  60   2.0000      -0.415190       -11.2979
  61   2.0000      -0.410193       -11.1619
  62   2.0000      -0.400241       -10.8911
  63   2.0000      -0.351964        -9.5774
  64   2.0000      -0.329398        -8.9634
  65   2.0000      -0.326232        -8.8772
  66   2.0000      -0.303068        -8.2469
  67   0.0000       0.033948         0.9238
  68   0.0000       0.077088         2.0977
  69   0.0000       0.108786         2.9602
  70   0.0000       0.122709         3.3391
  71   0.0000       0.127747         3.4762

MULLIKEN ATOMIC CHARGES
-----------------------
   0 S :    0.104603
   1 C :   -0.108302
   2 C :   -0.086965
   3 C :   -0.001473
   4 C :   -0.150603
   5 H :    0.055823
   6 C :    0.085712
   7 H :    0.009335
   8 H :    0.033619
   9 C :   -0.046233
  10 H :    0.032319
  11 H :    0.020049
  12 C :   -0.033707
  13 H :    0.020145
  14 H :    0.041142
  15 H :   -0.002866
  16 S :    0.072957
  17 C :   -0.114221
  18 C :   -0.028558
  19 C :   -0.058048
  20 C :   -0.134600
  21 H :    0.041813
  22 C :    0.047471
  23 H :   -0.003691
  24 H :    0.019476
  25 C :   -0.038233
  26 H :    0.028437
  27 H :    0.027424
  28 C :   -0.034533
  29 H :    0.032391
  30 H :    0.027664
  31 H :    0.032355
  32 H :    0.026414
  33 H :    0.082883
Sum of atomic charges:   -0.0000000

LOEWDIN ATOMIC CHARGES
----------------------
   0 S :    0.402485
   1 C :   -0.179745
   2 C :   -0.057893
   3 C :   -0.080151
   4 C :   -0.194161
   5 H :    0.041631
   6 C :   -0.029585
   7 H :    0.032188
   8 H :    0.033184
   9 C :   -0.031425
  10 H :    0.023934
  11 H :    0.025475
  12 C :   -0.073000
  13 H :    0.033236
  14 H :    0.027283
  15 H :    0.016203
  16 S :    0.366345
  17 C :   -0.170841
  18 C :   -0.075646
  19 C :   -0.065400
  20 C :   -0.192308
  21 H :    0.042678
  22 C :   -0.036892
  23 H :    0.019778
  24 H :    0.033671
  25 C :   -0.031659
  26 H :    0.024606
  27 H :    0.023432
  28 C :   -0.061078
  29 H :    0.026765
  30 H :    0.019749
  31 H :    0.021499
  32 H :    0.020530
  33 H :    0.045113

  Mayer bond orders larger than 0.100000
B(  0-S ,  1-C ) :   1.0959 B(  0-S ,  4-C ) :   1.1645 B(  1-C ,  2-C ) :   1.6693
B(  1-C , 32-H ) :   0.9750 B(  2-C ,  3-C ) :   1.1845 B(  2-C ,  6-C ) :   1.0245
B(  3-C ,  4-C ) :   1.6052 B(  3-C ,  5-H ) :   0.9715 B(  4-C , 20-C ) :   0.9911
B(  6-C ,  7-H ) :   0.9367 B(  6-C ,  8-H ) :   0.9316 B(  6-C ,  9-C ) :   1.0696
B(  9-C , 10-H ) :   0.9616 B(  9-C , 11-H ) :   0.9516 B(  9-C , 12-C ) :   1.0740
B( 12-C , 13-H ) :   0.9662 B( 12-C , 14-H ) :   0.9766 B( 12-C , 15-H ) :   0.9627
B( 16-S , 17-C ) :   1.1237 B( 16-S , 20-C ) :   1.1165 B( 17-C , 18-C ) :   1.6491
B( 17-C , 33-H ) :   0.9611 B( 18-C , 19-C ) :   1.2067 B( 18-C , 21-H ) :   0.9787
B( 19-C , 20-C ) :   1.6698 B( 19-C , 22-C ) :   1.0366 B( 22-C , 23-H ) :   0.9315
B( 22-C , 24-H ) :   0.9327 B( 22-C , 25-C ) :   1.0794 B( 25-C , 26-H ) :   0.9517
B( 25-C , 27-H ) :   0.9568 B( 25-C , 28-C ) :   1.0736 B( 28-C , 29-H ) :   0.9744
B( 28-C , 30-H ) :   0.9745 B( 28-C , 31-H ) :   0.9744

Dispersion correction           -0.015728412
FINAL SINGLE POINT ENERGY     -1339.858026835052

DIPOLE MOMENT
-------------
                                X             Y             Z
Electronic contribution:    -22.03949      -6.20104      17.01203
Nuclear contribution   :     22.68230       6.49827     -17.23294
                        -----------------------------------------
Total Dipole Moment    :      0.64281       0.29723      -0.22090
                        -----------------------------------------
Magnitude (a.u.)       :      0.74185
Magnitude (Debye)      :      1.88564

Rotational constants in cm-1:     0.021771     0.009188     0.007475
Rotational constants in MHz :   652.675711   275.463063   224.086388

                             ****ORCA TERMINATED NORMALLY****
TOTAL RUN TIME: 0 days 0 hours 0 minutes 37 seconds 999 msec
