                         Program Version 4.2.1 -  RELEASE  -
|  1> ! wB97X-D3 SP def2-SVP
|  2> %pal
|  3> nprocs 16
|  4> end
|  5>
|  6> * xyz 0 1
|  7> S 	 -18.6106 	 -3.5269 	 87.3346
|  8> C 	 -19.0294 	 -2.2858 	 86.171
|  9> C 	 -18.5227 	 -1.06672 	 86.5249
| 10> C 	 -17.7583 	 -1.15704 	 87.7566
| 11> C 	 -17.7429 	 -2.42421 	 88.3476
| 12> H 	 -17.2491 	 -0.318089 	 88.1092
| 13> C 	 -18.7541 	 0.286137 	 85.8145
| 14> H 	 -18.3486 	 1.12852 	 86.3802
| 15> H 	 -19.8177 	 0.462905 	 85.5882
| 16> C 	 -17.9885 	 0.352943 	 84.4828
| 17> H 	 -18.1483 	 -0.586193 	 83.9691
| 18> H 	 -18.4942 	 1.08305 	 83.8611
| 19> C 	 -16.5367 	 0.82288 	 84.6385
| 20> H 	 -16.1658 	 1.1716 	 83.6992
| 21> H 	 -16.5766 	 1.71344 	 85.2537
| 22> H 	 -15.8828 	 0.16017 	 85.2302
| 23> S 	 -15.5701 	 -2.17068 	 89.966
| 24> C 	 -15.5801 	 -2.98448 	 91.4737
| 25> C 	 -16.8193 	 -3.49545 	 91.7389
| 26> C 	 -17.7758 	 -3.33956 	 90.7188
| 27> C 	 -17.1784 	 -2.71349 	 89.6379
| 28> H 	 -17.0549 	 -3.92576 	 92.6604
| 29> C 	 -19.1355 	 -3.90529 	 90.8846
| 30> H 	 -19.0377 	 -4.44963 	 91.798
| 31> H 	 -19.3082 	 -4.50539 	 89.9967
| 32> C 	 -20.2596 	 -2.7985 	 90.7808
| 33> H 	 -20.2664 	 -2.39597 	 89.7465
| 34> H 	 -20.1195 	 -2.04369 	 91.5363
| 35> C 	 -21.6432 	 -3.37847 	 91.0179
| 36> H 	 -21.718 	 -3.35775 	 92.0919
| 37> H 	 -21.6465 	 -4.39332 	 90.6416
| 38> H 	 -22.499 	 -2.77586 	 90.5455
| 39> H 	 -19.6605 	 -2.49053 	 85.3101
| 40> H 	 -14.7828 	 -2.83348 	 92.1808
| 41> *
| 42>
| 43>                          ****END OF INPUT****

CARTESIAN COORDINATES (ANGSTROEM)
---------------------------------
  S    -18.610600   -3.526900   87.334600
  C    -19.029400   -2.285800   86.171000
  C    -18.522700   -1.066720   86.524900
  C    -17.758300   -1.157040   87.756600
  C    -17.742900   -2.424210   88.347600
  H    -17.249100   -0.318089   88.109200
  C    -18.754100    0.286137   85.814500
  H    -18.348600    1.128520   86.380200
  H    -19.817700    0.462905   85.588200
  C    -17.988500    0.352943   84.482800
  H    -18.148300   -0.586193   83.969100
  H    -18.494200    1.083050   83.861100
  C    -16.536700    0.822880   84.638500
  H    -16.165800    1.171600   83.699200
  H    -16.576600    1.713440   85.253700
  H    -15.882800    0.160170   85.230200
  S    -15.570100   -2.170680   89.966000
  C    -15.580100   -2.984480   91.473700
  C    -16.819300   -3.495450   91.738900
  C    -17.775800   -3.339560   90.718800
  C    -17.178400   -2.713490   89.637900
  H    -17.054900   -3.925760   92.660400
  C    -19.135500   -3.905290   90.884600
  H    -19.037700   -4.449630   91.798000
  H    -19.308200   -4.505390   89.996700
  C    -20.259600   -2.798500   90.780800
  H    -20.266400   -2.395970   89.746500
  H    -20.119500   -2.043690   91.536300
  C    -21.643200   -3.378470   91.017900
  H    -21.718000   -3.357750   92.091900
  H    -21.646500   -4.393320   90.641600
  H    -22.499000   -2.775860   90.545500
  H    -19.660500   -2.490530   85.310100
  H    -14.782800   -2.833480   92.180800

 Total Charge           Charge          ....    0
 Multiplicity           Mult            ....    1
 Number of Electrons    NEL             ....  134
 Basis Dimension        Dim             ....  322

ORBITAL ENERGIES
----------------

  NO   OCC          E(Eh)            E(eV)
   0   2.0000     -88.968068     -2420.9442
   1   2.0000     -88.964791     -2420.8550
   2   2.0000     -10.327624      -281.0289
   3   2.0000     -10.319382      -280.8046
   4   2.0000     -10.313562      -280.6463
   5   2.0000     -10.309918      -280.5471
   6   2.0000     -10.302423      -280.3432
   7   2.0000     -10.295212      -280.1470
   8   2.0000     -10.293716      -280.1063
   9   2.0000     -10.289718      -279.9975
  10   2.0000     -10.289214      -279.9837
  11   2.0000     -10.283382      -279.8251
  12   2.0000     -10.282472      -279.8003
  13   2.0000     -10.282376      -279.7977
  14   2.0000     -10.275926      -279.6222
  15   2.0000     -10.274304      -279.5780
  16   2.0000      -8.082598      -219.9387
  17   2.0000      -8.080621      -219.8849
  18   2.0000      -6.041164      -164.3884
  19   2.0000      -6.038934      -164.3277
  20   2.0000      -6.037030      -164.2759
  21   2.0000      -6.035025      -164.2214
  22   2.0000      -6.033436      -164.1781
  23   2.0000      -6.031492      -164.1252
  24   2.0000      -1.013090       -27.5676
  25   2.0000      -0.988105       -26.8877
  26   2.0000      -0.913228       -24.8502
  27   2.0000      -0.910999       -24.7895
  28   2.0000      -0.872106       -23.7312
  29   2.0000      -0.858032       -23.3482
  30   2.0000      -0.844445       -22.9785
  31   2.0000      -0.810061       -22.0429
  32   2.0000      -0.784453       -21.3460
  33   2.0000      -0.772714       -21.0266
  34   2.0000      -0.704771       -19.1778
  35   2.0000      -0.700730       -19.0678
  36   2.0000      -0.686440       -18.6790
  37   2.0000      -0.669994       -18.2315
  38   2.0000      -0.642733       -17.4897
  39   2.0000      -0.613938       -16.7061
  40   2.0000      -0.599292       -16.3076
  41   2.0000      -0.573874       -15.6159
  42   2.0000      -0.572092       -15.5674
  43   2.0000      -0.555436       -15.1142
  44   2.0000      -0.540251       -14.7010
  45   2.0000      -0.521121       -14.1804
  46   2.0000      -0.519244       -14.1293
  47   2.0000      -0.511050       -13.9064
  48   2.0000      -0.506692       -13.7878
  49   2.0000      -0.496073       -13.4988
  50   2.0000      -0.489649       -13.3240
  51   2.0000      -0.484732       -13.1902
  52   2.0000      -0.472609       -12.8603
  53   2.0000      -0.469217       -12.7680
  54   2.0000      -0.461949       -12.5703
  55   2.0000      -0.446529       -12.1507
  56   2.0000      -0.441266       -12.0075
  57   2.0000      -0.432118       -11.7585
  58   2.0000      -0.428850       -11.6696
  59   2.0000      -0.427377       -11.6295
  60   2.0000      -0.424214       -11.5434
  61   2.0000      -0.415619       -11.3096
  62   2.0000      -0.415151       -11.2968
  63   2.0000      -0.347156        -9.4466
  64   2.0000      -0.330966        -9.0060
  65   2.0000      -0.329698        -8.9716
  66   2.0000      -0.289075        -7.8661
  67   0.0000       0.028597         0.7782
  68   0.0000       0.077259         2.1023
  69   0.0000       0.109418         2.9774
  70   0.0000       0.121945         3.3183
  71   0.0000       0.136920         3.7258

MULLIKEN ATOMIC CHARGES
-----------------------
   0 S :    0.107744
   1 C :   -0.148002
   2 C :   -0.064801
   3 C :    0.032574
   4 C :   -0.145137
   5 H :   -0.016494
   6 C :    0.055547
   7 H :    0.017664
   8 H :    0.041420
   9 C :   -0.076807
  10 H :    0.024073
  11 H :    0.017124
  12 C :   -0.022550
  13 H :    0.033112
  14 H :    0.006773
  15 H :    0.045579
  16 S :    0.120540
  17 C :   -0.080623
  18 C :   -0.027364
  19 C :   -0.039455
  20 C :   -0.162232
  21 H :   -0.011303
  22 C :    0.111173
  23 H :    0.012277
  24 H :    0.025960
  25 C :   -0.104979
  26 H :    0.051675
  27 H :    0.029131
  28 C :   -0.039874
  29 H :    0.024577
  30 H :    0.027457
  31 H :    0.049081
  32 H :    0.051392
  33 H :    0.054747
Sum of atomic charges:   -0.0000000

LOEWDIN ATOMIC CHARGES
----------------------
   0 S :    0.416213
   1 C :   -0.200555
   2 C :   -0.059690
   3 C :   -0.060942
   4 C :   -0.199984
   5 H :    0.015205
   6 C :   -0.027463
   7 H :    0.027299
   8 H :    0.035300
   9 C :   -0.039908
  10 H :    0.018722
  11 H :    0.021083
  12 C :   -0.062856
  13 H :    0.024981
  14 H :    0.022003
  15 H :    0.030403
  16 S :    0.436624
  17 C :   -0.195616
  18 C :   -0.066521
  19 C :   -0.055154
  20 C :   -0.205861
  21 H :    0.018942
  22 C :   -0.026916
  23 H :    0.027397
  24 H :    0.030120
  25 C :   -0.035142
  26 H :    0.029138
  27 H :    0.019100
  28 C :   -0.069344
  29 H :    0.021511
  30 H :    0.021006
  31 H :    0.035395
  32 H :    0.028764
  33 H :    0.026746

  Mayer bond orders larger than 0.100000
B(  0-S ,  1-C ) :   1.1341 B(  0-S ,  4-C ) :   1.1529 B(  1-C ,  2-C ) :   1.6105
B(  1-C , 32-H ) :   0.9673 B(  2-C ,  3-C ) :   1.2631 B(  2-C ,  6-C ) :   1.0184
B(  3-C ,  4-C ) :   1.5411 B(  3-C ,  5-H ) :   1.0006 B(  4-C , 20-C ) :   1.0484
B(  6-C ,  7-H ) :   0.9477 B(  6-C ,  8-H ) :   0.9448 B(  6-C ,  9-C ) :   1.0715
B(  9-C , 10-H ) :   0.9578 B(  9-C , 11-H ) :   0.9543 B(  9-C , 12-C ) :   1.0770
B( 12-C , 13-H ) :   0.9747 B( 12-C , 14-H ) :   0.9682 B( 12-C , 15-H ) :   0.9766
B( 16-S , 17-C ) :   1.1650 B( 16-S , 20-C ) :   1.1659 B( 17-C , 18-C ) :   1.5737
B( 17-C , 33-H ) :   0.9693 B( 18-C , 19-C ) :   1.2804 B( 18-C , 21-H ) :   0.9956
B( 19-C , 20-C ) :   1.5336 B( 19-C , 22-C ) :   1.0486 B( 22-C , 23-H ) :   0.9334
B( 22-C , 24-H ) :   0.9131 B( 22-C , 25-C ) :   1.0610 B( 25-C , 26-H ) :   0.9534
B( 25-C , 27-H ) :   0.9671 B( 25-C , 28-C ) :   1.0763 B( 28-C , 29-H ) :   0.9806
B( 28-C , 30-H ) :   0.9706 B( 28-C , 31-H ) :   0.9747

Dispersion correction           -0.014626631
FINAL SINGLE POINT ENERGY     -1339.880975509951

DIPOLE MOMENT
-------------
                                X             Y             Z
Electronic contribution:     12.60652     -10.04752       5.33265
Nuclear contribution   :    -12.89448      10.43061      -5.28532
                        -----------------------------------------
Total Dipole Moment    :     -0.28796       0.38309       0.04732
                        -----------------------------------------
Magnitude (a.u.)       :      0.48158
Magnitude (Debye)      :      1.22407

Rotational constants in cm-1:     0.019596     0.008882     0.006898
Rotational constants in MHz :   587.479611   266.272951   206.806982

                             ****ORCA TERMINATED NORMALLY****
TOTAL RUN TIME: 0 days 0 hours 0 minutes 32 seconds 285 msec
