                         Program Version 4.2.1 -  RELEASE  -
|  1> ! wB97X-D3 SP def2-SVP
|  2> %pal
|  3> nprocs 16
|  4> end
|  5>
|  6> * xyz 0 1
|  7> S 	 38.3224 	 11.7061 	 85.3907
|  8> C 	 38.5052 	 10.2178 	 84.4096
|  9> C 	 39.7755 	 10.0144 	 83.9483
| 10> C 	 40.5567 	 11.2194 	 84.2304
| 11> C 	 39.9612 	 12.2073 	 85.0699
| 12> H 	 41.5531 	 11.4536 	 83.7977
| 13> C 	 40.3925 	 8.81988 	 83.1446
| 14> H 	 40.0342 	 7.87871 	 83.6978
| 15> H 	 41.4577 	 8.95976 	 83.0591
| 16> C 	 39.9433 	 8.61265 	 81.6551
| 17> H 	 38.9112 	 8.29445 	 81.7045
| 18> H 	 39.9529 	 9.54335 	 81.125
| 19> C 	 40.7551 	 7.60638 	 80.8825
| 20> H 	 40.7382 	 6.58192 	 81.3947
| 21> H 	 40.3317 	 7.3847 	 79.8902
| 22> H 	 41.8064 	 8.02583 	 80.7438
| 23> S 	 39.2214 	 14.7943 	 85.4333
| 24> C 	 40.2243 	 15.9468 	 86.1671
| 25> C 	 41.4608 	 15.3624 	 86.4946
| 26> C 	 41.5677 	 13.9892 	 86.0408
| 27> C 	 40.3907 	 13.4972 	 85.5698
| 28> H 	 42.1981 	 15.9535 	 86.8864
| 29> C 	 42.7914 	 13.1538 	 86.1871
| 30> H 	 42.6624 	 12.324 	 85.5816
| 31> H 	 42.6609 	 12.8778 	 87.2255
| 32> C 	 44.2409 	 13.8294 	 86.0794
| 33> H 	 44.4103 	 14.6124 	 86.8215
| 34> H 	 44.3986 	 14.222 	 85.0705
| 35> C 	 45.3807 	 12.8107 	 86.198
| 36> H 	 46.2881 	 13.3387 	 85.9322
| 37> H 	 45.2341 	 11.9944 	 85.5422
| 38> H 	 45.4129 	 12.3533 	 87.2022
| 39> H 	 37.7794 	 9.39001 	 84.2087
| 40> H 	 39.9309 	 17.0015 	 86.2665
| 41> *
| 42>
| 43>                          ****END OF INPUT****

CARTESIAN COORDINATES (ANGSTROEM)
---------------------------------
  S     38.322400   11.706100   85.390700
  C     38.505200   10.217800   84.409600
  C     39.775500   10.014400   83.948300
  C     40.556700   11.219400   84.230400
  C     39.961200   12.207300   85.069900
  H     41.553100   11.453600   83.797700
  C     40.392500    8.819880   83.144600
  H     40.034200    7.878710   83.697800
  H     41.457700    8.959760   83.059100
  C     39.943300    8.612650   81.655100
  H     38.911200    8.294450   81.704500
  H     39.952900    9.543350   81.125000
  C     40.755100    7.606380   80.882500
  H     40.738200    6.581920   81.394700
  H     40.331700    7.384700   79.890200
  H     41.806400    8.025830   80.743800
  S     39.221400   14.794300   85.433300
  C     40.224300   15.946800   86.167100
  C     41.460800   15.362400   86.494600
  C     41.567700   13.989200   86.040800
  C     40.390700   13.497200   85.569800
  H     42.198100   15.953500   86.886400
  C     42.791400   13.153800   86.187100
  H     42.662400   12.324000   85.581600
  H     42.660900   12.877800   87.225500
  C     44.240900   13.829400   86.079400
  H     44.410300   14.612400   86.821500
  H     44.398600   14.222000   85.070500
  C     45.380700   12.810700   86.198000
  H     46.288100   13.338700   85.932200
  H     45.234100   11.994400   85.542200
  H     45.412900   12.353300   87.202200
  H     37.779400    9.390010   84.208700
  H     39.930900   17.001500   86.266500

 Total Charge           Charge          ....    0
 Multiplicity           Mult            ....    1
 Number of Electrons    NEL             ....  134
 Basis Dimension        Dim             ....  322

ORBITAL ENERGIES
----------------

  NO   OCC          E(Eh)            E(eV)
   0   2.0000     -88.967858     -2420.9385
   1   2.0000     -88.960995     -2420.7517
   2   2.0000     -10.334709      -281.2217
   3   2.0000     -10.321672      -280.8670
   4   2.0000     -10.319449      -280.8065
   5   2.0000     -10.318420      -280.7785
   6   2.0000     -10.308311      -280.5034
   7   2.0000     -10.307458      -280.4802
   8   2.0000     -10.303293      -280.3669
   9   2.0000     -10.302345      -280.3411
  10   2.0000     -10.294179      -280.1189
  11   2.0000     -10.291938      -280.0579
  12   2.0000     -10.291133      -280.0360
  13   2.0000     -10.287215      -279.9294
  14   2.0000     -10.285337      -279.8782
  15   2.0000     -10.276267      -279.6314
  16   2.0000      -8.081748      -219.9155
  17   2.0000      -8.077014      -219.7867
  18   2.0000      -6.040508      -164.3706
  19   2.0000      -6.036291      -164.2558
  20   2.0000      -6.035498      -164.2343
  21   2.0000      -6.032342      -164.1484
  22   2.0000      -6.031124      -164.1152
  23   2.0000      -6.027921      -164.0281
  24   2.0000      -1.009286       -27.4641
  25   2.0000      -0.979868       -26.6636
  26   2.0000      -0.909065       -24.7369
  27   2.0000      -0.908799       -24.7297
  28   2.0000      -0.873446       -23.7677
  29   2.0000      -0.859496       -23.3881
  30   2.0000      -0.837764       -22.7967
  31   2.0000      -0.807838       -21.9824
  32   2.0000      -0.783268       -21.3138
  33   2.0000      -0.774717       -21.0811
  34   2.0000      -0.707737       -19.2585
  35   2.0000      -0.699340       -19.0300
  36   2.0000      -0.695009       -18.9121
  37   2.0000      -0.662919       -18.0389
  38   2.0000      -0.629873       -17.1397
  39   2.0000      -0.613019       -16.6811
  40   2.0000      -0.594352       -16.1731
  41   2.0000      -0.576557       -15.6889
  42   2.0000      -0.572100       -15.5676
  43   2.0000      -0.563458       -15.3325
  44   2.0000      -0.535197       -14.5635
  45   2.0000      -0.527833       -14.3631
  46   2.0000      -0.513267       -13.9667
  47   2.0000      -0.509149       -13.8547
  48   2.0000      -0.508386       -13.8339
  49   2.0000      -0.497260       -13.5311
  50   2.0000      -0.494417       -13.4538
  51   2.0000      -0.476908       -12.9773
  52   2.0000      -0.470331       -12.7983
  53   2.0000      -0.466413       -12.6917
  54   2.0000      -0.458953       -12.4888
  55   2.0000      -0.450879       -12.2690
  56   2.0000      -0.444982       -12.1086
  57   2.0000      -0.436743       -11.8844
  58   2.0000      -0.431720       -11.7477
  59   2.0000      -0.425218       -11.5708
  60   2.0000      -0.422404       -11.4942
  61   2.0000      -0.419055       -11.4031
  62   2.0000      -0.413744       -11.2585
  63   2.0000      -0.351391        -9.5618
  64   2.0000      -0.328819        -8.9476
  65   2.0000      -0.324361        -8.8263
  66   2.0000      -0.287283        -7.8174
  67   0.0000       0.028334         0.7710
  68   0.0000       0.074487         2.0269
  69   0.0000       0.103921         2.8278
  70   0.0000       0.114083         3.1043
  71   0.0000       0.135929         3.6988

MULLIKEN ATOMIC CHARGES
-----------------------
   0 S :    0.108520
   1 C :   -0.129635
   2 C :   -0.078875
   3 C :    0.000830
   4 C :   -0.165839
   5 H :    0.028011
   6 C :    0.042032
   7 H :    0.051675
   8 H :    0.022599
   9 C :   -0.059972
  10 H :    0.019050
  11 H :    0.030414
  12 C :   -0.084687
  13 H :    0.039589
  14 H :    0.042352
  15 H :    0.046023
  16 S :    0.106671
  17 C :   -0.098804
  18 C :   -0.010121
  19 C :   -0.049264
  20 C :   -0.136877
  21 H :   -0.015841
  22 C :    0.106778
  23 H :   -0.015562
  24 H :    0.042062
  25 C :   -0.097534
  26 H :    0.038799
  27 H :    0.034009
  28 C :   -0.030705
  29 H :    0.037249
  30 H :    0.017915
  31 H :    0.030958
  32 H :    0.054699
  33 H :    0.073480
Sum of atomic charges:   -0.0000000

LOEWDIN ATOMIC CHARGES
----------------------
   0 S :    0.397418
   1 C :   -0.198320
   2 C :   -0.064924
   3 C :   -0.076438
   4 C :   -0.195422
   5 H :    0.028896
   6 C :   -0.027688
   7 H :    0.044170
   8 H :    0.026861
   9 C :   -0.046054
  10 H :    0.019080
  11 H :    0.022366
  12 C :   -0.075315
  13 H :    0.032049
  14 H :    0.029951
  15 H :    0.032159
  16 S :    0.426125
  17 C :   -0.196231
  18 C :   -0.067614
  19 C :   -0.046154
  20 C :   -0.214207
  21 H :    0.013151
  22 C :   -0.026014
  23 H :    0.016516
  24 H :    0.044074
  25 C :   -0.034361
  26 H :    0.023754
  27 H :    0.025210
  28 C :   -0.060014
  29 H :    0.028134
  30 H :    0.017482
  31 H :    0.025795
  32 H :    0.038760
  33 H :    0.036807

  Mayer bond orders larger than 0.100000
B(  0-S ,  1-C ) :   1.1214 B(  0-S ,  4-C ) :   1.1431 B(  1-C ,  2-C ) :   1.6536
B(  1-C , 32-H ) :   0.9566 B(  2-C ,  3-C ) :   1.2257 B(  2-C ,  6-C ) :   1.0162
B(  3-C ,  4-C ) :   1.5863 B(  3-C ,  5-H ) :   0.9702 B(  4-C , 20-C ) :   1.0490
B(  6-C ,  7-H ) :   0.9398 B(  6-C ,  8-H ) :   0.9464 B(  6-C ,  9-C ) :   1.0594
B(  9-C , 10-H ) :   0.9522 B(  9-C , 11-H ) :   0.9561 B(  9-C , 12-C ) :   1.0930
B( 12-C , 13-H ) :   0.9719 B( 12-C , 14-H ) :   0.9712 B( 12-C , 15-H ) :   0.9717
B( 16-S , 17-C ) :   1.1888 B( 16-S , 20-C ) :   1.1321 B( 17-C , 18-C ) :   1.5659
B( 17-C , 33-H ) :   0.9676 B( 18-C , 19-C ) :   1.2320 B( 18-C , 21-H ) :   1.0077
B( 19-C , 20-C ) :   1.5960 B( 19-C , 22-C ) :   1.0463 B( 22-C , 23-H ) :   0.9306
B( 22-C , 24-H ) :   0.9223 B( 22-C , 25-C ) :   1.0591 B( 25-C , 26-H ) :   0.9529
B( 25-C , 27-H ) :   0.9617 B( 25-C , 28-C ) :   1.0888 B( 28-C , 29-H ) :   0.9752
B( 28-C , 30-H ) :   0.9748 B( 28-C , 31-H ) :   0.9749

Dispersion correction           -0.012972740
FINAL SINGLE POINT ENERGY     -1339.862142215077

DIPOLE MOMENT
-------------
                                X             Y             Z
Electronic contribution:    -22.99544      16.72664      10.43142
Nuclear contribution   :     23.61932     -16.90518     -10.68819
                        -----------------------------------------
Total Dipole Moment    :      0.62388      -0.17854      -0.25677
                        -----------------------------------------
Magnitude (a.u.)       :      0.69788
Magnitude (Debye)      :      1.77386

Rotational constants in cm-1:     0.017232     0.007775     0.005756
Rotational constants in MHz :   516.614496   233.074576   172.565854

                             ****ORCA TERMINATED NORMALLY****
TOTAL RUN TIME: 0 days 0 hours 0 minutes 28 seconds 774 msec
