                         Program Version 4.2.1 -  RELEASE  -
|  1> ! wB97X-D3 SP def2-SVP
|  2> %pal
|  3> nprocs 16
|  4> end
|  5>
|  6> * xyz 0 1
|  7> S 	 57.504 	 12.643 	 51.7879
|  8> C 	 57.882 	 13.5161 	 50.3753
|  9> C 	 56.7757 	 13.9424 	 49.6956
| 10> C 	 55.5985 	 13.5247 	 50.4211
| 11> C 	 55.8289 	 12.6822 	 51.4652
| 12> H 	 54.5746 	 13.8367 	 50.1628
| 13> C 	 56.7682 	 14.7544 	 48.3998
| 14> H 	 57.6988 	 15.3606 	 48.4469
| 15> H 	 55.948 	 15.471 	 48.5061
| 16> C 	 56.8088 	 13.9162 	 47.0922
| 17> H 	 55.9674 	 13.2947 	 47.0878
| 18> H 	 56.6995 	 14.527 	 46.1652
| 19> C 	 58.0793 	 13.0982 	 46.8966
| 20> H 	 58.9823 	 13.7205 	 46.6816
| 21> H 	 58.2816 	 12.5555 	 47.8426
| 22> H 	 57.9965 	 12.3134 	 46.1783
| 23> S 	 55.189 	 10.6844 	 53.1579
| 24> C 	 53.8222 	 10.754 	 54.2318
| 25> C 	 53.0296 	 11.8089 	 53.8863
| 26> C 	 53.5225 	 12.5653 	 52.8095
| 27> C 	 54.81 	 12.1602 	 52.3676
| 28> H 	 52.0311 	 11.8864 	 54.4695
| 29> C 	 52.7539 	 13.8093 	 52.4433
| 30> H 	 53.4695 	 14.6342 	 52.1414
| 31> H 	 52.2588 	 14.2635 	 53.3504
| 32> C 	 51.8349 	 13.679 	 51.2658
| 33> H 	 51.1145 	 12.9248 	 51.5548
| 34> H 	 52.4026 	 13.1478 	 50.4145
| 35> C 	 51.1906 	 14.9237 	 50.6988
| 36> H 	 50.8283 	 14.7642 	 49.7249
| 37> H 	 51.7447 	 15.8717 	 50.6694
| 38> H 	 50.2754 	 15.153 	 51.2629
| 39> H 	 58.8299 	 13.9118 	 50.1068
| 40> H 	 53.6678 	 10.0997 	 55.1384
| 41> *
| 42>
| 43>                          ****END OF INPUT****

CARTESIAN COORDINATES (ANGSTROEM)
---------------------------------
  S     57.504000   12.643000   51.787900
  C     57.882000   13.516100   50.375300
  C     56.775700   13.942400   49.695600
  C     55.598500   13.524700   50.421100
  C     55.828900   12.682200   51.465200
  H     54.574600   13.836700   50.162800
  C     56.768200   14.754400   48.399800
  H     57.698800   15.360600   48.446900
  H     55.948000   15.471000   48.506100
  C     56.808800   13.916200   47.092200
  H     55.967400   13.294700   47.087800
  H     56.699500   14.527000   46.165200
  C     58.079300   13.098200   46.896600
  H     58.982300   13.720500   46.681600
  H     58.281600   12.555500   47.842600
  H     57.996500   12.313400   46.178300
  S     55.189000   10.684400   53.157900
  C     53.822200   10.754000   54.231800
  C     53.029600   11.808900   53.886300
  C     53.522500   12.565300   52.809500
  C     54.810000   12.160200   52.367600
  H     52.031100   11.886400   54.469500
  C     52.753900   13.809300   52.443300
  H     53.469500   14.634200   52.141400
  H     52.258800   14.263500   53.350400
  C     51.834900   13.679000   51.265800
  H     51.114500   12.924800   51.554800
  H     52.402600   13.147800   50.414500
  C     51.190600   14.923700   50.698800
  H     50.828300   14.764200   49.724900
  H     51.744700   15.871700   50.669400
  H     50.275400   15.153000   51.262900
  H     58.829900   13.911800   50.106800
  H     53.667800   10.099700   55.138400

 Total Charge           Charge          ....    0
 Multiplicity           Mult            ....    1
 Number of Electrons    NEL             ....  134
 Basis Dimension        Dim             ....  322

ORBITAL ENERGIES
----------------

  NO   OCC          E(Eh)            E(eV)
   0   2.0000     -88.968551     -2420.9574
   1   2.0000     -88.963975     -2420.8328
   2   2.0000     -10.331899      -281.1453
   3   2.0000     -10.326565      -281.0001
   4   2.0000     -10.316828      -280.7352
   5   2.0000     -10.308055      -280.4964
   6   2.0000     -10.305041      -280.4144
   7   2.0000     -10.300621      -280.2942
   8   2.0000     -10.300215      -280.2831
   9   2.0000     -10.296904      -280.1930
  10   2.0000     -10.293615      -280.1035
  11   2.0000     -10.293253      -280.0937
  12   2.0000     -10.288347      -279.9601
  13   2.0000     -10.287336      -279.9326
  14   2.0000     -10.276755      -279.6447
  15   2.0000     -10.276229      -279.6304
  16   2.0000      -8.084729      -219.9967
  17   2.0000      -8.079600      -219.8571
  18   2.0000      -6.043205      -164.4440
  19   2.0000      -6.039041      -164.3307
  20   2.0000      -6.037983      -164.3019
  21   2.0000      -6.035395      -164.2314
  22   2.0000      -6.033783      -164.1876
  23   2.0000      -6.030647      -164.1022
  24   2.0000      -1.019117       -27.7316
  25   2.0000      -0.995247       -27.0821
  26   2.0000      -0.913621       -24.8609
  27   2.0000      -0.910973       -24.7888
  28   2.0000      -0.874627       -23.7998
  29   2.0000      -0.853889       -23.2355
  30   2.0000      -0.847732       -23.0680
  31   2.0000      -0.817985       -22.2585
  32   2.0000      -0.783905       -21.3311
  33   2.0000      -0.776211       -21.1218
  34   2.0000      -0.710268       -19.3274
  35   2.0000      -0.699829       -19.0433
  36   2.0000      -0.689469       -18.7614
  37   2.0000      -0.661312       -17.9952
  38   2.0000      -0.636576       -17.3221
  39   2.0000      -0.623324       -16.9615
  40   2.0000      -0.596848       -16.2411
  41   2.0000      -0.569853       -15.5065
  42   2.0000      -0.559235       -15.2176
  43   2.0000      -0.551151       -14.9976
  44   2.0000      -0.547880       -14.9086
  45   2.0000      -0.524494       -14.2722
  46   2.0000      -0.516531       -14.0555
  47   2.0000      -0.512806       -13.9542
  48   2.0000      -0.507124       -13.7995
  49   2.0000      -0.500170       -13.6103
  50   2.0000      -0.493739       -13.4353
  51   2.0000      -0.483605       -13.1595
  52   2.0000      -0.471530       -12.8310
  53   2.0000      -0.470646       -12.8069
  54   2.0000      -0.456584       -12.4243
  55   2.0000      -0.448938       -12.2162
  56   2.0000      -0.444593       -12.0980
  57   2.0000      -0.439918       -11.9708
  58   2.0000      -0.429032       -11.6746
  59   2.0000      -0.428739       -11.6666
  60   2.0000      -0.420753       -11.4493
  61   2.0000      -0.414239       -11.2720
  62   2.0000      -0.400941       -10.9102
  63   2.0000      -0.360582        -9.8119
  64   2.0000      -0.332315        -9.0428
  65   2.0000      -0.331718        -9.0265
  66   2.0000      -0.288094        -7.8394
  67   0.0000       0.025243         0.6869
  68   0.0000       0.082050         2.2327
  69   0.0000       0.114020         3.1026
  70   0.0000       0.121105         3.2954
  71   0.0000       0.130694         3.5564

MULLIKEN ATOMIC CHARGES
-----------------------
   0 S :    0.131552
   1 C :   -0.089001
   2 C :   -0.129406
   3 C :   -0.019486
   4 C :   -0.083005
   5 H :    0.001275
   6 C :    0.070941
   7 H :    0.020884
   8 H :    0.032078
   9 C :   -0.026004
  10 H :    0.015042
  11 H :    0.035243
  12 C :   -0.073848
  13 H :    0.035748
  14 H :    0.034471
  15 H :    0.031472
  16 S :    0.096877
  17 C :   -0.119902
  18 C :   -0.071603
  19 C :   -0.013390
  20 C :   -0.144070
  21 H :    0.054700
  22 C :    0.009166
  23 H :    0.020448
  24 H :    0.035831
  25 C :   -0.093893
  26 H :    0.018267
  27 H :    0.036513
  28 C :   -0.005520
  29 H :    0.020372
  30 H :    0.032291
  31 H :    0.024734
  32 H :    0.032104
  33 H :    0.079119
Sum of atomic charges:   -0.0000000

LOEWDIN ATOMIC CHARGES
----------------------
   0 S :    0.445988
   1 C :   -0.205653
   2 C :   -0.065322
   3 C :   -0.064292
   4 C :   -0.214753
   5 H :    0.029398
   6 C :   -0.029291
   7 H :    0.031419
   8 H :    0.033027
   9 C :   -0.037318
  10 H :    0.016522
  11 H :    0.029725
  12 C :   -0.070585
  13 H :    0.027752
  14 H :    0.028372
  15 H :    0.023807
  16 S :    0.425192
  17 C :   -0.206735
  18 C :   -0.086131
  19 C :   -0.065644
  20 C :   -0.196903
  21 H :    0.051493
  22 C :   -0.043965
  23 H :    0.029598
  24 H :    0.034346
  25 C :   -0.052155
  26 H :    0.023106
  27 H :    0.029099
  28 C :   -0.068071
  29 H :    0.022894
  30 H :    0.028038
  31 H :    0.029006
  32 H :    0.023398
  33 H :    0.044638

  Mayer bond orders larger than 0.100000
B(  0-S ,  1-C ) :   1.1516 B(  0-S ,  4-C ) :   1.1536 B(  1-C ,  2-C ) :   1.6090
B(  1-C , 32-H ) :   0.9627 B(  2-C ,  3-C ) :   1.2538 B(  2-C ,  6-C ) :   1.0132
B(  3-C ,  4-C ) :   1.5610 B(  3-C ,  5-H ) :   0.9975 B(  4-C , 20-C ) :   1.0526
B(  6-C ,  7-H ) :   0.9427 B(  6-C ,  8-H ) :   0.9434 B(  6-C ,  9-C ) :   1.0544
B(  9-C , 10-H ) :   0.9563 B(  9-C , 11-H ) :   0.9562 B(  9-C , 12-C ) :   1.0794
B( 12-C , 13-H ) :   0.9751 B( 12-C , 14-H ) :   0.9715 B( 12-C , 15-H ) :   0.9725
B( 16-S , 17-C ) :   1.1615 B( 16-S , 20-C ) :   1.1685 B( 17-C , 18-C ) :   1.5944
B( 17-C , 20-C ) :   0.1078 B( 17-C , 33-H ) :   0.9592 B( 18-C , 19-C ) :   1.2798
B( 18-C , 21-H ) :   0.9752 B( 19-C , 20-C ) :   1.5309 B( 19-C , 22-C ) :   1.0405
B( 22-C , 23-H ) :   0.9339 B( 22-C , 24-H ) :   0.9429 B( 22-C , 25-C ) :   1.0582
B( 25-C , 26-H ) :   0.9466 B( 25-C , 27-H ) :   0.9537 B( 25-C , 28-C ) :   1.0771
B( 28-C , 29-H ) :   0.9711 B( 28-C , 30-H ) :   0.9743 B( 28-C , 31-H ) :   0.9706

Dispersion correction           -0.014265307
FINAL SINGLE POINT ENERGY     -1339.877609438015

DIPOLE MOMENT
-------------
                                X             Y             Z
Electronic contribution:     10.75441     -14.81405      20.38439
Nuclear contribution   :    -11.12712      15.26219     -20.60845
                        -----------------------------------------
Total Dipole Moment    :     -0.37272       0.44814      -0.22406
                        -----------------------------------------
Magnitude (a.u.)       :      0.62446
Magnitude (Debye)      :      1.58725

Rotational constants in cm-1:     0.018317     0.009029     0.006583
Rotational constants in MHz :   549.123942   270.694400   197.357430

                             ****ORCA TERMINATED NORMALLY****
TOTAL RUN TIME: 0 days 0 hours 0 minutes 30 seconds 571 msec
