                         Program Version 4.2.1 -  RELEASE  -
|  1> ! wB97X-D3 SP def2-SVP
|  2> %pal
|  3> nprocs 16
|  4> end
|  5>
|  6> * xyz 0 1
|  7> S 	 -55.1276 	 42.2128 	 111.62
|  8> C 	 -53.7574 	 41.6514 	 110.794
|  9> C 	 -53.5612 	 40.2837 	 110.967
| 10> C 	 -54.5712 	 39.738 	 111.88
| 11> C 	 -55.5591 	 40.6573 	 112.231
| 12> H 	 -54.811 	 38.7431 	 112.26
| 13> C 	 -52.5084 	 39.513 	 110.244
| 14> H 	 -51.5108 	 39.8125 	 110.608
| 15> H 	 -52.6137 	 39.8361 	 109.156
| 16> C 	 -52.6251 	 37.9603 	 110.331
| 17> H 	 -52.3277 	 37.7556 	 111.399
| 18> H 	 -53.654 	 37.6608 	 110.12
| 19> C 	 -51.7775 	 37.0981 	 109.361
| 20> H 	 -50.7524 	 37.4814 	 109.301
| 21> H 	 -51.7247 	 35.9766 	 109.613
| 22> H 	 -52.1627 	 37.2227 	 108.377
| 23> S 	 -56.6724 	 39.9755 	 114.659
| 24> C 	 -58.3919 	 39.8715 	 114.908
| 25> C 	 -59.0161 	 39.9835 	 113.703
| 26> C 	 -58.0848 	 40.2834 	 112.598
| 27> C 	 -56.7629 	 40.3559 	 112.974
| 28> H 	 -60.0686 	 39.9235 	 113.721
| 29> C 	 -58.5937 	 40.5821 	 111.181
| 30> H 	 -58.1246 	 41.521 	 110.862
| 31> H 	 -59.7106 	 40.7665 	 111.227
| 32> C 	 -58.3177 	 39.4515 	 110.177
| 33> H 	 -58.9335 	 38.5716 	 110.531
| 34> H 	 -57.3101 	 39.0766 	 110.295
| 35> C 	 -58.6236 	 39.8374 	 108.787
| 36> H 	 -59.6655 	 40.2139 	 108.832
| 37> H 	 -58.5571 	 38.8917 	 108.196
| 38> H 	 -57.8823 	 40.5672 	 108.385
| 39> H 	 -53.1804 	 42.2172 	 110.109
| 40> H 	 -58.809 	 39.5231 	 115.811
| 41> *
| 42>
| 43>                          ****END OF INPUT****

CARTESIAN COORDINATES (ANGSTROEM)
---------------------------------
  S    -55.127600   42.212800  111.620000
  C    -53.757400   41.651400  110.794000
  C    -53.561200   40.283700  110.967000
  C    -54.571200   39.738000  111.880000
  C    -55.559100   40.657300  112.231000
  H    -54.811000   38.743100  112.260000
  C    -52.508400   39.513000  110.244000
  H    -51.510800   39.812500  110.608000
  H    -52.613700   39.836100  109.156000
  C    -52.625100   37.960300  110.331000
  H    -52.327700   37.755600  111.399000
  H    -53.654000   37.660800  110.120000
  C    -51.777500   37.098100  109.361000
  H    -50.752400   37.481400  109.301000
  H    -51.724700   35.976600  109.613000
  H    -52.162700   37.222700  108.377000
  S    -56.672400   39.975500  114.659000
  C    -58.391900   39.871500  114.908000
  C    -59.016100   39.983500  113.703000
  C    -58.084800   40.283400  112.598000
  C    -56.762900   40.355900  112.974000
  H    -60.068600   39.923500  113.721000
  C    -58.593700   40.582100  111.181000
  H    -58.124600   41.521000  110.862000
  H    -59.710600   40.766500  111.227000
  C    -58.317700   39.451500  110.177000
  H    -58.933500   38.571600  110.531000
  H    -57.310100   39.076600  110.295000
  C    -58.623600   39.837400  108.787000
  H    -59.665500   40.213900  108.832000
  H    -58.557100   38.891700  108.196000
  H    -57.882300   40.567200  108.385000
  H    -53.180400   42.217200  110.109000
  H    -58.809000   39.523100  115.811000

 Total Charge           Charge          ....    0
 Multiplicity           Mult            ....    1
 Number of Electrons    NEL             ....  134
 Basis Dimension        Dim             ....  322

ORBITAL ENERGIES
----------------

  NO   OCC          E(Eh)            E(eV)
   0   2.0000     -88.968245     -2420.9490
   1   2.0000     -88.958372     -2420.6804
   2   2.0000     -10.327402      -281.0229
   3   2.0000     -10.323689      -280.9218
   4   2.0000     -10.313057      -280.6326
   5   2.0000     -10.310282      -280.5570
   6   2.0000     -10.308715      -280.5144
   7   2.0000     -10.306579      -280.4563
   8   2.0000     -10.301709      -280.3237
   9   2.0000     -10.300253      -280.2841
  10   2.0000     -10.294663      -280.1320
  11   2.0000     -10.293786      -280.1082
  12   2.0000     -10.291398      -280.0432
  13   2.0000     -10.285267      -279.8763
  14   2.0000     -10.278556      -279.6937
  15   2.0000     -10.278288      -279.6864
  16   2.0000      -8.083837      -219.9724
  17   2.0000      -8.074038      -219.7057
  18   2.0000      -6.042198      -164.4166
  19   2.0000      -6.037980      -164.3018
  20   2.0000      -6.034950      -164.2193
  21   2.0000      -6.032585      -164.1550
  22   2.0000      -6.028249      -164.0370
  23   2.0000      -6.024846      -163.9444
  24   2.0000      -1.011242       -27.5173
  25   2.0000      -0.989070       -26.9140
  26   2.0000      -0.910770       -24.7833
  27   2.0000      -0.908073       -24.7099
  28   2.0000      -0.877121       -23.8677
  29   2.0000      -0.848394       -23.0860
  30   2.0000      -0.845482       -23.0067
  31   2.0000      -0.821853       -22.3638
  32   2.0000      -0.779508       -21.2115
  33   2.0000      -0.766566       -20.8593
  34   2.0000      -0.712058       -19.3761
  35   2.0000      -0.690477       -18.7888
  36   2.0000      -0.682302       -18.5664
  37   2.0000      -0.666415       -18.1341
  38   2.0000      -0.645420       -17.5628
  39   2.0000      -0.611976       -16.6527
  40   2.0000      -0.591575       -16.0976
  41   2.0000      -0.578534       -15.7427
  42   2.0000      -0.568982       -15.4828
  43   2.0000      -0.564957       -15.3732
  44   2.0000      -0.525419       -14.2974
  45   2.0000      -0.523317       -14.2402
  46   2.0000      -0.515888       -14.0380
  47   2.0000      -0.514541       -14.0014
  48   2.0000      -0.504944       -13.7402
  49   2.0000      -0.503530       -13.7017
  50   2.0000      -0.494993       -13.4694
  51   2.0000      -0.482083       -13.1182
  52   2.0000      -0.475756       -12.9460
  53   2.0000      -0.467818       -12.7300
  54   2.0000      -0.460658       -12.5351
  55   2.0000      -0.453077       -12.3289
  56   2.0000      -0.438551       -11.9336
  57   2.0000      -0.431886       -11.7522
  58   2.0000      -0.426426       -11.6036
  59   2.0000      -0.423179       -11.5153
  60   2.0000      -0.415280       -11.3003
  61   2.0000      -0.413498       -11.2519
  62   2.0000      -0.406503       -11.0615
  63   2.0000      -0.339019        -9.2252
  64   2.0000      -0.331142        -9.0108
  65   2.0000      -0.321550        -8.7498
  66   2.0000      -0.307340        -8.3631
  67   0.0000       0.039574         1.0769
  68   0.0000       0.064365         1.7515
  69   0.0000       0.114499         3.1157
  70   0.0000       0.125137         3.4051
  71   0.0000       0.132785         3.6133

MULLIKEN ATOMIC CHARGES
-----------------------
   0 S :    0.139046
   1 C :   -0.099281
   2 C :   -0.090646
   3 C :    0.033089
   4 C :   -0.179677
   5 H :    0.020579
   6 C :    0.032931
   7 H :    0.047073
   8 H :    0.039768
   9 C :   -0.111694
  10 H :    0.044465
  11 H :    0.038158
  12 C :   -0.045142
  13 H :    0.025275
  14 H :    0.056195
  15 H :    0.024665
  16 S :    0.094759
  17 C :   -0.080299
  18 C :   -0.018485
  19 C :   -0.039715
  20 C :   -0.165974
  21 H :    0.006792
  22 C :    0.055194
  23 H :    0.023003
  24 H :    0.025087
  25 C :   -0.095834
  26 H :    0.024202
  27 H :    0.024073
  28 C :   -0.030501
  29 H :    0.033178
  30 H :    0.039634
  31 H :    0.047761
  32 H :    0.033227
  33 H :    0.049094
Sum of atomic charges:   -0.0000000

LOEWDIN ATOMIC CHARGES
----------------------
   0 S :    0.448125
   1 C :   -0.209938
   2 C :   -0.063568
   3 C :   -0.062371
   4 C :   -0.212390
   5 H :    0.034368
   6 C :   -0.041138
   7 H :    0.035790
   8 H :    0.038177
   9 C :   -0.046691
  10 H :    0.030139
  11 H :    0.024157
  12 C :   -0.070358
  13 H :    0.023015
  14 H :    0.040419
  15 H :    0.019229
  16 S :    0.412210
  17 C :   -0.176483
  18 C :   -0.069701
  19 C :   -0.050557
  20 C :   -0.214394
  21 H :    0.025434
  22 C :   -0.036138
  23 H :    0.024695
  24 H :    0.031919
  25 C :   -0.051649
  26 H :    0.027247
  27 H :    0.019185
  28 C :   -0.068644
  29 H :    0.028951
  30 H :    0.032677
  31 H :    0.031844
  32 H :    0.023022
  33 H :    0.023419

  Mayer bond orders larger than 0.100000
B(  0-S ,  1-C ) :   1.1650 B(  0-S ,  4-C ) :   1.1662 B(  1-C ,  2-C ) :   1.5949
B(  1-C , 32-H ) :   0.9765 B(  2-C ,  3-C ) :   1.2316 B(  2-C ,  6-C ) :   1.0145
B(  3-C ,  4-C ) :   1.5667 B(  3-C ,  5-H ) :   0.9904 B(  4-C , 20-C ) :   1.0237
B(  6-C ,  7-H ) :   0.9322 B(  6-C ,  8-H ) :   0.9442 B(  6-C ,  9-C ) :   1.0792
B(  9-C , 10-H ) :   0.9505 B(  9-C , 11-H ) :   0.9598 B(  9-C , 12-C ) :   1.0775
B( 12-C , 13-H ) :   0.9744 B( 12-C , 14-H ) :   0.9744 B( 12-C , 15-H ) :   0.9749
B( 16-S , 17-C ) :   1.1621 B( 16-S , 20-C ) :   1.1376 B( 17-C , 18-C ) :   1.6132
B( 17-C , 33-H ) :   0.9716 B( 18-C , 19-C ) :   1.2243 B( 18-C , 21-H ) :   1.0004
B( 19-C , 20-C ) :   1.6074 B( 19-C , 22-C ) :   1.0414 B( 22-C , 23-H ) :   0.9356
B( 22-C , 24-H ) :   0.9340 B( 22-C , 25-C ) :   1.0594 B( 25-C , 26-H ) :   0.9479
B( 25-C , 27-H ) :   0.9559 B( 25-C , 28-C ) :   1.0896 B( 28-C , 29-H ) :   0.9684
B( 28-C , 30-H ) :   0.9704 B( 28-C , 31-H ) :   0.9722

Dispersion correction           -0.014455051
FINAL SINGLE POINT ENERGY     -1339.883443638982

DIPOLE MOMENT
-------------
                                X             Y             Z
Electronic contribution:     -3.49302      14.61118      21.85196
Nuclear contribution   :      3.46829     -14.96626     -22.30168
                        -----------------------------------------
Total Dipole Moment    :     -0.02473      -0.35509      -0.44972
                        -----------------------------------------
Magnitude (a.u.)       :      0.57354
Magnitude (Debye)      :      1.45782

Rotational constants in cm-1:     0.017573     0.008369     0.007529
Rotational constants in MHz :   526.817429   250.902288   225.725083

                             ****ORCA TERMINATED NORMALLY****
TOTAL RUN TIME: 0 days 0 hours 0 minutes 28 seconds 768 msec
