                         Program Version 4.2.1 -  RELEASE  -
|  1> ! wB97X-D3 SP def2-SVP
|  2> %pal
|  3> nprocs 16
|  4> end
|  5>
|  6> * xyz 0 1
|  7> S 	 35.2514 	 -6.2698 	 73.3725
|  8> C 	 35.1558 	 -5.16871 	 74.7824
|  9> C 	 34.7992 	 -3.88524 	 74.301
| 10> C 	 34.6308 	 -3.81365 	 72.8754
| 11> C 	 34.7477 	 -5.02039 	 72.2506
| 12> H 	 34.4492 	 -2.93324 	 72.3301
| 13> C 	 34.4963 	 -2.69829 	 75.2273
| 14> H 	 34.9798 	 -1.74779 	 74.7853
| 15> H 	 34.8182 	 -2.79118 	 76.2746
| 16> C 	 32.9904 	 -2.34344 	 75.2772
| 17> H 	 32.6298 	 -2.07992 	 74.2645
| 18> H 	 32.4167 	 -3.30279 	 75.6185
| 19> C 	 32.5942 	 -1.09282 	 76.0542
| 20> H 	 31.522 	 -0.971503 	 76.1117
| 21> H 	 32.9887 	 -1.08868 	 77.024
| 22> H 	 33.0892 	 -0.207965 	 75.5624
| 23> S 	 33.8383 	 -6.77399 	 70.251
| 24> C 	 34.2735 	 -6.486 	 68.5951
| 25> C 	 34.8252 	 -5.22694 	 68.5072
| 26> C 	 34.996 	 -4.50406 	 69.7422
| 27> C 	 34.6457 	 -5.29535 	 70.8099
| 28> H 	 35.059 	 -4.79761 	 67.5474
| 29> C 	 35.6144 	 -3.12637 	 69.7637
| 30> H 	 36.433 	 -3.05511 	 69.0446
| 31> H 	 36.1876 	 -3.11534 	 70.7279
| 32> C 	 34.6163 	 -2.00376 	 69.5659
| 33> H 	 34.1049 	 -1.79084 	 70.4403
| 34> H 	 33.8767 	 -2.28339 	 68.7953
| 35> C 	 35.3232 	 -0.740713 	 69.0283
| 36> H 	 36.0449 	 -0.781426 	 68.2082
| 37> H 	 35.9406 	 -0.351668 	 69.8456
| 38> H 	 34.6694 	 0.0928093 	 68.7256
| 39> H 	 35.4099 	 -5.54047 	 75.8261
| 40> H 	 33.9342 	 -6.985 	 67.7073
| 41> *
| 42>
| 43>                          ****END OF INPUT****

CARTESIAN COORDINATES (ANGSTROEM)
---------------------------------
  S     35.251400   -6.269800   73.372500
  C     35.155800   -5.168710   74.782400
  C     34.799200   -3.885240   74.301000
  C     34.630800   -3.813650   72.875400
  C     34.747700   -5.020390   72.250600
  H     34.449200   -2.933240   72.330100
  C     34.496300   -2.698290   75.227300
  H     34.979800   -1.747790   74.785300
  H     34.818200   -2.791180   76.274600
  C     32.990400   -2.343440   75.277200
  H     32.629800   -2.079920   74.264500
  H     32.416700   -3.302790   75.618500
  C     32.594200   -1.092820   76.054200
  H     31.522000   -0.971503   76.111700
  H     32.988700   -1.088680   77.024000
  H     33.089200   -0.207965   75.562400
  S     33.838300   -6.773990   70.251000
  C     34.273500   -6.486000   68.595100
  C     34.825200   -5.226940   68.507200
  C     34.996000   -4.504060   69.742200
  C     34.645700   -5.295350   70.809900
  H     35.059000   -4.797610   67.547400
  C     35.614400   -3.126370   69.763700
  H     36.433000   -3.055110   69.044600
  H     36.187600   -3.115340   70.727900
  C     34.616300   -2.003760   69.565900
  H     34.104900   -1.790840   70.440300
  H     33.876700   -2.283390   68.795300
  C     35.323200   -0.740713   69.028300
  H     36.044900   -0.781426   68.208200
  H     35.940600   -0.351668   69.845600
  H     34.669400    0.092809   68.725600
  H     35.409900   -5.540470   75.826100
  H     33.934200   -6.985000   67.707300

 Total Charge           Charge          ....    0
 Multiplicity           Mult            ....    1
 Number of Electrons    NEL             ....  134
 Basis Dimension        Dim             ....  322

ORBITAL ENERGIES
----------------

  NO   OCC          E(Eh)            E(eV)
   0   2.0000     -88.965640     -2420.8781
   1   2.0000     -88.965344     -2420.8701
   2   2.0000     -10.332785      -281.1694
   3   2.0000     -10.330506      -281.1074
   4   2.0000     -10.328526      -281.0535
   5   2.0000     -10.315771      -280.7064
   6   2.0000     -10.312947      -280.6295
   7   2.0000     -10.303361      -280.3687
   8   2.0000     -10.302715      -280.3511
   9   2.0000     -10.295147      -280.1452
  10   2.0000     -10.294106      -280.1169
  11   2.0000     -10.293280      -280.0944
  12   2.0000     -10.291832      -280.0550
  13   2.0000     -10.289800      -279.9997
  14   2.0000     -10.281844      -279.7832
  15   2.0000     -10.277540      -279.6661
  16   2.0000      -8.080156      -219.8722
  17   2.0000      -8.079480      -219.8538
  18   2.0000      -6.038811      -164.3244
  19   2.0000      -6.038118      -164.3056
  20   2.0000      -6.034709      -164.2128
  21   2.0000      -6.033996      -164.1934
  22   2.0000      -6.030746      -164.1049
  23   2.0000      -6.030197      -164.0900
  24   2.0000      -1.006026       -27.3754
  25   2.0000      -0.981919       -26.7194
  26   2.0000      -0.915585       -24.9143
  27   2.0000      -0.906879       -24.6774
  28   2.0000      -0.868667       -23.6376
  29   2.0000      -0.852867       -23.2077
  30   2.0000      -0.843972       -22.9657
  31   2.0000      -0.816123       -22.2078
  32   2.0000      -0.782640       -21.2967
  33   2.0000      -0.771246       -20.9867
  34   2.0000      -0.712705       -19.3937
  35   2.0000      -0.699125       -19.0242
  36   2.0000      -0.686933       -18.6924
  37   2.0000      -0.662535       -18.0285
  38   2.0000      -0.642856       -17.4930
  39   2.0000      -0.625371       -17.0172
  40   2.0000      -0.597020       -16.2457
  41   2.0000      -0.568329       -15.4650
  42   2.0000      -0.564291       -15.3551
  43   2.0000      -0.558241       -15.1905
  44   2.0000      -0.529428       -14.4065
  45   2.0000      -0.525132       -14.2896
  46   2.0000      -0.523130       -14.2351
  47   2.0000      -0.515226       -14.0200
  48   2.0000      -0.507404       -13.8072
  49   2.0000      -0.505345       -13.7511
  50   2.0000      -0.494370       -13.4525
  51   2.0000      -0.474773       -12.9192
  52   2.0000      -0.471019       -12.8171
  53   2.0000      -0.460919       -12.5423
  54   2.0000      -0.458989       -12.4897
  55   2.0000      -0.454041       -12.3551
  56   2.0000      -0.445473       -12.1219
  57   2.0000      -0.442269       -12.0348
  58   2.0000      -0.428307       -11.6548
  59   2.0000      -0.423649       -11.5281
  60   2.0000      -0.418036       -11.3753
  61   2.0000      -0.413466       -11.2510
  62   2.0000      -0.411270       -11.1912
  63   2.0000      -0.353999        -9.6328
  64   2.0000      -0.331626        -9.0240
  65   2.0000      -0.328486        -8.9386
  66   2.0000      -0.292568        -7.9612
  67   0.0000       0.025726         0.7000
  68   0.0000       0.074860         2.0371
  69   0.0000       0.109453         2.9784
  70   0.0000       0.115681         3.1478
  71   0.0000       0.132149         3.5959

MULLIKEN ATOMIC CHARGES
-----------------------
   0 S :    0.095567
   1 C :   -0.157944
   2 C :   -0.047890
   3 C :    0.040991
   4 C :   -0.118857
   5 H :   -0.031253
   6 C :    0.034389
   7 H :    0.031502
   8 H :    0.029652
   9 C :   -0.136596
  10 H :    0.031060
  11 H :    0.046132
  12 C :   -0.016008
  13 H :    0.043706
  14 H :    0.012141
  15 H :    0.027166
  16 S :    0.105693
  17 C :   -0.069009
  18 C :   -0.042264
  19 C :   -0.038318
  20 C :   -0.144261
  21 H :    0.008773
  22 C :    0.023261
  23 H :    0.023278
  24 H :    0.040072
  25 C :   -0.005216
  26 H :    0.023266
  27 H :    0.037797
  28 C :   -0.080151
  29 H :    0.031578
  30 H :    0.022220
  31 H :    0.035934
  32 H :    0.085517
  33 H :    0.058073
Sum of atomic charges:    0.0000000

LOEWDIN ATOMIC CHARGES
----------------------
   0 S :    0.388165
   1 C :   -0.198944
   2 C :   -0.056203
   3 C :   -0.062118
   4 C :   -0.181187
   5 H :    0.022373
   6 C :   -0.039071
   7 H :    0.035516
   8 H :    0.029080
   9 C :   -0.054007
  10 H :    0.022590
  11 H :    0.031584
  12 C :   -0.063725
  13 H :    0.029965
  14 H :    0.012493
  15 H :    0.030740
  16 S :    0.399155
  17 C :   -0.192053
  18 C :   -0.067513
  19 C :   -0.056981
  20 C :   -0.188184
  21 H :    0.025378
  22 C :   -0.036350
  23 H :    0.031318
  24 H :    0.038864
  25 C :   -0.029358
  26 H :    0.014600
  27 H :    0.031179
  28 C :   -0.074850
  29 H :    0.024873
  30 H :    0.025145
  31 H :    0.027503
  32 H :    0.046190
  33 H :    0.033836

  Mayer bond orders larger than 0.100000
B(  0-S ,  1-C ) :   1.1250 B(  0-S ,  4-C ) :   1.1566 B(  1-C ,  2-C ) :   1.5893
B(  1-C , 32-H ) :   0.9664 B(  2-C ,  3-C ) :   1.2285 B(  2-C ,  6-C ) :   1.0363
B(  3-C ,  4-C ) :   1.5683 B(  3-C ,  5-H ) :   1.0045 B(  4-C , 20-C ) :   1.0343
B(  6-C ,  7-H ) :   0.9360 B(  6-C ,  8-H ) :   0.9496 B(  6-C ,  9-C ) :   1.0542
B(  9-C , 10-H ) :   0.9572 B(  9-C , 11-H ) :   0.9528 B(  9-C , 12-C ) :   1.0810
B( 12-C , 13-H ) :   0.9731 B( 12-C , 14-H ) :   0.9740 B( 12-C , 15-H ) :   0.9701
B( 16-S , 17-C ) :   1.1372 B( 16-S , 20-C ) :   1.1382 B( 17-C , 18-C ) :   1.6177
B( 17-C , 33-H ) :   0.9675 B( 18-C , 19-C ) :   1.2418 B( 18-C , 21-H ) :   0.9871
B( 19-C , 20-C ) :   1.6006 B( 19-C , 22-C ) :   1.0401 B( 22-C , 23-H ) :   0.9453
B( 22-C , 24-H ) :   0.9258 B( 22-C , 25-C ) :   1.0491 B( 25-C , 26-H ) :   0.9488
B( 25-C , 27-H ) :   0.9582 B( 25-C , 28-C ) :   1.0740 B( 28-C , 29-H ) :   0.9790
B( 28-C , 30-H ) :   0.9730 B( 28-C , 31-H ) :   0.9760

Dispersion correction           -0.013908287
FINAL SINGLE POINT ENERGY     -1339.879250833946

DIPOLE MOMENT
-------------
                                X             Y             Z
Electronic contribution:      2.88411     -31.13291      -4.38128
Nuclear contribution   :     -2.89718      31.91101       4.27807
                        -----------------------------------------
Total Dipole Moment    :     -0.01307       0.77810      -0.10321
                        -----------------------------------------
Magnitude (a.u.)       :      0.78503
Magnitude (Debye)      :      1.99538

Rotational constants in cm-1:     0.016547     0.009042     0.006524
Rotational constants in MHz :   496.056362   271.063506   195.574553

                             ****ORCA TERMINATED NORMALLY****
TOTAL RUN TIME: 0 days 0 hours 0 minutes 28 seconds 315 msec
