                         Program Version 4.2.1 -  RELEASE  -
|  1> ! wB97X-D3 SP def2-SVP
|  2> %pal
|  3> nprocs 16
|  4> end
|  5>
|  6> * xyz 0 1
|  7> S 	 48.3444 	 11.0382 	 51.7811
|  8> C 	 47.5327 	 9.9763 	 50.6201
|  9> C 	 47.6357 	 10.5044 	 49.3244
| 10> C 	 48.5445 	 11.6007 	 49.268
| 11> C 	 49.0445 	 11.9131 	 50.4822
| 12> H 	 48.8204 	 12.1366 	 48.3421
| 13> C 	 46.8024 	 10.1103 	 48.1631
| 14> H 	 46.4703 	 9.12987 	 48.3906
| 15> H 	 47.3821 	 10.1761 	 47.2209
| 16> C 	 45.6776 	 10.9567 	 47.7951
| 17> H 	 45.9858 	 12.0495 	 47.8823
| 18> H 	 45.4262 	 10.7989 	 46.7562
| 19> C 	 44.3203 	 10.695 	 48.5917
| 20> H 	 44.4756 	 10.2602 	 49.5868
| 21> H 	 43.8471 	 11.6796 	 48.6281
| 22> H 	 43.6346 	 9.95299 	 48.0752
| 23> S 	 51.3476 	 13.0232 	 51.3994
| 24> C 	 51.6441 	 14.7301 	 51.3351
| 25> C 	 50.5519 	 15.4401 	 50.9242
| 26> C 	 49.5122 	 14.5519 	 50.5073
| 27> C 	 49.7497 	 13.21 	 50.7279
| 28> H 	 50.6005 	 16.508 	 50.924
| 29> C 	 48.2918 	 15.2131 	 49.9531
| 30> H 	 48.0727 	 14.6514 	 48.9652
| 31> H 	 48.6132 	 16.1636 	 49.6293
| 32> C 	 47.0828 	 15.4865 	 50.8662
| 33> H 	 46.3208 	 16.0311 	 50.3069
| 34> H 	 47.4464 	 16.0986 	 51.6589
| 35> C 	 46.3758 	 14.1996 	 51.397
| 36> H 	 45.563 	 14.4031 	 52.0873
| 37> H 	 47.1573 	 13.5682 	 51.8096
| 38> H 	 45.8968 	 13.6528 	 50.6311
| 39> H 	 46.7227 	 9.31108 	 50.8545
| 40> H 	 52.5965 	 15.1752 	 51.7199
| 41> *
| 42>
| 43>                          ****END OF INPUT****

CARTESIAN COORDINATES (ANGSTROEM)
---------------------------------
  S     48.344400   11.038200   51.781100
  C     47.532700    9.976300   50.620100
  C     47.635700   10.504400   49.324400
  C     48.544500   11.600700   49.268000
  C     49.044500   11.913100   50.482200
  H     48.820400   12.136600   48.342100
  C     46.802400   10.110300   48.163100
  H     46.470300    9.129870   48.390600
  H     47.382100   10.176100   47.220900
  C     45.677600   10.956700   47.795100
  H     45.985800   12.049500   47.882300
  H     45.426200   10.798900   46.756200
  C     44.320300   10.695000   48.591700
  H     44.475600   10.260200   49.586800
  H     43.847100   11.679600   48.628100
  H     43.634600    9.952990   48.075200
  S     51.347600   13.023200   51.399400
  C     51.644100   14.730100   51.335100
  C     50.551900   15.440100   50.924200
  C     49.512200   14.551900   50.507300
  C     49.749700   13.210000   50.727900
  H     50.600500   16.508000   50.924000
  C     48.291800   15.213100   49.953100
  H     48.072700   14.651400   48.965200
  H     48.613200   16.163600   49.629300
  C     47.082800   15.486500   50.866200
  H     46.320800   16.031100   50.306900
  H     47.446400   16.098600   51.658900
  C     46.375800   14.199600   51.397000
  H     45.563000   14.403100   52.087300
  H     47.157300   13.568200   51.809600
  H     45.896800   13.652800   50.631100
  H     46.722700    9.311080   50.854500
  H     52.596500   15.175200   51.719900

 Total Charge           Charge          ....    0
 Multiplicity           Mult            ....    1
 Number of Electrons    NEL             ....  134
 Basis Dimension        Dim             ....  322

ORBITAL ENERGIES
----------------

  NO   OCC          E(Eh)            E(eV)
   0   2.0000     -88.971720     -2421.0436
   1   2.0000     -88.960316     -2420.7333
   2   2.0000     -10.327867      -281.0355
   3   2.0000     -10.325975      -280.9841
   4   2.0000     -10.316545      -280.7275
   5   2.0000     -10.315954      -280.7114
   6   2.0000     -10.302518      -280.3458
   7   2.0000     -10.301699      -280.3235
   8   2.0000     -10.293174      -280.0915
   9   2.0000     -10.290890      -280.0293
  10   2.0000     -10.290708      -280.0244
  11   2.0000     -10.288314      -279.9592
  12   2.0000     -10.286072      -279.8982
  13   2.0000     -10.284697      -279.8608
  14   2.0000     -10.283757      -279.8353
  15   2.0000     -10.264736      -279.3177
  16   2.0000      -8.086075      -220.0333
  17   2.0000      -8.075890      -219.7561
  18   2.0000      -6.044541      -164.4803
  19   2.0000      -6.040782      -164.3780
  20   2.0000      -6.036711      -164.2673
  21   2.0000      -6.034300      -164.2016
  22   2.0000      -6.030166      -164.0892
  23   2.0000      -6.026827      -163.9983
  24   2.0000      -1.011865       -27.5342
  25   2.0000      -0.990091       -26.9418
  26   2.0000      -0.924105       -25.1462
  27   2.0000      -0.905681       -24.6448
  28   2.0000      -0.867340       -23.6015
  29   2.0000      -0.850167       -23.1342
  30   2.0000      -0.844525       -22.9807
  31   2.0000      -0.815536       -22.1919
  32   2.0000      -0.785843       -21.3839
  33   2.0000      -0.774658       -21.0795
  34   2.0000      -0.709201       -19.2983
  35   2.0000      -0.697765       -18.9871
  36   2.0000      -0.687919       -18.7192
  37   2.0000      -0.663002       -18.0412
  38   2.0000      -0.638777       -17.3820
  39   2.0000      -0.625724       -17.0268
  40   2.0000      -0.589931       -16.0528
  41   2.0000      -0.574247       -15.6260
  42   2.0000      -0.554176       -15.0799
  43   2.0000      -0.549523       -14.9533
  44   2.0000      -0.543468       -14.7885
  45   2.0000      -0.537638       -14.6299
  46   2.0000      -0.525230       -14.2922
  47   2.0000      -0.509979       -13.8772
  48   2.0000      -0.505491       -13.7551
  49   2.0000      -0.497285       -13.5318
  50   2.0000      -0.486722       -13.2444
  51   2.0000      -0.480055       -13.0630
  52   2.0000      -0.474988       -12.9251
  53   2.0000      -0.463106       -12.6018
  54   2.0000      -0.459206       -12.4956
  55   2.0000      -0.453666       -12.3449
  56   2.0000      -0.442522       -12.0416
  57   2.0000      -0.437782       -11.9126
  58   2.0000      -0.431542       -11.7429
  59   2.0000      -0.421580       -11.4718
  60   2.0000      -0.417902       -11.3717
  61   2.0000      -0.410253       -11.1636
  62   2.0000      -0.406960       -11.0739
  63   2.0000      -0.341085        -9.2814
  64   2.0000      -0.331510        -9.0208
  65   2.0000      -0.327864        -8.9216
  66   2.0000      -0.303649        -8.2627
  67   0.0000       0.037269         1.0141
  68   0.0000       0.060320         1.6414
  69   0.0000       0.105979         2.8838
  70   0.0000       0.120412         3.2766
  71   0.0000       0.121730         3.3125

MULLIKEN ATOMIC CHARGES
-----------------------
   0 S :    0.121292
   1 C :   -0.094451
   2 C :   -0.118316
   3 C :    0.018462
   4 C :   -0.100051
   5 H :    0.028164
   6 C :    0.095363
   7 H :    0.009587
   8 H :    0.026969
   9 C :   -0.087826
  10 H :    0.035343
  11 H :    0.030823
  12 C :   -0.084984
  13 H :    0.031699
  14 H :    0.044021
  15 H :    0.043258
  16 S :    0.097590
  17 C :   -0.106900
  18 C :   -0.032374
  19 C :   -0.058749
  20 C :   -0.183106
  21 H :    0.017277
  22 C :    0.067558
  23 H :    0.027769
  24 H :   -0.004251
  25 C :   -0.030923
  26 H :    0.028045
  27 H :    0.019217
  28 C :   -0.028466
  29 H :    0.029643
  30 H :    0.030151
  31 H :    0.011819
  32 H :    0.046213
  33 H :    0.070133
Sum of atomic charges:    0.0000000

LOEWDIN ATOMIC CHARGES
----------------------
   0 S :    0.429922
   1 C :   -0.199714
   2 C :   -0.052302
   3 C :   -0.061383
   4 C :   -0.206171
   5 H :    0.039298
   6 C :   -0.039570
   7 H :    0.026055
   8 H :    0.041001
   9 C :   -0.041962
  10 H :    0.029021
  11 H :    0.024197
  12 C :   -0.075197
  13 H :    0.020809
  14 H :    0.029437
  15 H :    0.031060
  16 S :    0.413360
  17 C :   -0.189296
  18 C :   -0.074974
  19 C :   -0.060929
  20 C :   -0.205797
  21 H :    0.032412
  22 C :   -0.036343
  23 H :    0.035564
  24 H :    0.021962
  25 C :   -0.028926
  26 H :    0.024544
  27 H :    0.020198
  28 C :   -0.064689
  29 H :    0.025154
  30 H :    0.015722
  31 H :    0.017633
  32 H :    0.023758
  33 H :    0.036147

  Mayer bond orders larger than 0.100000
B(  0-S ,  1-C ) :   1.1266 B(  0-S ,  4-C ) :   1.1810 B(  1-C ,  2-C ) :   1.6156
B(  1-C , 32-H ) :   0.9627 B(  2-C ,  3-C ) :   1.2254 B(  2-C ,  6-C ) :   1.0538
B(  3-C ,  4-C ) :   1.5798 B(  3-C ,  5-H ) :   0.9982 B(  4-C , 20-C ) :   0.9783
B(  6-C ,  7-H ) :   0.9331 B(  6-C ,  8-H ) :   0.9293 B(  6-C ,  9-C ) :   1.0782
B(  9-C , 10-H ) :   0.9558 B(  9-C , 11-H ) :   0.9583 B(  9-C , 12-C ) :   1.0544
B( 12-C , 13-H ) :   0.9817 B( 12-C , 14-H ) :   0.9777 B( 12-C , 15-H ) :   0.9777
B( 16-S , 17-C ) :   1.1762 B( 16-S , 20-C ) :   1.1419 B( 17-C , 18-C ) :   1.6062
B( 17-C , 33-H ) :   0.9590 B( 18-C , 19-C ) :   1.2336 B( 18-C , 21-H ) :   0.9978
B( 19-C , 20-C ) :   1.6156 B( 19-C , 22-C ) :   1.0410 B( 22-C , 23-H ) :   0.9329
B( 22-C , 24-H ) :   0.9206 B( 22-C , 25-C ) :   1.0779 B( 25-C , 26-H ) :   0.9541
B( 25-C , 27-H ) :   0.9507 B( 25-C , 28-C ) :   1.0814 B( 28-C , 29-H ) :   0.9730
B( 28-C , 30-H ) :   0.9720 B( 28-C , 31-H ) :   0.9740

Dispersion correction           -0.016416155
FINAL SINGLE POINT ENERGY     -1339.865783268358

DIPOLE MOMENT
-------------
                                X             Y             Z
Electronic contribution:     24.69824      -4.64100      12.12654
Nuclear contribution   :    -25.19031       5.02609     -12.59362
                        -----------------------------------------
Total Dipole Moment    :     -0.49207       0.38509      -0.46708
                        -----------------------------------------
Magnitude (a.u.)       :      0.78012
Magnitude (Debye)      :      1.98291

Rotational constants in cm-1:     0.022044     0.009406     0.007896
Rotational constants in MHz :   660.860734   281.980215   236.721795

                             ****ORCA TERMINATED NORMALLY****
TOTAL RUN TIME: 0 days 0 hours 0 minutes 38 seconds 122 msec
