                         Program Version 4.2.1 -  RELEASE  -
|  1> ! wB97X-D3 SP def2-SVP
|  2> %pal
|  3> nprocs 16
|  4> end
|  5>
|  6> * xyz 0 1
|  7> S 	 -14.8268 	 -10.2586 	 83.5902
|  8> C 	 -15.7957 	 -10.8477 	 84.9185
|  9> C 	 -15.0053 	 -11.0476 	 86.0871
| 10> C 	 -13.6379 	 -10.6947 	 85.8416
| 11> C 	 -13.3608 	 -10.3363 	 84.5532
| 12> H 	 -12.7895 	 -10.8283 	 86.5499
| 13> C 	 -15.4083 	 -11.7669 	 87.3694
| 14> H 	 -15.1872 	 -12.8409 	 87.0848
| 15> H 	 -16.4356 	 -11.6725 	 87.5278
| 16> C 	 -14.6602 	 -11.4161 	 88.6914
| 17> H 	 -13.6243 	 -11.4082 	 88.5455
| 18> H 	 -14.9297 	 -10.4493 	 89.1181
| 19> C 	 -14.9047 	 -12.4232 	 89.8223
| 20> H 	 -14.6604 	 -12.0022 	 90.8222
| 21> H 	 -15.9584 	 -12.5458 	 89.8442
| 22> H 	 -14.3245 	 -13.3634 	 89.8241
| 23> S 	 -11.7507 	 -10.9037 	 82.4198
| 24> C 	 -10.0708 	 -10.4915 	 82.4684
| 25> C 	 -9.85674 	 -9.53837 	 83.4616
| 26> C 	 -10.9593 	 -9.27839 	 84.3563
| 27> C 	 -12.0789 	 -10.007 	 83.9262
| 28> H 	 -8.88208 	 -9.17386 	 83.505
| 29> C 	 -10.9481 	 -8.37513 	 85.5493
| 30> H 	 -11.9481 	 -8.39333 	 86.0193
| 31> H 	 -10.7165 	 -7.32275 	 85.2996
| 32> C 	 -9.8475 	 -8.68369 	 86.6157
| 33> H 	 -9.59599 	 -7.8054 	 87.1332
| 34> H 	 -8.91141 	 -8.92001 	 86.1043
| 35> C 	 -10.2988 	 -9.82635 	 87.5146
| 36> H 	 -9.71743 	 -10.0156 	 88.3019
| 37> H 	 -10.3994 	 -10.7666 	 86.9768
| 38> H 	 -11.2871 	 -9.63957 	 87.9044
| 39> H 	 -16.7237 	 -11.2203 	 84.8017
| 40> H 	 -9.36078 	 -10.7754 	 81.7884
| 41> *
| 42>
| 43>                          ****END OF INPUT****

CARTESIAN COORDINATES (ANGSTROEM)
---------------------------------
  S    -14.826800  -10.258600   83.590200
  C    -15.795700  -10.847700   84.918500
  C    -15.005300  -11.047600   86.087100
  C    -13.637900  -10.694700   85.841600
  C    -13.360800  -10.336300   84.553200
  H    -12.789500  -10.828300   86.549900
  C    -15.408300  -11.766900   87.369400
  H    -15.187200  -12.840900   87.084800
  H    -16.435600  -11.672500   87.527800
  C    -14.660200  -11.416100   88.691400
  H    -13.624300  -11.408200   88.545500
  H    -14.929700  -10.449300   89.118100
  C    -14.904700  -12.423200   89.822300
  H    -14.660400  -12.002200   90.822200
  H    -15.958400  -12.545800   89.844200
  H    -14.324500  -13.363400   89.824100
  S    -11.750700  -10.903700   82.419800
  C    -10.070800  -10.491500   82.468400
  C     -9.856740   -9.538370   83.461600
  C    -10.959300   -9.278390   84.356300
  C    -12.078900  -10.007000   83.926200
  H     -8.882080   -9.173860   83.505000
  C    -10.948100   -8.375130   85.549300
  H    -11.948100   -8.393330   86.019300
  H    -10.716500   -7.322750   85.299600
  C     -9.847500   -8.683690   86.615700
  H     -9.595990   -7.805400   87.133200
  H     -8.911410   -8.920010   86.104300
  C    -10.298800   -9.826350   87.514600
  H     -9.717430  -10.015600   88.301900
  H    -10.399400  -10.766600   86.976800
  H    -11.287100   -9.639570   87.904400
  H    -16.723700  -11.220300   84.801700
  H     -9.360780  -10.775400   81.788400

 Total Charge           Charge          ....    0
 Multiplicity           Mult            ....    1
 Number of Electrons    NEL             ....  134
 Basis Dimension        Dim             ....  322

ORBITAL ENERGIES
----------------

  NO   OCC          E(Eh)            E(eV)
   0   2.0000     -88.964174     -2420.8382
   1   2.0000     -88.964139     -2420.8373
   2   2.0000     -10.330252      -281.1004
   3   2.0000     -10.328059      -281.0408
   4   2.0000     -10.313102      -280.6338
   5   2.0000     -10.310517      -280.5634
   6   2.0000     -10.307604      -280.4842
   7   2.0000     -10.307035      -280.4687
   8   2.0000     -10.296962      -280.1946
   9   2.0000     -10.295115      -280.1443
  10   2.0000     -10.292980      -280.0862
  11   2.0000     -10.292531      -280.0740
  12   2.0000     -10.286818      -279.9185
  13   2.0000     -10.284782      -279.8632
  14   2.0000     -10.279171      -279.7104
  15   2.0000     -10.266471      -279.3649
  16   2.0000      -8.078832      -219.8362
  17   2.0000      -8.078807      -219.8355
  18   2.0000      -6.037374      -164.2853
  19   2.0000      -6.037309      -164.2835
  20   2.0000      -6.033320      -164.1750
  21   2.0000      -6.033309      -164.1747
  22   2.0000      -6.029618      -164.0742
  23   2.0000      -6.029575      -164.0731
  24   2.0000      -1.003377       -27.3033
  25   2.0000      -0.979965       -26.6662
  26   2.0000      -0.912065       -24.8186
  27   2.0000      -0.909771       -24.7561
  28   2.0000      -0.869090       -23.6491
  29   2.0000      -0.853356       -23.2210
  30   2.0000      -0.845936       -23.0191
  31   2.0000      -0.816792       -22.2260
  32   2.0000      -0.785949       -21.3868
  33   2.0000      -0.773149       -21.0385
  34   2.0000      -0.716515       -19.4974
  35   2.0000      -0.706956       -19.2373
  36   2.0000      -0.697478       -18.9794
  37   2.0000      -0.657529       -17.8923
  38   2.0000      -0.646174       -17.5833
  39   2.0000      -0.621472       -16.9111
  40   2.0000      -0.601538       -16.3687
  41   2.0000      -0.571731       -15.5576
  42   2.0000      -0.561712       -15.2850
  43   2.0000      -0.560877       -15.2622
  44   2.0000      -0.540000       -14.6942
  45   2.0000      -0.529189       -14.4000
  46   2.0000      -0.523073       -14.2335
  47   2.0000      -0.512940       -13.9578
  48   2.0000      -0.506579       -13.7847
  49   2.0000      -0.499458       -13.5909
  50   2.0000      -0.491991       -13.3878
  51   2.0000      -0.478115       -13.0102
  52   2.0000      -0.471642       -12.8340
  53   2.0000      -0.464951       -12.6520
  54   2.0000      -0.458501       -12.4765
  55   2.0000      -0.454489       -12.3673
  56   2.0000      -0.442571       -12.0430
  57   2.0000      -0.435184       -11.8420
  58   2.0000      -0.431719       -11.7477
  59   2.0000      -0.430393       -11.7116
  60   2.0000      -0.424746       -11.5579
  61   2.0000      -0.421593       -11.4721
  62   2.0000      -0.417405       -11.3582
  63   2.0000      -0.346069        -9.4170
  64   2.0000      -0.328496        -8.9388
  65   2.0000      -0.327199        -8.9035
  66   2.0000      -0.288012        -7.8372
  67   0.0000       0.027993         0.7617
  68   0.0000       0.067407         1.8342
  69   0.0000       0.112351         3.0572
  70   0.0000       0.120942         3.2910
  71   0.0000       0.126465         3.4413

MULLIKEN ATOMIC CHARGES
-----------------------
   0 S :    0.104503
   1 C :   -0.073566
   2 C :   -0.094146
   3 C :    0.006893
   4 C :   -0.139737
   5 H :    0.001717
   6 C :    0.061818
   7 H :    0.058220
   8 H :    0.014062
   9 C :   -0.061862
  10 H :    0.019996
  11 H :    0.035215
  12 C :   -0.062740
  13 H :    0.027248
  14 H :    0.021410
  15 H :    0.042949
  16 S :    0.100993
  17 C :   -0.059854
  18 C :   -0.030106
  19 C :    0.005776
  20 C :   -0.157306
  21 H :   -0.004223
  22 C :    0.032365
  23 H :    0.035115
  24 H :    0.038749
  25 C :   -0.057553
  26 H :    0.013968
  27 H :    0.023300
  28 C :    0.007348
  29 H :    0.001231
  30 H :    0.039957
  31 H :    0.015770
  32 H :    0.004737
  33 H :    0.027754
Sum of atomic charges:   -0.0000000

LOEWDIN ATOMIC CHARGES
----------------------
   0 S :    0.404342
   1 C :   -0.191828
   2 C :   -0.051771
   3 C :   -0.077636
   4 C :   -0.189547
   5 H :    0.034710
   6 C :   -0.028730
   7 H :    0.048655
   8 H :    0.020409
   9 C :   -0.035961
  10 H :    0.013005
  11 H :    0.029016
  12 C :   -0.066425
  13 H :    0.029640
  14 H :    0.018843
  15 H :    0.027927
  16 S :    0.401264
  17 C :   -0.173263
  18 C :   -0.063322
  19 C :   -0.050994
  20 C :   -0.187704
  21 H :    0.018338
  22 C :   -0.031165
  23 H :    0.034336
  24 H :    0.038615
  25 C :   -0.030236
  26 H :    0.016324
  27 H :    0.023829
  28 C :   -0.054776
  29 H :    0.007510
  30 H :    0.029591
  31 H :    0.021883
  32 H :    0.001771
  33 H :    0.013352

  Mayer bond orders larger than 0.100000
B(  0-S ,  1-C ) :   1.1370 B(  0-S ,  4-C ) :   1.1546 B(  1-C ,  2-C ) :   1.5961
B(  1-C ,  4-C ) :   0.1027 B(  1-C , 32-H ) :   0.9827 B(  2-C ,  3-C ) :   1.2417
B(  2-C ,  6-C ) :   1.0182 B(  3-C ,  4-C ) :   1.5996 B(  3-C ,  5-H ) :   0.9773
B(  4-C , 20-C ) :   1.0124 B(  6-C ,  7-H ) :   0.9405 B(  6-C ,  8-H ) :   0.9389
B(  6-C ,  9-C ) :   1.0613 B(  9-C , 10-H ) :   0.9526 B(  9-C , 11-H ) :   0.9577
B(  9-C , 12-C ) :   1.0881 B( 12-C , 13-H ) :   0.9734 B( 12-C , 14-H ) :   0.9756
B( 12-C , 15-H ) :   0.9762 B( 16-S , 17-C ) :   1.1561 B( 16-S , 20-C ) :   1.1407
B( 17-C , 18-C ) :   1.6130 B( 17-C , 20-C ) :   0.1008 B( 17-C , 33-H ) :   0.9791
B( 18-C , 19-C ) :   1.2080 B( 18-C , 21-H ) :   0.9982 B( 19-C , 20-C ) :   1.5784
B( 19-C , 22-C ) :   1.0576 B( 22-C , 23-H ) :   0.9408 B( 22-C , 24-H ) :   0.9324
B( 22-C , 25-C ) :   1.0642 B( 25-C , 26-H ) :   0.9569 B( 25-C , 27-H ) :   0.9560
B( 25-C , 28-C ) :   1.0774 B( 28-C , 29-H ) :   0.9655 B( 28-C , 30-H ) :   0.9683
B( 28-C , 31-H ) :   0.9678

Dispersion correction           -0.014767937
FINAL SINGLE POINT ENERGY     -1339.863109464921

DIPOLE MOMENT
-------------
                                X             Y             Z
Electronic contribution:     -4.12703       1.53989     -31.34757
Nuclear contribution   :      4.53063      -1.60042      32.02907
                        -----------------------------------------
Total Dipole Moment    :      0.40360      -0.06053       0.68149
                        -----------------------------------------
Magnitude (a.u.)       :      0.79435
Magnitude (Debye)      :      2.01907

Rotational constants in cm-1:     0.017608     0.009559     0.006860
Rotational constants in MHz :   527.882562   286.569360   205.669991

                             ****ORCA TERMINATED NORMALLY****
TOTAL RUN TIME: 0 days 0 hours 0 minutes 33 seconds 168 msec
