                         Program Version 4.2.1 -  RELEASE  -
|  1> ! wB97X-D3 SP def2-SVP
|  2> %pal
|  3> nprocs 16
|  4> end
|  5>
|  6> * xyz 0 1
|  7> S 	 34.7124 	 0.792117 	 75.0119
|  8> C 	 34.4429 	 -0.797249 	 74.6212
|  9> C 	 34.0749 	 -1.57055 	 75.7232
| 10> C 	 33.9608 	 -0.686842 	 76.8733
| 11> C 	 34.7008 	 0.439206 	 76.7674
| 12> H 	 33.5368 	 -1.02864 	 77.7644
| 13> C 	 33.4089 	 -2.96472 	 75.669
| 14> H 	 32.7715 	 -3.1138 	 76.5352
| 15> H 	 34.1787 	 -3.69615 	 75.7093
| 16> C 	 32.5553 	 -3.25071 	 74.3864
| 17> H 	 33.1438 	 -3.45785 	 73.5159
| 18> H 	 32.039 	 -4.23062 	 74.57
| 19> C 	 31.4614 	 -2.22164 	 74.155
| 20> H 	 31.8311 	 -1.31493 	 73.7432
| 21> H 	 30.7265 	 -2.57186 	 73.4364
| 22> H 	 30.8892 	 -1.9804 	 75.0511
| 23> S 	 34.5014 	 3.0375 	 77.5789
| 24> C 	 34.8525 	 3.43501 	 79.2904
| 25> C 	 35.2389 	 2.34658 	 80.037
| 26> C 	 35.3709 	 1.2056 	 79.1944
| 27> C 	 34.9589 	 1.37409 	 77.8644
| 28> H 	 35.5047 	 2.53448 	 81.0716
| 29> C 	 35.7406 	 -0.143335 	 79.8136
| 30> H 	 34.7955 	 -0.627575 	 79.9332
| 31> H 	 36.098 	 -0.0449404 	 80.9324
| 32> C 	 36.7137 	 -1.11916 	 79.184
| 33> H 	 37.7354 	 -0.736625 	 79.2035
| 34> H 	 36.4794 	 -1.29571 	 78.1597
| 35> C 	 36.8568 	 -2.48022 	 79.8539
| 36> H 	 37.4524 	 -2.56076 	 80.8338
| 37> H 	 37.3035 	 -3.21068 	 79.1931
| 38> H 	 35.8705 	 -2.95926 	 80.1136
| 39> H 	 34.555 	 -1.19212 	 73.5867
| 40> H 	 34.4634 	 4.25845 	 79.845
| 41> *
| 42>
| 43>                          ****END OF INPUT****

CARTESIAN COORDINATES (ANGSTROEM)
---------------------------------
  S     34.712400    0.792117   75.011900
  C     34.442900   -0.797249   74.621200
  C     34.074900   -1.570550   75.723200
  C     33.960800   -0.686842   76.873300
  C     34.700800    0.439206   76.767400
  H     33.536800   -1.028640   77.764400
  C     33.408900   -2.964720   75.669000
  H     32.771500   -3.113800   76.535200
  H     34.178700   -3.696150   75.709300
  C     32.555300   -3.250710   74.386400
  H     33.143800   -3.457850   73.515900
  H     32.039000   -4.230620   74.570000
  C     31.461400   -2.221640   74.155000
  H     31.831100   -1.314930   73.743200
  H     30.726500   -2.571860   73.436400
  H     30.889200   -1.980400   75.051100
  S     34.501400    3.037500   77.578900
  C     34.852500    3.435010   79.290400
  C     35.238900    2.346580   80.037000
  C     35.370900    1.205600   79.194400
  C     34.958900    1.374090   77.864400
  H     35.504700    2.534480   81.071600
  C     35.740600   -0.143335   79.813600
  H     34.795500   -0.627575   79.933200
  H     36.098000   -0.044940   80.932400
  C     36.713700   -1.119160   79.184000
  H     37.735400   -0.736625   79.203500
  H     36.479400   -1.295710   78.159700
  C     36.856800   -2.480220   79.853900
  H     37.452400   -2.560760   80.833800
  H     37.303500   -3.210680   79.193100
  H     35.870500   -2.959260   80.113600
  H     34.555000   -1.192120   73.586700
  H     34.463400    4.258450   79.845000

 Total Charge           Charge          ....    0
 Multiplicity           Mult            ....    1
 Number of Electrons    NEL             ....  134
 Basis Dimension        Dim             ....  322

ORBITAL ENERGIES
----------------

  NO   OCC          E(Eh)            E(eV)
   0   2.0000     -88.967283     -2420.9229
   1   2.0000     -88.964576     -2420.8492
   2   2.0000     -10.331767      -281.1417
   3   2.0000     -10.330174      -281.0983
   4   2.0000     -10.316561      -280.7279
   5   2.0000     -10.314245      -280.6649
   6   2.0000     -10.310992      -280.5764
   7   2.0000     -10.301828      -280.3270
   8   2.0000     -10.296934      -280.1938
   9   2.0000     -10.295418      -280.1526
  10   2.0000     -10.294914      -280.1388
  11   2.0000     -10.290379      -280.0154
  12   2.0000     -10.290116      -280.0083
  13   2.0000     -10.283319      -279.8233
  14   2.0000     -10.279009      -279.7061
  15   2.0000     -10.270251      -279.4677
  16   2.0000      -8.081515      -219.9092
  17   2.0000      -8.080678      -219.8864
  18   2.0000      -6.040113      -164.3598
  19   2.0000      -6.039246      -164.3362
  20   2.0000      -6.036132      -164.2515
  21   2.0000      -6.035236      -164.2271
  22   2.0000      -6.032170      -164.1437
  23   2.0000      -6.031032      -164.1127
  24   2.0000      -1.012132       -27.5415
  25   2.0000      -0.987427       -26.8693
  26   2.0000      -0.907256       -24.6877
  27   2.0000      -0.904630       -24.6162
  28   2.0000      -0.876028       -23.8379
  29   2.0000      -0.853618       -23.2281
  30   2.0000      -0.844547       -22.9813
  31   2.0000      -0.818290       -22.2668
  32   2.0000      -0.781761       -21.2728
  33   2.0000      -0.768559       -20.9136
  34   2.0000      -0.708004       -19.2658
  35   2.0000      -0.702410       -19.1136
  36   2.0000      -0.687482       -18.7073
  37   2.0000      -0.665522       -18.1098
  38   2.0000      -0.643128       -17.5004
  39   2.0000      -0.616922       -16.7873
  40   2.0000      -0.590218       -16.0607
  41   2.0000      -0.576049       -15.6751
  42   2.0000      -0.561997       -15.2927
  43   2.0000      -0.555313       -15.1108
  44   2.0000      -0.539704       -14.6861
  45   2.0000      -0.524343       -14.2681
  46   2.0000      -0.509703       -13.8697
  47   2.0000      -0.506469       -13.7817
  48   2.0000      -0.503144       -13.6912
  49   2.0000      -0.500257       -13.6127
  50   2.0000      -0.493042       -13.4164
  51   2.0000      -0.481547       -13.1036
  52   2.0000      -0.475632       -12.9426
  53   2.0000      -0.468319       -12.7436
  54   2.0000      -0.455546       -12.3960
  55   2.0000      -0.448288       -12.1985
  56   2.0000      -0.440054       -11.9745
  57   2.0000      -0.438679       -11.9371
  58   2.0000      -0.430607       -11.7174
  59   2.0000      -0.426930       -11.6174
  60   2.0000      -0.417914       -11.3720
  61   2.0000      -0.414224       -11.2716
  62   2.0000      -0.407025       -11.0757
  63   2.0000      -0.357308        -9.7229
  64   2.0000      -0.334087        -9.0910
  65   2.0000      -0.319965        -8.7067
  66   2.0000      -0.285037        -7.7562
  67   0.0000       0.019939         0.5426
  68   0.0000       0.066110         1.7989
  69   0.0000       0.091222         2.4823
  70   0.0000       0.120909         3.2901
  71   0.0000       0.128787         3.5045

MULLIKEN ATOMIC CHARGES
-----------------------
   0 S :    0.112208
   1 C :   -0.115033
   2 C :   -0.120584
   3 C :    0.028712
   4 C :   -0.125293
   5 H :   -0.000654
   6 C :    0.095011
   7 H :    0.024898
   8 H :    0.025879
   9 C :   -0.102005
  10 H :    0.024551
  11 H :    0.030265
  12 C :   -0.021605
  13 H :    0.023378
  14 H :    0.025905
  15 H :    0.026870
  16 S :    0.090268
  17 C :   -0.072111
  18 C :   -0.060484
  19 C :   -0.011522
  20 C :   -0.135075
  21 H :    0.035567
  22 C :    0.006169
  23 H :    0.025896
  24 H :    0.029801
  25 C :   -0.021550
  26 H :    0.031121
  27 H :    0.031764
  28 C :   -0.098648
  29 H :    0.041069
  30 H :    0.031847
  31 H :    0.020344
  32 H :    0.070869
  33 H :    0.052170
Sum of atomic charges:    0.0000000

LOEWDIN ATOMIC CHARGES
----------------------
   0 S :    0.417658
   1 C :   -0.219458
   2 C :   -0.071844
   3 C :   -0.045998
   4 C :   -0.186593
   5 H :    0.017854
   6 C :   -0.025191
   7 H :    0.029998
   8 H :    0.027918
   9 C :   -0.043385
  10 H :    0.017911
  11 H :    0.030711
  12 C :   -0.064791
  13 H :    0.018099
  14 H :    0.026029
  15 H :    0.027139
  16 S :    0.389135
  17 C :   -0.171126
  18 C :   -0.066176
  19 C :   -0.053773
  20 C :   -0.192195
  21 H :    0.040571
  22 C :   -0.041772
  23 H :    0.025612
  24 H :    0.039516
  25 C :   -0.045784
  26 H :    0.029475
  27 H :    0.022765
  28 C :   -0.075815
  29 H :    0.030244
  30 H :    0.026162
  31 H :    0.022514
  32 H :    0.037888
  33 H :    0.026703

  Mayer bond orders larger than 0.100000
B(  0-S ,  1-C ) :   1.1724 B(  0-S ,  4-C ) :   1.1237 B(  1-C ,  2-C ) :   1.5955
B(  1-C , 32-H ) :   0.9555 B(  2-C ,  3-C ) :   1.2407 B(  2-C ,  6-C ) :   1.0168
B(  3-C ,  4-C ) :   1.5668 B(  3-C ,  5-H ) :   0.9933 B(  4-C , 20-C ) :   1.0724
B(  6-C ,  7-H ) :   0.9512 B(  6-C ,  8-H ) :   0.9289 B(  6-C ,  9-C ) :   1.0858
B(  9-C , 10-H ) :   0.9525 B(  9-C , 11-H ) :   0.9548 B(  9-C , 12-C ) :   1.0793
B( 12-C , 13-H ) :   0.9715 B( 12-C , 14-H ) :   0.9723 B( 12-C , 15-H ) :   0.9749
B( 16-S , 17-C ) :   1.1454 B( 16-S , 20-C ) :   1.1295 B( 17-C , 18-C ) :   1.6440
B( 17-C , 33-H ) :   0.9581 B( 18-C , 19-C ) :   1.2348 B( 18-C , 21-H ) :   0.9880
B( 19-C , 20-C ) :   1.5971 B( 19-C , 22-C ) :   1.0261 B( 22-C , 23-H ) :   0.9327
B( 22-C , 24-H ) :   0.9430 B( 22-C , 25-C ) :   1.0680 B( 25-C , 26-H ) :   0.9517
B( 25-C , 27-H ) :   0.9484 B( 25-C , 28-C ) :   1.0832 B( 28-C , 29-H ) :   0.9747
B( 28-C , 30-H ) :   0.9736 B( 28-C , 31-H ) :   0.9729

Dispersion correction           -0.014807810
FINAL SINGLE POINT ENERGY     -1339.844042275482

DIPOLE MOMENT
-------------
                                X             Y             Z
Electronic contribution:      2.67138      26.25140      -4.65314
Nuclear contribution   :     -2.96128     -26.86968       4.95685
                        -----------------------------------------
Total Dipole Moment    :     -0.28990      -0.61829       0.30371
                        -----------------------------------------
Magnitude (a.u.)       :      0.74737
Magnitude (Debye)      :      1.89967

Rotational constants in cm-1:     0.018849     0.009148     0.006884
Rotational constants in MHz :   565.084008   274.255930   206.374214

                             ****ORCA TERMINATED NORMALLY****
TOTAL RUN TIME: 0 days 0 hours 0 minutes 31 seconds 22 msec
