                         Program Version 4.2.1 -  RELEASE  -
|  1> ! wB97X-D3 SP def2-SVP
|  2> %pal
|  3> nprocs 16
|  4> end
|  5>
|  6> * xyz 0 1
|  7> S 	 -39.335 	 19.6968 	 71.1069
|  8> C 	 -37.5608 	 20.0332 	 71.1718
|  9> C 	 -36.8262 	 18.8915 	 70.9678
| 10> C 	 -37.6612 	 17.7411 	 70.9086
| 11> C 	 -39.0514 	 18.0377 	 70.7982
| 12> H 	 -37.3719 	 16.7504 	 70.9171
| 13> C 	 -35.2998 	 18.8709 	 70.8855
| 14> H 	 -35.0619 	 18.0296 	 71.4686
| 15> H 	 -34.9327 	 19.7204 	 71.4212
| 16> C 	 -34.6459 	 18.7667 	 69.4906
| 17> H 	 -34.766 	 19.5873 	 68.8843
| 18> H 	 -33.5469 	 18.7786 	 69.5912
| 19> C 	 -34.9449 	 17.4554 	 68.7981
| 20> H 	 -34.8598 	 16.6148 	 69.4297
| 21> H 	 -35.9376 	 17.5025 	 68.4977
| 22> H 	 -34.3713 	 17.2331 	 67.9425
| 23> S 	 -41.6995 	 17.7112 	 71.6084
| 24> C 	 -42.5695 	 16.2255 	 71.3199
| 25> C 	 -41.7801 	 15.3516 	 70.7084
| 26> C 	 -40.4418 	 15.8154 	 70.4113
| 27> C 	 -40.2313 	 17.1798 	 70.7794
| 28> H 	 -42.1717 	 14.41 	 70.4148
| 29> C 	 -39.4114 	 14.7977 	 69.8927
| 30> H 	 -38.7169 	 15.1927 	 69.1192
| 31> H 	 -39.9677 	 14.0751 	 69.1549
| 32> C 	 -38.6692 	 13.9513 	 70.8666
| 33> H 	 -39.3145 	 13.1796 	 71.3806
| 34> H 	 -38.3584 	 14.6974 	 71.576
| 35> C 	 -37.4538 	 13.2084 	 70.278
| 36> H 	 -36.7933 	 13.9246 	 69.6808
| 37> H 	 -37.7574 	 12.3691 	 69.669
| 38> H 	 -36.7598 	 12.8362 	 71.092
| 39> H 	 -37.1848 	 21.0583 	 71.1597
| 40> H 	 -43.5616 	 15.9018 	 71.704
| 41> *
| 42>
| 43>                          ****END OF INPUT****

CARTESIAN COORDINATES (ANGSTROEM)
---------------------------------
  S    -39.335000   19.696800   71.106900
  C    -37.560800   20.033200   71.171800
  C    -36.826200   18.891500   70.967800
  C    -37.661200   17.741100   70.908600
  C    -39.051400   18.037700   70.798200
  H    -37.371900   16.750400   70.917100
  C    -35.299800   18.870900   70.885500
  H    -35.061900   18.029600   71.468600
  H    -34.932700   19.720400   71.421200
  C    -34.645900   18.766700   69.490600
  H    -34.766000   19.587300   68.884300
  H    -33.546900   18.778600   69.591200
  C    -34.944900   17.455400   68.798100
  H    -34.859800   16.614800   69.429700
  H    -35.937600   17.502500   68.497700
  H    -34.371300   17.233100   67.942500
  S    -41.699500   17.711200   71.608400
  C    -42.569500   16.225500   71.319900
  C    -41.780100   15.351600   70.708400
  C    -40.441800   15.815400   70.411300
  C    -40.231300   17.179800   70.779400
  H    -42.171700   14.410000   70.414800
  C    -39.411400   14.797700   69.892700
  H    -38.716900   15.192700   69.119200
  H    -39.967700   14.075100   69.154900
  C    -38.669200   13.951300   70.866600
  H    -39.314500   13.179600   71.380600
  H    -38.358400   14.697400   71.576000
  C    -37.453800   13.208400   70.278000
  H    -36.793300   13.924600   69.680800
  H    -37.757400   12.369100   69.669000
  H    -36.759800   12.836200   71.092000
  H    -37.184800   21.058300   71.159700
  H    -43.561600   15.901800   71.704000

 Total Charge           Charge          ....    0
 Multiplicity           Mult            ....    1
 Number of Electrons    NEL             ....  134
 Basis Dimension        Dim             ....  322

ORBITAL ENERGIES
----------------

  NO   OCC          E(Eh)            E(eV)
   0   2.0000     -88.966025     -2420.8886
   1   2.0000     -88.965712     -2420.8801
   2   2.0000     -10.337868      -281.3077
   3   2.0000     -10.336377      -281.2671
   4   2.0000     -10.317407      -280.7509
   5   2.0000     -10.316249      -280.7194
   6   2.0000     -10.312109      -280.6068
   7   2.0000     -10.304816      -280.4083
   8   2.0000     -10.299657      -280.2679
   9   2.0000     -10.296000      -280.1684
  10   2.0000     -10.291402      -280.0433
  11   2.0000     -10.290769      -280.0260
  12   2.0000     -10.289157      -279.9822
  13   2.0000     -10.287805      -279.9454
  14   2.0000     -10.282619      -279.8043
  15   2.0000     -10.262575      -279.2589
  16   2.0000      -8.080875      -219.8918
  17   2.0000      -8.080267      -219.8752
  18   2.0000      -6.039371      -164.3396
  19   2.0000      -6.039032      -164.3304
  20   2.0000      -6.035376      -164.2309
  21   2.0000      -6.034723      -164.2132
  22   2.0000      -6.031626      -164.1289
  23   2.0000      -6.030800      -164.1064
  24   2.0000      -1.007549       -27.4168
  25   2.0000      -0.984019       -26.7765
  26   2.0000      -0.918024       -24.9807
  27   2.0000      -0.911428       -24.8012
  28   2.0000      -0.876997       -23.8643
  29   2.0000      -0.848097       -23.0779
  30   2.0000      -0.843156       -22.9435
  31   2.0000      -0.818545       -22.2737
  32   2.0000      -0.790254       -21.5039
  33   2.0000      -0.771840       -21.0028
  34   2.0000      -0.716915       -19.5082
  35   2.0000      -0.707441       -19.2505
  36   2.0000      -0.689182       -18.7536
  37   2.0000      -0.661519       -18.0008
  38   2.0000      -0.639204       -17.3936
  39   2.0000      -0.621547       -16.9131
  40   2.0000      -0.597377       -16.2555
  41   2.0000      -0.574931       -15.6447
  42   2.0000      -0.567644       -15.4464
  43   2.0000      -0.557439       -15.1687
  44   2.0000      -0.548008       -14.9121
  45   2.0000      -0.521254       -14.1840
  46   2.0000      -0.517974       -14.0948
  47   2.0000      -0.512333       -13.9413
  48   2.0000      -0.507057       -13.7977
  49   2.0000      -0.500058       -13.6073
  50   2.0000      -0.496143       -13.5007
  51   2.0000      -0.485052       -13.1989
  52   2.0000      -0.475767       -12.9463
  53   2.0000      -0.464056       -12.6276
  54   2.0000      -0.456893       -12.4327
  55   2.0000      -0.454610       -12.3706
  56   2.0000      -0.447714       -12.1829
  57   2.0000      -0.444108       -12.0848
  58   2.0000      -0.434989       -11.8366
  59   2.0000      -0.429699       -11.6927
  60   2.0000      -0.416263       -11.3271
  61   2.0000      -0.409326       -11.1383
  62   2.0000      -0.402172       -10.9437
  63   2.0000      -0.363201        -9.8832
  64   2.0000      -0.334088        -9.0910
  65   2.0000      -0.328427        -8.9370
  66   2.0000      -0.285179        -7.7601
  67   0.0000       0.014893         0.4053
  68   0.0000       0.082731         2.2512
  69   0.0000       0.097324         2.6483
  70   0.0000       0.116519         3.1706
  71   0.0000       0.126271         3.4360

MULLIKEN ATOMIC CHARGES
-----------------------
   0 S :    0.082390
   1 C :   -0.131584
   2 C :   -0.089414
   3 C :    0.051727
   4 C :   -0.125664
   5 H :   -0.038667
   6 C :    0.109355
   7 H :    0.013727
   8 H :    0.015357
   9 C :   -0.028006
  10 H :    0.008817
  11 H :    0.020873
  12 C :   -0.009940
  13 H :    0.009376
  14 H :    0.021838
  15 H :    0.021164
  16 S :    0.084590
  17 C :   -0.077183
  18 C :   -0.017153
  19 C :   -0.042519
  20 C :   -0.103457
  21 H :    0.004677
  22 C :   -0.022980
  23 H :    0.030990
  24 H :    0.020601
  25 C :   -0.045246
  26 H :    0.040680
  27 H :    0.026098
  28 C :   -0.082289
  29 H :    0.036061
  30 H :    0.041926
  31 H :    0.046828
  32 H :    0.056508
  33 H :    0.070519
Sum of atomic charges:   -0.0000000

LOEWDIN ATOMIC CHARGES
----------------------
   0 S :    0.399996
   1 C :   -0.181679
   2 C :   -0.058036
   3 C :   -0.057614
   4 C :   -0.190637
   5 H :    0.012665
   6 C :   -0.017312
   7 H :    0.027335
   8 H :    0.029470
   9 C :   -0.028793
  10 H :    0.013561
  11 H :    0.028078
  12 C :   -0.054799
  13 H :    0.017794
  14 H :    0.018662
  15 H :    0.022892
  16 S :    0.393958
  17 C :   -0.189931
  18 C :   -0.071025
  19 C :   -0.055755
  20 C :   -0.192787
  21 H :    0.026962
  22 C :   -0.053449
  23 H :    0.031537
  24 H :    0.033823
  25 C :   -0.050057
  26 H :    0.032344
  27 H :    0.020600
  28 C :   -0.070505
  29 H :    0.028450
  30 H :    0.023679
  31 H :    0.034995
  32 H :    0.029256
  33 H :    0.046319

  Mayer bond orders larger than 0.100000
B(  0-S ,  1-C ) :   1.1284 B(  0-S ,  4-C ) :   1.1691 B(  1-C ,  2-C ) :   1.6170
B(  1-C ,  4-C ) :   0.1013 B(  1-C , 32-H ) :   0.9666 B(  2-C ,  3-C ) :   1.2408
B(  2-C ,  6-C ) :   1.0084 B(  3-C ,  4-C ) :   1.5307 B(  3-C ,  5-H ) :   1.0002
B(  4-C , 20-C ) :   1.0763 B(  6-C ,  7-H ) :   0.9370 B(  6-C ,  8-H ) :   0.9394
B(  6-C ,  9-C ) :   1.0748 B(  9-C , 10-H ) :   0.9562 B(  9-C , 11-H ) :   0.9521
B(  9-C , 12-C ) :   1.0807 B( 12-C , 13-H ) :   0.9728 B( 12-C , 14-H ) :   0.9721
B( 12-C , 15-H ) :   0.9687 B( 16-S , 17-C ) :   1.1323 B( 16-S , 20-C ) :   1.1331
B( 17-C , 18-C ) :   1.6393 B( 17-C , 33-H ) :   0.9573 B( 18-C , 19-C ) :   1.2458
B( 18-C , 21-H ) :   0.9937 B( 19-C , 20-C ) :   1.5706 B( 19-C , 22-C ) :   1.0503
B( 22-C , 23-H ) :   0.9391 B( 22-C , 24-H ) :   0.9297 B( 22-C , 25-C ) :   1.0581
B( 25-C , 26-H ) :   0.9483 B( 25-C , 27-H ) :   0.9520 B( 25-C , 28-C ) :   1.0811
B( 28-C , 29-H ) :   0.9722 B( 28-C , 30-H ) :   0.9764 B( 28-C , 31-H ) :   0.9738

Dispersion correction           -0.014667255
FINAL SINGLE POINT ENERGY     -1339.859512542710

DIPOLE MOMENT
-------------
                                X             Y             Z
Electronic contribution:    -25.08185      17.87557       9.00169
Nuclear contribution   :     25.60126     -18.39703      -9.10162
                        -----------------------------------------
Total Dipole Moment    :      0.51941      -0.52146      -0.09992
                        -----------------------------------------
Magnitude (a.u.)       :      0.74276
Magnitude (Debye)      :      1.88794

Rotational constants in cm-1:     0.017225     0.010186     0.006726
Rotational constants in MHz :   516.404358   305.367922   201.635669

                             ****ORCA TERMINATED NORMALLY****
TOTAL RUN TIME: 0 days 0 hours 0 minutes 31 seconds 328 msec
