                         Program Version 4.2.1 -  RELEASE  -
|  1> ! wB97X-D3 SP def2-SVP
|  2> %pal
|  3> nprocs 16
|  4> end
|  5>
|  6> * xyz 0 1
|  7> S 	 -21.5877 	 35.5278 	 36.8403
|  8> C 	 -22.5264 	 34.0527 	 36.6748
|  9> C 	 -21.8044 	 32.8862 	 36.9117
| 10> C 	 -20.4524 	 33.2139 	 37.2481
| 11> C 	 -20.1925 	 34.5536 	 37.2428
| 12> H 	 -19.5655 	 32.602 	 37.5134
| 13> C 	 -22.3095 	 31.4767 	 36.9709
| 14> H 	 -21.6866 	 30.7525 	 36.345
| 15> H 	 -23.2876 	 31.4407 	 36.5559
| 16> C 	 -22.3279 	 30.9371 	 38.4531
| 17> H 	 -23.0765 	 30.2043 	 38.5028
| 18> H 	 -21.3848 	 30.3468 	 38.5089
| 19> C 	 -22.7863 	 31.8247 	 39.5839
| 20> H 	 -22.1173 	 32.6618 	 39.8666
| 21> H 	 -23.7528 	 32.1681 	 39.2235
| 22> H 	 -23.0081 	 31.3756 	 40.5144
| 23> S 	 -18.0813 	 34.5125 	 39.0426
| 24> C 	 -16.688 	 35.3895 	 38.6259
| 25> C 	 -16.815 	 36.0962 	 37.4847
| 26> C 	 -18.1148 	 36.1516 	 37.0714
| 27> C 	 -18.9424 	 35.1294 	 37.6099
| 28> H 	 -15.9935 	 36.6856 	 37.1039
| 29> C 	 -18.5734 	 37.0199 	 35.9142
| 30> H 	 -17.9052 	 37.8489 	 35.8632
| 31> H 	 -19.6028 	 37.35 	 36.1027
| 32> C 	 -18.5416 	 36.2926 	 34.554
| 33> H 	 -19.3679 	 36.8267 	 34.0163
| 34> H 	 -18.8292 	 35.2443 	 34.5641
| 35> C 	 -17.1656 	 36.296 	 33.8983
| 36> H 	 -17.3268 	 35.8959 	 32.8964
| 37> H 	 -16.4213 	 35.6563 	 34.4645
| 38> H 	 -16.5835 	 37.2735 	 33.7546
| 39> H 	 -23.5643 	 34.0783 	 36.496
| 40> H 	 -15.797 	 35.3557 	 39.2543
| 41> *
| 42>
| 43>                          ****END OF INPUT****

CARTESIAN COORDINATES (ANGSTROEM)
---------------------------------
  S    -21.587700   35.527800   36.840300
  C    -22.526400   34.052700   36.674800
  C    -21.804400   32.886200   36.911700
  C    -20.452400   33.213900   37.248100
  C    -20.192500   34.553600   37.242800
  H    -19.565500   32.602000   37.513400
  C    -22.309500   31.476700   36.970900
  H    -21.686600   30.752500   36.345000
  H    -23.287600   31.440700   36.555900
  C    -22.327900   30.937100   38.453100
  H    -23.076500   30.204300   38.502800
  H    -21.384800   30.346800   38.508900
  C    -22.786300   31.824700   39.583900
  H    -22.117300   32.661800   39.866600
  H    -23.752800   32.168100   39.223500
  H    -23.008100   31.375600   40.514400
  S    -18.081300   34.512500   39.042600
  C    -16.688000   35.389500   38.625900
  C    -16.815000   36.096200   37.484700
  C    -18.114800   36.151600   37.071400
  C    -18.942400   35.129400   37.609900
  H    -15.993500   36.685600   37.103900
  C    -18.573400   37.019900   35.914200
  H    -17.905200   37.848900   35.863200
  H    -19.602800   37.350000   36.102700
  C    -18.541600   36.292600   34.554000
  H    -19.367900   36.826700   34.016300
  H    -18.829200   35.244300   34.564100
  C    -17.165600   36.296000   33.898300
  H    -17.326800   35.895900   32.896400
  H    -16.421300   35.656300   34.464500
  H    -16.583500   37.273500   33.754600
  H    -23.564300   34.078300   36.496000
  H    -15.797000   35.355700   39.254300

 Total Charge           Charge          ....    0
 Multiplicity           Mult            ....    1
 Number of Electrons    NEL             ....  134
 Basis Dimension        Dim             ....  322

ORBITAL ENERGIES
----------------

  NO   OCC          E(Eh)            E(eV)
   0   2.0000     -88.967078     -2420.9173
   1   2.0000     -88.963927     -2420.8315
   2   2.0000     -10.323575      -280.9188
   3   2.0000     -10.321940      -280.8743
   4   2.0000     -10.311335      -280.5857
   5   2.0000     -10.308868      -280.5186
   6   2.0000     -10.303486      -280.3721
   7   2.0000     -10.297236      -280.2020
   8   2.0000     -10.296852      -280.1916
   9   2.0000     -10.291058      -280.0339
  10   2.0000     -10.284616      -279.8586
  11   2.0000     -10.284457      -279.8543
  12   2.0000     -10.284244      -279.8485
  13   2.0000     -10.283961      -279.8408
  14   2.0000     -10.283483      -279.8278
  15   2.0000     -10.273547      -279.5574
  16   2.0000      -8.081542      -219.9099
  17   2.0000      -8.079037      -219.8418
  18   2.0000      -6.040063      -164.3585
  19   2.0000      -6.037318      -164.2838
  20   2.0000      -6.036270      -164.2553
  21   2.0000      -6.033429      -164.1779
  22   2.0000      -6.032156      -164.1433
  23   2.0000      -6.030089      -164.0871
  24   2.0000      -1.011422       -27.5222
  25   2.0000      -0.988525       -26.8991
  26   2.0000      -0.912121       -24.8201
  27   2.0000      -0.907376       -24.6910
  28   2.0000      -0.873156       -23.7598
  29   2.0000      -0.852102       -23.1869
  30   2.0000      -0.845424       -23.0051
  31   2.0000      -0.813380       -22.1332
  32   2.0000      -0.786300       -21.3963
  33   2.0000      -0.771606       -20.9965
  34   2.0000      -0.709468       -19.3056
  35   2.0000      -0.697928       -18.9916
  36   2.0000      -0.686399       -18.6779
  37   2.0000      -0.665292       -18.1035
  38   2.0000      -0.635245       -17.2859
  39   2.0000      -0.616300       -16.7704
  40   2.0000      -0.599165       -16.3041
  41   2.0000      -0.564734       -15.3672
  42   2.0000      -0.561555       -15.2807
  43   2.0000      -0.548635       -14.9291
  44   2.0000      -0.539709       -14.6862
  45   2.0000      -0.533266       -14.5109
  46   2.0000      -0.519998       -14.1499
  47   2.0000      -0.512341       -13.9415
  48   2.0000      -0.503048       -13.6886
  49   2.0000      -0.490177       -13.3384
  50   2.0000      -0.486621       -13.2416
  51   2.0000      -0.476230       -12.9589
  52   2.0000      -0.471904       -12.8412
  53   2.0000      -0.469115       -12.7653
  54   2.0000      -0.460224       -12.5233
  55   2.0000      -0.452435       -12.3114
  56   2.0000      -0.445088       -12.1115
  57   2.0000      -0.439234       -11.9522
  58   2.0000      -0.429748       -11.6940
  59   2.0000      -0.420623       -11.4457
  60   2.0000      -0.413991       -11.2653
  61   2.0000      -0.412422       -11.2226
  62   2.0000      -0.406166       -11.0523
  63   2.0000      -0.348447        -9.4817
  64   2.0000      -0.333954        -9.0874
  65   2.0000      -0.329846        -8.9756
  66   2.0000      -0.279146        -7.5959
  67   0.0000       0.026943         0.7332
  68   0.0000       0.075635         2.0581
  69   0.0000       0.110886         3.0174
  70   0.0000       0.111050         3.0218
  71   0.0000       0.128637         3.5004

MULLIKEN ATOMIC CHARGES
-----------------------
   0 S :    0.102494
   1 C :   -0.105530
   2 C :   -0.066200
   3 C :   -0.023573
   4 C :   -0.133295
   5 H :    0.026446
   6 C :    0.080245
   7 H :    0.048124
   8 H :    0.004103
   9 C :   -0.083345
  10 H :    0.013329
  11 H :    0.031616
  12 C :   -0.012712
  13 H :    0.044127
  14 H :    0.014277
  15 H :    0.024846
  16 S :    0.112832
  17 C :   -0.095124
  18 C :   -0.028871
  19 C :   -0.047503
  20 C :   -0.163426
  21 H :    0.015962
  22 C :    0.081018
  23 H :    0.009211
  24 H :    0.026247
  25 C :   -0.060525
  26 H :    0.035795
  27 H :    0.042629
  28 C :   -0.098050
  29 H :    0.040038
  30 H :    0.045259
  31 H :    0.035515
  32 H :    0.026853
  33 H :    0.057190
Sum of atomic charges:   -0.0000000

LOEWDIN ATOMIC CHARGES
----------------------
   0 S :    0.402294
   1 C :   -0.188320
   2 C :   -0.057235
   3 C :   -0.071138
   4 C :   -0.192317
   5 H :    0.035985
   6 C :   -0.029435
   7 H :    0.043736
   8 H :    0.020635
   9 C :   -0.044869
  10 H :    0.020978
  11 H :    0.024576
  12 C :   -0.062311
  13 H :    0.029221
  14 H :    0.028556
  15 H :    0.023241
  16 S :    0.422552
  17 C :   -0.196807
  18 C :   -0.082095
  19 C :   -0.052154
  20 C :   -0.195490
  21 H :    0.034257
  22 C :   -0.030698
  23 H :    0.024956
  24 H :    0.022399
  25 C :   -0.041532
  26 H :    0.030161
  27 H :    0.030214
  28 C :   -0.080325
  29 H :    0.027988
  30 H :    0.031390
  31 H :    0.026769
  32 H :    0.015248
  33 H :    0.029567

  Mayer bond orders larger than 0.100000
B(  0-S ,  1-C ) :   1.1264 B(  0-S ,  4-C ) :   1.1290 B(  1-C ,  2-C ) :   1.6248
B(  1-C , 32-H ) :   0.9696 B(  2-C ,  3-C ) :   1.1860 B(  2-C ,  6-C ) :   1.0533
B(  3-C ,  4-C ) :   1.6014 B(  3-C ,  5-H ) :   0.9897 B(  4-C , 20-C ) :   1.0842
B(  6-C ,  7-H ) :   0.9442 B(  6-C ,  8-H ) :   0.9306 B(  6-C ,  9-C ) :   1.0571
B(  9-C , 10-H ) :   0.9565 B(  9-C , 11-H ) :   0.9576 B(  9-C , 12-C ) :   1.0721
B( 12-C , 13-H ) :   0.9710 B( 12-C , 14-H ) :   0.9693 B( 12-C , 15-H ) :   0.9743
B( 16-S , 17-C ) :   1.1866 B( 16-S , 20-C ) :   1.1444 B( 17-C , 18-C ) :   1.5603
B( 17-C , 20-C ) :   0.1114 B( 17-C , 33-H ) :   0.9641 B( 18-C , 19-C ) :   1.3017
B( 18-C , 21-H ) :   0.9894 B( 19-C , 20-C ) :   1.4996 B( 19-C , 22-C ) :   1.0602
B( 22-C , 23-H ) :   0.9289 B( 22-C , 24-H ) :   0.9370 B( 22-C , 25-C ) :   1.0537
B( 25-C , 26-H ) :   0.9589 B( 25-C , 27-H ) :   0.9555 B( 25-C , 28-C ) :   1.0724
B( 28-C , 29-H ) :   0.9733 B( 28-C , 30-H ) :   0.9708 B( 28-C , 31-H ) :   0.9754

Dispersion correction           -0.015537989
FINAL SINGLE POINT ENERGY     -1339.864334257132

DIPOLE MOMENT
-------------
                                X             Y             Z
Electronic contribution:      2.31642       6.98274       8.05477
Nuclear contribution   :     -2.31564      -7.21137      -8.18457
                        -----------------------------------------
Total Dipole Moment    :      0.00078      -0.22863      -0.12980
                        -----------------------------------------
Magnitude (a.u.)       :      0.26291
Magnitude (Debye)      :      0.66826

Rotational constants in cm-1:     0.022114     0.008925     0.007332
Rotational constants in MHz :   662.959745   267.573783   219.818891

                             ****ORCA TERMINATED NORMALLY****
TOTAL RUN TIME: 0 days 0 hours 0 minutes 34 seconds 125 msec
