                         Program Version 4.2.1 -  RELEASE  -
|  1> ! wB97X-D3 SP def2-SVP
|  2> %pal
|  3> nprocs 16
|  4> end
|  5>
|  6> * xyz 0 1
|  7> S 	 -45.5083 	 13.395 	 79.1689
|  8> C 	 -46.0448 	 11.6887 	 79.272
|  9> C 	 -44.9867 	 10.8871 	 79.5837
| 10> C 	 -43.8647 	 11.6858 	 80.0086
| 11> C 	 -43.968 	 13.0383 	 79.6702
| 12> H 	 -42.8969 	 11.3871 	 80.4458
| 13> C 	 -44.9849 	 9.41108 	 79.6838
| 14> H 	 -44.0611 	 9.07712 	 79.221
| 15> H 	 -45.7308 	 8.96406 	 78.9241
| 16> C 	 -45.1365 	 8.79595 	 81.0817
| 17> H 	 -44.8652 	 7.80564 	 80.9464
| 18> H 	 -44.534 	 9.25026 	 81.7941
| 19> C 	 -46.5462 	 8.90552 	 81.5778
| 20> H 	 -46.7542 	 10.0217 	 81.5656
| 21> H 	 -47.3742 	 8.435 	 80.9867
| 22> H 	 -46.5868 	 8.65677 	 82.582
| 23> S 	 -43.6979 	 15.6173 	 80.5981
| 24> C 	 -42.119 	 16.4438 	 80.4123
| 25> C 	 -41.0983 	 15.5623 	 80.0462
| 26> C 	 -41.6204 	 14.2373 	 79.8184
| 27> C 	 -43.0344 	 14.1283 	 79.9947
| 28> H 	 -40.1046 	 15.9121 	 79.9047
| 29> C 	 -40.6972 	 13.1624 	 79.299
| 30> H 	 -40.6235 	 12.3264 	 80.0099
| 31> H 	 -39.7133 	 13.6238 	 79.3752
| 32> C 	 -40.9214 	 12.8447 	 77.8678
| 33> H 	 -41.9367 	 12.4499 	 77.6541
| 34> H 	 -40.2199 	 12.0721 	 77.4877
| 35> C 	 -40.6143 	 14.0772 	 76.9426
| 36> H 	 -39.5336 	 14.2317 	 76.7088
| 37> H 	 -41.0482 	 15.0555 	 77.2785
| 38> H 	 -41.1215 	 13.8947 	 75.9984
| 39> H 	 -46.9615 	 11.2865 	 78.9901
| 40> H 	 -42.0216 	 17.5156 	 80.4646
| 41> *
| 42>
| 43>                          ****END OF INPUT****

CARTESIAN COORDINATES (ANGSTROEM)
---------------------------------
  S    -45.508300   13.395000   79.168900
  C    -46.044800   11.688700   79.272000
  C    -44.986700   10.887100   79.583700
  C    -43.864700   11.685800   80.008600
  C    -43.968000   13.038300   79.670200
  H    -42.896900   11.387100   80.445800
  C    -44.984900    9.411080   79.683800
  H    -44.061100    9.077120   79.221000
  H    -45.730800    8.964060   78.924100
  C    -45.136500    8.795950   81.081700
  H    -44.865200    7.805640   80.946400
  H    -44.534000    9.250260   81.794100
  C    -46.546200    8.905520   81.577800
  H    -46.754200   10.021700   81.565600
  H    -47.374200    8.435000   80.986700
  H    -46.586800    8.656770   82.582000
  S    -43.697900   15.617300   80.598100
  C    -42.119000   16.443800   80.412300
  C    -41.098300   15.562300   80.046200
  C    -41.620400   14.237300   79.818400
  C    -43.034400   14.128300   79.994700
  H    -40.104600   15.912100   79.904700
  C    -40.697200   13.162400   79.299000
  H    -40.623500   12.326400   80.009900
  H    -39.713300   13.623800   79.375200
  C    -40.921400   12.844700   77.867800
  H    -41.936700   12.449900   77.654100
  H    -40.219900   12.072100   77.487700
  C    -40.614300   14.077200   76.942600
  H    -39.533600   14.231700   76.708800
  H    -41.048200   15.055500   77.278500
  H    -41.121500   13.894700   75.998400
  H    -46.961500   11.286500   78.990100
  H    -42.021600   17.515600   80.464600

 Total Charge           Charge          ....    0
 Multiplicity           Mult            ....    1
 Number of Electrons    NEL             ....  134
 Basis Dimension        Dim             ....  322

ORBITAL ENERGIES
----------------

  NO   OCC          E(Eh)            E(eV)
   0   2.0000     -88.968361     -2420.9522
   1   2.0000     -88.965207     -2420.8664
   2   2.0000     -10.331485      -281.1340
   3   2.0000     -10.326270      -280.9921
   4   2.0000     -10.321812      -280.8708
   5   2.0000     -10.310023      -280.5500
   6   2.0000     -10.307291      -280.4756
   7   2.0000     -10.300891      -280.3015
   8   2.0000     -10.298940      -280.2484
   9   2.0000     -10.294835      -280.1367
  10   2.0000     -10.294150      -280.1181
  11   2.0000     -10.288215      -279.9566
  12   2.0000     -10.287142      -279.9274
  13   2.0000     -10.278228      -279.6848
  14   2.0000     -10.276299      -279.6323
  15   2.0000     -10.273248      -279.5493
  16   2.0000      -8.082506      -219.9362
  17   2.0000      -8.081136      -219.8989
  18   2.0000      -6.041014      -164.3844
  19   2.0000      -6.039626      -164.3466
  20   2.0000      -6.037049      -164.2765
  21   2.0000      -6.035378      -164.2310
  22   2.0000      -6.033342      -164.1756
  23   2.0000      -6.031907      -164.1365
  24   2.0000      -1.011782       -27.5320
  25   2.0000      -0.981726       -26.7141
  26   2.0000      -0.922683       -25.1075
  27   2.0000      -0.911124       -24.7929
  28   2.0000      -0.874207       -23.7884
  29   2.0000      -0.845077       -22.9957
  30   2.0000      -0.840238       -22.8640
  31   2.0000      -0.811434       -22.0803
  32   2.0000      -0.786072       -21.3901
  33   2.0000      -0.772705       -21.0264
  34   2.0000      -0.711584       -19.3632
  35   2.0000      -0.703900       -19.1541
  36   2.0000      -0.684585       -18.6285
  37   2.0000      -0.665529       -18.1100
  38   2.0000      -0.641640       -17.4599
  39   2.0000      -0.616322       -16.7710
  40   2.0000      -0.591333       -16.0910
  41   2.0000      -0.578733       -15.7481
  42   2.0000      -0.557516       -15.1708
  43   2.0000      -0.552894       -15.0450
  44   2.0000      -0.545231       -14.8365
  45   2.0000      -0.542493       -14.7620
  46   2.0000      -0.519861       -14.1461
  47   2.0000      -0.509997       -13.8777
  48   2.0000      -0.502401       -13.6710
  49   2.0000      -0.494187       -13.4475
  50   2.0000      -0.485684       -13.2161
  51   2.0000      -0.476912       -12.9774
  52   2.0000      -0.472662       -12.8618
  53   2.0000      -0.464316       -12.6347
  54   2.0000      -0.457958       -12.4617
  55   2.0000      -0.445554       -12.1241
  56   2.0000      -0.444016       -12.0823
  57   2.0000      -0.436512       -11.8781
  58   2.0000      -0.433428       -11.7942
  59   2.0000      -0.426927       -11.6173
  60   2.0000      -0.416207       -11.3256
  61   2.0000      -0.413705       -11.2575
  62   2.0000      -0.409665       -11.1475
  63   2.0000      -0.348647        -9.4872
  64   2.0000      -0.334492        -9.1020
  65   2.0000      -0.327600        -8.9144
  66   2.0000      -0.287298        -7.8178
  67   0.0000       0.022010         0.5989
  68   0.0000       0.078404         2.1335
  69   0.0000       0.104617         2.8468
  70   0.0000       0.110319         3.0019
  71   0.0000       0.135331         3.6825

MULLIKEN ATOMIC CHARGES
-----------------------
   0 S :    0.099744
   1 C :   -0.085185
   2 C :   -0.079084
   3 C :    0.000907
   4 C :   -0.133607
   5 H :    0.014326
   6 C :    0.014564
   7 H :    0.023144
   8 H :    0.030053
   9 C :    0.025909
  10 H :    0.013745
  11 H :    0.015914
  12 C :   -0.060153
  13 H :    0.030771
  14 H :    0.037719
  15 H :    0.018355
  16 S :    0.105125
  17 C :   -0.106156
  18 C :   -0.010968
  19 C :   -0.080207
  20 C :   -0.136103
  21 H :    0.017961
  22 C :    0.093904
  23 H :    0.038502
  24 H :    0.002319
  25 C :   -0.064391
  26 H :    0.049827
  27 H :    0.031406
  28 C :   -0.099875
  29 H :    0.038211
  30 H :    0.048661
  31 H :    0.029007
  32 H :    0.016867
  33 H :    0.058789
Sum of atomic charges:    0.0000000

LOEWDIN ATOMIC CHARGES
----------------------
   0 S :    0.427494
   1 C :   -0.178269
   2 C :   -0.061080
   3 C :   -0.072141
   4 C :   -0.222193
   5 H :    0.031001
   6 C :   -0.037674
   7 H :    0.030594
   8 H :    0.038759
   9 C :   -0.023683
  10 H :    0.016767
  11 H :    0.021207
  12 C :   -0.066041
  13 H :    0.033509
  14 H :    0.028258
  15 H :    0.014915
  16 S :    0.397843
  17 C :   -0.172283
  18 C :   -0.063099
  19 C :   -0.051918
  20 C :   -0.203773
  21 H :    0.030058
  22 C :   -0.040905
  23 H :    0.029928
  24 H :    0.030508
  25 C :   -0.042065
  26 H :    0.028182
  27 H :    0.028761
  28 C :   -0.075045
  29 H :    0.026077
  30 H :    0.029216
  31 H :    0.026054
  32 H :    0.015136
  33 H :    0.025901

  Mayer bond orders larger than 0.100000
B(  0-S ,  1-C ) :   1.1216 B(  0-S ,  4-C ) :   1.1725 B(  1-C ,  2-C ) :   1.6099
B(  1-C , 32-H ) :   0.9746 B(  2-C ,  3-C ) :   1.2182 B(  2-C ,  6-C ) :   1.0419
B(  3-C ,  4-C ) :   1.5619 B(  3-C ,  5-H ) :   0.9852 B(  4-C , 20-C ) :   1.0455
B(  6-C ,  7-H ) :   0.9314 B(  6-C ,  8-H ) :   0.9389 B(  6-C ,  9-C ) :   1.0700
B(  9-C , 10-H ) :   0.9489 B(  9-C , 11-H ) :   0.9528 B(  9-C , 12-C ) :   1.0846
B( 12-C , 13-H ) :   0.9718 B( 12-C , 14-H ) :   0.9746 B( 12-C , 15-H ) :   0.9705
B( 16-S , 17-C ) :   1.1529 B( 16-S , 20-C ) :   1.1492 B( 17-C , 18-C ) :   1.5937
B( 17-C , 33-H ) :   0.9681 B( 18-C , 19-C ) :   1.2608 B( 18-C , 21-H ) :   0.9924
B( 19-C , 20-C ) :   1.5572 B( 19-C , 22-C ) :   1.0387 B( 22-C , 23-H ) :   0.9317
B( 22-C , 24-H ) :   0.9261 B( 22-C , 25-C ) :   1.0709 B( 25-C , 26-H ) :   0.9604
B( 25-C , 27-H ) :   0.9529 B( 25-C , 28-C ) :   1.0602 B( 28-C , 29-H ) :   0.9765
B( 28-C , 30-H ) :   0.9758 B( 28-C , 31-H ) :   0.9740

Dispersion correction           -0.015162769
FINAL SINGLE POINT ENERGY     -1339.866357162536

DIPOLE MOMENT
-------------
                                X             Y             Z
Electronic contribution:     -7.69464      19.55808       3.98136
Nuclear contribution   :      8.11934     -20.00008      -4.07455
                        -----------------------------------------
Total Dipole Moment    :      0.42469      -0.44201      -0.09320
                        -----------------------------------------
Magnitude (a.u.)       :      0.62002
Magnitude (Debye)      :      1.57596

Rotational constants in cm-1:     0.022614     0.008251     0.007103
Rotational constants in MHz :   677.948410   247.365339   212.929819

                             ****ORCA TERMINATED NORMALLY****
TOTAL RUN TIME: 0 days 0 hours 0 minutes 31 seconds 140 msec
