                         Program Version 4.2.1 -  RELEASE  -
|  1> ! wB97X-D3 SP def2-SVP
|  2> %pal
|  3> nprocs 16
|  4> end
|  5>
|  6> * xyz 0 1
|  7> S 	 51.0559 	 21.4195 	 91.3178
|  8> C 	 49.8286 	 21.2408 	 92.5593
|  9> C 	 50.2303 	 20.5009 	 93.6588
| 10> C 	 51.5439 	 19.9775 	 93.4162
| 11> C 	 52.2057 	 20.5491 	 92.3613
| 12> H 	 52.0528 	 19.2301 	 94.051
| 13> C 	 49.3732 	 20.1634 	 94.8429
| 14> H 	 49.1692 	 19.0941 	 94.9708
| 15> H 	 48.3591 	 20.5974 	 94.7016
| 16> C 	 50.0504 	 20.7159 	 96.1545
| 17> H 	 49.322 	 20.6247 	 96.9668
| 18> H 	 50.8778 	 20.0239 	 96.335
| 19> C 	 50.5132 	 22.1102 	 96.0327
| 20> H 	 51.3598 	 22.1333 	 95.373
| 21> H 	 49.6404 	 22.7354 	 95.7437
| 22> H 	 50.8466 	 22.4168 	 97.0381
| 23> S 	 54.7273 	 21.5075 	 93.1418
| 24> C 	 56.1704 	 20.7966 	 92.5676
| 25> C 	 55.8863 	 19.7096 	 91.6416
| 26> C 	 54.4521 	 19.4643 	 91.4683
| 27> C 	 53.6763 	 20.4148 	 92.128
| 28> H 	 56.6328 	 19.0439 	 91.2557
| 29> C 	 53.907 	 18.4027 	 90.4856
| 30> H 	 53.1275 	 17.9566 	 91.0969
| 31> H 	 54.777 	 17.7631 	 90.2924
| 32> C 	 53.3901 	 19.0723 	 89.1688
| 33> H 	 54.2211 	 19.5541 	 88.678
| 34> H 	 52.66 	 19.8325 	 89.4263
| 35> C 	 52.8875 	 18.0255 	 88.1168
| 36> H 	 52.9204 	 18.5039 	 87.1337
| 37> H 	 51.8444 	 17.7321 	 88.3457
| 38> H 	 53.5282 	 17.0707 	 88.0263
| 39> H 	 48.8421 	 21.5126 	 92.4158
| 40> H 	 57.0978 	 21.1886 	 92.7362
| 41> *
| 42>
| 43>                          ****END OF INPUT****

CARTESIAN COORDINATES (ANGSTROEM)
---------------------------------
  S     51.055900   21.419500   91.317800
  C     49.828600   21.240800   92.559300
  C     50.230300   20.500900   93.658800
  C     51.543900   19.977500   93.416200
  C     52.205700   20.549100   92.361300
  H     52.052800   19.230100   94.051000
  C     49.373200   20.163400   94.842900
  H     49.169200   19.094100   94.970800
  H     48.359100   20.597400   94.701600
  C     50.050400   20.715900   96.154500
  H     49.322000   20.624700   96.966800
  H     50.877800   20.023900   96.335000
  C     50.513200   22.110200   96.032700
  H     51.359800   22.133300   95.373000
  H     49.640400   22.735400   95.743700
  H     50.846600   22.416800   97.038100
  S     54.727300   21.507500   93.141800
  C     56.170400   20.796600   92.567600
  C     55.886300   19.709600   91.641600
  C     54.452100   19.464300   91.468300
  C     53.676300   20.414800   92.128000
  H     56.632800   19.043900   91.255700
  C     53.907000   18.402700   90.485600
  H     53.127500   17.956600   91.096900
  H     54.777000   17.763100   90.292400
  C     53.390100   19.072300   89.168800
  H     54.221100   19.554100   88.678000
  H     52.660000   19.832500   89.426300
  C     52.887500   18.025500   88.116800
  H     52.920400   18.503900   87.133700
  H     51.844400   17.732100   88.345700
  H     53.528200   17.070700   88.026300
  H     48.842100   21.512600   92.415800
  H     57.097800   21.188600   92.736200

 Total Charge           Charge          ....    0
 Multiplicity           Mult            ....    1
 Number of Electrons    NEL             ....  134
 Basis Dimension        Dim             ....  322

ORBITAL ENERGIES
----------------

  NO   OCC          E(Eh)            E(eV)
   0   2.0000     -88.968324     -2420.9512
   1   2.0000     -88.965897     -2420.8851
   2   2.0000     -10.332194      -281.1533
   3   2.0000     -10.330590      -281.1096
   4   2.0000     -10.319623      -280.8112
   5   2.0000     -10.311314      -280.5851
   6   2.0000     -10.308869      -280.5186
   7   2.0000     -10.302138      -280.3354
   8   2.0000     -10.301500      -280.3181
   9   2.0000     -10.297642      -280.2131
  10   2.0000     -10.296163      -280.1728
  11   2.0000     -10.295455      -280.1536
  12   2.0000     -10.287715      -279.9430
  13   2.0000     -10.285434      -279.8809
  14   2.0000     -10.283430      -279.8264
  15   2.0000     -10.271002      -279.4882
  16   2.0000      -8.082131      -219.9260
  17   2.0000      -8.080118      -219.8712
  18   2.0000      -6.040689      -164.3755
  19   2.0000      -6.038549      -164.3173
  20   2.0000      -6.036881      -164.2719
  21   2.0000      -6.034525      -164.2078
  22   2.0000      -6.032792      -164.1606
  23   2.0000      -6.031159      -164.1162
  24   2.0000      -0.998620       -27.1738
  25   2.0000      -0.975986       -26.5579
  26   2.0000      -0.913902       -24.8685
  27   2.0000      -0.901789       -24.5389
  28   2.0000      -0.862758       -23.4768
  29   2.0000      -0.847245       -23.0547
  30   2.0000      -0.843937       -22.9647
  31   2.0000      -0.806730       -21.9522
  32   2.0000      -0.780337       -21.2340
  33   2.0000      -0.770726       -20.9725
  34   2.0000      -0.702895       -19.1267
  35   2.0000      -0.692578       -18.8460
  36   2.0000      -0.687326       -18.7031
  37   2.0000      -0.667279       -18.1576
  38   2.0000      -0.639567       -17.4035
  39   2.0000      -0.617491       -16.8028
  40   2.0000      -0.585319       -15.9273
  41   2.0000      -0.568075       -15.4581
  42   2.0000      -0.565746       -15.3947
  43   2.0000      -0.555705       -15.1215
  44   2.0000      -0.548279       -14.9194
  45   2.0000      -0.520562       -14.1652
  46   2.0000      -0.512114       -13.9353
  47   2.0000      -0.510044       -13.8790
  48   2.0000      -0.498288       -13.5591
  49   2.0000      -0.494264       -13.4496
  50   2.0000      -0.485480       -13.2106
  51   2.0000      -0.477699       -12.9988
  52   2.0000      -0.469459       -12.7746
  53   2.0000      -0.462289       -12.5795
  54   2.0000      -0.459934       -12.5154
  55   2.0000      -0.447637       -12.1808
  56   2.0000      -0.443439       -12.0666
  57   2.0000      -0.434669       -11.8279
  58   2.0000      -0.432424       -11.7668
  59   2.0000      -0.424703       -11.5567
  60   2.0000      -0.422213       -11.4890
  61   2.0000      -0.413358       -11.2480
  62   2.0000      -0.409983       -11.1562
  63   2.0000      -0.334900        -9.1131
  64   2.0000      -0.327904        -8.9227
  65   2.0000      -0.315764        -8.5924
  66   2.0000      -0.309185        -8.4134
  67   0.0000       0.041151         1.1198
  68   0.0000       0.046122         1.2550
  69   0.0000       0.101102         2.7511
  70   0.0000       0.112996         3.0748
  71   0.0000       0.127052         3.4573

MULLIKEN ATOMIC CHARGES
-----------------------
   0 S :    0.107560
   1 C :   -0.080738
   2 C :   -0.108398
   3 C :    0.038962
   4 C :   -0.185686
   5 H :    0.029760
   6 C :    0.067310
   7 H :    0.040760
   8 H :    0.015950
   9 C :   -0.112580
  10 H :    0.028895
  11 H :    0.029457
  12 C :   -0.013088
  13 H :    0.043237
  14 H :    0.034460
  15 H :    0.031379
  16 S :    0.110973
  17 C :   -0.059279
  18 C :   -0.042270
  19 C :   -0.052987
  20 C :   -0.191590
  21 H :    0.018217
  22 C :    0.093766
  23 H :    0.040200
  24 H :    0.021178
  25 C :   -0.059066
  26 H :    0.026290
  27 H :    0.027529
  28 C :   -0.075989
  29 H :    0.038485
  30 H :    0.042058
  31 H :    0.042474
  32 H :    0.018552
  33 H :    0.034222
Sum of atomic charges:   -0.0000000

LOEWDIN ATOMIC CHARGES
----------------------
   0 S :    0.391549
   1 C :   -0.176261
   2 C :   -0.063677
   3 C :   -0.054281
   4 C :   -0.198535
   5 H :    0.036521
   6 C :   -0.034854
   7 H :    0.033477
   8 H :    0.028422
   9 C :   -0.042134
  10 H :    0.022175
  11 H :    0.021425
  12 C :   -0.062522
  13 H :    0.025643
  14 H :    0.030750
  15 H :    0.029244
  16 S :    0.405727
  17 C :   -0.180540
  18 C :   -0.075431
  19 C :   -0.046435
  20 C :   -0.193251
  21 H :    0.024586
  22 C :   -0.024788
  23 H :    0.034300
  24 H :    0.030013
  25 C :   -0.034139
  26 H :    0.024127
  27 H :    0.017105
  28 C :   -0.074942
  29 H :    0.026111
  30 H :    0.026460
  31 H :    0.033264
  32 H :    0.010892
  33 H :    0.009997

  Mayer bond orders larger than 0.100000
B(  0-S ,  1-C ) :   1.1399 B(  0-S ,  4-C ) :   1.1282 B(  1-C ,  2-C ) :   1.6224
B(  1-C , 32-H ) :   0.9699 B(  2-C ,  3-C ) :   1.2118 B(  2-C ,  6-C ) :   1.0333
B(  3-C ,  4-C ) :   1.6105 B(  3-C ,  5-H ) :   0.9886 B(  4-C , 20-C ) :   1.0144
B(  6-C ,  7-H ) :   0.9453 B(  6-C ,  8-H ) :   0.9380 B(  6-C ,  9-C ) :   1.0528
B(  9-C , 10-H ) :   0.9587 B(  9-C , 11-H ) :   0.9546 B(  9-C , 12-C ) :   1.0943
B( 12-C , 13-H ) :   0.9616 B( 12-C , 14-H ) :   0.9737 B( 12-C , 15-H ) :   0.9684
B( 16-S , 17-C ) :   1.1931 B( 16-S , 20-C ) :   1.1339 B( 17-C , 18-C ) :   1.5590
B( 17-C , 20-C ) :   0.1060 B( 17-C , 33-H ) :   0.9793 B( 18-C , 19-C ) :   1.2618
B( 18-C , 21-H ) :   0.9841 B( 19-C , 20-C ) :   1.5934 B( 19-C , 22-C ) :   1.0288
B( 22-C , 23-H ) :   0.9289 B( 22-C , 24-H ) :   0.9330 B( 22-C , 25-C ) :   1.0734
B( 25-C , 26-H ) :   0.9583 B( 25-C , 27-H ) :   0.9542 B( 25-C , 28-C ) :   1.0723
B( 28-C , 29-H ) :   0.9778 B( 28-C , 30-H ) :   0.9772 B( 28-C , 31-H ) :   0.9750

Dispersion correction           -0.015157572
FINAL SINGLE POINT ENERGY     -1339.870696673596

DIPOLE MOMENT
-------------
                                X             Y             Z
Electronic contribution:      7.61086       9.48434      -0.99310
Nuclear contribution   :     -7.71640      -9.91360       1.14143
                        -----------------------------------------
Total Dipole Moment    :     -0.10554      -0.42926       0.14833
                        -----------------------------------------
Magnitude (a.u.)       :      0.46627
Magnitude (Debye)      :      1.18517

Rotational constants in cm-1:     0.019118     0.009157     0.007097
Rotational constants in MHz :   573.154962   274.519281   212.769697

                             ****ORCA TERMINATED NORMALLY****
TOTAL RUN TIME: 0 days 0 hours 0 minutes 30 seconds 227 msec
