                         Program Version 4.2.1 -  RELEASE  -
|  1> ! wB97X-D3 SP def2-SVP
|  2> %pal
|  3> nprocs 16
|  4> end
|  5>
|  6> * xyz 0 1
|  7> S 	 -87.0714 	 46.7344 	 130.353
|  8> C 	 -87.2519 	 45.3572 	 131.495
|  9> C 	 -86.3295 	 44.3739 	 131.164
| 10> C 	 -85.5835 	 44.7462 	 130.045
| 11> C 	 -85.8559 	 45.9133 	 129.423
| 12> H 	 -84.8846 	 44.0236 	 129.636
| 13> C 	 -86.2576 	 43.0231 	 131.757
| 14> H 	 -85.6202 	 42.4228 	 131.241
| 15> H 	 -87.1472 	 42.449 	 131.605
| 16> C 	 -86.0883 	 42.8446 	 133.288
| 17> H 	 -87.0062 	 43.0451 	 133.881
| 18> H 	 -85.9409 	 41.8428 	 133.461
| 19> C 	 -84.925 	 43.5186 	 133.997
| 20> H 	 -84.7521 	 43.0254 	 134.98
| 21> H 	 -84.0054 	 43.4467 	 133.463
| 22> H 	 -85.1435 	 44.5992 	 134.221
| 23> S 	 -83.9266 	 47.6844 	 128.428
| 24> C 	 -83.8604 	 47.9902 	 126.702
| 25> C 	 -84.8174 	 47.2899 	 126.025
| 26> C 	 -85.5965 	 46.447 	 126.878
| 27> C 	 -85.2705 	 46.5349 	 128.218
| 28> H 	 -84.9214 	 47.5006 	 124.944
| 29> C 	 -86.6255 	 45.4642 	 126.291
| 30> H 	 -87.3089 	 45.1668 	 127.064
| 31> H 	 -86.0933 	 44.5668 	 125.991
| 32> C 	 -87.424 	 45.921 	 125.015
| 33> H 	 -87.939 	 45.019 	 124.725
| 34> H 	 -86.8431 	 46.2582 	 124.15
| 35> C 	 -88.4499 	 47.0585 	 125.274
| 36> H 	 -88.0738 	 47.9334 	 125.849
| 37> H 	 -89.2321 	 46.6394 	 125.914
| 38> H 	 -88.8209 	 47.3769 	 124.316
| 39> H 	 -88.0404 	 45.3564 	 132.243
| 40> H 	 -83.2025 	 48.6384 	 126.184
| 41> *
| 42>
| 43>                          ****END OF INPUT****

CARTESIAN COORDINATES (ANGSTROEM)
---------------------------------
  S    -87.071400   46.734400  130.353000
  C    -87.251900   45.357200  131.495000
  C    -86.329500   44.373900  131.164000
  C    -85.583500   44.746200  130.045000
  C    -85.855900   45.913300  129.423000
  H    -84.884600   44.023600  129.636000
  C    -86.257600   43.023100  131.757000
  H    -85.620200   42.422800  131.241000
  H    -87.147200   42.449000  131.605000
  C    -86.088300   42.844600  133.288000
  H    -87.006200   43.045100  133.881000
  H    -85.940900   41.842800  133.461000
  C    -84.925000   43.518600  133.997000
  H    -84.752100   43.025400  134.980000
  H    -84.005400   43.446700  133.463000
  H    -85.143500   44.599200  134.221000
  S    -83.926600   47.684400  128.428000
  C    -83.860400   47.990200  126.702000
  C    -84.817400   47.289900  126.025000
  C    -85.596500   46.447000  126.878000
  C    -85.270500   46.534900  128.218000
  H    -84.921400   47.500600  124.944000
  C    -86.625500   45.464200  126.291000
  H    -87.308900   45.166800  127.064000
  H    -86.093300   44.566800  125.991000
  C    -87.424000   45.921000  125.015000
  H    -87.939000   45.019000  124.725000
  H    -86.843100   46.258200  124.150000
  C    -88.449900   47.058500  125.274000
  H    -88.073800   47.933400  125.849000
  H    -89.232100   46.639400  125.914000
  H    -88.820900   47.376900  124.316000
  H    -88.040400   45.356400  132.243000
  H    -83.202500   48.638400  126.184000

 Total Charge           Charge          ....    0
 Multiplicity           Mult            ....    1
 Number of Electrons    NEL             ....  134
 Basis Dimension        Dim             ....  322

ORBITAL ENERGIES
----------------

  NO   OCC          E(Eh)            E(eV)
   0   2.0000     -88.963161     -2420.8107
   1   2.0000     -88.962433     -2420.7909
   2   2.0000     -10.328245      -281.0458
   3   2.0000     -10.327036      -281.0129
   4   2.0000     -10.319433      -280.8060
   5   2.0000     -10.314022      -280.6588
   6   2.0000     -10.305819      -280.4356
   7   2.0000     -10.297781      -280.2169
   8   2.0000     -10.292519      -280.0737
   9   2.0000     -10.291355      -280.0420
  10   2.0000     -10.288330      -279.9597
  11   2.0000     -10.287394      -279.9342
  12   2.0000     -10.282474      -279.8003
  13   2.0000     -10.281821      -279.7826
  14   2.0000     -10.274943      -279.5954
  15   2.0000     -10.274717      -279.5893
  16   2.0000      -8.077442      -219.7984
  17   2.0000      -8.076886      -219.7832
  18   2.0000      -6.036001      -164.2479
  19   2.0000      -6.035368      -164.2307
  20   2.0000      -6.032005      -164.1392
  21   2.0000      -6.031256      -164.1188
  22   2.0000      -6.028168      -164.0348
  23   2.0000      -6.027848      -164.0261
  24   2.0000      -1.005277       -27.3550
  25   2.0000      -0.984271       -26.7834
  26   2.0000      -0.915158       -24.9027
  27   2.0000      -0.899736       -24.4831
  28   2.0000      -0.868326       -23.6283
  29   2.0000      -0.847850       -23.0712
  30   2.0000      -0.842422       -22.9235
  31   2.0000      -0.816983       -22.2312
  32   2.0000      -0.789335       -21.4789
  33   2.0000      -0.774534       -21.0761
  34   2.0000      -0.706226       -19.2174
  35   2.0000      -0.703384       -19.1401
  36   2.0000      -0.694563       -18.9000
  37   2.0000      -0.652183       -17.7468
  38   2.0000      -0.643682       -17.5155
  39   2.0000      -0.619996       -16.8709
  40   2.0000      -0.597131       -16.2488
  41   2.0000      -0.579359       -15.7652
  42   2.0000      -0.549667       -14.9572
  43   2.0000      -0.548043       -14.9130
  44   2.0000      -0.543420       -14.7872
  45   2.0000      -0.527203       -14.3459
  46   2.0000      -0.525479       -14.2990
  47   2.0000      -0.514393       -13.9973
  48   2.0000      -0.501115       -13.6360
  49   2.0000      -0.499975       -13.6050
  50   2.0000      -0.495005       -13.4698
  51   2.0000      -0.476261       -12.9597
  52   2.0000      -0.471694       -12.8355
  53   2.0000      -0.463150       -12.6029
  54   2.0000      -0.457523       -12.4498
  55   2.0000      -0.442706       -12.0466
  56   2.0000      -0.435095       -11.8395
  57   2.0000      -0.432158       -11.7596
  58   2.0000      -0.431345       -11.7375
  59   2.0000      -0.428745       -11.6667
  60   2.0000      -0.424173       -11.5423
  61   2.0000      -0.413351       -11.2479
  62   2.0000      -0.409713       -11.1489
  63   2.0000      -0.335391        -9.1265
  64   2.0000      -0.328027        -8.9261
  65   2.0000      -0.320215        -8.7135
  66   2.0000      -0.314487        -8.5576
  67   0.0000       0.044903         1.2219
  68   0.0000       0.051642         1.4053
  69   0.0000       0.119657         3.2560
  70   0.0000       0.124521         3.3884
  71   0.0000       0.129856         3.5336

MULLIKEN ATOMIC CHARGES
-----------------------
   0 S :    0.101810
   1 C :   -0.147770
   2 C :   -0.042717
   3 C :    0.036588
   4 C :   -0.168298
   5 H :    0.003617
   6 C :    0.133045
   7 H :   -0.022023
   8 H :    0.023923
   9 C :   -0.069838
  10 H :    0.025636
  11 H :    0.003536
  12 C :   -0.062422
  13 H :    0.031250
  14 H :    0.025679
  15 H :    0.043422
  16 S :    0.109079
  17 C :   -0.068856
  18 C :   -0.058430
  19 C :   -0.006656
  20 C :   -0.180693
  21 H :    0.033296
  22 C :    0.084963
  23 H :    0.024674
  24 H :    0.039772
  25 C :   -0.097995
  26 H :    0.028634
  27 H :    0.030958
  28 C :   -0.055103
  29 H :    0.046229
  30 H :    0.029531
  31 H :    0.031587
  32 H :    0.054643
  33 H :    0.038929
Sum of atomic charges:   -0.0000000

LOEWDIN ATOMIC CHARGES
----------------------
   0 S :    0.396772
   1 C :   -0.171554
   2 C :   -0.066733
   3 C :   -0.062941
   4 C :   -0.204483
   5 H :    0.031062
   6 C :   -0.027397
   7 H :    0.017145
   8 H :    0.040936
   9 C :   -0.038800
  10 H :    0.026477
  11 H :    0.015385
  12 C :   -0.069545
  13 H :    0.030036
  14 H :    0.019114
  15 H :    0.030257
  16 S :    0.392068
  17 C :   -0.171495
  18 C :   -0.081189
  19 C :   -0.049430
  20 C :   -0.200170
  21 H :    0.039179
  22 C :   -0.025251
  23 H :    0.028342
  24 H :    0.035606
  25 C :   -0.041039
  26 H :    0.025281
  27 H :    0.020603
  28 C :   -0.067620
  29 H :    0.030654
  30 H :    0.025060
  31 H :    0.022153
  32 H :    0.027427
  33 H :    0.024088

  Mayer bond orders larger than 0.100000
B(  0-S ,  1-C ) :   1.1520 B(  0-S ,  4-C ) :   1.1554 B(  1-C ,  2-C ) :   1.5587
B(  1-C ,  4-C ) :   0.1065 B(  1-C , 32-H ) :   0.9764 B(  2-C ,  3-C ) :   1.2743
B(  2-C ,  6-C ) :   1.0325 B(  3-C ,  4-C ) :   1.5809 B(  3-C ,  5-H ) :   0.9963
B(  4-C , 20-C ) :   0.9987 B(  6-C ,  7-H ) :   0.9265 B(  6-C ,  8-H ) :   0.9240
B(  6-C ,  9-C ) :   1.0794 B(  9-C , 10-H ) :   0.9544 B(  9-C , 11-H ) :   0.9505
B(  9-C , 12-C ) :   1.0851 B( 12-C , 13-H ) :   0.9740 B( 12-C , 14-H ) :   0.9763
B( 12-C , 15-H ) :   0.9743 B( 16-S , 17-C ) :   1.1530 B( 16-S , 20-C ) :   1.1300
B( 17-C , 18-C ) :   1.6429 B( 17-C , 33-H ) :   0.9657 B( 18-C , 19-C ) :   1.2164
B( 18-C , 21-H ) :   0.9843 B( 19-C , 20-C ) :   1.6295 B( 19-C , 22-C ) :   1.0355
B( 22-C , 23-H ) :   0.9333 B( 22-C , 24-H ) :   0.9351 B( 22-C , 25-C ) :   1.0718
B( 25-C , 26-H ) :   0.9551 B( 25-C , 27-H ) :   0.9584 B( 25-C , 28-C ) :   1.0709
B( 28-C , 29-H ) :   0.9777 B( 28-C , 30-H ) :   0.9762 B( 28-C , 31-H ) :   0.9767

Dispersion correction           -0.014053242
FINAL SINGLE POINT ENERGY     -1339.875751433125

DIPOLE MOMENT
-------------
                                X             Y             Z
Electronic contribution:      7.80045      14.83451      -0.52321
Nuclear contribution   :     -7.98848     -15.48149       0.26611
                        -----------------------------------------
Total Dipole Moment    :     -0.18802      -0.64698      -0.25710
                        -----------------------------------------
Magnitude (a.u.)       :      0.72114
Magnitude (Debye)      :      1.83298

Rotational constants in cm-1:     0.023321     0.007195     0.006345
Rotational constants in MHz :   699.145005   215.714454   190.208882

                             ****ORCA TERMINATED NORMALLY****
TOTAL RUN TIME: 0 days 0 hours 0 minutes 33 seconds 883 msec
