                         Program Version 4.2.1 -  RELEASE  -
|  1> ! wB97X-D3 SP def2-SVP
|  2> %pal
|  3> nprocs 16
|  4> end
|  5>
|  6> * xyz 0 1
|  7> S 	 42.2678 	 19.2125 	 88.3856
|  8> C 	 43.2652 	 20.5346 	 89.0567
|  9> C 	 43.6731 	 20.2313 	 90.3181
| 10> C 	 43.3889 	 18.8867 	 90.6263
| 11> C 	 42.5756 	 18.1945 	 89.724
| 12> H 	 43.6906 	 18.4363 	 91.6029
| 13> C 	 44.5395 	 21.1078 	 91.1964
| 14> H 	 44.108 	 20.98 	 92.2112
| 15> H 	 44.4018 	 22.1867 	 91.0349
| 16> C 	 46.0944 	 20.8188 	 91.0799
| 17> H 	 46.2254 	 19.8023 	 91.4108
| 18> H 	 46.2762 	 20.7773 	 89.9801
| 19> C 	 46.994 	 21.6383 	 92.0099
| 20> H 	 46.8484 	 22.7416 	 91.9204
| 21> H 	 46.8116 	 21.3972 	 93.0609
| 22> H 	 48.0744 	 21.5359 	 91.7971
| 23> S 	 41.19 	 16.8409 	 91.5137
| 24> C 	 40.1536 	 15.56 	 91.029
| 25> C 	 40.5569 	 15.0957 	 89.7966
| 26> C 	 41.5207 	 15.9631 	 89.1546
| 27> C 	 41.8885 	 16.969 	 90.0048
| 28> H 	 40.1441 	 14.1516 	 89.5055
| 29> C 	 41.9166 	 15.7616 	 87.6964
| 30> H 	 42.7613 	 16.5089 	 87.4862
| 31> H 	 41.0342 	 15.7841 	 87.0325
| 32> C 	 42.5186 	 14.2899 	 87.3375
| 33> H 	 42.5276 	 14.2278 	 86.2457
| 34> H 	 41.9532 	 13.4738 	 87.6475
| 35> C 	 43.964 	 14.1581 	 87.9509
| 36> H 	 44.1768 	 13.0487 	 87.9225
| 37> H 	 44.0675 	 14.407 	 88.9993
| 38> H 	 44.5634 	 14.7592 	 87.3445
| 39> H 	 43.5721 	 21.3321 	 88.4472
| 40> H 	 39.6986 	 14.9777 	 91.7429
| 41> *
| 42>
| 43>                          ****END OF INPUT****

CARTESIAN COORDINATES (ANGSTROEM)
---------------------------------
  S     42.267800   19.212500   88.385600
  C     43.265200   20.534600   89.056700
  C     43.673100   20.231300   90.318100
  C     43.388900   18.886700   90.626300
  C     42.575600   18.194500   89.724000
  H     43.690600   18.436300   91.602900
  C     44.539500   21.107800   91.196400
  H     44.108000   20.980000   92.211200
  H     44.401800   22.186700   91.034900
  C     46.094400   20.818800   91.079900
  H     46.225400   19.802300   91.410800
  H     46.276200   20.777300   89.980100
  C     46.994000   21.638300   92.009900
  H     46.848400   22.741600   91.920400
  H     46.811600   21.397200   93.060900
  H     48.074400   21.535900   91.797100
  S     41.190000   16.840900   91.513700
  C     40.153600   15.560000   91.029000
  C     40.556900   15.095700   89.796600
  C     41.520700   15.963100   89.154600
  C     41.888500   16.969000   90.004800
  H     40.144100   14.151600   89.505500
  C     41.916600   15.761600   87.696400
  H     42.761300   16.508900   87.486200
  H     41.034200   15.784100   87.032500
  C     42.518600   14.289900   87.337500
  H     42.527600   14.227800   86.245700
  H     41.953200   13.473800   87.647500
  C     43.964000   14.158100   87.950900
  H     44.176800   13.048700   87.922500
  H     44.067500   14.407000   88.999300
  H     44.563400   14.759200   87.344500
  H     43.572100   21.332100   88.447200
  H     39.698600   14.977700   91.742900

 Total Charge           Charge          ....    0
 Multiplicity           Mult            ....    1
 Number of Electrons    NEL             ....  134
 Basis Dimension        Dim             ....  322

ORBITAL ENERGIES
----------------

  NO   OCC          E(Eh)            E(eV)
   0   2.0000     -88.964878     -2420.8574
   1   2.0000     -88.960607     -2420.7412
   2   2.0000     -10.325579      -280.9733
   3   2.0000     -10.317693      -280.7587
   4   2.0000     -10.309999      -280.5493
   5   2.0000     -10.306032      -280.4414
   6   2.0000     -10.303620      -280.3758
   7   2.0000     -10.303036      -280.3599
   8   2.0000     -10.298491      -280.2362
   9   2.0000     -10.296757      -280.1890
  10   2.0000     -10.294064      -280.1157
  11   2.0000     -10.292716      -280.0790
  12   2.0000     -10.292015      -280.0600
  13   2.0000     -10.288099      -279.9534
  14   2.0000     -10.286198      -279.9017
  15   2.0000     -10.273717      -279.5621
  16   2.0000      -8.079539      -219.8554
  17   2.0000      -8.077913      -219.8112
  18   2.0000      -6.038008      -164.3026
  19   2.0000      -6.036213      -164.2537
  20   2.0000      -6.033974      -164.1928
  21   2.0000      -6.032102      -164.1418
  22   2.0000      -6.030419      -164.0960
  23   2.0000      -6.028649      -164.0479
  24   2.0000      -1.020733       -27.7756
  25   2.0000      -0.991350       -26.9760
  26   2.0000      -0.908278       -24.7155
  27   2.0000      -0.897545       -24.4234
  28   2.0000      -0.875120       -23.8132
  29   2.0000      -0.851398       -23.1677
  30   2.0000      -0.843253       -22.9461
  31   2.0000      -0.812638       -22.1130
  32   2.0000      -0.781282       -21.2598
  33   2.0000      -0.771320       -20.9887
  34   2.0000      -0.709439       -19.3048
  35   2.0000      -0.704286       -19.1646
  36   2.0000      -0.698461       -19.0061
  37   2.0000      -0.668644       -18.1947
  38   2.0000      -0.635731       -17.2991
  39   2.0000      -0.619468       -16.8566
  40   2.0000      -0.596604       -16.2344
  41   2.0000      -0.572157       -15.5692
  42   2.0000      -0.556994       -15.1566
  43   2.0000      -0.548845       -14.9348
  44   2.0000      -0.537779       -14.6337
  45   2.0000      -0.526345       -14.3226
  46   2.0000      -0.517500       -14.0819
  47   2.0000      -0.513516       -13.9735
  48   2.0000      -0.507601       -13.8125
  49   2.0000      -0.497430       -13.5358
  50   2.0000      -0.493421       -13.4267
  51   2.0000      -0.479672       -13.0525
  52   2.0000      -0.467760       -12.7284
  53   2.0000      -0.462351       -12.5812
  54   2.0000      -0.459216       -12.4959
  55   2.0000      -0.453051       -12.3281
  56   2.0000      -0.448311       -12.1992
  57   2.0000      -0.435872       -11.8607
  58   2.0000      -0.432334       -11.7644
  59   2.0000      -0.423975       -11.5370
  60   2.0000      -0.422148       -11.4872
  61   2.0000      -0.411626       -11.2009
  62   2.0000      -0.403909       -10.9909
  63   2.0000      -0.351774        -9.5723
  64   2.0000      -0.332022        -9.0348
  65   2.0000      -0.323751        -8.8097
  66   2.0000      -0.293504        -7.9867
  67   0.0000       0.027779         0.7559
  68   0.0000       0.077279         2.1029
  69   0.0000       0.107716         2.9311
  70   0.0000       0.118607         3.2275
  71   0.0000       0.130584         3.5534

MULLIKEN ATOMIC CHARGES
-----------------------
   0 S :    0.107384
   1 C :   -0.127024
   2 C :   -0.054820
   3 C :   -0.028138
   4 C :   -0.126781
   5 H :    0.020818
   6 C :    0.029515
   7 H :    0.029780
   8 H :    0.022686
   9 C :   -0.058888
  10 H :    0.022115
  11 H :    0.037631
  12 C :   -0.052988
  13 H :    0.029216
  14 H :    0.038263
  15 H :    0.043586
  16 S :    0.107971
  17 C :   -0.062600
  18 C :   -0.046507
  19 C :   -0.034207
  20 C :   -0.126281
  21 H :    0.015170
  22 C :    0.020407
  23 H :    0.045942
  24 H :    0.049650
  25 C :   -0.079765
  26 H :    0.032734
  27 H :    0.018030
  28 C :   -0.052429
  29 H :    0.034925
  30 H :    0.043497
  31 H :    0.028769
  32 H :    0.036126
  33 H :    0.036213
Sum of atomic charges:   -0.0000000

LOEWDIN ATOMIC CHARGES
----------------------
   0 S :    0.416115
   1 C :   -0.176109
   2 C :   -0.065215
   3 C :   -0.080468
   4 C :   -0.205301
   5 H :    0.030187
   6 C :   -0.035173
   7 H :    0.032747
   8 H :    0.028033
   9 C :   -0.041414
  10 H :    0.022535
  11 H :    0.030501
  12 C :   -0.073014
  13 H :    0.025327
  14 H :    0.029167
  15 H :    0.032590
  16 S :    0.457405
  17 C :   -0.186525
  18 C :   -0.058283
  19 C :   -0.062746
  20 C :   -0.225548
  21 H :    0.027370
  22 C :   -0.036965
  23 H :    0.034071
  24 H :    0.036010
  25 C :   -0.030397
  26 H :    0.025271
  27 H :    0.008589
  28 C :   -0.061772
  29 H :    0.031771
  30 H :    0.025887
  31 H :    0.016220
  32 H :    0.017830
  33 H :    0.011303

  Mayer bond orders larger than 0.100000
B(  0-S ,  1-C ) :   1.1384 B(  0-S ,  4-C ) :   1.1610 B(  1-C ,  2-C ) :   1.5789
B(  1-C ,  4-C ) :   0.1016 B(  1-C , 32-H ) :   0.9805 B(  2-C ,  3-C ) :   1.2714
B(  2-C ,  6-C ) :   1.0322 B(  3-C ,  4-C ) :   1.5208 B(  3-C ,  5-H ) :   0.9878
B(  4-C , 20-C ) :   1.0553 B(  6-C ,  7-H ) :   0.9376 B(  6-C ,  8-H ) :   0.9468
B(  6-C ,  9-C ) :   1.0436 B(  9-C , 10-H ) :   0.9567 B(  9-C , 11-H ) :   0.9594
B(  9-C , 12-C ) :   1.0696 B( 12-C , 13-H ) :   0.9762 B( 12-C , 14-H ) :   0.9740
B( 12-C , 15-H ) :   0.9740 B( 16-S , 17-C ) :   1.1652 B( 16-S , 20-C ) :   1.1677
B( 17-C , 18-C ) :   1.6104 B( 17-C , 33-H ) :   0.9701 B( 18-C , 19-C ) :   1.2259
B( 18-C , 21-H ) :   0.9951 B( 19-C , 20-C ) :   1.5574 B( 19-C , 22-C ) :   1.0488
B( 22-C , 23-H ) :   0.9354 B( 22-C , 24-H ) :   0.9381 B( 22-C , 25-C ) :   1.0585
B( 25-C , 26-H ) :   0.9611 B( 25-C , 27-H ) :   0.9653 B( 25-C , 28-C ) :   1.0595
B( 28-C , 29-H ) :   0.9770 B( 28-C , 30-H ) :   0.9807 B( 28-C , 31-H ) :   0.9803

Dispersion correction           -0.013947968
FINAL SINGLE POINT ENERGY     -1339.861496114940

DIPOLE MOMENT
-------------
                                X             Y             Z
Electronic contribution:    -19.15150       0.68184       1.41234
Nuclear contribution   :     19.44472      -0.88601      -1.35415
                        -----------------------------------------
Total Dipole Moment    :      0.29322      -0.20417       0.05819
                        -----------------------------------------
Magnitude (a.u.)       :      0.36200
Magnitude (Debye)      :      0.92014

Rotational constants in cm-1:     0.021683     0.007273     0.006706
Rotational constants in MHz :   650.054204   218.026385   201.051329

                             ****ORCA TERMINATED NORMALLY****
TOTAL RUN TIME: 0 days 0 hours 0 minutes 27 seconds 666 msec
