                         Program Version 4.2.1 -  RELEASE  -
|  1> ! wB97X-D3 SP def2-SVP
|  2> %pal
|  3> nprocs 16
|  4> end
|  5>
|  6> * xyz 0 1
|  7> S 	 -56.3477 	 41.7868 	 113.326
|  8> C 	 -56.6214 	 41.9089 	 111.604
|  9> C 	 -56.4321 	 40.6733 	 110.972
| 10> C 	 -55.8472 	 39.6846 	 111.938
| 11> C 	 -55.5738 	 40.2614 	 113.169
| 12> H 	 -55.6902 	 38.713 	 111.708
| 13> C 	 -56.9266 	 40.2308 	 109.659
| 14> H 	 -57.8389 	 39.7097 	 109.929
| 15> H 	 -56.1605 	 39.5991 	 109.138
| 16> C 	 -57.2472 	 41.3225 	 108.561
| 17> H 	 -58.0025 	 42.0157 	 109.012
| 18> H 	 -56.3506 	 41.8573 	 108.26
| 19> C 	 -57.8412 	 40.9234 	 107.238
| 20> H 	 -58.5148 	 40.049 	 107.322
| 21> H 	 -58.3483 	 41.7308 	 106.632
| 22> H 	 -57.0754 	 40.5908 	 106.501
| 23> S 	 -53.7633 	 40.4249 	 115.155
| 24> C 	 -53.5265 	 39.0856 	 116.244
| 25> C 	 -54.4435 	 38.0869 	 116.063
| 26> C 	 -55.2859 	 38.2403 	 114.901
| 27> C 	 -55.0007 	 39.5136 	 114.318
| 28> H 	 -54.282 	 37.3209 	 116.855
| 29> C 	 -56.3865 	 37.2373 	 114.638
| 30> H 	 -55.955 	 36.3102 	 114.933
| 31> H 	 -56.5294 	 37.1066 	 113.582
| 32> C 	 -57.6734 	 37.4068 	 115.481
| 33> H 	 -57.3925 	 37.3577 	 116.585
| 34> H 	 -58.2884 	 36.5542 	 115.287
| 35> C 	 -58.5491 	 38.6706 	 115.178
| 36> H 	 -59.1698 	 38.5734 	 114.282
| 37> H 	 -57.9226 	 39.5526 	 114.995
| 38> H 	 -59.152 	 38.7574 	 116.136
| 39> H 	 -56.8678 	 42.7783 	 111.079
| 40> H 	 -52.9307 	 39.0595 	 117.086
| 41> *
| 42>
| 43>                          ****END OF INPUT****

CARTESIAN COORDINATES (ANGSTROEM)
---------------------------------
  S    -56.347700   41.786800  113.326000
  C    -56.621400   41.908900  111.604000
  C    -56.432100   40.673300  110.972000
  C    -55.847200   39.684600  111.938000
  C    -55.573800   40.261400  113.169000
  H    -55.690200   38.713000  111.708000
  C    -56.926600   40.230800  109.659000
  H    -57.838900   39.709700  109.929000
  H    -56.160500   39.599100  109.138000
  C    -57.247200   41.322500  108.561000
  H    -58.002500   42.015700  109.012000
  H    -56.350600   41.857300  108.260000
  C    -57.841200   40.923400  107.238000
  H    -58.514800   40.049000  107.322000
  H    -58.348300   41.730800  106.632000
  H    -57.075400   40.590800  106.501000
  S    -53.763300   40.424900  115.155000
  C    -53.526500   39.085600  116.244000
  C    -54.443500   38.086900  116.063000
  C    -55.285900   38.240300  114.901000
  C    -55.000700   39.513600  114.318000
  H    -54.282000   37.320900  116.855000
  C    -56.386500   37.237300  114.638000
  H    -55.955000   36.310200  114.933000
  H    -56.529400   37.106600  113.582000
  C    -57.673400   37.406800  115.481000
  H    -57.392500   37.357700  116.585000
  H    -58.288400   36.554200  115.287000
  C    -58.549100   38.670600  115.178000
  H    -59.169800   38.573400  114.282000
  H    -57.922600   39.552600  114.995000
  H    -59.152000   38.757400  116.136000
  H    -56.867800   42.778300  111.079000
  H    -52.930700   39.059500  117.086000

 Total Charge           Charge          ....    0
 Multiplicity           Mult            ....    1
 Number of Electrons    NEL             ....  134
 Basis Dimension        Dim             ....  322

ORBITAL ENERGIES
----------------

  NO   OCC          E(Eh)            E(eV)
   0   2.0000     -88.966347     -2420.8974
   1   2.0000     -88.965658     -2420.8786
   2   2.0000     -10.332963      -281.1742
   3   2.0000     -10.329091      -281.0689
   4   2.0000     -10.313369      -280.6410
   5   2.0000     -10.309291      -280.5301
   6   2.0000     -10.307187      -280.4728
   7   2.0000     -10.306041      -280.4416
   8   2.0000     -10.300404      -280.2882
   9   2.0000     -10.294547      -280.1289
  10   2.0000     -10.293047      -280.0880
  11   2.0000     -10.292020      -280.0601
  12   2.0000     -10.289931      -280.0032
  13   2.0000     -10.289712      -279.9973
  14   2.0000     -10.286059      -279.8979
  15   2.0000     -10.279006      -279.7060
  16   2.0000      -8.081125      -219.8986
  17   2.0000      -8.080628      -219.8851
  18   2.0000      -6.039479      -164.3426
  19   2.0000      -6.039269      -164.3369
  20   2.0000      -6.035639      -164.2381
  21   2.0000      -6.035267      -164.2280
  22   2.0000      -6.032030      -164.1399
  23   2.0000      -6.031063      -164.1136
  24   2.0000      -1.003906       -27.3177
  25   2.0000      -0.981335       -26.7035
  26   2.0000      -0.911972       -24.8160
  27   2.0000      -0.905344       -24.6357
  28   2.0000      -0.867535       -23.6068
  29   2.0000      -0.851473       -23.1698
  30   2.0000      -0.843839       -22.9620
  31   2.0000      -0.815589       -22.1933
  32   2.0000      -0.783230       -21.3128
  33   2.0000      -0.772540       -21.0219
  34   2.0000      -0.708348       -19.2751
  35   2.0000      -0.699394       -19.0315
  36   2.0000      -0.688038       -18.7225
  37   2.0000      -0.656050       -17.8520
  38   2.0000      -0.640811       -17.4373
  39   2.0000      -0.613979       -16.7072
  40   2.0000      -0.593814       -16.1585
  41   2.0000      -0.577648       -15.7186
  42   2.0000      -0.566902       -15.4262
  43   2.0000      -0.544720       -14.8226
  44   2.0000      -0.536920       -14.6103
  45   2.0000      -0.525382       -14.2964
  46   2.0000      -0.520955       -14.1759
  47   2.0000      -0.514160       -13.9910
  48   2.0000      -0.507180       -13.8011
  49   2.0000      -0.495305       -13.4779
  50   2.0000      -0.490861       -13.3570
  51   2.0000      -0.482572       -13.1314
  52   2.0000      -0.472160       -12.8481
  53   2.0000      -0.464251       -12.6329
  54   2.0000      -0.454017       -12.3544
  55   2.0000      -0.448774       -12.2118
  56   2.0000      -0.441337       -12.0094
  57   2.0000      -0.435406       -11.8480
  58   2.0000      -0.431599       -11.7444
  59   2.0000      -0.422881       -11.5072
  60   2.0000      -0.422349       -11.4927
  61   2.0000      -0.415841       -11.3156
  62   2.0000      -0.402794       -10.9606
  63   2.0000      -0.342309        -9.3147
  64   2.0000      -0.330689        -8.9985
  65   2.0000      -0.320197        -8.7130
  66   2.0000      -0.294442        -8.0122
  67   0.0000       0.030199         0.8218
  68   0.0000       0.072235         1.9656
  69   0.0000       0.099807         2.7159
  70   0.0000       0.115973         3.1558
  71   0.0000       0.128194         3.4883

MULLIKEN ATOMIC CHARGES
-----------------------
   0 S :    0.116807
   1 C :   -0.108818
   2 C :   -0.097442
   3 C :    0.053607
   4 C :   -0.100104
   5 H :   -0.033621
   6 C :    0.047331
   7 H :    0.052591
   8 H :    0.043879
   9 C :   -0.107491
  10 H :    0.037763
  11 H :    0.040053
  12 C :   -0.075525
  13 H :    0.028561
  14 H :    0.046902
  15 H :    0.026657
  16 S :    0.115992
  17 C :   -0.058792
  18 C :   -0.082578
  19 C :   -0.017040
  20 C :   -0.198715
  21 H :    0.032965
  22 C :    0.119148
  23 H :    0.006829
  24 H :    0.012323
  25 C :   -0.083490
  26 H :    0.038518
  27 H :    0.027730
  28 C :   -0.060108
  29 H :    0.037187
  30 H :    0.037153
  31 H :    0.047370
  32 H :    0.032735
  33 H :    0.021623
Sum of atomic charges:   -0.0000000

LOEWDIN ATOMIC CHARGES
----------------------
   0 S :    0.415196
   1 C :   -0.201263
   2 C :   -0.051369
   3 C :   -0.048097
   4 C :   -0.205106
   5 H :    0.008207
   6 C :   -0.037094
   7 H :    0.042396
   8 H :    0.037883
   9 C :   -0.051708
  10 H :    0.026697
  11 H :    0.027641
  12 C :   -0.079718
  13 H :    0.023971
  14 H :    0.036683
  15 H :    0.024666
  16 S :    0.415132
  17 C :   -0.183820
  18 C :   -0.075820
  19 C :   -0.050159
  20 C :   -0.197461
  21 H :    0.041679
  22 C :   -0.032891
  23 H :    0.030448
  24 H :    0.025828
  25 C :   -0.037280
  26 H :    0.031292
  27 H :    0.021201
  28 C :   -0.070896
  29 H :    0.025128
  30 H :    0.021998
  31 H :    0.037090
  32 H :    0.016381
  33 H :    0.013167

  Mayer bond orders larger than 0.100000
B(  0-S ,  1-C ) :   1.1166 B(  0-S ,  4-C ) :   1.1594 B(  1-C ,  2-C ) :   1.6153
B(  1-C , 32-H ) :   0.9747 B(  2-C ,  3-C ) :   1.2122 B(  2-C ,  6-C ) :   1.0333
B(  3-C ,  4-C ) :   1.5682 B(  3-C ,  5-H ) :   1.0218 B(  4-C , 20-C ) :   1.0203
B(  6-C ,  7-H ) :   0.9277 B(  6-C ,  8-H ) :   0.9425 B(  6-C ,  9-C ) :   1.0728
B(  9-C , 10-H ) :   0.9500 B(  9-C , 11-H ) :   0.9621 B(  9-C , 12-C ) :   1.0834
B( 12-C , 13-H ) :   0.9734 B( 12-C , 14-H ) :   0.9731 B( 12-C , 15-H ) :   0.9743
B( 16-S , 17-C ) :   1.1392 B( 16-S , 20-C ) :   1.1660 B( 17-C , 18-C ) :   1.6662
B( 17-C , 33-H ) :   0.9693 B( 18-C , 19-C ) :   1.2049 B( 18-C , 21-H ) :   0.9785
B( 19-C , 20-C ) :   1.5660 B( 19-C , 22-C ) :   1.0489 B( 22-C , 23-H ) :   0.9176
B( 22-C , 24-H ) :   0.9318 B( 22-C , 25-C ) :   1.0769 B( 25-C , 26-H ) :   0.9586
B( 25-C , 27-H ) :   0.9536 B( 25-C , 28-C ) :   1.0619 B( 28-C , 29-H ) :   0.9766
B( 28-C , 30-H ) :   0.9774 B( 28-C , 31-H ) :   0.9752

Dispersion correction           -0.014541410
FINAL SINGLE POINT ENERGY     -1339.850896394065

DIPOLE MOMENT
-------------
                                X             Y             Z
Electronic contribution:     17.16672       9.60795      16.31269
Nuclear contribution   :    -17.49461     -10.13939     -16.55013
                        -----------------------------------------
Total Dipole Moment    :     -0.32789      -0.53144      -0.23743
                        -----------------------------------------
Magnitude (a.u.)       :      0.66806
Magnitude (Debye)      :      1.69808

Rotational constants in cm-1:     0.023016     0.007349     0.006468
Rotational constants in MHz :   690.001040   220.303959   193.906232

                             ****ORCA TERMINATED NORMALLY****
TOTAL RUN TIME: 0 days 0 hours 0 minutes 29 seconds 928 msec
