                         Program Version 4.2.1 -  RELEASE  -
|  1> ! wB97X-D3 SP def2-SVP
|  2> %pal
|  3> nprocs 16
|  4> end
|  5>
|  6> * xyz 0 1
|  7> S 	 11.4163 	 -14.363 	 77.1898
|  8> C 	 11.048 	 -12.6724 	 77.3728
|  9> C 	 11.6558 	 -12.1193 	 78.487
| 10> C 	 12.6338 	 -13.0012 	 79.1228
| 11> C 	 12.5764 	 -14.2944 	 78.5806
| 12> H 	 13.36 	 -12.7321 	 79.8705
| 13> C 	 11.5553 	 -10.7219 	 78.9636
| 14> H 	 11.6896 	 -10.0168 	 78.1412
| 15> H 	 12.3775 	 -10.6123 	 79.7155
| 16> C 	 10.2136 	 -10.4508 	 79.6261
| 17> H 	 9.40224 	 -10.4627 	 78.8713
| 18> H 	 9.93215 	 -11.2482 	 80.3436
| 19> C 	 10.199 	 -9.16569 	 80.4133
| 20> H 	 10.9499 	 -9.15852 	 81.1035
| 21> H 	 10.2962 	 -8.2701 	 79.8101
| 22> H 	 9.23466 	 -9.00942 	 80.881
| 23> S 	 12.5007 	 -16.9953 	 78.9732
| 24> C 	 14.0011 	 -17.8529 	 79.3902
| 25> C 	 15.0467 	 -16.9803 	 79.5
| 26> C 	 14.7177 	 -15.6696 	 78.9854
| 27> C 	 13.3212 	 -15.4784 	 78.888
| 28> H 	 16.0004 	 -17.3704 	 79.7408
| 29> C 	 15.7584 	 -14.6458 	 78.4611
| 30> H 	 15.175 	 -13.7728 	 78.1926
| 31> H 	 16.1979 	 -15.0461 	 77.4593
| 32> C 	 16.8948 	 -14.3219 	 79.4144
| 33> H 	 17.1812 	 -15.2552 	 79.78
| 34> H 	 16.3865 	 -13.8571 	 80.2463
| 35> C 	 18.019 	 -13.5196 	 78.8319
| 36> H 	 18.4123 	 -13.8431 	 77.8859
| 37> H 	 18.8859 	 -13.5021 	 79.5184
| 38> H 	 17.8471 	 -12.4685 	 78.6114
| 39> H 	 10.3449 	 -12.039 	 76.8549
| 40> H 	 14.1262 	 -18.9167 	 79.5026
| 41> *
| 42>
| 43>                          ****END OF INPUT****

CARTESIAN COORDINATES (ANGSTROEM)
---------------------------------
  S     11.416300  -14.363000   77.189800
  C     11.048000  -12.672400   77.372800
  C     11.655800  -12.119300   78.487000
  C     12.633800  -13.001200   79.122800
  C     12.576400  -14.294400   78.580600
  H     13.360000  -12.732100   79.870500
  C     11.555300  -10.721900   78.963600
  H     11.689600  -10.016800   78.141200
  H     12.377500  -10.612300   79.715500
  C     10.213600  -10.450800   79.626100
  H      9.402240  -10.462700   78.871300
  H      9.932150  -11.248200   80.343600
  C     10.199000   -9.165690   80.413300
  H     10.949900   -9.158520   81.103500
  H     10.296200   -8.270100   79.810100
  H      9.234660   -9.009420   80.881000
  S     12.500700  -16.995300   78.973200
  C     14.001100  -17.852900   79.390200
  C     15.046700  -16.980300   79.500000
  C     14.717700  -15.669600   78.985400
  C     13.321200  -15.478400   78.888000
  H     16.000400  -17.370400   79.740800
  C     15.758400  -14.645800   78.461100
  H     15.175000  -13.772800   78.192600
  H     16.197900  -15.046100   77.459300
  C     16.894800  -14.321900   79.414400
  H     17.181200  -15.255200   79.780000
  H     16.386500  -13.857100   80.246300
  C     18.019000  -13.519600   78.831900
  H     18.412300  -13.843100   77.885900
  H     18.885900  -13.502100   79.518400
  H     17.847100  -12.468500   78.611400
  H     10.344900  -12.039000   76.854900
  H     14.126200  -18.916700   79.502600

 Total Charge           Charge          ....    0
 Multiplicity           Mult            ....    1
 Number of Electrons    NEL             ....  134
 Basis Dimension        Dim             ....  322

ORBITAL ENERGIES
----------------

  NO   OCC          E(Eh)            E(eV)
   0   2.0000     -88.967499     -2420.9287
   1   2.0000     -88.965224     -2420.8668
   2   2.0000     -10.334832      -281.2251
   3   2.0000     -10.324939      -280.9559
   4   2.0000     -10.318877      -280.7909
   5   2.0000     -10.312774      -280.6249
   6   2.0000     -10.308491      -280.5083
   7   2.0000     -10.301487      -280.3177
   8   2.0000     -10.299514      -280.2640
   9   2.0000     -10.294778      -280.1351
  10   2.0000     -10.293830      -280.1094
  11   2.0000     -10.291425      -280.0439
  12   2.0000     -10.286245      -279.9029
  13   2.0000     -10.279318      -279.7145
  14   2.0000     -10.277465      -279.6641
  15   2.0000     -10.266714      -279.3715
  16   2.0000      -8.081256      -219.9022
  17   2.0000      -8.080041      -219.8691
  18   2.0000      -6.039956      -164.3556
  19   2.0000      -6.038655      -164.3202
  20   2.0000      -6.035880      -164.2446
  21   2.0000      -6.034566      -164.2089
  22   2.0000      -6.031879      -164.1358
  23   2.0000      -6.030639      -164.1020
  24   2.0000      -1.003541       -27.3077
  25   2.0000      -0.979018       -26.6404
  26   2.0000      -0.917054       -24.9543
  27   2.0000      -0.910622       -24.7793
  28   2.0000      -0.874054       -23.7842
  29   2.0000      -0.852203       -23.1896
  30   2.0000      -0.846012       -23.0212
  31   2.0000      -0.818338       -22.2681
  32   2.0000      -0.781881       -21.2761
  33   2.0000      -0.769699       -20.9446
  34   2.0000      -0.711037       -19.3483
  35   2.0000      -0.704315       -19.1654
  36   2.0000      -0.698751       -19.0140
  37   2.0000      -0.657931       -17.9032
  38   2.0000      -0.637434       -17.3455
  39   2.0000      -0.618477       -16.8296
  40   2.0000      -0.593704       -16.1555
  41   2.0000      -0.572888       -15.5891
  42   2.0000      -0.567798       -15.4506
  43   2.0000      -0.561333       -15.2746
  44   2.0000      -0.526534       -14.3277
  45   2.0000      -0.523033       -14.2325
  46   2.0000      -0.519930       -14.1480
  47   2.0000      -0.514212       -13.9924
  48   2.0000      -0.510915       -13.9027
  49   2.0000      -0.503419       -13.6987
  50   2.0000      -0.497944       -13.5497
  51   2.0000      -0.481530       -13.1031
  52   2.0000      -0.473765       -12.8918
  53   2.0000      -0.461473       -12.5573
  54   2.0000      -0.459869       -12.5137
  55   2.0000      -0.449776       -12.2390
  56   2.0000      -0.447350       -12.1730
  57   2.0000      -0.434131       -11.8133
  58   2.0000      -0.429528       -11.6881
  59   2.0000      -0.425158       -11.5691
  60   2.0000      -0.419986       -11.4284
  61   2.0000      -0.417251       -11.3540
  62   2.0000      -0.415201       -11.2982
  63   2.0000      -0.348208        -9.4752
  64   2.0000      -0.331212        -9.0127
  65   2.0000      -0.325308        -8.8521
  66   2.0000      -0.286204        -7.7880
  67   0.0000       0.024730         0.6729
  68   0.0000       0.067396         1.8339
  69   0.0000       0.105770         2.8781
  70   0.0000       0.116373         3.1667
  71   0.0000       0.118665         3.2290

MULLIKEN ATOMIC CHARGES
-----------------------
   0 S :    0.108360
   1 C :   -0.083038
   2 C :   -0.118086
   3 C :    0.040344
   4 C :   -0.162220
   5 H :    0.020267
   6 C :    0.062643
   7 H :    0.036674
   8 H :    0.020563
   9 C :   -0.107578
  10 H :    0.025404
  11 H :    0.035472
  12 C :    0.014751
  13 H :    0.008081
  14 H :    0.014823
  15 H :    0.026043
  16 S :    0.105145
  17 C :   -0.092537
  18 C :   -0.006750
  19 C :   -0.066560
  20 C :   -0.139712
  21 H :    0.011337
  22 C :    0.032089
  23 H :    0.022380
  24 H :    0.046548
  25 C :   -0.022252
  26 H :    0.005453
  27 H :    0.018845
  28 C :   -0.024602
  29 H :    0.017244
  30 H :    0.031750
  31 H :    0.025655
  32 H :    0.036979
  33 H :    0.056484
Sum of atomic charges:   -0.0000000

LOEWDIN ATOMIC CHARGES
----------------------
   0 S :    0.386567
   1 C :   -0.203191
   2 C :   -0.061847
   3 C :   -0.054359
   4 C :   -0.171141
   5 H :    0.032119
   6 C :   -0.035540
   7 H :    0.033241
   8 H :    0.032751
   9 C :   -0.041797
  10 H :    0.022442
  11 H :    0.029373
  12 C :   -0.056988
  13 H :    0.010639
  14 H :    0.023093
  15 H :    0.028178
  16 S :    0.401885
  17 C :   -0.171007
  18 C :   -0.067663
  19 C :   -0.051612
  20 C :   -0.217026
  21 H :    0.025324
  22 C :   -0.030976
  23 H :    0.024235
  24 H :    0.039155
  25 C :   -0.041269
  26 H :    0.015087
  27 H :    0.026780
  28 C :   -0.067794
  29 H :    0.023059
  30 H :    0.031502
  31 H :    0.027267
  32 H :    0.029148
  33 H :    0.030365

  Mayer bond orders larger than 0.100000
B(  0-S ,  1-C ) :   1.1218 B(  0-S ,  4-C ) :   1.1310 B(  1-C ,  2-C ) :   1.6390
B(  1-C , 32-H ) :   0.9629 B(  2-C ,  3-C ) :   1.2148 B(  2-C ,  6-C ) :   1.0316
B(  3-C ,  4-C ) :   1.5866 B(  3-C ,  5-H ) :   0.9908 B(  4-C , 20-C ) :   1.0671
B(  6-C ,  7-H ) :   0.9346 B(  6-C ,  8-H ) :   0.9434 B(  6-C ,  9-C ) :   1.0597
B(  9-C , 10-H ) :   0.9529 B(  9-C , 11-H ) :   0.9570 B(  9-C , 12-C ) :   1.0933
B( 12-C , 13-H ) :   0.9735 B( 12-C , 14-H ) :   0.9688 B( 12-C , 15-H ) :   0.9709
B( 16-S , 17-C ) :   1.1392 B( 16-S , 20-C ) :   1.1353 B( 17-C , 18-C ) :   1.6410
B( 17-C , 33-H ) :   0.9669 B( 18-C , 19-C ) :   1.2175 B( 18-C , 21-H ) :   0.9879
B( 19-C , 20-C ) :   1.5700 B( 19-C , 22-C ) :   1.0421 B( 22-C , 23-H ) :   0.9335
B( 22-C , 24-H ) :   0.9361 B( 22-C , 25-C ) :   1.0544 B( 25-C , 26-H ) :   0.9566
B( 25-C , 27-H ) :   0.9494 B( 25-C , 28-C ) :   1.0840 B( 28-C , 29-H ) :   0.9713
B( 28-C , 30-H ) :   0.9722 B( 28-C , 31-H ) :   0.9723

Dispersion correction           -0.013517536
FINAL SINGLE POINT ENERGY     -1339.869986932789

DIPOLE MOMENT
-------------
                                X             Y             Z
Electronic contribution:    -11.55381     -24.02518      -7.78610
Nuclear contribution   :     12.00675      24.46658       7.92323
                        -----------------------------------------
Total Dipole Moment    :      0.45295       0.44139       0.13713
                        -----------------------------------------
Magnitude (a.u.)       :      0.64714
Magnitude (Debye)      :      1.64491

Rotational constants in cm-1:     0.017825     0.007913     0.006188
Rotational constants in MHz :   534.374754   237.239234   185.518433

                             ****ORCA TERMINATED NORMALLY****
TOTAL RUN TIME: 0 days 0 hours 0 minutes 29 seconds 149 msec
