                         Program Version 4.2.1 -  RELEASE  -
|  1> ! wB97X-D3 SP def2-SVP
|  2> %pal
|  3> nprocs 16
|  4> end
|  5>
|  6> * xyz 0 1
|  7> S 	 -48.1729 	 0.479758 	 96.5714
|  8> C 	 -49.4726 	 -0.513177 	 97.2215
|  9> C 	 -50.5001 	 -0.737562 	 96.2944
| 10> C 	 -50.1941 	 -0.131552 	 95.0225
| 11> C 	 -48.9489 	 0.501644 	 94.9243
| 12> H 	 -50.9004 	 0.0280003 	 94.1774
| 13> C 	 -51.7989 	 -1.55995 	 96.4347
| 14> H 	 -51.67 	 -2.50593 	 95.9634
| 15> H 	 -52.5554 	 -1.10611 	 95.8705
| 16> C 	 -52.3327 	 -1.84458 	 97.9148
| 17> H 	 -53.1098 	 -2.55687 	 97.9076
| 18> H 	 -51.5079 	 -2.22808 	 98.5068
| 19> C 	 -52.844 	 -0.632781 	 98.569
| 20> H 	 -53.4226 	 -0.799431 	 99.4643
| 21> H 	 -51.9989 	 0.0087616 	 98.7428
| 22> H 	 -53.43 	 -0.112062 	 97.8432
| 23> S 	 -49.4468 	 2.29314 	 92.8236
| 24> C 	 -48.1116 	 2.98594 	 92.01
| 25> C 	 -46.9477 	 2.49707 	 92.4497
| 26> C 	 -47.1125 	 1.53473 	 93.4592
| 27> C 	 -48.437 	 1.3534 	 93.8443
| 28> H 	 -45.9817 	 2.87091 	 92.0872
| 29> C 	 -45.8911 	 0.878381 	 94.1096
| 30> H 	 -46.2229 	 -0.0472182 	 94.6471
| 31> H 	 -45.4701 	 1.64211 	 94.7858
| 32> C 	 -44.7992 	 0.587889 	 93.1694
| 33> H 	 -43.9866 	 0.128477 	 93.7374
| 34> H 	 -44.2793 	 1.44981 	 92.7039
| 35> C 	 -45.0724 	 -0.441325 	 92.1792
| 36> H 	 -44.163 	 -0.768328 	 91.635
| 37> H 	 -45.7354 	 -0.13547 	 91.4009
| 38> H 	 -45.6163 	 -1.33102 	 92.485
| 39> H 	 -49.6385 	 -0.809949 	 98.2436
| 40> H 	 -48.2406 	 3.83985 	 91.3399
| 41> *
| 42>
| 43>                          ****END OF INPUT****

CARTESIAN COORDINATES (ANGSTROEM)
---------------------------------
  S    -48.172900    0.479758   96.571400
  C    -49.472600   -0.513177   97.221500
  C    -50.500100   -0.737562   96.294400
  C    -50.194100   -0.131552   95.022500
  C    -48.948900    0.501644   94.924300
  H    -50.900400    0.028000   94.177400
  C    -51.798900   -1.559950   96.434700
  H    -51.670000   -2.505930   95.963400
  H    -52.555400   -1.106110   95.870500
  C    -52.332700   -1.844580   97.914800
  H    -53.109800   -2.556870   97.907600
  H    -51.507900   -2.228080   98.506800
  C    -52.844000   -0.632781   98.569000
  H    -53.422600   -0.799431   99.464300
  H    -51.998900    0.008762   98.742800
  H    -53.430000   -0.112062   97.843200
  S    -49.446800    2.293140   92.823600
  C    -48.111600    2.985940   92.010000
  C    -46.947700    2.497070   92.449700
  C    -47.112500    1.534730   93.459200
  C    -48.437000    1.353400   93.844300
  H    -45.981700    2.870910   92.087200
  C    -45.891100    0.878381   94.109600
  H    -46.222900   -0.047218   94.647100
  H    -45.470100    1.642110   94.785800
  C    -44.799200    0.587889   93.169400
  H    -43.986600    0.128477   93.737400
  H    -44.279300    1.449810   92.703900
  C    -45.072400   -0.441325   92.179200
  H    -44.163000   -0.768328   91.635000
  H    -45.735400   -0.135470   91.400900
  H    -45.616300   -1.331020   92.485000
  H    -49.638500   -0.809949   98.243600
  H    -48.240600    3.839850   91.339900

 Total Charge           Charge          ....    0
 Multiplicity           Mult            ....    1
 Number of Electrons    NEL             ....  134
 Basis Dimension        Dim             ....  322

ORBITAL ENERGIES
----------------

  NO   OCC          E(Eh)            E(eV)
   0   2.0000     -88.970652     -2421.0145
   1   2.0000     -88.965145     -2420.8647
   2   2.0000     -10.338341      -281.3205
   3   2.0000     -10.324956      -280.9563
   4   2.0000     -10.318237      -280.7735
   5   2.0000     -10.312850      -280.6269
   6   2.0000     -10.309153      -280.5263
   7   2.0000     -10.299849      -280.2731
   8   2.0000     -10.297604      -280.2121
   9   2.0000     -10.293021      -280.0873
  10   2.0000     -10.290114      -280.0082
  11   2.0000     -10.288309      -279.9591
  12   2.0000     -10.281881      -279.7842
  13   2.0000     -10.277530      -279.6658
  14   2.0000     -10.265123      -279.3282
  15   2.0000     -10.263888      -279.2946
  16   2.0000      -8.083329      -219.9586
  17   2.0000      -8.081344      -219.9045
  18   2.0000      -6.042134      -164.4148
  19   2.0000      -6.039752      -164.3500
  20   2.0000      -6.038136      -164.3060
  21   2.0000      -6.035610      -164.2373
  22   2.0000      -6.033867      -164.1899
  23   2.0000      -6.032174      -164.1438
  24   2.0000      -1.013609       -27.5817
  25   2.0000      -0.979931       -26.6653
  26   2.0000      -0.923681       -25.1346
  27   2.0000      -0.912296       -24.8248
  28   2.0000      -0.872462       -23.7409
  29   2.0000      -0.855685       -23.2844
  30   2.0000      -0.847456       -23.0604
  31   2.0000      -0.814496       -22.1636
  32   2.0000      -0.786332       -21.3972
  33   2.0000      -0.776477       -21.1290
  34   2.0000      -0.708923       -19.2908
  35   2.0000      -0.700111       -19.0510
  36   2.0000      -0.695094       -18.9145
  37   2.0000      -0.659619       -17.9491
  38   2.0000      -0.630358       -17.1529
  39   2.0000      -0.611722       -16.6458
  40   2.0000      -0.600938       -16.3524
  41   2.0000      -0.582232       -15.8433
  42   2.0000      -0.562079       -15.2950
  43   2.0000      -0.555497       -15.1158
  44   2.0000      -0.545340       -14.8395
  45   2.0000      -0.542233       -14.7549
  46   2.0000      -0.523080       -14.2337
  47   2.0000      -0.511737       -13.9251
  48   2.0000      -0.501703       -13.6520
  49   2.0000      -0.500104       -13.6085
  50   2.0000      -0.493102       -13.4180
  51   2.0000      -0.481852       -13.1119
  52   2.0000      -0.471881       -12.8405
  53   2.0000      -0.462496       -12.5852
  54   2.0000      -0.459785       -12.5114
  55   2.0000      -0.443771       -12.0756
  56   2.0000      -0.442904       -12.0520
  57   2.0000      -0.439267       -11.9531
  58   2.0000      -0.436718       -11.8837
  59   2.0000      -0.428412       -11.6577
  60   2.0000      -0.422470       -11.4960
  61   2.0000      -0.417053       -11.3486
  62   2.0000      -0.396218       -10.7816
  63   2.0000      -0.357822        -9.7368
  64   2.0000      -0.332781        -9.0554
  65   2.0000      -0.328739        -8.9454
  66   2.0000      -0.286693        -7.8013
  67   0.0000       0.025702         0.6994
  68   0.0000       0.074518         2.0277
  69   0.0000       0.104882         2.8540
  70   0.0000       0.117264         3.1909
  71   0.0000       0.132400         3.6028

MULLIKEN ATOMIC CHARGES
-----------------------
   0 S :    0.100181
   1 C :   -0.107747
   2 C :   -0.100103
   3 C :   -0.021385
   4 C :   -0.143179
   5 H :    0.030935
   6 C :    0.071506
   7 H :    0.039353
   8 H :    0.012711
   9 C :   -0.068134
  10 H :    0.015800
  11 H :    0.024388
  12 C :   -0.010716
  13 H :    0.038225
  14 H :    0.016505
  15 H :    0.011272
  16 S :    0.105988
  17 C :   -0.091176
  18 C :   -0.020827
  19 C :   -0.088757
  20 C :   -0.118544
  21 H :    0.022586
  22 C :    0.087524
  23 H :    0.042204
  24 H :    0.045169
  25 C :   -0.079108
  26 H :    0.023153
  27 H :    0.027408
  28 C :   -0.035187
  29 H :    0.028705
  30 H :    0.011453
  31 H :    0.020907
  32 H :    0.046771
  33 H :    0.062117
Sum of atomic charges:   -0.0000000

LOEWDIN ATOMIC CHARGES
----------------------
   0 S :    0.388673
   1 C :   -0.200809
   2 C :   -0.058212
   3 C :   -0.071860
   4 C :   -0.165014
   5 H :    0.034543
   6 C :   -0.019030
   7 H :    0.033762
   8 H :    0.022204
   9 C :   -0.034903
  10 H :    0.018278
  11 H :    0.019912
  12 C :   -0.061313
  13 H :    0.025904
  14 H :    0.022037
  15 H :    0.021142
  16 S :    0.432642
  17 C :   -0.190538
  18 C :   -0.076435
  19 C :   -0.059838
  20 C :   -0.217826
  21 H :    0.036559
  22 C :   -0.037000
  23 H :    0.031583
  24 H :    0.040412
  25 C :   -0.058187
  26 H :    0.031291
  27 H :    0.027375
  28 C :   -0.070549
  29 H :    0.029571
  30 H :    0.018136
  31 H :    0.026828
  32 H :    0.026852
  33 H :    0.033810

  Mayer bond orders larger than 0.100000
B(  0-S ,  1-C ) :   1.1295 B(  0-S ,  4-C ) :   1.1239 B(  1-C ,  2-C ) :   1.6285
B(  1-C , 32-H ) :   0.9584 B(  2-C ,  3-C ) :   1.2357 B(  2-C ,  6-C ) :   1.0031
B(  3-C ,  4-C ) :   1.5972 B(  3-C ,  5-H ) :   0.9823 B(  4-C , 20-C ) :   1.0641
B(  6-C ,  7-H ) :   0.9402 B(  6-C ,  8-H ) :   0.9426 B(  6-C ,  9-C ) :   1.0782
B(  9-C , 10-H ) :   0.9535 B(  9-C , 11-H ) :   0.9544 B(  9-C , 12-C ) :   1.0843
B( 12-C , 13-H ) :   0.9731 B( 12-C , 14-H ) :   0.9719 B( 12-C , 15-H ) :   0.9700
B( 16-S , 17-C ) :   1.1742 B( 16-S , 20-C ) :   1.1397 B( 17-C , 18-C ) :   1.5885
B( 17-C , 33-H ) :   0.9633 B( 18-C , 19-C ) :   1.2686 B( 18-C , 21-H ) :   0.9905
B( 19-C , 20-C ) :   1.5578 B( 19-C , 22-C ) :   1.0296 B( 22-C , 23-H ) :   0.9256
B( 22-C , 24-H ) :   0.9266 B( 22-C , 25-C ) :   1.1062 B( 25-C , 26-H ) :   0.9438
B( 25-C , 27-H ) :   0.9373 B( 25-C , 28-C ) :   1.0918 B( 28-C , 29-H ) :   0.9708
B( 28-C , 30-H ) :   0.9645 B( 28-C , 31-H ) :   0.9674

Dispersion correction           -0.014159337
FINAL SINGLE POINT ENERGY     -1339.873785984094

DIPOLE MOMENT
-------------
                                X             Y             Z
Electronic contribution:      0.10351      11.74064      -4.65732
Nuclear contribution   :     -0.14242     -11.78682       4.59824
                        -----------------------------------------
Total Dipole Moment    :     -0.03891      -0.04617      -0.05908
                        -----------------------------------------
Magnitude (a.u.)       :      0.08448
Magnitude (Debye)      :      0.21473

Rotational constants in cm-1:     0.026254     0.007055     0.006163
Rotational constants in MHz :   787.064779   211.504067   184.755684

                             ****ORCA TERMINATED NORMALLY****
TOTAL RUN TIME: 0 days 0 hours 0 minutes 31 seconds 506 msec
