                         Program Version 4.2.1 -  RELEASE  -
|  1> ! wB97X-D3 SP def2-SVP
|  2> %pal
|  3> nprocs 16
|  4> end
|  5>
|  6> * xyz 0 1
|  7> S 	 -57.1994 	 25.2619 	 97.1315
|  8> C 	 -55.6444 	 24.4849 	 96.9025
|  9> C 	 -55.1018 	 24.6543 	 95.6322
| 10> C 	 -55.987 	 25.328 	 94.7466
| 11> C 	 -57.1357 	 25.7261 	 95.4465
| 12> H 	 -55.7905 	 25.6727 	 93.8086
| 13> C 	 -53.7389 	 24.1686 	 95.2378
| 14> H 	 -53.0616 	 24.545 	 95.9455
| 15> H 	 -53.3144 	 24.6708 	 94.3387
| 16> C 	 -53.5686 	 22.6431 	 94.956
| 17> H 	 -53.9534 	 21.9445 	 95.7097
| 18> H 	 -54.0562 	 22.3322 	 94.0507
| 19> C 	 -52.064 	 22.3468 	 94.7803
| 20> H 	 -51.9443 	 21.2436 	 94.5368
| 21> H 	 -51.641 	 22.937 	 93.9639
| 22> H 	 -51.4018 	 22.5828 	 95.6153
| 23> S 	 -59.8936 	 25.6711 	 94.8868
| 24> C 	 -60.5873 	 26.9406 	 93.9802
| 25> C 	 -59.6318 	 27.8548 	 93.5175
| 26> C 	 -58.3022 	 27.5624 	 94.0431
| 27> C 	 -58.2544 	 26.3911 	 94.7947
| 28> H 	 -60.0035 	 28.6601 	 92.9098
| 29> C 	 -57.1048 	 28.3462 	 93.5752
| 30> H 	 -56.321 	 27.6895 	 93.1762
| 31> H 	 -56.5328 	 28.6851 	 94.4889
| 32> C 	 -57.3265 	 29.564 	 92.7041
| 33> H 	 -58.0314 	 30.3195 	 93.2243
| 34> H 	 -57.676 	 29.5229 	 91.6766
| 35> C 	 -55.8792 	 30.2184 	 92.5351
| 36> H 	 -55.2936 	 29.8792 	 91.7386
| 37> H 	 -55.2865 	 30.3734 	 93.4162
| 38> H 	 -55.9031 	 31.1968 	 92.068
| 39> H 	 -55.1881 	 23.9998 	 97.6779
| 40> H 	 -61.6749 	 27.1561 	 93.8914
| 41> *
| 42>
| 43>                          ****END OF INPUT****

CARTESIAN COORDINATES (ANGSTROEM)
---------------------------------
  S    -57.199400   25.261900   97.131500
  C    -55.644400   24.484900   96.902500
  C    -55.101800   24.654300   95.632200
  C    -55.987000   25.328000   94.746600
  C    -57.135700   25.726100   95.446500
  H    -55.790500   25.672700   93.808600
  C    -53.738900   24.168600   95.237800
  H    -53.061600   24.545000   95.945500
  H    -53.314400   24.670800   94.338700
  C    -53.568600   22.643100   94.956000
  H    -53.953400   21.944500   95.709700
  H    -54.056200   22.332200   94.050700
  C    -52.064000   22.346800   94.780300
  H    -51.944300   21.243600   94.536800
  H    -51.641000   22.937000   93.963900
  H    -51.401800   22.582800   95.615300
  S    -59.893600   25.671100   94.886800
  C    -60.587300   26.940600   93.980200
  C    -59.631800   27.854800   93.517500
  C    -58.302200   27.562400   94.043100
  C    -58.254400   26.391100   94.794700
  H    -60.003500   28.660100   92.909800
  C    -57.104800   28.346200   93.575200
  H    -56.321000   27.689500   93.176200
  H    -56.532800   28.685100   94.488900
  C    -57.326500   29.564000   92.704100
  H    -58.031400   30.319500   93.224300
  H    -57.676000   29.522900   91.676600
  C    -55.879200   30.218400   92.535100
  H    -55.293600   29.879200   91.738600
  H    -55.286500   30.373400   93.416200
  H    -55.903100   31.196800   92.068000
  H    -55.188100   23.999800   97.677900
  H    -61.674900   27.156100   93.891400

 Total Charge           Charge          ....    0
 Multiplicity           Mult            ....    1
 Number of Electrons    NEL             ....  134
 Basis Dimension        Dim             ....  322

ORBITAL ENERGIES
----------------

  NO   OCC          E(Eh)            E(eV)
   0   2.0000     -88.972427     -2421.0628
   1   2.0000     -88.962093     -2420.7816
   2   2.0000     -10.329027      -281.0671
   3   2.0000     -10.323016      -280.9035
   4   2.0000     -10.314796      -280.6799
   5   2.0000     -10.308091      -280.4974
   6   2.0000     -10.304599      -280.4024
   7   2.0000     -10.301761      -280.3252
   8   2.0000     -10.301264      -280.3116
   9   2.0000     -10.295763      -280.1620
  10   2.0000     -10.292697      -280.0785
  11   2.0000     -10.291719      -280.0519
  12   2.0000     -10.290706      -280.0244
  13   2.0000     -10.289630      -279.9951
  14   2.0000     -10.282481      -279.8005
  15   2.0000     -10.272800      -279.5371
  16   2.0000      -8.086902      -220.0558
  17   2.0000      -8.076859      -219.7825
  18   2.0000      -6.045180      -164.4977
  19   2.0000      -6.041587      -164.3999
  20   2.0000      -6.037803      -164.2970
  21   2.0000      -6.035364      -164.2306
  22   2.0000      -6.031255      -164.1188
  23   2.0000      -6.027740      -164.0231
  24   2.0000      -1.002593       -27.2819
  25   2.0000      -0.979316       -26.6485
  26   2.0000      -0.909818       -24.7574
  27   2.0000      -0.907383       -24.6911
  28   2.0000      -0.866209       -23.5707
  29   2.0000      -0.856545       -23.3078
  30   2.0000      -0.843109       -22.9422
  31   2.0000      -0.810510       -22.0551
  32   2.0000      -0.782731       -21.2992
  33   2.0000      -0.769396       -20.9363
  34   2.0000      -0.712743       -19.3947
  35   2.0000      -0.706710       -19.2305
  36   2.0000      -0.696733       -18.9591
  37   2.0000      -0.658867       -17.9287
  38   2.0000      -0.642693       -17.4886
  39   2.0000      -0.622295       -16.9335
  40   2.0000      -0.598309       -16.2808
  41   2.0000      -0.570777       -15.5316
  42   2.0000      -0.563965       -15.3463
  43   2.0000      -0.553379       -15.0582
  44   2.0000      -0.528377       -14.3779
  45   2.0000      -0.520360       -14.1597
  46   2.0000      -0.514138       -13.9904
  47   2.0000      -0.513250       -13.9662
  48   2.0000      -0.504336       -13.7237
  49   2.0000      -0.491978       -13.3874
  50   2.0000      -0.488372       -13.2893
  51   2.0000      -0.476047       -12.9539
  52   2.0000      -0.469161       -12.7665
  53   2.0000      -0.461921       -12.5695
  54   2.0000      -0.457732       -12.4555
  55   2.0000      -0.450177       -12.2500
  56   2.0000      -0.448963       -12.2169
  57   2.0000      -0.444356       -12.0915
  58   2.0000      -0.437031       -11.8922
  59   2.0000      -0.424314       -11.5462
  60   2.0000      -0.423183       -11.5154
  61   2.0000      -0.416739       -11.3400
  62   2.0000      -0.407954       -11.1010
  63   2.0000      -0.341693        -9.2979
  64   2.0000      -0.330423        -8.9913
  65   2.0000      -0.324847        -8.8395
  66   2.0000      -0.289415        -7.8754
  67   0.0000       0.027543         0.7495
  68   0.0000       0.069809         1.8996
  69   0.0000       0.106365         2.8943
  70   0.0000       0.121413         3.3038
  71   0.0000       0.137755         3.7485

MULLIKEN ATOMIC CHARGES
-----------------------
   0 S :    0.133872
   1 C :   -0.095332
   2 C :   -0.043240
   3 C :    0.067884
   4 C :   -0.170088
   5 H :   -0.026716
   6 C :    0.059268
   7 H :    0.015805
   8 H :    0.014574
   9 C :   -0.044493
  10 H :    0.033844
  11 H :    0.028598
  12 C :   -0.083403
  13 H :    0.043039
  14 H :    0.023736
  15 H :    0.032539
  16 S :    0.109596
  17 C :   -0.104778
  18 C :   -0.060354
  19 C :    0.014471
  20 C :   -0.163065
  21 H :    0.019567
  22 C :    0.027225
  23 H :    0.031079
  24 H :    0.038092
  25 C :   -0.081525
  26 H :    0.049327
  27 H :    0.040725
  28 C :   -0.047235
  29 H :    0.017551
  30 H :    0.033017
  31 H :    0.004926
  32 H :    0.009618
  33 H :    0.071875
Sum of atomic charges:    0.0000000

LOEWDIN ATOMIC CHARGES
----------------------
   0 S :    0.418291
   1 C :   -0.180664
   2 C :   -0.054778
   3 C :   -0.038894
   4 C :   -0.191365
   5 H :    0.014871
   6 C :   -0.035740
   7 H :    0.025822
   8 H :    0.034802
   9 C :   -0.033893
  10 H :    0.024843
  11 H :    0.024482
  12 C :   -0.072672
  13 H :    0.032864
  14 H :    0.021098
  15 H :    0.022257
  16 S :    0.403636
  17 C :   -0.207205
  18 C :   -0.079589
  19 C :   -0.053468
  20 C :   -0.197873
  21 H :    0.029909
  22 C :   -0.046973
  23 H :    0.032416
  24 H :    0.045721
  25 C :   -0.039453
  26 H :    0.034658
  27 H :    0.026396
  28 C :   -0.076005
  29 H :    0.021178
  30 H :    0.022285
  31 H :    0.028431
  32 H :    0.005303
  33 H :    0.039308

  Mayer bond orders larger than 0.100000
B(  0-S ,  1-C ) :   1.1401 B(  0-S ,  4-C ) :   1.1702 B(  1-C ,  2-C ) :   1.5899
B(  1-C , 32-H ) :   0.9814 B(  2-C ,  3-C ) :   1.2545 B(  2-C ,  6-C ) :   1.0187
B(  3-C ,  4-C ) :   1.5383 B(  3-C ,  5-H ) :   1.0065 B(  4-C , 20-C ) :   1.0575
B(  6-C ,  7-H ) :   0.9417 B(  6-C ,  8-H ) :   0.9412 B(  6-C ,  9-C ) :   1.0522
B(  9-C , 10-H ) :   0.9619 B(  9-C , 11-H ) :   0.9548 B(  9-C , 12-C ) :   1.0748
B( 12-C , 13-H ) :   0.9742 B( 12-C , 14-H ) :   0.9740 B( 12-C , 15-H ) :   0.9782
B( 16-S , 17-C ) :   1.1742 B( 16-S , 20-C ) :   1.1267 B( 17-C , 18-C ) :   1.6017
B( 17-C , 33-H ) :   0.9553 B( 18-C , 19-C ) :   1.2358 B( 18-C , 21-H ) :   0.9896
B( 19-C , 20-C ) :   1.5952 B( 19-C , 22-C ) :   1.0371 B( 22-C , 23-H ) :   0.9369
B( 22-C , 24-H ) :   0.9195 B( 22-C , 25-C ) :   1.0737 B( 25-C , 26-H ) :   0.9538
B( 25-C , 27-H ) :   0.9518 B( 25-C , 28-C ) :   1.0704 B( 28-C , 29-H ) :   0.9704
B( 28-C , 30-H ) :   0.9791 B( 28-C , 31-H ) :   0.9620

Dispersion correction           -0.013346717
FINAL SINGLE POINT ENERGY     -1339.854925065241

DIPOLE MOMENT
-------------
                                X             Y             Z
Electronic contribution:    -25.16655      -4.98115      13.74885
Nuclear contribution   :     25.73782       5.24027     -14.09846
                        -----------------------------------------
Total Dipole Moment    :      0.57126       0.25911      -0.34961
                        -----------------------------------------
Magnitude (a.u.)       :      0.71813
Magnitude (Debye)      :      1.82534

Rotational constants in cm-1:     0.017714     0.007730     0.006030
Rotational constants in MHz :   531.064284   231.744352   180.760238

                             ****ORCA TERMINATED NORMALLY****
TOTAL RUN TIME: 0 days 0 hours 0 minutes 29 seconds 416 msec
