                         Program Version 4.2.1 -  RELEASE  -
|  1> ! wB97X-D3 SP def2-SVP
|  2> %pal
|  3> nprocs 16
|  4> end
|  5>
|  6> * xyz 0 1
|  7> S 	 -44.6598 	 22.2917 	 85.5102
|  8> C 	 -44.5141 	 20.6905 	 84.753
|  9> C 	 -43.2352 	 20.195 	 84.7667
| 10> C 	 -42.3162 	 21.1282 	 85.3782
| 11> C 	 -42.8988 	 22.294 	 85.7945
| 12> H 	 -41.3254 	 20.8944 	 85.7541
| 13> C 	 -42.6655 	 18.9601 	 84.3167
| 14> H 	 -42.0232 	 19.0905 	 83.3833
| 15> H 	 -43.4837 	 18.4019 	 83.8736
| 16> C 	 -42.049 	 17.9682 	 85.2531
| 17> H 	 -41.7599 	 17.0912 	 84.6191
| 18> H 	 -41.0601 	 18.3975 	 85.5719
| 19> C 	 -42.7723 	 17.7699 	 86.5336
| 20> H 	 -43.0602 	 18.7256 	 86.9563
| 21> H 	 -43.7285 	 17.2444 	 86.464
| 22> H 	 -42.1448 	 17.1716 	 87.1531
| 23> S 	 -43.0075 	 24.138 	 87.9083
| 24> C 	 -41.6208 	 25.092 	 88.3867
| 25> C 	 -40.5937 	 24.8079 	 87.5685
| 26> C 	 -40.9184 	 23.8644 	 86.5752
| 27> C 	 -42.1871 	 23.3536 	 86.5924
| 28> H 	 -39.6239 	 25.2374 	 87.7439
| 29> C 	 -39.7642 	 23.6052 	 85.6737
| 30> H 	 -39.1481 	 24.5516 	 85.6331
| 31> H 	 -40.0819 	 23.5595 	 84.6085
| 32> C 	 -38.8069 	 22.5585 	 86.2047
| 33> H 	 -39.3607 	 21.6009 	 86.1377
| 34> H 	 -38.569 	 22.7306 	 87.2206
| 35> C 	 -37.3868 	 22.5649 	 85.5896
| 36> H 	 -36.8363 	 23.335 	 86.1531
| 37> H 	 -37.3327 	 22.8186 	 84.5112
| 38> H 	 -37.052 	 21.5423 	 85.8203
| 39> H 	 -45.3217 	 20.1985 	 84.2722
| 40> H 	 -41.6793 	 25.7802 	 89.2551
| 41> *
| 42>
| 43>                          ****END OF INPUT****

CARTESIAN COORDINATES (ANGSTROEM)
---------------------------------
  S    -44.659800   22.291700   85.510200
  C    -44.514100   20.690500   84.753000
  C    -43.235200   20.195000   84.766700
  C    -42.316200   21.128200   85.378200
  C    -42.898800   22.294000   85.794500
  H    -41.325400   20.894400   85.754100
  C    -42.665500   18.960100   84.316700
  H    -42.023200   19.090500   83.383300
  H    -43.483700   18.401900   83.873600
  C    -42.049000   17.968200   85.253100
  H    -41.759900   17.091200   84.619100
  H    -41.060100   18.397500   85.571900
  C    -42.772300   17.769900   86.533600
  H    -43.060200   18.725600   86.956300
  H    -43.728500   17.244400   86.464000
  H    -42.144800   17.171600   87.153100
  S    -43.007500   24.138000   87.908300
  C    -41.620800   25.092000   88.386700
  C    -40.593700   24.807900   87.568500
  C    -40.918400   23.864400   86.575200
  C    -42.187100   23.353600   86.592400
  H    -39.623900   25.237400   87.743900
  C    -39.764200   23.605200   85.673700
  H    -39.148100   24.551600   85.633100
  H    -40.081900   23.559500   84.608500
  C    -38.806900   22.558500   86.204700
  H    -39.360700   21.600900   86.137700
  H    -38.569000   22.730600   87.220600
  C    -37.386800   22.564900   85.589600
  H    -36.836300   23.335000   86.153100
  H    -37.332700   22.818600   84.511200
  H    -37.052000   21.542300   85.820300
  H    -45.321700   20.198500   84.272200
  H    -41.679300   25.780200   89.255100

 Total Charge           Charge          ....    0
 Multiplicity           Mult            ....    1
 Number of Electrons    NEL             ....  134
 Basis Dimension        Dim             ....  322

ORBITAL ENERGIES
----------------

  NO   OCC          E(Eh)            E(eV)
   0   2.0000     -88.970377     -2421.0070
   1   2.0000     -88.958995     -2420.6973
   2   2.0000     -10.337913      -281.3089
   3   2.0000     -10.329620      -281.0832
   4   2.0000     -10.317363      -280.7497
   5   2.0000     -10.317181      -280.7448
   6   2.0000     -10.299503      -280.2637
   7   2.0000     -10.294989      -280.1409
   8   2.0000     -10.291910      -280.0571
   9   2.0000     -10.290078      -280.0073
  10   2.0000     -10.288901      -279.9752
  11   2.0000     -10.286524      -279.9106
  12   2.0000     -10.286165      -279.9008
  13   2.0000     -10.285034      -279.8700
  14   2.0000     -10.284600      -279.8582
  15   2.0000     -10.271268      -279.4954
  16   2.0000      -8.084095      -219.9794
  17   2.0000      -8.074521      -219.7189
  18   2.0000      -6.042818      -164.4334
  19   2.0000      -6.038933      -164.3277
  20   2.0000      -6.034499      -164.2071
  21   2.0000      -6.033072      -164.1682
  22   2.0000      -6.028806      -164.0522
  23   2.0000      -6.025293      -163.9566
  24   2.0000      -1.009937       -27.4818
  25   2.0000      -0.989080       -26.9142
  26   2.0000      -0.924851       -25.1665
  27   2.0000      -0.913444       -24.8561
  28   2.0000      -0.872086       -23.7307
  29   2.0000      -0.853506       -23.2251
  30   2.0000      -0.849358       -23.1122
  31   2.0000      -0.821190       -22.3457
  32   2.0000      -0.786026       -21.3888
  33   2.0000      -0.772564       -21.0225
  34   2.0000      -0.705029       -19.1848
  35   2.0000      -0.701739       -19.0953
  36   2.0000      -0.691970       -18.8295
  37   2.0000      -0.666307       -18.1311
  38   2.0000      -0.639083       -17.3903
  39   2.0000      -0.626445       -17.0464
  40   2.0000      -0.600777       -16.3480
  41   2.0000      -0.571755       -15.5582
  42   2.0000      -0.564612       -15.3639
  43   2.0000      -0.562825       -15.3153
  44   2.0000      -0.539036       -14.6679
  45   2.0000      -0.534571       -14.5464
  46   2.0000      -0.522587       -14.2203
  47   2.0000      -0.514349       -13.9961
  48   2.0000      -0.508949       -13.8492
  49   2.0000      -0.499002       -13.5785
  50   2.0000      -0.494330       -13.4514
  51   2.0000      -0.482677       -13.1343
  52   2.0000      -0.472858       -12.8671
  53   2.0000      -0.460513       -12.5312
  54   2.0000      -0.454610       -12.3706
  55   2.0000      -0.449343       -12.2272
  56   2.0000      -0.443346       -12.0641
  57   2.0000      -0.442527       -12.0418
  58   2.0000      -0.439294       -11.9538
  59   2.0000      -0.430370       -11.7110
  60   2.0000      -0.409809       -11.1515
  61   2.0000      -0.404941       -11.0190
  62   2.0000      -0.395242       -10.7551
  63   2.0000      -0.359712        -9.7883
  64   2.0000      -0.331585        -9.0229
  65   2.0000      -0.326976        -8.8975
  66   2.0000      -0.294830        -8.0227
  67   0.0000       0.029091         0.7916
  68   0.0000       0.079116         2.1529
  69   0.0000       0.104052         2.8314
  70   0.0000       0.117194         3.1890
  71   0.0000       0.127344         3.4652

MULLIKEN ATOMIC CHARGES
-----------------------
   0 S :    0.103699
   1 C :   -0.099274
   2 C :   -0.089183
   3 C :   -0.003910
   4 C :   -0.102367
   5 H :    0.012896
   6 C :    0.057068
   7 H :    0.049409
   8 H :   -0.005556
   9 C :   -0.086557
  10 H :    0.038225
  11 H :    0.019576
  12 C :   -0.014462
  13 H :    0.045913
  14 H :    0.021224
  15 H :    0.030488
  16 S :    0.071377
  17 C :   -0.098573
  18 C :   -0.020707
  19 C :   -0.054382
  20 C :   -0.118577
  21 H :    0.016389
  22 C :    0.018816
  23 H :    0.010726
  24 H :    0.038129
  25 C :   -0.063772
  26 H :    0.027326
  27 H :    0.017508
  28 C :   -0.051926
  29 H :    0.037163
  30 H :    0.044550
  31 H :    0.043895
  32 H :    0.032656
  33 H :    0.072213
Sum of atomic charges:    0.0000000

LOEWDIN ATOMIC CHARGES
----------------------
   0 S :    0.377020
   1 C :   -0.175626
   2 C :   -0.066440
   3 C :   -0.060712
   4 C :   -0.168623
   5 H :    0.029708
   6 C :   -0.052819
   7 H :    0.045603
   8 H :    0.025900
   9 C :   -0.045006
  10 H :    0.033267
  11 H :    0.021898
  12 C :   -0.061281
  13 H :    0.032445
  14 H :    0.023861
  15 H :    0.025655
  16 S :    0.397104
  17 C :   -0.178417
  18 C :   -0.073523
  19 C :   -0.068451
  20 C :   -0.197426
  21 H :    0.031859
  22 C :   -0.042750
  23 H :    0.030285
  24 H :    0.033361
  25 C :   -0.041016
  26 H :    0.018778
  27 H :    0.021590
  28 C :   -0.064316
  29 H :    0.027236
  30 H :    0.026510
  31 H :    0.033695
  32 H :    0.022342
  33 H :    0.038290

  Mayer bond orders larger than 0.100000
B(  0-S ,  1-C ) :   1.1106 B(  0-S ,  4-C ) :   1.1290 B(  1-C ,  2-C ) :   1.6448
B(  1-C , 32-H ) :   0.9644 B(  2-C ,  3-C ) :   1.1893 B(  2-C ,  6-C ) :   1.0500
B(  3-C ,  4-C ) :   1.6290 B(  3-C ,  5-H ) :   0.9845 B(  4-C , 20-C ) :   1.0239
B(  6-C ,  7-H ) :   0.9276 B(  6-C ,  8-H ) :   0.9191 B(  6-C ,  9-C ) :   1.0791
B(  9-C , 10-H ) :   0.9491 B(  9-C , 11-H ) :   0.9484 B(  9-C , 12-C ) :   1.0795
B( 12-C , 13-H ) :   0.9628 B( 12-C , 14-H ) :   0.9730 B( 12-C , 15-H ) :   0.9715
B( 16-S , 17-C ) :   1.1599 B( 16-S , 20-C ) :   1.1227 B( 17-C , 18-C ) :   1.5895
B( 17-C , 33-H ) :   0.9658 B( 18-C , 19-C ) :   1.2516 B( 18-C , 21-H ) :   0.9975
B( 19-C , 20-C ) :   1.6113 B( 19-C , 22-C ) :   1.0430 B( 22-C , 23-H ) :   0.9382
B( 22-C , 24-H ) :   0.9328 B( 22-C , 25-C ) :   1.0587 B( 25-C , 26-H ) :   0.9539
B( 25-C , 27-H ) :   0.9536 B( 25-C , 28-C ) :   1.0606 B( 28-C , 29-H ) :   0.9801
B( 28-C , 30-H ) :   0.9781 B( 28-C , 31-H ) :   0.9744

Dispersion correction           -0.014522350
FINAL SINGLE POINT ENERGY     -1339.864298475040

DIPOLE MOMENT
-------------
                                X             Y             Z
Electronic contribution:    -21.82520      17.75856       5.06158
Nuclear contribution   :     22.45095     -18.10887      -5.09940
                        -----------------------------------------
Total Dipole Moment    :      0.62576      -0.35031      -0.03782
                        -----------------------------------------
Magnitude (a.u.)       :      0.71813
Magnitude (Debye)      :      1.82535

Rotational constants in cm-1:     0.016588     0.009912     0.007103
Rotational constants in MHz :   497.281373   297.168159   212.947570

                             ****ORCA TERMINATED NORMALLY****
TOTAL RUN TIME: 0 days 0 hours 0 minutes 30 seconds 935 msec
