                         Program Version 4.2.1 -  RELEASE  -
|  1> ! wB97X-D3 SP def2-SVP
|  2> %pal
|  3> nprocs 16
|  4> end
|  5>
|  6> * xyz 0 1
|  7> S 	 -18.4968 	 48.713 	 42.8444
|  8> C 	 -19.0055 	 48.0409 	 41.3133
|  9> C 	 -18.5538 	 46.7445 	 41.195
| 10> C 	 -17.7369 	 46.3445 	 42.3012
| 11> C 	 -17.4942 	 47.3643 	 43.1935
| 12> H 	 -17.3151 	 45.4228 	 42.4833
| 13> C 	 -18.9075 	 45.6894 	 40.0969
| 14> H 	 -18.0319 	 45.6267 	 39.3912
| 15> H 	 -19.6353 	 46.1676 	 39.4484
| 16> C 	 -19.2986 	 44.2805 	 40.6085
| 17> H 	 -18.5095 	 43.7577 	 41.1275
| 18> H 	 -20.2757 	 44.2739 	 41.0764
| 19> C 	 -19.685 	 43.363 	 39.4153
| 20> H 	 -19.7537 	 42.2979 	 39.6727
| 21> H 	 -20.6489 	 43.7397 	 39.0772
| 22> H 	 -18.8375 	 43.4787 	 38.7015
| 23> S 	 -17.6291 	 47.5154 	 45.9831
| 24> C 	 -16.1981 	 47.3648 	 46.9586
| 25> C 	 -15.0912 	 47.1202 	 46.1509
| 26> C 	 -15.3999 	 46.9514 	 44.734
| 27> C 	 -16.7168 	 47.3039 	 44.4268
| 28> H 	 -14.1957 	 46.9738 	 46.6758
| 29> C 	 -14.2947 	 46.6877 	 43.7808
| 30> H 	 -14.8302 	 46.8907 	 42.8479
| 31> H 	 -14.0703 	 45.629 	 43.8523
| 32> C 	 -13.0278 	 47.6399 	 43.7451
| 33> H 	 -12.3017 	 47.1355 	 44.3584
| 34> H 	 -13.2585 	 48.6201 	 44.1928
| 35> C 	 -12.4315 	 47.9204 	 42.4056
| 36> H 	 -11.5059 	 48.4373 	 42.404
| 37> H 	 -13.107 	 48.5526 	 41.8963
| 38> H 	 -12.4123 	 47.0169 	 41.8231
| 39> H 	 -19.6754 	 48.486 	 40.5906
| 40> H 	 -16.0567 	 47.4622 	 48.0424
| 41> *
| 42>
| 43>                          ****END OF INPUT****

CARTESIAN COORDINATES (ANGSTROEM)
---------------------------------
  S    -18.496800   48.713000   42.844400
  C    -19.005500   48.040900   41.313300
  C    -18.553800   46.744500   41.195000
  C    -17.736900   46.344500   42.301200
  C    -17.494200   47.364300   43.193500
  H    -17.315100   45.422800   42.483300
  C    -18.907500   45.689400   40.096900
  H    -18.031900   45.626700   39.391200
  H    -19.635300   46.167600   39.448400
  C    -19.298600   44.280500   40.608500
  H    -18.509500   43.757700   41.127500
  H    -20.275700   44.273900   41.076400
  C    -19.685000   43.363000   39.415300
  H    -19.753700   42.297900   39.672700
  H    -20.648900   43.739700   39.077200
  H    -18.837500   43.478700   38.701500
  S    -17.629100   47.515400   45.983100
  C    -16.198100   47.364800   46.958600
  C    -15.091200   47.120200   46.150900
  C    -15.399900   46.951400   44.734000
  C    -16.716800   47.303900   44.426800
  H    -14.195700   46.973800   46.675800
  C    -14.294700   46.687700   43.780800
  H    -14.830200   46.890700   42.847900
  H    -14.070300   45.629000   43.852300
  C    -13.027800   47.639900   43.745100
  H    -12.301700   47.135500   44.358400
  H    -13.258500   48.620100   44.192800
  C    -12.431500   47.920400   42.405600
  H    -11.505900   48.437300   42.404000
  H    -13.107000   48.552600   41.896300
  H    -12.412300   47.016900   41.823100
  H    -19.675400   48.486000   40.590600
  H    -16.056700   47.462200   48.042400

 Total Charge           Charge          ....    0
 Multiplicity           Mult            ....    1
 Number of Electrons    NEL             ....  134
 Basis Dimension        Dim             ....  322

ORBITAL ENERGIES
----------------

  NO   OCC          E(Eh)            E(eV)
   0   2.0000     -88.966259     -2420.8950
   1   2.0000     -88.962180     -2420.7840
   2   2.0000     -10.332488      -281.1613
   3   2.0000     -10.326975      -281.0113
   4   2.0000     -10.317789      -280.7613
   5   2.0000     -10.315125      -280.6888
   6   2.0000     -10.307595      -280.4839
   7   2.0000     -10.303827      -280.3814
   8   2.0000     -10.302751      -280.3521
   9   2.0000     -10.289904      -280.0025
  10   2.0000     -10.288968      -279.9771
  11   2.0000     -10.288407      -279.9618
  12   2.0000     -10.287512      -279.9374
  13   2.0000     -10.284999      -279.8691
  14   2.0000     -10.282640      -279.8049
  15   2.0000     -10.266090      -279.3545
  16   2.0000      -8.081568      -219.9107
  17   2.0000      -8.076117      -219.7623
  18   2.0000      -6.040058      -164.3583
  19   2.0000      -6.035979      -164.2473
  20   2.0000      -6.034832      -164.2161
  21   2.0000      -6.032309      -164.1475
  22   2.0000      -6.030695      -164.1036
  23   2.0000      -6.026729      -163.9956
  24   2.0000      -1.007003       -27.4019
  25   2.0000      -0.979206       -26.6455
  26   2.0000      -0.909448       -24.7473
  27   2.0000      -0.907485       -24.6939
  28   2.0000      -0.871589       -23.7171
  29   2.0000      -0.856066       -23.2947
  30   2.0000      -0.846724       -23.0405
  31   2.0000      -0.814674       -22.1684
  32   2.0000      -0.780480       -21.2379
  33   2.0000      -0.770335       -20.9619
  34   2.0000      -0.709422       -19.3044
  35   2.0000      -0.698898       -19.0180
  36   2.0000      -0.690773       -18.7969
  37   2.0000      -0.654040       -17.7973
  38   2.0000      -0.645796       -17.5730
  39   2.0000      -0.621753       -16.9188
  40   2.0000      -0.587781       -15.9943
  41   2.0000      -0.579279       -15.7630
  42   2.0000      -0.570668       -15.5287
  43   2.0000      -0.564969       -15.3736
  44   2.0000      -0.531966       -14.4755
  45   2.0000      -0.528434       -14.3794
  46   2.0000      -0.519201       -14.1282
  47   2.0000      -0.509837       -13.8734
  48   2.0000      -0.506665       -13.7870
  49   2.0000      -0.503131       -13.6909
  50   2.0000      -0.494451       -13.4547
  51   2.0000      -0.479284       -13.0420
  52   2.0000      -0.468823       -12.7573
  53   2.0000      -0.464841       -12.6490
  54   2.0000      -0.456648       -12.4260
  55   2.0000      -0.452310       -12.3080
  56   2.0000      -0.446266       -12.1435
  57   2.0000      -0.436341       -11.8735
  58   2.0000      -0.429826       -11.6962
  59   2.0000      -0.426314       -11.6006
  60   2.0000      -0.415021       -11.2933
  61   2.0000      -0.408846       -11.1253
  62   2.0000      -0.406750       -11.0682
  63   2.0000      -0.343510        -9.3474
  64   2.0000      -0.330766        -9.0006
  65   2.0000      -0.324327        -8.8254
  66   2.0000      -0.297006        -8.0819
  67   0.0000       0.032764         0.8915
  68   0.0000       0.066611         1.8126
  69   0.0000       0.118503         3.2246
  70   0.0000       0.119454         3.2505
  71   0.0000       0.128201         3.4885

MULLIKEN ATOMIC CHARGES
-----------------------
   0 S :    0.117608
   1 C :   -0.116627
   2 C :   -0.074867
   3 C :    0.067401
   4 C :   -0.169621
   5 H :   -0.023152
   6 C :    0.052220
   7 H :    0.040512
   8 H :    0.006341
   9 C :   -0.068221
  10 H :    0.042608
  11 H :    0.040739
  12 C :   -0.074706
  13 H :    0.042933
  14 H :    0.034277
  15 H :    0.028666
  16 S :    0.091617
  17 C :   -0.090746
  18 C :   -0.030237
  19 C :   -0.052536
  20 C :   -0.144325
  21 H :    0.000513
  22 C :    0.055796
  23 H :    0.018537
  24 H :    0.043233
  25 C :   -0.064423
  26 H :    0.023135
  27 H :    0.036845
  28 C :   -0.015665
  29 H :    0.031955
  30 H :    0.019119
  31 H :    0.022999
  32 H :    0.043185
  33 H :    0.064886
Sum of atomic charges:   -0.0000000

LOEWDIN ATOMIC CHARGES
----------------------
   0 S :    0.425641
   1 C :   -0.201189
   2 C :   -0.061034
   3 C :   -0.049855
   4 C :   -0.207850
   5 H :    0.017165
   6 C :   -0.033944
   7 H :    0.036648
   8 H :    0.025477
   9 C :   -0.039492
  10 H :    0.023660
  11 H :    0.030034
  12 C :   -0.062790
  13 H :    0.026844
  14 H :    0.023036
  15 H :    0.022934
  16 S :    0.378079
  17 C :   -0.189803
  18 C :   -0.072311
  19 C :   -0.051777
  20 C :   -0.182809
  21 H :    0.021726
  22 C :   -0.037770
  23 H :    0.031297
  24 H :    0.035212
  25 C :   -0.036092
  26 H :    0.018172
  27 H :    0.029032
  28 C :   -0.058513
  29 H :    0.025828
  30 H :    0.022289
  31 H :    0.023614
  32 H :    0.029943
  33 H :    0.038598

  Mayer bond orders larger than 0.100000
B(  0-S ,  1-C ) :   1.1357 B(  0-S ,  4-C ) :   1.1644 B(  1-C ,  2-C ) :   1.6194
B(  1-C , 32-H ) :   0.9690 B(  2-C ,  3-C ) :   1.2333 B(  2-C ,  6-C ) :   1.0113
B(  3-C ,  4-C ) :   1.5634 B(  3-C ,  5-H ) :   1.0108 B(  4-C , 20-C ) :   1.0260
B(  6-C ,  7-H ) :   0.9355 B(  6-C ,  8-H ) :   0.9431 B(  6-C ,  9-C ) :   1.0687
B(  9-C , 10-H ) :   0.9528 B(  9-C , 11-H ) :   0.9641 B(  9-C , 12-C ) :   1.0670
B( 12-C , 13-H ) :   0.9764 B( 12-C , 14-H ) :   0.9832 B( 12-C , 15-H ) :   0.9759
B( 16-S , 17-C ) :   1.1452 B( 16-S , 20-C ) :   1.1184 B( 17-C , 18-C ) :   1.6445
B( 17-C , 33-H ) :   0.9616 B( 18-C , 19-C ) :   1.1936 B( 18-C , 21-H ) :   0.9962
B( 19-C , 20-C ) :   1.6155 B( 19-C , 22-C ) :   1.0601 B( 22-C , 23-H ) :   0.9407
B( 22-C , 24-H ) :   0.9214 B( 22-C , 25-C ) :   1.0422 B( 25-C , 26-H ) :   0.9510
B( 25-C , 27-H ) :   0.9618 B( 25-C , 28-C ) :   1.1016 B( 28-C , 29-H ) :   0.9709
B( 28-C , 30-H ) :   0.9699 B( 28-C , 31-H ) :   0.9739

Dispersion correction           -0.013308261
FINAL SINGLE POINT ENERGY     -1339.859851097778

DIPOLE MOMENT
-------------
                                X             Y             Z
Electronic contribution:    -11.05898      14.17858      18.70257
Nuclear contribution   :     11.36374     -14.63464     -19.04362
                        -----------------------------------------
Total Dipole Moment    :      0.30476      -0.45606      -0.34105
                        -----------------------------------------
Magnitude (a.u.)       :      0.64590
Magnitude (Debye)      :      1.64174

Rotational constants in cm-1:     0.017199     0.007760     0.006666
Rotational constants in MHz :   515.603031   232.634030   199.853566

                             ****ORCA TERMINATED NORMALLY****
TOTAL RUN TIME: 0 days 0 hours 0 minutes 32 seconds 791 msec
