                         Program Version 4.2.1 -  RELEASE  -
|  1> ! wB97X-D3 SP def2-SVP
|  2> %pal
|  3> nprocs 16
|  4> end
|  5>
|  6> * xyz 0 1
|  7> S 	 22.2541 	 8.97487 	 73.329
|  8> C 	 20.8273 	 8.82249 	 72.2484
|  9> C 	 20.6475 	 7.46346 	 71.9376
| 10> C 	 21.3997 	 6.55551 	 72.6656
| 11> C 	 22.1038 	 7.21594 	 73.6381
| 12> H 	 21.4003 	 5.46683 	 72.7281
| 13> C 	 19.7226 	 6.88834 	 70.9115
| 14> H 	 20.1259 	 7.20995 	 69.9875
| 15> H 	 18.8003 	 7.42595 	 71.0491
| 16> C 	 19.2324 	 5.3816 	 70.9429
| 17> H 	 18.742 	 5.11403 	 69.9526
| 18> H 	 20.0395 	 4.65535 	 71.1698
| 19> C 	 18.2107 	 5.05781 	 72.0702
| 20> H 	 18.0678 	 3.97776 	 72.1035
| 21> H 	 18.4935 	 5.25 	 73.0492
| 22> H 	 17.3228 	 5.7049 	 71.8883
| 23> S 	 24.6445 	 6.63937 	 74.6409
| 24> C 	 24.7971 	 5.61771 	 76.0328
| 25> C 	 23.5958 	 5.40726 	 76.6463
| 26> C 	 22.4983 	 5.98029 	 75.9224
| 27> C 	 22.8869 	 6.5327 	 74.6811
| 28> H 	 23.4619 	 4.83531 	 77.573
| 29> C 	 21.1449 	 5.84153 	 76.5021
| 30> H 	 20.9449 	 4.75869 	 76.694
| 31> H 	 20.3886 	 6.2124 	 75.7391
| 32> C 	 20.8941 	 6.58997 	 77.7901
| 33> H 	 21.5725 	 6.2316 	 78.5857
| 34> H 	 19.8907 	 6.44565 	 78.2098
| 35> C 	 21.1348 	 8.05393 	 77.7664
| 36> H 	 20.6234 	 8.54086 	 78.5864
| 37> H 	 20.7871 	 8.62911 	 76.902
| 38> H 	 22.2278 	 8.29014 	 77.7932
| 39> H 	 20.118 	 9.66465 	 71.9728
| 40> H 	 25.7668 	 5.30805 	 76.4949
| 41> *
| 42>
| 43>                          ****END OF INPUT****

CARTESIAN COORDINATES (ANGSTROEM)
---------------------------------
  S     22.254100    8.974870   73.329000
  C     20.827300    8.822490   72.248400
  C     20.647500    7.463460   71.937600
  C     21.399700    6.555510   72.665600
  C     22.103800    7.215940   73.638100
  H     21.400300    5.466830   72.728100
  C     19.722600    6.888340   70.911500
  H     20.125900    7.209950   69.987500
  H     18.800300    7.425950   71.049100
  C     19.232400    5.381600   70.942900
  H     18.742000    5.114030   69.952600
  H     20.039500    4.655350   71.169800
  C     18.210700    5.057810   72.070200
  H     18.067800    3.977760   72.103500
  H     18.493500    5.250000   73.049200
  H     17.322800    5.704900   71.888300
  S     24.644500    6.639370   74.640900
  C     24.797100    5.617710   76.032800
  C     23.595800    5.407260   76.646300
  C     22.498300    5.980290   75.922400
  C     22.886900    6.532700   74.681100
  H     23.461900    4.835310   77.573000
  C     21.144900    5.841530   76.502100
  H     20.944900    4.758690   76.694000
  H     20.388600    6.212400   75.739100
  C     20.894100    6.589970   77.790100
  H     21.572500    6.231600   78.585700
  H     19.890700    6.445650   78.209800
  C     21.134800    8.053930   77.766400
  H     20.623400    8.540860   78.586400
  H     20.787100    8.629110   76.902000
  H     22.227800    8.290140   77.793200
  H     20.118000    9.664650   71.972800
  H     25.766800    5.308050   76.494900

 Total Charge           Charge          ....    0
 Multiplicity           Mult            ....    1
 Number of Electrons    NEL             ....  134
 Basis Dimension        Dim             ....  322

ORBITAL ENERGIES
----------------

  NO   OCC          E(Eh)            E(eV)
   0   2.0000     -88.968102     -2420.9451
   1   2.0000     -88.963821     -2420.8287
   2   2.0000     -10.330485      -281.1068
   3   2.0000     -10.327780      -281.0332
   4   2.0000     -10.322106      -280.8788
   5   2.0000     -10.318297      -280.7751
   6   2.0000     -10.303372      -280.3690
   7   2.0000     -10.302478      -280.3447
   8   2.0000     -10.301715      -280.3239
   9   2.0000     -10.292692      -280.0784
  10   2.0000     -10.291753      -280.0528
  11   2.0000     -10.290757      -280.0257
  12   2.0000     -10.288195      -279.9560
  13   2.0000     -10.282200      -279.7929
  14   2.0000     -10.277159      -279.6557
  15   2.0000     -10.267367      -279.3893
  16   2.0000      -8.081380      -219.9055
  17   2.0000      -8.078804      -219.8354
  18   2.0000      -6.039937      -164.3550
  19   2.0000      -6.037333      -164.2842
  20   2.0000      -6.036403      -164.2589
  21   2.0000      -6.033317      -164.1749
  22   2.0000      -6.031855      -164.1351
  23   2.0000      -6.029495      -164.0709
  24   2.0000      -1.004197       -27.3256
  25   2.0000      -0.983963       -26.7750
  26   2.0000      -0.914613       -24.8879
  27   2.0000      -0.906241       -24.6601
  28   2.0000      -0.865337       -23.5470
  29   2.0000      -0.850760       -23.1504
  30   2.0000      -0.847575       -23.0637
  31   2.0000      -0.816858       -22.2278
  32   2.0000      -0.782350       -21.2888
  33   2.0000      -0.767367       -20.8811
  34   2.0000      -0.707577       -19.2542
  35   2.0000      -0.694858       -18.9081
  36   2.0000      -0.687717       -18.7137
  37   2.0000      -0.654555       -17.8114
  38   2.0000      -0.636647       -17.3240
  39   2.0000      -0.621681       -16.9168
  40   2.0000      -0.595087       -16.1931
  41   2.0000      -0.565476       -15.3874
  42   2.0000      -0.556546       -15.1444
  43   2.0000      -0.553581       -15.0637
  44   2.0000      -0.541732       -14.7413
  45   2.0000      -0.530908       -14.4467
  46   2.0000      -0.519046       -14.1240
  47   2.0000      -0.509641       -13.8680
  48   2.0000      -0.505762       -13.7625
  49   2.0000      -0.496197       -13.5022
  50   2.0000      -0.490512       -13.3475
  51   2.0000      -0.481912       -13.1135
  52   2.0000      -0.470449       -12.8016
  53   2.0000      -0.455395       -12.3919
  54   2.0000      -0.452884       -12.3236
  55   2.0000      -0.448298       -12.1988
  56   2.0000      -0.443739       -12.0747
  57   2.0000      -0.434584       -11.8256
  58   2.0000      -0.430007       -11.7011
  59   2.0000      -0.423406       -11.5215
  60   2.0000      -0.419887       -11.4257
  61   2.0000      -0.414744       -11.2858
  62   2.0000      -0.403650       -10.9839
  63   2.0000      -0.338824        -9.2199
  64   2.0000      -0.330762        -9.0005
  65   2.0000      -0.324586        -8.8324
  66   2.0000      -0.292043        -7.9469
  67   0.0000       0.030342         0.8256
  68   0.0000       0.048630         1.3233
  69   0.0000       0.103525         2.8171
  70   0.0000       0.117470         3.1965
  71   0.0000       0.130622         3.5544

MULLIKEN ATOMIC CHARGES
-----------------------
   0 S :    0.105681
   1 C :   -0.160205
   2 C :   -0.068195
   3 C :    0.028298
   4 C :   -0.153968
   5 H :    0.026750
   6 C :    0.091215
   7 H :    0.039015
   8 H :    0.012581
   9 C :   -0.103845
  10 H :    0.049920
  11 H :    0.034405
  12 C :   -0.048322
  13 H :    0.035980
  14 H :    0.016361
  15 H :    0.035749
  16 S :    0.101928
  17 C :   -0.093689
  18 C :   -0.043231
  19 C :   -0.027486
  20 C :   -0.189190
  21 H :    0.028286
  22 C :    0.049566
  23 H :    0.040188
  24 H :    0.037741
  25 C :   -0.073335
  26 H :    0.021838
  27 H :    0.029620
  28 C :   -0.063893
  29 H :    0.026208
  30 H :    0.024377
  31 H :    0.041111
  32 H :    0.077162
  33 H :    0.071380
Sum of atomic charges:    0.0000000

LOEWDIN ATOMIC CHARGES
----------------------
   0 S :    0.367208
   1 C :   -0.207272
   2 C :   -0.057032
   3 C :   -0.060627
   4 C :   -0.168971
   5 H :    0.041232
   6 C :   -0.034335
   7 H :    0.032126
   8 H :    0.031144
   9 C :   -0.042346
  10 H :    0.037364
  11 H :    0.021237
  12 C :   -0.066574
  13 H :    0.030638
  14 H :    0.013020
  15 H :    0.028262
  16 S :    0.403181
  17 C :   -0.192581
  18 C :   -0.077677
  19 C :   -0.055293
  20 C :   -0.204330
  21 H :    0.035239
  22 C :   -0.040947
  23 H :    0.037464
  24 H :    0.036546
  25 C :   -0.049603
  26 H :    0.025097
  27 H :    0.027224
  28 C :   -0.073550
  29 H :    0.025569
  30 H :    0.023139
  31 H :    0.030914
  32 H :    0.044803
  33 H :    0.039732

  Mayer bond orders larger than 0.100000
B(  0-S ,  1-C ) :   1.1108 B(  0-S ,  4-C ) :   1.1421 B(  1-C ,  2-C ) :   1.6066
B(  1-C ,  4-C ) :   0.1104 B(  1-C , 32-H ) :   0.9653 B(  2-C ,  3-C ) :   1.2255
B(  2-C ,  6-C ) :   0.9989 B(  3-C ,  4-C ) :   1.5907 B(  3-C ,  5-H ) :   0.9880
B(  4-C , 20-C ) :   1.0354 B(  6-C ,  7-H ) :   0.9342 B(  6-C ,  8-H ) :   0.9371
B(  6-C ,  9-C ) :   1.0659 B(  9-C , 10-H ) :   0.9550 B(  9-C , 11-H ) :   0.9544
B(  9-C , 12-C ) :   1.0725 B( 12-C , 13-H ) :   0.9737 B( 12-C , 14-H ) :   0.9772
B( 12-C , 15-H ) :   0.9737 B( 16-S , 17-C ) :   1.1581 B( 16-S , 20-C ) :   1.1350
B( 17-C , 18-C ) :   1.6083 B( 17-C , 33-H ) :   0.9598 B( 18-C , 19-C ) :   1.2361
B( 18-C , 21-H ) :   0.9873 B( 19-C , 20-C ) :   1.5807 B( 19-C , 22-C ) :   1.0542
B( 22-C , 23-H ) :   0.9368 B( 22-C , 24-H ) :   0.9318 B( 22-C , 25-C ) :   1.0779
B( 25-C , 26-H ) :   0.9491 B( 25-C , 27-H ) :   0.9573 B( 25-C , 28-C ) :   1.0786
B( 28-C , 29-H ) :   0.9721 B( 28-C , 30-H ) :   0.9741 B( 28-C , 31-H ) :   0.9715

Dispersion correction           -0.015114456
FINAL SINGLE POINT ENERGY     -1339.850369530848

DIPOLE MOMENT
-------------
                                X             Y             Z
Electronic contribution:     22.29879       8.51965      -4.25996
Nuclear contribution   :    -22.84045      -8.89200       4.41471
                        -----------------------------------------
Total Dipole Moment    :     -0.54165      -0.37235       0.15475
                        -----------------------------------------
Magnitude (a.u.)       :      0.67526
Magnitude (Debye)      :      1.71639

Rotational constants in cm-1:     0.018244     0.008948     0.008087
Rotational constants in MHz :   546.940672   268.254147   242.439265

                             ****ORCA TERMINATED NORMALLY****
TOTAL RUN TIME: 0 days 0 hours 0 minutes 34 seconds 952 msec
