                         Program Version 4.2.1 -  RELEASE  -
|  1> ! wB97X-D3 SP def2-SVP
|  2> %pal
|  3> nprocs 16
|  4> end
|  5>
|  6> * xyz 0 1
|  7> S 	 -59.5936 	 21.8423 	 83.9983
|  8> C 	 -59.8218 	 20.1466 	 84.2544
|  9> C 	 -58.6743 	 19.5147 	 84.7743
| 10> C 	 -57.5635 	 20.4824 	 84.9258
| 11> C 	 -57.9243 	 21.8039 	 84.6214
| 12> H 	 -56.6328 	 20.2476 	 85.3477
| 13> C 	 -58.5733 	 18.0983 	 85.2178
| 14> H 	 -58.0906 	 17.6973 	 84.3405
| 15> H 	 -59.575 	 17.6527 	 85.1809
| 16> C 	 -57.7912 	 17.7979 	 86.569
| 17> H 	 -57.6455 	 16.6943 	 86.6646
| 18> H 	 -56.7656 	 18.2262 	 86.6714
| 19> C 	 -58.637 	 18.0967 	 87.9008
| 20> H 	 -59.4246 	 17.3923 	 87.9506
| 21> H 	 -58.0752 	 17.9237 	 88.7956
| 22> H 	 -58.9757 	 19.1316 	 87.9836
| 23> S 	 -57.0285 	 24.1226 	 83.424
| 24> C 	 -55.8203 	 24.9992 	 84.2395
| 25> C 	 -55.5297 	 24.511 	 85.5001
| 26> C 	 -56.1374 	 23.2388 	 85.7747
| 27> C 	 -56.9959 	 22.9224 	 84.7527
| 28> H 	 -54.8583 	 25.0686 	 86.0884
| 29> C 	 -55.9312 	 22.5446 	 87.1242
| 30> H 	 -54.8773 	 22.3793 	 87.181
| 31> H 	 -56.4542 	 21.6408 	 87.1261
| 32> C 	 -56.2619 	 23.3035 	 88.4319
| 33> H 	 -55.8534 	 24.3493 	 88.4132
| 34> H 	 -55.7667 	 22.8488 	 89.2156
| 35> C 	 -57.7396 	 23.4744 	 88.8433
| 36> H 	 -58.1818 	 24.2841 	 88.2846
| 37> H 	 -57.8647 	 23.8247 	 89.8322
| 38> H 	 -58.3083 	 22.6179 	 88.8016
| 39> H 	 -60.7276 	 19.6168 	 84.0924
| 40> H 	 -55.5204 	 26.0038 	 83.8065
| 41> *
| 42>
| 43>                          ****END OF INPUT****

CARTESIAN COORDINATES (ANGSTROEM)
---------------------------------
  S    -59.593600   21.842300   83.998300
  C    -59.821800   20.146600   84.254400
  C    -58.674300   19.514700   84.774300
  C    -57.563500   20.482400   84.925800
  C    -57.924300   21.803900   84.621400
  H    -56.632800   20.247600   85.347700
  C    -58.573300   18.098300   85.217800
  H    -58.090600   17.697300   84.340500
  H    -59.575000   17.652700   85.180900
  C    -57.791200   17.797900   86.569000
  H    -57.645500   16.694300   86.664600
  H    -56.765600   18.226200   86.671400
  C    -58.637000   18.096700   87.900800
  H    -59.424600   17.392300   87.950600
  H    -58.075200   17.923700   88.795600
  H    -58.975700   19.131600   87.983600
  S    -57.028500   24.122600   83.424000
  C    -55.820300   24.999200   84.239500
  C    -55.529700   24.511000   85.500100
  C    -56.137400   23.238800   85.774700
  C    -56.995900   22.922400   84.752700
  H    -54.858300   25.068600   86.088400
  C    -55.931200   22.544600   87.124200
  H    -54.877300   22.379300   87.181000
  H    -56.454200   21.640800   87.126100
  C    -56.261900   23.303500   88.431900
  H    -55.853400   24.349300   88.413200
  H    -55.766700   22.848800   89.215600
  C    -57.739600   23.474400   88.843300
  H    -58.181800   24.284100   88.284600
  H    -57.864700   23.824700   89.832200
  H    -58.308300   22.617900   88.801600
  H    -60.727600   19.616800   84.092400
  H    -55.520400   26.003800   83.806500

 Total Charge           Charge          ....    0
 Multiplicity           Mult            ....    1
 Number of Electrons    NEL             ....  134
 Basis Dimension        Dim             ....  322

ORBITAL ENERGIES
----------------

  NO   OCC          E(Eh)            E(eV)
   0   2.0000     -88.966391     -2420.8986
   1   2.0000     -88.963524     -2420.8206
   2   2.0000     -10.331025      -281.1215
   3   2.0000     -10.327511      -281.0259
   4   2.0000     -10.317139      -280.7436
   5   2.0000     -10.309611      -280.5388
   6   2.0000     -10.306090      -280.4430
   7   2.0000     -10.305820      -280.4356
   8   2.0000     -10.304306      -280.3944
   9   2.0000     -10.297347      -280.2051
  10   2.0000     -10.291998      -280.0595
  11   2.0000     -10.290696      -280.0241
  12   2.0000     -10.290531      -280.0196
  13   2.0000     -10.285693      -279.8879
  14   2.0000     -10.277488      -279.6647
  15   2.0000     -10.262343      -279.2525
  16   2.0000      -8.080490      -219.8813
  17   2.0000      -8.078999      -219.8407
  18   2.0000      -6.039180      -164.3344
  19   2.0000      -6.037332      -164.2842
  20   2.0000      -6.035076      -164.2228
  21   2.0000      -6.033531      -164.1807
  22   2.0000      -6.031121      -164.1152
  23   2.0000      -6.029783      -164.0787
  24   2.0000      -1.002730       -27.2857
  25   2.0000      -0.977535       -26.6001
  26   2.0000      -0.908855       -24.7312
  27   2.0000      -0.902079       -24.5468
  28   2.0000      -0.866587       -23.5810
  29   2.0000      -0.853478       -23.2243
  30   2.0000      -0.841356       -22.8945
  31   2.0000      -0.810584       -22.0571
  32   2.0000      -0.792725       -21.5711
  33   2.0000      -0.771961       -21.0061
  34   2.0000      -0.714049       -19.4303
  35   2.0000      -0.703372       -19.1397
  36   2.0000      -0.690425       -18.7874
  37   2.0000      -0.659217       -17.9382
  38   2.0000      -0.635734       -17.2992
  39   2.0000      -0.619613       -16.8605
  40   2.0000      -0.597333       -16.2543
  41   2.0000      -0.561058       -15.2672
  42   2.0000      -0.553510       -15.0618
  43   2.0000      -0.547925       -14.9098
  44   2.0000      -0.544694       -14.8219
  45   2.0000      -0.535776       -14.5792
  46   2.0000      -0.523563       -14.2469
  47   2.0000      -0.509227       -13.8568
  48   2.0000      -0.497477       -13.5370
  49   2.0000      -0.493293       -13.4232
  50   2.0000      -0.491899       -13.3853
  51   2.0000      -0.474955       -12.9242
  52   2.0000      -0.470055       -12.7908
  53   2.0000      -0.467200       -12.7132
  54   2.0000      -0.456582       -12.4242
  55   2.0000      -0.448199       -12.1961
  56   2.0000      -0.444441       -12.0939
  57   2.0000      -0.441724       -12.0199
  58   2.0000      -0.435775       -11.8580
  59   2.0000      -0.431405       -11.7391
  60   2.0000      -0.425191       -11.5700
  61   2.0000      -0.418904       -11.3990
  62   2.0000      -0.412668       -11.2293
  63   2.0000      -0.351415        -9.5625
  64   2.0000      -0.332263        -9.0413
  65   2.0000      -0.320281        -8.7153
  66   2.0000      -0.284281        -7.7357
  67   0.0000       0.031358         0.8533
  68   0.0000       0.075520         2.0550
  69   0.0000       0.110989         3.0202
  70   0.0000       0.118996         3.2380
  71   0.0000       0.130731         3.5574

MULLIKEN ATOMIC CHARGES
-----------------------
   0 S :    0.114309
   1 C :   -0.112700
   2 C :   -0.117617
   3 C :    0.032528
   4 C :   -0.132607
   5 H :   -0.006935
   6 C :    0.091414
   7 H :    0.044124
   8 H :    0.017984
   9 C :   -0.111443
  10 H :    0.038096
  11 H :    0.046430
  12 C :   -0.042997
  13 H :    0.023220
  14 H :    0.023759
  15 H :    0.044933
  16 S :    0.108304
  17 C :   -0.115560
  18 C :   -0.030391
  19 C :   -0.036991
  20 C :   -0.172073
  21 H :    0.001359
  22 C :    0.139840
  23 H :    0.025653
  24 H :   -0.000335
  25 C :   -0.079753
  26 H :    0.025619
  27 H :    0.012602
  28 C :    0.001730
  29 H :    0.030192
  30 H :    0.010474
  31 H :    0.014199
  32 H :    0.034419
  33 H :    0.078214
Sum of atomic charges:   -0.0000000

LOEWDIN ATOMIC CHARGES
----------------------
   0 S :    0.397340
   1 C :   -0.212780
   2 C :   -0.056428
   3 C :   -0.059591
   4 C :   -0.184432
   5 H :    0.016705
   6 C :   -0.037991
   7 H :    0.040936
   8 H :    0.033568
   9 C :   -0.040992
  10 H :    0.030891
  11 H :    0.026850
  12 C :   -0.062693
  13 H :    0.018887
  14 H :    0.023054
  15 H :    0.026210
  16 S :    0.402377
  17 C :   -0.203011
  18 C :   -0.068846
  19 C :   -0.049199
  20 C :   -0.181309
  21 H :    0.022439
  22 C :   -0.017325
  23 H :    0.035512
  24 H :    0.020159
  25 C :   -0.031653
  26 H :    0.028774
  27 H :    0.014070
  28 C :   -0.057058
  29 H :    0.028641
  30 H :    0.023212
  31 H :    0.013306
  32 H :    0.021811
  33 H :    0.038564

  Mayer bond orders larger than 0.100000
B(  0-S ,  1-C ) :   1.1286 B(  0-S ,  4-C ) :   1.1397 B(  1-C ,  2-C ) :   1.6113
B(  1-C , 32-H ) :   0.9689 B(  2-C ,  3-C ) :   1.2243 B(  2-C ,  6-C ) :   1.0202
B(  3-C ,  4-C ) :   1.5681 B(  3-C ,  5-H ) :   0.9940 B(  4-C , 20-C ) :   1.0625
B(  6-C ,  7-H ) :   0.9277 B(  6-C ,  8-H ) :   0.9423 B(  6-C ,  9-C ) :   1.0561
B(  9-C , 10-H ) :   0.9584 B(  9-C , 11-H ) :   0.9607 B(  9-C , 12-C ) :   1.0630
B( 12-C , 13-H ) :   0.9782 B( 12-C , 14-H ) :   0.9757 B( 12-C , 15-H ) :   0.9806
B( 16-S , 17-C ) :   1.1641 B( 16-S , 20-C ) :   1.1295 B( 17-C , 18-C ) :   1.6231
B( 17-C , 33-H ) :   0.9574 B( 18-C , 19-C ) :   1.2042 B( 18-C , 21-H ) :   0.9988
B( 19-C , 20-C ) :   1.6194 B( 19-C , 22-C ) :   1.0415 B( 22-C , 23-H ) :   0.9207
B( 22-C , 24-H ) :   0.9275 B( 22-C , 25-C ) :   1.0826 B( 25-C , 26-H ) :   0.9544
B( 25-C , 27-H ) :   0.9539 B( 25-C , 28-C ) :   1.0808 B( 28-C , 29-H ) :   0.9768
B( 28-C , 30-H ) :   0.9682 B( 28-C , 31-H ) :   0.9750

Dispersion correction           -0.014629119
FINAL SINGLE POINT ENERGY     -1339.865920024973

DIPOLE MOMENT
-------------
                                X             Y             Z
Electronic contribution:     -3.21247      14.26251     -25.66317
Nuclear contribution   :      3.47214     -14.60326      26.33261
                        -----------------------------------------
Total Dipole Moment    :      0.25966      -0.34075       0.66945
                        -----------------------------------------
Magnitude (a.u.)       :      0.79479
Magnitude (Debye)      :      2.02020

Rotational constants in cm-1:     0.017484     0.009868     0.007328
Rotational constants in MHz :   524.167153   295.835420   219.701609

                             ****ORCA TERMINATED NORMALLY****
TOTAL RUN TIME: 0 days 0 hours 0 minutes 29 seconds 690 msec
