                         Program Version 4.2.1 -  RELEASE  -
|  1> ! wB97X-D3 SP def2-SVP
|  2> %pal
|  3> nprocs 16
|  4> end
|  5>
|  6> * xyz 0 1
|  7> S 	 -22.8993 	 55.9063 	 107.431
|  8> C 	 -24.5822 	 55.2216 	 107.557
|  9> C 	 -25.1902 	 55.5205 	 108.774
| 10> C 	 -24.4813 	 56.5298 	 109.504
| 11> C 	 -23.2126 	 56.7549 	 108.962
| 12> H 	 -24.7197 	 57.0741 	 110.39
| 13> C 	 -26.5183 	 55.0502 	 109.235
| 14> H 	 -26.4314 	 55.0973 	 110.279
| 15> H 	 -26.6929 	 53.9829 	 108.937
| 16> C 	 -27.7571 	 55.8852 	 108.8
| 17> H 	 -28.664 	 55.6719 	 109.382
| 18> H 	 -27.4545 	 56.9227 	 109.141
| 19> C 	 -27.9764 	 55.9279 	 107.292
| 20> H 	 -27.1857 	 56.5145 	 106.765
| 21> H 	 -27.9472 	 54.8829 	 106.956
| 22> H 	 -28.9942 	 56.278 	 106.942
| 23> S 	 -21.3428 	 58.7505 	 108.57
| 24> C 	 -20.3105 	 59.277 	 109.918
| 25> C 	 -20.5853 	 58.5127 	 111.035
| 26> C 	 -21.716 	 57.6859 	 110.875
| 27> C 	 -22.1804 	 57.5858 	 109.563
| 28> H 	 -20.1075 	 58.6227 	 112.002
| 29> C 	 -22.2224 	 56.8538 	 112.003
| 30> H 	 -21.4221 	 56.1546 	 112.154
| 31> H 	 -23.1341 	 56.3045 	 111.765
| 32> C 	 -22.5051 	 57.6846 	 113.265
| 33> H 	 -21.536 	 58.0431 	 113.646
| 34> H 	 -22.8175 	 56.9895 	 113.975
| 35> C 	 -23.6666 	 58.6388 	 113.137
| 36> H 	 -24.5378 	 57.9981 	 112.785
| 37> H 	 -23.534 	 59.3926 	 112.336
| 38> H 	 -23.7347 	 59.1332 	 114.119
| 39> H 	 -25.0526 	 54.543 	 106.871
| 40> H 	 -19.4932 	 59.9912 	 109.924
| 41> *
| 42>
| 43>                          ****END OF INPUT****

CARTESIAN COORDINATES (ANGSTROEM)
---------------------------------
  S    -22.899300   55.906300  107.431000
  C    -24.582200   55.221600  107.557000
  C    -25.190200   55.520500  108.774000
  C    -24.481300   56.529800  109.504000
  C    -23.212600   56.754900  108.962000
  H    -24.719700   57.074100  110.390000
  C    -26.518300   55.050200  109.235000
  H    -26.431400   55.097300  110.279000
  H    -26.692900   53.982900  108.937000
  C    -27.757100   55.885200  108.800000
  H    -28.664000   55.671900  109.382000
  H    -27.454500   56.922700  109.141000
  C    -27.976400   55.927900  107.292000
  H    -27.185700   56.514500  106.765000
  H    -27.947200   54.882900  106.956000
  H    -28.994200   56.278000  106.942000
  S    -21.342800   58.750500  108.570000
  C    -20.310500   59.277000  109.918000
  C    -20.585300   58.512700  111.035000
  C    -21.716000   57.685900  110.875000
  C    -22.180400   57.585800  109.563000
  H    -20.107500   58.622700  112.002000
  C    -22.222400   56.853800  112.003000
  H    -21.422100   56.154600  112.154000
  H    -23.134100   56.304500  111.765000
  C    -22.505100   57.684600  113.265000
  H    -21.536000   58.043100  113.646000
  H    -22.817500   56.989500  113.975000
  C    -23.666600   58.638800  113.137000
  H    -24.537800   57.998100  112.785000
  H    -23.534000   59.392600  112.336000
  H    -23.734700   59.133200  114.119000
  H    -25.052600   54.543000  106.871000
  H    -19.493200   59.991200  109.924000

 Total Charge           Charge          ....    0
 Multiplicity           Mult            ....    1
 Number of Electrons    NEL             ....  134
 Basis Dimension        Dim             ....  322

ORBITAL ENERGIES
----------------

  NO   OCC          E(Eh)            E(eV)
   0   2.0000     -88.971700     -2421.0431
   1   2.0000     -88.965612     -2420.8774
   2   2.0000     -10.333877      -281.1991
   3   2.0000     -10.323679      -280.9216
   4   2.0000     -10.321935      -280.8741
   5   2.0000     -10.318462      -280.7796
   6   2.0000     -10.304430      -280.3978
   7   2.0000     -10.297834      -280.2183
   8   2.0000     -10.296056      -280.1699
   9   2.0000     -10.293950      -280.1126
  10   2.0000     -10.292828      -280.0821
  11   2.0000     -10.291685      -280.0510
  12   2.0000     -10.287102      -279.9263
  13   2.0000     -10.284072      -279.8438
  14   2.0000     -10.283665      -279.8328
  15   2.0000     -10.281043      -279.7614
  16   2.0000      -8.084642      -219.9943
  17   2.0000      -8.079839      -219.8636
  18   2.0000      -6.043233      -164.4447
  19   2.0000      -6.039644      -164.3471
  20   2.0000      -6.038430      -164.3140
  21   2.0000      -6.035183      -164.2257
  22   2.0000      -6.034308      -164.2019
  23   2.0000      -6.030642      -164.1021
  24   2.0000      -1.003773       -27.3140
  25   2.0000      -0.978856       -26.6360
  26   2.0000      -0.917345       -24.9622
  27   2.0000      -0.912393       -24.8275
  28   2.0000      -0.866106       -23.5679
  29   2.0000      -0.852191       -23.1893
  30   2.0000      -0.845519       -23.0077
  31   2.0000      -0.813188       -22.1280
  32   2.0000      -0.783344       -21.3159
  33   2.0000      -0.772891       -21.0314
  34   2.0000      -0.708342       -19.2750
  35   2.0000      -0.697829       -18.9889
  36   2.0000      -0.695985       -18.9387
  37   2.0000      -0.659766       -17.9531
  38   2.0000      -0.640948       -17.4411
  39   2.0000      -0.616623       -16.7792
  40   2.0000      -0.596937       -16.2435
  41   2.0000      -0.567547       -15.4437
  42   2.0000      -0.562292       -15.3007
  43   2.0000      -0.550764       -14.9871
  44   2.0000      -0.544010       -14.8033
  45   2.0000      -0.542362       -14.7584
  46   2.0000      -0.520405       -14.1609
  47   2.0000      -0.506999       -13.7962
  48   2.0000      -0.500784       -13.6270
  49   2.0000      -0.494646       -13.4600
  50   2.0000      -0.491224       -13.3669
  51   2.0000      -0.481108       -13.0916
  52   2.0000      -0.470873       -12.8131
  53   2.0000      -0.462351       -12.5812
  54   2.0000      -0.455627       -12.3982
  55   2.0000      -0.453026       -12.3275
  56   2.0000      -0.444734       -12.1018
  57   2.0000      -0.440021       -11.9736
  58   2.0000      -0.435608       -11.8535
  59   2.0000      -0.426467       -11.6048
  60   2.0000      -0.422458       -11.4957
  61   2.0000      -0.412163       -11.2155
  62   2.0000      -0.408423       -11.1138
  63   2.0000      -0.346407        -9.4262
  64   2.0000      -0.333756        -9.0820
  65   2.0000      -0.328656        -8.9432
  66   2.0000      -0.287435        -7.8215
  67   0.0000       0.023727         0.6457
  68   0.0000       0.069048         1.8789
  69   0.0000       0.096122         2.6156
  70   0.0000       0.117601         3.2001
  71   0.0000       0.123951         3.3729

MULLIKEN ATOMIC CHARGES
-----------------------
   0 S :    0.110671
   1 C :   -0.103825
   2 C :   -0.097510
   3 C :    0.033174
   4 C :   -0.141995
   5 H :   -0.001518
   6 C :    0.073959
   7 H :    0.011712
   8 H :    0.033065
   9 C :   -0.071595
  10 H :    0.040431
  11 H :    0.023098
  12 C :   -0.077604
  13 H :    0.060222
  14 H :    0.019506
  15 H :    0.043574
  16 S :    0.101796
  17 C :   -0.081257
  18 C :   -0.032730
  19 C :   -0.055685
  20 C :   -0.154703
  21 H :    0.020315
  22 C :    0.055914
  23 H :    0.034663
  24 H :    0.011214
  25 C :   -0.064317
  26 H :    0.021559
  27 H :    0.011988
  28 C :   -0.060266
  29 H :    0.039671
  30 H :    0.048612
  31 H :    0.050672
  32 H :    0.039514
  33 H :    0.057679
Sum of atomic charges:    0.0000000

LOEWDIN ATOMIC CHARGES
----------------------
   0 S :    0.370749
   1 C :   -0.176783
   2 C :   -0.057001
   3 C :   -0.060022
   4 C :   -0.172409
   5 H :    0.026653
   6 C :   -0.032832
   7 H :    0.025629
   8 H :    0.032528
   9 C :   -0.043844
  10 H :    0.026580
  11 H :    0.026428
  12 C :   -0.077449
  13 H :    0.034671
  14 H :    0.020453
  15 H :    0.033301
  16 S :    0.398289
  17 C :   -0.174961
  18 C :   -0.070688
  19 C :   -0.058528
  20 C :   -0.211075
  21 H :    0.031583
  22 C :   -0.030732
  23 H :    0.034605
  24 H :    0.024930
  25 C :   -0.042419
  26 H :    0.019260
  27 H :    0.018028
  28 C :   -0.066309
  29 H :    0.032607
  30 H :    0.027470
  31 H :    0.034361
  32 H :    0.023867
  33 H :    0.033058

  Mayer bond orders larger than 0.100000
B(  0-S ,  1-C ) :   1.1057 B(  0-S ,  4-C ) :   1.1405 B(  1-C ,  2-C ) :   1.6371
B(  1-C , 32-H ) :   0.9667 B(  2-C ,  3-C ) :   1.1930 B(  2-C ,  6-C ) :   1.0372
B(  3-C ,  4-C ) :   1.5970 B(  3-C ,  5-H ) :   0.9882 B(  4-C , 20-C ) :   1.0517
B(  6-C ,  7-H ) :   0.9297 B(  6-C ,  8-H ) :   0.9389 B(  6-C ,  9-C ) :   1.0684
B(  9-C , 10-H ) :   0.9587 B(  9-C , 11-H ) :   0.9535 B(  9-C , 12-C ) :   1.0681
B( 12-C , 13-H ) :   0.9715 B( 12-C , 14-H ) :   0.9752 B( 12-C , 15-H ) :   0.9732
B( 16-S , 17-C ) :   1.1517 B( 16-S , 20-C ) :   1.1323 B( 17-C , 18-C ) :   1.5955
B( 17-C , 20-C ) :   0.1014 B( 17-C , 33-H ) :   0.9675 B( 18-C , 19-C ) :   1.2631
B( 18-C , 21-H ) :   0.9841 B( 19-C , 20-C ) :   1.5689 B( 19-C , 22-C ) :   1.0430
B( 22-C , 23-H ) :   0.9290 B( 22-C , 24-H ) :   0.9364 B( 22-C , 25-C ) :   1.0869
B( 25-C , 26-H ) :   0.9509 B( 25-C , 27-H ) :   0.9499 B( 25-C , 28-C ) :   1.0641
B( 28-C , 29-H ) :   0.9656 B( 28-C , 30-H ) :   0.9771 B( 28-C , 31-H ) :   0.9711

Dispersion correction           -0.015130884
FINAL SINGLE POINT ENERGY     -1339.874519293835

DIPOLE MOMENT
-------------
                                X             Y             Z
Electronic contribution:     20.40453       2.69703     -15.37984
Nuclear contribution   :    -20.67865      -2.82266      16.08119
                        -----------------------------------------
Total Dipole Moment    :     -0.27411      -0.12564       0.70135
                        -----------------------------------------
Magnitude (a.u.)       :      0.76342
Magnitude (Debye)      :      1.94046

Rotational constants in cm-1:     0.020408     0.008736     0.006859
Rotational constants in MHz :   611.806753   261.904038   205.618714

                             ****ORCA TERMINATED NORMALLY****
TOTAL RUN TIME: 0 days 0 hours 0 minutes 31 seconds 211 msec
