                         Program Version 4.2.1 -  RELEASE  -
|  1> ! wB97X-D3 SP def2-SVP
|  2> %pal
|  3> nprocs 16
|  4> end
|  5>
|  6> * xyz 0 1
|  7> S 	 -33.4805 	 57.6956 	 107.341
|  8> C 	 -32.1476 	 58.6689 	 106.832
|  9> C 	 -31.17 	 57.8232 	 106.295
| 10> C 	 -31.5531 	 56.456 	 106.268
| 11> C 	 -32.8212 	 56.2176 	 106.754
| 12> H 	 -30.9536 	 55.6477 	 105.967
| 13> C 	 -29.7245 	 58.3371 	 105.864
| 14> H 	 -28.9748 	 57.8062 	 106.518
| 15> H 	 -29.67 	 59.3591 	 106.271
| 16> C 	 -29.4835 	 58.5418 	 104.367
| 17> H 	 -29.3042 	 57.5268 	 104.045
| 18> H 	 -30.3077 	 58.9081 	 103.865
| 19> C 	 -28.198 	 59.2392 	 103.969
| 20> H 	 -28.089 	 60.2678 	 104.339
| 21> H 	 -27.2896 	 58.7347 	 104.371
| 22> H 	 -28.0577 	 59.2506 	 102.86
| 23> S 	 -35.0393 	 55.0715 	 105.871
| 24> C 	 -35.291 	 53.3837 	 106.164
| 25> C 	 -34.4062 	 52.8417 	 107.103
| 26> C 	 -33.3469 	 53.7226 	 107.366
| 27> C 	 -33.5856 	 54.99 	 106.86
| 28> H 	 -34.4702 	 51.864 	 107.555
| 29> C 	 -32.1694 	 53.3339 	 108.281
| 30> H 	 -31.4883 	 54.1252 	 108.327
| 31> H 	 -31.6253 	 52.5653 	 107.695
| 32> C 	 -32.5347 	 52.9258 	 109.714
| 33> H 	 -33.0507 	 51.9707 	 109.671
| 34> H 	 -33.1167 	 53.6053 	 110.289
| 35> C 	 -31.2333 	 52.6912 	 110.442
| 36> H 	 -30.4475 	 53.5349 	 110.356
| 37> H 	 -30.7999 	 51.7883 	 110.04
| 38> H 	 -31.4427 	 52.5333 	 111.525
| 39> H 	 -32.11 	 59.7696 	 107.049
| 40> H 	 -36.1457 	 52.904 	 105.743
| 41> *
| 42>
| 43>                          ****END OF INPUT****

CARTESIAN COORDINATES (ANGSTROEM)
---------------------------------
  S    -33.480500   57.695600  107.341000
  C    -32.147600   58.668900  106.832000
  C    -31.170000   57.823200  106.295000
  C    -31.553100   56.456000  106.268000
  C    -32.821200   56.217600  106.754000
  H    -30.953600   55.647700  105.967000
  C    -29.724500   58.337100  105.864000
  H    -28.974800   57.806200  106.518000
  H    -29.670000   59.359100  106.271000
  C    -29.483500   58.541800  104.367000
  H    -29.304200   57.526800  104.045000
  H    -30.307700   58.908100  103.865000
  C    -28.198000   59.239200  103.969000
  H    -28.089000   60.267800  104.339000
  H    -27.289600   58.734700  104.371000
  H    -28.057700   59.250600  102.860000
  S    -35.039300   55.071500  105.871000
  C    -35.291000   53.383700  106.164000
  C    -34.406200   52.841700  107.103000
  C    -33.346900   53.722600  107.366000
  C    -33.585600   54.990000  106.860000
  H    -34.470200   51.864000  107.555000
  C    -32.169400   53.333900  108.281000
  H    -31.488300   54.125200  108.327000
  H    -31.625300   52.565300  107.695000
  C    -32.534700   52.925800  109.714000
  H    -33.050700   51.970700  109.671000
  H    -33.116700   53.605300  110.289000
  C    -31.233300   52.691200  110.442000
  H    -30.447500   53.534900  110.356000
  H    -30.799900   51.788300  110.040000
  H    -31.442700   52.533300  111.525000
  H    -32.110000   59.769600  107.049000
  H    -36.145700   52.904000  105.743000

 Total Charge           Charge          ....    0
 Multiplicity           Mult            ....    1
 Number of Electrons    NEL             ....  134
 Basis Dimension        Dim             ....  322

ORBITAL ENERGIES
----------------

  NO   OCC          E(Eh)            E(eV)
   0   2.0000     -88.965055     -2420.8622
   1   2.0000     -88.960594     -2420.7408
   2   2.0000     -10.323502      -280.9168
   3   2.0000     -10.322425      -280.8875
   4   2.0000     -10.317064      -280.7416
   5   2.0000     -10.316333      -280.7217
   6   2.0000     -10.304854      -280.4093
   7   2.0000     -10.302065      -280.3334
   8   2.0000     -10.298231      -280.2291
   9   2.0000     -10.294094      -280.1165
  10   2.0000     -10.291506      -280.0461
  11   2.0000     -10.286612      -279.9129
  12   2.0000     -10.284839      -279.8647
  13   2.0000     -10.283301      -279.8229
  14   2.0000     -10.282333      -279.7965
  15   2.0000     -10.278430      -279.6903
  16   2.0000      -8.080295      -219.8760
  17   2.0000      -8.076452      -219.7714
  18   2.0000      -6.038556      -164.3175
  19   2.0000      -6.034809      -164.2155
  20   2.0000      -6.034798      -164.2152
  21   2.0000      -6.031191      -164.1171
  22   2.0000      -6.030619      -164.1015
  23   2.0000      -6.027485      -164.0162
  24   2.0000      -1.010135       -27.4872
  25   2.0000      -0.985833       -26.8259
  26   2.0000      -0.915236       -24.9048
  27   2.0000      -0.905911       -24.6511
  28   2.0000      -0.868927       -23.6447
  29   2.0000      -0.856951       -23.3188
  30   2.0000      -0.844528       -22.9808
  31   2.0000      -0.810286       -22.0490
  32   2.0000      -0.780277       -21.2324
  33   2.0000      -0.766660       -20.8619
  34   2.0000      -0.704515       -19.1708
  35   2.0000      -0.700155       -19.0522
  36   2.0000      -0.690206       -18.7815
  37   2.0000      -0.665507       -18.1094
  38   2.0000      -0.645140       -17.5552
  39   2.0000      -0.617907       -16.8141
  40   2.0000      -0.601496       -16.3675
  41   2.0000      -0.573177       -15.5969
  42   2.0000      -0.567991       -15.4558
  43   2.0000      -0.552332       -15.0297
  44   2.0000      -0.532524       -14.4907
  45   2.0000      -0.525087       -14.2883
  46   2.0000      -0.513823       -13.9818
  47   2.0000      -0.508880       -13.8473
  48   2.0000      -0.507170       -13.8008
  49   2.0000      -0.495449       -13.4819
  50   2.0000      -0.493081       -13.4174
  51   2.0000      -0.474546       -12.9131
  52   2.0000      -0.469553       -12.7772
  53   2.0000      -0.462761       -12.5924
  54   2.0000      -0.457378       -12.4459
  55   2.0000      -0.451636       -12.2896
  56   2.0000      -0.447021       -12.1641
  57   2.0000      -0.441724       -12.0199
  58   2.0000      -0.440099       -11.9757
  59   2.0000      -0.431504       -11.7418
  60   2.0000      -0.413584       -11.2542
  61   2.0000      -0.413300       -11.2465
  62   2.0000      -0.399566       -10.8727
  63   2.0000      -0.342655        -9.3241
  64   2.0000      -0.332890        -9.0584
  65   2.0000      -0.328616        -8.9421
  66   2.0000      -0.292291        -7.9536
  67   0.0000       0.038883         1.0581
  68   0.0000       0.064217         1.7474
  69   0.0000       0.117837         3.2065
  70   0.0000       0.121238         3.2991
  71   0.0000       0.131641         3.5821

MULLIKEN ATOMIC CHARGES
-----------------------
   0 S :    0.105924
   1 C :   -0.145353
   2 C :   -0.108945
   3 C :    0.072056
   4 C :   -0.163004
   5 H :   -0.012095
   6 C :    0.025342
   7 H :    0.045713
   8 H :    0.003122
   9 C :   -0.000837
  10 H :    0.019675
  11 H :    0.022697
  12 C :   -0.075606
  13 H :    0.028505
  14 H :    0.027096
  15 H :    0.043297
  16 S :    0.116184
  17 C :   -0.084643
  18 C :   -0.026487
  19 C :   -0.026108
  20 C :   -0.166250
  21 H :    0.016499
  22 C :    0.070716
  23 H :   -0.003837
  24 H :    0.034048
  25 C :   -0.034562
  26 H :    0.026087
  27 H :    0.035657
  28 C :   -0.081264
  29 H :    0.046195
  30 H :    0.023899
  31 H :    0.039262
  32 H :    0.076548
  33 H :    0.050468
Sum of atomic charges:   -0.0000000

LOEWDIN ATOMIC CHARGES
----------------------
   0 S :    0.426082
   1 C :   -0.219176
   2 C :   -0.064745
   3 C :   -0.067877
   4 C :   -0.208692
   5 H :    0.023251
   6 C :   -0.035143
   7 H :    0.037321
   8 H :    0.023167
   9 C :   -0.039258
  10 H :    0.026384
  11 H :    0.019325
  12 C :   -0.070607
  13 H :    0.020218
  14 H :    0.027562
  15 H :    0.032953
  16 S :    0.420744
  17 C :   -0.178834
  18 C :   -0.068865
  19 C :   -0.051637
  20 C :   -0.203570
  21 H :    0.031256
  22 C :   -0.024286
  23 H :    0.018087
  24 H :    0.037988
  25 C :   -0.033773
  26 H :    0.024653
  27 H :    0.024252
  28 C :   -0.069141
  29 H :    0.032442
  30 H :    0.020793
  31 H :    0.028257
  32 H :    0.041553
  33 H :    0.019316

  Mayer bond orders larger than 0.100000
B(  0-S ,  1-C ) :   1.1545 B(  0-S ,  4-C ) :   1.1838 B(  1-C ,  2-C ) :   1.5777
B(  1-C ,  4-C ) :   0.1056 B(  1-C , 32-H ) :   0.9654 B(  2-C ,  3-C ) :   1.2663
B(  2-C ,  6-C ) :   1.0100 B(  3-C ,  4-C ) :   1.5493 B(  3-C ,  5-H ) :   1.0119
B(  4-C , 20-C ) :   0.9906 B(  6-C ,  7-H ) :   0.9479 B(  6-C ,  8-H ) :   0.9444
B(  6-C ,  9-C ) :   1.0496 B(  9-C , 10-H ) :   0.9527 B(  9-C , 11-H ) :   0.9555
B(  9-C , 12-C ) :   1.0874 B( 12-C , 13-H ) :   0.9747 B( 12-C , 14-H ) :   0.9732
B( 12-C , 15-H ) :   0.9739 B( 16-S , 17-C ) :   1.1823 B( 16-S , 20-C ) :   1.1497
B( 17-C , 18-C ) :   1.5659 B( 17-C , 20-C ) :   0.1106 B( 17-C , 33-H ) :   0.9725
B( 18-C , 19-C ) :   1.2536 B( 18-C , 21-H ) :   0.9922 B( 19-C , 20-C ) :   1.6082
B( 19-C , 22-C ) :   1.0296 B( 22-C , 23-H ) :   0.9384 B( 22-C , 24-H ) :   0.9304
B( 22-C , 25-C ) :   1.0663 B( 25-C , 26-H ) :   0.9477 B( 25-C , 27-H ) :   0.9596
B( 25-C , 28-C ) :   1.0868 B( 28-C , 29-H ) :   0.9742 B( 28-C , 30-H ) :   0.9751
B( 28-C , 31-H ) :   0.9732

Dispersion correction           -0.013256852
FINAL SINGLE POINT ENERGY     -1339.871990766632

DIPOLE MOMENT
-------------
                                X             Y             Z
Electronic contribution:    -25.38852       2.52062      -3.39423
Nuclear contribution   :     25.83789      -2.86035       3.53284
                        -----------------------------------------
Total Dipole Moment    :      0.44937      -0.33974       0.13861
                        -----------------------------------------
Magnitude (a.u.)       :      0.58014
Magnitude (Debye)      :      1.47461

Rotational constants in cm-1:     0.018556     0.007381     0.006268
Rotational constants in MHz :   556.284268   221.277767   187.901024

                             ****ORCA TERMINATED NORMALLY****
TOTAL RUN TIME: 0 days 0 hours 0 minutes 28 seconds 794 msec
