                         Program Version 4.2.1 -  RELEASE  -
|  1> ! wB97X-D3 SP def2-SVP
|  2> %pal
|  3> nprocs 16
|  4> end
|  5>
|  6> * xyz 0 1
|  7> S 	 -44.376 	 24.5629 	 83.3707
|  8> C 	 -45.044 	 22.9703 	 83.4985
|  9> C 	 -44.0624 	 22.0394 	 83.5032
| 10> C 	 -42.7375 	 22.5932 	 83.3772
| 11> C 	 -42.7754 	 23.9451 	 83.4702
| 12> H 	 -41.7534 	 22.1703 	 83.358
| 13> C 	 -44.3445 	 20.5203 	 83.4039
| 14> H 	 -44.8172 	 20.4184 	 82.3777
| 15> H 	 -45.1725 	 20.2456 	 84.0285
| 16> C 	 -43.2771 	 19.5025 	 83.6001
| 17> H 	 -43.8098 	 18.5758 	 83.4367
| 18> H 	 -42.5949 	 19.6232 	 82.767
| 19> C 	 -42.466 	 19.6576 	 84.939
| 20> H 	 -42.0973 	 18.6362 	 85.2806
| 21> H 	 -41.5928 	 20.2779 	 84.9845
| 22> H 	 -43.0554 	 20.1391 	 85.7331
| 23> S 	 -41.7222 	 26.2418 	 82.2784
| 24> C 	 -40.2345 	 26.9258 	 82.7632
| 25> C 	 -39.5688 	 25.9919 	 83.5046
| 26> C 	 -40.3861 	 24.9545 	 84.0041
| 27> C 	 -41.625 	 24.8497 	 83.348
| 28> H 	 -38.5595 	 26.2935 	 83.8127
| 29> C 	 -39.875 	 24.0246 	 84.9701
| 30> H 	 -40.7702 	 23.6348 	 85.526
| 31> H 	 -39.2834 	 24.5433 	 85.7143
| 32> C 	 -38.9102 	 22.9666 	 84.2534
| 33> H 	 -38.4808 	 23.287 	 83.3738
| 34> H 	 -39.6297 	 22.1907 	 83.9692
| 35> C 	 -37.966 	 22.2965 	 85.183
| 36> H 	 -37.4558 	 21.3341 	 84.8295
| 37> H 	 -38.5123 	 21.9615 	 86.0854
| 38> H 	 -37.2043 	 23.0839 	 85.335
| 39> H 	 -46.0923 	 22.7323 	 83.5038
| 40> H 	 -39.8 	 27.8764 	 82.4679
| 41> *
| 42>
| 43>                          ****END OF INPUT****

CARTESIAN COORDINATES (ANGSTROEM)
---------------------------------
  S    -44.376000   24.562900   83.370700
  C    -45.044000   22.970300   83.498500
  C    -44.062400   22.039400   83.503200
  C    -42.737500   22.593200   83.377200
  C    -42.775400   23.945100   83.470200
  H    -41.753400   22.170300   83.358000
  C    -44.344500   20.520300   83.403900
  H    -44.817200   20.418400   82.377700
  H    -45.172500   20.245600   84.028500
  C    -43.277100   19.502500   83.600100
  H    -43.809800   18.575800   83.436700
  H    -42.594900   19.623200   82.767000
  C    -42.466000   19.657600   84.939000
  H    -42.097300   18.636200   85.280600
  H    -41.592800   20.277900   84.984500
  H    -43.055400   20.139100   85.733100
  S    -41.722200   26.241800   82.278400
  C    -40.234500   26.925800   82.763200
  C    -39.568800   25.991900   83.504600
  C    -40.386100   24.954500   84.004100
  C    -41.625000   24.849700   83.348000
  H    -38.559500   26.293500   83.812700
  C    -39.875000   24.024600   84.970100
  H    -40.770200   23.634800   85.526000
  H    -39.283400   24.543300   85.714300
  C    -38.910200   22.966600   84.253400
  H    -38.480800   23.287000   83.373800
  H    -39.629700   22.190700   83.969200
  C    -37.966000   22.296500   85.183000
  H    -37.455800   21.334100   84.829500
  H    -38.512300   21.961500   86.085400
  H    -37.204300   23.083900   85.335000
  H    -46.092300   22.732300   83.503800
  H    -39.800000   27.876400   82.467900

 Total Charge           Charge          ....    0
 Multiplicity           Mult            ....    1
 Number of Electrons    NEL             ....  134
 Basis Dimension        Dim             ....  322

ORBITAL ENERGIES
----------------

  NO   OCC          E(Eh)            E(eV)
   0   2.0000     -88.963935     -2420.8318
   1   2.0000     -88.959206     -2420.7031
   2   2.0000     -10.325867      -280.9811
   3   2.0000     -10.325519      -280.9717
   4   2.0000     -10.313010      -280.6313
   5   2.0000     -10.308180      -280.4999
   6   2.0000     -10.301998      -280.3316
   7   2.0000     -10.297468      -280.2083
   8   2.0000     -10.291740      -280.0525
   9   2.0000     -10.291257      -280.0393
  10   2.0000     -10.290220      -280.0111
  11   2.0000     -10.289394      -279.9886
  12   2.0000     -10.287879      -279.9474
  13   2.0000     -10.286292      -279.9042
  14   2.0000     -10.285088      -279.8715
  15   2.0000     -10.283190      -279.8198
  16   2.0000      -8.079749      -219.8611
  17   2.0000      -8.074735      -219.7247
  18   2.0000      -6.038251      -164.3092
  19   2.0000      -6.034161      -164.1979
  20   2.0000      -6.033239      -164.1728
  21   2.0000      -6.030370      -164.0947
  22   2.0000      -6.028926      -164.0554
  23   2.0000      -6.025641      -163.9660
  24   2.0000      -1.014930       -27.6176
  25   2.0000      -0.993859       -27.0443
  26   2.0000      -0.916415       -24.9369
  27   2.0000      -0.913449       -24.8562
  28   2.0000      -0.874046       -23.7840
  29   2.0000      -0.858010       -23.3476
  30   2.0000      -0.843337       -22.9484
  31   2.0000      -0.820763       -22.3341
  32   2.0000      -0.785545       -21.3758
  33   2.0000      -0.769014       -20.9259
  34   2.0000      -0.710727       -19.3399
  35   2.0000      -0.701902       -19.0997
  36   2.0000      -0.694486       -18.8979
  37   2.0000      -0.658779       -17.9263
  38   2.0000      -0.645584       -17.5672
  39   2.0000      -0.622923       -16.9506
  40   2.0000      -0.597613       -16.2619
  41   2.0000      -0.571145       -15.5417
  42   2.0000      -0.566314       -15.4102
  43   2.0000      -0.551777       -15.0146
  44   2.0000      -0.535773       -14.5791
  45   2.0000      -0.534232       -14.5372
  46   2.0000      -0.520060       -14.1515
  47   2.0000      -0.512849       -13.9553
  48   2.0000      -0.509640       -13.8680
  49   2.0000      -0.502814       -13.6823
  50   2.0000      -0.497201       -13.5295
  51   2.0000      -0.488028       -13.2799
  52   2.0000      -0.470679       -12.8078
  53   2.0000      -0.466191       -12.6857
  54   2.0000      -0.457789       -12.4571
  55   2.0000      -0.452113       -12.3026
  56   2.0000      -0.446719       -12.1558
  57   2.0000      -0.438372       -11.9287
  58   2.0000      -0.434845       -11.8327
  59   2.0000      -0.422982       -11.5099
  60   2.0000      -0.414976       -11.2921
  61   2.0000      -0.410763       -11.1774
  62   2.0000      -0.406140       -11.0516
  63   2.0000      -0.350756        -9.5446
  64   2.0000      -0.329002        -8.9526
  65   2.0000      -0.323019        -8.7898
  66   2.0000      -0.292167        -7.9503
  67   0.0000       0.030024         0.8170
  68   0.0000       0.080761         2.1976
  69   0.0000       0.116032         3.1574
  70   0.0000       0.118222         3.2170
  71   0.0000       0.126727         3.4484

MULLIKEN ATOMIC CHARGES
-----------------------
   0 S :    0.116846
   1 C :   -0.119177
   2 C :   -0.048042
   3 C :    0.025596
   4 C :   -0.135518
   5 H :   -0.012479
   6 C :   -0.001187
   7 H :    0.044764
   8 H :    0.018453
   9 C :   -0.007859
  10 H :    0.032438
  11 H :    0.027051
  12 C :   -0.080958
  13 H :    0.044420
  14 H :    0.025172
  15 H :    0.036988
  16 S :    0.092131
  17 C :   -0.093551
  18 C :   -0.038932
  19 C :   -0.062472
  20 C :   -0.135917
  21 H :    0.021003
  22 C :    0.037954
  23 H :    0.044067
  24 H :    0.015181
  25 C :   -0.043617
  26 H :    0.023393
  27 H :    0.020070
  28 C :   -0.070621
  29 H :    0.045895
  30 H :    0.038741
  31 H :    0.039256
  32 H :    0.040835
  33 H :    0.060076
Sum of atomic charges:    0.0000000

LOEWDIN ATOMIC CHARGES
----------------------
   0 S :    0.423869
   1 C :   -0.199228
   2 C :   -0.061545
   3 C :   -0.062370
   4 C :   -0.198107
   5 H :    0.028086
   6 C :   -0.042427
   7 H :    0.042728
   8 H :    0.023729
   9 C :   -0.041559
  10 H :    0.032454
  11 H :    0.023828
  12 C :   -0.075810
  13 H :    0.035360
  14 H :    0.021109
  15 H :    0.029363
  16 S :    0.410787
  17 C :   -0.193352
  18 C :   -0.081103
  19 C :   -0.064377
  20 C :   -0.200371
  21 H :    0.032555
  22 C :   -0.033727
  23 H :    0.039812
  24 H :    0.024994
  25 C :   -0.032614
  26 H :    0.014855
  27 H :    0.021933
  28 C :   -0.073765
  29 H :    0.034072
  30 H :    0.029298
  31 H :    0.027485
  32 H :    0.028786
  33 H :    0.035254

  Mayer bond orders larger than 0.100000
B(  0-S ,  1-C ) :   1.1296 B(  0-S ,  4-C ) :   1.1586 B(  1-C ,  2-C ) :   1.6356
B(  1-C , 32-H ) :   0.9761 B(  2-C ,  3-C ) :   1.2014 B(  2-C ,  6-C ) :   0.9998
B(  3-C ,  4-C ) :   1.5852 B(  3-C ,  5-H ) :   0.9994 B(  4-C , 20-C ) :   1.0350
B(  6-C ,  7-H ) :   0.9391 B(  6-C ,  8-H ) :   0.9409 B(  6-C ,  9-C ) :   1.0984
B(  9-C , 10-H ) :   0.9516 B(  9-C , 11-H ) :   0.9483 B(  9-C , 12-C ) :   1.0532
B( 12-C , 13-H ) :   0.9769 B( 12-C , 14-H ) :   0.9744 B( 12-C , 15-H ) :   0.9797
B( 16-S , 17-C ) :   1.1726 B( 16-S , 20-C ) :   1.1346 B( 17-C , 18-C ) :   1.5976
B( 17-C , 33-H ) :   0.9675 B( 18-C , 19-C ) :   1.2519 B( 18-C , 21-H ) :   0.9842
B( 19-C , 20-C ) :   1.5591 B( 19-C , 22-C ) :   1.0872 B( 22-C , 23-H ) :   0.9256
B( 22-C , 24-H ) :   0.9339 B( 22-C , 25-C ) :   1.0230 B( 25-C , 26-H ) :   0.9655
B( 25-C , 27-H ) :   0.9446 B( 25-C , 28-C ) :   1.0828 B( 28-C , 29-H ) :   0.9718
B( 28-C , 30-H ) :   0.9688 B( 28-C , 31-H ) :   0.9773

Dispersion correction           -0.015028255
FINAL SINGLE POINT ENERGY     -1339.854905623304

DIPOLE MOMENT
-------------
                                X             Y             Z
Electronic contribution:    -13.78202      25.74556     -10.74153
Nuclear contribution   :     14.09913     -26.26702      10.88398
                        -----------------------------------------
Total Dipole Moment    :      0.31710      -0.52146       0.14244
                        -----------------------------------------
Magnitude (a.u.)       :      0.62671
Magnitude (Debye)      :      1.59296

Rotational constants in cm-1:     0.016751     0.010794     0.006934
Rotational constants in MHz :   502.183754   323.581448   207.889890

                             ****ORCA TERMINATED NORMALLY****
TOTAL RUN TIME: 0 days 0 hours 0 minutes 31 seconds 365 msec
