                         Program Version 4.2.1 -  RELEASE  -
|  1> ! wB97X-D3 SP def2-SVP
|  2> %pal
|  3> nprocs 16
|  4> end
|  5>
|  6> * xyz 0 1
|  7> S 	 -50.2353 	 34.8778 	 94.662
|  8> C 	 -51.8053 	 34.2123 	 94.5272
|  9> C 	 -52.7822 	 35.0562 	 95.0156
| 10> C 	 -52.1996 	 36.2318 	 95.594
| 11> C 	 -50.8298 	 36.1979 	 95.589
| 12> H 	 -52.7256 	 36.9373 	 96.1028
| 13> C 	 -54.2713 	 34.865 	 95.0705
| 14> H 	 -54.5981 	 34.3227 	 94.1484
| 15> H 	 -54.6278 	 35.8894 	 95.1656
| 16> C 	 -54.654 	 33.9621 	 96.3748
| 17> H 	 -55.7119 	 33.6842 	 96.4301
| 18> H 	 -54.1223 	 33.0231 	 96.2616
| 19> C 	 -54.245 	 34.54 	 97.742
| 20> H 	 -53.2404 	 34.3599 	 98.0675
| 21> H 	 -54.5446 	 35.6338 	 97.8425
| 22> H 	 -54.9613 	 33.9723 	 98.3518
| 23> S 	 -48.8044 	 38.0011 	 95.2325
| 24> C 	 -48.2273 	 38.9045 	 96.5739
| 25> C 	 -49.012 	 38.6751 	 97.7274
| 26> C 	 -49.9811 	 37.6471 	 97.588
| 27> C 	 -49.9683 	 37.1733 	 96.2468
| 28> H 	 -48.7539 	 39.2583 	 98.6323
| 29> C 	 -50.8684 	 37.2434 	 98.8017
| 30> H 	 -50.2373 	 36.6934 	 99.5237
| 31> H 	 -51.7128 	 36.6522 	 98.4552
| 32> C 	 -51.3521 	 38.443 	 99.6079
| 33> H 	 -50.4699 	 38.9681 	 100.016
| 34> H 	 -51.7927 	 38.0156 	 100.479
| 35> C 	 -52.3369 	 39.4857 	 98.8993
| 36> H 	 -51.8138 	 40.0284 	 98.0817
| 37> H 	 -52.5685 	 40.3036 	 99.5422
| 38> H 	 -53.2257 	 39.0907 	 98.4012
| 39> H 	 -51.8723 	 33.2609 	 94.0659
| 40> H 	 -47.4093 	 39.591 	 96.4276
| 41> *
| 42>
| 43>                          ****END OF INPUT****

CARTESIAN COORDINATES (ANGSTROEM)
---------------------------------
  S    -50.235300   34.877800   94.662000
  C    -51.805300   34.212300   94.527200
  C    -52.782200   35.056200   95.015600
  C    -52.199600   36.231800   95.594000
  C    -50.829800   36.197900   95.589000
  H    -52.725600   36.937300   96.102800
  C    -54.271300   34.865000   95.070500
  H    -54.598100   34.322700   94.148400
  H    -54.627800   35.889400   95.165600
  C    -54.654000   33.962100   96.374800
  H    -55.711900   33.684200   96.430100
  H    -54.122300   33.023100   96.261600
  C    -54.245000   34.540000   97.742000
  H    -53.240400   34.359900   98.067500
  H    -54.544600   35.633800   97.842500
  H    -54.961300   33.972300   98.351800
  S    -48.804400   38.001100   95.232500
  C    -48.227300   38.904500   96.573900
  C    -49.012000   38.675100   97.727400
  C    -49.981100   37.647100   97.588000
  C    -49.968300   37.173300   96.246800
  H    -48.753900   39.258300   98.632300
  C    -50.868400   37.243400   98.801700
  H    -50.237300   36.693400   99.523700
  H    -51.712800   36.652200   98.455200
  C    -51.352100   38.443000   99.607900
  H    -50.469900   38.968100  100.016000
  H    -51.792700   38.015600  100.479000
  C    -52.336900   39.485700   98.899300
  H    -51.813800   40.028400   98.081700
  H    -52.568500   40.303600   99.542200
  H    -53.225700   39.090700   98.401200
  H    -51.872300   33.260900   94.065900
  H    -47.409300   39.591000   96.427600

 Total Charge           Charge          ....    0
 Multiplicity           Mult            ....    1
 Number of Electrons    NEL             ....  134
 Basis Dimension        Dim             ....  322

ORBITAL ENERGIES
----------------

  NO   OCC          E(Eh)            E(eV)
   0   2.0000     -88.965250     -2420.8675
   1   2.0000     -88.961934     -2420.7773
   2   2.0000     -10.326137      -280.9885
   3   2.0000     -10.319979      -280.8209
   4   2.0000     -10.315129      -280.6889
   5   2.0000     -10.307928      -280.4930
   6   2.0000     -10.305891      -280.4376
   7   2.0000     -10.298482      -280.2359
   8   2.0000     -10.298377      -280.2331
   9   2.0000     -10.296999      -280.1956
  10   2.0000     -10.296690      -280.1872
  11   2.0000     -10.293430      -280.0985
  12   2.0000     -10.291842      -280.0553
  13   2.0000     -10.282750      -279.8079
  14   2.0000     -10.281479      -279.7733
  15   2.0000     -10.281065      -279.7620
  16   2.0000      -8.080550      -219.8830
  17   2.0000      -8.078294      -219.8216
  18   2.0000      -6.038774      -164.3234
  19   2.0000      -6.036579      -164.2637
  20   2.0000      -6.034912      -164.2183
  21   2.0000      -6.032588      -164.1551
  22   2.0000      -6.031672      -164.1301
  23   2.0000      -6.029195      -164.0627
  24   2.0000      -1.009032       -27.4572
  25   2.0000      -0.984560       -26.7912
  26   2.0000      -0.906891       -24.6778
  27   2.0000      -0.903563       -24.5872
  28   2.0000      -0.865208       -23.5435
  29   2.0000      -0.851926       -23.1821
  30   2.0000      -0.841678       -22.9032
  31   2.0000      -0.808171       -21.9915
  32   2.0000      -0.787279       -21.4229
  33   2.0000      -0.770159       -20.9571
  34   2.0000      -0.705935       -19.2095
  35   2.0000      -0.700527       -19.0623
  36   2.0000      -0.689452       -18.7609
  37   2.0000      -0.660493       -17.9729
  38   2.0000      -0.645608       -17.5679
  39   2.0000      -0.613773       -16.7016
  40   2.0000      -0.596365       -16.2279
  41   2.0000      -0.566942       -15.4273
  42   2.0000      -0.552680       -15.0392
  43   2.0000      -0.544571       -14.8185
  44   2.0000      -0.540152       -14.6983
  45   2.0000      -0.527087       -14.3428
  46   2.0000      -0.519925       -14.1479
  47   2.0000      -0.516345       -14.0505
  48   2.0000      -0.498906       -13.5759
  49   2.0000      -0.497196       -13.5294
  50   2.0000      -0.489800       -13.3281
  51   2.0000      -0.472717       -12.8633
  52   2.0000      -0.472436       -12.8556
  53   2.0000      -0.468960       -12.7611
  54   2.0000      -0.459268       -12.4973
  55   2.0000      -0.445319       -12.1177
  56   2.0000      -0.440235       -11.9794
  57   2.0000      -0.437654       -11.9092
  58   2.0000      -0.433133       -11.7861
  59   2.0000      -0.431236       -11.7345
  60   2.0000      -0.422202       -11.4887
  61   2.0000      -0.418823       -11.3967
  62   2.0000      -0.414391       -11.2761
  63   2.0000      -0.340639        -9.2693
  64   2.0000      -0.332022        -9.0348
  65   2.0000      -0.326374        -8.8811
  66   2.0000      -0.288281        -7.8445
  67   0.0000       0.035013         0.9527
  68   0.0000       0.070689         1.9236
  69   0.0000       0.112683         3.0663
  70   0.0000       0.124651         3.3919
  71   0.0000       0.127205         3.4614

MULLIKEN ATOMIC CHARGES
-----------------------
   0 S :    0.120572
   1 C :   -0.138596
   2 C :   -0.074825
   3 C :    0.073631
   4 C :   -0.162043
   5 H :   -0.038890
   6 C :    0.067170
   7 H :    0.041121
   8 H :    0.031175
   9 C :   -0.081950
  10 H :    0.036164
  11 H :    0.025355
  12 C :   -0.076690
  13 H :    0.058897
  14 H :    0.037753
  15 H :    0.032252
  16 S :    0.116940
  17 C :   -0.104332
  18 C :   -0.067071
  19 C :   -0.016024
  20 C :   -0.182790
  21 H :    0.031992
  22 C :    0.099089
  23 H :    0.044069
  24 H :    0.024558
  25 C :   -0.089233
  26 H :    0.026748
  27 H :    0.022772
  28 C :   -0.051378
  29 H :    0.034075
  30 H :    0.030231
  31 H :    0.037266
  32 H :    0.034790
  33 H :    0.057202
Sum of atomic charges:    0.0000000

LOEWDIN ATOMIC CHARGES
----------------------
   0 S :    0.432272
   1 C :   -0.205757
   2 C :   -0.062415
   3 C :   -0.051905
   4 C :   -0.206630
   5 H :    0.011148
   6 C :   -0.030917
   7 H :    0.036565
   8 H :    0.029564
   9 C :   -0.036908
  10 H :    0.022029
  11 H :    0.024051
  12 C :   -0.072732
  13 H :    0.023517
  14 H :    0.028645
  15 H :    0.033080
  16 S :    0.424344
  17 C :   -0.198831
  18 C :   -0.077571
  19 C :   -0.055004
  20 C :   -0.202586
  21 H :    0.034516
  22 C :   -0.023941
  23 H :    0.041528
  24 H :    0.027937
  25 C :   -0.038557
  26 H :    0.024539
  27 H :    0.020904
  28 C :   -0.073048
  29 H :    0.031985
  30 H :    0.023947
  31 H :    0.024653
  32 H :    0.017224
  33 H :    0.024353

  Mayer bond orders larger than 0.100000
B(  0-S ,  1-C ) :   1.1557 B(  0-S ,  4-C ) :   1.1737 B(  1-C ,  2-C ) :   1.5755
B(  1-C , 32-H ) :   0.9823 B(  2-C ,  3-C ) :   1.2481 B(  2-C ,  6-C ) :   1.0185
B(  3-C ,  4-C ) :   1.5638 B(  3-C ,  5-H ) :   1.0088 B(  4-C , 20-C ) :   1.0205
B(  6-C ,  7-H ) :   0.9427 B(  6-C ,  8-H ) :   0.9460 B(  6-C ,  9-C ) :   1.0521
B(  9-C , 10-H ) :   0.9700 B(  9-C , 11-H ) :   0.9549 B(  9-C , 12-C ) :   1.0670
B( 12-C , 13-H ) :   0.9745 B( 12-C , 14-H ) :   0.9753 B( 12-C , 15-H ) :   0.9736
B( 16-S , 17-C ) :   1.1761 B( 16-S , 20-C ) :   1.1762 B( 17-C , 18-C ) :   1.5698
B( 17-C , 20-C ) :   0.1105 B( 17-C , 33-H ) :   0.9726 B( 18-C , 19-C ) :   1.2579
B( 18-C , 21-H ) :   0.9847 B( 19-C , 20-C ) :   1.5607 B( 19-C , 22-C ) :   1.0282
B( 22-C , 23-H ) :   0.9310 B( 22-C , 24-H ) :   0.9367 B( 22-C , 25-C ) :   1.0877
B( 25-C , 26-H ) :   0.9480 B( 25-C , 27-H ) :   0.9549 B( 25-C , 28-C ) :   1.0606
B( 28-C , 29-H ) :   0.9728 B( 28-C , 30-H ) :   0.9752 B( 28-C , 31-H ) :   0.9784

Dispersion correction           -0.015651075
FINAL SINGLE POINT ENERGY     -1339.876817236513

DIPOLE MOMENT
-------------
                                X             Y             Z
Electronic contribution:     22.10547      -1.27450     -19.29198
Nuclear contribution   :    -22.54505       1.27975      19.79710
                        -----------------------------------------
Total Dipole Moment    :     -0.43958       0.00525       0.50512
                        -----------------------------------------
Magnitude (a.u.)       :      0.66963
Magnitude (Debye)      :      1.70207

Rotational constants in cm-1:     0.017811     0.010559     0.007259
Rotational constants in MHz :   533.966343   316.559298   217.628371

                             ****ORCA TERMINATED NORMALLY****
TOTAL RUN TIME: 0 days 0 hours 0 minutes 31 seconds 665 msec
