                         Program Version 4.2.1 -  RELEASE  -
|  1> ! wB97X-D3 SP def2-SVP
|  2> %pal
|  3> nprocs 16
|  4> end
|  5>
|  6> * xyz 0 1
|  7> S 	 -54.4885 	 39.9398 	 109.721
|  8> C 	 -54.0251 	 41.5429 	 109.174
|  9> C 	 -55.0747 	 42.4442 	 109.402
| 10> C 	 -56.2324 	 41.8433 	 109.979
| 11> C 	 -56.0729 	 40.515 	 110.262
| 12> H 	 -57.1655 	 42.2907 	 110.207
| 13> C 	 -54.98 	 43.9296 	 108.906
| 14> H 	 -54.9801 	 43.781 	 107.843
| 15> H 	 -53.9159 	 44.2839 	 108.954
| 16> C 	 -55.9905 	 45.0656 	 109.294
| 17> H 	 -55.6175 	 45.9639 	 108.976
| 18> H 	 -57.0245 	 44.9233 	 108.78
| 19> C 	 -56.1959 	 45.2487 	 110.761
| 20> H 	 -56.813 	 44.5186 	 111.277
| 21> H 	 -55.2455 	 45.3031 	 111.342
| 22> H 	 -56.7108 	 46.2232 	 110.962
| 23> S 	 -56.5285 	 38.3612 	 111.865
| 24> C 	 -58.1696 	 37.7488 	 112.153
| 25> C 	 -59.0567 	 38.5894 	 111.536
| 26> C 	 -58.527 	 39.7198 	 110.896
| 27> C 	 -57.1 	 39.6758 	 110.884
| 28> H 	 -60.1199 	 38.2708 	 111.685
| 29> C 	 -59.4112 	 40.8251 	 110.33
| 30> H 	 -59.0666 	 41.7968 	 110.682
| 31> H 	 -60.4407 	 40.7467 	 110.8
| 32> C 	 -59.5839 	 41.0078 	 108.823
| 33> H 	 -60.1287 	 40.1108 	 108.408
| 34> H 	 -58.6264 	 41.0245 	 108.314
| 35> C 	 -60.335 	 42.2603 	 108.39
| 36> H 	 -61.3753 	 42.2183 	 108.773
| 37> H 	 -60.4491 	 42.265 	 107.281
| 38> H 	 -59.8496 	 43.1511 	 108.683
| 39> H 	 -53.0706 	 41.8092 	 108.766
| 40> H 	 -58.4189 	 36.8239 	 112.673
| 41> *
| 42>
| 43>                          ****END OF INPUT****

CARTESIAN COORDINATES (ANGSTROEM)
---------------------------------
  S    -54.488500   39.939800  109.721000
  C    -54.025100   41.542900  109.174000
  C    -55.074700   42.444200  109.402000
  C    -56.232400   41.843300  109.979000
  C    -56.072900   40.515000  110.262000
  H    -57.165500   42.290700  110.207000
  C    -54.980000   43.929600  108.906000
  H    -54.980100   43.781000  107.843000
  H    -53.915900   44.283900  108.954000
  C    -55.990500   45.065600  109.294000
  H    -55.617500   45.963900  108.976000
  H    -57.024500   44.923300  108.780000
  C    -56.195900   45.248700  110.761000
  H    -56.813000   44.518600  111.277000
  H    -55.245500   45.303100  111.342000
  H    -56.710800   46.223200  110.962000
  S    -56.528500   38.361200  111.865000
  C    -58.169600   37.748800  112.153000
  C    -59.056700   38.589400  111.536000
  C    -58.527000   39.719800  110.896000
  C    -57.100000   39.675800  110.884000
  H    -60.119900   38.270800  111.685000
  C    -59.411200   40.825100  110.330000
  H    -59.066600   41.796800  110.682000
  H    -60.440700   40.746700  110.800000
  C    -59.583900   41.007800  108.823000
  H    -60.128700   40.110800  108.408000
  H    -58.626400   41.024500  108.314000
  C    -60.335000   42.260300  108.390000
  H    -61.375300   42.218300  108.773000
  H    -60.449100   42.265000  107.281000
  H    -59.849600   43.151100  108.683000
  H    -53.070600   41.809200  108.766000
  H    -58.418900   36.823900  112.673000

 Total Charge           Charge          ....    0
 Multiplicity           Mult            ....    1
 Number of Electrons    NEL             ....  134
 Basis Dimension        Dim             ....  322

ORBITAL ENERGIES
----------------

  NO   OCC          E(Eh)            E(eV)
   0   2.0000     -88.969739     -2420.9897
   1   2.0000     -88.966115     -2420.8911
   2   2.0000     -10.334144      -281.2064
   3   2.0000     -10.332318      -281.1567
   4   2.0000     -10.316612      -280.7293
   5   2.0000     -10.315437      -280.6973
   6   2.0000     -10.310692      -280.5682
   7   2.0000     -10.309673      -280.5405
   8   2.0000     -10.299975      -280.2766
   9   2.0000     -10.299061      -280.2517
  10   2.0000     -10.295622      -280.1581
  11   2.0000     -10.294298      -280.1221
  12   2.0000     -10.291172      -280.0370
  13   2.0000     -10.286441      -279.9083
  14   2.0000     -10.280340      -279.7423
  15   2.0000     -10.279548      -279.7207
  16   2.0000      -8.083569      -219.9651
  17   2.0000      -8.080605      -219.8844
  18   2.0000      -6.042185      -164.4162
  19   2.0000      -6.039037      -164.3306
  20   2.0000      -6.038158      -164.3066
  21   2.0000      -6.035017      -164.2212
  22   2.0000      -6.034312      -164.2020
  23   2.0000      -6.031592      -164.1280
  24   2.0000      -1.006099       -27.3774
  25   2.0000      -0.982690       -26.7403
  26   2.0000      -0.908713       -24.7273
  27   2.0000      -0.906412       -24.6647
  28   2.0000      -0.873003       -23.7556
  29   2.0000      -0.854065       -23.2403
  30   2.0000      -0.845986       -23.0204
  31   2.0000      -0.819999       -22.3133
  32   2.0000      -0.783050       -21.3079
  33   2.0000      -0.771460       -20.9925
  34   2.0000      -0.709821       -19.3152
  35   2.0000      -0.697816       -18.9885
  36   2.0000      -0.690207       -18.7815
  37   2.0000      -0.659995       -17.9594
  38   2.0000      -0.639874       -17.4119
  39   2.0000      -0.624508       -16.9937
  40   2.0000      -0.596523       -16.2322
  41   2.0000      -0.566671       -15.4199
  42   2.0000      -0.562034       -15.2937
  43   2.0000      -0.548573       -14.9274
  44   2.0000      -0.544272       -14.8104
  45   2.0000      -0.523528       -14.2459
  46   2.0000      -0.516073       -14.0431
  47   2.0000      -0.512539       -13.9469
  48   2.0000      -0.505049       -13.7431
  49   2.0000      -0.498918       -13.5763
  50   2.0000      -0.494845       -13.4654
  51   2.0000      -0.486074       -13.2267
  52   2.0000      -0.474745       -12.9185
  53   2.0000      -0.465838       -12.6761
  54   2.0000      -0.461540       -12.5591
  55   2.0000      -0.444059       -12.0835
  56   2.0000      -0.441542       -12.0150
  57   2.0000      -0.434364       -11.8196
  58   2.0000      -0.429921       -11.6987
  59   2.0000      -0.424902       -11.5622
  60   2.0000      -0.421785       -11.4774
  61   2.0000      -0.418819       -11.3966
  62   2.0000      -0.412277       -11.2186
  63   2.0000      -0.357480        -9.7275
  64   2.0000      -0.335143        -9.1197
  65   2.0000      -0.328079        -8.9275
  66   2.0000      -0.282569        -7.6891
  67   0.0000       0.017821         0.4849
  68   0.0000       0.079939         2.1753
  69   0.0000       0.109011         2.9663
  70   0.0000       0.113346         3.0843
  71   0.0000       0.128649         3.5007

MULLIKEN ATOMIC CHARGES
-----------------------
   0 S :    0.118065
   1 C :   -0.130356
   2 C :   -0.044875
   3 C :    0.009977
   4 C :   -0.095458
   5 H :   -0.028423
   6 C :    0.020005
   7 H :    0.033403
   8 H :    0.024750
   9 C :   -0.009255
  10 H :    0.010779
  11 H :    0.041419
  12 C :   -0.082266
  13 H :    0.030577
  14 H :    0.037065
  15 H :    0.032080
  16 S :    0.096629
  17 C :   -0.110435
  18 C :   -0.057922
  19 C :    0.012363
  20 C :   -0.159483
  21 H :    0.034941
  22 C :    0.028343
  23 H :    0.020617
  24 H :    0.025728
  25 C :   -0.082638
  26 H :    0.031753
  27 H :    0.035696
  28 C :   -0.045657
  29 H :    0.031285
  30 H :    0.041135
  31 H :    0.023946
  32 H :    0.043115
  33 H :    0.063097
Sum of atomic charges:   -0.0000000

LOEWDIN ATOMIC CHARGES
----------------------
   0 S :    0.398400
   1 C :   -0.200436
   2 C :   -0.050426
   3 C :   -0.066134
   4 C :   -0.183551
   5 H :    0.022932
   6 C :   -0.043902
   7 H :    0.034748
   8 H :    0.036261
   9 C :   -0.040132
  10 H :    0.018553
  11 H :    0.035092
  12 C :   -0.074422
  13 H :    0.019737
  14 H :    0.030794
  15 H :    0.030589
  16 S :    0.406113
  17 C :   -0.189454
  18 C :   -0.076595
  19 C :   -0.062900
  20 C :   -0.188627
  21 H :    0.042307
  22 C :   -0.038692
  23 H :    0.023596
  24 H :    0.037622
  25 C :   -0.047929
  26 H :    0.028909
  27 H :    0.023625
  28 C :   -0.063389
  29 H :    0.027149
  30 H :    0.034540
  31 H :    0.014969
  32 H :    0.026258
  33 H :    0.034395

  Mayer bond orders larger than 0.100000
B(  0-S ,  1-C ) :   1.1301 B(  0-S ,  4-C ) :   1.1451 B(  1-C ,  2-C ) :   1.5959
B(  1-C , 32-H ) :   0.9760 B(  2-C ,  3-C ) :   1.2422 B(  2-C ,  6-C ) :   0.9928
B(  3-C ,  4-C ) :   1.5595 B(  3-C ,  5-H ) :   1.0019 B(  4-C , 20-C ) :   1.0760
B(  6-C ,  7-H ) :   0.9404 B(  6-C ,  8-H ) :   0.9410 B(  6-C ,  9-C ) :   1.0751
B(  9-C , 10-H ) :   0.9464 B(  9-C , 11-H ) :   0.9496 B(  9-C , 12-C ) :   1.0854
B( 12-C , 13-H ) :   0.9755 B( 12-C , 14-H ) :   0.9718 B( 12-C , 15-H ) :   0.9726
B( 16-S , 17-C ) :   1.1421 B( 16-S , 20-C ) :   1.1694 B( 17-C , 18-C ) :   1.6038
B( 17-C , 20-C ) :   0.1101 B( 17-C , 33-H ) :   0.9679 B( 18-C , 19-C ) :   1.2746
B( 18-C , 21-H ) :   0.9811 B( 19-C , 20-C ) :   1.5215 B( 19-C , 22-C ) :   1.0333
B( 22-C , 23-H ) :   0.9357 B( 22-C , 24-H ) :   0.9301 B( 22-C , 25-C ) :   1.0640
B( 25-C , 26-H ) :   0.9507 B( 25-C , 27-H ) :   0.9527 B( 25-C , 28-C ) :   1.0893
B( 28-C , 29-H ) :   0.9733 B( 28-C , 30-H ) :   0.9721 B( 28-C , 31-H ) :   0.9733

Dispersion correction           -0.014666336
FINAL SINGLE POINT ENERGY     -1339.876576575122

DIPOLE MOMENT
-------------
                                X             Y             Z
Electronic contribution:     15.22336     -26.26829       8.72624
Nuclear contribution   :    -15.62157      26.83879      -8.96998
                        -----------------------------------------
Total Dipole Moment    :     -0.39820       0.57050      -0.24374
                        -----------------------------------------
Magnitude (a.u.)       :      0.73719
Magnitude (Debye)      :      1.87378

Rotational constants in cm-1:     0.016554     0.010179     0.007280
Rotational constants in MHz :   496.290095   305.153984   218.252907

                             ****ORCA TERMINATED NORMALLY****
TOTAL RUN TIME: 0 days 0 hours 0 minutes 29 seconds 340 msec
