                         Program Version 4.2.1 -  RELEASE  -
|  1> ! wB97X-D3 SP def2-SVP
|  2> %pal
|  3> nprocs 16
|  4> end
|  5>
|  6> * xyz 0 1
|  7> S 	 -66.0066 	 51.3483 	 125.202
|  8> C 	 -67.2876 	 52.2984 	 125.947
|  9> C 	 -66.7424 	 53.4503 	 126.545
| 10> C 	 -65.3216 	 53.5942 	 126.29
| 11> C 	 -64.7858 	 52.4865 	 125.599
| 12> H 	 -64.6158 	 54.3155 	 126.579
| 13> C 	 -67.4768 	 54.4709 	 127.385
| 14> H 	 -68.4614 	 54.5832 	 126.872
| 15> H 	 -67.0361 	 55.4412 	 127.167
| 16> C 	 -67.477 	 54.1546 	 128.9
| 17> H 	 -66.521 	 53.9517 	 129.261
| 18> H 	 -67.8498 	 54.9888 	 129.532
| 19> C 	 -68.3797 	 52.9319 	 129.209
| 20> H 	 -69.3291 	 53.007 	 128.666
| 21> H 	 -67.8534 	 52.1086 	 128.863
| 22> H 	 -68.6377 	 52.7108 	 130.312
| 23> S 	 -62.911 	 50.5153 	 125.612
| 24> C 	 -61.2012 	 50.7998 	 125.398
| 25> C 	 -61.0483 	 52.0879 	 124.975
| 26> C 	 -62.2566 	 52.8884 	 124.97
| 27> C 	 -63.385 	 52.1342 	 125.349
| 28> H 	 -60.0222 	 52.3965 	 124.659
| 29> C 	 -62.2546 	 54.3352 	 124.532
| 30> H 	 -61.3296 	 54.8036 	 124.89
| 31> H 	 -63.0998 	 54.8471 	 124.957
| 32> C 	 -62.2942 	 54.5786 	 123.072
| 33> H 	 -63.0641 	 54.0846 	 122.437
| 34> H 	 -61.3109 	 54.2341 	 122.742
| 35> C 	 -62.2128 	 56.0877 	 122.799
| 36> H 	 -62.3264 	 56.3229 	 121.781
| 37> H 	 -61.255 	 56.4355 	 123.071
| 38> H 	 -62.984 	 56.637 	 123.313
| 39> H 	 -68.3447 	 52.0743 	 126.124
| 40> H 	 -60.47 	 49.9999 	 125.445
| 41> *
| 42>
| 43>                          ****END OF INPUT****

CARTESIAN COORDINATES (ANGSTROEM)
---------------------------------
  S    -66.006600   51.348300  125.202000
  C    -67.287600   52.298400  125.947000
  C    -66.742400   53.450300  126.545000
  C    -65.321600   53.594200  126.290000
  C    -64.785800   52.486500  125.599000
  H    -64.615800   54.315500  126.579000
  C    -67.476800   54.470900  127.385000
  H    -68.461400   54.583200  126.872000
  H    -67.036100   55.441200  127.167000
  C    -67.477000   54.154600  128.900000
  H    -66.521000   53.951700  129.261000
  H    -67.849800   54.988800  129.532000
  C    -68.379700   52.931900  129.209000
  H    -69.329100   53.007000  128.666000
  H    -67.853400   52.108600  128.863000
  H    -68.637700   52.710800  130.312000
  S    -62.911000   50.515300  125.612000
  C    -61.201200   50.799800  125.398000
  C    -61.048300   52.087900  124.975000
  C    -62.256600   52.888400  124.970000
  C    -63.385000   52.134200  125.349000
  H    -60.022200   52.396500  124.659000
  C    -62.254600   54.335200  124.532000
  H    -61.329600   54.803600  124.890000
  H    -63.099800   54.847100  124.957000
  C    -62.294200   54.578600  123.072000
  H    -63.064100   54.084600  122.437000
  H    -61.310900   54.234100  122.742000
  C    -62.212800   56.087700  122.799000
  H    -62.326400   56.322900  121.781000
  H    -61.255000   56.435500  123.071000
  H    -62.984000   56.637000  123.313000
  H    -68.344700   52.074300  126.124000
  H    -60.470000   49.999900  125.445000

 Total Charge           Charge          ....    0
 Multiplicity           Mult            ....    1
 Number of Electrons    NEL             ....  134
 Basis Dimension        Dim             ....  322

ORBITAL ENERGIES
----------------

  NO   OCC          E(Eh)            E(eV)
   0   2.0000     -88.970316     -2421.0054
   1   2.0000     -88.962198     -2420.7845
   2   2.0000     -10.333459      -281.1877
   3   2.0000     -10.330074      -281.0956
   4   2.0000     -10.318302      -280.7753
   5   2.0000     -10.317928      -280.7651
   6   2.0000     -10.307406      -280.4788
   7   2.0000     -10.307137      -280.4715
   8   2.0000     -10.299904      -280.2746
   9   2.0000     -10.296637      -280.1857
  10   2.0000     -10.295302      -280.1494
  11   2.0000     -10.287870      -279.9472
  12   2.0000     -10.287688      -279.9422
  13   2.0000     -10.282019      -279.7880
  14   2.0000     -10.275818      -279.6192
  15   2.0000     -10.266934      -279.3775
  16   2.0000      -8.085058      -220.0056
  17   2.0000      -8.078101      -219.8163
  18   2.0000      -6.043677      -164.4568
  19   2.0000      -6.039379      -164.3399
  20   2.0000      -6.036626      -164.2649
  21   2.0000      -6.035878      -164.2446
  22   2.0000      -6.032286      -164.1468
  23   2.0000      -6.028905      -164.0548
  24   2.0000      -1.011169       -27.5153
  25   2.0000      -0.985149       -26.8073
  26   2.0000      -0.919957       -25.0333
  27   2.0000      -0.912054       -24.8182
  28   2.0000      -0.869503       -23.6604
  29   2.0000      -0.851865       -23.1804
  30   2.0000      -0.843355       -22.9489
  31   2.0000      -0.815828       -22.1998
  32   2.0000      -0.781777       -21.2732
  33   2.0000      -0.774928       -21.0869
  34   2.0000      -0.710407       -19.3311
  35   2.0000      -0.698974       -19.0201
  36   2.0000      -0.694083       -18.8870
  37   2.0000      -0.661563       -18.0020
  38   2.0000      -0.640663       -17.4333
  39   2.0000      -0.617965       -16.8157
  40   2.0000      -0.600243       -16.3334
  41   2.0000      -0.576326       -15.6826
  42   2.0000      -0.570343       -15.5198
  43   2.0000      -0.545384       -14.8406
  44   2.0000      -0.542436       -14.7604
  45   2.0000      -0.525248       -14.2927
  46   2.0000      -0.520485       -14.1631
  47   2.0000      -0.515832       -14.0365
  48   2.0000      -0.507047       -13.7974
  49   2.0000      -0.500002       -13.6058
  50   2.0000      -0.489423       -13.3179
  51   2.0000      -0.484844       -13.1933
  52   2.0000      -0.472274       -12.8512
  53   2.0000      -0.464004       -12.6262
  54   2.0000      -0.459740       -12.5102
  55   2.0000      -0.446800       -12.1581
  56   2.0000      -0.443976       -12.0812
  57   2.0000      -0.440340       -11.9823
  58   2.0000      -0.437238       -11.8978
  59   2.0000      -0.424305       -11.5459
  60   2.0000      -0.417007       -11.3473
  61   2.0000      -0.413950       -11.2642
  62   2.0000      -0.410276       -11.1642
  63   2.0000      -0.356421        -9.6987
  64   2.0000      -0.332211        -9.0399
  65   2.0000      -0.326380        -8.8812
  66   2.0000      -0.289207        -7.8697
  67   0.0000       0.025414         0.6916
  68   0.0000       0.076258         2.0751
  69   0.0000       0.110523         3.0075
  70   0.0000       0.117069         3.1856
  71   0.0000       0.133824         3.6415

MULLIKEN ATOMIC CHARGES
-----------------------
   0 S :    0.115319
   1 C :   -0.102768
   2 C :   -0.136877
   3 C :    0.053000
   4 C :   -0.153840
   5 H :   -0.001290
   6 C :    0.052757
   7 H :    0.032794
   8 H :    0.022387
   9 C :   -0.018882
  10 H :    0.019843
  11 H :    0.036239
  12 C :   -0.080717
  13 H :    0.026329
  14 H :    0.028991
  15 H :    0.046207
  16 S :    0.090557
  17 C :   -0.098227
  18 C :   -0.043378
  19 C :   -0.041615
  20 C :   -0.126808
  21 H :    0.033359
  22 C :    0.074808
  23 H :    0.020117
  24 H :    0.001916
  25 C :   -0.077765
  26 H :    0.047238
  27 H :    0.010937
  28 C :    0.001314
  29 H :    0.017768
  30 H :    0.012334
  31 H :    0.020549
  32 H :    0.053050
  33 H :    0.064356
Sum of atomic charges:    0.0000000

LOEWDIN ATOMIC CHARGES
----------------------
   0 S :    0.424454
   1 C :   -0.211786
   2 C :   -0.057311
   3 C :   -0.063434
   4 C :   -0.196870
   5 H :    0.021987
   6 C :   -0.035675
   7 H :    0.035981
   8 H :    0.031171
   9 C :   -0.030822
  10 H :    0.017963
  11 H :    0.027865
  12 C :   -0.068174
  13 H :    0.021338
  14 H :    0.013961
  15 H :    0.035404
  16 S :    0.420929
  17 C :   -0.188691
  18 C :   -0.076009
  19 C :   -0.059192
  20 C :   -0.212126
  21 H :    0.037627
  22 C :   -0.033398
  23 H :    0.034412
  24 H :    0.022417
  25 C :   -0.039229
  26 H :    0.030104
  27 H :    0.022148
  28 C :   -0.052983
  29 H :    0.020528
  30 H :    0.018432
  31 H :    0.020552
  32 H :    0.035410
  33 H :    0.033017

  Mayer bond orders larger than 0.100000
B(  0-S ,  1-C ) :   1.1293 B(  0-S ,  4-C ) :   1.1710 B(  1-C ,  2-C ) :   1.6060
B(  1-C , 32-H ) :   0.9646 B(  2-C ,  3-C ) :   1.2381 B(  2-C ,  6-C ) :   1.0182
B(  3-C ,  4-C ) :   1.5554 B(  3-C ,  5-H ) :   0.9947 B(  4-C , 20-C ) :   1.0369
B(  6-C ,  7-H ) :   0.9468 B(  6-C ,  8-H ) :   0.9408 B(  6-C ,  9-C ) :   1.0545
B(  9-C , 10-H ) :   0.9585 B(  9-C , 11-H ) :   0.9599 B(  9-C , 12-C ) :   1.0654
B( 12-C , 13-H ) :   0.9770 B( 12-C , 14-H ) :   0.9777 B( 12-C , 15-H ) :   0.9746
B( 16-S , 17-C ) :   1.1562 B( 16-S , 20-C ) :   1.1597 B( 17-C , 18-C ) :   1.5924
B( 17-C , 33-H ) :   0.9720 B( 18-C , 19-C ) :   1.2502 B( 18-C , 21-H ) :   0.9847
B( 19-C , 20-C ) :   1.5589 B( 19-C , 22-C ) :   1.0495 B( 22-C , 23-H ) :   0.9306
B( 22-C , 24-H ) :   0.9310 B( 22-C , 25-C ) :   1.0740 B( 25-C , 26-H ) :   0.9582
B( 25-C , 27-H ) :   0.9519 B( 25-C , 28-C ) :   1.0819 B( 28-C , 29-H ) :   0.9719
B( 28-C , 30-H ) :   0.9739 B( 28-C , 31-H ) :   0.9749

Dispersion correction           -0.013945428
FINAL SINGLE POINT ENERGY     -1339.874716581053

DIPOLE MOMENT
-------------
                                X             Y             Z
Electronic contribution:      4.15680     -21.54700      -3.79673
Nuclear contribution   :     -3.94344      22.05018       3.87867
                        -----------------------------------------
Total Dipole Moment    :      0.21335       0.50318       0.08193
                        -----------------------------------------
Magnitude (a.u.)       :      0.55265
Magnitude (Debye)      :      1.40472

Rotational constants in cm-1:     0.019354     0.008168     0.006662
Rotational constants in MHz :   580.232428   244.866839   199.722283

                             ****ORCA TERMINATED NORMALLY****
TOTAL RUN TIME: 0 days 0 hours 0 minutes 33 seconds 534 msec
