                         Program Version 4.2.1 -  RELEASE  -
|  1> ! wB97X-D3 SP def2-SVP
|  2> %pal
|  3> nprocs 16
|  4> end
|  5>
|  6> * xyz 0 1
|  7> S 	 -7.4968 	 44.6836 	 40.5773
|  8> C 	 -6.00733 	 44.6937 	 39.7155
|  9> C 	 -5.12594 	 43.8168 	 40.3551
| 10> C 	 -5.46629 	 43.3777 	 41.645
| 11> C 	 -6.75599 	 43.878 	 41.9255
| 12> H 	 -4.98398 	 42.6459 	 42.3047
| 13> C 	 -3.7854 	 43.3061 	 39.7503
| 14> H 	 -3.70034 	 43.7212 	 38.764
| 15> H 	 -3.83246 	 42.1993 	 39.5879
| 16> C 	 -2.53624 	 43.7244 	 40.5081
| 17> H 	 -2.49964 	 43.1563 	 41.4236
| 18> H 	 -1.74897 	 43.4009 	 39.8759
| 19> C 	 -2.35169 	 45.2637 	 40.8211
| 20> H 	 -3.09184 	 45.6762 	 41.4808
| 21> H 	 -1.47667 	 45.6074 	 41.4277
| 22> H 	 -2.42479 	 45.8481 	 39.9
| 23> S 	 -8.89718 	 42.7909 	 43.0485
| 24> C 	 -8.94016 	 42.6786 	 44.8206
| 25> C 	 -7.93669 	 43.3861 	 45.4409
| 26> C 	 -7.00118 	 43.9189 	 44.5005
| 27> C 	 -7.38791 	 43.6737 	 43.1904
| 28> H 	 -7.78821 	 43.3104 	 46.4777
| 29> C 	 -5.67759 	 44.5595 	 44.9407
| 30> H 	 -5.13294 	 44.8321 	 44.0443
| 31> H 	 -5.12024 	 43.7711 	 45.4684
| 32> C 	 -5.68271 	 45.7773 	 45.888
| 33> H 	 -6.05173 	 45.6006 	 46.9185
| 34> H 	 -6.42318 	 46.398 	 45.3997
| 35> C 	 -4.25894 	 46.4101 	 46.1041
| 36> H 	 -3.89379 	 46.7738 	 45.1282
| 37> H 	 -3.50291 	 45.8622 	 46.7342
| 38> H 	 -4.50253 	 47.315 	 46.6908
| 39> H 	 -5.97444 	 45.0177 	 38.6806
| 40> H 	 -9.64284 	 41.9584 	 45.3256
| 41> *
| 42>
| 43>                          ****END OF INPUT****

CARTESIAN COORDINATES (ANGSTROEM)
---------------------------------
  S     -7.496800   44.683600   40.577300
  C     -6.007330   44.693700   39.715500
  C     -5.125940   43.816800   40.355100
  C     -5.466290   43.377700   41.645000
  C     -6.755990   43.878000   41.925500
  H     -4.983980   42.645900   42.304700
  C     -3.785400   43.306100   39.750300
  H     -3.700340   43.721200   38.764000
  H     -3.832460   42.199300   39.587900
  C     -2.536240   43.724400   40.508100
  H     -2.499640   43.156300   41.423600
  H     -1.748970   43.400900   39.875900
  C     -2.351690   45.263700   40.821100
  H     -3.091840   45.676200   41.480800
  H     -1.476670   45.607400   41.427700
  H     -2.424790   45.848100   39.900000
  S     -8.897180   42.790900   43.048500
  C     -8.940160   42.678600   44.820600
  C     -7.936690   43.386100   45.440900
  C     -7.001180   43.918900   44.500500
  C     -7.387910   43.673700   43.190400
  H     -7.788210   43.310400   46.477700
  C     -5.677590   44.559500   44.940700
  H     -5.132940   44.832100   44.044300
  H     -5.120240   43.771100   45.468400
  C     -5.682710   45.777300   45.888000
  H     -6.051730   45.600600   46.918500
  H     -6.423180   46.398000   45.399700
  C     -4.258940   46.410100   46.104100
  H     -3.893790   46.773800   45.128200
  H     -3.502910   45.862200   46.734200
  H     -4.502530   47.315000   46.690800
  H     -5.974440   45.017700   38.680600
  H     -9.642840   41.958400   45.325600

 Total Charge           Charge          ....    0
 Multiplicity           Mult            ....    1
 Number of Electrons    NEL             ....  134
 Basis Dimension        Dim             ....  322

ORBITAL ENERGIES
----------------

  NO   OCC          E(Eh)            E(eV)
   0   2.0000     -88.967853     -2420.9384
   1   2.0000     -88.963714     -2420.8257
   2   2.0000     -10.326735      -281.0048
   3   2.0000     -10.322112      -280.8790
   4   2.0000     -10.322083      -280.8782
   5   2.0000     -10.311088      -280.5790
   6   2.0000     -10.305483      -280.4265
   7   2.0000     -10.301518      -280.3186
   8   2.0000     -10.294251      -280.1208
   9   2.0000     -10.291952      -280.0583
  10   2.0000     -10.291049      -280.0337
  11   2.0000     -10.290852      -280.0283
  12   2.0000     -10.290677      -280.0236
  13   2.0000     -10.289191      -279.9831
  14   2.0000     -10.284722      -279.8615
  15   2.0000     -10.278481      -279.6917
  16   2.0000      -8.083258      -219.9566
  17   2.0000      -8.078528      -219.8279
  18   2.0000      -6.041593      -164.4001
  19   2.0000      -6.037774      -164.2962
  20   2.0000      -6.036956      -164.2739
  21   2.0000      -6.034062      -164.1952
  22   2.0000      -6.033207      -164.1719
  23   2.0000      -6.029183      -164.0624
  24   2.0000      -1.009862       -27.4797
  25   2.0000      -0.983381       -26.7592
  26   2.0000      -0.906470       -24.6663
  27   2.0000      -0.901894       -24.5418
  28   2.0000      -0.871135       -23.7048
  29   2.0000      -0.850662       -23.1477
  30   2.0000      -0.842717       -22.9315
  31   2.0000      -0.808363       -21.9967
  32   2.0000      -0.782373       -21.2894
  33   2.0000      -0.770010       -20.9530
  34   2.0000      -0.707273       -19.2459
  35   2.0000      -0.695174       -18.9167
  36   2.0000      -0.691794       -18.8247
  37   2.0000      -0.661716       -18.0062
  38   2.0000      -0.642005       -17.4698
  39   2.0000      -0.618080       -16.8188
  40   2.0000      -0.592856       -16.1324
  41   2.0000      -0.567922       -15.4540
  42   2.0000      -0.557967       -15.1831
  43   2.0000      -0.551640       -15.0109
  44   2.0000      -0.533739       -14.5238
  45   2.0000      -0.518969       -14.1219
  46   2.0000      -0.515716       -14.0333
  47   2.0000      -0.509997       -13.8777
  48   2.0000      -0.503268       -13.6946
  49   2.0000      -0.495735       -13.4896
  50   2.0000      -0.488313       -13.2877
  51   2.0000      -0.481866       -13.1122
  52   2.0000      -0.468229       -12.7412
  53   2.0000      -0.465289       -12.6612
  54   2.0000      -0.458893       -12.4871
  55   2.0000      -0.449974       -12.2444
  56   2.0000      -0.445944       -12.1348
  57   2.0000      -0.438777       -11.9397
  58   2.0000      -0.429425       -11.6853
  59   2.0000      -0.423993       -11.5374
  60   2.0000      -0.417232       -11.3535
  61   2.0000      -0.411988       -11.2108
  62   2.0000      -0.408022       -11.1029
  63   2.0000      -0.345912        -9.4127
  64   2.0000      -0.332371        -9.0443
  65   2.0000      -0.328582        -8.9412
  66   2.0000      -0.287049        -7.8110
  67   0.0000       0.031747         0.8639
  68   0.0000       0.062136         1.6908
  69   0.0000       0.101927         2.7736
  70   0.0000       0.121952         3.3185
  71   0.0000       0.124851         3.3974

MULLIKEN ATOMIC CHARGES
-----------------------
   0 S :    0.124160
   1 C :   -0.123714
   2 C :   -0.095473
   3 C :    0.012759
   4 C :   -0.158689
   5 H :    0.039694
   6 C :    0.056382
   7 H :   -0.000087
   8 H :    0.048682
   9 C :   -0.041906
  10 H :    0.024003
  11 H :    0.026144
  12 C :   -0.066464
  13 H :    0.026478
  14 H :    0.036502
  15 H :    0.029487
  16 S :    0.093416
  17 C :   -0.114738
  18 C :   -0.004255
  19 C :   -0.027723
  20 C :   -0.173357
  21 H :    0.006218
  22 C :    0.071846
  23 H :    0.024733
  24 H :    0.028760
  25 C :   -0.102196
  26 H :    0.031252
  27 H :    0.036841
  28 C :   -0.073675
  29 H :    0.039369
  30 H :    0.055729
  31 H :    0.036482
  32 H :    0.056633
  33 H :    0.076707
Sum of atomic charges:    0.0000000

LOEWDIN ATOMIC CHARGES
----------------------
   0 S :    0.428122
   1 C :   -0.223347
   2 C :   -0.057751
   3 C :   -0.066457
   4 C :   -0.198472
   5 H :    0.042390
   6 C :   -0.032326
   7 H :    0.019885
   8 H :    0.039708
   9 C :   -0.035409
  10 H :    0.018600
  11 H :    0.022239
  12 C :   -0.075752
  13 H :    0.022723
  14 H :    0.033648
  15 H :    0.024864
  16 S :    0.386893
  17 C :   -0.176436
  18 C :   -0.064838
  19 C :   -0.054266
  20 C :   -0.195947
  21 H :    0.026052
  22 C :   -0.034897
  23 H :    0.028534
  24 H :    0.030751
  25 C :   -0.044195
  26 H :    0.023234
  27 H :    0.026143
  28 C :   -0.072633
  29 H :    0.026318
  30 H :    0.034430
  31 H :    0.031866
  32 H :    0.028945
  33 H :    0.037385

  Mayer bond orders larger than 0.100000
B(  0-S ,  1-C ) :   1.1366 B(  0-S ,  4-C ) :   1.1897 B(  1-C ,  2-C ) :   1.5794
B(  1-C ,  4-C ) :   0.1071 B(  1-C , 32-H ) :   0.9680 B(  2-C ,  3-C ) :   1.2570
B(  2-C ,  6-C ) :   1.0223 B(  3-C ,  4-C ) :   1.5111 B(  3-C ,  5-H ) :   0.9984
B(  4-C , 20-C ) :   1.0412 B(  6-C ,  7-H ) :   0.9377 B(  6-C ,  8-H ) :   0.9440
B(  6-C ,  9-C ) :   1.0734 B(  9-C , 10-H ) :   0.9562 B(  9-C , 11-H ) :   0.9569
B(  9-C , 12-C ) :   1.0644 B( 12-C , 13-H ) :   0.9719 B( 12-C , 14-H ) :   0.9761
B( 12-C , 15-H ) :   0.9772 B( 16-S , 17-C ) :   1.1425 B( 16-S , 20-C ) :   1.1357
B( 17-C , 18-C ) :   1.6337 B( 17-C , 33-H ) :   0.9599 B( 18-C , 19-C ) :   1.2077
B( 18-C , 21-H ) :   0.9962 B( 19-C , 20-C ) :   1.6218 B( 19-C , 22-C ) :   1.0461
B( 22-C , 23-H ) :   0.9349 B( 22-C , 24-H ) :   0.9307 B( 22-C , 25-C ) :   1.0574
B( 25-C , 26-H ) :   0.9544 B( 25-C , 27-H ) :   0.9591 B( 25-C , 28-C ) :   1.0775
B( 28-C , 29-H ) :   0.9747 B( 28-C , 30-H ) :   0.9745 B( 28-C , 31-H ) :   0.9744

Dispersion correction           -0.014461995
FINAL SINGLE POINT ENERGY     -1339.864907682287

DIPOLE MOMENT
-------------
                                X             Y             Z
Electronic contribution:    -27.76700      -9.00093      -8.25392
Nuclear contribution   :     28.30182       8.81515       8.53780
                        -----------------------------------------
Total Dipole Moment    :      0.53482      -0.18578       0.28388
                        -----------------------------------------
Magnitude (a.u.)       :      0.63335
Magnitude (Debye)      :      1.60986

Rotational constants in cm-1:     0.015835     0.010218     0.007095
Rotational constants in MHz :   474.713102   306.339575   212.709750

                             ****ORCA TERMINATED NORMALLY****
TOTAL RUN TIME: 0 days 0 hours 0 minutes 32 seconds 327 msec
