                         Program Version 4.2.1 -  RELEASE  -
|  1> ! wB97X-D3 SP def2-SVP
|  2> %pal
|  3> nprocs 16
|  4> end
|  5>
|  6> * xyz 0 1
|  7> S 	 -57.7884 	 51.9466 	 134.535
|  8> C 	 -56.2061 	 52.6185 	 134.003
|  9> C 	 -55.2174 	 52.6567 	 134.975
| 10> C 	 -55.7536 	 52.1572 	 136.229
| 11> C 	 -57.0947 	 51.7975 	 136.128
| 12> H 	 -55.2353 	 51.9593 	 137.094
| 13> C 	 -53.7883 	 52.8665 	 134.761
| 14> H 	 -53.3453 	 51.9551 	 134.474
| 15> H 	 -53.4338 	 53.1495 	 135.729
| 16> C 	 -53.3688 	 53.7874 	 133.644
| 17> H 	 -53.8323 	 53.3712 	 132.713
| 18> H 	 -53.7231 	 54.797 	 133.668
| 19> C 	 -51.793 	 53.955 	 133.343
| 20> H 	 -51.6544 	 54.4003 	 132.362
| 21> H 	 -51.3251 	 54.6639 	 134.12
| 22> H 	 -51.193 	 53.044 	 133.319
| 23> S 	 -58.7418 	 49.8603 	 136.969
| 24> C 	 -59.3813 	 49.8558 	 138.521
| 25> C 	 -58.9098 	 50.869 	 139.265
| 26> C 	 -58.0366 	 51.7633 	 138.566
| 27> C 	 -57.8352 	 51.327 	 137.266
| 28> H 	 -59.2709 	 50.98 	 140.344
| 29> C 	 -57.5359 	 52.979 	 139.223
| 30> H 	 -56.5336 	 53.0658 	 138.783
| 31> H 	 -57.3213 	 52.7119 	 140.345
| 32> C 	 -58.2284 	 54.345 	 138.933
| 33> H 	 -57.7514 	 55.0253 	 139.596
| 34> H 	 -59.2409 	 54.1727 	 139.261
| 35> C 	 -58.3196 	 54.9517 	 137.522
| 36> H 	 -59.0789 	 54.4437 	 136.885
| 37> H 	 -57.4069 	 54.759 	 136.993
| 38> H 	 -58.4528 	 56.0305 	 137.836
| 39> H 	 -55.9496 	 52.8625 	 132.953
| 40> H 	 -60.0358 	 49.0918 	 138.895
| 41> *
| 42>
| 43>                          ****END OF INPUT****

CARTESIAN COORDINATES (ANGSTROEM)
---------------------------------
  S    -57.788400   51.946600  134.535000
  C    -56.206100   52.618500  134.003000
  C    -55.217400   52.656700  134.975000
  C    -55.753600   52.157200  136.229000
  C    -57.094700   51.797500  136.128000
  H    -55.235300   51.959300  137.094000
  C    -53.788300   52.866500  134.761000
  H    -53.345300   51.955100  134.474000
  H    -53.433800   53.149500  135.729000
  C    -53.368800   53.787400  133.644000
  H    -53.832300   53.371200  132.713000
  H    -53.723100   54.797000  133.668000
  C    -51.793000   53.955000  133.343000
  H    -51.654400   54.400300  132.362000
  H    -51.325100   54.663900  134.120000
  H    -51.193000   53.044000  133.319000
  S    -58.741800   49.860300  136.969000
  C    -59.381300   49.855800  138.521000
  C    -58.909800   50.869000  139.265000
  C    -58.036600   51.763300  138.566000
  C    -57.835200   51.327000  137.266000
  H    -59.270900   50.980000  140.344000
  C    -57.535900   52.979000  139.223000
  H    -56.533600   53.065800  138.783000
  H    -57.321300   52.711900  140.345000
  C    -58.228400   54.345000  138.933000
  H    -57.751400   55.025300  139.596000
  H    -59.240900   54.172700  139.261000
  C    -58.319600   54.951700  137.522000
  H    -59.078900   54.443700  136.885000
  H    -57.406900   54.759000  136.993000
  H    -58.452800   56.030500  137.836000
  H    -55.949600   52.862500  132.953000
  H    -60.035800   49.091800  138.895000

 Total Charge           Charge          ....    0
 Multiplicity           Mult            ....    1
 Number of Electrons    NEL             ....  134
 Basis Dimension        Dim             ....  322

ORBITAL ENERGIES
----------------

  NO   OCC          E(Eh)            E(eV)
   0   2.0000     -88.972958     -2421.0773
   1   2.0000     -88.959263     -2420.7046
   2   2.0000     -10.328216      -281.0450
   3   2.0000     -10.320387      -280.8320
   4   2.0000     -10.316739      -280.7328
   5   2.0000     -10.304872      -280.4098
   6   2.0000     -10.302298      -280.3398
   7   2.0000     -10.299456      -280.2625
   8   2.0000     -10.294722      -280.1336
   9   2.0000     -10.292705      -280.0788
  10   2.0000     -10.291218      -280.0383
  11   2.0000     -10.289853      -280.0011
  12   2.0000     -10.289591      -279.9940
  13   2.0000     -10.286536      -279.9109
  14   2.0000     -10.280463      -279.7456
  15   2.0000     -10.277908      -279.6761
  16   2.0000      -8.086624      -220.0482
  17   2.0000      -8.075960      -219.7580
  18   2.0000      -6.045184      -164.4978
  19   2.0000      -6.041515      -164.3980
  20   2.0000      -6.037152      -164.2793
  21   2.0000      -6.034247      -164.2002
  22   2.0000      -6.030202      -164.0901
  23   2.0000      -6.026832      -163.9984
  24   2.0000      -1.012693       -27.5568
  25   2.0000      -0.984913       -26.8008
  26   2.0000      -0.919734       -25.0272
  27   2.0000      -0.907557       -24.6959
  28   2.0000      -0.866843       -23.5880
  29   2.0000      -0.854021       -23.2391
  30   2.0000      -0.847382       -23.0584
  31   2.0000      -0.811963       -22.0946
  32   2.0000      -0.784876       -21.3575
  33   2.0000      -0.772467       -21.0199
  34   2.0000      -0.716313       -19.4919
  35   2.0000      -0.703007       -19.1298
  36   2.0000      -0.688354       -18.7311
  37   2.0000      -0.658852       -17.9283
  38   2.0000      -0.637311       -17.3421
  39   2.0000      -0.618853       -16.8398
  40   2.0000      -0.594047       -16.1648
  41   2.0000      -0.572161       -15.5693
  42   2.0000      -0.564108       -15.3502
  43   2.0000      -0.556485       -15.1427
  44   2.0000      -0.531838       -14.4721
  45   2.0000      -0.522178       -14.2092
  46   2.0000      -0.517130       -14.0718
  47   2.0000      -0.510463       -13.8904
  48   2.0000      -0.507685       -13.8148
  49   2.0000      -0.496128       -13.5003
  50   2.0000      -0.488160       -13.2835
  51   2.0000      -0.479654       -13.0520
  52   2.0000      -0.478932       -13.0324
  53   2.0000      -0.459930       -12.5153
  54   2.0000      -0.455468       -12.3939
  55   2.0000      -0.450653       -12.2629
  56   2.0000      -0.441313       -12.0087
  57   2.0000      -0.437834       -11.9141
  58   2.0000      -0.431823       -11.7505
  59   2.0000      -0.429236       -11.6801
  60   2.0000      -0.419888       -11.4257
  61   2.0000      -0.417380       -11.3575
  62   2.0000      -0.405433       -11.0324
  63   2.0000      -0.346741        -9.4353
  64   2.0000      -0.332669        -9.0524
  65   2.0000      -0.327731        -8.9180
  66   2.0000      -0.288463        -7.8495
  67   0.0000       0.029949         0.8149
  68   0.0000       0.072487         1.9725
  69   0.0000       0.106283         2.8921
  70   0.0000       0.119624         3.2551
  71   0.0000       0.128934         3.5085

MULLIKEN ATOMIC CHARGES
-----------------------
   0 S :    0.126342
   1 C :   -0.147267
   2 C :   -0.072924
   3 C :    0.026160
   4 C :   -0.133300
   5 H :   -0.007248
   6 C :    0.149204
   7 H :    0.033390
   8 H :    0.014181
   9 C :   -0.130178
  10 H :    0.028879
  11 H :    0.031070
  12 C :   -0.072834
  13 H :    0.035787
  14 H :    0.046657
  15 H :    0.032233
  16 S :    0.098831
  17 C :   -0.070430
  18 C :   -0.074649
  19 C :   -0.028921
  20 C :   -0.186176
  21 H :    0.038810
  22 C :    0.029216
  23 H :    0.002280
  24 H :    0.044053
  25 C :   -0.049984
  26 H :    0.024184
  27 H :    0.019405
  28 C :   -0.044338
  29 H :    0.049180
  30 H :    0.031567
  31 H :    0.054647
  32 H :    0.053886
  33 H :    0.048290
Sum of atomic charges:   -0.0000000

LOEWDIN ATOMIC CHARGES
----------------------
   0 S :    0.391868
   1 C :   -0.194661
   2 C :   -0.053643
   3 C :   -0.052171
   4 C :   -0.193098
   5 H :    0.017426
   6 C :   -0.030621
   7 H :    0.038211
   8 H :    0.028325
   9 C :   -0.038687
  10 H :    0.025277
  11 H :    0.021288
  12 C :   -0.071502
  13 H :    0.026525
  14 H :    0.033368
  15 H :    0.021453
  16 S :    0.426092
  17 C :   -0.204217
  18 C :   -0.086372
  19 C :   -0.061602
  20 C :   -0.201579
  21 H :    0.042780
  22 C :   -0.050207
  23 H :    0.026670
  24 H :    0.045827
  25 C :   -0.036015
  26 H :    0.019667
  27 H :    0.020969
  28 C :   -0.067113
  29 H :    0.033417
  30 H :    0.021585
  31 H :    0.044003
  32 H :    0.028335
  33 H :    0.028401

  Mayer bond orders larger than 0.100000
B(  0-S ,  1-C ) :   1.1056 B(  0-S ,  4-C ) :   1.1406 B(  1-C ,  2-C ) :   1.6409
B(  1-C , 32-H ) :   0.9586 B(  2-C ,  3-C ) :   1.2027 B(  2-C ,  6-C ) :   1.0348
B(  3-C ,  4-C ) :   1.5874 B(  3-C ,  5-H ) :   1.0028 B(  4-C , 20-C ) :   1.0521
B(  6-C ,  7-H ) :   0.9210 B(  6-C ,  8-H ) :   0.9327 B(  6-C ,  9-C ) :   1.0602
B(  9-C , 10-H ) :   0.9484 B(  9-C , 11-H ) :   0.9638 B(  9-C , 12-C ) :   1.0761
B( 12-C , 13-H ) :   0.9764 B( 12-C , 14-H ) :   0.9779 B( 12-C , 15-H ) :   0.9769
B( 16-S , 17-C ) :   1.1643 B( 16-S , 20-C ) :   1.1459 B( 17-C , 18-C ) :   1.6168
B( 17-C , 33-H ) :   0.9672 B( 18-C , 19-C ) :   1.2371 B( 18-C , 21-H ) :   0.9798
B( 19-C , 20-C ) :   1.5826 B( 19-C , 22-C ) :   1.0497 B( 22-C , 23-H ) :   0.9187
B( 22-C , 24-H ) :   0.9336 B( 22-C , 25-C ) :   1.0609 B( 25-C , 26-H ) :   0.9599
B( 25-C , 27-H ) :   0.9534 B( 25-C , 28-C ) :   1.0683 B( 28-C , 29-H ) :   0.9710
B( 28-C , 30-H ) :   0.9756 B( 28-C , 31-H ) :   0.9726

Dispersion correction           -0.014926377
FINAL SINGLE POINT ENERGY     -1339.859071723699

DIPOLE MOMENT
-------------
                                X             Y             Z
Electronic contribution:    -18.23644     -19.49850      -0.52056
Nuclear contribution   :     18.71952      19.69924       0.73463
                        -----------------------------------------
Total Dipole Moment    :      0.48308       0.20074       0.21407
                        -----------------------------------------
Magnitude (a.u.)       :      0.56523
Magnitude (Debye)      :      1.43670

Rotational constants in cm-1:     0.022934     0.007712     0.006743
Rotational constants in MHz :   687.546479   231.214816   202.158688

                             ****ORCA TERMINATED NORMALLY****
TOTAL RUN TIME: 0 days 0 hours 0 minutes 35 seconds 94 msec
