                         Program Version 4.2.1 -  RELEASE  -
|  1> ! wB97X-D3 SP def2-SVP
|  2> %pal
|  3> nprocs 16
|  4> end
|  5>
|  6> * xyz 0 1
|  7> S 	 -33.0459 	 42.0669 	 96.9651
|  8> C 	 -34.5814 	 42.1291 	 97.8537
|  9> C 	 -34.6019 	 43.1709 	 98.7222
| 10> C 	 -33.4548 	 44.0126 	 98.6215
| 11> C 	 -32.4106 	 43.4281 	 97.8688
| 12> H 	 -33.2856 	 45.0116 	 99.0535
| 13> C 	 -35.8369 	 43.5109 	 99.553
| 14> H 	 -36.4395 	 42.6083 	 99.7756
| 15> H 	 -36.3586 	 44.3809 	 99.0323
| 16> C 	 -35.4398 	 44.1225 	 100.914
| 17> H 	 -34.9424 	 43.3814 	 101.522
| 18> H 	 -34.6712 	 44.8937 	 100.828
| 19> C 	 -36.5959 	 44.3924 	 101.944
| 20> H 	 -37.3804 	 45.0452 	 101.644
| 21> H 	 -37.0425 	 43.4689 	 102.296
| 22> H 	 -36.158 	 44.858 	 102.854
| 23> S 	 -29.9509 	 42.7889 	 98.1463
| 24> C 	 -28.733 	 43.8513 	 97.536
| 25> C 	 -29.164 	 45.108 	 97.3014
| 26> C 	 -30.5824 	 45.2818 	 97.465
| 27> C 	 -31.1695 	 44.003 	 97.6377
| 28> H 	 -28.4665 	 45.8619 	 97.1899
| 29> C 	 -31.2699 	 46.517 	 97.1009
| 30> H 	 -30.5441 	 47.3498 	 97.2167
| 31> H 	 -31.8904 	 46.6991 	 98.024
| 32> C 	 -32.2212 	 46.5512 	 95.8509
| 33> H 	 -32.7015 	 47.4877 	 95.8489
| 34> H 	 -33.1805 	 46.0091 	 95.9298
| 35> C 	 -31.5093 	 46.4114 	 94.5223
| 36> H 	 -31.2784 	 45.3387 	 94.3335
| 37> H 	 -30.5903 	 46.9431 	 94.5948
| 38> H 	 -32.1813 	 46.8138 	 93.7476
| 39> H 	 -35.3048 	 41.3496 	 97.731
| 40> H 	 -27.7081 	 43.8849 	 97.7345
| 41> *
| 42>
| 43>                          ****END OF INPUT****

CARTESIAN COORDINATES (ANGSTROEM)
---------------------------------
  S    -33.045900   42.066900   96.965100
  C    -34.581400   42.129100   97.853700
  C    -34.601900   43.170900   98.722200
  C    -33.454800   44.012600   98.621500
  C    -32.410600   43.428100   97.868800
  H    -33.285600   45.011600   99.053500
  C    -35.836900   43.510900   99.553000
  H    -36.439500   42.608300   99.775600
  H    -36.358600   44.380900   99.032300
  C    -35.439800   44.122500  100.914000
  H    -34.942400   43.381400  101.522000
  H    -34.671200   44.893700  100.828000
  C    -36.595900   44.392400  101.944000
  H    -37.380400   45.045200  101.644000
  H    -37.042500   43.468900  102.296000
  H    -36.158000   44.858000  102.854000
  S    -29.950900   42.788900   98.146300
  C    -28.733000   43.851300   97.536000
  C    -29.164000   45.108000   97.301400
  C    -30.582400   45.281800   97.465000
  C    -31.169500   44.003000   97.637700
  H    -28.466500   45.861900   97.189900
  C    -31.269900   46.517000   97.100900
  H    -30.544100   47.349800   97.216700
  H    -31.890400   46.699100   98.024000
  C    -32.221200   46.551200   95.850900
  H    -32.701500   47.487700   95.848900
  H    -33.180500   46.009100   95.929800
  C    -31.509300   46.411400   94.522300
  H    -31.278400   45.338700   94.333500
  H    -30.590300   46.943100   94.594800
  H    -32.181300   46.813800   93.747600
  H    -35.304800   41.349600   97.731000
  H    -27.708100   43.884900   97.734500

 Total Charge           Charge          ....    0
 Multiplicity           Mult            ....    1
 Number of Electrons    NEL             ....  134
 Basis Dimension        Dim             ....  322

ORBITAL ENERGIES
----------------

  NO   OCC          E(Eh)            E(eV)
   0   2.0000     -88.963777     -2420.8274
   1   2.0000     -88.963222     -2420.8123
   2   2.0000     -10.325776      -280.9786
   3   2.0000     -10.324306      -280.9386
   4   2.0000     -10.310959      -280.5755
   5   2.0000     -10.306771      -280.4615
   6   2.0000     -10.301869      -280.3281
   7   2.0000     -10.301126      -280.3079
   8   2.0000     -10.300870      -280.3009
   9   2.0000     -10.299543      -280.2648
  10   2.0000     -10.296982      -280.1951
  11   2.0000     -10.285951      -279.8949
  12   2.0000     -10.285649      -279.8867
  13   2.0000     -10.283060      -279.8163
  14   2.0000     -10.279904      -279.7304
  15   2.0000     -10.274481      -279.5828
  16   2.0000      -8.078210      -219.8193
  17   2.0000      -8.077921      -219.8114
  18   2.0000      -6.036743      -164.2681
  19   2.0000      -6.036471      -164.2607
  20   2.0000      -6.032815      -164.1613
  21   2.0000      -6.032628      -164.1562
  22   2.0000      -6.028877      -164.0541
  23   2.0000      -6.028401      -164.0411
  24   2.0000      -1.008944       -27.4548
  25   2.0000      -0.982380       -26.7319
  26   2.0000      -0.911488       -24.8028
  27   2.0000      -0.908413       -24.7192
  28   2.0000      -0.877799       -23.8861
  29   2.0000      -0.854993       -23.2655
  30   2.0000      -0.842537       -22.9266
  31   2.0000      -0.815457       -22.1897
  32   2.0000      -0.783602       -21.3229
  33   2.0000      -0.771480       -20.9930
  34   2.0000      -0.721675       -19.6378
  35   2.0000      -0.701619       -19.0920
  36   2.0000      -0.690076       -18.7779
  37   2.0000      -0.663687       -18.0598
  38   2.0000      -0.640601       -17.4317
  39   2.0000      -0.617204       -16.7950
  40   2.0000      -0.586144       -15.9498
  41   2.0000      -0.566498       -15.4152
  42   2.0000      -0.564225       -15.3533
  43   2.0000      -0.556671       -15.1478
  44   2.0000      -0.539400       -14.6778
  45   2.0000      -0.525797       -14.3077
  46   2.0000      -0.515667       -14.0320
  47   2.0000      -0.508806       -13.8453
  48   2.0000      -0.505085       -13.7441
  49   2.0000      -0.495732       -13.4896
  50   2.0000      -0.486382       -13.2351
  51   2.0000      -0.485957       -13.2236
  52   2.0000      -0.474785       -12.9196
  53   2.0000      -0.468343       -12.7443
  54   2.0000      -0.454757       -12.3746
  55   2.0000      -0.451842       -12.2952
  56   2.0000      -0.444683       -12.1004
  57   2.0000      -0.436398       -11.8750
  58   2.0000      -0.430781       -11.7221
  59   2.0000      -0.423557       -11.5256
  60   2.0000      -0.418420       -11.3858
  61   2.0000      -0.409448       -11.1417
  62   2.0000      -0.406528       -11.0622
  63   2.0000      -0.342273        -9.3137
  64   2.0000      -0.333090        -9.0638
  65   2.0000      -0.323393        -8.8000
  66   2.0000      -0.286501        -7.7961
  67   0.0000       0.019938         0.5425
  68   0.0000       0.065222         1.7748
  69   0.0000       0.099797         2.7156
  70   0.0000       0.114898         3.1265
  71   0.0000       0.136043         3.7019

MULLIKEN ATOMIC CHARGES
-----------------------
   0 S :    0.111747
   1 C :   -0.133731
   2 C :   -0.045808
   3 C :   -0.009196
   4 C :   -0.146679
   5 H :    0.027136
   6 C :    0.075858
   7 H :    0.034228
   8 H :    0.056470
   9 C :   -0.126395
  10 H :    0.023273
  11 H :    0.028898
  12 C :   -0.037828
  13 H :    0.024010
  14 H :    0.028555
  15 H :    0.032190
  16 S :    0.090889
  17 C :   -0.005821
  18 C :   -0.061569
  19 C :   -0.010588
  20 C :   -0.181563
  21 H :   -0.011509
  22 C :    0.033521
  23 H :    0.022107
  24 H :    0.023224
  25 C :   -0.030494
  26 H :    0.002974
  27 H :    0.031971
  28 C :   -0.033381
  29 H :    0.050922
  30 H :    0.022809
  31 H :    0.039491
  32 H :    0.044175
  33 H :    0.030116
Sum of atomic charges:   -0.0000000

LOEWDIN ATOMIC CHARGES
----------------------
   0 S :    0.396273
   1 C :   -0.185345
   2 C :   -0.066737
   3 C :   -0.065292
   4 C :   -0.211468
   5 H :    0.031999
   6 C :   -0.030991
   7 H :    0.035181
   8 H :    0.044129
   9 C :   -0.052324
  10 H :    0.025835
  11 H :    0.019961
  12 C :   -0.064363
  13 H :    0.013769
  14 H :    0.023962
  15 H :    0.033017
  16 S :    0.406323
  17 C :   -0.191845
  18 C :   -0.062383
  19 C :   -0.051878
  20 C :   -0.174630
  21 H :    0.017676
  22 C :   -0.044298
  23 H :    0.035301
  24 H :    0.039303
  25 C :   -0.043730
  26 H :    0.019701
  27 H :    0.033468
  28 C :   -0.060533
  29 H :    0.032781
  30 H :    0.020436
  31 H :    0.031309
  32 H :    0.023997
  33 H :    0.021397

  Mayer bond orders larger than 0.100000
B(  0-S ,  1-C ) :   1.1230 B(  0-S ,  4-C ) :   1.1488 B(  1-C ,  2-C ) :   1.6151
B(  1-C ,  4-C ) :   0.1009 B(  1-C , 32-H ) :   0.9755 B(  2-C ,  3-C ) :   1.2302
B(  2-C ,  6-C ) :   1.0269 B(  3-C ,  4-C ) :   1.5573 B(  3-C ,  5-H ) :   0.9852
B(  4-C , 20-C ) :   1.0932 B(  6-C ,  7-H ) :   0.9458 B(  6-C ,  8-H ) :   0.9361
B(  6-C ,  9-C ) :   1.0553 B(  9-C , 10-H ) :   0.9571 B(  9-C , 11-H ) :   0.9591
B(  9-C , 12-C ) :   1.0709 B( 12-C , 13-H ) :   0.9782 B( 12-C , 14-H ) :   0.9769
B( 12-C , 15-H ) :   0.9737 B( 16-S , 17-C ) :   1.1349 B( 16-S , 20-C ) :   1.1423
B( 17-C , 18-C ) :   1.6503 B( 17-C , 33-H ) :   0.9563 B( 18-C , 19-C ) :   1.2153
B( 18-C , 21-H ) :   0.9933 B( 19-C , 20-C ) :   1.5439 B( 19-C , 22-C ) :   1.0709
B( 22-C , 23-H ) :   0.9305 B( 22-C , 24-H ) :   0.9133 B( 22-C , 25-C ) :   1.0725
B( 25-C , 26-H ) :   0.9441 B( 25-C , 27-H ) :   0.9460 B( 25-C , 28-C ) :   1.0745
B( 28-C , 29-H ) :   0.9765 B( 28-C , 30-H ) :   0.9749 B( 28-C , 31-H ) :   0.9731

Dispersion correction           -0.014478986
FINAL SINGLE POINT ENERGY     -1339.829937535569

DIPOLE MOMENT
-------------
                                X             Y             Z
Electronic contribution:     15.16053     -17.81052      -5.59890
Nuclear contribution   :    -15.46361      18.50057       5.88288
                        -----------------------------------------
Total Dipole Moment    :     -0.30308       0.69005       0.28399
                        -----------------------------------------
Magnitude (a.u.)       :      0.80541
Magnitude (Debye)      :      2.04718

Rotational constants in cm-1:     0.019095     0.008132     0.007456
Rotational constants in MHz :   572.461694   243.804063   223.517657

                             ****ORCA TERMINATED NORMALLY****
TOTAL RUN TIME: 0 days 0 hours 0 minutes 30 seconds 470 msec
