                         Program Version 4.2.1 -  RELEASE  -
|  1> ! wB97X-D3 SP def2-SVP
|  2> %pal
|  3> nprocs 16
|  4> end
|  5>
|  6> * xyz 0 1
|  7> S 	 -34.1679 	 55.6816 	 108.893
|  8> C 	 -32.4696 	 55.2525 	 108.833
|  9> C 	 -31.6615 	 56.0973 	 109.547
| 10> C 	 -32.4267 	 56.9571 	 110.349
| 11> C 	 -33.7922 	 56.9275 	 110.06
| 12> H 	 -32.0312 	 57.7137 	 110.995
| 13> C 	 -30.1554 	 56.2384 	 109.228
| 14> H 	 -29.9014 	 56.9747 	 108.459
| 15> H 	 -29.8111 	 55.2703 	 108.818
| 16> C 	 -29.1996 	 56.4778 	 110.437
| 17> H 	 -29.4682 	 57.46 	 110.808
| 18> H 	 -29.3101 	 55.7139 	 111.191
| 19> C 	 -27.7026 	 56.403 	 110.062
| 20> H 	 -27.409 	 55.3675 	 110.266
| 21> H 	 -27.5263 	 56.6253 	 109.047
| 22> H 	 -27.1117 	 57.1486 	 110.564
| 23> S 	 -35.5181 	 58.8872 	 109.371
| 24> C 	 -36.3426 	 59.8913 	 110.576
| 25> C 	 -35.9361 	 59.475 	 111.823
| 26> C 	 -35.0314 	 58.3509 	 111.869
| 27> C 	 -34.7753 	 57.883 	 110.557
| 28> H 	 -36.3325 	 60.0547 	 112.7
| 29> C 	 -34.6482 	 57.5748 	 113.166
| 30> H 	 -35.0414 	 58.0617 	 114.021
| 31> H 	 -33.5391 	 57.6 	 113.242
| 32> C 	 -35.151 	 56.0871 	 113.249
| 33> H 	 -35.0473 	 55.52 	 112.382
| 34> H 	 -36.2573 	 55.9375 	 113.509
| 35> C 	 -34.4127 	 55.3659 	 114.338
| 36> H 	 -33.4292 	 55.0804 	 114.014
| 37> H 	 -34.9465 	 54.424 	 114.601
| 38> H 	 -34.1744 	 56.0017 	 115.234
| 39> H 	 -32.0742 	 54.6624 	 108.026
| 40> H 	 -37.0441 	 60.6943 	 110.529
| 41> *
| 42>
| 43>                          ****END OF INPUT****

CARTESIAN COORDINATES (ANGSTROEM)
---------------------------------
  S    -34.167900   55.681600  108.893000
  C    -32.469600   55.252500  108.833000
  C    -31.661500   56.097300  109.547000
  C    -32.426700   56.957100  110.349000
  C    -33.792200   56.927500  110.060000
  H    -32.031200   57.713700  110.995000
  C    -30.155400   56.238400  109.228000
  H    -29.901400   56.974700  108.459000
  H    -29.811100   55.270300  108.818000
  C    -29.199600   56.477800  110.437000
  H    -29.468200   57.460000  110.808000
  H    -29.310100   55.713900  111.191000
  C    -27.702600   56.403000  110.062000
  H    -27.409000   55.367500  110.266000
  H    -27.526300   56.625300  109.047000
  H    -27.111700   57.148600  110.564000
  S    -35.518100   58.887200  109.371000
  C    -36.342600   59.891300  110.576000
  C    -35.936100   59.475000  111.823000
  C    -35.031400   58.350900  111.869000
  C    -34.775300   57.883000  110.557000
  H    -36.332500   60.054700  112.700000
  C    -34.648200   57.574800  113.166000
  H    -35.041400   58.061700  114.021000
  H    -33.539100   57.600000  113.242000
  C    -35.151000   56.087100  113.249000
  H    -35.047300   55.520000  112.382000
  H    -36.257300   55.937500  113.509000
  C    -34.412700   55.365900  114.338000
  H    -33.429200   55.080400  114.014000
  H    -34.946500   54.424000  114.601000
  H    -34.174400   56.001700  115.234000
  H    -32.074200   54.662400  108.026000
  H    -37.044100   60.694300  110.529000

 Total Charge           Charge          ....    0
 Multiplicity           Mult            ....    1
 Number of Electrons    NEL             ....  134
 Basis Dimension        Dim             ....  322

ORBITAL ENERGIES
----------------

  NO   OCC          E(Eh)            E(eV)
   0   2.0000     -88.971126     -2421.0274
   1   2.0000     -88.967105     -2420.9180
   2   2.0000     -10.332382      -281.1584
   3   2.0000     -10.327302      -281.0202
   4   2.0000     -10.315179      -280.6903
   5   2.0000     -10.310254      -280.5563
   6   2.0000     -10.308514      -280.5089
   7   2.0000     -10.301744      -280.3247
   8   2.0000     -10.299802      -280.2719
   9   2.0000     -10.298036      -280.2238
  10   2.0000     -10.297010      -280.1959
  11   2.0000     -10.294084      -280.1163
  12   2.0000     -10.286062      -279.8980
  13   2.0000     -10.281620      -279.7771
  14   2.0000     -10.275418      -279.6083
  15   2.0000     -10.273543      -279.5573
  16   2.0000      -8.085688      -220.0228
  17   2.0000      -8.081605      -219.9117
  18   2.0000      -6.044034      -164.4665
  19   2.0000      -6.040308      -164.3651
  20   2.0000      -6.040160      -164.3611
  21   2.0000      -6.036531      -164.2624
  22   2.0000      -6.035997      -164.2478
  23   2.0000      -6.032453      -164.1514
  24   2.0000      -1.008288       -27.4369
  25   2.0000      -0.983862       -26.7723
  26   2.0000      -0.908551       -24.7229
  27   2.0000      -0.902497       -24.5582
  28   2.0000      -0.871869       -23.7248
  29   2.0000      -0.852542       -23.1988
  30   2.0000      -0.845354       -23.0033
  31   2.0000      -0.816021       -22.2051
  32   2.0000      -0.781697       -21.2711
  33   2.0000      -0.767004       -20.8713
  34   2.0000      -0.711517       -19.3614
  35   2.0000      -0.694981       -18.9114
  36   2.0000      -0.688964       -18.7477
  37   2.0000      -0.655817       -17.8457
  38   2.0000      -0.641725       -17.4622
  39   2.0000      -0.623532       -16.9672
  40   2.0000      -0.589384       -16.0380
  41   2.0000      -0.578665       -15.7463
  42   2.0000      -0.564747       -15.3675
  43   2.0000      -0.558071       -15.1859
  44   2.0000      -0.522007       -14.2045
  45   2.0000      -0.520317       -14.1585
  46   2.0000      -0.515361       -14.0237
  47   2.0000      -0.506060       -13.7706
  48   2.0000      -0.503174       -13.6921
  49   2.0000      -0.499338       -13.5877
  50   2.0000      -0.492356       -13.3977
  51   2.0000      -0.484450       -13.1826
  52   2.0000      -0.473064       -12.8727
  53   2.0000      -0.466332       -12.6895
  54   2.0000      -0.460680       -12.5358
  55   2.0000      -0.448160       -12.1951
  56   2.0000      -0.442737       -12.0475
  57   2.0000      -0.435278       -11.8445
  58   2.0000      -0.429969       -11.7000
  59   2.0000      -0.427182       -11.6242
  60   2.0000      -0.420127       -11.4322
  61   2.0000      -0.415725       -11.3124
  62   2.0000      -0.409017       -11.1299
  63   2.0000      -0.345784        -9.4093
  64   2.0000      -0.335977        -9.1424
  65   2.0000      -0.326964        -8.8971
  66   2.0000      -0.293802        -7.9948
  67   0.0000       0.026775         0.7286
  68   0.0000       0.067838         1.8460
  69   0.0000       0.108229         2.9451
  70   0.0000       0.126762         3.4494
  71   0.0000       0.129492         3.5237

MULLIKEN ATOMIC CHARGES
-----------------------
   0 S :    0.120291
   1 C :   -0.109318
   2 C :   -0.065007
   3 C :    0.046377
   4 C :   -0.177500
   5 H :    0.010029
   6 C :    0.029963
   7 H :    0.051643
   8 H :    0.017471
   9 C :   -0.103080
  10 H :    0.030038
  11 H :    0.033026
  12 C :   -0.020975
  13 H :    0.039690
  14 H :    0.011824
  15 H :    0.031264
  16 S :    0.113302
  17 C :   -0.075222
  18 C :   -0.073378
  19 C :   -0.021418
  20 C :   -0.159601
  21 H :    0.034491
  22 C :    0.073665
  23 H :    0.013867
  24 H :    0.035010
  25 C :   -0.048998
  26 H :    0.020539
  27 H :    0.037250
  28 C :   -0.073049
  29 H :    0.021625
  30 H :    0.037965
  31 H :    0.029251
  32 H :    0.045729
  33 H :    0.043236
Sum of atomic charges:   -0.0000000

LOEWDIN ATOMIC CHARGES
----------------------
   0 S :    0.411613
   1 C :   -0.194538
   2 C :   -0.063675
   3 C :   -0.054438
   4 C :   -0.197442
   5 H :    0.028522
   6 C :   -0.028419
   7 H :    0.034180
   8 H :    0.028739
   9 C :   -0.040347
  10 H :    0.017001
  11 H :    0.023493
  12 C :   -0.060029
  13 H :    0.030738
  14 H :    0.016359
  15 H :    0.027825
  16 S :    0.417899
  17 C :   -0.191998
  18 C :   -0.076181
  19 C :   -0.062059
  20 C :   -0.208989
  21 H :    0.037957
  22 C :   -0.023066
  23 H :    0.025358
  24 H :    0.034416
  25 C :   -0.039308
  26 H :    0.015016
  27 H :    0.032794
  28 C :   -0.070321
  29 H :    0.018551
  30 H :    0.030309
  31 H :    0.025923
  32 H :    0.022890
  33 H :    0.031231

  Mayer bond orders larger than 0.100000
B(  0-S ,  1-C ) :   1.1398 B(  0-S ,  4-C ) :   1.1570 B(  1-C ,  2-C ) :   1.6294
B(  1-C , 32-H ) :   0.9618 B(  2-C ,  3-C ) :   1.2562 B(  2-C ,  6-C ) :   1.0113
B(  3-C ,  4-C ) :   1.5644 B(  3-C ,  5-H ) :   0.9959 B(  4-C , 20-C ) :   1.0256
B(  6-C ,  7-H ) :   0.9435 B(  6-C ,  8-H ) :   0.9449 B(  6-C ,  9-C ) :   1.0606
B(  9-C , 10-H ) :   0.9588 B(  9-C , 11-H ) :   0.9690 B(  9-C , 12-C ) :   1.0728
B( 12-C , 13-H ) :   0.9811 B( 12-C , 14-H ) :   0.9753 B( 12-C , 15-H ) :   0.9740
B( 16-S , 17-C ) :   1.1348 B( 16-S , 20-C ) :   1.1700 B( 17-C , 18-C ) :   1.6283
B( 17-C , 20-C ) :   0.1025 B( 17-C , 33-H ) :   0.9691 B( 18-C , 19-C ) :   1.2592
B( 18-C , 21-H ) :   0.9750 B( 19-C , 20-C ) :   1.5532 B( 19-C , 22-C ) :   1.0352
B( 22-C , 23-H ) :   0.9381 B( 22-C , 24-H ) :   0.9390 B( 22-C , 25-C ) :   1.0519
B( 25-C , 26-H ) :   0.9562 B( 25-C , 27-H ) :   0.9610 B( 25-C , 28-C ) :   1.0790
B( 28-C , 29-H ) :   0.9741 B( 28-C , 30-H ) :   0.9726 B( 28-C , 31-H ) :   0.9735

Dispersion correction           -0.013947253
FINAL SINGLE POINT ENERGY     -1339.867693701427

DIPOLE MOMENT
-------------
                                X             Y             Z
Electronic contribution:    -20.73156       7.14149     -16.88445
Nuclear contribution   :     21.21472      -6.98650      17.13954
                        -----------------------------------------
Total Dipole Moment    :      0.48316       0.15499       0.25509
                        -----------------------------------------
Magnitude (a.u.)       :      0.56792
Magnitude (Debye)      :      1.44354

Rotational constants in cm-1:     0.017329     0.008235     0.007142
Rotational constants in MHz :   519.513926   246.874758   214.113228

                             ****ORCA TERMINATED NORMALLY****
TOTAL RUN TIME: 0 days 0 hours 0 minutes 29 seconds 558 msec
