                         Program Version 4.2.1 -  RELEASE  -
|  1> ! wB97X-D3 SP def2-SVP
|  2> %pal
|  3> nprocs 16
|  4> end
|  5>
|  6> * xyz 0 1
|  7> S 	 -36.8532 	 32.6181 	 75.4769
|  8> C 	 -36.7786 	 34.2933 	 76.02
|  9> C 	 -36.7033 	 34.3167 	 77.3925
| 10> C 	 -36.5408 	 33.0668 	 78.0044
| 11> C 	 -36.606 	 31.9759 	 77.1442
| 12> H 	 -36.5036 	 32.9465 	 79.0959
| 13> C 	 -36.7214 	 35.6779 	 78.0899
| 14> H 	 -37.1526 	 36.4147 	 77.383
| 15> H 	 -35.7207 	 36.1457 	 78.1615
| 16> C 	 -37.3611 	 35.7227 	 79.4096
| 17> H 	 -36.8075 	 35.1317 	 80.1151
| 18> H 	 -37.3498 	 36.8091 	 79.7395
| 19> C 	 -38.8426 	 35.3606 	 79.3463
| 20> H 	 -39.3885 	 36.1044 	 78.8293
| 21> H 	 -39.1552 	 34.4194 	 78.9169
| 22> H 	 -39.1233 	 35.4467 	 80.3667
| 23> S 	 -35.5975 	 29.6938 	 76.1775
| 24> C 	 -35.3569 	 28.2665 	 77.2084
| 25> C 	 -35.8784 	 28.5182 	 78.4148
| 26> C 	 -36.5114 	 29.8525 	 78.5839
| 27> C 	 -36.432 	 30.5673 	 77.4156
| 28> H 	 -35.848 	 27.6163 	 79.121
| 29> C 	 -37.3857 	 30.0332 	 79.6995
| 30> H 	 -37.0992 	 31.0071 	 80.1833
| 31> H 	 -37.2813 	 29.3552 	 80.6101
| 32> C 	 -38.815 	 30.1384 	 79.2895
| 33> H 	 -38.9188 	 30.9585 	 78.5871
| 34> H 	 -39.5046 	 30.433 	 80.1058
| 35> C 	 -39.339 	 28.8556 	 78.6399
| 36> H 	 -38.9152 	 28.6715 	 77.7133
| 37> H 	 -40.4323 	 28.9733 	 78.359
| 38> H 	 -39.3373 	 27.8864 	 79.1738
| 39> H 	 -36.6491 	 35.2363 	 75.4052
| 40> H 	 -34.8932 	 27.3486 	 76.8914
| 41> *
| 42>
| 43>                          ****END OF INPUT****

CARTESIAN COORDINATES (ANGSTROEM)
---------------------------------
  S    -36.853200   32.618100   75.476900
  C    -36.778600   34.293300   76.020000
  C    -36.703300   34.316700   77.392500
  C    -36.540800   33.066800   78.004400
  C    -36.606000   31.975900   77.144200
  H    -36.503600   32.946500   79.095900
  C    -36.721400   35.677900   78.089900
  H    -37.152600   36.414700   77.383000
  H    -35.720700   36.145700   78.161500
  C    -37.361100   35.722700   79.409600
  H    -36.807500   35.131700   80.115100
  H    -37.349800   36.809100   79.739500
  C    -38.842600   35.360600   79.346300
  H    -39.388500   36.104400   78.829300
  H    -39.155200   34.419400   78.916900
  H    -39.123300   35.446700   80.366700
  S    -35.597500   29.693800   76.177500
  C    -35.356900   28.266500   77.208400
  C    -35.878400   28.518200   78.414800
  C    -36.511400   29.852500   78.583900
  C    -36.432000   30.567300   77.415600
  H    -35.848000   27.616300   79.121000
  C    -37.385700   30.033200   79.699500
  H    -37.099200   31.007100   80.183300
  H    -37.281300   29.355200   80.610100
  C    -38.815000   30.138400   79.289500
  H    -38.918800   30.958500   78.587100
  H    -39.504600   30.433000   80.105800
  C    -39.339000   28.855600   78.639900
  H    -38.915200   28.671500   77.713300
  H    -40.432300   28.973300   78.359000
  H    -39.337300   27.886400   79.173800
  H    -36.649100   35.236300   75.405200
  H    -34.893200   27.348600   76.891400

 Total Charge           Charge          ....    0
 Multiplicity           Mult            ....    1
 Number of Electrons    NEL             ....  134
 Basis Dimension        Dim             ....  322

ORBITAL ENERGIES
----------------

  NO   OCC          E(Eh)            E(eV)
   0   2.0000     -88.966673     -2420.9062
   1   2.0000     -88.961356     -2420.7616
   2   2.0000     -10.338124      -281.3147
   3   2.0000     -10.329126      -281.0698
   4   2.0000     -10.317545      -280.7547
   5   2.0000     -10.316488      -280.7259
   6   2.0000     -10.305718      -280.4328
   7   2.0000     -10.299970      -280.2764
   8   2.0000     -10.297704      -280.2148
   9   2.0000     -10.297102      -280.1984
  10   2.0000     -10.293092      -280.0893
  11   2.0000     -10.288138      -279.9545
  12   2.0000     -10.286330      -279.9053
  13   2.0000     -10.284707      -279.8611
  14   2.0000     -10.270316      -279.4695
  15   2.0000     -10.266630      -279.3692
  16   2.0000      -8.080206      -219.8736
  17   2.0000      -8.076589      -219.7751
  18   2.0000      -6.038910      -164.3271
  19   2.0000      -6.035318      -164.2294
  20   2.0000      -6.034843      -164.2164
  21   2.0000      -6.030977      -164.1112
  22   2.0000      -6.030857      -164.1080
  23   2.0000      -6.027101      -164.0058
  24   2.0000      -1.010527       -27.4978
  25   2.0000      -0.984924       -26.8011
  26   2.0000      -0.922075       -25.0909
  27   2.0000      -0.918723       -24.9997
  28   2.0000      -0.876658       -23.8551
  29   2.0000      -0.847264       -23.0552
  30   2.0000      -0.838828       -22.8257
  31   2.0000      -0.822332       -22.3768
  32   2.0000      -0.785059       -21.3625
  33   2.0000      -0.776549       -21.1310
  34   2.0000      -0.719938       -19.5905
  35   2.0000      -0.696865       -18.9627
  36   2.0000      -0.684423       -18.6241
  37   2.0000      -0.661880       -18.0107
  38   2.0000      -0.636517       -17.3205
  39   2.0000      -0.624264       -16.9871
  40   2.0000      -0.596438       -16.2299
  41   2.0000      -0.567891       -15.4531
  42   2.0000      -0.556308       -15.1379
  43   2.0000      -0.554320       -15.0838
  44   2.0000      -0.552618       -15.0375
  45   2.0000      -0.542368       -14.7586
  46   2.0000      -0.520922       -14.1750
  47   2.0000      -0.510434       -13.8896
  48   2.0000      -0.502209       -13.6658
  49   2.0000      -0.498971       -13.5777
  50   2.0000      -0.488967       -13.3055
  51   2.0000      -0.486761       -13.2454
  52   2.0000      -0.476629       -12.9697
  53   2.0000      -0.466185       -12.6855
  54   2.0000      -0.459248       -12.4968
  55   2.0000      -0.442388       -12.0380
  56   2.0000      -0.433877       -11.8064
  57   2.0000      -0.430815       -11.7231
  58   2.0000      -0.427344       -11.6286
  59   2.0000      -0.421909       -11.4807
  60   2.0000      -0.416793       -11.3415
  61   2.0000      -0.412660       -11.2290
  62   2.0000      -0.408106       -11.1051
  63   2.0000      -0.361486        -9.8365
  64   2.0000      -0.334209        -9.0943
  65   2.0000      -0.322699        -8.7811
  66   2.0000      -0.286972        -7.8089
  67   0.0000       0.015828         0.4307
  68   0.0000       0.083067         2.2604
  69   0.0000       0.100954         2.7471
  70   0.0000       0.119884         3.2622
  71   0.0000       0.129391         3.5209

MULLIKEN ATOMIC CHARGES
-----------------------
   0 S :    0.094289
   1 C :   -0.141731
   2 C :   -0.098190
   3 C :    0.021480
   4 C :   -0.122864
   5 H :    0.012339
   6 C :    0.068196
   7 H :    0.007025
   8 H :    0.035079
   9 C :   -0.098690
  10 H :    0.031313
  11 H :    0.035648
  12 C :   -0.016372
  13 H :    0.013802
  14 H :    0.043017
  15 H :    0.020132
  16 S :    0.081558
  17 C :   -0.087637
  18 C :   -0.053194
  19 C :   -0.041263
  20 C :   -0.109499
  21 H :    0.046850
  22 C :    0.027881
  23 H :    0.022861
  24 H :    0.038186
  25 C :   -0.047248
  26 H :    0.032840
  27 H :    0.029205
  28 C :   -0.058435
  29 H :    0.023614
  30 H :    0.027243
  31 H :    0.030872
  32 H :    0.076513
  33 H :    0.055182
Sum of atomic charges:    0.0000000

LOEWDIN ATOMIC CHARGES
----------------------
   0 S :    0.376703
   1 C :   -0.203454
   2 C :   -0.069703
   3 C :   -0.068217
   4 C :   -0.170781
   5 H :    0.032612
   6 C :   -0.042341
   7 H :    0.028974
   8 H :    0.033328
   9 C :   -0.044839
  10 H :    0.018580
  11 H :    0.038229
  12 C :   -0.058853
  13 H :    0.021015
  14 H :    0.024637
  15 H :    0.023676
  16 S :    0.394738
  17 C :   -0.173268
  18 C :   -0.075426
  19 C :   -0.057726
  20 C :   -0.198152
  21 H :    0.045963
  22 C :   -0.049904
  23 H :    0.034025
  24 H :    0.040494
  25 C :   -0.037704
  26 H :    0.027216
  27 H :    0.027141
  28 C :   -0.072032
  29 H :    0.015316
  30 H :    0.033392
  31 H :    0.026317
  32 H :    0.048423
  33 H :    0.031619

  Mayer bond orders larger than 0.100000
B(  0-S ,  1-C ) :   1.1295 B(  0-S ,  4-C ) :   1.1398 B(  1-C ,  2-C ) :   1.6114
B(  1-C ,  4-C ) :   0.1038 B(  1-C , 32-H ) :   0.9562 B(  2-C ,  3-C ) :   1.2772
B(  2-C ,  6-C ) :   1.0077 B(  3-C ,  4-C ) :   1.5573 B(  3-C ,  5-H ) :   0.9812
B(  4-C , 20-C ) :   1.0660 B(  6-C ,  7-H ) :   0.9381 B(  6-C ,  8-H ) :   0.9308
B(  6-C ,  9-C ) :   1.0966 B(  9-C , 10-H ) :   0.9507 B(  9-C , 11-H ) :   0.9472
B(  9-C , 12-C ) :   1.0779 B( 12-C , 13-H ) :   0.9714 B( 12-C , 14-H ) :   0.9755
B( 12-C , 15-H ) :   0.9742 B( 16-S , 17-C ) :   1.1217 B( 16-S , 20-C ) :   1.1275
B( 17-C , 18-C ) :   1.6706 B( 17-C , 33-H ) :   0.9701 B( 18-C , 19-C ) :   1.1872
B( 18-C , 21-H ) :   0.9759 B( 19-C , 20-C ) :   1.5918 B( 19-C , 22-C ) :   1.0701
B( 22-C , 23-H ) :   0.9103 B( 22-C , 24-H ) :   0.9394 B( 22-C , 25-C ) :   1.0889
B( 25-C , 26-H ) :   0.9455 B( 25-C , 27-H ) :   0.9538 B( 25-C , 28-C ) :   1.0737
B( 28-C , 29-H ) :   0.9731 B( 28-C , 30-H ) :   0.9707 B( 28-C , 31-H ) :   0.9761

Dispersion correction           -0.015530101
FINAL SINGLE POINT ENERGY     -1339.859781583577

DIPOLE MOMENT
-------------
                                X             Y             Z
Electronic contribution:     14.50754      -8.88380     -19.56382
Nuclear contribution   :    -14.61192       9.04825      20.18861
                        -----------------------------------------
Total Dipole Moment    :     -0.10438       0.16444       0.62479
                        -----------------------------------------
Magnitude (a.u.)       :      0.65444
Magnitude (Debye)      :      1.66346

Rotational constants in cm-1:     0.020869     0.009520     0.007529
Rotational constants in MHz :   625.645187   285.395223   225.722234

                             ****ORCA TERMINATED NORMALLY****
TOTAL RUN TIME: 0 days 0 hours 0 minutes 33 seconds 808 msec
