                         Program Version 4.2.1 -  RELEASE  -
|  1> ! wB97X-D3 SP def2-SVP
|  2> %pal
|  3> nprocs 16
|  4> end
|  5>
|  6> * xyz 0 1
|  7> S 	 54.0987 	 13.8629 	 74.9131
|  8> C 	 55.3772 	 15.0655 	 74.939
|  9> C 	 56.6578 	 14.5867 	 75.2099
| 10> C 	 56.5463 	 13.1584 	 75.401
| 11> C 	 55.2826 	 12.6623 	 75.3018
| 12> H 	 57.3567 	 12.4118 	 75.5935
| 13> C 	 57.912 	 15.4307 	 75.3987
| 14> H 	 57.8179 	 16.2205 	 74.6706
| 15> H 	 58.8415 	 14.8013 	 75.2424
| 16> C 	 58.0583 	 16.0506 	 76.8067
| 17> H 	 58.6933 	 15.4522 	 77.3858
| 18> H 	 58.7075 	 16.9459 	 76.6346
| 19> C 	 56.6983 	 16.4108 	 77.5668
| 20> H 	 55.9552 	 17.0144 	 76.9796
| 21> H 	 56.1744 	 15.3988 	 77.7993
| 22> H 	 57.0036 	 17.0182 	 78.4494
| 23> S 	 53.8629 	 10.9092 	 76.8599
| 24> C 	 53.6464 	 9.293 	 76.3568
| 25> C 	 54.442 	 8.98981 	 75.2383
| 26> C 	 55.1511 	 10.1293 	 74.7575
| 27> C 	 54.865 	 11.2634 	 75.4823
| 28> H 	 54.5985 	 7.97646 	 74.909
| 29> C 	 56.1416 	 9.91209 	 73.6163
| 30> H 	 56.693 	 10.7868 	 73.4654
| 31> H 	 55.5905 	 9.70339 	 72.7187
| 32> C 	 57.1119 	 8.74567 	 73.8776
| 33> H 	 56.6143 	 7.76337 	 73.8581
| 34> H 	 57.5853 	 8.80911 	 74.8447
| 35> C 	 58.3219 	 8.63434 	 72.8842
| 36> H 	 57.9666 	 8.92633 	 71.8825
| 37> H 	 58.7633 	 7.62039 	 72.8191
| 38> H 	 58.9644 	 9.48855 	 73.0541
| 39> H 	 55.236 	 16.1236 	 74.6032
| 40> H 	 53.2385 	 8.40783 	 76.8705
| 41> *
| 42>
| 43>                          ****END OF INPUT****

CARTESIAN COORDINATES (ANGSTROEM)
---------------------------------
  S     54.098700   13.862900   74.913100
  C     55.377200   15.065500   74.939000
  C     56.657800   14.586700   75.209900
  C     56.546300   13.158400   75.401000
  C     55.282600   12.662300   75.301800
  H     57.356700   12.411800   75.593500
  C     57.912000   15.430700   75.398700
  H     57.817900   16.220500   74.670600
  H     58.841500   14.801300   75.242400
  C     58.058300   16.050600   76.806700
  H     58.693300   15.452200   77.385800
  H     58.707500   16.945900   76.634600
  C     56.698300   16.410800   77.566800
  H     55.955200   17.014400   76.979600
  H     56.174400   15.398800   77.799300
  H     57.003600   17.018200   78.449400
  S     53.862900   10.909200   76.859900
  C     53.646400    9.293000   76.356800
  C     54.442000    8.989810   75.238300
  C     55.151100   10.129300   74.757500
  C     54.865000   11.263400   75.482300
  H     54.598500    7.976460   74.909000
  C     56.141600    9.912090   73.616300
  H     56.693000   10.786800   73.465400
  H     55.590500    9.703390   72.718700
  C     57.111900    8.745670   73.877600
  H     56.614300    7.763370   73.858100
  H     57.585300    8.809110   74.844700
  C     58.321900    8.634340   72.884200
  H     57.966600    8.926330   71.882500
  H     58.763300    7.620390   72.819100
  H     58.964400    9.488550   73.054100
  H     55.236000   16.123600   74.603200
  H     53.238500    8.407830   76.870500

 Total Charge           Charge          ....    0
 Multiplicity           Mult            ....    1
 Number of Electrons    NEL             ....  134
 Basis Dimension        Dim             ....  322

ORBITAL ENERGIES
----------------

  NO   OCC          E(Eh)            E(eV)
   0   2.0000     -88.968035     -2420.9433
   1   2.0000     -88.967381     -2420.9255
   2   2.0000     -10.323198      -280.9085
   3   2.0000     -10.322148      -280.8799
   4   2.0000     -10.316690      -280.7314
   5   2.0000     -10.314750      -280.6786
   6   2.0000     -10.304546      -280.4010
   7   2.0000     -10.299898      -280.2745
   8   2.0000     -10.299436      -280.2619
   9   2.0000     -10.295703      -280.1603
  10   2.0000     -10.292492      -280.0729
  11   2.0000     -10.289746      -279.9982
  12   2.0000     -10.288836      -279.9735
  13   2.0000     -10.287929      -279.9488
  14   2.0000     -10.287531      -279.9380
  15   2.0000     -10.282046      -279.7887
  16   2.0000      -8.082999      -219.9496
  17   2.0000      -8.082701      -219.9415
  18   2.0000      -6.041439      -164.3959
  19   2.0000      -6.041131      -164.3875
  20   2.0000      -6.037581      -164.2909
  21   2.0000      -6.037109      -164.2781
  22   2.0000      -6.033712      -164.1856
  23   2.0000      -6.033528      -164.1806
  24   2.0000      -1.009213       -27.4621
  25   2.0000      -0.985876       -26.8270
  26   2.0000      -0.909075       -24.7372
  27   2.0000      -0.906857       -24.6768
  28   2.0000      -0.861235       -23.4354
  29   2.0000      -0.849762       -23.1232
  30   2.0000      -0.841953       -22.9107
  31   2.0000      -0.807511       -21.9735
  32   2.0000      -0.783036       -21.3075
  33   2.0000      -0.773398       -21.0452
  34   2.0000      -0.705379       -19.1943
  35   2.0000      -0.699647       -19.0384
  36   2.0000      -0.688684       -18.7401
  37   2.0000      -0.656740       -17.8708
  38   2.0000      -0.638095       -17.3635
  39   2.0000      -0.614492       -16.7212
  40   2.0000      -0.592709       -16.1284
  41   2.0000      -0.567934       -15.4543
  42   2.0000      -0.559039       -15.2122
  43   2.0000      -0.549834       -14.9617
  44   2.0000      -0.540399       -14.7050
  45   2.0000      -0.526611       -14.3298
  46   2.0000      -0.516212       -14.0468
  47   2.0000      -0.510698       -13.8968
  48   2.0000      -0.497967       -13.5504
  49   2.0000      -0.488132       -13.2827
  50   2.0000      -0.483214       -13.1489
  51   2.0000      -0.474568       -12.9136
  52   2.0000      -0.468661       -12.7529
  53   2.0000      -0.461766       -12.5653
  54   2.0000      -0.456749       -12.4288
  55   2.0000      -0.453005       -12.3269
  56   2.0000      -0.448567       -12.2061
  57   2.0000      -0.437301       -11.8996
  58   2.0000      -0.432062       -11.7570
  59   2.0000      -0.423535       -11.5250
  60   2.0000      -0.420277       -11.4363
  61   2.0000      -0.419304       -11.4098
  62   2.0000      -0.411710       -11.2032
  63   2.0000      -0.338365        -9.2074
  64   2.0000      -0.333642        -9.0789
  65   2.0000      -0.327071        -8.9001
  66   2.0000      -0.298819        -8.1313
  67   0.0000       0.043858         1.1934
  68   0.0000       0.061772         1.6809
  69   0.0000       0.112711         3.0670
  70   0.0000       0.118282         3.2186
  71   0.0000       0.128981         3.5097

MULLIKEN ATOMIC CHARGES
-----------------------
   0 S :    0.133748
   1 C :   -0.142508
   2 C :   -0.120872
   3 C :    0.030124
   4 C :   -0.179868
   5 H :    0.023575
   6 C :    0.090236
   7 H :    0.025608
   8 H :    0.038409
   9 C :   -0.081225
  10 H :    0.018716
  11 H :    0.029335
  12 C :   -0.086659
  13 H :    0.039286
  14 H :    0.070168
  15 H :    0.049034
  16 S :    0.133562
  17 C :   -0.085838
  18 C :   -0.067168
  19 C :   -0.022390
  20 C :   -0.207323
  21 H :    0.016655
  22 C :    0.159150
  23 H :   -0.003284
  24 H :    0.029909
  25 C :   -0.129110
  26 H :    0.031700
  27 H :    0.032915
  28 C :   -0.044142
  29 H :    0.012689
  30 H :    0.055622
  31 H :    0.026157
  32 H :    0.059739
  33 H :    0.064053
Sum of atomic charges:   -0.0000000

LOEWDIN ATOMIC CHARGES
----------------------
   0 S :    0.415427
   1 C :   -0.201803
   2 C :   -0.065089
   3 C :   -0.068376
   4 C :   -0.208191
   5 H :    0.038184
   6 C :   -0.031936
   7 H :    0.029018
   8 H :    0.040809
   9 C :   -0.041927
  10 H :    0.014608
  11 H :    0.028251
  12 C :   -0.077386
  13 H :    0.025918
  14 H :    0.042886
  15 H :    0.030266
  16 S :    0.435547
  17 C :   -0.211228
  18 C :   -0.071231
  19 C :   -0.052687
  20 C :   -0.214268
  21 H :    0.027017
  22 C :   -0.019391
  23 H :    0.018983
  24 H :    0.034181
  25 C :   -0.040976
  26 H :    0.021410
  27 H :    0.021990
  28 C :   -0.071029
  29 H :    0.022678
  30 H :    0.034131
  31 H :    0.023956
  32 H :    0.031303
  33 H :    0.038958

  Mayer bond orders larger than 0.100000
B(  0-S ,  1-C ) :   1.1438 B(  0-S ,  4-C ) :   1.1497 B(  1-C ,  2-C ) :   1.6234
B(  1-C , 32-H ) :   0.9541 B(  2-C ,  3-C ) :   1.2116 B(  2-C ,  6-C ) :   1.0335
B(  3-C ,  4-C ) :   1.6249 B(  3-C ,  5-H ) :   0.9863 B(  4-C , 20-C ) :   0.9939
B(  6-C ,  7-H ) :   0.9327 B(  6-C ,  8-H ) :   0.9452 B(  6-C ,  9-C ) :   1.0566
B(  9-C , 10-H ) :   0.9596 B(  9-C , 11-H ) :   0.9581 B(  9-C , 12-C ) :   1.0742
B( 12-C , 13-H ) :   0.9749 B( 12-C , 14-H ) :   0.9648 B( 12-C , 15-H ) :   0.9729
B( 16-S , 17-C ) :   1.1673 B( 16-S , 20-C ) :   1.1584 B( 17-C , 18-C ) :   1.6002
B( 17-C , 33-H ) :   0.9594 B( 18-C , 19-C ) :   1.2540 B( 18-C , 21-H ) :   0.9862
B( 19-C , 20-C ) :   1.6043 B( 19-C , 22-C ) :   1.0441 B( 22-C , 23-H ) :   0.9329
B( 22-C , 24-H ) :   0.9197 B( 22-C , 25-C ) :   1.0621 B( 25-C , 26-H ) :   0.9532
B( 25-C , 27-H ) :   0.9630 B( 25-C , 28-C ) :   1.0802 B( 28-C , 29-H ) :   0.9717
B( 28-C , 30-H ) :   0.9755 B( 28-C , 31-H ) :   0.9738

Dispersion correction           -0.014407402
FINAL SINGLE POINT ENERGY     -1339.872478740388

DIPOLE MOMENT
-------------
                                X             Y             Z
Electronic contribution:    -21.87895      -0.77555       4.47740
Nuclear contribution   :     22.52630       0.66930      -4.61153
                        -----------------------------------------
Total Dipole Moment    :      0.64735      -0.10625      -0.13413
                        -----------------------------------------
Magnitude (a.u.)       :      0.66958
Magnitude (Debye)      :      1.70195

Rotational constants in cm-1:     0.019190     0.008255     0.006663
Rotational constants in MHz :   575.298756   247.469488   199.760101

                             ****ORCA TERMINATED NORMALLY****
TOTAL RUN TIME: 0 days 0 hours 0 minutes 29 seconds 967 msec
