                         Program Version 4.2.1 -  RELEASE  -
|  1> ! wB97X-D3 SP def2-SVP
|  2> %pal
|  3> nprocs 16
|  4> end
|  5>
|  6> * xyz 0 1
|  7> S 	 68.7475 	 16.5151 	 75.2908
|  8> C 	 67.6291 	 15.4225 	 74.4542
|  9> C 	 66.3375 	 15.7598 	 74.6734
| 10> C 	 66.2401 	 16.8191 	 75.5888
| 11> C 	 67.4407 	 17.3383 	 76.0152
| 12> H 	 65.29 	 17.2178 	 75.8979
| 13> C 	 65.0072 	 15.0472 	 74.2804
| 14> H 	 65.2203 	 14.3591 	 73.4316
| 15> H 	 64.1791 	 15.7801 	 74.0062
| 16> C 	 64.2762 	 14.1738 	 75.3156
| 17> H 	 64.08 	 14.8163 	 76.2363
| 18> H 	 63.3944 	 13.7977 	 74.8783
| 19> C 	 65.1659 	 12.8918 	 75.6804
| 20> H 	 64.6484 	 12.4623 	 76.5248
| 21> H 	 65.1757 	 12.1474 	 74.8483
| 22> H 	 66.1686 	 13.0791 	 75.9853
| 23> S 	 69.0226 	 19.545 	 76.2699
| 24> C 	 68.2475 	 20.8988 	 77.1653
| 25> C 	 67.0495 	 20.5804 	 77.7529
| 26> C 	 66.6842 	 19.2079 	 77.5989
| 27> C 	 67.633 	 18.5997 	 76.7398
| 28> H 	 66.6001 	 21.3986 	 78.2655
| 29> C 	 65.4116 	 18.6768 	 78.2479
| 30> H 	 65.3238 	 17.6101 	 78.1045
| 31> H 	 64.5635 	 19.0385 	 77.7118
| 32> C 	 65.1242 	 18.9476 	 79.7084
| 33> H 	 64.2458 	 18.3515 	 80.0045
| 34> H 	 64.8998 	 20.055 	 79.8393
| 35> C 	 66.3454 	 18.4478 	 80.6406
| 36> H 	 67.1888 	 19.0958 	 80.3849
| 37> H 	 66.7674 	 17.4944 	 80.3766
| 38> H 	 66.1603 	 18.5582 	 81.7077
| 39> H 	 67.9274 	 14.4908 	 73.9872
| 40> H 	 68.6959 	 21.9266 	 77.1888
| 41> *
| 42>
| 43>                          ****END OF INPUT****

CARTESIAN COORDINATES (ANGSTROEM)
---------------------------------
  S     68.747500   16.515100   75.290800
  C     67.629100   15.422500   74.454200
  C     66.337500   15.759800   74.673400
  C     66.240100   16.819100   75.588800
  C     67.440700   17.338300   76.015200
  H     65.290000   17.217800   75.897900
  C     65.007200   15.047200   74.280400
  H     65.220300   14.359100   73.431600
  H     64.179100   15.780100   74.006200
  C     64.276200   14.173800   75.315600
  H     64.080000   14.816300   76.236300
  H     63.394400   13.797700   74.878300
  C     65.165900   12.891800   75.680400
  H     64.648400   12.462300   76.524800
  H     65.175700   12.147400   74.848300
  H     66.168600   13.079100   75.985300
  S     69.022600   19.545000   76.269900
  C     68.247500   20.898800   77.165300
  C     67.049500   20.580400   77.752900
  C     66.684200   19.207900   77.598900
  C     67.633000   18.599700   76.739800
  H     66.600100   21.398600   78.265500
  C     65.411600   18.676800   78.247900
  H     65.323800   17.610100   78.104500
  H     64.563500   19.038500   77.711800
  C     65.124200   18.947600   79.708400
  H     64.245800   18.351500   80.004500
  H     64.899800   20.055000   79.839300
  C     66.345400   18.447800   80.640600
  H     67.188800   19.095800   80.384900
  H     66.767400   17.494400   80.376600
  H     66.160300   18.558200   81.707700
  H     67.927400   14.490800   73.987200
  H     68.695900   21.926600   77.188800

 Total Charge           Charge          ....    0
 Multiplicity           Mult            ....    1
 Number of Electrons    NEL             ....  134
 Basis Dimension        Dim             ....  322

ORBITAL ENERGIES
----------------

  NO   OCC          E(Eh)            E(eV)
   0   2.0000     -88.971012     -2421.0243
   1   2.0000     -88.966317     -2420.8966
   2   2.0000     -10.332143      -281.1519
   3   2.0000     -10.324737      -280.9504
   4   2.0000     -10.321215      -280.8546
   5   2.0000     -10.313426      -280.6426
   6   2.0000     -10.310295      -280.5574
   7   2.0000     -10.301884      -280.3285
   8   2.0000     -10.299809      -280.2721
   9   2.0000     -10.298592      -280.2389
  10   2.0000     -10.295337      -280.1504
  11   2.0000     -10.293628      -280.1039
  12   2.0000     -10.291583      -280.0482
  13   2.0000     -10.284972      -279.8683
  14   2.0000     -10.277824      -279.6738
  15   2.0000     -10.276561      -279.6394
  16   2.0000      -8.085207      -220.0097
  17   2.0000      -8.081726      -219.9149
  18   2.0000      -6.043653      -164.4562
  19   2.0000      -6.040230      -164.3630
  20   2.0000      -6.040138      -164.3605
  21   2.0000      -6.036217      -164.2538
  22   2.0000      -6.035712      -164.2401
  23   2.0000      -6.032389      -164.1496
  24   2.0000      -1.011650       -27.5284
  25   2.0000      -0.983826       -26.7713
  26   2.0000      -0.910222       -24.7684
  27   2.0000      -0.904749       -24.6195
  28   2.0000      -0.868273       -23.6269
  29   2.0000      -0.848497       -23.0888
  30   2.0000      -0.841419       -22.8962
  31   2.0000      -0.808233       -21.9931
  32   2.0000      -0.784337       -21.3429
  33   2.0000      -0.778353       -21.1801
  34   2.0000      -0.709522       -19.3071
  35   2.0000      -0.696230       -18.9454
  36   2.0000      -0.690685       -18.7945
  37   2.0000      -0.657789       -17.8994
  38   2.0000      -0.633355       -17.2345
  39   2.0000      -0.626575       -17.0500
  40   2.0000      -0.596368       -16.2280
  41   2.0000      -0.565004       -15.3745
  42   2.0000      -0.554501       -15.0887
  43   2.0000      -0.546895       -14.8818
  44   2.0000      -0.542374       -14.7587
  45   2.0000      -0.534428       -14.5425
  46   2.0000      -0.513573       -13.9750
  47   2.0000      -0.511662       -13.9230
  48   2.0000      -0.501246       -13.6396
  49   2.0000      -0.489978       -13.3330
  50   2.0000      -0.487369       -13.2620
  51   2.0000      -0.478027       -13.0078
  52   2.0000      -0.467007       -12.7079
  53   2.0000      -0.464858       -12.6494
  54   2.0000      -0.459733       -12.5100
  55   2.0000      -0.453295       -12.3348
  56   2.0000      -0.450840       -12.2680
  57   2.0000      -0.439603       -11.9622
  58   2.0000      -0.429187       -11.6788
  59   2.0000      -0.425555       -11.5799
  60   2.0000      -0.421675       -11.4744
  61   2.0000      -0.415098       -11.2954
  62   2.0000      -0.411136       -11.1876
  63   2.0000      -0.357482        -9.7276
  64   2.0000      -0.337826        -9.1927
  65   2.0000      -0.332028        -9.0349
  66   2.0000      -0.280825        -7.6416
  67   0.0000       0.021736         0.5915
  68   0.0000       0.078126         2.1259
  69   0.0000       0.092619         2.5203
  70   0.0000       0.120313         3.2739
  71   0.0000       0.129803         3.5321

MULLIKEN ATOMIC CHARGES
-----------------------
   0 S :    0.090289
   1 C :   -0.134041
   2 C :   -0.031412
   3 C :   -0.013658
   4 C :   -0.107481
   5 H :   -0.006388
   6 C :    0.017580
   7 H :    0.022593
   8 H :    0.044598
   9 C :   -0.070265
  10 H :    0.041079
  11 H :    0.031681
  12 C :   -0.072324
  13 H :    0.030189
  14 H :    0.034426
  15 H :    0.038816
  16 S :    0.105275
  17 C :   -0.123293
  18 C :   -0.021435
  19 C :   -0.051511
  20 C :   -0.116051
  21 H :    0.013008
  22 C :    0.070898
  23 H :    0.019706
  24 H :    0.032744
  25 C :   -0.088975
  26 H :    0.039854
  27 H :    0.042817
  28 C :   -0.060094
  29 H :    0.032083
  30 H :    0.031785
  31 H :    0.043533
  32 H :    0.045078
  33 H :    0.068896
Sum of atomic charges:   -0.0000000

LOEWDIN ATOMIC CHARGES
----------------------
   0 S :    0.404645
   1 C :   -0.188036
   2 C :   -0.064640
   3 C :   -0.067828
   4 C :   -0.199297
   5 H :    0.024212
   6 C :   -0.037454
   7 H :    0.028124
   8 H :    0.038750
   9 C :   -0.033455
  10 H :    0.027973
  11 H :    0.020676
  12 C :   -0.067852
  13 H :    0.024300
  14 H :    0.027083
  15 H :    0.019597
  16 S :    0.384078
  17 C :   -0.177675
  18 C :   -0.063865
  19 C :   -0.054062
  20 C :   -0.187876
  21 H :    0.031342
  22 C :   -0.039810
  23 H :    0.028293
  24 H :    0.031723
  25 C :   -0.036007
  26 H :    0.028660
  27 H :    0.027556
  28 C :   -0.071551
  29 H :    0.028366
  30 H :    0.025295
  31 H :    0.025185
  32 H :    0.027851
  33 H :    0.035699

  Mayer bond orders larger than 0.100000
B(  0-S ,  1-C ) :   1.1248 B(  0-S ,  4-C ) :   1.1524 B(  1-C ,  2-C ) :   1.6250
B(  1-C , 32-H ) :   0.9655 B(  2-C ,  3-C ) :   1.2536 B(  2-C ,  6-C ) :   1.0199
B(  3-C ,  4-C ) :   1.5498 B(  3-C ,  5-H ) :   0.9947 B(  4-C , 20-C ) :   1.0504
B(  6-C ,  7-H ) :   0.9424 B(  6-C ,  8-H ) :   0.9427 B(  6-C ,  9-C ) :   1.0754
B(  9-C , 10-H ) :   0.9556 B(  9-C , 11-H ) :   0.9544 B(  9-C , 12-C ) :   1.0647
B( 12-C , 13-H ) :   0.9770 B( 12-C , 14-H ) :   0.9766 B( 12-C , 15-H ) :   0.9810
B( 16-S , 17-C ) :   1.1169 B( 16-S , 20-C ) :   1.1475 B( 17-C , 18-C ) :   1.6617
B( 17-C , 33-H ) :   0.9605 B( 18-C , 19-C ) :   1.1934 B( 18-C , 21-H ) :   0.9923
B( 19-C , 20-C ) :   1.5991 B( 19-C , 22-C ) :   1.0373 B( 22-C , 23-H ) :   0.9276
B( 22-C , 24-H ) :   0.9262 B( 22-C , 25-C ) :   1.0803 B( 25-C , 26-H ) :   0.9552
B( 25-C , 27-H ) :   0.9539 B( 25-C , 28-C ) :   1.0604 B( 28-C , 29-H ) :   0.9721
B( 28-C , 30-H ) :   0.9764 B( 28-C , 31-H ) :   0.9794

Dispersion correction           -0.014619442
FINAL SINGLE POINT ENERGY     -1339.865598348324

DIPOLE MOMENT
-------------
                                X             Y             Z
Electronic contribution:     22.09562      12.11302     -11.41797
Nuclear contribution   :    -22.80868     -12.14301      11.60826
                        -----------------------------------------
Total Dipole Moment    :     -0.71306      -0.02998       0.19030
                        -----------------------------------------
Magnitude (a.u.)       :      0.73863
Magnitude (Debye)      :      1.87744

Rotational constants in cm-1:     0.018749     0.009151     0.006875
Rotational constants in MHz :   562.074859   274.330579   206.122014

                             ****ORCA TERMINATED NORMALLY****
TOTAL RUN TIME: 0 days 0 hours 0 minutes 31 seconds 670 msec
