                         Program Version 4.2.1 -  RELEASE  -
|  1> ! wB97X-D3 SP def2-SVP
|  2> %pal
|  3> nprocs 16
|  4> end
|  5>
|  6> * xyz 0 1
|  7> S 	 -33.1414 	 59.9106 	 110.996
|  8> C 	 -34.7236 	 60.793 	 110.988
|  9> C 	 -35.5741 	 60.2231 	 111.903
| 10> C 	 -34.9263 	 59.1726 	 112.647
| 11> C 	 -33.6025 	 58.9294 	 112.362
| 12> H 	 -35.3597 	 58.6575 	 113.479
| 13> C 	 -37.0567 	 60.5269 	 112.104
| 14> H 	 -37.3114 	 60.8871 	 111.071
| 15> H 	 -37.0614 	 61.4325 	 112.675
| 16> C 	 -38.0122 	 59.4267 	 112.329
| 17> H 	 -37.7666 	 58.672 	 111.558
| 18> H 	 -37.857 	 58.8306 	 113.194
| 19> C 	 -39.4721 	 59.9415 	 112.198
| 20> H 	 -40.1599 	 59.177 	 111.886
| 21> H 	 -39.8457 	 60.1589 	 113.134
| 22> H 	 -39.5626 	 60.8028 	 111.541
| 23> S 	 -32.1132 	 56.7096 	 111.694
| 24> C 	 -31.1314 	 55.9002 	 112.886
| 25> C 	 -31.4521 	 56.3192 	 114.152
| 26> C 	 -32.2805 	 57.4484 	 114.116
| 27> C 	 -32.7405 	 57.8629 	 112.832
| 28> H 	 -30.9374 	 55.8203 	 115.007
| 29> C 	 -32.5795 	 58.1482 	 115.385
| 30> H 	 -33.1087 	 57.4381 	 116.031
| 31> H 	 -33.2194 	 58.942 	 115.111
| 32> C 	 -31.3764 	 58.5763 	 116.318
| 33> H 	 -30.6662 	 59.2475 	 115.887
| 34> H 	 -30.8045 	 57.7037 	 116.595
| 35> C 	 -31.9112 	 59.3691 	 117.483
| 36> H 	 -32.6418 	 58.8428 	 118.068
| 37> H 	 -32.3167 	 60.4111 	 117.208
| 38> H 	 -31.0672 	 59.5707 	 118.156
| 39> H 	 -34.8458 	 61.7354 	 110.445
| 40> H 	 -30.5031 	 55.1153 	 112.658
| 41> *
| 42>
| 43>                          ****END OF INPUT****

CARTESIAN COORDINATES (ANGSTROEM)
---------------------------------
  S    -33.141400   59.910600  110.996000
  C    -34.723600   60.793000  110.988000
  C    -35.574100   60.223100  111.903000
  C    -34.926300   59.172600  112.647000
  C    -33.602500   58.929400  112.362000
  H    -35.359700   58.657500  113.479000
  C    -37.056700   60.526900  112.104000
  H    -37.311400   60.887100  111.071000
  H    -37.061400   61.432500  112.675000
  C    -38.012200   59.426700  112.329000
  H    -37.766600   58.672000  111.558000
  H    -37.857000   58.830600  113.194000
  C    -39.472100   59.941500  112.198000
  H    -40.159900   59.177000  111.886000
  H    -39.845700   60.158900  113.134000
  H    -39.562600   60.802800  111.541000
  S    -32.113200   56.709600  111.694000
  C    -31.131400   55.900200  112.886000
  C    -31.452100   56.319200  114.152000
  C    -32.280500   57.448400  114.116000
  C    -32.740500   57.862900  112.832000
  H    -30.937400   55.820300  115.007000
  C    -32.579500   58.148200  115.385000
  H    -33.108700   57.438100  116.031000
  H    -33.219400   58.942000  115.111000
  C    -31.376400   58.576300  116.318000
  H    -30.666200   59.247500  115.887000
  H    -30.804500   57.703700  116.595000
  C    -31.911200   59.369100  117.483000
  H    -32.641800   58.842800  118.068000
  H    -32.316700   60.411100  117.208000
  H    -31.067200   59.570700  118.156000
  H    -34.845800   61.735400  110.445000
  H    -30.503100   55.115300  112.658000

 Total Charge           Charge          ....    0
 Multiplicity           Mult            ....    1
 Number of Electrons    NEL             ....  134
 Basis Dimension        Dim             ....  322

ORBITAL ENERGIES
----------------

  NO   OCC          E(Eh)            E(eV)
   0   2.0000     -88.962509     -2420.7929
   1   2.0000     -88.961856     -2420.7752
   2   2.0000     -10.329972      -281.0928
   3   2.0000     -10.327039      -281.0130
   4   2.0000     -10.319834      -280.8169
   5   2.0000     -10.310380      -280.5597
   6   2.0000     -10.304579      -280.4019
   7   2.0000     -10.299957      -280.2761
   8   2.0000     -10.292152      -280.0637
   9   2.0000     -10.291942      -280.0580
  10   2.0000     -10.291602      -280.0487
  11   2.0000     -10.287605      -279.9400
  12   2.0000     -10.283167      -279.8192
  13   2.0000     -10.282795      -279.8091
  14   2.0000     -10.279424      -279.7173
  15   2.0000     -10.274098      -279.5724
  16   2.0000      -8.077591      -219.8024
  17   2.0000      -8.076077      -219.7612
  18   2.0000      -6.035964      -164.2469
  19   2.0000      -6.034695      -164.2124
  20   2.0000      -6.031957      -164.1379
  21   2.0000      -6.030641      -164.1021
  22   2.0000      -6.028559      -164.0454
  23   2.0000      -6.026737      -163.9958
  24   2.0000      -1.006357       -27.3844
  25   2.0000      -0.983395       -26.7595
  26   2.0000      -0.919952       -25.0332
  27   2.0000      -0.908042       -24.7091
  28   2.0000      -0.874244       -23.7894
  29   2.0000      -0.853181       -23.2162
  30   2.0000      -0.842107       -22.9149
  31   2.0000      -0.817697       -22.2507
  32   2.0000      -0.785196       -21.3663
  33   2.0000      -0.767279       -20.8787
  34   2.0000      -0.718697       -19.5567
  35   2.0000      -0.702381       -19.1127
  36   2.0000      -0.698447       -19.0057
  37   2.0000      -0.655765       -17.8443
  38   2.0000      -0.644465       -17.5368
  39   2.0000      -0.620352       -16.8806
  40   2.0000      -0.596976       -16.2446
  41   2.0000      -0.574702       -15.6384
  42   2.0000      -0.569152       -15.4874
  43   2.0000      -0.566264       -15.4088
  44   2.0000      -0.533914       -14.5285
  45   2.0000      -0.521268       -14.1844
  46   2.0000      -0.518788       -14.1169
  47   2.0000      -0.512316       -13.9408
  48   2.0000      -0.506869       -13.7926
  49   2.0000      -0.500315       -13.6143
  50   2.0000      -0.494199       -13.4478
  51   2.0000      -0.478758       -13.0277
  52   2.0000      -0.473847       -12.8940
  53   2.0000      -0.470034       -12.7903
  54   2.0000      -0.455551       -12.3962
  55   2.0000      -0.449176       -12.2227
  56   2.0000      -0.441872       -12.0240
  57   2.0000      -0.439826       -11.9683
  58   2.0000      -0.430119       -11.7041
  59   2.0000      -0.426242       -11.5986
  60   2.0000      -0.415240       -11.2992
  61   2.0000      -0.414750       -11.2859
  62   2.0000      -0.410253       -11.1635
  63   2.0000      -0.345624        -9.4049
  64   2.0000      -0.329290        -8.9604
  65   2.0000      -0.324993        -8.8435
  66   2.0000      -0.290879        -7.9152
  67   0.0000       0.029292         0.7971
  68   0.0000       0.066731         1.8159
  69   0.0000       0.114824         3.1245
  70   0.0000       0.120762         3.2861
  71   0.0000       0.136925         3.7259

MULLIKEN ATOMIC CHARGES
-----------------------
   0 S :    0.089278
   1 C :   -0.146286
   2 C :   -0.090469
   3 C :    0.038505
   4 C :   -0.161717
   5 H :    0.003708
   6 C :    0.062372
   7 H :    0.023387
   8 H :    0.037196
   9 C :   -0.061508
  10 H :    0.031763
  11 H :    0.023431
  12 C :   -0.001864
  13 H :    0.025410
  14 H :    0.014315
  15 H :    0.032026
  16 S :    0.103813
  17 C :   -0.071153
  18 C :   -0.045152
  19 C :   -0.034523
  20 C :   -0.134488
  21 H :    0.040875
  22 C :    0.072688
  23 H :    0.026555
  24 H :    0.005298
  25 C :   -0.053699
  26 H :    0.025544
  27 H :    0.022846
  28 C :   -0.069454
  29 H :    0.022489
  30 H :    0.047485
  31 H :    0.029943
  32 H :    0.062503
  33 H :    0.028882
Sum of atomic charges:   -0.0000000

LOEWDIN ATOMIC CHARGES
----------------------
   0 S :    0.381896
   1 C :   -0.181985
   2 C :   -0.060216
   3 C :   -0.063845
   4 C :   -0.196123
   5 H :    0.025884
   6 C :   -0.038478
   7 H :    0.039620
   8 H :    0.029754
   9 C :   -0.041029
  10 H :    0.033411
  11 H :    0.017388
  12 C :   -0.051932
  13 H :    0.028275
  14 H :    0.017764
  15 H :    0.027363
  16 S :    0.417487
  17 C :   -0.168708
  18 C :   -0.077230
  19 C :   -0.058110
  20 C :   -0.213804
  21 H :    0.043006
  22 C :   -0.030765
  23 H :    0.035171
  24 H :    0.021120
  25 C :   -0.035199
  26 H :    0.023115
  27 H :    0.019830
  28 C :   -0.068709
  29 H :    0.016212
  30 H :    0.035884
  31 H :    0.027084
  32 H :    0.033397
  33 H :    0.012471

  Mayer bond orders larger than 0.100000
B(  0-S ,  1-C ) :   1.1231 B(  0-S ,  4-C ) :   1.1473 B(  1-C ,  2-C ) :   1.6269
B(  1-C , 32-H ) :   0.9698 B(  2-C ,  3-C ) :   1.2302 B(  2-C ,  6-C ) :   0.9921
B(  3-C ,  4-C ) :   1.5808 B(  3-C ,  5-H ) :   0.9960 B(  4-C , 20-C ) :   1.0366
B(  6-C ,  7-H ) :   0.9449 B(  6-C ,  8-H ) :   0.9328 B(  6-C ,  9-C ) :   1.0669
B(  9-C , 10-H ) :   0.9545 B(  9-C , 11-H ) :   0.9507 B(  9-C , 12-C ) :   1.0731
B( 12-C , 13-H ) :   0.9723 B( 12-C , 14-H ) :   0.9738 B( 12-C , 15-H ) :   0.9773
B( 16-S , 17-C ) :   1.1762 B( 16-S , 20-C ) :   1.1466 B( 17-C , 18-C ) :   1.5787
B( 17-C , 20-C ) :   0.1060 B( 17-C , 33-H ) :   0.9760 B( 18-C , 19-C ) :   1.2613
B( 18-C , 21-H ) :   0.9865 B( 19-C , 20-C ) :   1.5461 B( 19-C , 22-C ) :   1.0722
B( 22-C , 23-H ) :   0.9266 B( 22-C , 24-H ) :   0.9344 B( 22-C , 25-C ) :   1.0581
B( 25-C , 26-H ) :   0.9551 B( 25-C , 27-H ) :   0.9502 B( 25-C , 28-C ) :   1.0930
B( 28-C , 29-H ) :   0.9740 B( 28-C , 30-H ) :   0.9737 B( 28-C , 31-H ) :   0.9718

Dispersion correction           -0.013154871
FINAL SINGLE POINT ENERGY     -1339.858835990842

DIPOLE MOMENT
-------------
                                X             Y             Z
Electronic contribution:     16.25531      -6.96049     -19.21709
Nuclear contribution   :    -16.66355       6.98507      19.77509
                        -----------------------------------------
Total Dipole Moment    :     -0.40824       0.02459       0.55800
                        -----------------------------------------
Magnitude (a.u.)       :      0.69183
Magnitude (Debye)      :      1.75849

Rotational constants in cm-1:     0.017450     0.007662     0.006444
Rotational constants in MHz :   523.128993   229.699824   193.199619

                             ****ORCA TERMINATED NORMALLY****
TOTAL RUN TIME: 0 days 0 hours 0 minutes 28 seconds 801 msec
