                         Program Version 4.2.1 -  RELEASE  -
|  1> ! wB97X-D3 SP def2-SVP
|  2> %pal
|  3> nprocs 16
|  4> end
|  5>
|  6> * xyz 0 1
|  7> S 	 -47.6798 	 11.0225 	 81.9138
|  8> C 	 -46.7121 	 9.60094 	 81.6858
|  9> C 	 -45.3757 	 9.81871 	 82.1139
| 10> C 	 -45.2542 	 10.9981 	 82.8614
| 11> C 	 -46.4617 	 11.6456 	 83.0659
| 12> H 	 -44.3329 	 11.2712 	 83.3588
| 13> C 	 -44.2049 	 8.87798 	 81.8613
| 14> H 	 -43.5776 	 9.29672 	 81.0727
| 15> H 	 -44.694 	 7.96952 	 81.4431
| 16> C 	 -43.2764 	 8.49744 	 83.0978
| 17> H 	 -42.7401 	 7.66159 	 82.7557
| 18> H 	 -42.6623 	 9.36125 	 83.408
| 19> C 	 -44.0884 	 8.1107 	 84.2944
| 20> H 	 -44.8172 	 8.9307 	 84.4707
| 21> H 	 -44.6757 	 7.24035 	 84.0674
| 22> H 	 -43.4077 	 7.94236 	 85.1707
| 23> S 	 -47.0484 	 14.4386 	 83.0687
| 24> C 	 -47.1158 	 15.2278 	 84.6508
| 25> C 	 -46.6302 	 14.4918 	 85.6867
| 26> C 	 -46.2501 	 13.1985 	 85.1994
| 27> C 	 -46.5415 	 12.937 	 83.8493
| 28> H 	 -46.6496 	 14.9563 	 86.653
| 29> C 	 -45.7433 	 12.0988 	 86.0581
| 30> H 	 -45.8986 	 11.0413 	 85.7425
| 31> H 	 -46.2637 	 12.216 	 87.0218
| 32> C 	 -44.1651 	 12.1374 	 86.329
| 33> H 	 -43.9428 	 13.0345 	 87.0006
| 34> H 	 -43.6178 	 12.2805 	 85.3949
| 35> C 	 -43.6104 	 10.9092 	 87.0124
| 36> H 	 -42.5095 	 11.0502 	 86.9182
| 37> H 	 -43.9821 	 10.0393 	 86.5343
| 38> H 	 -43.8016 	 10.8608 	 88.0986
| 39> H 	 -47.0454 	 8.63568 	 81.2364
| 40> H 	 -47.5372 	 16.2078 	 84.8608
| 41> *
| 42>
| 43>                          ****END OF INPUT****

CARTESIAN COORDINATES (ANGSTROEM)
---------------------------------
  S    -47.679800   11.022500   81.913800
  C    -46.712100    9.600940   81.685800
  C    -45.375700    9.818710   82.113900
  C    -45.254200   10.998100   82.861400
  C    -46.461700   11.645600   83.065900
  H    -44.332900   11.271200   83.358800
  C    -44.204900    8.877980   81.861300
  H    -43.577600    9.296720   81.072700
  H    -44.694000    7.969520   81.443100
  C    -43.276400    8.497440   83.097800
  H    -42.740100    7.661590   82.755700
  H    -42.662300    9.361250   83.408000
  C    -44.088400    8.110700   84.294400
  H    -44.817200    8.930700   84.470700
  H    -44.675700    7.240350   84.067400
  H    -43.407700    7.942360   85.170700
  S    -47.048400   14.438600   83.068700
  C    -47.115800   15.227800   84.650800
  C    -46.630200   14.491800   85.686700
  C    -46.250100   13.198500   85.199400
  C    -46.541500   12.937000   83.849300
  H    -46.649600   14.956300   86.653000
  C    -45.743300   12.098800   86.058100
  H    -45.898600   11.041300   85.742500
  H    -46.263700   12.216000   87.021800
  C    -44.165100   12.137400   86.329000
  H    -43.942800   13.034500   87.000600
  H    -43.617800   12.280500   85.394900
  C    -43.610400   10.909200   87.012400
  H    -42.509500   11.050200   86.918200
  H    -43.982100   10.039300   86.534300
  H    -43.801600   10.860800   88.098600
  H    -47.045400    8.635680   81.236400
  H    -47.537200   16.207800   84.860800

 Total Charge           Charge          ....    0
 Multiplicity           Mult            ....    1
 Number of Electrons    NEL             ....  134
 Basis Dimension        Dim             ....  322

ORBITAL ENERGIES
----------------

  NO   OCC          E(Eh)            E(eV)
   0   2.0000     -88.973626     -2421.0954
   1   2.0000     -88.964057     -2420.8351
   2   2.0000     -10.337305      -281.2924
   3   2.0000     -10.329955      -281.0924
   4   2.0000     -10.322882      -280.8999
   5   2.0000     -10.315026      -280.6861
   6   2.0000     -10.304206      -280.3917
   7   2.0000     -10.303469      -280.3716
   8   2.0000     -10.298955      -280.2488
   9   2.0000     -10.294822      -280.1364
  10   2.0000     -10.294029      -280.1148
  11   2.0000     -10.290505      -280.0189
  12   2.0000     -10.289689      -279.9967
  13   2.0000     -10.288229      -279.9569
  14   2.0000     -10.277384      -279.6618
  15   2.0000     -10.276525      -279.6385
  16   2.0000      -8.087573      -220.0740
  17   2.0000      -8.078278      -219.8211
  18   2.0000      -6.046129      -164.5235
  19   2.0000      -6.042384      -164.4216
  20   2.0000      -6.038128      -164.3058
  21   2.0000      -6.036833      -164.2706
  22   2.0000      -6.033018      -164.1668
  23   2.0000      -6.028874      -164.0540
  24   2.0000      -1.002227       -27.2720
  25   2.0000      -0.983530       -26.7632
  26   2.0000      -0.911346       -24.7990
  27   2.0000      -0.901319       -24.5261
  28   2.0000      -0.866156       -23.5693
  29   2.0000      -0.853986       -23.2381
  30   2.0000      -0.849281       -23.1101
  31   2.0000      -0.819127       -22.2896
  32   2.0000      -0.778103       -21.1733
  33   2.0000      -0.762355       -20.7447
  34   2.0000      -0.702423       -19.1139
  35   2.0000      -0.693502       -18.8712
  36   2.0000      -0.686359       -18.6768
  37   2.0000      -0.656833       -17.8733
  38   2.0000      -0.634949       -17.2778
  39   2.0000      -0.626010       -17.0346
  40   2.0000      -0.593025       -16.1370
  41   2.0000      -0.572736       -15.5849
  42   2.0000      -0.563102       -15.3228
  43   2.0000      -0.556112       -15.1326
  44   2.0000      -0.546068       -14.8593
  45   2.0000      -0.522024       -14.2050
  46   2.0000      -0.518083       -14.0978
  47   2.0000      -0.509350       -13.8601
  48   2.0000      -0.502474       -13.6730
  49   2.0000      -0.495791       -13.4911
  50   2.0000      -0.488148       -13.2832
  51   2.0000      -0.482516       -13.1299
  52   2.0000      -0.465805       -12.6752
  53   2.0000      -0.462535       -12.5862
  54   2.0000      -0.456627       -12.4254
  55   2.0000      -0.451961       -12.2985
  56   2.0000      -0.447539       -12.1781
  57   2.0000      -0.433646       -11.8001
  58   2.0000      -0.430494       -11.7143
  59   2.0000      -0.424559       -11.5528
  60   2.0000      -0.422721       -11.5028
  61   2.0000      -0.419409       -11.4127
  62   2.0000      -0.407344       -11.0844
  63   2.0000      -0.346592        -9.4312
  64   2.0000      -0.332176        -9.0390
  65   2.0000      -0.324894        -8.8408
  66   2.0000      -0.289562        -7.8794
  67   0.0000       0.024780         0.6743
  68   0.0000       0.060207         1.6383
  69   0.0000       0.107031         2.9125
  70   0.0000       0.121072         3.2945
  71   0.0000       0.122545         3.3346

MULLIKEN ATOMIC CHARGES
-----------------------
   0 S :    0.129101
   1 C :   -0.132028
   2 C :   -0.122763
   3 C :    0.037719
   4 C :   -0.135991
   5 H :    0.007260
   6 C :    0.055973
   7 H :    0.051022
   8 H :    0.016077
   9 C :   -0.069660
  10 H :    0.029864
  11 H :    0.038793
  12 C :   -0.064526
  13 H :    0.045876
  14 H :    0.021799
  15 H :    0.054551
  16 S :    0.096901
  17 C :   -0.097709
  18 C :   -0.017745
  19 C :   -0.009013
  20 C :   -0.156298
  21 H :    0.019885
  22 C :    0.021832
  23 H :    0.035537
  24 H :    0.024107
  25 C :   -0.124954
  26 H :    0.032143
  27 H :    0.031608
  28 C :   -0.024415
  29 H :    0.038513
  30 H :    0.013748
  31 H :    0.035427
  32 H :    0.065402
  33 H :    0.051962
Sum of atomic charges:    0.0000000

LOEWDIN ATOMIC CHARGES
----------------------
   0 S :    0.406136
   1 C :   -0.208321
   2 C :   -0.069271
   3 C :   -0.055552
   4 C :   -0.180734
   5 H :    0.030422
   6 C :   -0.033407
   7 H :    0.036465
   8 H :    0.030883
   9 C :   -0.037869
  10 H :    0.021147
  11 H :    0.025617
  12 C :   -0.069664
  13 H :    0.026846
  14 H :    0.021369
  15 H :    0.032216
  16 S :    0.379177
  17 C :   -0.173224
  18 C :   -0.069386
  19 C :   -0.057555
  20 C :   -0.191078
  21 H :    0.037562
  22 C :   -0.041421
  23 H :    0.030665
  24 H :    0.030234
  25 C :   -0.043559
  26 H :    0.027350
  27 H :    0.017368
  28 C :   -0.067292
  29 H :    0.034693
  30 H :    0.015849
  31 H :    0.027457
  32 H :    0.037467
  33 H :    0.029409

  Mayer bond orders larger than 0.100000
B(  0-S ,  1-C ) :   1.1537 B(  0-S ,  4-C ) :   1.1451 B(  1-C ,  2-C ) :   1.5738
B(  1-C ,  4-C ) :   0.1051 B(  1-C , 32-H ) :   0.9590 B(  2-C ,  3-C ) :   1.2665
B(  2-C ,  6-C ) :   1.0249 B(  3-C ,  4-C ) :   1.5381 B(  3-C ,  5-H ) :   0.9932
B(  4-C , 20-C ) :   1.0403 B(  6-C ,  7-H ) :   0.9383 B(  6-C ,  8-H ) :   0.9390
B(  6-C ,  9-C ) :   1.0636 B(  9-C , 10-H ) :   0.9551 B(  9-C , 11-H ) :   0.9519
B(  9-C , 12-C ) :   1.0916 B( 12-C , 13-H ) :   0.9612 B( 12-C , 14-H ) :   0.9679
B( 12-C , 15-H ) :   0.9667 B( 16-S , 17-C ) :   1.1439 B( 16-S , 20-C ) :   1.1193
B( 17-C , 18-C ) :   1.6542 B( 17-C , 33-H ) :   0.9592 B( 18-C , 19-C ) :   1.1995
B( 18-C , 21-H ) :   0.9982 B( 19-C , 20-C ) :   1.6182 B( 19-C , 22-C ) :   1.0600
B( 22-C , 23-H ) :   0.9411 B( 22-C , 24-H ) :   0.9337 B( 22-C , 25-C ) :   1.0435
B( 25-C , 26-H ) :   0.9525 B( 25-C , 27-H ) :   0.9589 B( 25-C , 28-C ) :   1.0852
B( 28-C , 29-H ) :   0.9735 B( 28-C , 30-H ) :   0.9682 B( 28-C , 31-H ) :   0.9721

Dispersion correction           -0.016314824
FINAL SINGLE POINT ENERGY     -1339.864855872979

DIPOLE MOMENT
-------------
                                X             Y             Z
Electronic contribution:    -21.06946      17.84318     -16.33494
Nuclear contribution   :     21.53495     -18.19704      16.66001
                        -----------------------------------------
Total Dipole Moment    :      0.46550      -0.35386       0.32507
                        -----------------------------------------
Magnitude (a.u.)       :      0.66901
Magnitude (Debye)      :      1.70049

Rotational constants in cm-1:     0.017453     0.010973     0.007305
Rotational constants in MHz :   523.233776   328.974966   218.997616

                             ****ORCA TERMINATED NORMALLY****
TOTAL RUN TIME: 0 days 0 hours 0 minutes 33 seconds 68 msec
