                         Program Version 4.2.1 -  RELEASE  -
|  1> ! wB97X-D3 SP def2-SVP
|  2> %pal
|  3> nprocs 16
|  4> end
|  5>
|  6> * xyz 0 1
|  7> S 	 49.576 	 25.3113 	 88.8609
|  8> C 	 49.9569 	 25.3557 	 90.5313
|  9> C 	 50.7975 	 24.3086 	 90.9712
| 10> C 	 51.1339 	 23.5411 	 89.8475
| 11> C 	 50.5842 	 23.9435 	 88.605
| 12> H 	 51.7681 	 22.668 	 89.9251
| 13> C 	 51.1319 	 23.8357 	 92.3801
| 14> H 	 51.6272 	 22.8688 	 92.3606
| 15> H 	 50.1982 	 23.7024 	 92.9637
| 16> C 	 52.0326 	 24.8105 	 93.2009
| 17> H 	 52.5503 	 24.1806 	 93.9334
| 18> H 	 52.8268 	 25.1541 	 92.5741
| 19> C 	 51.2381 	 25.9151 	 93.8995
| 20> H 	 51.8569 	 26.5473 	 94.6576
| 21> H 	 51.0478 	 26.5384 	 93.0653
| 22> H 	 50.3345 	 25.516 	 94.4078
| 23> S 	 49.5729 	 22.9854 	 86.1856
| 24> C 	 50.6285 	 22.2051 	 84.9608
| 25> C 	 51.9174 	 22.3384 	 85.424
| 26> C 	 52.0308 	 22.9121 	 86.7353
| 27> C 	 50.8149 	 23.2982 	 87.3314
| 28> H 	 52.6796 	 21.8947 	 84.9234
| 29> C 	 53.3754 	 23.0485 	 87.3582
| 30> H 	 54.1285 	 22.5341 	 86.7484
| 31> H 	 53.2765 	 22.6031 	 88.3101
| 32> C 	 53.7553 	 24.4955 	 87.657
| 33> H 	 54.7873 	 24.48 	 88.0469
| 34> H 	 53.1933 	 24.8022 	 88.5618
| 35> C 	 53.7384 	 25.5203 	 86.5207
| 36> H 	 54.0236 	 26.5633 	 86.8339
| 37> H 	 52.6521 	 25.6447 	 86.1927
| 38> H 	 54.3451 	 25.0641 	 85.6851
| 39> H 	 49.444 	 25.9909 	 91.3021
| 40> H 	 50.4317 	 21.7049 	 84.0265
| 41> *
| 42>
| 43>                          ****END OF INPUT****

CARTESIAN COORDINATES (ANGSTROEM)
---------------------------------
  S     49.576000   25.311300   88.860900
  C     49.956900   25.355700   90.531300
  C     50.797500   24.308600   90.971200
  C     51.133900   23.541100   89.847500
  C     50.584200   23.943500   88.605000
  H     51.768100   22.668000   89.925100
  C     51.131900   23.835700   92.380100
  H     51.627200   22.868800   92.360600
  H     50.198200   23.702400   92.963700
  C     52.032600   24.810500   93.200900
  H     52.550300   24.180600   93.933400
  H     52.826800   25.154100   92.574100
  C     51.238100   25.915100   93.899500
  H     51.856900   26.547300   94.657600
  H     51.047800   26.538400   93.065300
  H     50.334500   25.516000   94.407800
  S     49.572900   22.985400   86.185600
  C     50.628500   22.205100   84.960800
  C     51.917400   22.338400   85.424000
  C     52.030800   22.912100   86.735300
  C     50.814900   23.298200   87.331400
  H     52.679600   21.894700   84.923400
  C     53.375400   23.048500   87.358200
  H     54.128500   22.534100   86.748400
  H     53.276500   22.603100   88.310100
  C     53.755300   24.495500   87.657000
  H     54.787300   24.480000   88.046900
  H     53.193300   24.802200   88.561800
  C     53.738400   25.520300   86.520700
  H     54.023600   26.563300   86.833900
  H     52.652100   25.644700   86.192700
  H     54.345100   25.064100   85.685100
  H     49.444000   25.990900   91.302100
  H     50.431700   21.704900   84.026500

 Total Charge           Charge          ....    0
 Multiplicity           Mult            ....    1
 Number of Electrons    NEL             ....  134
 Basis Dimension        Dim             ....  322

ORBITAL ENERGIES
----------------

  NO   OCC          E(Eh)            E(eV)
   0   2.0000     -88.977492     -2421.2006
   1   2.0000     -88.965436     -2420.8726
   2   2.0000     -10.332653      -281.1658
   3   2.0000     -10.327700      -281.0310
   4   2.0000     -10.321246      -280.8554
   5   2.0000     -10.319692      -280.8131
   6   2.0000     -10.304534      -280.4006
   7   2.0000     -10.300466      -280.2899
   8   2.0000     -10.299125      -280.2535
   9   2.0000     -10.295241      -280.1477
  10   2.0000     -10.287468      -279.9362
  11   2.0000     -10.286752      -279.9168
  12   2.0000     -10.285851      -279.8922
  13   2.0000     -10.282903      -279.8120
  14   2.0000     -10.282573      -279.8030
  15   2.0000     -10.278956      -279.7046
  16   2.0000      -8.092538      -220.2092
  17   2.0000      -8.079710      -219.8601
  18   2.0000      -6.050850      -164.6520
  19   2.0000      -6.046842      -164.5429
  20   2.0000      -6.043651      -164.4561
  21   2.0000      -6.038406      -164.3134
  22   2.0000      -6.034051      -164.1949
  23   2.0000      -6.030499      -164.0982
  24   2.0000      -1.011871       -27.5344
  25   2.0000      -0.987526       -26.8719
  26   2.0000      -0.914755       -24.8917
  27   2.0000      -0.908266       -24.7152
  28   2.0000      -0.873209       -23.7612
  29   2.0000      -0.856822       -23.3153
  30   2.0000      -0.838996       -22.8302
  31   2.0000      -0.812378       -22.1059
  32   2.0000      -0.785451       -21.3732
  33   2.0000      -0.770253       -20.9597
  34   2.0000      -0.709382       -19.3033
  35   2.0000      -0.700470       -19.0608
  36   2.0000      -0.679531       -18.4910
  37   2.0000      -0.668726       -18.1970
  38   2.0000      -0.639620       -17.4049
  39   2.0000      -0.624815       -17.0021
  40   2.0000      -0.584349       -15.9010
  41   2.0000      -0.580510       -15.7965
  42   2.0000      -0.562669       -15.3110
  43   2.0000      -0.547883       -14.9087
  44   2.0000      -0.543595       -14.7920
  45   2.0000      -0.538316       -14.6483
  46   2.0000      -0.516268       -14.0484
  47   2.0000      -0.512687       -13.9509
  48   2.0000      -0.506335       -13.7781
  49   2.0000      -0.494831       -13.4650
  50   2.0000      -0.490201       -13.3390
  51   2.0000      -0.479636       -13.0516
  52   2.0000      -0.470686       -12.8080
  53   2.0000      -0.468208       -12.7406
  54   2.0000      -0.465587       -12.6693
  55   2.0000      -0.448945       -12.2164
  56   2.0000      -0.443702       -12.0737
  57   2.0000      -0.437443       -11.9034
  58   2.0000      -0.428337       -11.6557
  59   2.0000      -0.421632       -11.4732
  60   2.0000      -0.416559       -11.3351
  61   2.0000      -0.415923       -11.3178
  62   2.0000      -0.399501       -10.8710
  63   2.0000      -0.351567        -9.5666
  64   2.0000      -0.338443        -9.2095
  65   2.0000      -0.325919        -8.8687
  66   2.0000      -0.285757        -7.7758
  67   0.0000       0.021648         0.5891
  68   0.0000       0.069310         1.8860
  69   0.0000       0.108773         2.9599
  70   0.0000       0.123755         3.3675
  71   0.0000       0.131427         3.5763

MULLIKEN ATOMIC CHARGES
-----------------------
   0 S :    0.159462
   1 C :   -0.149236
   2 C :   -0.066213
   3 C :   -0.009769
   4 C :   -0.165563
   5 H :    0.009468
   6 C :    0.040922
   7 H :    0.026606
   8 H :    0.041030
   9 C :   -0.065839
  10 H :    0.020431
  11 H :    0.026729
  12 C :   -0.072270
  13 H :    0.052513
  14 H :    0.030981
  15 H :    0.044978
  16 S :    0.093768
  17 C :   -0.085653
  18 C :    0.004671
  19 C :   -0.088108
  20 C :   -0.122470
  21 H :   -0.020109
  22 C :    0.127695
  23 H :    0.016452
  24 H :    0.007566
  25 C :   -0.105141
  26 H :    0.018757
  27 H :    0.039941
  28 C :   -0.068721
  29 H :    0.047568
  30 H :    0.045715
  31 H :    0.039803
  32 H :    0.067485
  33 H :    0.056551
Sum of atomic charges:   -0.0000000

LOEWDIN ATOMIC CHARGES
----------------------
   0 S :    0.459249
   1 C :   -0.226332
   2 C :   -0.066550
   3 C :   -0.061500
   4 C :   -0.213139
   5 H :    0.025951
   6 C :   -0.025818
   7 H :    0.032405
   8 H :    0.036435
   9 C :   -0.039730
  10 H :    0.019704
  11 H :    0.021150
  12 C :   -0.072945
  13 H :    0.038386
  14 H :    0.020855
  15 H :    0.028712
  16 S :    0.403477
  17 C :   -0.172349
  18 C :   -0.062003
  19 C :   -0.054784
  20 C :   -0.215691
  21 H :    0.012979
  22 C :   -0.030946
  23 H :    0.028901
  24 H :    0.027988
  25 C :   -0.051908
  26 H :    0.021887
  27 H :    0.026217
  28 C :   -0.077375
  29 H :    0.032968
  30 H :    0.031417
  31 H :    0.030239
  32 H :    0.035793
  33 H :    0.036358

  Mayer bond orders larger than 0.100000
B(  0-S ,  1-C ) :   1.1799 B(  0-S ,  4-C ) :   1.1754 B(  1-C ,  2-C ) :   1.5415
B(  1-C ,  4-C ) :   0.1104 B(  1-C , 32-H ) :   0.9502 B(  2-C ,  3-C ) :   1.3302
B(  2-C ,  6-C ) :   1.0178 B(  3-C ,  4-C ) :   1.4952 B(  3-C ,  5-H ) :   0.9915
B(  4-C , 20-C ) :   1.0764 B(  6-C ,  7-H ) :   0.9443 B(  6-C ,  8-H ) :   0.9424
B(  6-C ,  9-C ) :   1.0635 B(  9-C , 10-H ) :   0.9580 B(  9-C , 11-H ) :   0.9599
B(  9-C , 12-C ) :   1.0624 B( 12-C , 13-H ) :   0.9719 B( 12-C , 14-H ) :   0.9761
B( 12-C , 15-H ) :   0.9751 B( 16-S , 17-C ) :   1.1509 B( 16-S , 20-C ) :   1.1322
B( 17-C , 18-C ) :   1.5894 B( 17-C , 20-C ) :   0.1013 B( 17-C , 33-H ) :   0.9693
B( 18-C , 19-C ) :   1.2725 B( 18-C , 21-H ) :   0.9995 B( 19-C , 20-C ) :   1.5368
B( 19-C , 22-C ) :   1.0501 B( 22-C , 23-H ) :   0.9324 B( 22-C , 24-H ) :   0.9193
B( 22-C , 25-C ) :   1.0798 B( 25-C , 26-H ) :   0.9511 B( 25-C , 27-H ) :   0.9487
B( 25-C , 28-C ) :   1.0737 B( 28-C , 29-H ) :   0.9726 B( 28-C , 30-H ) :   0.9703
B( 28-C , 31-H ) :   0.9735

Dispersion correction           -0.015477080
FINAL SINGLE POINT ENERGY     -1339.868661720888

DIPOLE MOMENT
-------------
                                X             Y             Z
Electronic contribution:    -18.54471      -5.59559     -17.39835
Nuclear contribution   :     19.02035       5.35381      17.81143
                        -----------------------------------------
Total Dipole Moment    :      0.47564      -0.24177       0.41308
                        -----------------------------------------
Magnitude (a.u.)       :      0.67477
Magnitude (Debye)      :      1.71514

Rotational constants in cm-1:     0.024170     0.008073     0.007059
Rotational constants in MHz :   724.598384   242.018815   211.624155

                             ****ORCA TERMINATED NORMALLY****
TOTAL RUN TIME: 0 days 0 hours 0 minutes 31 seconds 641 msec
