                         Program Version 4.2.1 -  RELEASE  -
|  1> ! wB97X-D3 SP def2-SVP
|  2> %pal
|  3> nprocs 16
|  4> end
|  5>
|  6> * xyz 0 1
|  7> S 	 -113.985 	 55.5049 	 107.546
|  8> C 	 -113.693 	 53.7679 	 107.428
|  9> C 	 -113.306 	 53.3018 	 108.644
| 10> C 	 -113.42 	 54.2683 	 109.695
| 11> C 	 -113.78 	 55.5226 	 109.279
| 12> H 	 -113.136 	 54.1461 	 110.708
| 13> C 	 -112.928 	 51.8477 	 108.926
| 14> H 	 -113.629 	 51.2045 	 108.436
| 15> H 	 -112.892 	 51.6723 	 109.99
| 16> C 	 -111.547 	 51.3053 	 108.467
| 17> H 	 -111.393 	 50.3106 	 108.886
| 18> H 	 -111.627 	 51.1631 	 107.398
| 19> C 	 -110.347 	 52.2646 	 108.779
| 20> H 	 -110.532 	 52.6741 	 109.781
| 21> H 	 -109.379 	 51.7574 	 108.729
| 22> H 	 -110.249 	 53.108 	 108.092
| 23> S 	 -112.464 	 57.6845 	 110.154
| 24> C 	 -113.32 	 58.9674 	 110.887
| 25> C 	 -114.644 	 58.6411 	 111.229
| 26> C 	 -114.929 	 57.3538 	 110.759
| 27> C 	 -113.924 	 56.7474 	 110.034
| 28> H 	 -115.231 	 59.3048 	 111.777
| 29> C 	 -116.287 	 56.7608 	 111.031
| 30> H 	 -116.544 	 56.3749 	 110.034
| 31> H 	 -117.003 	 57.5133 	 111.267
| 32> C 	 -116.338 	 55.5797 	 112.075
| 33> H 	 -115.694 	 54.8017 	 111.855
| 34> H 	 -117.335 	 55.161 	 112.036
| 35> C 	 -116.095 	 56.0608 	 113.544
| 36> H 	 -115.074 	 56.4135 	 113.608
| 37> H 	 -116.262 	 55.2223 	 114.196
| 38> H 	 -116.791 	 56.8557 	 113.778
| 39> H 	 -113.746 	 53.1244 	 106.562
| 40> H 	 -112.913 	 59.8962 	 111.239
| 41> *
| 42>
| 43>                          ****END OF INPUT****

CARTESIAN COORDINATES (ANGSTROEM)
---------------------------------
  S    -113.985000   55.504900  107.546000
  C    -113.693000   53.767900  107.428000
  C    -113.306000   53.301800  108.644000
  C    -113.420000   54.268300  109.695000
  C    -113.780000   55.522600  109.279000
  H    -113.136000   54.146100  110.708000
  C    -112.928000   51.847700  108.926000
  H    -113.629000   51.204500  108.436000
  H    -112.892000   51.672300  109.990000
  C    -111.547000   51.305300  108.467000
  H    -111.393000   50.310600  108.886000
  H    -111.627000   51.163100  107.398000
  C    -110.347000   52.264600  108.779000
  H    -110.532000   52.674100  109.781000
  H    -109.379000   51.757400  108.729000
  H    -110.249000   53.108000  108.092000
  S    -112.464000   57.684500  110.154000
  C    -113.320000   58.967400  110.887000
  C    -114.644000   58.641100  111.229000
  C    -114.929000   57.353800  110.759000
  C    -113.924000   56.747400  110.034000
  H    -115.231000   59.304800  111.777000
  C    -116.287000   56.760800  111.031000
  H    -116.544000   56.374900  110.034000
  H    -117.003000   57.513300  111.267000
  C    -116.338000   55.579700  112.075000
  H    -115.694000   54.801700  111.855000
  H    -117.335000   55.161000  112.036000
  C    -116.095000   56.060800  113.544000
  H    -115.074000   56.413500  113.608000
  H    -116.262000   55.222300  114.196000
  H    -116.791000   56.855700  113.778000
  H    -113.746000   53.124400  106.562000
  H    -112.913000   59.896200  111.239000

 Total Charge           Charge          ....    0
 Multiplicity           Mult            ....    1
 Number of Electrons    NEL             ....  134
 Basis Dimension        Dim             ....  322

ORBITAL ENERGIES
----------------

  NO   OCC          E(Eh)            E(eV)
   0   2.0000     -88.967138     -2420.9189
   1   2.0000     -88.963743     -2420.8265
   2   2.0000     -10.327260      -281.0190
   3   2.0000     -10.319568      -280.8097
   4   2.0000     -10.314158      -280.6625
   5   2.0000     -10.313778      -280.6522
   6   2.0000     -10.299764      -280.2708
   7   2.0000     -10.299648      -280.2677
   8   2.0000     -10.290809      -280.0271
   9   2.0000     -10.288950      -279.9766
  10   2.0000     -10.287260      -279.9306
  11   2.0000     -10.287033      -279.9244
  12   2.0000     -10.285946      -279.8948
  13   2.0000     -10.279568      -279.7213
  14   2.0000     -10.277641      -279.6688
  15   2.0000     -10.272187      -279.5204
  16   2.0000      -8.082749      -219.9428
  17   2.0000      -8.078358      -219.8233
  18   2.0000      -6.041020      -164.3845
  19   2.0000      -6.037110      -164.2781
  20   2.0000      -6.036928      -164.2732
  21   2.0000      -6.033725      -164.1860
  22   2.0000      -6.032818      -164.1613
  23   2.0000      -6.029092      -164.0599
  24   2.0000      -1.012411       -27.5491
  25   2.0000      -0.989230       -26.9183
  26   2.0000      -0.907767       -24.7016
  27   2.0000      -0.903572       -24.5874
  28   2.0000      -0.870674       -23.6922
  29   2.0000      -0.851040       -23.1580
  30   2.0000      -0.841244       -22.8914
  31   2.0000      -0.815915       -22.2022
  32   2.0000      -0.783691       -21.3253
  33   2.0000      -0.772829       -21.0297
  34   2.0000      -0.710575       -19.3357
  35   2.0000      -0.700216       -19.0539
  36   2.0000      -0.693372       -18.8676
  37   2.0000      -0.669017       -18.2049
  38   2.0000      -0.643538       -17.5116
  39   2.0000      -0.613389       -16.6912
  40   2.0000      -0.590876       -16.0785
  41   2.0000      -0.576847       -15.6968
  42   2.0000      -0.557751       -15.1772
  43   2.0000      -0.547330       -14.8936
  44   2.0000      -0.543326       -14.7847
  45   2.0000      -0.539882       -14.6909
  46   2.0000      -0.523264       -14.2387
  47   2.0000      -0.510060       -13.8794
  48   2.0000      -0.501416       -13.6442
  49   2.0000      -0.496565       -13.5122
  50   2.0000      -0.491219       -13.3667
  51   2.0000      -0.477432       -12.9916
  52   2.0000      -0.471904       -12.8412
  53   2.0000      -0.466931       -12.7059
  54   2.0000      -0.464099       -12.6288
  55   2.0000      -0.447028       -12.1642
  56   2.0000      -0.441724       -12.0199
  57   2.0000      -0.437581       -11.9072
  58   2.0000      -0.431241       -11.7347
  59   2.0000      -0.425423       -11.5764
  60   2.0000      -0.422249       -11.4900
  61   2.0000      -0.412712       -11.2305
  62   2.0000      -0.410652       -11.1744
  63   2.0000      -0.336558        -9.1582
  64   2.0000      -0.328114        -8.9284
  65   2.0000      -0.321081        -8.7371
  66   2.0000      -0.311468        -8.4755
  67   0.0000       0.044640         1.2147
  68   0.0000       0.049346         1.3428
  69   0.0000       0.118570         3.2265
  70   0.0000       0.123245         3.3537
  71   0.0000       0.128975         3.5096

MULLIKEN ATOMIC CHARGES
-----------------------
   0 S :    0.115728
   1 C :   -0.116274
   2 C :   -0.082166
   3 C :    0.073242
   4 C :   -0.178621
   5 H :   -0.003418
   6 C :    0.067295
   7 H :    0.027795
   8 H :    0.018868
   9 C :   -0.081524
  10 H :    0.034307
  11 H :    0.017572
  12 C :   -0.056702
  13 H :    0.025862
  14 H :    0.037415
  15 H :    0.041970
  16 S :    0.137485
  17 C :   -0.076212
  18 C :   -0.038624
  19 C :   -0.002541
  20 C :   -0.206603
  21 H :   -0.005359
  22 C :    0.078815
  23 H :    0.030913
  24 H :    0.009121
  25 C :   -0.041918
  26 H :    0.011388
  27 H :    0.023314
  28 C :   -0.048375
  29 H :    0.039739
  30 H :    0.033532
  31 H :    0.024383
  32 H :    0.044588
  33 H :    0.045006
Sum of atomic charges:   -0.0000000

LOEWDIN ATOMIC CHARGES
----------------------
   0 S :    0.404716
   1 C :   -0.188041
   2 C :   -0.066818
   3 C :   -0.058330
   4 C :   -0.202155
   5 H :    0.024902
   6 C :   -0.028906
   7 H :    0.030381
   8 H :    0.026142
   9 C :   -0.038112
  10 H :    0.025275
  11 H :    0.015345
  12 C :   -0.069617
  13 H :    0.023774
  14 H :    0.026925
  15 H :    0.028636
  16 S :    0.444405
  17 C :   -0.189087
  18 C :   -0.068396
  19 C :   -0.049111
  20 C :   -0.222405
  21 H :    0.023001
  22 C :   -0.026518
  23 H :    0.036922
  24 H :    0.022759
  25 C :   -0.024899
  26 H :    0.011270
  27 H :    0.022740
  28 C :   -0.059871
  29 H :    0.024666
  30 H :    0.024003
  31 H :    0.020976
  32 H :    0.031744
  33 H :    0.023686

  Mayer bond orders larger than 0.100000
B(  0-S ,  1-C ) :   1.1325 B(  0-S ,  4-C ) :   1.1490 B(  1-C ,  2-C ) :   1.6204
B(  1-C , 32-H ) :   0.9721 B(  2-C ,  3-C ) :   1.2254 B(  2-C ,  6-C ) :   1.0197
B(  3-C ,  4-C ) :   1.6033 B(  3-C ,  5-H ) :   0.9976 B(  4-C , 20-C ) :   1.0080
B(  6-C ,  7-H ) :   0.9438 B(  6-C ,  8-H ) :   0.9449 B(  6-C ,  9-C ) :   1.0748
B(  9-C , 10-H ) :   0.9600 B(  9-C , 11-H ) :   0.9581 B(  9-C , 12-C ) :   1.0689
B( 12-C , 13-H ) :   0.9801 B( 12-C , 14-H ) :   0.9767 B( 12-C , 15-H ) :   0.9724
B( 16-S , 17-C ) :   1.1960 B( 16-S , 20-C ) :   1.1570 B( 17-C , 18-C ) :   1.5632
B( 17-C , 20-C ) :   0.1108 B( 17-C , 33-H ) :   0.9659 B( 18-C , 19-C ) :   1.2631
B( 18-C , 21-H ) :   1.0087 B( 19-C , 20-C ) :   1.5759 B( 19-C , 22-C ) :   1.0396
B( 22-C , 23-H ) :   0.9255 B( 22-C , 24-H ) :   0.9409 B( 22-C , 25-C ) :   1.0725
B( 25-C , 26-H ) :   0.9591 B( 25-C , 27-H ) :   0.9560 B( 25-C , 28-C ) :   1.0721
B( 28-C , 29-H ) :   0.9788 B( 28-C , 30-H ) :   0.9753 B( 28-C , 31-H ) :   0.9776

Dispersion correction           -0.015062653
FINAL SINGLE POINT ENERGY     -1339.880635863252

DIPOLE MOMENT
-------------
                                X             Y             Z
Electronic contribution:      2.21088      16.65399     -11.34694
Nuclear contribution   :     -2.31362     -16.98436      11.68221
                        -----------------------------------------
Total Dipole Moment    :     -0.10274      -0.33037       0.33527
                        -----------------------------------------
Magnitude (a.u.)       :      0.48177
Magnitude (Debye)      :      1.22457

Rotational constants in cm-1:     0.020784     0.008206     0.007355
Rotational constants in MHz :   623.090488   246.001306   220.494956

                             ****ORCA TERMINATED NORMALLY****
TOTAL RUN TIME: 0 days 0 hours 0 minutes 35 seconds 577 msec
