                         Program Version 4.2.1 -  RELEASE  -
|  1> ! wB97X-D3 SP def2-SVP
|  2> %pal
|  3> nprocs 16
|  4> end
|  5>
|  6> * xyz 0 1
|  7> S 	 -17.4704 	 50.0492 	 42.8727
|  8> C 	 -18.2825 	 49.7535 	 41.3833
|  9> C 	 -18.1036 	 48.4188 	 40.9982
| 10> C 	 -17.0939 	 47.7545 	 41.7867
| 11> C 	 -16.6842 	 48.4933 	 42.8864
| 12> H 	 -16.5629 	 46.8497 	 41.6659
| 13> C 	 -18.4766 	 47.6023 	 39.7729
| 14> H 	 -18.8733 	 46.6352 	 40.0828
| 15> H 	 -17.548 	 47.4403 	 39.2986
| 16> C 	 -19.5222 	 48.3161 	 38.8861
| 17> H 	 -20.4248 	 48.4561 	 39.4685
| 18> H 	 -19.1683 	 49.3207 	 38.6131
| 19> C 	 -19.9018 	 47.4483 	 37.7148
| 20> H 	 -20.5631 	 47.8223 	 36.9541
| 21> H 	 -19.0369 	 47.3085 	 37.1216
| 22> H 	 -20.2647 	 46.5032 	 38.0305
| 23> S 	 -15.9333 	 48.8296 	 45.5602
| 24> C 	 -14.6333 	 47.7942 	 46.1706
| 25> C 	 -13.9831 	 47.1467 	 45.1583
| 26> C 	 -14.5656 	 47.3858 	 43.9052
| 27> C 	 -15.6835 	 48.1677 	 43.9281
| 28> H 	 -13.1093 	 46.5464 	 45.3028
| 29> C 	 -13.8686 	 46.7427 	 42.6932
| 30> H 	 -14.6357 	 46.1476 	 42.1931
| 31> H 	 -13.1434 	 46.0474 	 43.1895
| 32> C 	 -13.2701 	 47.7065 	 41.6455
| 33> H 	 -12.3796 	 48.3515 	 42.0357
| 34> H 	 -14.1295 	 48.3038 	 41.2555
| 35> C 	 -12.862 	 46.9586 	 40.3847
| 36> H 	 -12.5616 	 47.6793 	 39.6031
| 37> H 	 -13.6032 	 46.4008 	 39.8522
| 38> H 	 -12.1144 	 46.2066 	 40.5813
| 39> H 	 -19.0128 	 50.4077 	 40.948
| 40> H 	 -14.4568 	 47.6477 	 47.1979
| 41> *
| 42>
| 43>                          ****END OF INPUT****

CARTESIAN COORDINATES (ANGSTROEM)
---------------------------------
  S    -17.470400   50.049200   42.872700
  C    -18.282500   49.753500   41.383300
  C    -18.103600   48.418800   40.998200
  C    -17.093900   47.754500   41.786700
  C    -16.684200   48.493300   42.886400
  H    -16.562900   46.849700   41.665900
  C    -18.476600   47.602300   39.772900
  H    -18.873300   46.635200   40.082800
  H    -17.548000   47.440300   39.298600
  C    -19.522200   48.316100   38.886100
  H    -20.424800   48.456100   39.468500
  H    -19.168300   49.320700   38.613100
  C    -19.901800   47.448300   37.714800
  H    -20.563100   47.822300   36.954100
  H    -19.036900   47.308500   37.121600
  H    -20.264700   46.503200   38.030500
  S    -15.933300   48.829600   45.560200
  C    -14.633300   47.794200   46.170600
  C    -13.983100   47.146700   45.158300
  C    -14.565600   47.385800   43.905200
  C    -15.683500   48.167700   43.928100
  H    -13.109300   46.546400   45.302800
  C    -13.868600   46.742700   42.693200
  H    -14.635700   46.147600   42.193100
  H    -13.143400   46.047400   43.189500
  C    -13.270100   47.706500   41.645500
  H    -12.379600   48.351500   42.035700
  H    -14.129500   48.303800   41.255500
  C    -12.862000   46.958600   40.384700
  H    -12.561600   47.679300   39.603100
  H    -13.603200   46.400800   39.852200
  H    -12.114400   46.206600   40.581300
  H    -19.012800   50.407700   40.948000
  H    -14.456800   47.647700   47.197900

 Total Charge           Charge          ....    0
 Multiplicity           Mult            ....    1
 Number of Electrons    NEL             ....  134
 Basis Dimension        Dim             ....  322

ORBITAL ENERGIES
----------------

  NO   OCC          E(Eh)            E(eV)
   0   2.0000     -88.965995     -2420.8878
   1   2.0000     -88.963989     -2420.8332
   2   2.0000     -10.331024      -281.1215
   3   2.0000     -10.329071      -281.0683
   4   2.0000     -10.316203      -280.7181
   5   2.0000     -10.315364      -280.6953
   6   2.0000     -10.305584      -280.4292
   7   2.0000     -10.298788      -280.2443
   8   2.0000     -10.297782      -280.2169
   9   2.0000     -10.297759      -280.2163
  10   2.0000     -10.291516      -280.0464
  11   2.0000     -10.289890      -280.0021
  12   2.0000     -10.289725      -279.9977
  13   2.0000     -10.285948      -279.8949
  14   2.0000     -10.274495      -279.5832
  15   2.0000     -10.268361      -279.4163
  16   2.0000      -8.080226      -219.8741
  17   2.0000      -8.079405      -219.8518
  18   2.0000      -6.038833      -164.3250
  19   2.0000      -6.037957      -164.3012
  20   2.0000      -6.034908      -164.2182
  21   2.0000      -6.033786      -164.1877
  22   2.0000      -6.030823      -164.1070
  23   2.0000      -6.030117      -164.0878
  24   2.0000      -1.007561       -27.4171
  25   2.0000      -0.986757       -26.8510
  26   2.0000      -0.915800       -24.9202
  27   2.0000      -0.906944       -24.6792
  28   2.0000      -0.869736       -23.6667
  29   2.0000      -0.857238       -23.3266
  30   2.0000      -0.851621       -23.1738
  31   2.0000      -0.815429       -22.1889
  32   2.0000      -0.781540       -21.2668
  33   2.0000      -0.773179       -21.0393
  34   2.0000      -0.716807       -19.5053
  35   2.0000      -0.701729       -19.0950
  36   2.0000      -0.685725       -18.6595
  37   2.0000      -0.672574       -18.3017
  38   2.0000      -0.647489       -17.6191
  39   2.0000      -0.609166       -16.5762
  40   2.0000      -0.593701       -16.1554
  41   2.0000      -0.579686       -15.7741
  42   2.0000      -0.568189       -15.4612
  43   2.0000      -0.564624       -15.3642
  44   2.0000      -0.527522       -14.3546
  45   2.0000      -0.522016       -14.2048
  46   2.0000      -0.521190       -14.1823
  47   2.0000      -0.512593       -13.9484
  48   2.0000      -0.509512       -13.8645
  49   2.0000      -0.501326       -13.6418
  50   2.0000      -0.494550       -13.4574
  51   2.0000      -0.488088       -13.2815
  52   2.0000      -0.486118       -13.2280
  53   2.0000      -0.465458       -12.6657
  54   2.0000      -0.460740       -12.5374
  55   2.0000      -0.450417       -12.2565
  56   2.0000      -0.441594       -12.0164
  57   2.0000      -0.432558       -11.7705
  58   2.0000      -0.427950       -11.6451
  59   2.0000      -0.427500       -11.6329
  60   2.0000      -0.421178       -11.4608
  61   2.0000      -0.417274       -11.3546
  62   2.0000      -0.408183       -11.1072
  63   2.0000      -0.357376        -9.7247
  64   2.0000      -0.335821        -9.1382
  65   2.0000      -0.325972        -8.8702
  66   2.0000      -0.286346        -7.7919
  67   0.0000       0.024924         0.6782
  68   0.0000       0.074318         2.0223
  69   0.0000       0.102599         2.7919
  70   0.0000       0.112721         3.0673
  71   0.0000       0.136673         3.7191

MULLIKEN ATOMIC CHARGES
-----------------------
   0 S :    0.100490
   1 C :   -0.119478
   2 C :   -0.070955
   3 C :   -0.001510
   4 C :   -0.117884
   5 H :   -0.019362
   6 C :    0.042860
   7 H :    0.032800
   8 H :    0.029734
   9 C :   -0.071658
  10 H :    0.028359
  11 H :    0.029408
  12 C :    0.007423
  13 H :    0.023208
  14 H :    0.006361
  15 H :    0.018634
  16 S :    0.093018
  17 C :   -0.070090
  18 C :   -0.021873
  19 C :   -0.059948
  20 C :   -0.122597
  21 H :    0.012528
  22 C :    0.056793
  23 H :    0.022071
  24 H :    0.020660
  25 C :   -0.082732
  26 H :    0.059670
  27 H :    0.049287
  28 C :   -0.042473
  29 H :    0.036815
  30 H :    0.011935
  31 H :    0.021835
  32 H :    0.053515
  33 H :    0.043160
Sum of atomic charges:    0.0000000

LOEWDIN ATOMIC CHARGES
----------------------
   0 S :    0.413420
   1 C :   -0.213072
   2 C :   -0.054824
   3 C :   -0.069097
   4 C :   -0.183237
   5 H :    0.021863
   6 C :   -0.023173
   7 H :    0.034060
   8 H :    0.029204
   9 C :   -0.040696
  10 H :    0.023264
  11 H :    0.023600
  12 C :   -0.061972
  13 H :    0.025288
  14 H :    0.020103
  15 H :    0.020893
  16 S :    0.381907
  17 C :   -0.160695
  18 C :   -0.069277
  19 C :   -0.063508
  20 C :   -0.186421
  21 H :    0.030611
  22 C :   -0.030884
  23 H :    0.026855
  24 H :    0.031061
  25 C :   -0.046583
  26 H :    0.040510
  27 H :    0.035823
  28 C :   -0.072492
  29 H :    0.031674
  30 H :    0.018811
  31 H :    0.019381
  32 H :    0.027152
  33 H :    0.020452

  Mayer bond orders larger than 0.100000
B(  0-S ,  1-C ) :   1.1346 B(  0-S ,  4-C ) :   1.1529 B(  1-C ,  2-C ) :   1.6084
B(  1-C , 32-H ) :   0.9702 B(  2-C ,  3-C ) :   1.2154 B(  2-C ,  6-C ) :   1.0115
B(  3-C ,  4-C ) :   1.5899 B(  3-C ,  5-H ) :   1.0025 B(  4-C , 20-C ) :   1.0358
B(  6-C ,  7-H ) :   0.9375 B(  6-C ,  8-H ) :   0.9453 B(  6-C ,  9-C ) :   1.0744
B(  9-C , 10-H ) :   0.9572 B(  9-C , 11-H ) :   0.9512 B(  9-C , 12-C ) :   1.0885
B( 12-C , 13-H ) :   0.9703 B( 12-C , 14-H ) :   0.9700 B( 12-C , 15-H ) :   0.9726
B( 16-S , 17-C ) :   1.1504 B( 16-S , 20-C ) :   1.1213 B( 17-C , 18-C ) :   1.6015
B( 17-C , 20-C ) :   0.1009 B( 17-C , 33-H ) :   0.9729 B( 18-C , 19-C ) :   1.2596
B( 18-C , 21-H ) :   0.9916 B( 19-C , 20-C ) :   1.6175 B( 19-C , 22-C ) :   1.0231
B( 22-C , 23-H ) :   0.9335 B( 22-C , 24-H ) :   0.9324 B( 22-C , 25-C ) :   1.0663
B( 25-C , 26-H ) :   0.9530 B( 25-C , 27-H ) :   0.9504 B( 25-C , 28-C ) :   1.0820
B( 28-C , 29-H ) :   0.9722 B( 28-C , 30-H ) :   0.9713 B( 28-C , 31-H ) :   0.9733

Dispersion correction           -0.013949879
FINAL SINGLE POINT ENERGY     -1339.869594924541

DIPOLE MOMENT
-------------
                                X             Y             Z
Electronic contribution:     -2.09359      12.53510      28.30253
Nuclear contribution   :      2.30754     -13.05976     -28.80251
                        -----------------------------------------
Total Dipole Moment    :      0.21395      -0.52465      -0.49998
                        -----------------------------------------
Magnitude (a.u.)       :      0.75566
Magnitude (Debye)      :      1.92072

Rotational constants in cm-1:     0.019845     0.008168     0.006314
Rotational constants in MHz :   594.930464   244.877925   189.289211

                             ****ORCA TERMINATED NORMALLY****
TOTAL RUN TIME: 0 days 0 hours 0 minutes 33 seconds 708 msec
