                         Program Version 4.2.1 -  RELEASE  -
|  1> ! wB97X-D3 SP def2-SVP
|  2> %pal
|  3> nprocs 16
|  4> end
|  5>
|  6> * xyz 0 1
|  7> S 	 5.42705 	 -19.6303 	 86.6452
|  8> C 	 4.62457 	 -20.8132 	 85.5771
|  9> C 	 3.53358 	 -20.2563 	 84.9143
| 10> C 	 3.35285 	 -18.8692 	 85.2091
| 11> C 	 4.34883 	 -18.3163 	 86.0236
| 12> H 	 2.59125 	 -18.2015 	 84.8947
| 13> C 	 2.66479 	 -20.9888 	 83.9633
| 14> H 	 3.27331 	 -21.5965 	 83.3192
| 15> H 	 2.17265 	 -20.2368 	 83.2946
| 16> C 	 1.49075 	 -21.8478 	 84.511
| 17> H 	 1.76622 	 -22.4577 	 85.3211
| 18> H 	 0.915289 	 -21.0871 	 85.0797
| 19> C 	 0.616119 	 -22.5749 	 83.4771
| 20> H 	 -0.0191034 	 -23.3201 	 83.936
| 21> H 	 0.0283079 	 -21.9328 	 82.8797
| 22> H 	 1.22429 	 -23.2035 	 82.8353
| 23> S 	 6.17923 	 -16.2378 	 85.8258
| 24> C 	 5.78795 	 -14.5918 	 86.3484
| 25> C 	 4.56897 	 -14.5476 	 86.9973
| 26> C 	 3.92534 	 -15.8663 	 86.9759
| 27> C 	 4.63451 	 -16.8873 	 86.3315
| 28> H 	 4.28317 	 -13.6386 	 87.5459
| 29> C 	 2.55986 	 -16.1313 	 87.5356
| 30> H 	 2.47402 	 -15.4847 	 88.433
| 31> H 	 2.4783 	 -17.113 	 87.949
| 32> C 	 1.50423 	 -15.891 	 86.5054
| 33> H 	 1.69424 	 -16.4385 	 85.5962
| 34> H 	 1.54014 	 -14.8423 	 86.0982
| 35> C 	 0.139007 	 -16.0333 	 87.1549
| 36> H 	 -0.0582495 	 -16.9148 	 87.7622
| 37> H 	 -0.601994 	 -16.1126 	 86.3353
| 38> H 	 -0.073285 	 -15.104 	 87.7669
| 39> H 	 5.03217 	 -21.8404 	 85.4815
| 40> H 	 6.53338 	 -13.8463 	 86.5032
| 41> *
| 42>
| 43>                          ****END OF INPUT****

CARTESIAN COORDINATES (ANGSTROEM)
---------------------------------
  S      5.427050  -19.630300   86.645200
  C      4.624570  -20.813200   85.577100
  C      3.533580  -20.256300   84.914300
  C      3.352850  -18.869200   85.209100
  C      4.348830  -18.316300   86.023600
  H      2.591250  -18.201500   84.894700
  C      2.664790  -20.988800   83.963300
  H      3.273310  -21.596500   83.319200
  H      2.172650  -20.236800   83.294600
  C      1.490750  -21.847800   84.511000
  H      1.766220  -22.457700   85.321100
  H      0.915289  -21.087100   85.079700
  C      0.616119  -22.574900   83.477100
  H     -0.019103  -23.320100   83.936000
  H      0.028308  -21.932800   82.879700
  H      1.224290  -23.203500   82.835300
  S      6.179230  -16.237800   85.825800
  C      5.787950  -14.591800   86.348400
  C      4.568970  -14.547600   86.997300
  C      3.925340  -15.866300   86.975900
  C      4.634510  -16.887300   86.331500
  H      4.283170  -13.638600   87.545900
  C      2.559860  -16.131300   87.535600
  H      2.474020  -15.484700   88.433000
  H      2.478300  -17.113000   87.949000
  C      1.504230  -15.891000   86.505400
  H      1.694240  -16.438500   85.596200
  H      1.540140  -14.842300   86.098200
  C      0.139007  -16.033300   87.154900
  H     -0.058249  -16.914800   87.762200
  H     -0.601994  -16.112600   86.335300
  H     -0.073285  -15.104000   87.766900
  H      5.032170  -21.840400   85.481500
  H      6.533380  -13.846300   86.503200

 Total Charge           Charge          ....    0
 Multiplicity           Mult            ....    1
 Number of Electrons    NEL             ....  134
 Basis Dimension        Dim             ....  322

ORBITAL ENERGIES
----------------

  NO   OCC          E(Eh)            E(eV)
   0   2.0000     -88.967773     -2420.9362
   1   2.0000     -88.961250     -2420.7587
   2   2.0000     -10.340274      -281.3732
   3   2.0000     -10.330088      -281.0960
   4   2.0000     -10.323963      -280.9293
   5   2.0000     -10.317793      -280.7614
   6   2.0000     -10.306729      -280.4603
   7   2.0000     -10.306396      -280.4513
   8   2.0000     -10.302342      -280.3410
   9   2.0000     -10.299709      -280.2693
  10   2.0000     -10.292396      -280.0703
  11   2.0000     -10.285867      -279.8927
  12   2.0000     -10.285672      -279.8874
  13   2.0000     -10.283323      -279.8234
  14   2.0000     -10.282211      -279.7932
  15   2.0000     -10.277868      -279.6750
  16   2.0000      -8.081074      -219.8972
  17   2.0000      -8.075807      -219.7539
  18   2.0000      -6.039698      -164.3485
  19   2.0000      -6.035761      -164.2414
  20   2.0000      -6.034455      -164.2059
  21   2.0000      -6.031828      -164.1344
  22   2.0000      -6.030192      -164.0899
  23   2.0000      -6.026562      -163.9911
  24   2.0000      -0.997807       -27.1517
  25   2.0000      -0.977540       -26.6002
  26   2.0000      -0.915794       -24.9200
  27   2.0000      -0.908919       -24.7329
  28   2.0000      -0.866738       -23.5851
  29   2.0000      -0.849327       -23.1114
  30   2.0000      -0.843936       -22.9647
  31   2.0000      -0.819281       -22.2938
  32   2.0000      -0.780892       -21.2492
  33   2.0000      -0.765995       -20.8438
  34   2.0000      -0.709049       -19.2942
  35   2.0000      -0.703683       -19.1482
  36   2.0000      -0.695912       -18.9367
  37   2.0000      -0.661436       -17.9986
  38   2.0000      -0.646110       -17.5816
  39   2.0000      -0.618777       -16.8378
  40   2.0000      -0.594639       -16.1810
  41   2.0000      -0.572922       -15.5900
  42   2.0000      -0.565729       -15.3943
  43   2.0000      -0.555629       -15.1194
  44   2.0000      -0.527573       -14.3560
  45   2.0000      -0.522118       -14.2076
  46   2.0000      -0.519266       -14.1299
  47   2.0000      -0.511022       -13.9056
  48   2.0000      -0.509420       -13.8620
  49   2.0000      -0.499823       -13.6009
  50   2.0000      -0.493697       -13.4342
  51   2.0000      -0.480373       -13.0716
  52   2.0000      -0.468269       -12.7423
  53   2.0000      -0.465197       -12.6587
  54   2.0000      -0.457903       -12.4602
  55   2.0000      -0.452619       -12.3164
  56   2.0000      -0.449071       -12.2198
  57   2.0000      -0.436449       -11.8764
  58   2.0000      -0.433345       -11.7919
  59   2.0000      -0.427695       -11.6382
  60   2.0000      -0.414008       -11.2657
  61   2.0000      -0.411980       -11.2105
  62   2.0000      -0.406877       -11.0717
  63   2.0000      -0.342814        -9.3284
  64   2.0000      -0.330293        -8.9877
  65   2.0000      -0.323487        -8.8025
  66   2.0000      -0.299630        -8.1533
  67   0.0000       0.026395         0.7183
  68   0.0000       0.060821         1.6550
  69   0.0000       0.110471         3.0061
  70   0.0000       0.118406         3.2220
  71   0.0000       0.124988         3.4011

MULLIKEN ATOMIC CHARGES
-----------------------
   0 S :    0.100026
   1 C :   -0.139157
   2 C :   -0.062107
   3 C :    0.068980
   4 C :   -0.160128
   5 H :   -0.008532
   6 C :    0.052248
   7 H :    0.019483
   8 H :    0.023900
   9 C :   -0.060399
  10 H :    0.011877
  11 H :    0.014231
  12 C :   -0.005075
  13 H :    0.028771
  14 H :    0.028514
  15 H :    0.019868
  16 S :    0.094175
  17 C :   -0.085559
  18 C :   -0.036304
  19 C :   -0.064379
  20 C :   -0.155173
  21 H :    0.036901
  22 C :    0.076491
  23 H :    0.017025
  24 H :    0.023442
  25 C :   -0.068851
  26 H :    0.014817
  27 H :    0.027233
  28 C :   -0.048256
  29 H :    0.034190
  30 H :    0.029250
  31 H :    0.045929
  32 H :    0.068957
  33 H :    0.057611
Sum of atomic charges:   -0.0000000

LOEWDIN ATOMIC CHARGES
----------------------
   0 S :    0.369854
   1 C :   -0.181893
   2 C :   -0.066088
   3 C :   -0.049597
   4 C :   -0.173924
   5 H :    0.024822
   6 C :   -0.034839
   7 H :    0.024961
   8 H :    0.034647
   9 C :   -0.041321
  10 H :    0.015429
  11 H :    0.026003
  12 C :   -0.058162
  13 H :    0.030441
  14 H :    0.020427
  15 H :    0.025070
  16 S :    0.397261
  17 C :   -0.176603
  18 C :   -0.072987
  19 C :   -0.050804
  20 C :   -0.208957
  21 H :    0.039498
  22 C :   -0.036069
  23 H :    0.032233
  24 H :    0.027525
  25 C :   -0.043972
  26 H :    0.017388
  27 H :    0.032915
  28 C :   -0.069861
  29 H :    0.022529
  30 H :    0.027194
  31 H :    0.034780
  32 H :    0.036402
  33 H :    0.025696

  Mayer bond orders larger than 0.100000
B(  0-S ,  1-C ) :   1.1355 B(  0-S ,  4-C ) :   1.1405 B(  1-C ,  2-C ) :   1.5989
B(  1-C ,  4-C ) :   0.1014 B(  1-C , 32-H ) :   0.9664 B(  2-C ,  3-C ) :   1.2295
B(  2-C ,  6-C ) :   1.0359 B(  3-C ,  4-C ) :   1.5883 B(  3-C ,  5-H ) :   0.9945
B(  4-C , 20-C ) :   1.0247 B(  6-C ,  7-H ) :   0.9379 B(  6-C ,  8-H ) :   0.9418
B(  6-C ,  9-C ) :   1.0519 B(  9-C , 10-H ) :   0.9587 B(  9-C , 11-H ) :   0.9510
B(  9-C , 12-C ) :   1.0784 B( 12-C , 13-H ) :   0.9722 B( 12-C , 14-H ) :   0.9772
B( 12-C , 15-H ) :   0.9734 B( 16-S , 17-C ) :   1.1609 B( 16-S , 20-C ) :   1.1296
B( 17-C , 18-C ) :   1.6147 B( 17-C , 33-H ) :   0.9635 B( 18-C , 19-C ) :   1.2322
B( 18-C , 21-H ) :   0.9864 B( 19-C , 20-C ) :   1.5997 B( 19-C , 22-C ) :   1.0545
B( 22-C , 23-H ) :   0.9324 B( 22-C , 24-H ) :   0.9289 B( 22-C , 25-C ) :   1.0647
B( 25-C , 26-H ) :   0.9550 B( 25-C , 27-H ) :   0.9459 B( 25-C , 28-C ) :   1.0732
B( 28-C , 29-H ) :   0.9754 B( 28-C , 30-H ) :   0.9724 B( 28-C , 31-H ) :   0.9754

Dispersion correction           -0.014018616
FINAL SINGLE POINT ENERGY     -1339.875225335370

DIPOLE MOMENT
-------------
                                X             Y             Z
Electronic contribution:     29.36625       7.10633       5.09372
Nuclear contribution   :    -29.97225      -7.14132      -5.09568
                        -----------------------------------------
Total Dipole Moment    :     -0.60600      -0.03498      -0.00195
                        -----------------------------------------
Magnitude (a.u.)       :      0.60702
Magnitude (Debye)      :      1.54291

Rotational constants in cm-1:     0.018779     0.008233     0.006263
Rotational constants in MHz :   562.978169   246.826622   187.769347

                             ****ORCA TERMINATED NORMALLY****
TOTAL RUN TIME: 0 days 0 hours 0 minutes 34 seconds 156 msec
