                         Program Version 4.2.1 -  RELEASE  -
|  1> ! wB97X-D3 SP def2-SVP
|  2> %pal
|  3> nprocs 16
|  4> end
|  5>
|  6> * xyz 0 1
|  7> S 	 -0.72684 	 8.25485 	 80.5029
|  8> C 	 0.402691 	 8.90985 	 79.3385
|  9> C 	 -0.0369995 	 8.66726 	 78.0547
| 10> C 	 -1.2465 	 7.89807 	 78.0557
| 11> C 	 -1.83108 	 7.62477 	 79.2729
| 12> H 	 -1.71947 	 7.525 	 77.1815
| 13> C 	 0.665196 	 9.08221 	 76.7583
| 14> H 	 1.42401 	 9.86859 	 76.9586
| 15> H 	 -0.198184 	 9.5746 	 76.3251
| 16> C 	 1.03897 	 7.92846 	 75.7245
| 17> H 	 2.00343 	 7.51971 	 76.0667
| 18> H 	 0.277381 	 7.09603 	 75.8204
| 19> C 	 1.15681 	 8.3371 	 74.2991
| 20> H 	 0.354576 	 8.95521 	 73.9648
| 21> H 	 2.04995 	 8.95835 	 74.2576
| 22> H 	 1.17357 	 7.378 	 73.7512
| 23> S 	 -2.94436 	 5.92511 	 81.2203
| 24> C 	 -4.62858 	 5.65615 	 81.0976
| 25> C 	 -5.20664 	 6.07063 	 79.9059
| 26> C 	 -4.26306 	 6.83753 	 79.168
| 27> C 	 -2.98594 	 6.85379 	 79.7276
| 28> H 	 -6.29327 	 5.88384 	 79.6551
| 29> C 	 -4.61712 	 7.47555 	 77.8448
| 30> H 	 -5.52333 	 6.84292 	 77.5354
| 31> H 	 -3.86243 	 7.13981 	 77.1159
| 32> C 	 -4.9625 	 8.94263 	 77.6975
| 33> H 	 -3.98171 	 9.48421 	 77.5548
| 34> H 	 -5.52634 	 9.29224 	 78.5541
| 35> C 	 -5.90761 	 9.24237 	 76.4925
| 36> H 	 -5.65145 	 8.60582 	 75.6852
| 37> H 	 -5.97694 	 10.267 	 76.0408
| 38> H 	 -6.89987 	 9.01925 	 76.7033
| 39> H 	 1.32527 	 9.50227 	 79.5487
| 40> H 	 -5.0988 	 4.92559 	 81.7522
| 41> *
| 42>
| 43>                          ****END OF INPUT****

CARTESIAN COORDINATES (ANGSTROEM)
---------------------------------
  S     -0.726840    8.254850   80.502900
  C      0.402691    8.909850   79.338500
  C     -0.036999    8.667260   78.054700
  C     -1.246500    7.898070   78.055700
  C     -1.831080    7.624770   79.272900
  H     -1.719470    7.525000   77.181500
  C      0.665196    9.082210   76.758300
  H      1.424010    9.868590   76.958600
  H     -0.198184    9.574600   76.325100
  C      1.038970    7.928460   75.724500
  H      2.003430    7.519710   76.066700
  H      0.277381    7.096030   75.820400
  C      1.156810    8.337100   74.299100
  H      0.354576    8.955210   73.964800
  H      2.049950    8.958350   74.257600
  H      1.173570    7.378000   73.751200
  S     -2.944360    5.925110   81.220300
  C     -4.628580    5.656150   81.097600
  C     -5.206640    6.070630   79.905900
  C     -4.263060    6.837530   79.168000
  C     -2.985940    6.853790   79.727600
  H     -6.293270    5.883840   79.655100
  C     -4.617120    7.475550   77.844800
  H     -5.523330    6.842920   77.535400
  H     -3.862430    7.139810   77.115900
  C     -4.962500    8.942630   77.697500
  H     -3.981710    9.484210   77.554800
  H     -5.526340    9.292240   78.554100
  C     -5.907610    9.242370   76.492500
  H     -5.651450    8.605820   75.685200
  H     -5.976940   10.267000   76.040800
  H     -6.899870    9.019250   76.703300
  H      1.325270    9.502270   79.548700
  H     -5.098800    4.925590   81.752200

 Total Charge           Charge          ....    0
 Multiplicity           Mult            ....    1
 Number of Electrons    NEL             ....  134
 Basis Dimension        Dim             ....  322

ORBITAL ENERGIES
----------------

  NO   OCC          E(Eh)            E(eV)
   0   2.0000     -88.971912     -2421.0488
   1   2.0000     -88.959527     -2420.7118
   2   2.0000     -10.332119      -281.1513
   3   2.0000     -10.329061      -281.0680
   4   2.0000     -10.317667      -280.7580
   5   2.0000     -10.313917      -280.6560
   6   2.0000     -10.304778      -280.4073
   7   2.0000     -10.301953      -280.3304
   8   2.0000     -10.301579      -280.3202
   9   2.0000     -10.298072      -280.2248
  10   2.0000     -10.296837      -280.1912
  11   2.0000     -10.294427      -280.1256
  12   2.0000     -10.291144      -280.0363
  13   2.0000     -10.290827      -280.0276
  14   2.0000     -10.277596      -279.6676
  15   2.0000     -10.273328      -279.5515
  16   2.0000      -8.087050      -220.0598
  17   2.0000      -8.074222      -219.7107
  18   2.0000      -6.045424      -164.5043
  19   2.0000      -6.041514      -164.3980
  20   2.0000      -6.037901      -164.2996
  21   2.0000      -6.032842      -164.1620
  22   2.0000      -6.028658      -164.0481
  23   2.0000      -6.024922      -163.9465
  24   2.0000      -1.008975       -27.4556
  25   2.0000      -0.985263       -26.8104
  26   2.0000      -0.909632       -24.7524
  27   2.0000      -0.908672       -24.7262
  28   2.0000      -0.872343       -23.7377
  29   2.0000      -0.856707       -23.3122
  30   2.0000      -0.845354       -23.0032
  31   2.0000      -0.815699       -22.1963
  32   2.0000      -0.785086       -21.3633
  33   2.0000      -0.769983       -20.9523
  34   2.0000      -0.710355       -19.3297
  35   2.0000      -0.695975       -18.9384
  36   2.0000      -0.690333       -18.7849
  37   2.0000      -0.661860       -18.0101
  38   2.0000      -0.637283       -17.3414
  39   2.0000      -0.622451       -16.9378
  40   2.0000      -0.597074       -16.2472
  41   2.0000      -0.565046       -15.3757
  42   2.0000      -0.559592       -15.2273
  43   2.0000      -0.558115       -15.1871
  44   2.0000      -0.534592       -14.5470
  45   2.0000      -0.523264       -14.2387
  46   2.0000      -0.520624       -14.1669
  47   2.0000      -0.511713       -13.9244
  48   2.0000      -0.500952       -13.6316
  49   2.0000      -0.500471       -13.6185
  50   2.0000      -0.493633       -13.4324
  51   2.0000      -0.481833       -13.1113
  52   2.0000      -0.467173       -12.7124
  53   2.0000      -0.464666       -12.6442
  54   2.0000      -0.463426       -12.6105
  55   2.0000      -0.459114       -12.4931
  56   2.0000      -0.444977       -12.1084
  57   2.0000      -0.434388       -11.8203
  58   2.0000      -0.431093       -11.7306
  59   2.0000      -0.423398       -11.5213
  60   2.0000      -0.421175       -11.4608
  61   2.0000      -0.413223       -11.2444
  62   2.0000      -0.405944       -11.0463
  63   2.0000      -0.355762        -9.6808
  64   2.0000      -0.337628        -9.1873
  65   2.0000      -0.324073        -8.8185
  66   2.0000      -0.286005        -7.7826
  67   0.0000       0.023926         0.6510
  68   0.0000       0.077887         2.1194
  69   0.0000       0.104350         2.8395
  70   0.0000       0.116446         3.1686
  71   0.0000       0.139071         3.7843

MULLIKEN ATOMIC CHARGES
-----------------------
   0 S :    0.082309
   1 C :   -0.137995
   2 C :   -0.087838
   3 C :    0.012590
   4 C :   -0.128074
   5 H :   -0.012563
   6 C :    0.065573
   7 H :    0.030431
   8 H :    0.023806
   9 C :   -0.109225
  10 H :    0.036586
  11 H :    0.036582
  12 C :   -0.021994
  13 H :    0.023698
  14 H :    0.033856
  15 H :    0.048900
  16 S :    0.130463
  17 C :   -0.097013
  18 C :   -0.047432
  19 C :   -0.048555
  20 C :   -0.134726
  21 H :    0.048471
  22 C :   -0.007021
  23 H :    0.018787
  24 H :    0.033203
  25 C :   -0.014223
  26 H :    0.048855
  27 H :    0.033266
  28 C :   -0.052019
  29 H :    0.014047
  30 H :    0.040337
  31 H :    0.014472
  32 H :    0.060523
  33 H :    0.061921
Sum of atomic charges:    0.0000000

LOEWDIN ATOMIC CHARGES
----------------------
   0 S :    0.387618
   1 C :   -0.208716
   2 C :   -0.066440
   3 C :   -0.072651
   4 C :   -0.174392
   5 H :    0.018605
   6 C :   -0.036710
   7 H :    0.032020
   8 H :    0.032252
   9 C :   -0.043293
  10 H :    0.026064
  11 H :    0.027375
  12 C :   -0.063704
  13 H :    0.019143
  14 H :    0.028618
  15 H :    0.037552
  16 S :    0.428581
  17 C :   -0.195322
  18 C :   -0.077431
  19 C :   -0.054843
  20 C :   -0.205092
  21 H :    0.046312
  22 C :   -0.043414
  23 H :    0.035943
  24 H :    0.030259
  25 C :   -0.036984
  26 H :    0.034332
  27 H :    0.027140
  28 C :   -0.067529
  29 H :    0.017298
  30 H :    0.034560
  31 H :    0.014943
  32 H :    0.040029
  33 H :    0.027881

  Mayer bond orders larger than 0.100000
B(  0-S ,  1-C ) :   1.1314 B(  0-S ,  4-C ) :   1.1385 B(  1-C ,  2-C ) :   1.6188
B(  1-C , 32-H ) :   0.9617 B(  2-C ,  3-C ) :   1.2373 B(  2-C ,  6-C ) :   1.0114
B(  3-C ,  4-C ) :   1.5827 B(  3-C ,  5-H ) :   0.9920 B(  4-C , 20-C ) :   1.0647
B(  6-C ,  7-H ) :   0.9465 B(  6-C ,  8-H ) :   0.9367 B(  6-C ,  9-C ) :   1.0400
B(  9-C , 10-H ) :   0.9559 B(  9-C , 11-H ) :   0.9605 B(  9-C , 12-C ) :   1.0785
B( 12-C , 13-H ) :   0.9758 B( 12-C , 14-H ) :   0.9747 B( 12-C , 15-H ) :   0.9716
B( 16-S , 17-C ) :   1.1822 B( 16-S , 20-C ) :   1.1374 B( 17-C , 18-C ) :   1.5834
B( 17-C , 33-H ) :   0.9598 B( 18-C , 19-C ) :   1.2751 B( 18-C , 21-H ) :   0.9788
B( 19-C , 20-C ) :   1.5741 B( 19-C , 22-C ) :   1.0294 B( 22-C , 23-H ) :   0.9382
B( 22-C , 24-H ) :   0.9298 B( 22-C , 25-C ) :   1.0556 B( 25-C , 26-H ) :   0.9516
B( 25-C , 27-H ) :   0.9605 B( 25-C , 28-C ) :   1.0694 B( 28-C , 29-H ) :   0.9760
B( 28-C , 30-H ) :   0.9759 B( 28-C , 31-H ) :   0.9754

Dispersion correction           -0.013713020
FINAL SINGLE POINT ENERGY     -1339.870244275010

DIPOLE MOMENT
-------------
                                X             Y             Z
Electronic contribution:      2.25713      -9.31440      29.96640
Nuclear contribution   :     -2.47843       9.31193     -30.65558
                        -----------------------------------------
Total Dipole Moment    :     -0.22130      -0.00247      -0.68919
                        -----------------------------------------
Magnitude (a.u.)       :      0.72385
Magnitude (Debye)      :      1.83988

Rotational constants in cm-1:     0.016753     0.008834     0.006596
Rotational constants in MHz :   502.244248   264.829093   197.746202

                             ****ORCA TERMINATED NORMALLY****
TOTAL RUN TIME: 0 days 0 hours 0 minutes 34 seconds 16 msec
