                         Program Version 4.2.1 -  RELEASE  -
|  1> ! wB97X-D3 SP def2-SVP
|  2> %pal
|  3> nprocs 16
|  4> end
|  5>
|  6> * xyz 0 1
|  7> S 	 54.2167 	 13.8945 	 77.5313
|  8> C 	 55.6157 	 14.0532 	 78.5741
|  9> C 	 56.511 	 12.9682 	 78.3657
| 10> C 	 56.1008 	 12.117 	 77.328
| 11> C 	 54.8736 	 12.5119 	 76.7157
| 12> H 	 56.6666 	 11.2699 	 76.9559
| 13> C 	 57.8182 	 12.6592 	 79.0509
| 14> H 	 57.7386 	 11.6464 	 79.4734
| 15> H 	 58.1525 	 13.1753 	 79.9119
| 16> C 	 59.0077 	 12.6638 	 78.0709
| 17> H 	 58.963 	 11.8975 	 77.2865
| 18> H 	 59.0618 	 13.6073 	 77.486
| 19> C 	 60.3944 	 12.4404 	 78.7694
| 20> H 	 60.4367 	 13.1622 	 79.5702
| 21> H 	 60.422 	 11.3679 	 79.0681
| 22> H 	 61.1573 	 12.5897 	 78.0942
| 23> S 	 52.5643 	 11.5879 	 75.5622
| 24> C 	 52.535 	 11.046 	 73.9544
| 25> C 	 53.8017 	 10.868 	 73.4564
| 26> C 	 54.8884 	 11.197 	 74.3916
| 27> C 	 54.3287 	 11.7801 	 75.5768
| 28> H 	 53.9268 	 10.5346 	 72.3982
| 29> C 	 56.365 	 11.2313 	 74.0989
| 30> H 	 56.7997 	 12.2422 	 74.4355
| 31> H 	 56.3559 	 11.2362 	 72.9914
| 32> C 	 57.1153 	 9.94147 	 74.4498
| 33> H 	 56.8397 	 9.1808 	 73.7158
| 34> H 	 56.8254 	 9.50095 	 75.4507
| 35> C 	 58.6301 	 10.1335 	 74.4508
| 36> H 	 59.0032 	 10.3464 	 73.4753
| 37> H 	 59.1363 	 9.16552 	 74.789
| 38> H 	 58.9261 	 10.906 	 75.1168
| 39> H 	 55.9874 	 14.884 	 79.1717
| 40> H 	 51.6261 	 10.8143 	 73.3165
| 41> *
| 42>
| 43>                          ****END OF INPUT****

CARTESIAN COORDINATES (ANGSTROEM)
---------------------------------
  S     54.216700   13.894500   77.531300
  C     55.615700   14.053200   78.574100
  C     56.511000   12.968200   78.365700
  C     56.100800   12.117000   77.328000
  C     54.873600   12.511900   76.715700
  H     56.666600   11.269900   76.955900
  C     57.818200   12.659200   79.050900
  H     57.738600   11.646400   79.473400
  H     58.152500   13.175300   79.911900
  C     59.007700   12.663800   78.070900
  H     58.963000   11.897500   77.286500
  H     59.061800   13.607300   77.486000
  C     60.394400   12.440400   78.769400
  H     60.436700   13.162200   79.570200
  H     60.422000   11.367900   79.068100
  H     61.157300   12.589700   78.094200
  S     52.564300   11.587900   75.562200
  C     52.535000   11.046000   73.954400
  C     53.801700   10.868000   73.456400
  C     54.888400   11.197000   74.391600
  C     54.328700   11.780100   75.576800
  H     53.926800   10.534600   72.398200
  C     56.365000   11.231300   74.098900
  H     56.799700   12.242200   74.435500
  H     56.355900   11.236200   72.991400
  C     57.115300    9.941470   74.449800
  H     56.839700    9.180800   73.715800
  H     56.825400    9.500950   75.450700
  C     58.630100   10.133500   74.450800
  H     59.003200   10.346400   73.475300
  H     59.136300    9.165520   74.789000
  H     58.926100   10.906000   75.116800
  H     55.987400   14.884000   79.171700
  H     51.626100   10.814300   73.316500

 Total Charge           Charge          ....    0
 Multiplicity           Mult            ....    1
 Number of Electrons    NEL             ....  134
 Basis Dimension        Dim             ....  322

ORBITAL ENERGIES
----------------

  NO   OCC          E(Eh)            E(eV)
   0   2.0000     -88.976701     -2421.1791
   1   2.0000     -88.962678     -2420.7975
   2   2.0000     -10.334560      -281.2177
   3   2.0000     -10.332920      -281.1730
   4   2.0000     -10.318908      -280.7918
   5   2.0000     -10.316412      -280.7239
   6   2.0000     -10.312608      -280.6203
   7   2.0000     -10.304446      -280.3982
   8   2.0000     -10.300289      -280.2851
   9   2.0000     -10.299561      -280.2653
  10   2.0000     -10.293738      -280.1069
  11   2.0000     -10.293689      -280.1055
  12   2.0000     -10.292966      -280.0859
  13   2.0000     -10.290435      -280.0170
  14   2.0000     -10.280318      -279.7417
  15   2.0000     -10.277541      -279.6661
  16   2.0000      -8.090551      -220.1551
  17   2.0000      -8.078143      -219.8174
  18   2.0000      -6.049160      -164.6060
  19   2.0000      -6.044974      -164.4921
  20   2.0000      -6.041444      -164.3961
  21   2.0000      -6.036613      -164.2646
  22   2.0000      -6.032497      -164.1526
  23   2.0000      -6.028959      -164.0563
  24   2.0000      -1.003934       -27.3184
  25   2.0000      -0.982399       -26.7324
  26   2.0000      -0.913440       -24.8560
  27   2.0000      -0.911557       -24.8047
  28   2.0000      -0.866595       -23.5812
  29   2.0000      -0.854465       -23.2512
  30   2.0000      -0.847393       -23.0587
  31   2.0000      -0.808810       -22.0088
  32   2.0000      -0.783805       -21.3284
  33   2.0000      -0.771193       -20.9852
  34   2.0000      -0.707982       -19.2652
  35   2.0000      -0.697425       -18.9779
  36   2.0000      -0.691568       -18.8185
  37   2.0000      -0.656343       -17.8600
  38   2.0000      -0.634346       -17.2614
  39   2.0000      -0.624406       -16.9910
  40   2.0000      -0.589854       -16.0507
  41   2.0000      -0.568587       -15.4720
  42   2.0000      -0.566375       -15.4119
  43   2.0000      -0.562436       -15.3047
  44   2.0000      -0.530523       -14.4363
  45   2.0000      -0.523179       -14.2364
  46   2.0000      -0.516758       -14.0617
  47   2.0000      -0.507728       -13.8160
  48   2.0000      -0.505742       -13.7619
  49   2.0000      -0.500829       -13.6283
  50   2.0000      -0.493599       -13.4315
  51   2.0000      -0.489586       -13.3223
  52   2.0000      -0.467959       -12.7338
  53   2.0000      -0.466213       -12.6863
  54   2.0000      -0.462328       -12.5806
  55   2.0000      -0.445929       -12.1343
  56   2.0000      -0.442985       -12.0542
  57   2.0000      -0.441172       -12.0049
  58   2.0000      -0.435843       -11.8599
  59   2.0000      -0.426590       -11.6081
  60   2.0000      -0.423844       -11.5334
  61   2.0000      -0.416597       -11.3362
  62   2.0000      -0.407495       -11.0885
  63   2.0000      -0.350636        -9.5413
  64   2.0000      -0.333739        -9.0815
  65   2.0000      -0.327409        -8.9092
  66   2.0000      -0.281416        -7.6577
  67   0.0000       0.019617         0.5338
  68   0.0000       0.075509         2.0547
  69   0.0000       0.114351         3.1116
  70   0.0000       0.120310         3.2738
  71   0.0000       0.124882         3.3982

MULLIKEN ATOMIC CHARGES
-----------------------
   0 S :    0.144180
   1 C :   -0.118759
   2 C :   -0.056217
   3 C :    0.005529
   4 C :   -0.120307
   5 H :   -0.001641
   6 C :    0.095134
   7 H :    0.030351
   8 H :   -0.000578
   9 C :   -0.153697
  10 H :    0.029002
  11 H :    0.034729
  12 C :   -0.015315
  13 H :    0.031406
  14 H :    0.037345
  15 H :    0.020129
  16 S :    0.100600
  17 C :   -0.102965
  18 C :   -0.062278
  19 C :   -0.024735
  20 C :   -0.176874
  21 H :    0.031803
  22 C :    0.010474
  23 H :    0.065060
  24 H :    0.021349
  25 C :   -0.094681
  26 H :    0.031540
  27 H :    0.045517
  28 C :   -0.025372
  29 H :    0.022962
  30 H :    0.040845
  31 H :    0.022648
  32 H :    0.053408
  33 H :    0.079409
Sum of atomic charges:    0.0000000

LOEWDIN ATOMIC CHARGES
----------------------
   0 S :    0.432149
   1 C :   -0.215367
   2 C :   -0.056642
   3 C :   -0.057517
   4 C :   -0.207610
   5 H :    0.029265
   6 C :   -0.034383
   7 H :    0.039200
   8 H :    0.021817
   9 C :   -0.043094
  10 H :    0.016266
  11 H :    0.024630
  12 C :   -0.054075
  13 H :    0.021823
  14 H :    0.031139
  15 H :    0.015111
  16 S :    0.410048
  17 C :   -0.219270
  18 C :   -0.085556
  19 C :   -0.054185
  20 C :   -0.184791
  21 H :    0.036889
  22 C :   -0.046928
  23 H :    0.044800
  24 H :    0.035369
  25 C :   -0.044863
  26 H :    0.027431
  27 H :    0.024808
  28 C :   -0.062118
  29 H :    0.020014
  30 H :    0.035383
  31 H :    0.015601
  32 H :    0.036536
  33 H :    0.048121

  Mayer bond orders larger than 0.100000
B(  0-S ,  1-C ) :   1.1421 B(  0-S ,  4-C ) :   1.1672 B(  1-C ,  2-C ) :   1.5626
B(  1-C ,  4-C ) :   0.1047 B(  1-C , 32-H ) :   0.9642 B(  2-C ,  3-C ) :   1.2860
B(  2-C ,  6-C ) :   1.0287 B(  3-C ,  4-C ) :   1.4849 B(  3-C ,  5-H ) :   0.9942
B(  4-C , 20-C ) :   1.0920 B(  6-C ,  7-H ) :   0.9319 B(  6-C ,  8-H ) :   0.9476
B(  6-C ,  9-C ) :   1.0490 B(  9-C , 10-H ) :   0.9503 B(  9-C , 11-H ) :   0.9597
B(  9-C , 12-C ) :   1.0865 B( 12-C , 13-H ) :   0.9768 B( 12-C , 14-H ) :   0.9759
B( 12-C , 15-H ) :   0.9745 B( 16-S , 17-C ) :   1.1540 B( 16-S , 20-C ) :   1.1434
B( 17-C , 18-C ) :   1.6237 B( 17-C , 33-H ) :   0.9557 B( 18-C , 19-C ) :   1.2448
B( 18-C , 21-H ) :   0.9784 B( 19-C , 20-C ) :   1.5474 B( 19-C , 22-C ) :   1.0438
B( 22-C , 23-H ) :   0.9456 B( 22-C , 24-H ) :   0.9286 B( 22-C , 25-C ) :   1.0394
B( 25-C , 26-H ) :   0.9500 B( 25-C , 27-H ) :   0.9595 B( 25-C , 28-C ) :   1.0832
B( 28-C , 29-H ) :   0.9683 B( 28-C , 30-H ) :   0.9735 B( 28-C , 31-H ) :   0.9746

Dispersion correction           -0.014928043
FINAL SINGLE POINT ENERGY     -1339.868372049591

DIPOLE MOMENT
-------------
                                X             Y             Z
Electronic contribution:    -33.57936       8.52124       0.66357
Nuclear contribution   :     34.31357      -8.68357      -0.91661
                        -----------------------------------------
Total Dipole Moment    :      0.73421      -0.16233      -0.25304
                        -----------------------------------------
Magnitude (a.u.)       :      0.79338
Magnitude (Debye)      :      2.01660

Rotational constants in cm-1:     0.017970     0.009897     0.006651
Rotational constants in MHz :   538.714489   296.707505   199.404724

                             ****ORCA TERMINATED NORMALLY****
TOTAL RUN TIME: 0 days 0 hours 0 minutes 31 seconds 269 msec
