                         Program Version 4.2.1 -  RELEASE  -
|  1> ! wB97X-D3 SP def2-SVP
|  2> %pal
|  3> nprocs 16
|  4> end
|  5>
|  6> * xyz 0 1
|  7> S 	 -73.7899 	 48.9554 	 138.076
|  8> C 	 -73.2489 	 47.4028 	 138.734
|  9> C 	 -72.4537 	 46.7 	 137.818
| 10> C 	 -72.0276 	 47.568 	 136.82
| 11> C 	 -72.4855 	 48.847 	 136.922
| 12> H 	 -71.2805 	 47.3364 	 136.087
| 13> C 	 -71.9619 	 45.2567 	 137.954
| 14> H 	 -70.918 	 45.3336 	 138.219
| 15> H 	 -72.0664 	 44.8031 	 136.998
| 16> C 	 -72.6767 	 44.4457 	 139.059
| 17> H 	 -72.4058 	 45.0264 	 139.887
| 18> H 	 -73.7029 	 44.6705 	 138.849
| 19> C 	 -72.2015 	 42.9892 	 139.201
| 20> H 	 -72.6708 	 42.4666 	 140.042
| 21> H 	 -72.4385 	 42.3782 	 138.403
| 22> H 	 -71.1023 	 42.9003 	 139.437
| 23> S 	 -70.3596 	 49.8528 	 135.534
| 24> C 	 -70.4438 	 51.5044 	 135.01
| 25> C 	 -71.7651 	 51.9321 	 134.875
| 26> C 	 -72.7121 	 51.0624 	 135.477
| 27> C 	 -72.0294 	 49.9433 	 136.05
| 28> H 	 -71.9651 	 52.8954 	 134.412
| 29> C 	 -74.1699 	 51.4417 	 135.685
| 30> H 	 -74.2279 	 51.8328 	 136.69
| 31> H 	 -74.7606 	 50.5658 	 135.526
| 32> C 	 -74.7609 	 52.3694 	 134.589
| 33> H 	 -74.8719 	 51.7161 	 133.672
| 34> H 	 -74.0305 	 53.2214 	 134.486
| 35> C 	 -76.2654 	 52.8267 	 134.905
| 36> H 	 -76.6498 	 53.5605 	 134.191
| 37> H 	 -76.4754 	 53.2006 	 135.954
| 38> H 	 -76.9077 	 51.9308 	 134.832
| 39> H 	 -73.686 	 46.8907 	 139.529
| 40> H 	 -69.5559 	 52.1526 	 134.836
| 41> *
| 42>
| 43>                          ****END OF INPUT****

CARTESIAN COORDINATES (ANGSTROEM)
---------------------------------
  S    -73.789900   48.955400  138.076000
  C    -73.248900   47.402800  138.734000
  C    -72.453700   46.700000  137.818000
  C    -72.027600   47.568000  136.820000
  C    -72.485500   48.847000  136.922000
  H    -71.280500   47.336400  136.087000
  C    -71.961900   45.256700  137.954000
  H    -70.918000   45.333600  138.219000
  H    -72.066400   44.803100  136.998000
  C    -72.676700   44.445700  139.059000
  H    -72.405800   45.026400  139.887000
  H    -73.702900   44.670500  138.849000
  C    -72.201500   42.989200  139.201000
  H    -72.670800   42.466600  140.042000
  H    -72.438500   42.378200  138.403000
  H    -71.102300   42.900300  139.437000
  S    -70.359600   49.852800  135.534000
  C    -70.443800   51.504400  135.010000
  C    -71.765100   51.932100  134.875000
  C    -72.712100   51.062400  135.477000
  C    -72.029400   49.943300  136.050000
  H    -71.965100   52.895400  134.412000
  C    -74.169900   51.441700  135.685000
  H    -74.227900   51.832800  136.690000
  H    -74.760600   50.565800  135.526000
  C    -74.760900   52.369400  134.589000
  H    -74.871900   51.716100  133.672000
  H    -74.030500   53.221400  134.486000
  C    -76.265400   52.826700  134.905000
  H    -76.649800   53.560500  134.191000
  H    -76.475400   53.200600  135.954000
  H    -76.907700   51.930800  134.832000
  H    -73.686000   46.890700  139.529000
  H    -69.555900   52.152600  134.836000

 Total Charge           Charge          ....    0
 Multiplicity           Mult            ....    1
 Number of Electrons    NEL             ....  134
 Basis Dimension        Dim             ....  322

ORBITAL ENERGIES
----------------

  NO   OCC          E(Eh)            E(eV)
   0   2.0000     -88.967994     -2420.9422
   1   2.0000     -88.967592     -2420.9312
   2   2.0000     -10.328861      -281.0626
   3   2.0000     -10.326354      -280.9944
   4   2.0000     -10.317988      -280.7667
   5   2.0000     -10.306994      -280.4676
   6   2.0000     -10.306569      -280.4560
   7   2.0000     -10.303923      -280.3840
   8   2.0000     -10.298748      -280.2432
   9   2.0000     -10.294726      -280.1337
  10   2.0000     -10.291504      -280.0461
  11   2.0000     -10.290549      -280.0201
  12   2.0000     -10.288539      -279.9654
  13   2.0000     -10.282826      -279.8099
  14   2.0000     -10.281875      -279.7840
  15   2.0000     -10.281707      -279.7795
  16   2.0000      -8.082429      -219.9341
  17   2.0000      -8.081919      -219.9202
  18   2.0000      -6.040877      -164.3806
  19   2.0000      -6.040456      -164.3692
  20   2.0000      -6.037140      -164.2789
  21   2.0000      -6.036857      -164.2712
  22   2.0000      -6.033064      -164.1680
  23   2.0000      -6.032406      -164.1501
  24   2.0000      -1.007194       -27.4071
  25   2.0000      -0.984542       -26.7907
  26   2.0000      -0.913660       -24.8619
  27   2.0000      -0.906395       -24.6643
  28   2.0000      -0.863542       -23.4982
  29   2.0000      -0.854234       -23.2449
  30   2.0000      -0.841965       -22.9110
  31   2.0000      -0.809495       -22.0275
  32   2.0000      -0.785632       -21.3781
  33   2.0000      -0.770013       -20.9531
  34   2.0000      -0.720744       -19.6124
  35   2.0000      -0.699424       -19.0323
  36   2.0000      -0.689699       -18.7677
  37   2.0000      -0.655875       -17.8473
  38   2.0000      -0.630125       -17.1466
  39   2.0000      -0.610435       -16.6108
  40   2.0000      -0.597550       -16.2602
  41   2.0000      -0.580077       -15.7847
  42   2.0000      -0.572397       -15.5757
  43   2.0000      -0.565354       -15.3841
  44   2.0000      -0.520941       -14.1755
  45   2.0000      -0.517568       -14.0838
  46   2.0000      -0.515048       -14.0152
  47   2.0000      -0.510194       -13.8831
  48   2.0000      -0.504654       -13.7323
  49   2.0000      -0.503966       -13.7136
  50   2.0000      -0.484300       -13.1785
  51   2.0000      -0.476226       -12.9588
  52   2.0000      -0.474908       -12.9229
  53   2.0000      -0.467014       -12.7081
  54   2.0000      -0.460024       -12.5179
  55   2.0000      -0.453697       -12.3457
  56   2.0000      -0.450568       -12.2606
  57   2.0000      -0.436885       -11.8882
  58   2.0000      -0.433317       -11.7911
  59   2.0000      -0.429359       -11.6834
  60   2.0000      -0.421774       -11.4771
  61   2.0000      -0.417365       -11.3571
  62   2.0000      -0.412121       -11.2144
  63   2.0000      -0.351309        -9.5596
  64   2.0000      -0.332057        -9.0357
  65   2.0000      -0.330582        -8.9956
  66   2.0000      -0.273882        -7.4527
  67   0.0000       0.019249         0.5238
  68   0.0000       0.068245         1.8570
  69   0.0000       0.096096         2.6149
  70   0.0000       0.118088         3.2134
  71   0.0000       0.136855         3.7240

MULLIKEN ATOMIC CHARGES
-----------------------
   0 S :    0.107208
   1 C :   -0.107880
   2 C :   -0.092509
   3 C :   -0.025205
   4 C :   -0.099362
   5 H :    0.005244
   6 C :    0.072679
   7 H :    0.036557
   8 H :    0.026054
   9 C :   -0.091095
  10 H :    0.024216
  11 H :    0.031847
  12 C :   -0.003910
  13 H :    0.028481
  14 H :    0.019845
  15 H :    0.037693
  16 S :    0.107073
  17 C :   -0.108679
  18 C :   -0.055536
  19 C :   -0.038742
  20 C :   -0.159038
  21 H :    0.024932
  22 C :    0.072661
  23 H :    0.054042
  24 H :    0.024875
  25 C :   -0.139067
  26 H :    0.053963
  27 H :    0.048206
  28 C :   -0.064203
  29 H :    0.045906
  30 H :    0.040139
  31 H :    0.030892
  32 H :    0.020090
  33 H :    0.072623
Sum of atomic charges:   -0.0000000

LOEWDIN ATOMIC CHARGES
----------------------
   0 S :    0.398884
   1 C :   -0.195343
   2 C :   -0.051205
   3 C :   -0.078744
   4 C :   -0.182243
   5 H :    0.021797
   6 C :   -0.021288
   7 H :    0.032684
   8 H :    0.025027
   9 C :   -0.039589
  10 H :    0.019160
  11 H :    0.022296
  12 C :   -0.060970
  13 H :    0.030516
  14 H :    0.015382
  15 H :    0.036060
  16 S :    0.418447
  17 C :   -0.197625
  18 C :   -0.074138
  19 C :   -0.058409
  20 C :   -0.189514
  21 H :    0.030729
  22 C :   -0.037958
  23 H :    0.032846
  24 H :    0.027798
  25 C :   -0.040211
  26 H :    0.036833
  27 H :    0.023280
  28 C :   -0.075291
  29 H :    0.027733
  30 H :    0.029782
  31 H :    0.026812
  32 H :    0.008817
  33 H :    0.037641

  Mayer bond orders larger than 0.100000
B(  0-S ,  1-C ) :   1.1204 B(  0-S ,  4-C ) :   1.1355 B(  1-C ,  2-C ) :   1.6043
B(  1-C , 32-H ) :   0.9652 B(  2-C ,  3-C ) :   1.2617 B(  2-C ,  6-C ) :   1.0094
B(  3-C ,  4-C ) :   1.5546 B(  3-C ,  5-H ) :   0.9952 B(  4-C , 20-C ) :   1.0767
B(  6-C ,  7-H ) :   0.9366 B(  6-C ,  8-H ) :   0.9398 B(  6-C ,  9-C ) :   1.0660
B(  9-C , 10-H ) :   0.9491 B(  9-C , 11-H ) :   0.9620 B(  9-C , 12-C ) :   1.0788
B( 12-C , 13-H ) :   0.9715 B( 12-C , 14-H ) :   0.9758 B( 12-C , 15-H ) :   0.9711
B( 16-S , 17-C ) :   1.1594 B( 16-S , 20-C ) :   1.1558 B( 17-C , 18-C ) :   1.5942
B( 17-C , 20-C ) :   0.1026 B( 17-C , 33-H ) :   0.9630 B( 18-C , 19-C ) :   1.2509
B( 18-C , 21-H ) :   0.9865 B( 19-C , 20-C ) :   1.5357 B( 19-C , 22-C ) :   1.0317
B( 22-C , 23-H ) :   0.9385 B( 22-C , 24-H ) :   0.9311 B( 22-C , 25-C ) :   1.0591
B( 25-C , 26-H ) :   0.9631 B( 25-C , 27-H ) :   0.9536 B( 25-C , 28-C ) :   1.0664
B( 28-C , 29-H ) :   0.9772 B( 28-C , 30-H ) :   0.9779 B( 28-C , 31-H ) :   0.9746

Dispersion correction           -0.013136297
FINAL SINGLE POINT ENERGY     -1339.849174432587

DIPOLE MOMENT
-------------
                                X             Y             Z
Electronic contribution:     11.16877       8.18806      -1.46586
Nuclear contribution   :    -11.27424      -8.32073       1.36943
                        -----------------------------------------
Total Dipole Moment    :     -0.10547      -0.13267      -0.09643
                        -----------------------------------------
Magnitude (a.u.)       :      0.19500
Magnitude (Debye)      :      0.49565

Rotational constants in cm-1:     0.024105     0.006655     0.005455
Rotational constants in MHz :   722.642649   199.513722   163.543358

                             ****ORCA TERMINATED NORMALLY****
TOTAL RUN TIME: 0 days 0 hours 0 minutes 34 seconds 615 msec
