                         Program Version 4.2.1 -  RELEASE  -
|  1> ! wB97X-D3 SP def2-SVP
|  2> %pal
|  3> nprocs 16
|  4> end
|  5>
|  6> * xyz 0 1
|  7> S 	 -2.12688 	 -18.6214 	 87.8263
|  8> C 	 -1.55724 	 -17.7239 	 86.419
|  9> C 	 -0.231661 	 -17.9136 	 86.1717
| 10> C 	 0.263639 	 -18.912 	 87.135
| 11> C 	 -0.644306 	 -19.4659 	 87.9912
| 12> H 	 1.29833 	 -19.2391 	 87.1124
| 13> C 	 0.58188 	 -17.338 	 84.9977
| 14> H 	 1.61736 	 -17.4995 	 85.3276
| 15> H 	 0.322486 	 -16.3281 	 84.6725
| 16> C 	 0.488608 	 -18.2076 	 83.7151
| 17> H 	 0.980338 	 -19.1747 	 83.8526
| 18> H 	 -0.544654 	 -18.4526 	 83.5865
| 19> C 	 1.09543 	 -17.5623 	 82.442
| 20> H 	 2.198 	 -17.4826 	 82.5173
| 21> H 	 0.868058 	 -18.256 	 81.6654
| 22> H 	 0.629098 	 -16.6453 	 82.1143
| 23> S 	 -1.14948 	 -20.3024 	 90.5626
| 24> C 	 -0.567828 	 -21.8733 	 90.9959
| 25> C 	 0.343275 	 -22.3697 	 90.1444
| 26> C 	 0.316573 	 -21.659 	 88.9255
| 27> C 	 -0.377867 	 -20.4645 	 89.0052
| 28> H 	 1.08987 	 -23.1318 	 90.3542
| 29> C 	 1.20541 	 -21.9234 	 87.7075
| 30> H 	 1.79167 	 -22.7822 	 88.0138
| 31> H 	 1.92432 	 -21.1214 	 87.5061
| 32> C 	 0.508582 	 -22.2461 	 86.3782
| 33> H 	 -0.217483 	 -21.5154 	 85.9202
| 34> H 	 0.0099709 	 -23.2001 	 86.4087
| 35> C 	 1.57949 	 -22.4127 	 85.3188
| 36> H 	 2.13522 	 -21.4798 	 85.2329
| 37> H 	 1.19676 	 -22.6441 	 84.3164
| 38> H 	 2.30906 	 -23.1787 	 85.6536
| 39> H 	 -2.13971 	 -17.0834 	 85.8193
| 40> H 	 -0.76069 	 -22.3191 	 92.0011
| 41> *
| 42>
| 43>                          ****END OF INPUT****

CARTESIAN COORDINATES (ANGSTROEM)
---------------------------------
  S     -2.126880  -18.621400   87.826300
  C     -1.557240  -17.723900   86.419000
  C     -0.231661  -17.913600   86.171700
  C      0.263639  -18.912000   87.135000
  C     -0.644306  -19.465900   87.991200
  H      1.298330  -19.239100   87.112400
  C      0.581880  -17.338000   84.997700
  H      1.617360  -17.499500   85.327600
  H      0.322486  -16.328100   84.672500
  C      0.488608  -18.207600   83.715100
  H      0.980338  -19.174700   83.852600
  H     -0.544654  -18.452600   83.586500
  C      1.095430  -17.562300   82.442000
  H      2.198000  -17.482600   82.517300
  H      0.868058  -18.256000   81.665400
  H      0.629098  -16.645300   82.114300
  S     -1.149480  -20.302400   90.562600
  C     -0.567828  -21.873300   90.995900
  C      0.343275  -22.369700   90.144400
  C      0.316573  -21.659000   88.925500
  C     -0.377867  -20.464500   89.005200
  H      1.089870  -23.131800   90.354200
  C      1.205410  -21.923400   87.707500
  H      1.791670  -22.782200   88.013800
  H      1.924320  -21.121400   87.506100
  C      0.508582  -22.246100   86.378200
  H     -0.217483  -21.515400   85.920200
  H      0.009971  -23.200100   86.408700
  C      1.579490  -22.412700   85.318800
  H      2.135220  -21.479800   85.232900
  H      1.196760  -22.644100   84.316400
  H      2.309060  -23.178700   85.653600
  H     -2.139710  -17.083400   85.819300
  H     -0.760690  -22.319100   92.001100

 Total Charge           Charge          ....    0
 Multiplicity           Mult            ....    1
 Number of Electrons    NEL             ....  134
 Basis Dimension        Dim             ....  322

ORBITAL ENERGIES
----------------

  NO   OCC          E(Eh)            E(eV)
   0   2.0000     -88.966472     -2420.9008
   1   2.0000     -88.963899     -2420.8308
   2   2.0000     -10.325098      -280.9602
   3   2.0000     -10.322788      -280.8973
   4   2.0000     -10.316031      -280.7135
   5   2.0000     -10.309884      -280.5462
   6   2.0000     -10.304215      -280.3919
   7   2.0000     -10.299386      -280.2605
   8   2.0000     -10.298437      -280.2347
   9   2.0000     -10.293686      -280.1054
  10   2.0000     -10.293170      -280.0914
  11   2.0000     -10.292285      -280.0673
  12   2.0000     -10.286927      -279.9215
  13   2.0000     -10.282726      -279.8072
  14   2.0000     -10.280826      -279.7555
  15   2.0000     -10.276187      -279.6293
  16   2.0000      -8.081899      -219.9197
  17   2.0000      -8.079195      -219.8461
  18   2.0000      -6.040271      -164.3641
  19   2.0000      -6.037844      -164.2981
  20   2.0000      -6.036475      -164.2608
  21   2.0000      -6.033627      -164.1833
  22   2.0000      -6.032603      -164.1555
  23   2.0000      -6.029750      -164.0778
  24   2.0000      -1.014115       -27.5955
  25   2.0000      -0.989910       -26.9368
  26   2.0000      -0.911784       -24.8109
  27   2.0000      -0.911344       -24.7989
  28   2.0000      -0.874238       -23.7892
  29   2.0000      -0.855865       -23.2893
  30   2.0000      -0.843773       -22.9602
  31   2.0000      -0.815678       -22.1957
  32   2.0000      -0.785451       -21.3732
  33   2.0000      -0.770959       -20.9789
  34   2.0000      -0.705188       -19.1891
  35   2.0000      -0.699949       -19.0466
  36   2.0000      -0.689471       -18.7615
  37   2.0000      -0.666042       -18.1239
  38   2.0000      -0.640369       -17.4253
  39   2.0000      -0.623354       -16.9623
  40   2.0000      -0.600352       -16.3364
  41   2.0000      -0.571906       -15.5624
  42   2.0000      -0.569984       -15.5101
  43   2.0000      -0.562312       -15.3013
  44   2.0000      -0.526475       -14.3261
  45   2.0000      -0.524140       -14.2626
  46   2.0000      -0.515752       -14.0343
  47   2.0000      -0.510569       -13.8933
  48   2.0000      -0.506671       -13.7872
  49   2.0000      -0.501644       -13.6504
  50   2.0000      -0.490605       -13.3500
  51   2.0000      -0.488652       -13.2969
  52   2.0000      -0.471161       -12.8209
  53   2.0000      -0.463769       -12.6198
  54   2.0000      -0.460374       -12.5274
  55   2.0000      -0.452501       -12.3132
  56   2.0000      -0.441872       -12.0240
  57   2.0000      -0.437706       -11.9106
  58   2.0000      -0.433869       -11.8062
  59   2.0000      -0.427480       -11.6323
  60   2.0000      -0.424116       -11.5408
  61   2.0000      -0.418204       -11.3799
  62   2.0000      -0.410155       -11.1609
  63   2.0000      -0.351837        -9.5740
  64   2.0000      -0.334730        -9.1085
  65   2.0000      -0.327102        -8.9009
  66   2.0000      -0.290726        -7.9111
  67   0.0000       0.028062         0.7636
  68   0.0000       0.079087         2.1521
  69   0.0000       0.098694         2.6856
  70   0.0000       0.115850         3.1524
  71   0.0000       0.131250         3.5715

MULLIKEN ATOMIC CHARGES
-----------------------
   0 S :    0.107919
   1 C :   -0.106864
   2 C :   -0.073104
   3 C :   -0.012451
   4 C :   -0.098977
   5 H :   -0.003206
   6 C :    0.084058
   7 H :    0.027051
   8 H :    0.031930
   9 C :   -0.098215
  10 H :    0.025068
  11 H :    0.018615
  12 C :   -0.031292
  13 H :    0.040847
  14 H :    0.026469
  15 H :    0.031475
  16 S :    0.111349
  17 C :   -0.102047
  18 C :   -0.013118
  19 C :   -0.039374
  20 C :   -0.148307
  21 H :    0.027895
  22 C :    0.030322
  23 H :    0.005817
  24 H :    0.031245
  25 C :   -0.066935
  26 H :    0.058781
  27 H :    0.024251
  28 C :   -0.056059
  29 H :    0.015966
  30 H :    0.036262
  31 H :    0.024014
  32 H :    0.022816
  33 H :    0.067794
Sum of atomic charges:    0.0000000

LOEWDIN ATOMIC CHARGES
----------------------
   0 S :    0.406933
   1 C :   -0.182496
   2 C :   -0.059546
   3 C :   -0.065213
   4 C :   -0.204955
   5 H :    0.022887
   6 C :   -0.028579
   7 H :    0.034058
   8 H :    0.031606
   9 C :   -0.039446
  10 H :    0.023637
  11 H :    0.016777
  12 C :   -0.063848
  13 H :    0.029927
  14 H :    0.026635
  15 H :    0.022357
  16 S :    0.412957
  17 C :   -0.189834
  18 C :   -0.073042
  19 C :   -0.058265
  20 C :   -0.192279
  21 H :    0.037398
  22 C :   -0.028682
  23 H :    0.028332
  24 H :    0.026727
  25 C :   -0.043737
  26 H :    0.034460
  27 H :    0.022329
  28 C :   -0.066368
  29 H :    0.015970
  30 H :    0.025290
  31 H :    0.023735
  32 H :    0.018254
  33 H :    0.036020

  Mayer bond orders larger than 0.100000
B(  0-S ,  1-C ) :   1.1299 B(  0-S ,  4-C ) :   1.1335 B(  1-C ,  2-C ) :   1.6342
B(  1-C , 32-H ) :   0.9719 B(  2-C ,  3-C ) :   1.2207 B(  2-C ,  6-C ) :   1.0304
B(  3-C ,  4-C ) :   1.5795 B(  3-C ,  5-H ) :   0.9935 B(  4-C , 20-C ) :   1.0618
B(  6-C ,  7-H ) :   0.9353 B(  6-C ,  8-H ) :   0.9453 B(  6-C ,  9-C ) :   1.0605
B(  9-C , 10-H ) :   0.9531 B(  9-C , 11-H ) :   0.9583 B(  9-C , 12-C ) :   1.0846
B( 12-C , 13-H ) :   0.9752 B( 12-C , 14-H ) :   0.9717 B( 12-C , 15-H ) :   0.9746
B( 16-S , 17-C ) :   1.1648 B( 16-S , 20-C ) :   1.1344 B( 17-C , 18-C ) :   1.6051
B( 17-C , 33-H ) :   0.9566 B( 18-C , 19-C ) :   1.2606 B( 18-C , 21-H ) :   0.9831
B( 19-C , 20-C ) :   1.6005 B( 19-C , 22-C ) :   1.0269 B( 22-C , 23-H ) :   0.9248
B( 22-C , 24-H ) :   0.9511 B( 22-C , 25-C ) :   1.0546 B( 25-C , 26-H ) :   0.9562
B( 25-C , 27-H ) :   0.9499 B( 25-C , 28-C ) :   1.0848 B( 28-C , 29-H ) :   0.9711
B( 28-C , 30-H ) :   0.9734 B( 28-C , 31-H ) :   0.9700

Dispersion correction           -0.015032184
FINAL SINGLE POINT ENERGY     -1339.878113544969

DIPOLE MOMENT
-------------
                                X             Y             Z
Electronic contribution:    -17.00968       3.45609      29.39040
Nuclear contribution   :     17.53158      -3.62696     -29.88159
                        -----------------------------------------
Total Dipole Moment    :      0.52190      -0.17087      -0.49119
                        -----------------------------------------
Magnitude (a.u.)       :      0.73678
Magnitude (Debye)      :      1.87275

Rotational constants in cm-1:     0.021341     0.009011     0.006736
Rotational constants in MHz :   639.784930   270.136547   201.941252

                             ****ORCA TERMINATED NORMALLY****
TOTAL RUN TIME: 0 days 0 hours 0 minutes 36 seconds 258 msec
