                         Program Version 4.2.1 -  RELEASE  -
|  1> ! wB97X-D3 SP def2-SVP
|  2> %pal
|  3> nprocs 16
|  4> end
|  5>
|  6> * xyz 0 1
|  7> S 	 -15.0564 	 32.1751 	 34.0065
|  8> C 	 -14.0633 	 33.6194 	 34.3951
|  9> C 	 -14.8076 	 34.4956 	 35.1537
| 10> C 	 -16.1325 	 34.0512 	 35.4802
| 11> C 	 -16.4143 	 32.8246 	 34.9048
| 12> H 	 -16.8908 	 34.6428 	 36.0699
| 13> C 	 -14.3718 	 35.8626 	 35.5775
| 14> H 	 -13.3033 	 35.8296 	 35.4034
| 15> H 	 -14.5778 	 35.999 	 36.6327
| 16> C 	 -15.0452 	 36.8778 	 34.6574
| 17> H 	 -14.9208 	 36.4527 	 33.6203
| 18> H 	 -16.1036 	 36.8191 	 34.9157
| 19> C 	 -14.6036 	 38.2992 	 34.8543
| 20> H 	 -14.7593 	 38.824 	 35.7801
| 21> H 	 -13.5325 	 38.1248 	 34.7606
| 22> H 	 -14.9068 	 38.9208 	 34.0059
| 23> S 	 -18.3301 	 31.8814 	 36.6647
| 24> C 	 -19.7378 	 31.05 	 35.9054
| 25> C 	 -19.7629 	 31.1314 	 34.5065
| 26> C 	 -18.5039 	 31.637 	 33.9702
| 27> C 	 -17.6957 	 32.1362 	 34.9855
| 28> H 	 -20.6016 	 30.6253 	 33.9459
| 29> C 	 -18.1914 	 31.6941 	 32.4892
| 30> H 	 -18.6606 	 30.822 	 32.1203
| 31> H 	 -17.0923 	 31.645 	 32.285
| 32> C 	 -18.8517 	 32.988 	 31.8123
| 33> H 	 -19.9528 	 32.9257 	 31.9008
| 34> H 	 -18.5723 	 32.9591 	 30.703
| 35> C 	 -18.4577 	 34.2969 	 32.461
| 36> H 	 -17.3927 	 34.4306 	 32.471
| 37> H 	 -18.9889 	 34.3487 	 33.4272
| 38> H 	 -18.8117 	 35.1803 	 31.8618
| 39> H 	 -12.9697 	 33.5744 	 34.3852
| 40> H 	 -20.5415 	 30.5385 	 36.4387
| 41> *
| 42>
| 43>                          ****END OF INPUT****

CARTESIAN COORDINATES (ANGSTROEM)
---------------------------------
  S    -15.056400   32.175100   34.006500
  C    -14.063300   33.619400   34.395100
  C    -14.807600   34.495600   35.153700
  C    -16.132500   34.051200   35.480200
  C    -16.414300   32.824600   34.904800
  H    -16.890800   34.642800   36.069900
  C    -14.371800   35.862600   35.577500
  H    -13.303300   35.829600   35.403400
  H    -14.577800   35.999000   36.632700
  C    -15.045200   36.877800   34.657400
  H    -14.920800   36.452700   33.620300
  H    -16.103600   36.819100   34.915700
  C    -14.603600   38.299200   34.854300
  H    -14.759300   38.824000   35.780100
  H    -13.532500   38.124800   34.760600
  H    -14.906800   38.920800   34.005900
  S    -18.330100   31.881400   36.664700
  C    -19.737800   31.050000   35.905400
  C    -19.762900   31.131400   34.506500
  C    -18.503900   31.637000   33.970200
  C    -17.695700   32.136200   34.985500
  H    -20.601600   30.625300   33.945900
  C    -18.191400   31.694100   32.489200
  H    -18.660600   30.822000   32.120300
  H    -17.092300   31.645000   32.285000
  C    -18.851700   32.988000   31.812300
  H    -19.952800   32.925700   31.900800
  H    -18.572300   32.959100   30.703000
  C    -18.457700   34.296900   32.461000
  H    -17.392700   34.430600   32.471000
  H    -18.988900   34.348700   33.427200
  H    -18.811700   35.180300   31.861800
  H    -12.969700   33.574400   34.385200
  H    -20.541500   30.538500   36.438700

 Total Charge           Charge          ....    0
 Multiplicity           Mult            ....    1
 Number of Electrons    NEL             ....  134
 Basis Dimension        Dim             ....  322

ORBITAL ENERGIES
----------------

  NO   OCC          E(Eh)            E(eV)
   0   2.0000     -88.970484     -2421.0099
   1   2.0000     -88.966096     -2420.8906
   2   2.0000     -10.331365      -281.1307
   3   2.0000     -10.329452      -281.0787
   4   2.0000     -10.325539      -280.9722
   5   2.0000     -10.315340      -280.6947
   6   2.0000     -10.308626      -280.5120
   7   2.0000     -10.306033      -280.4414
   8   2.0000     -10.300621      -280.2941
   9   2.0000     -10.296682      -280.1870
  10   2.0000     -10.294070      -280.1159
  11   2.0000     -10.293790      -280.1083
  12   2.0000     -10.287329      -279.9324
  13   2.0000     -10.286333      -279.9053
  14   2.0000     -10.274938      -279.5953
  15   2.0000     -10.272301      -279.5235
  16   2.0000      -8.083182      -219.9546
  17   2.0000      -8.079874      -219.8645
  18   2.0000      -6.041826      -164.4065
  19   2.0000      -6.038506      -164.3161
  20   2.0000      -6.038256      -164.3093
  21   2.0000      -6.034528      -164.2079
  22   2.0000      -6.033635      -164.1836
  23   2.0000      -6.030550      -164.0996
  24   2.0000      -0.999533       -27.1987
  25   2.0000      -0.973692       -26.4955
  26   2.0000      -0.918669       -24.9983
  27   2.0000      -0.900231       -24.4965
  28   2.0000      -0.866725       -23.5848
  29   2.0000      -0.849120       -23.1057
  30   2.0000      -0.841447       -22.8969
  31   2.0000      -0.810435       -22.0531
  32   2.0000      -0.783013       -21.3069
  33   2.0000      -0.769066       -20.9273
  34   2.0000      -0.703996       -19.1567
  35   2.0000      -0.693328       -18.8664
  36   2.0000      -0.683301       -18.5936
  37   2.0000      -0.661199       -17.9921
  38   2.0000      -0.633080       -17.2270
  39   2.0000      -0.613831       -16.7032
  40   2.0000      -0.588464       -16.0129
  41   2.0000      -0.572834       -15.5876
  42   2.0000      -0.555939       -15.1279
  43   2.0000      -0.548321       -14.9206
  44   2.0000      -0.540133       -14.6978
  45   2.0000      -0.526398       -14.3240
  46   2.0000      -0.521470       -14.1899
  47   2.0000      -0.511201       -13.9105
  48   2.0000      -0.506565       -13.7843
  49   2.0000      -0.496295       -13.5049
  50   2.0000      -0.485335       -13.2066
  51   2.0000      -0.470500       -12.8030
  52   2.0000      -0.469185       -12.7672
  53   2.0000      -0.458968       -12.4892
  54   2.0000      -0.454726       -12.3737
  55   2.0000      -0.446234       -12.1426
  56   2.0000      -0.440701       -11.9921
  57   2.0000      -0.435893       -11.8612
  58   2.0000      -0.433887       -11.8067
  59   2.0000      -0.423454       -11.5228
  60   2.0000      -0.417830       -11.3697
  61   2.0000      -0.410609       -11.1732
  62   2.0000      -0.408521       -11.1164
  63   2.0000      -0.345518        -9.4020
  64   2.0000      -0.332842        -9.0571
  65   2.0000      -0.329914        -8.9774
  66   2.0000      -0.287887        -7.8338
  67   0.0000       0.028746         0.7822
  68   0.0000       0.061284         1.6676
  69   0.0000       0.097406         2.6506
  70   0.0000       0.110207         2.9989
  71   0.0000       0.122076         3.3218

MULLIKEN ATOMIC CHARGES
-----------------------
   0 S :    0.093764
   1 C :   -0.142439
   2 C :   -0.123289
   3 C :   -0.005088
   4 C :   -0.131877
   5 H :    0.042161
   6 C :    0.091511
   7 H :    0.006050
   8 H :    0.031340
   9 C :   -0.109032
  10 H :    0.048048
  11 H :    0.022945
  12 C :   -0.006655
  13 H :    0.038486
  14 H :    0.014036
  15 H :    0.039569
  16 S :    0.104297
  17 C :   -0.099089
  18 C :   -0.055233
  19 C :   -0.074929
  20 C :   -0.149592
  21 H :    0.047028
  22 C :    0.099747
  23 H :    0.014905
  24 H :    0.039667
  25 C :   -0.110997
  26 H :    0.031523
  27 H :    0.044619
  28 C :   -0.052533
  29 H :    0.039172
  30 H :    0.050452
  31 H :    0.031949
  32 H :    0.068375
  33 H :    0.061109
Sum of atomic charges:    0.0000000

LOEWDIN ATOMIC CHARGES
----------------------
   0 S :    0.391103
   1 C :   -0.206221
   2 C :   -0.054105
   3 C :   -0.077258
   4 C :   -0.181369
   5 H :    0.041731
   6 C :   -0.030483
   7 H :    0.023574
   8 H :    0.029374
   9 C :   -0.041770
  10 H :    0.036662
  11 H :    0.019209
  12 C :   -0.069578
  13 H :    0.025877
  14 H :    0.026494
  15 H :    0.031269
  16 S :    0.362345
  17 C :   -0.170695
  18 C :   -0.075785
  19 C :   -0.054662
  20 C :   -0.178729
  21 H :    0.043389
  22 C :   -0.031421
  23 H :    0.025438
  24 H :    0.025959
  25 C :   -0.041476
  26 H :    0.023619
  27 H :    0.028853
  28 C :   -0.071802
  29 H :    0.022348
  30 H :    0.031861
  31 H :    0.031177
  32 H :    0.034382
  33 H :    0.030690

  Mayer bond orders larger than 0.100000
B(  0-S ,  1-C ) :   1.1029 B(  0-S ,  4-C ) :   1.1567 B(  1-C ,  2-C ) :   1.6367
B(  1-C , 32-H ) :   0.9602 B(  2-C ,  3-C ) :   1.2261 B(  2-C ,  6-C ) :   1.0387
B(  3-C ,  4-C ) :   1.5708 B(  3-C ,  5-H ) :   0.9808 B(  4-C , 20-C ) :   1.0431
B(  6-C ,  7-H ) :   0.9308 B(  6-C ,  8-H ) :   0.9347 B(  6-C ,  9-C ) :   1.0605
B(  9-C , 10-H ) :   0.9523 B(  9-C , 11-H ) :   0.9523 B(  9-C , 12-C ) :   1.0751
B( 12-C , 13-H ) :   0.9737 B( 12-C , 14-H ) :   0.9725 B( 12-C , 15-H ) :   0.9711
B( 16-S , 17-C ) :   1.1249 B( 16-S , 20-C ) :   1.1120 B( 17-C , 18-C ) :   1.6695
B( 17-C , 33-H ) :   0.9634 B( 18-C , 19-C ) :   1.1915 B( 18-C , 21-H ) :   0.9715
B( 19-C , 20-C ) :   1.6220 B( 19-C , 22-C ) :   1.0401 B( 22-C , 23-H ) :   0.9247
B( 22-C , 24-H ) :   0.9351 B( 22-C , 25-C ) :   1.0574 B( 25-C , 26-H ) :   0.9588
B( 25-C , 27-H ) :   0.9580 B( 25-C , 28-C ) :   1.0838 B( 28-C , 29-H ) :   0.9739
B( 28-C , 30-H ) :   0.9695 B( 28-C , 31-H ) :   0.9696

Dispersion correction           -0.015996608
FINAL SINGLE POINT ENERGY     -1339.873760214719

DIPOLE MOMENT
-------------
                                X             Y             Z
Electronic contribution:     -0.69509     -21.64170      10.96163
Nuclear contribution   :      0.53989      21.95672     -11.09984
                        -----------------------------------------
Total Dipole Moment    :     -0.15520       0.31502      -0.13821
                        -----------------------------------------
Magnitude (a.u.)       :      0.37740
Magnitude (Debye)      :      0.95926

Rotational constants in cm-1:     0.020518     0.008564     0.008000
Rotational constants in MHz :   615.109076   256.730246   239.840467

                             ****ORCA TERMINATED NORMALLY****
TOTAL RUN TIME: 0 days 0 hours 0 minutes 42 seconds 249 msec
