                         Program Version 4.2.1 -  RELEASE  -
|  1> ! wB97X-D3 SP def2-SVP
|  2> %pal
|  3> nprocs 16
|  4> end
|  5>
|  6> * xyz 0 1
|  7> S 	 4.91487 	 -21.1444 	 61.9728
|  8> C 	 5.8057 	 -19.7322 	 61.4137
|  9> C 	 4.97563 	 -18.7121 	 61.0343
| 10> C 	 3.59662 	 -19.1135 	 61.0023
| 11> C 	 3.41997 	 -20.4044 	 61.4631
| 12> H 	 2.74905 	 -18.4772 	 60.8044
| 13> C 	 5.39192 	 -17.2734 	 60.7928
| 14> H 	 4.5685 	 -16.7633 	 60.233
| 15> H 	 6.08748 	 -17.4276 	 59.9833
| 16> C 	 6.12511 	 -16.4233 	 61.7735
| 17> H 	 6.46805 	 -15.4968 	 61.3594
| 18> H 	 5.40955 	 -16.1618 	 62.5171
| 19> C 	 7.32638 	 -17.2189 	 62.4278
| 20> H 	 8.02492 	 -17.7626 	 61.7817
| 21> H 	 8.02381 	 -16.4546 	 62.8199
| 22> H 	 7.12745 	 -17.9296 	 63.2929
| 23> S 	 2.32117 	 -22.9222 	 61.0926
| 24> C 	 0.618664 	 -23.1935 	 61.1306
| 25> C 	 0.00628983 	 -22.0041 	 61.5044
| 26> C 	 0.849708 	 -20.8354 	 61.741
| 27> C 	 2.17297 	 -21.1398 	 61.5278
| 28> H 	 -1.04891 	 -22.04 	 61.4974
| 29> C 	 0.153499 	 -19.5794 	 62.2357
| 30> H 	 -0.260676 	 -19.0305 	 61.3968
| 31> H 	 0.902064 	 -18.9261 	 62.6494
| 32> C 	 -0.943505 	 -19.7377 	 63.3629
| 33> H 	 -1.72106 	 -20.3595 	 63.0353
| 34> H 	 -1.47224 	 -18.8047 	 63.552
| 35> C 	 -0.343819 	 -20.3554 	 64.6698
| 36> H 	 0.126955 	 -19.6439 	 65.318
| 37> H 	 0.213378 	 -21.3038 	 64.4435
| 38> H 	 -1.09364 	 -20.7787 	 65.2686
| 39> H 	 6.89549 	 -19.6133 	 61.4674
| 40> H 	 0.0950913 	 -24.1133 	 61.06
| 41> *
| 42>
| 43>                          ****END OF INPUT****

CARTESIAN COORDINATES (ANGSTROEM)
---------------------------------
  S      4.914870  -21.144400   61.972800
  C      5.805700  -19.732200   61.413700
  C      4.975630  -18.712100   61.034300
  C      3.596620  -19.113500   61.002300
  C      3.419970  -20.404400   61.463100
  H      2.749050  -18.477200   60.804400
  C      5.391920  -17.273400   60.792800
  H      4.568500  -16.763300   60.233000
  H      6.087480  -17.427600   59.983300
  C      6.125110  -16.423300   61.773500
  H      6.468050  -15.496800   61.359400
  H      5.409550  -16.161800   62.517100
  C      7.326380  -17.218900   62.427800
  H      8.024920  -17.762600   61.781700
  H      8.023810  -16.454600   62.819900
  H      7.127450  -17.929600   63.292900
  S      2.321170  -22.922200   61.092600
  C      0.618664  -23.193500   61.130600
  C      0.006290  -22.004100   61.504400
  C      0.849708  -20.835400   61.741000
  C      2.172970  -21.139800   61.527800
  H     -1.048910  -22.040000   61.497400
  C      0.153499  -19.579400   62.235700
  H     -0.260676  -19.030500   61.396800
  H      0.902064  -18.926100   62.649400
  C     -0.943505  -19.737700   63.362900
  H     -1.721060  -20.359500   63.035300
  H     -1.472240  -18.804700   63.552000
  C     -0.343819  -20.355400   64.669800
  H      0.126955  -19.643900   65.318000
  H      0.213378  -21.303800   64.443500
  H     -1.093640  -20.778700   65.268600
  H      6.895490  -19.613300   61.467400
  H      0.095091  -24.113300   61.060000

 Total Charge           Charge          ....    0
 Multiplicity           Mult            ....    1
 Number of Electrons    NEL             ....  134
 Basis Dimension        Dim             ....  322

ORBITAL ENERGIES
----------------

  NO   OCC          E(Eh)            E(eV)
   0   2.0000     -88.966905     -2420.9126
   1   2.0000     -88.958606     -2420.6867
   2   2.0000     -10.333374      -281.1854
   3   2.0000     -10.328381      -281.0495
   4   2.0000     -10.314228      -280.6644
   5   2.0000     -10.311251      -280.5834
   6   2.0000     -10.309006      -280.5223
   7   2.0000     -10.300113      -280.2803
   8   2.0000     -10.294838      -280.1368
   9   2.0000     -10.292594      -280.0757
  10   2.0000     -10.291302      -280.0406
  11   2.0000     -10.289486      -279.9912
  12   2.0000     -10.289133      -279.9816
  13   2.0000     -10.289116      -279.9811
  14   2.0000     -10.288623      -279.9677
  15   2.0000     -10.272146      -279.5193
  16   2.0000      -8.081492      -219.9086
  17   2.0000      -8.072848      -219.6734
  18   2.0000      -6.040089      -164.3592
  19   2.0000      -6.036104      -164.2507
  20   2.0000      -6.032081      -164.1413
  21   2.0000      -6.031568      -164.1273
  22   2.0000      -6.027379      -164.0133
  23   2.0000      -6.023424      -163.9057
  24   2.0000      -1.003191       -27.2982
  25   2.0000      -0.978660       -26.6307
  26   2.0000      -0.915433       -24.9102
  27   2.0000      -0.902713       -24.5641
  28   2.0000      -0.867757       -23.6129
  29   2.0000      -0.850103       -23.1325
  30   2.0000      -0.838678       -22.8216
  31   2.0000      -0.807965       -21.9858
  32   2.0000      -0.785118       -21.3642
  33   2.0000      -0.780461       -21.2374
  34   2.0000      -0.716957       -19.5094
  35   2.0000      -0.707288       -19.2463
  36   2.0000      -0.698189       -18.9987
  37   2.0000      -0.658579       -17.9209
  38   2.0000      -0.637391       -17.3443
  39   2.0000      -0.615919       -16.7600
  40   2.0000      -0.596117       -16.2212
  41   2.0000      -0.569466       -15.4960
  42   2.0000      -0.552049       -15.0220
  43   2.0000      -0.548943       -14.9375
  44   2.0000      -0.544263       -14.8101
  45   2.0000      -0.536104       -14.5881
  46   2.0000      -0.519266       -14.1300
  47   2.0000      -0.509259       -13.8576
  48   2.0000      -0.501773       -13.6539
  49   2.0000      -0.491215       -13.3666
  50   2.0000      -0.490328       -13.3425
  51   2.0000      -0.477453       -12.9922
  52   2.0000      -0.468289       -12.7428
  53   2.0000      -0.463818       -12.6211
  54   2.0000      -0.460266       -12.5245
  55   2.0000      -0.452838       -12.3224
  56   2.0000      -0.440314       -11.9816
  57   2.0000      -0.436921       -11.8892
  58   2.0000      -0.432114       -11.7584
  59   2.0000      -0.423265       -11.5176
  60   2.0000      -0.419720       -11.4212
  61   2.0000      -0.417032       -11.3480
  62   2.0000      -0.408186       -11.1073
  63   2.0000      -0.351839        -9.5740
  64   2.0000      -0.328526        -8.9397
  65   2.0000      -0.324330        -8.8255
  66   2.0000      -0.286844        -7.8054
  67   0.0000       0.024585         0.6690
  68   0.0000       0.076713         2.0875
  69   0.0000       0.102370         2.7856
  70   0.0000       0.122501         3.3334
  71   0.0000       0.133819         3.6414

MULLIKEN ATOMIC CHARGES
-----------------------
   0 S :    0.119023
   1 C :   -0.130551
   2 C :   -0.091556
   3 C :    0.015845
   4 C :   -0.133827
   5 H :    0.009474
   6 C :    0.037236
   7 H :    0.019706
   8 H :    0.021933
   9 C :    0.034674
  10 H :    0.029243
  11 H :    0.025209
  12 C :   -0.123812
  13 H :    0.030172
  14 H :    0.027370
  15 H :    0.062480
  16 S :    0.073820
  17 C :   -0.067490
  18 C :   -0.059921
  19 C :   -0.032820
  20 C :   -0.139648
  21 H :    0.004385
  22 C :    0.080515
  23 H :    0.038568
  24 H :    0.018230
  25 C :   -0.057455
  26 H :    0.012513
  27 H :    0.026597
  28 C :   -0.043255
  29 H :    0.036790
  30 H :    0.050004
  31 H :    0.007867
  32 H :    0.046654
  33 H :    0.052028
Sum of atomic charges:    0.0000000

LOEWDIN ATOMIC CHARGES
----------------------
   0 S :    0.405492
   1 C :   -0.195276
   2 C :   -0.060066
   3 C :   -0.061924
   4 C :   -0.192011
   5 H :    0.030823
   6 C :   -0.046709
   7 H :    0.032701
   8 H :    0.033179
   9 C :   -0.026323
  10 H :    0.028085
  11 H :    0.024454
  12 C :   -0.082145
  13 H :    0.020870
  14 H :    0.028752
  15 H :    0.037224
  16 S :    0.369114
  17 C :   -0.186083
  18 C :   -0.072060
  19 C :   -0.056118
  20 C :   -0.163243
  21 H :    0.019357
  22 C :   -0.029870
  23 H :    0.033102
  24 H :    0.026803
  25 C :   -0.031117
  26 H :    0.012809
  27 H :    0.027187
  28 C :   -0.068160
  29 H :    0.023611
  30 H :    0.039446
  31 H :    0.019061
  32 H :    0.029953
  33 H :    0.029081

  Mayer bond orders larger than 0.100000
B(  0-S ,  1-C ) :   1.1198 B(  0-S ,  4-C ) :   1.1504 B(  1-C ,  2-C ) :   1.6379
B(  1-C , 32-H ) :   0.9599 B(  2-C ,  3-C ) :   1.2343 B(  2-C ,  6-C ) :   1.0080
B(  3-C ,  4-C ) :   1.5738 B(  3-C ,  5-H ) :   0.9954 B(  4-C , 20-C ) :   1.0582
B(  6-C ,  7-H ) :   0.9397 B(  6-C ,  8-H ) :   0.9309 B(  6-C ,  9-C ) :   1.0766
B(  9-C , 10-H ) :   0.9517 B(  9-C , 11-H ) :   0.9522 B(  9-C , 12-C ) :   1.0625
B( 12-C , 13-H ) :   0.9744 B( 12-C , 14-H ) :   0.9691 B( 12-C , 15-H ) :   0.9723
B( 16-S , 17-C ) :   1.1433 B( 16-S , 20-C ) :   1.1098 B( 17-C , 18-C ) :   1.6356
B( 17-C , 33-H ) :   0.9698 B( 18-C , 19-C ) :   1.1942 B( 18-C , 21-H ) :   0.9922
B( 19-C , 20-C ) :   1.6283 B( 19-C , 22-C ) :   1.0374 B( 22-C , 23-H ) :   0.9299
B( 22-C , 24-H ) :   0.9368 B( 22-C , 25-C ) :   1.0693 B( 25-C , 26-H ) :   0.9552
B( 25-C , 27-H ) :   0.9547 B( 25-C , 28-C ) :   1.0785 B( 28-C , 29-H ) :   0.9782
B( 28-C , 30-H ) :   0.9705 B( 28-C , 31-H ) :   0.9708

Dispersion correction           -0.014239825
FINAL SINGLE POINT ENERGY     -1339.859650862676

DIPOLE MOMENT
-------------
                                X             Y             Z
Electronic contribution:      2.63609     -21.18646      -9.07692
Nuclear contribution   :     -2.93095      21.88952       9.23129
                        -----------------------------------------
Total Dipole Moment    :     -0.29486       0.70306       0.15437
                        -----------------------------------------
Magnitude (a.u.)       :      0.77786
Magnitude (Debye)      :      1.97716

Rotational constants in cm-1:     0.022105     0.007734     0.006393
Rotational constants in MHz :   662.703634   231.846785   191.659238

                             ****ORCA TERMINATED NORMALLY****
TOTAL RUN TIME: 0 days 0 hours 0 minutes 34 seconds 813 msec
