                         Program Version 4.2.1 -  RELEASE  -
|  1> ! wB97X-D3 SP def2-SVP
|  2> %pal
|  3> nprocs 16
|  4> end
|  5>
|  6> * xyz 0 1
|  7> S 	 61.6551 	 -8.1048 	 89.0459
|  8> C 	 61.0637 	 -6.53155 	 89.3523
|  9> C 	 61.3459 	 -5.71423 	 88.2775
| 10> C 	 61.9536 	 -6.36902 	 87.1952
| 11> C 	 62.1366 	 -7.74312 	 87.4089
| 12> H 	 62.2315 	 -5.9695 	 86.2831
| 13> C 	 61.0175 	 -4.22905 	 88.1766
| 14> H 	 60.0482 	 -4.08593 	 88.7089
| 15> H 	 60.9014 	 -3.92607 	 87.0977
| 16> C 	 62.1314 	 -3.18418 	 88.7237
| 17> H 	 61.6548 	 -2.13928 	 88.9609
| 18> H 	 62.6221 	 -3.4099 	 89.6426
| 19> C 	 63.242 	 -2.98992 	 87.7282
| 20> H 	 63.9171 	 -3.85006 	 87.5464
| 21> H 	 62.9819 	 -2.52506 	 86.7258
| 22> H 	 63.9103 	 -2.11395 	 88.0208
| 23> S 	 61.8493 	 -10.2611 	 86.157
| 24> C 	 62.9399 	 -10.6936 	 84.9025
| 25> C 	 63.8959 	 -9.73875 	 84.7458
| 26> C 	 63.8739 	 -8.69775 	 85.6633
| 27> C 	 62.8265 	 -8.76905 	 86.5405
| 28> H 	 64.6374 	 -9.95719 	 84.0328
| 29> C 	 64.9899 	 -7.61861 	 85.6916
| 30> H 	 64.6657 	 -6.70956 	 86.139
| 31> H 	 65.323 	 -7.41428 	 84.668
| 32> C 	 66.2044 	 -8.05819 	 86.5492
| 33> H 	 65.9642 	 -8.40573 	 87.6043
| 34> H 	 66.9941 	 -7.24753 	 86.5888
| 35> C 	 66.8658 	 -9.28979 	 85.9551
| 36> H 	 66.2064 	 -10.1679 	 86.0116
| 37> H 	 67.8671 	 -9.45911 	 86.4992
| 38> H 	 67.0828 	 -9.23166 	 84.8212
| 39> H 	 60.5347 	 -6.11288 	 90.1877
| 40> H 	 63.0373 	 -11.5899 	 84.326
| 41> *
| 42>
| 43>                          ****END OF INPUT****

CARTESIAN COORDINATES (ANGSTROEM)
---------------------------------
  S     61.655100   -8.104800   89.045900
  C     61.063700   -6.531550   89.352300
  C     61.345900   -5.714230   88.277500
  C     61.953600   -6.369020   87.195200
  C     62.136600   -7.743120   87.408900
  H     62.231500   -5.969500   86.283100
  C     61.017500   -4.229050   88.176600
  H     60.048200   -4.085930   88.708900
  H     60.901400   -3.926070   87.097700
  C     62.131400   -3.184180   88.723700
  H     61.654800   -2.139280   88.960900
  H     62.622100   -3.409900   89.642600
  C     63.242000   -2.989920   87.728200
  H     63.917100   -3.850060   87.546400
  H     62.981900   -2.525060   86.725800
  H     63.910300   -2.113950   88.020800
  S     61.849300  -10.261100   86.157000
  C     62.939900  -10.693600   84.902500
  C     63.895900   -9.738750   84.745800
  C     63.873900   -8.697750   85.663300
  C     62.826500   -8.769050   86.540500
  H     64.637400   -9.957190   84.032800
  C     64.989900   -7.618610   85.691600
  H     64.665700   -6.709560   86.139000
  H     65.323000   -7.414280   84.668000
  C     66.204400   -8.058190   86.549200
  H     65.964200   -8.405730   87.604300
  H     66.994100   -7.247530   86.588800
  C     66.865800   -9.289790   85.955100
  H     66.206400  -10.167900   86.011600
  H     67.867100   -9.459110   86.499200
  H     67.082800   -9.231660   84.821200
  H     60.534700   -6.112880   90.187700
  H     63.037300  -11.589900   84.326000

 Total Charge           Charge          ....    0
 Multiplicity           Mult            ....    1
 Number of Electrons    NEL             ....  134
 Basis Dimension        Dim             ....  322

ORBITAL ENERGIES
----------------

  NO   OCC          E(Eh)            E(eV)
   0   2.0000     -88.968661     -2420.9604
   1   2.0000     -88.964979     -2420.8602
   2   2.0000     -10.335318      -281.2383
   3   2.0000     -10.335046      -281.2309
   4   2.0000     -10.314555      -280.6733
   5   2.0000     -10.311254      -280.5835
   6   2.0000     -10.305672      -280.4316
   7   2.0000     -10.304217      -280.3920
   8   2.0000     -10.299083      -280.2523
   9   2.0000     -10.297947      -280.2214
  10   2.0000     -10.295843      -280.1641
  11   2.0000     -10.294937      -280.1395
  12   2.0000     -10.289288      -279.9858
  13   2.0000     -10.286925      -279.9214
  14   2.0000     -10.284893      -279.8662
  15   2.0000     -10.284257      -279.8489
  16   2.0000      -8.083770      -219.9706
  17   2.0000      -8.079428      -219.8524
  18   2.0000      -6.042160      -164.4155
  19   2.0000      -6.038017      -164.3028
  20   2.0000      -6.037955      -164.3011
  21   2.0000      -6.034833      -164.2161
  22   2.0000      -6.033917      -164.1912
  23   2.0000      -6.030213      -164.0905
  24   2.0000      -1.009063       -27.4580
  25   2.0000      -0.992699       -27.0127
  26   2.0000      -0.908176       -24.7127
  27   2.0000      -0.901490       -24.5308
  28   2.0000      -0.868053       -23.6209
  29   2.0000      -0.852157       -23.1884
  30   2.0000      -0.845179       -22.9985
  31   2.0000      -0.818298       -22.2670
  32   2.0000      -0.781540       -21.2668
  33   2.0000      -0.769348       -20.9350
  34   2.0000      -0.706643       -19.2287
  35   2.0000      -0.698044       -18.9947
  36   2.0000      -0.682892       -18.5824
  37   2.0000      -0.663392       -18.0518
  38   2.0000      -0.644998       -17.5513
  39   2.0000      -0.619045       -16.8451
  40   2.0000      -0.595641       -16.2082
  41   2.0000      -0.575505       -15.6603
  42   2.0000      -0.552414       -15.0319
  43   2.0000      -0.545568       -14.8457
  44   2.0000      -0.544134       -14.8066
  45   2.0000      -0.534869       -14.5545
  46   2.0000      -0.517015       -14.0687
  47   2.0000      -0.511832       -13.9276
  48   2.0000      -0.503058       -13.6889
  49   2.0000      -0.492662       -13.4060
  50   2.0000      -0.485722       -13.2172
  51   2.0000      -0.482647       -13.1335
  52   2.0000      -0.476107       -12.9555
  53   2.0000      -0.467826       -12.7302
  54   2.0000      -0.460044       -12.5184
  55   2.0000      -0.445111       -12.1121
  56   2.0000      -0.434458       -11.8222
  57   2.0000      -0.431651       -11.7458
  58   2.0000      -0.426579       -11.6078
  59   2.0000      -0.421855       -11.4793
  60   2.0000      -0.417460       -11.3597
  61   2.0000      -0.415327       -11.3016
  62   2.0000      -0.411018       -11.1844
  63   2.0000      -0.346010        -9.4154
  64   2.0000      -0.336618        -9.1598
  65   2.0000      -0.331974        -9.0335
  66   2.0000      -0.296715        -8.0740
  67   0.0000       0.026222         0.7136
  68   0.0000       0.069287         1.8854
  69   0.0000       0.115716         3.1488
  70   0.0000       0.119199         3.2436
  71   0.0000       0.128235         3.4895

MULLIKEN ATOMIC CHARGES
-----------------------
   0 S :    0.122663
   1 C :   -0.088177
   2 C :   -0.094211
   3 C :    0.057778
   4 C :   -0.149426
   5 H :   -0.017223
   6 C :    0.033447
   7 H :    0.036251
   8 H :    0.037208
   9 C :   -0.049982
  10 H :    0.041287
  11 H :    0.028707
  12 C :   -0.121873
  13 H :    0.053185
  14 H :    0.029140
  15 H :    0.032360
  16 S :    0.096575
  17 C :   -0.061905
  18 C :   -0.049508
  19 C :   -0.042242
  20 C :   -0.144952
  21 H :   -0.002785
  22 C :    0.117937
  23 H :    0.012352
  24 H :    0.028825
  25 C :   -0.089476
  26 H :    0.052106
  27 H :    0.043144
  28 C :   -0.123683
  29 H :    0.051152
  30 H :    0.049072
  31 H :    0.027201
  32 H :    0.037092
  33 H :    0.047963
Sum of atomic charges:    0.0000000

LOEWDIN ATOMIC CHARGES
----------------------
   0 S :    0.436552
   1 C :   -0.210914
   2 C :   -0.072734
   3 C :   -0.054709
   4 C :   -0.197082
   5 H :    0.018597
   6 C :   -0.032096
   7 H :    0.032987
   8 H :    0.036502
   9 C :   -0.045940
  10 H :    0.036573
  11 H :    0.020873
  12 C :   -0.091457
  13 H :    0.026936
  14 H :    0.026274
  15 H :    0.033726
  16 S :    0.391431
  17 C :   -0.183222
  18 C :   -0.077287
  19 C :   -0.054591
  20 C :   -0.177978
  21 H :    0.023633
  22 C :   -0.020204
  23 H :    0.023051
  24 H :    0.031915
  25 C :   -0.047099
  26 H :    0.037467
  27 H :    0.029052
  28 C :   -0.084760
  29 H :    0.023833
  30 H :    0.033971
  31 H :    0.022324
  32 H :    0.031812
  33 H :    0.032564

  Mayer bond orders larger than 0.100000
B(  0-S ,  1-C ) :   1.1560 B(  0-S ,  4-C ) :   1.1813 B(  1-C ,  2-C ) :   1.5761
B(  1-C ,  4-C ) :   0.1048 B(  1-C , 32-H ) :   0.9695 B(  2-C ,  3-C ) :   1.2798
B(  2-C ,  6-C ) :   1.0186 B(  3-C ,  4-C ) :   1.5314 B(  3-C ,  5-H ) :   1.0115
B(  4-C , 20-C ) :   0.9898 B(  6-C ,  7-H ) :   0.9451 B(  6-C ,  8-H ) :   0.9518
B(  6-C ,  9-C ) :   1.0385 B(  9-C , 10-H ) :   0.9574 B(  9-C , 11-H ) :   0.9590
B(  9-C , 12-C ) :   1.0803 B( 12-C , 13-H ) :   0.9743 B( 12-C , 14-H ) :   0.9711
B( 12-C , 15-H ) :   0.9680 B( 16-S , 17-C ) :   1.1620 B( 16-S , 20-C ) :   1.1262
B( 17-C , 18-C ) :   1.6159 B( 17-C , 20-C ) :   0.1003 B( 17-C , 33-H ) :   0.9626
B( 18-C , 19-C ) :   1.2485 B( 18-C , 21-H ) :   0.9957 B( 19-C , 20-C ) :   1.6240
B( 19-C , 22-C ) :   1.0224 B( 22-C , 23-H ) :   0.9342 B( 22-C , 24-H ) :   0.9399
B( 22-C , 25-C ) :   1.0707 B( 25-C , 26-H ) :   0.9526 B( 25-C , 27-H ) :   0.9577
B( 25-C , 28-C ) :   1.0726 B( 28-C , 29-H ) :   0.9687 B( 28-C , 30-H ) :   0.9716
B( 28-C , 31-H ) :   0.9717

Dispersion correction           -0.014682235
FINAL SINGLE POINT ENERGY     -1339.864815844501

DIPOLE MOMENT
-------------
                                X             Y             Z
Electronic contribution:    -17.48696     -20.51480       3.38424
Nuclear contribution   :     17.87353      21.01684      -3.60560
                        -----------------------------------------
Total Dipole Moment    :      0.38656       0.50204      -0.22136
                        -----------------------------------------
Magnitude (a.u.)       :      0.67117
Magnitude (Debye)      :      1.70599

Rotational constants in cm-1:     0.019473     0.008723     0.006888
Rotational constants in MHz :   583.781756   261.505496   206.488939

                             ****ORCA TERMINATED NORMALLY****
TOTAL RUN TIME: 0 days 0 hours 0 minutes 31 seconds 263 msec
