                         Program Version 4.2.1 -  RELEASE  -
|  1> ! wB97X-D3 SP def2-SVP
|  2> %pal
|  3> nprocs 16
|  4> end
|  5>
|  6> * xyz 0 1
|  7> S 	 -4.86474 	 61.3998 	 47.9165
|  8> C 	 -5.25578 	 61.694 	 49.529
|  9> C 	 -5.49926 	 60.5224 	 50.2865
| 10> C 	 -5.31068 	 59.3812 	 49.4133
| 11> C 	 -5.07191 	 59.7364 	 48.0872
| 12> H 	 -5.48623 	 58.2848 	 49.6031
| 13> C 	 -5.79977 	 60.5422 	 51.8471
| 14> H 	 -5.22766 	 61.2345 	 52.4103
| 15> H 	 -5.59516 	 59.5439 	 52.1917
| 16> C 	 -7.27363 	 60.7429 	 52.1541
| 17> H 	 -7.69439 	 61.6711 	 51.7571
| 18> H 	 -7.80617 	 59.9117 	 51.6804
| 19> C 	 -7.46895 	 60.8346 	 53.6685
| 20> H 	 -6.71672 	 61.4565 	 54.0745
| 21> H 	 -8.43783 	 61.2325 	 53.9039
| 22> H 	 -7.24965 	 59.8519 	 54.177
| 23> S 	 -6.31901 	 58.4068 	 46.0172
| 24> C 	 -5.35842 	 57.4674 	 44.9278
| 25> C 	 -4.02889 	 57.6524 	 45.1343
| 26> C 	 -3.66182 	 58.3674 	 46.3697
| 27> C 	 -4.86201 	 58.8708 	 46.9232
| 28> H 	 -3.32415 	 57.2965 	 44.4684
| 29> C 	 -2.21061 	 58.4236 	 46.8916
| 30> H 	 -1.70592 	 57.4762 	 47.1992
| 31> H 	 -2.3437 	 59.158 	 47.6911
| 32> C 	 -1.19774 	 58.915 	 45.9387
| 33> H 	 -1.06302 	 58.1482 	 45.1701
| 34> H 	 -0.210265 	 58.8928 	 46.4535
| 35> C 	 -1.3087 	 60.3437 	 45.4302
| 36> H 	 -2.10953 	 60.423 	 44.6357
| 37> H 	 -0.417979 	 60.809 	 45.0702
| 38> H 	 -1.55586 	 60.9679 	 46.3092
| 39> H 	 -5.18763 	 62.5692 	 50.0007
| 40> H 	 -5.61045 	 56.8766 	 44.0602
| 41> *
| 42>
| 43>                          ****END OF INPUT****

CARTESIAN COORDINATES (ANGSTROEM)
---------------------------------
  S     -4.864740   61.399800   47.916500
  C     -5.255780   61.694000   49.529000
  C     -5.499260   60.522400   50.286500
  C     -5.310680   59.381200   49.413300
  C     -5.071910   59.736400   48.087200
  H     -5.486230   58.284800   49.603100
  C     -5.799770   60.542200   51.847100
  H     -5.227660   61.234500   52.410300
  H     -5.595160   59.543900   52.191700
  C     -7.273630   60.742900   52.154100
  H     -7.694390   61.671100   51.757100
  H     -7.806170   59.911700   51.680400
  C     -7.468950   60.834600   53.668500
  H     -6.716720   61.456500   54.074500
  H     -8.437830   61.232500   53.903900
  H     -7.249650   59.851900   54.177000
  S     -6.319010   58.406800   46.017200
  C     -5.358420   57.467400   44.927800
  C     -4.028890   57.652400   45.134300
  C     -3.661820   58.367400   46.369700
  C     -4.862010   58.870800   46.923200
  H     -3.324150   57.296500   44.468400
  C     -2.210610   58.423600   46.891600
  H     -1.705920   57.476200   47.199200
  H     -2.343700   59.158000   47.691100
  C     -1.197740   58.915000   45.938700
  H     -1.063020   58.148200   45.170100
  H     -0.210265   58.892800   46.453500
  C     -1.308700   60.343700   45.430200
  H     -2.109530   60.423000   44.635700
  H     -0.417979   60.809000   45.070200
  H     -1.555860   60.967900   46.309200
  H     -5.187630   62.569200   50.000700
  H     -5.610450   56.876600   44.060200

 Total Charge           Charge          ....    0
 Multiplicity           Mult            ....    1
 Number of Electrons    NEL             ....  134
 Basis Dimension        Dim             ....  322

ORBITAL ENERGIES
----------------

  NO   OCC          E(Eh)            E(eV)
   0   2.0000     -88.967146     -2420.9191
   1   2.0000     -88.966188     -2420.8931
   2   2.0000     -10.330141      -281.0974
   3   2.0000     -10.320129      -280.8250
   4   2.0000     -10.311411      -280.5878
   5   2.0000     -10.310737      -280.5694
   6   2.0000     -10.309096      -280.5248
   7   2.0000     -10.301515      -280.3185
   8   2.0000     -10.300643      -280.2947
   9   2.0000     -10.295241      -280.1477
  10   2.0000     -10.293623      -280.1037
  11   2.0000     -10.284559      -279.8571
  12   2.0000     -10.283879      -279.8386
  13   2.0000     -10.282736      -279.8075
  14   2.0000     -10.276105      -279.6270
  15   2.0000     -10.275867      -279.6205
  16   2.0000      -8.083873      -219.9734
  17   2.0000      -8.080692      -219.8868
  18   2.0000      -6.041950      -164.4098
  19   2.0000      -6.039326      -164.3384
  20   2.0000      -6.037948      -164.3009
  21   2.0000      -6.035256      -164.2277
  22   2.0000      -6.035120      -164.2240
  23   2.0000      -6.031309      -164.1203
  24   2.0000      -1.010079       -27.4857
  25   2.0000      -0.983046       -26.7500
  26   2.0000      -0.916481       -24.9387
  27   2.0000      -0.913476       -24.8569
  28   2.0000      -0.868752       -23.6400
  29   2.0000      -0.847917       -23.0730
  30   2.0000      -0.842867       -22.9356
  31   2.0000      -0.812768       -22.1165
  32   2.0000      -0.787176       -21.4201
  33   2.0000      -0.775119       -21.0921
  34   2.0000      -0.704338       -19.1660
  35   2.0000      -0.697265       -18.9735
  36   2.0000      -0.689254       -18.7556
  37   2.0000      -0.654408       -17.8074
  38   2.0000      -0.648133       -17.6366
  39   2.0000      -0.612592       -16.6695
  40   2.0000      -0.594044       -16.1648
  41   2.0000      -0.572361       -15.5747
  42   2.0000      -0.566262       -15.4088
  43   2.0000      -0.560828       -15.2609
  44   2.0000      -0.543054       -14.7773
  45   2.0000      -0.527092       -14.3429
  46   2.0000      -0.516167       -14.0456
  47   2.0000      -0.511411       -13.9162
  48   2.0000      -0.499573       -13.5941
  49   2.0000      -0.495957       -13.4957
  50   2.0000      -0.493108       -13.4181
  51   2.0000      -0.479739       -13.0544
  52   2.0000      -0.467677       -12.7261
  53   2.0000      -0.460182       -12.5222
  54   2.0000      -0.455705       -12.4004
  55   2.0000      -0.446715       -12.1557
  56   2.0000      -0.443880       -12.0786
  57   2.0000      -0.438321       -11.9273
  58   2.0000      -0.436779       -11.8854
  59   2.0000      -0.431933       -11.7535
  60   2.0000      -0.423449       -11.5226
  61   2.0000      -0.413408       -11.2494
  62   2.0000      -0.401771       -10.9328
  63   2.0000      -0.336207        -9.1487
  64   2.0000      -0.325904        -8.8683
  65   2.0000      -0.317013        -8.6264
  66   2.0000      -0.313674        -8.5355
  67   0.0000       0.049208         1.3390
  68   0.0000       0.057271         1.5584
  69   0.0000       0.112299         3.0558
  70   0.0000       0.118872         3.2347
  71   0.0000       0.127972         3.4823

MULLIKEN ATOMIC CHARGES
-----------------------
   0 S :    0.156508
   1 C :   -0.055146
   2 C :   -0.108434
   3 C :    0.040566
   4 C :   -0.222525
   5 H :    0.032362
   6 C :    0.087013
   7 H :    0.018651
   8 H :    0.014442
   9 C :   -0.088876
  10 H :    0.027390
  11 H :    0.033717
  12 C :   -0.020295
  13 H :    0.009839
  14 H :    0.037088
  15 H :    0.029374
  16 S :    0.123371
  17 C :   -0.063011
  18 C :   -0.029110
  19 C :   -0.010276
  20 C :   -0.207015
  21 H :   -0.013578
  22 C :    0.105670
  23 H :    0.052279
  24 H :    0.022114
  25 C :   -0.119510
  26 H :    0.024264
  27 H :    0.028488
  28 C :   -0.046392
  29 H :    0.047720
  30 H :    0.029245
  31 H :    0.024740
  32 H :   -0.009917
  33 H :    0.049242
Sum of atomic charges:    0.0000000

LOEWDIN ATOMIC CHARGES
----------------------
   0 S :    0.476355
   1 C :   -0.202196
   2 C :   -0.054381
   3 C :   -0.068078
   4 C :   -0.239184
   5 H :    0.041529
   6 C :   -0.019489
   7 H :    0.021481
   8 H :    0.029323
   9 C :   -0.040756
  10 H :    0.021695
  11 H :    0.025784
  12 C :   -0.062564
  13 H :    0.017024
  14 H :    0.024596
  15 H :    0.029771
  16 S :    0.404954
  17 C :   -0.194386
  18 C :   -0.065156
  19 C :   -0.044957
  20 C :   -0.199781
  21 H :    0.013709
  22 C :   -0.031637
  23 H :    0.047091
  24 H :    0.030017
  25 C :   -0.054819
  26 H :    0.018933
  27 H :    0.030711
  28 C :   -0.070732
  29 H :    0.031902
  30 H :    0.021943
  31 H :    0.028214
  32 H :   -0.001219
  33 H :    0.034307

  Mayer bond orders larger than 0.100000
B(  0-S ,  1-C ) :   1.1846 B(  0-S ,  4-C ) :   1.1950 B(  1-C ,  2-C ) :   1.5646
B(  1-C , 32-H ) :   0.9812 B(  2-C ,  3-C ) :   1.2766 B(  2-C ,  6-C ) :   1.0079
B(  3-C ,  4-C ) :   1.5641 B(  3-C ,  5-H ) :   0.9831 B(  4-C , 20-C ) :   0.9927
B(  6-C ,  7-H ) :   0.9510 B(  6-C ,  8-H ) :   0.9424 B(  6-C ,  9-C ) :   1.0636
B(  9-C , 10-H ) :   0.9601 B(  9-C , 11-H ) :   0.9558 B(  9-C , 12-C ) :   1.0801
B( 12-C , 13-H ) :   0.9710 B( 12-C , 14-H ) :   0.9752 B( 12-C , 15-H ) :   0.9721
B( 16-S , 17-C ) :   1.1270 B( 16-S , 20-C ) :   1.1473 B( 17-C , 18-C ) :   1.6694
B( 17-C , 33-H ) :   0.9615 B( 18-C , 19-C ) :   1.1947 B( 18-C , 21-H ) :   0.9900
B( 19-C , 20-C ) :   1.6209 B( 19-C , 22-C ) :   1.0279 B( 22-C , 23-H ) :   0.9392
B( 22-C , 24-H ) :   0.9243 B( 22-C , 25-C ) :   1.0863 B( 25-C , 26-H ) :   0.9496
B( 25-C , 27-H ) :   0.9515 B( 25-C , 28-C ) :   1.0708 B( 28-C , 29-H ) :   0.9731
B( 28-C , 30-H ) :   0.9764 B( 28-C , 31-H ) :   0.9695

Dispersion correction           -0.014124630
FINAL SINGLE POINT ENERGY     -1339.857629012983

DIPOLE MOMENT
-------------
                                X             Y             Z
Electronic contribution:     -8.25654      -2.09960     -15.19797
Nuclear contribution   :      8.65984       2.02183      15.47006
                        -----------------------------------------
Total Dipole Moment    :      0.40330      -0.07777       0.27209
                        -----------------------------------------
Magnitude (a.u.)       :      0.49268
Magnitude (Debye)      :      1.25230

Rotational constants in cm-1:     0.023808     0.007035     0.006166
Rotational constants in MHz :   713.757642   210.901617   184.854524

                             ****ORCA TERMINATED NORMALLY****
TOTAL RUN TIME: 0 days 0 hours 0 minutes 32 seconds 441 msec
