                         Program Version 4.2.1 -  RELEASE  -
|  1> ! wB97X-D3 SP def2-SVP
|  2> %pal
|  3> nprocs 16
|  4> end
|  5>
|  6> * xyz 0 1
|  7> S 	 33.0032 	 0.258195 	 68.6283
|  8> C 	 33.3934 	 0.794702 	 70.2864
|  9> C 	 32.637 	 0.053262 	 71.1765
| 10> C 	 31.8025 	 -0.915279 	 70.5441
| 11> C 	 32.0357 	 -1.06695 	 69.179
| 12> H 	 30.9789 	 -1.51587 	 70.9584
| 13> C 	 32.3218 	 0.440738 	 72.6847
| 14> H 	 31.6821 	 -0.366858 	 73.0843
| 15> H 	 31.7931 	 1.29639 	 72.661
| 16> C 	 33.5673 	 0.532173 	 73.5894
| 17> H 	 34.0453 	 1.41406 	 73.2326
| 18> H 	 33.1885 	 0.819548 	 74.5859
| 19> C 	 34.6282 	 -0.573892 	 73.526
| 20> H 	 35.1377 	 -0.87066 	 72.597
| 21> H 	 35.4361 	 -0.322851 	 74.2741
| 22> H 	 34.2107 	 -1.52943 	 73.8784
| 23> S 	 30.6829 	 -1.37535 	 66.8108
| 24> C 	 30.1315 	 -2.99023 	 66.3777
| 25> C 	 30.5614 	 -3.92385 	 67.2952
| 26> C 	 31.2556 	 -3.43349 	 68.4132
| 27> C 	 31.4812 	 -2.03794 	 68.2644
| 28> H 	 30.336 	 -4.94802 	 67.0757
| 29> C 	 31.6926 	 -4.30705 	 69.544
| 30> H 	 30.8415 	 -4.88789 	 69.8516
| 31> H 	 32.0463 	 -3.62747 	 70.2938
| 32> C 	 32.9523 	 -5.21044 	 69.2645
| 33> H 	 33.7788 	 -4.64825 	 68.8591
| 34> H 	 32.6926 	 -5.9763 	 68.501
| 35> C 	 33.4008 	 -5.80813 	 70.5263
| 36> H 	 34.2851 	 -6.32029 	 70.2605
| 37> H 	 32.7145 	 -6.5298 	 70.9916
| 38> H 	 33.7634 	 -4.99056 	 71.1812
| 39> H 	 33.9662 	 1.67095 	 70.4734
| 40> H 	 29.6338 	 -3.40019 	 65.4876
| 41> *
| 42>
| 43>                          ****END OF INPUT****

CARTESIAN COORDINATES (ANGSTROEM)
---------------------------------
  S     33.003200    0.258195   68.628300
  C     33.393400    0.794702   70.286400
  C     32.637000    0.053262   71.176500
  C     31.802500   -0.915279   70.544100
  C     32.035700   -1.066950   69.179000
  H     30.978900   -1.515870   70.958400
  C     32.321800    0.440738   72.684700
  H     31.682100   -0.366858   73.084300
  H     31.793100    1.296390   72.661000
  C     33.567300    0.532173   73.589400
  H     34.045300    1.414060   73.232600
  H     33.188500    0.819548   74.585900
  C     34.628200   -0.573892   73.526000
  H     35.137700   -0.870660   72.597000
  H     35.436100   -0.322851   74.274100
  H     34.210700   -1.529430   73.878400
  S     30.682900   -1.375350   66.810800
  C     30.131500   -2.990230   66.377700
  C     30.561400   -3.923850   67.295200
  C     31.255600   -3.433490   68.413200
  C     31.481200   -2.037940   68.264400
  H     30.336000   -4.948020   67.075700
  C     31.692600   -4.307050   69.544000
  H     30.841500   -4.887890   69.851600
  H     32.046300   -3.627470   70.293800
  C     32.952300   -5.210440   69.264500
  H     33.778800   -4.648250   68.859100
  H     32.692600   -5.976300   68.501000
  C     33.400800   -5.808130   70.526300
  H     34.285100   -6.320290   70.260500
  H     32.714500   -6.529800   70.991600
  H     33.763400   -4.990560   71.181200
  H     33.966200    1.670950   70.473400
  H     29.633800   -3.400190   65.487600

 Total Charge           Charge          ....    0
 Multiplicity           Mult            ....    1
 Number of Electrons    NEL             ....  134
 Basis Dimension        Dim             ....  322

ORBITAL ENERGIES
----------------

  NO   OCC          E(Eh)            E(eV)
   0   2.0000     -88.969272     -2420.9770
   1   2.0000     -88.963182     -2420.8112
   2   2.0000     -10.330371      -281.1037
   3   2.0000     -10.327093      -281.0145
   4   2.0000     -10.317479      -280.7529
   5   2.0000     -10.316075      -280.7147
   6   2.0000     -10.305300      -280.4215
   7   2.0000     -10.304015      -280.3865
   8   2.0000     -10.293621      -280.1037
   9   2.0000     -10.289218      -279.9839
  10   2.0000     -10.287728      -279.9433
  11   2.0000     -10.287159      -279.9278
  12   2.0000     -10.286791      -279.9178
  13   2.0000     -10.283976      -279.8412
  14   2.0000     -10.283525      -279.8289
  15   2.0000     -10.272104      -279.5182
  16   2.0000      -8.082915      -219.9473
  17   2.0000      -8.077880      -219.8103
  18   2.0000      -6.041521      -164.3981
  19   2.0000      -6.037589      -164.2912
  20   2.0000      -6.036383      -164.2583
  21   2.0000      -6.033615      -164.1830
  22   2.0000      -6.032400      -164.1499
  23   2.0000      -6.028640      -164.0476
  24   2.0000      -1.003785       -27.3144
  25   2.0000      -0.979858       -26.6633
  26   2.0000      -0.914871       -24.8949
  27   2.0000      -0.906653       -24.6713
  28   2.0000      -0.867388       -23.6028
  29   2.0000      -0.859779       -23.3958
  30   2.0000      -0.840040       -22.8587
  31   2.0000      -0.811547       -22.0833
  32   2.0000      -0.786564       -21.4035
  33   2.0000      -0.772276       -21.0147
  34   2.0000      -0.705701       -19.2031
  35   2.0000      -0.701695       -19.0941
  36   2.0000      -0.692230       -18.8365
  37   2.0000      -0.657738       -17.8980
  38   2.0000      -0.641752       -17.4630
  39   2.0000      -0.609512       -16.5857
  40   2.0000      -0.590889       -16.0789
  41   2.0000      -0.576089       -15.6762
  42   2.0000      -0.567231       -15.4351
  43   2.0000      -0.556526       -15.1439
  44   2.0000      -0.536727       -14.6051
  45   2.0000      -0.529507       -14.4086
  46   2.0000      -0.514159       -13.9910
  47   2.0000      -0.511540       -13.9197
  48   2.0000      -0.503319       -13.6960
  49   2.0000      -0.500355       -13.6154
  50   2.0000      -0.492409       -13.3991
  51   2.0000      -0.479523       -13.0485
  52   2.0000      -0.476369       -12.9627
  53   2.0000      -0.463654       -12.6167
  54   2.0000      -0.457299       -12.4437
  55   2.0000      -0.448462       -12.2033
  56   2.0000      -0.444242       -12.0884
  57   2.0000      -0.436048       -11.8655
  58   2.0000      -0.431097       -11.7307
  59   2.0000      -0.425978       -11.5915
  60   2.0000      -0.416283       -11.3276
  61   2.0000      -0.413580       -11.2541
  62   2.0000      -0.406974       -11.0743
  63   2.0000      -0.347803        -9.4642
  64   2.0000      -0.331325        -9.0158
  65   2.0000      -0.328881        -8.9493
  66   2.0000      -0.285638        -7.7726
  67   0.0000       0.021850         0.5946
  68   0.0000       0.069468         1.8903
  69   0.0000       0.103518         2.8169
  70   0.0000       0.122840         3.3426
  71   0.0000       0.127501         3.4695

MULLIKEN ATOMIC CHARGES
-----------------------
   0 S :    0.092099
   1 C :   -0.120985
   2 C :   -0.087285
   3 C :    0.009367
   4 C :   -0.168446
   5 H :    0.032740
   6 C :    0.093560
   7 H :    0.021591
   8 H :    0.020470
   9 C :   -0.065007
  10 H :    0.011871
  11 H :    0.033084
  12 C :   -0.066585
  13 H :    0.051157
  14 H :    0.039553
  15 H :    0.022152
  16 S :    0.107203
  17 C :   -0.081789
  18 C :   -0.052614
  19 C :   -0.022525
  20 C :   -0.149949
  21 H :    0.006291
  22 C :    0.093611
  23 H :    0.031128
  24 H :    0.001495
  25 C :   -0.091693
  26 H :    0.031142
  27 H :    0.026691
  28 C :   -0.015388
  29 H :    0.016971
  30 H :    0.038673
  31 H :    0.035007
  32 H :    0.047904
  33 H :    0.058506
Sum of atomic charges:    0.0000000

LOEWDIN ATOMIC CHARGES
----------------------
   0 S :    0.397809
   1 C :   -0.185983
   2 C :   -0.060177
   3 C :   -0.076172
   4 C :   -0.201948
   5 H :    0.036515
   6 C :   -0.011401
   7 H :    0.027832
   8 H :    0.016225
   9 C :   -0.044655
  10 H :    0.017219
  11 H :    0.030319
  12 C :   -0.074995
  13 H :    0.032322
  14 H :    0.035017
  15 H :    0.022448
  16 S :    0.392338
  17 C :   -0.190121
  18 C :   -0.072310
  19 C :   -0.048754
  20 C :   -0.191359
  21 H :    0.027047
  22 C :   -0.028579
  23 H :    0.032226
  24 H :    0.026322
  25 C :   -0.035342
  26 H :    0.027466
  27 H :    0.021943
  28 C :   -0.065235
  29 H :    0.022839
  30 H :    0.027375
  31 H :    0.031905
  32 H :    0.023000
  33 H :    0.038864

  Mayer bond orders larger than 0.100000
B(  0-S ,  1-C ) :   1.1307 B(  0-S ,  4-C ) :   1.1640 B(  1-C ,  2-C ) :   1.5870
B(  1-C ,  4-C ) :   0.1064 B(  1-C , 32-H ) :   0.9816 B(  2-C ,  3-C ) :   1.2556
B(  2-C ,  6-C ) :   0.9952 B(  3-C ,  4-C ) :   1.5495 B(  3-C ,  5-H ) :   0.9853
B(  4-C , 20-C ) :   1.0484 B(  6-C ,  7-H ) :   0.9477 B(  6-C ,  8-H ) :   0.9470
B(  6-C ,  9-C ) :   1.0762 B(  9-C , 10-H ) :   0.9536 B(  9-C , 11-H ) :   0.9563
B(  9-C , 12-C ) :   1.0729 B( 12-C , 13-H ) :   0.9714 B( 12-C , 14-H ) :   0.9730
B( 12-C , 15-H ) :   0.9768 B( 16-S , 17-C ) :   1.1386 B( 16-S , 20-C ) :   1.1371
B( 17-C , 18-C ) :   1.6315 B( 17-C , 20-C ) :   0.1058 B( 17-C , 33-H ) :   0.9592
B( 18-C , 19-C ) :   1.2430 B( 18-C , 21-H ) :   0.9886 B( 19-C , 20-C ) :   1.5641
B( 19-C , 22-C ) :   1.0536 B( 22-C , 23-H ) :   0.9276 B( 22-C , 24-H ) :   0.9234
B( 22-C , 25-C ) :   1.0691 B( 25-C , 26-H ) :   0.9528 B( 25-C , 27-H ) :   0.9510
B( 25-C , 28-C ) :   1.1055 B( 28-C , 29-H ) :   0.9672 B( 28-C , 30-H ) :   0.9708
B( 28-C , 31-H ) :   0.9676

Dispersion correction           -0.013920100
FINAL SINGLE POINT ENERGY     -1339.861495390614

DIPOLE MOMENT
-------------
                                X             Y             Z
Electronic contribution:    -10.27212      13.15477     -24.79254
Nuclear contribution   :     10.21651     -13.53640      25.29991
                        -----------------------------------------
Total Dipole Moment    :     -0.05561      -0.38164       0.50737
                        -----------------------------------------
Magnitude (a.u.)       :      0.63731
Magnitude (Debye)      :      1.61992

Rotational constants in cm-1:     0.017904     0.009065     0.006630
Rotational constants in MHz :   536.759899   271.751135   198.772519

                             ****ORCA TERMINATED NORMALLY****
TOTAL RUN TIME: 0 days 0 hours 0 minutes 30 seconds 234 msec
