                         Program Version 4.2.1 -  RELEASE  -
|  1> ! wB97X-D3 SP def2-SVP
|  2> %pal
|  3> nprocs 16
|  4> end
|  5>
|  6> * xyz 0 1
|  7> S 	 -9.4553 	 32.5363 	 53.8966
|  8> C 	 -9.42872 	 30.8803 	 54.268
|  9> C 	 -8.4139 	 30.2668 	 53.5296
| 10> C 	 -7.59177 	 31.1736 	 52.8169
| 11> C 	 -8.03583 	 32.4717 	 52.8567
| 12> H 	 -6.62449 	 31.0044 	 52.3093
| 13> C 	 -8.1164 	 28.7597 	 53.5934
| 14> H 	 -7.81478 	 28.3395 	 52.6857
| 15> H 	 -8.98818 	 28.3263 	 53.9006
| 16> C 	 -6.9233 	 28.3533 	 54.4117
| 17> H 	 -6.86446 	 27.2346 	 54.2255
| 18> H 	 -6.00169 	 28.8328 	 53.974
| 19> C 	 -6.97438 	 28.6613 	 55.9333
| 20> H 	 -7.97348 	 28.425 	 56.2438
| 21> H 	 -6.22996 	 28.0902 	 56.4531
| 22> H 	 -6.88627 	 29.7226 	 56.1704
| 23> S 	 -7.49101 	 35.1147 	 53.0322
| 24> C 	 -6.84477 	 35.9939 	 51.5734
| 25> C 	 -6.74749 	 35.1139 	 50.4621
| 26> C 	 -7.21371 	 33.8239 	 50.7447
| 27> C 	 -7.55516 	 33.6509 	 52.1183
| 28> H 	 -6.39371 	 35.4147 	 49.4628
| 29> C 	 -7.24355 	 32.7442 	 49.6866
| 30> H 	 -6.76511 	 31.8114 	 50.0339
| 31> H 	 -6.57456 	 32.9119 	 48.779
| 32> C 	 -8.67369 	 32.4754 	 49.3014
| 33> H 	 -9.12064 	 33.4151 	 48.9713
| 34> H 	 -9.17123 	 32.1885 	 50.2176
| 35> C 	 -8.95991 	 31.3367 	 48.2557
| 36> H 	 -8.38454 	 30.4456 	 48.5741
| 37> H 	 -8.80267 	 31.6535 	 47.2071
| 38> H 	 -9.98461 	 31.1112 	 48.3198
| 39> H 	 -10.132 	 30.3328 	 54.8599
| 40> H 	 -6.62948 	 36.9875 	 51.3997
| 41> *
| 42>
| 43>                          ****END OF INPUT****

CARTESIAN COORDINATES (ANGSTROEM)
---------------------------------
  S     -9.455300   32.536300   53.896600
  C     -9.428720   30.880300   54.268000
  C     -8.413900   30.266800   53.529600
  C     -7.591770   31.173600   52.816900
  C     -8.035830   32.471700   52.856700
  H     -6.624490   31.004400   52.309300
  C     -8.116400   28.759700   53.593400
  H     -7.814780   28.339500   52.685700
  H     -8.988180   28.326300   53.900600
  C     -6.923300   28.353300   54.411700
  H     -6.864460   27.234600   54.225500
  H     -6.001690   28.832800   53.974000
  C     -6.974380   28.661300   55.933300
  H     -7.973480   28.425000   56.243800
  H     -6.229960   28.090200   56.453100
  H     -6.886270   29.722600   56.170400
  S     -7.491010   35.114700   53.032200
  C     -6.844770   35.993900   51.573400
  C     -6.747490   35.113900   50.462100
  C     -7.213710   33.823900   50.744700
  C     -7.555160   33.650900   52.118300
  H     -6.393710   35.414700   49.462800
  C     -7.243550   32.744200   49.686600
  H     -6.765110   31.811400   50.033900
  H     -6.574560   32.911900   48.779000
  C     -8.673690   32.475400   49.301400
  H     -9.120640   33.415100   48.971300
  H     -9.171230   32.188500   50.217600
  C     -8.959910   31.336700   48.255700
  H     -8.384540   30.445600   48.574100
  H     -8.802670   31.653500   47.207100
  H     -9.984610   31.111200   48.319800
  H    -10.132000   30.332800   54.859900
  H     -6.629480   36.987500   51.399700

 Total Charge           Charge          ....    0
 Multiplicity           Mult            ....    1
 Number of Electrons    NEL             ....  134
 Basis Dimension        Dim             ....  322

ORBITAL ENERGIES
----------------

  NO   OCC          E(Eh)            E(eV)
   0   2.0000     -88.975728     -2421.1526
   1   2.0000     -88.966661     -2420.9059
   2   2.0000     -10.332742      -281.1682
   3   2.0000     -10.330913      -281.1184
   4   2.0000     -10.321467      -280.8614
   5   2.0000     -10.313712      -280.6504
   6   2.0000     -10.306560      -280.4558
   7   2.0000     -10.301883      -280.3285
   8   2.0000     -10.299860      -280.2734
   9   2.0000     -10.294813      -280.1361
  10   2.0000     -10.294307      -280.1223
  11   2.0000     -10.291868      -280.0560
  12   2.0000     -10.279655      -279.7236
  13   2.0000     -10.278383      -279.6890
  14   2.0000     -10.276872      -279.6479
  15   2.0000     -10.271303      -279.4964
  16   2.0000      -8.089064      -220.1146
  17   2.0000      -8.082021      -219.9230
  18   2.0000      -6.047665      -164.5653
  19   2.0000      -6.043682      -164.4570
  20   2.0000      -6.040428      -164.3684
  21   2.0000      -6.039886      -164.3537
  22   2.0000      -6.036269      -164.2552
  23   2.0000      -6.032998      -164.1662
  24   2.0000      -1.009548       -27.4712
  25   2.0000      -0.983881       -26.7728
  26   2.0000      -0.914748       -24.8916
  27   2.0000      -0.907527       -24.6951
  28   2.0000      -0.870610       -23.6905
  29   2.0000      -0.850377       -23.1399
  30   2.0000      -0.841984       -22.9115
  31   2.0000      -0.815796       -22.1989
  32   2.0000      -0.787394       -21.4261
  33   2.0000      -0.772443       -21.0192
  34   2.0000      -0.710064       -19.3218
  35   2.0000      -0.691689       -18.8218
  36   2.0000      -0.688727       -18.7412
  37   2.0000      -0.663885       -18.0652
  38   2.0000      -0.646149       -17.5826
  39   2.0000      -0.621343       -16.9076
  40   2.0000      -0.596983       -16.2447
  41   2.0000      -0.569415       -15.4946
  42   2.0000      -0.559952       -15.2371
  43   2.0000      -0.552024       -15.0213
  44   2.0000      -0.540565       -14.7095
  45   2.0000      -0.524878       -14.2827
  46   2.0000      -0.517644       -14.0858
  47   2.0000      -0.512473       -13.9451
  48   2.0000      -0.505415       -13.7531
  49   2.0000      -0.503538       -13.7020
  50   2.0000      -0.490098       -13.3362
  51   2.0000      -0.488406       -13.2902
  52   2.0000      -0.470152       -12.7935
  53   2.0000      -0.462800       -12.5934
  54   2.0000      -0.461548       -12.5593
  55   2.0000      -0.449172       -12.2226
  56   2.0000      -0.441376       -12.0105
  57   2.0000      -0.438060       -11.9202
  58   2.0000      -0.431220       -11.7341
  59   2.0000      -0.423044       -11.5116
  60   2.0000      -0.419090       -11.4040
  61   2.0000      -0.411671       -11.2021
  62   2.0000      -0.408143       -11.1061
  63   2.0000      -0.351528        -9.5656
  64   2.0000      -0.337913        -9.1951
  65   2.0000      -0.328084        -8.9276
  66   2.0000      -0.287769        -7.8306
  67   0.0000       0.021242         0.5780
  68   0.0000       0.069894         1.9019
  69   0.0000       0.099441         2.7059
  70   0.0000       0.117697         3.2027
  71   0.0000       0.137177         3.7328

MULLIKEN ATOMIC CHARGES
-----------------------
   0 S :    0.115122
   1 C :   -0.101006
   2 C :   -0.117698
   3 C :    0.006499
   4 C :   -0.146154
   5 H :    0.032224
   6 C :    0.158321
   7 H :    0.006072
   8 H :   -0.011222
   9 C :   -0.137811
  10 H :    0.038071
  11 H :    0.034423
  12 C :   -0.017218
  13 H :    0.007425
  14 H :    0.036636
  15 H :    0.041050
  16 S :    0.122905
  17 C :   -0.057666
  18 C :   -0.055189
  19 C :   -0.015412
  20 C :   -0.169905
  21 H :    0.029690
  22 C :    0.054708
  23 H :    0.011382
  24 H :    0.026171
  25 C :   -0.104261
  26 H :    0.025196
  27 H :    0.038445
  28 C :   -0.016008
  29 H :    0.031930
  30 H :    0.037898
  31 H :    0.023940
  32 H :    0.044546
  33 H :    0.026895
Sum of atomic charges:    0.0000000

LOEWDIN ATOMIC CHARGES
----------------------
   0 S :    0.422678
   1 C :   -0.213844
   2 C :   -0.061236
   3 C :   -0.072016
   4 C :   -0.196187
   5 H :    0.038879
   6 C :   -0.024054
   7 H :    0.027847
   8 H :    0.013854
   9 C :   -0.041254
  10 H :    0.030126
  11 H :    0.025100
  12 C :   -0.064642
  13 H :    0.017910
  14 H :    0.024738
  15 H :    0.029199
  16 S :    0.412020
  17 C :   -0.166015
  18 C :   -0.061077
  19 C :   -0.053696
  20 C :   -0.206574
  21 H :    0.037638
  22 C :   -0.041966
  23 H :    0.025475
  24 H :    0.033195
  25 C :   -0.040503
  26 H :    0.022911
  27 H :    0.025825
  28 C :   -0.063228
  29 H :    0.028117
  30 H :    0.026923
  31 H :    0.021027
  32 H :    0.028414
  33 H :    0.014419

  Mayer bond orders larger than 0.100000
B(  0-S ,  1-C ) :   1.1540 B(  0-S ,  4-C ) :   1.1564 B(  1-C ,  2-C ) :   1.5747
B(  1-C ,  4-C ) :   0.1005 B(  1-C , 32-H ) :   0.9727 B(  2-C ,  3-C ) :   1.2456
B(  2-C ,  6-C ) :   1.0353 B(  3-C ,  4-C ) :   1.5746 B(  3-C ,  5-H ) :   0.9911
B(  4-C , 20-C ) :   1.0353 B(  6-C ,  7-H ) :   0.9342 B(  6-C ,  8-H ) :   0.9317
B(  6-C ,  9-C ) :   1.0742 B(  9-C , 10-H ) :   0.9570 B(  9-C , 11-H ) :   0.9549
B(  9-C , 12-C ) :   1.0683 B( 12-C , 13-H ) :   0.9753 B( 12-C , 14-H ) :   0.9759
B( 12-C , 15-H ) :   0.9737 B( 16-S , 17-C ) :   1.1447 B( 16-S , 20-C ) :   1.1628
B( 17-C , 18-C ) :   1.5780 B( 17-C , 20-C ) :   0.1196 B( 17-C , 33-H ) :   0.9757
B( 18-C , 19-C ) :   1.3002 B( 18-C , 21-H ) :   0.9784 B( 19-C , 20-C ) :   1.5294
B( 19-C , 22-C ) :   1.0371 B( 22-C , 23-H ) :   0.9306 B( 22-C , 24-H ) :   0.9405
B( 22-C , 25-C ) :   1.0526 B( 25-C , 26-H ) :   0.9547 B( 25-C , 27-H ) :   0.9588
B( 25-C , 28-C ) :   1.0796 B( 28-C , 29-H ) :   0.9725 B( 28-C , 30-H ) :   0.9764
B( 28-C , 31-H ) :   0.9742

Dispersion correction           -0.014804158
FINAL SINGLE POINT ENERGY     -1339.868669043914

DIPOLE MOMENT
-------------
                                X             Y             Z
Electronic contribution:     -3.35869      22.87457       9.18960
Nuclear contribution   :      3.47538     -23.31321      -9.57349
                        -----------------------------------------
Total Dipole Moment    :      0.11669      -0.43864      -0.38388
                        -----------------------------------------
Magnitude (a.u.)       :      0.59446
Magnitude (Debye)      :      1.51101

Rotational constants in cm-1:     0.018814     0.008877     0.007170
Rotational constants in MHz :   564.022474   266.129886   214.944566

                             ****ORCA TERMINATED NORMALLY****
TOTAL RUN TIME: 0 days 0 hours 0 minutes 36 seconds 175 msec
