                         Program Version 4.2.1 -  RELEASE  -
|  1> ! wB97X-D3 SP def2-SVP
|  2> %pal
|  3> nprocs 16
|  4> end
|  5>
|  6> * xyz 0 1
|  7> S 	 -69.6046 	 41.0792 	 126.831
|  8> C 	 -69.0002 	 40.8123 	 128.386
|  9> C 	 -69.5327 	 39.5365 	 128.866
| 10> C 	 -69.9946 	 38.7198 	 127.81
| 11> C 	 -70.0553 	 39.3734 	 126.607
| 12> H 	 -70.3392 	 37.7118 	 127.875
| 13> C 	 -69.5203 	 39.15 	 130.283
| 14> H 	 -70.0965 	 38.2341 	 130.402
| 15> H 	 -70.1152 	 39.9502 	 130.815
| 16> C 	 -68.1631 	 39.0339 	 130.959
| 17> H 	 -67.4056 	 38.622 	 130.288
| 18> H 	 -67.8124 	 40.0875 	 131.188
| 19> C 	 -68.1141 	 38.4139 	 132.337
| 20> H 	 -68.5163 	 37.3796 	 132.318
| 21> H 	 -67.0839 	 38.419 	 132.756
| 22> H 	 -68.7897 	 38.985 	 132.96
| 23> S 	 -71.3461 	 39.9105 	 124.315
| 24> C 	 -71.4403 	 38.6817 	 123.092
| 25> C 	 -70.8595 	 37.488 	 123.506
| 26> C 	 -70.2973 	 37.5346 	 124.783
| 27> C 	 -70.4309 	 38.8229 	 125.312
| 28> H 	 -70.9546 	 36.6503 	 122.805
| 29> C 	 -69.559 	 36.3274 	 125.385
| 30> H 	 -69.7345 	 36.2201 	 126.448
| 31> H 	 -68.4927 	 36.465 	 125.189
| 32> C 	 -69.9268 	 34.9755 	 124.808
| 33> H 	 -70.0855 	 34.9185 	 123.675
| 34> H 	 -70.9312 	 34.7816 	 125.225
| 35> C 	 -68.9424 	 33.7976 	 125.221
| 36> H 	 -68.666 	 33.7887 	 126.247
| 37> H 	 -68.0984 	 33.8626 	 124.602
| 38> H 	 -69.2659 	 32.803 	 124.999
| 39> H 	 -68.3966 	 41.4762 	 128.938
| 40> H 	 -71.976 	 38.8477 	 122.118
| 41> *
| 42>
| 43>                          ****END OF INPUT****

CARTESIAN COORDINATES (ANGSTROEM)
---------------------------------
  S    -69.604600   41.079200  126.831000
  C    -69.000200   40.812300  128.386000
  C    -69.532700   39.536500  128.866000
  C    -69.994600   38.719800  127.810000
  C    -70.055300   39.373400  126.607000
  H    -70.339200   37.711800  127.875000
  C    -69.520300   39.150000  130.283000
  H    -70.096500   38.234100  130.402000
  H    -70.115200   39.950200  130.815000
  C    -68.163100   39.033900  130.959000
  H    -67.405600   38.622000  130.288000
  H    -67.812400   40.087500  131.188000
  C    -68.114100   38.413900  132.337000
  H    -68.516300   37.379600  132.318000
  H    -67.083900   38.419000  132.756000
  H    -68.789700   38.985000  132.960000
  S    -71.346100   39.910500  124.315000
  C    -71.440300   38.681700  123.092000
  C    -70.859500   37.488000  123.506000
  C    -70.297300   37.534600  124.783000
  C    -70.430900   38.822900  125.312000
  H    -70.954600   36.650300  122.805000
  C    -69.559000   36.327400  125.385000
  H    -69.734500   36.220100  126.448000
  H    -68.492700   36.465000  125.189000
  C    -69.926800   34.975500  124.808000
  H    -70.085500   34.918500  123.675000
  H    -70.931200   34.781600  125.225000
  C    -68.942400   33.797600  125.221000
  H    -68.666000   33.788700  126.247000
  H    -68.098400   33.862600  124.602000
  H    -69.265900   32.803000  124.999000
  H    -68.396600   41.476200  128.938000
  H    -71.976000   38.847700  122.118000

 Total Charge           Charge          ....    0
 Multiplicity           Mult            ....    1
 Number of Electrons    NEL             ....  134
 Basis Dimension        Dim             ....  322

ORBITAL ENERGIES
----------------

  NO   OCC          E(Eh)            E(eV)
   0   2.0000     -88.966636     -2420.9052
   1   2.0000     -88.966315     -2420.8965
   2   2.0000     -10.326717      -281.0042
   3   2.0000     -10.326118      -280.9880
   4   2.0000     -10.316407      -280.7237
   5   2.0000     -10.312064      -280.6055
   6   2.0000     -10.304874      -280.4099
   7   2.0000     -10.303218      -280.3648
   8   2.0000     -10.296999      -280.1956
   9   2.0000     -10.295787      -280.1626
  10   2.0000     -10.292107      -280.0625
  11   2.0000     -10.290633      -280.0223
  12   2.0000     -10.289704      -279.9971
  13   2.0000     -10.287712      -279.9429
  14   2.0000     -10.281618      -279.7771
  15   2.0000     -10.274896      -279.5941
  16   2.0000      -8.081969      -219.9216
  17   2.0000      -8.081384      -219.9056
  18   2.0000      -6.040257      -164.3638
  19   2.0000      -6.039763      -164.3503
  20   2.0000      -6.036433      -164.2597
  21   2.0000      -6.035816      -164.2429
  22   2.0000      -6.032921      -164.1641
  23   2.0000      -6.032305      -164.1474
  24   2.0000      -1.009617       -27.4731
  25   2.0000      -0.986399       -26.8413
  26   2.0000      -0.914798       -24.8929
  27   2.0000      -0.909555       -24.7502
  28   2.0000      -0.868379       -23.6298
  29   2.0000      -0.858180       -23.3523
  30   2.0000      -0.849231       -23.1088
  31   2.0000      -0.814589       -22.1661
  32   2.0000      -0.788517       -21.4566
  33   2.0000      -0.764583       -20.8054
  34   2.0000      -0.704285       -19.1646
  35   2.0000      -0.701550       -19.0902
  36   2.0000      -0.690323       -18.7847
  37   2.0000      -0.657061       -17.8795
  38   2.0000      -0.641092       -17.4450
  39   2.0000      -0.621003       -16.8983
  40   2.0000      -0.600176       -16.3316
  41   2.0000      -0.571215       -15.5436
  42   2.0000      -0.565584       -15.3903
  43   2.0000      -0.562560       -15.3080
  44   2.0000      -0.532355       -14.4861
  45   2.0000      -0.525861       -14.3094
  46   2.0000      -0.518402       -14.1064
  47   2.0000      -0.513454       -13.9718
  48   2.0000      -0.502712       -13.6795
  49   2.0000      -0.498165       -13.5557
  50   2.0000      -0.489647       -13.3240
  51   2.0000      -0.483267       -13.1504
  52   2.0000      -0.474824       -12.9206
  53   2.0000      -0.465337       -12.6625
  54   2.0000      -0.460752       -12.5377
  55   2.0000      -0.455336       -12.3903
  56   2.0000      -0.446679       -12.1547
  57   2.0000      -0.439041       -11.9469
  58   2.0000      -0.433052       -11.7839
  59   2.0000      -0.424937       -11.5631
  60   2.0000      -0.420277       -11.4363
  61   2.0000      -0.417706       -11.3664
  62   2.0000      -0.406320       -11.0565
  63   2.0000      -0.355066        -9.6618
  64   2.0000      -0.338096        -9.2001
  65   2.0000      -0.324669        -8.8347
  66   2.0000      -0.271376        -7.3845
  67   0.0000       0.021218         0.5774
  68   0.0000       0.065385         1.7792
  69   0.0000       0.103754         2.8233
  70   0.0000       0.127719         3.4754
  71   0.0000       0.136799         3.7225

MULLIKEN ATOMIC CHARGES
-----------------------
   0 S :    0.123350
   1 C :   -0.107689
   2 C :   -0.098388
   3 C :    0.007077
   4 C :   -0.124209
   5 H :    0.002696
   6 C :    0.065934
   7 H :    0.012134
   8 H :    0.044428
   9 C :   -0.106799
  10 H :    0.036009
  11 H :    0.026128
  12 C :   -0.042598
  13 H :    0.030153
  14 H :    0.048968
  15 H :    0.023042
  16 S :    0.110098
  17 C :   -0.117246
  18 C :   -0.060790
  19 C :   -0.020649
  20 C :   -0.147200
  21 H :    0.024176
  22 C :    0.106265
  23 H :    0.025481
  24 H :    0.045184
  25 C :   -0.157620
  26 H :    0.045000
  27 H :    0.031300
  28 C :   -0.002997
  29 H :    0.026098
  30 H :    0.019272
  31 H :    0.020349
  32 H :    0.041335
  33 H :    0.071709
Sum of atomic charges:    0.0000000

LOEWDIN ATOMIC CHARGES
----------------------
   0 S :    0.423474
   1 C :   -0.214076
   2 C :   -0.055438
   3 C :   -0.065041
   4 C :   -0.187863
   5 H :    0.028754
   6 C :   -0.043824
   7 H :    0.026327
   8 H :    0.042806
   9 C :   -0.049429
  10 H :    0.022595
  11 H :    0.027769
  12 C :   -0.066342
  13 H :    0.023204
  14 H :    0.034083
  15 H :    0.022506
  16 S :    0.419520
  17 C :   -0.203205
  18 C :   -0.075119
  19 C :   -0.061852
  20 C :   -0.192825
  21 H :    0.035036
  22 C :   -0.028566
  23 H :    0.029095
  24 H :    0.037339
  25 C :   -0.045446
  26 H :    0.027950
  27 H :    0.023144
  28 C :   -0.058722
  29 H :    0.021239
  30 H :    0.020530
  31 H :    0.025742
  32 H :    0.019076
  33 H :    0.037556

  Mayer bond orders larger than 0.100000
B(  0-S ,  1-C ) :   1.1781 B(  0-S ,  4-C ) :   1.1540 B(  1-C ,  2-C ) :   1.5011
B(  1-C ,  4-C ) :   0.1153 B(  1-C , 32-H ) :   0.9845 B(  2-C ,  3-C ) :   1.2900
B(  2-C ,  6-C ) :   1.0490 B(  3-C ,  4-C ) :   1.5329 B(  3-C ,  5-H ) :   0.9969
B(  4-C , 20-C ) :   1.0620 B(  6-C ,  7-H ) :   0.9429 B(  6-C ,  8-H ) :   0.9247
B(  6-C ,  9-C ) :   1.0573 B(  9-C , 10-H ) :   0.9628 B(  9-C , 11-H ) :   0.9485
B(  9-C , 12-C ) :   1.0879 B( 12-C , 13-H ) :   0.9741 B( 12-C , 14-H ) :   0.9728
B( 12-C , 15-H ) :   0.9721 B( 16-S , 17-C ) :   1.1592 B( 16-S , 20-C ) :   1.1658
B( 17-C , 18-C ) :   1.5936 B( 17-C , 20-C ) :   0.1075 B( 17-C , 33-H ) :   0.9601
B( 18-C , 19-C ) :   1.2640 B( 18-C , 21-H ) :   0.9859 B( 19-C , 20-C ) :   1.5722
B( 19-C , 22-C ) :   1.0198 B( 22-C , 23-H ) :   0.9353 B( 22-C , 24-H ) :   0.9341
B( 22-C , 25-C ) :   1.0573 B( 25-C , 26-H ) :   0.9525 B( 25-C , 27-H ) :   0.9624
B( 25-C , 28-C ) :   1.0729 B( 28-C , 29-H ) :   0.9771 B( 28-C , 30-H ) :   0.9743
B( 28-C , 31-H ) :   0.9734

Dispersion correction           -0.013196525
FINAL SINGLE POINT ENERGY     -1339.865289967483

DIPOLE MOMENT
-------------
                                X             Y             Z
Electronic contribution:    -10.11801      23.73785     -17.63590
Nuclear contribution   :     10.23950     -24.31388      17.93578
                        -----------------------------------------
Total Dipole Moment    :      0.12148      -0.57603       0.29988
                        -----------------------------------------
Magnitude (a.u.)       :      0.66068
Magnitude (Debye)      :      1.67932

Rotational constants in cm-1:     0.017062     0.008293     0.005791
Rotational constants in MHz :   511.497023   248.604031   173.609384

                             ****ORCA TERMINATED NORMALLY****
TOTAL RUN TIME: 0 days 0 hours 0 minutes 30 seconds 176 msec
