                         Program Version 4.2.1 -  RELEASE  -
|  1> ! wB97X-D3 SP def2-SVP
|  2> %pal
|  3> nprocs 16
|  4> end
|  5>
|  6> * xyz 0 1
|  7> S 	 25.6568 	 13.0362 	 69.0394
|  8> C 	 25.5342 	 14.4851 	 68.0221
|  9> C 	 24.3871 	 15.171 	 68.3279
| 10> C 	 23.5774 	 14.5148 	 69.3322
| 11> C 	 24.1178 	 13.3475 	 69.8708
| 12> H 	 22.6721 	 14.8075 	 69.8536
| 13> C 	 24.074 	 16.5124 	 67.8265
| 14> H 	 25.0653 	 16.997 	 67.584
| 15> H 	 23.7785 	 17.0568 	 68.7264
| 16> C 	 22.9507 	 16.584 	 66.7212
| 17> H 	 23.1628 	 16.025 	 65.7734
| 18> H 	 22.1302 	 16.0648 	 67.2043
| 19> C 	 22.5154 	 18.0394 	 66.5261
| 20> H 	 22.6058 	 18.6369 	 67.4469
| 21> H 	 23.2215 	 18.4837 	 65.8984
| 22> H 	 21.4969 	 18.175 	 66.1007
| 23> S 	 23.6532 	 10.7283 	 70.6133
| 24> C 	 22.8817 	 10.4083 	 72.1839
| 25> C 	 22.5884 	 11.5492 	 72.9083
| 26> C 	 22.9666 	 12.7193 	 72.2167
| 27> C 	 23.5442 	 12.4572 	 70.9499
| 28> H 	 22.2773 	 11.5008 	 73.9259
| 29> C 	 22.8591 	 14.0944 	 72.8708
| 30> H 	 23.678 	 14.682 	 72.5096
| 31> H 	 22.9969 	 13.885 	 73.9545
| 32> C 	 21.5029 	 14.7122 	 72.5763
| 33> H 	 20.8035 	 14.0907 	 73.1165
| 34> H 	 21.1937 	 14.4836 	 71.5328
| 35> C 	 21.1786 	 16.2071 	 72.8071
| 36> H 	 21.2176 	 16.3056 	 73.8925
| 37> H 	 20.1736 	 16.4271 	 72.6045
| 38> H 	 21.7166 	 17.0552 	 72.5142
| 39> H 	 26.3463 	 15.0034 	 67.4704
| 40> H 	 22.7372 	 9.46421 	 72.7397
| 41> *
| 42>
| 43>                          ****END OF INPUT****

CARTESIAN COORDINATES (ANGSTROEM)
---------------------------------
  S     25.656800   13.036200   69.039400
  C     25.534200   14.485100   68.022100
  C     24.387100   15.171000   68.327900
  C     23.577400   14.514800   69.332200
  C     24.117800   13.347500   69.870800
  H     22.672100   14.807500   69.853600
  C     24.074000   16.512400   67.826500
  H     25.065300   16.997000   67.584000
  H     23.778500   17.056800   68.726400
  C     22.950700   16.584000   66.721200
  H     23.162800   16.025000   65.773400
  H     22.130200   16.064800   67.204300
  C     22.515400   18.039400   66.526100
  H     22.605800   18.636900   67.446900
  H     23.221500   18.483700   65.898400
  H     21.496900   18.175000   66.100700
  S     23.653200   10.728300   70.613300
  C     22.881700   10.408300   72.183900
  C     22.588400   11.549200   72.908300
  C     22.966600   12.719300   72.216700
  C     23.544200   12.457200   70.949900
  H     22.277300   11.500800   73.925900
  C     22.859100   14.094400   72.870800
  H     23.678000   14.682000   72.509600
  H     22.996900   13.885000   73.954500
  C     21.502900   14.712200   72.576300
  H     20.803500   14.090700   73.116500
  H     21.193700   14.483600   71.532800
  C     21.178600   16.207100   72.807100
  H     21.217600   16.305600   73.892500
  H     20.173600   16.427100   72.604500
  H     21.716600   17.055200   72.514200
  H     26.346300   15.003400   67.470400
  H     22.737200    9.464210   72.739700

 Total Charge           Charge          ....    0
 Multiplicity           Mult            ....    1
 Number of Electrons    NEL             ....  134
 Basis Dimension        Dim             ....  322

ORBITAL ENERGIES
----------------

  NO   OCC          E(Eh)            E(eV)
   0   2.0000     -88.973644     -2421.0959
   1   2.0000     -88.964448     -2420.8457
   2   2.0000     -10.337755      -281.3046
   3   2.0000     -10.337326      -281.2929
   4   2.0000     -10.321954      -280.8747
   5   2.0000     -10.316589      -280.7287
   6   2.0000     -10.308120      -280.4982
   7   2.0000     -10.300014      -280.2776
   8   2.0000     -10.295465      -280.1538
   9   2.0000     -10.295194      -280.1465
  10   2.0000     -10.294363      -280.1238
  11   2.0000     -10.293536      -280.1014
  12   2.0000     -10.293481      -280.0998
  13   2.0000     -10.292207      -280.0652
  14   2.0000     -10.276352      -279.6337
  15   2.0000     -10.272855      -279.5386
  16   2.0000      -8.087152      -220.0626
  17   2.0000      -8.078240      -219.8201
  18   2.0000      -6.045726      -164.5126
  19   2.0000      -6.041872      -164.4077
  20   2.0000      -6.037866      -164.2987
  21   2.0000      -6.036927      -164.2731
  22   2.0000      -6.032823      -164.1615
  23   2.0000      -6.028901      -164.0547
  24   2.0000      -0.999893       -27.2085
  25   2.0000      -0.981158       -26.6987
  26   2.0000      -0.912022       -24.8174
  27   2.0000      -0.909252       -24.7420
  28   2.0000      -0.868025       -23.6202
  29   2.0000      -0.852815       -23.2063
  30   2.0000      -0.844608       -22.9830
  31   2.0000      -0.819189       -22.2913
  32   2.0000      -0.785025       -21.3616
  33   2.0000      -0.769205       -20.9311
  34   2.0000      -0.710582       -19.3359
  35   2.0000      -0.704339       -19.1660
  36   2.0000      -0.694159       -18.8890
  37   2.0000      -0.665037       -18.0966
  38   2.0000      -0.640502       -17.4289
  39   2.0000      -0.612962       -16.6796
  40   2.0000      -0.589071       -16.0294
  41   2.0000      -0.569211       -15.4890
  42   2.0000      -0.563046       -15.3212
  43   2.0000      -0.552440       -15.0327
  44   2.0000      -0.532383       -14.4869
  45   2.0000      -0.526107       -14.3161
  46   2.0000      -0.518187       -14.1006
  47   2.0000      -0.513265       -13.9667
  48   2.0000      -0.501251       -13.6397
  49   2.0000      -0.497060       -13.5257
  50   2.0000      -0.494852       -13.4656
  51   2.0000      -0.485912       -13.2223
  52   2.0000      -0.470152       -12.7935
  53   2.0000      -0.461374       -12.5546
  54   2.0000      -0.457469       -12.4484
  55   2.0000      -0.451156       -12.2766
  56   2.0000      -0.445788       -12.1305
  57   2.0000      -0.439638       -11.9632
  58   2.0000      -0.437380       -11.9017
  59   2.0000      -0.435306       -11.8453
  60   2.0000      -0.419073       -11.4036
  61   2.0000      -0.411586       -11.1998
  62   2.0000      -0.404098       -10.9961
  63   2.0000      -0.350317        -9.5326
  64   2.0000      -0.336172        -9.1477
  65   2.0000      -0.326324        -8.8797
  66   2.0000      -0.291465        -7.9312
  67   0.0000       0.025500         0.6939
  68   0.0000       0.067592         1.8393
  69   0.0000       0.102277         2.7831
  70   0.0000       0.116276         3.1640
  71   0.0000       0.128869         3.5067

MULLIKEN ATOMIC CHARGES
-----------------------
   0 S :    0.089896
   1 C :   -0.119170
   2 C :   -0.089027
   3 C :    0.040644
   4 C :   -0.144306
   5 H :   -0.004799
   6 C :    0.021599
   7 H :    0.022401
   8 H :    0.027786
   9 C :   -0.063081
  10 H :    0.049664
  11 H :    0.025874
  12 C :   -0.026838
  13 H :    0.023921
  14 H :    0.016110
  15 H :    0.045471
  16 S :    0.119741
  17 C :   -0.083770
  18 C :   -0.043270
  19 C :   -0.066584
  20 C :   -0.166258
  21 H :    0.015630
  22 C :    0.105374
  23 H :    0.027318
  24 H :    0.030982
  25 C :   -0.091240
  26 H :    0.013337
  27 H :    0.032992
  28 C :    0.013612
  29 H :    0.009289
  30 H :    0.016289
  31 H :    0.023611
  32 H :    0.065940
  33 H :    0.060863
Sum of atomic charges:   -0.0000000

LOEWDIN ATOMIC CHARGES
----------------------
   0 S :    0.376485
   1 C :   -0.199119
   2 C :   -0.068565
   3 C :   -0.069938
   4 C :   -0.184206
   5 H :    0.029658
   6 C :   -0.038617
   7 H :    0.030824
   8 H :    0.033873
   9 C :   -0.036162
  10 H :    0.033344
  11 H :    0.023678
  12 C :   -0.067123
  13 H :    0.027507
  14 H :    0.017129
  15 H :    0.031038
  16 S :    0.403039
  17 C :   -0.182884
  18 C :   -0.072155
  19 C :   -0.049915
  20 C :   -0.193978
  21 H :    0.030854
  22 C :   -0.026259
  23 H :    0.027248
  24 H :    0.034498
  25 C :   -0.043536
  26 H :    0.026545
  27 H :    0.022594
  28 C :   -0.067583
  29 H :    0.027887
  30 H :    0.024080
  31 H :    0.020064
  32 H :    0.042050
  33 H :    0.037647

  Mayer bond orders larger than 0.100000
B(  0-S ,  1-C ) :   1.1191 B(  0-S ,  4-C ) :   1.1411 B(  1-C ,  2-C ) :   1.6353
B(  1-C , 32-H ) :   0.9577 B(  2-C ,  3-C ) :   1.2027 B(  2-C ,  6-C ) :   1.0327
B(  3-C ,  4-C ) :   1.6009 B(  3-C ,  5-H ) :   0.9929 B(  4-C , 20-C ) :   1.0177
B(  6-C ,  7-H ) :   0.9420 B(  6-C ,  8-H ) :   0.9397 B(  6-C ,  9-C ) :   1.0417
B(  9-C , 10-H ) :   0.9597 B(  9-C , 11-H ) :   0.9582 B(  9-C , 12-C ) :   1.0718
B( 12-C , 13-H ) :   0.9723 B( 12-C , 14-H ) :   0.9749 B( 12-C , 15-H ) :   0.9752
B( 16-S , 17-C ) :   1.1475 B( 16-S , 20-C ) :   1.1440 B( 17-C , 18-C ) :   1.6244
B( 17-C , 20-C ) :   0.1028 B( 17-C , 33-H ) :   0.9574 B( 18-C , 19-C ) :   1.2626
B( 18-C , 21-H ) :   0.9844 B( 19-C , 20-C ) :   1.5844 B( 19-C , 22-C ) :   1.0328
B( 22-C , 23-H ) :   0.9342 B( 22-C , 24-H ) :   0.9383 B( 22-C , 25-C ) :   1.0477
B( 25-C , 26-H ) :   0.9461 B( 25-C , 27-H ) :   0.9589 B( 25-C , 28-C ) :   1.0719
B( 28-C , 29-H ) :   0.9682 B( 28-C , 30-H ) :   0.9701 B( 28-C , 31-H ) :   0.9797

Dispersion correction           -0.013913203
FINAL SINGLE POINT ENERGY     -1339.857954854409

DIPOLE MOMENT
-------------
                                X             Y             Z
Electronic contribution:     14.91830     -28.35941      -0.28321
Nuclear contribution   :    -15.24396      28.99961       0.70316
                        -----------------------------------------
Total Dipole Moment    :     -0.32566       0.64021       0.41996
                        -----------------------------------------
Magnitude (a.u.)       :      0.83203
Magnitude (Debye)      :      2.11486

Rotational constants in cm-1:     0.017362     0.008807     0.006388
Rotational constants in MHz :   520.498302   264.014241   191.509636

                             ****ORCA TERMINATED NORMALLY****
TOTAL RUN TIME: 0 days 0 hours 0 minutes 29 seconds 818 msec
