                         Program Version 4.2.1 -  RELEASE  -
|  1> ! wB97X-D3 SP def2-SVP
|  2> %pal
|  3> nprocs 16
|  4> end
|  5>
|  6> * xyz 0 1
|  7> S 	 -47.2027 	 -0.0147993 	 95.881
|  8> C 	 -47.9093 	 -1.24233 	 96.7975
|  9> C 	 -48.6513 	 -2.17492 	 96.0581
| 10> C 	 -48.4636 	 -1.91712 	 94.6949
| 11> C 	 -47.9098 	 -0.70437 	 94.4228
| 12> H 	 -48.8818 	 -2.59367 	 93.9585
| 13> C 	 -49.3871 	 -3.40085 	 96.6159
| 14> H 	 -49.0181 	 -3.56467 	 97.5856
| 15> H 	 -49.2424 	 -4.23232 	 95.9159
| 16> C 	 -50.9355 	 -3.2692 	 96.6671
| 17> H 	 -51.2321 	 -4.12466 	 97.2581
| 18> H 	 -51.3249 	 -2.48956 	 97.319
| 19> C 	 -51.6744 	 -3.22521 	 95.3579
| 20> H 	 -52.7144 	 -3.446 	 95.3493
| 21> H 	 -51.4285 	 -2.29639 	 94.7456
| 22> H 	 -51.2531 	 -3.99223 	 94.6834
| 23> S 	 -49.2319 	 0.12174 	 92.0362
| 24> C 	 -48.374 	 1.20097 	 91.0445
| 25> C 	 -46.9811 	 1.15193 	 91.2711
| 26> C 	 -46.6157 	 0.416359 	 92.4776
| 27> C 	 -47.729 	 -0.110367 	 93.0837
| 28> H 	 -46.2909 	 1.60401 	 90.511
| 29> C 	 -45.1853 	 0.168251 	 92.8806
| 30> H 	 -45.1433 	 0.195103 	 93.9689
| 31> H 	 -44.6267 	 1.1192 	 92.626
| 32> C 	 -44.4839 	 -0.988506 	 92.3164
| 33> H 	 -43.3647 	 -0.870286 	 92.4415
| 34> H 	 -44.5629 	 -0.869724 	 91.2109
| 35> C 	 -44.9357 	 -2.38608 	 92.7269
| 36> H 	 -45.8771 	 -2.73943 	 92.2272
| 37> H 	 -45.0924 	 -2.566 	 93.7776
| 38> H 	 -44.3172 	 -3.08444 	 92.2073
| 39> H 	 -47.9184 	 -1.29357 	 97.8913
| 40> H 	 -48.7667 	 1.6128 	 90.1643
| 41> *
| 42>
| 43>                          ****END OF INPUT****

CARTESIAN COORDINATES (ANGSTROEM)
---------------------------------
  S    -47.202700   -0.014799   95.881000
  C    -47.909300   -1.242330   96.797500
  C    -48.651300   -2.174920   96.058100
  C    -48.463600   -1.917120   94.694900
  C    -47.909800   -0.704370   94.422800
  H    -48.881800   -2.593670   93.958500
  C    -49.387100   -3.400850   96.615900
  H    -49.018100   -3.564670   97.585600
  H    -49.242400   -4.232320   95.915900
  C    -50.935500   -3.269200   96.667100
  H    -51.232100   -4.124660   97.258100
  H    -51.324900   -2.489560   97.319000
  C    -51.674400   -3.225210   95.357900
  H    -52.714400   -3.446000   95.349300
  H    -51.428500   -2.296390   94.745600
  H    -51.253100   -3.992230   94.683400
  S    -49.231900    0.121740   92.036200
  C    -48.374000    1.200970   91.044500
  C    -46.981100    1.151930   91.271100
  C    -46.615700    0.416359   92.477600
  C    -47.729000   -0.110367   93.083700
  H    -46.290900    1.604010   90.511000
  C    -45.185300    0.168251   92.880600
  H    -45.143300    0.195103   93.968900
  H    -44.626700    1.119200   92.626000
  C    -44.483900   -0.988506   92.316400
  H    -43.364700   -0.870286   92.441500
  H    -44.562900   -0.869724   91.210900
  C    -44.935700   -2.386080   92.726900
  H    -45.877100   -2.739430   92.227200
  H    -45.092400   -2.566000   93.777600
  H    -44.317200   -3.084440   92.207300
  H    -47.918400   -1.293570   97.891300
  H    -48.766700    1.612800   90.164300

 Total Charge           Charge          ....    0
 Multiplicity           Mult            ....    1
 Number of Electrons    NEL             ....  134
 Basis Dimension        Dim             ....  322

ORBITAL ENERGIES
----------------

  NO   OCC          E(Eh)            E(eV)
   0   2.0000     -88.970651     -2421.0145
   1   2.0000     -88.963721     -2420.8259
   2   2.0000     -10.329857      -281.0897
   3   2.0000     -10.326336      -280.9939
   4   2.0000     -10.313939      -280.6566
   5   2.0000     -10.310317      -280.5580
   6   2.0000     -10.304452      -280.3984
   7   2.0000     -10.300308      -280.2856
   8   2.0000     -10.295985      -280.1680
   9   2.0000     -10.295681      -280.1597
  10   2.0000     -10.289186      -279.9830
  11   2.0000     -10.288586      -279.9667
  12   2.0000     -10.287281      -279.9311
  13   2.0000     -10.284466      -279.8545
  14   2.0000     -10.279075      -279.7078
  15   2.0000     -10.271994      -279.5152
  16   2.0000      -8.085760      -220.0247
  17   2.0000      -8.078267      -219.8208
  18   2.0000      -6.044149      -164.4696
  19   2.0000      -6.040236      -164.3632
  20   2.0000      -6.036772      -164.2689
  21   2.0000      -6.036605      -164.2644
  22   2.0000      -6.032967      -164.1654
  23   2.0000      -6.028884      -164.0543
  24   2.0000      -1.007892       -27.4261
  25   2.0000      -0.982422       -26.7331
  26   2.0000      -0.914654       -24.8890
  27   2.0000      -0.910984       -24.7891
  28   2.0000      -0.865071       -23.5398
  29   2.0000      -0.854869       -23.2622
  30   2.0000      -0.845909       -23.0184
  31   2.0000      -0.808347       -21.9962
  32   2.0000      -0.789747       -21.4901
  33   2.0000      -0.774304       -21.0699
  34   2.0000      -0.703496       -19.1431
  35   2.0000      -0.702594       -19.1186
  36   2.0000      -0.690328       -18.7848
  37   2.0000      -0.658441       -17.9171
  38   2.0000      -0.638831       -17.3835
  39   2.0000      -0.615825       -16.7575
  40   2.0000      -0.593883       -16.1604
  41   2.0000      -0.570705       -15.5297
  42   2.0000      -0.557556       -15.1719
  43   2.0000      -0.551348       -15.0029
  44   2.0000      -0.540283       -14.7018
  45   2.0000      -0.535780       -14.5793
  46   2.0000      -0.519307       -14.1311
  47   2.0000      -0.508397       -13.8342
  48   2.0000      -0.501336       -13.6420
  49   2.0000      -0.492223       -13.3941
  50   2.0000      -0.488284       -13.2869
  51   2.0000      -0.477606       -12.9963
  52   2.0000      -0.464921       -12.6511
  53   2.0000      -0.463367       -12.6089
  54   2.0000      -0.462442       -12.5837
  55   2.0000      -0.452461       -12.3121
  56   2.0000      -0.444267       -12.0891
  57   2.0000      -0.438680       -11.9371
  58   2.0000      -0.435160       -11.8413
  59   2.0000      -0.431598       -11.7444
  60   2.0000      -0.415504       -11.3064
  61   2.0000      -0.407052       -11.0764
  62   2.0000      -0.400535       -10.8991
  63   2.0000      -0.348671        -9.4878
  64   2.0000      -0.333068        -9.0632
  65   2.0000      -0.325215        -8.8496
  66   2.0000      -0.285848        -7.7783
  67   0.0000       0.029156         0.7934
  68   0.0000       0.063210         1.7200
  69   0.0000       0.100412         2.7324
  70   0.0000       0.113684         3.0935
  71   0.0000       0.128473         3.4959

MULLIKEN ATOMIC CHARGES
-----------------------
   0 S :    0.139711
   1 C :   -0.128809
   2 C :   -0.100314
   3 C :    0.011029
   4 C :   -0.136809
   5 H :    0.009293
   6 C :    0.101239
   7 H :    0.008705
   8 H :    0.029799
   9 C :   -0.057139
  10 H :    0.017980
  11 H :    0.023488
  12 C :   -0.062177
  13 H :    0.038745
  14 H :    0.049271
  15 H :    0.008409
  16 S :    0.100089
  17 C :   -0.068550
  18 C :   -0.070109
  19 C :   -0.050987
  20 C :   -0.158532
  21 H :    0.038441
  22 C :    0.078357
  23 H :    0.010495
  24 H :    0.023791
  25 C :   -0.062697
  26 H :    0.037927
  27 H :    0.017351
  28 C :   -0.025484
  29 H :    0.024886
  30 H :    0.045744
  31 H :    0.018354
  32 H :    0.045665
  33 H :    0.042837
Sum of atomic charges:   -0.0000000

LOEWDIN ATOMIC CHARGES
----------------------
   0 S :    0.441245
   1 C :   -0.221551
   2 C :   -0.065855
   3 C :   -0.064142
   4 C :   -0.192829
   5 H :    0.029799
   6 C :   -0.015359
   7 H :    0.024762
   8 H :    0.034742
   9 C :   -0.044957
  10 H :    0.023504
  11 H :    0.023369
  12 C :   -0.074709
  13 H :    0.025224
  14 H :    0.035498
  15 H :    0.021594
  16 S :    0.384850
  17 C :   -0.191740
  18 C :   -0.076924
  19 C :   -0.056272
  20 C :   -0.167014
  21 H :    0.037491
  22 C :   -0.042877
  23 H :    0.018691
  24 H :    0.039129
  25 C :   -0.049012
  26 H :    0.033319
  27 H :    0.028544
  28 C :   -0.071419
  29 H :    0.033446
  30 H :    0.026542
  31 H :    0.026252
  32 H :    0.028164
  33 H :    0.018496

  Mayer bond orders larger than 0.100000
B(  0-S ,  1-C ) :   1.1710 B(  0-S ,  4-C ) :   1.1439 B(  1-C ,  2-C ) :   1.5899
B(  1-C , 32-H ) :   0.9574 B(  2-C ,  3-C ) :   1.2762 B(  2-C ,  6-C ) :   1.0246
B(  3-C ,  4-C ) :   1.5536 B(  3-C ,  5-H ) :   0.9876 B(  4-C , 20-C ) :   1.0476
B(  6-C ,  7-H ) :   0.9335 B(  6-C ,  8-H ) :   0.9430 B(  6-C ,  9-C ) :   1.0756
B(  9-C , 10-H ) :   0.9518 B(  9-C , 11-H ) :   0.9511 B(  9-C , 12-C ) :   1.0802
B( 12-C , 13-H ) :   0.9721 B( 12-C , 14-H ) :   0.9691 B( 12-C , 15-H ) :   0.9690
B( 16-S , 17-C ) :   1.1675 B( 16-S , 20-C ) :   1.1081 B( 17-C , 18-C ) :   1.6144
B( 17-C , 33-H ) :   0.9688 B( 18-C , 19-C ) :   1.2121 B( 18-C , 21-H ) :   0.9799
B( 19-C , 20-C ) :   1.6171 B( 19-C , 22-C ) :   1.0414 B( 22-C , 23-H ) :   0.9212
B( 22-C , 24-H ) :   0.9230 B( 22-C , 25-C ) :   1.0938 B( 25-C , 26-H ) :   0.9492
B( 25-C , 27-H ) :   0.9433 B( 25-C , 28-C ) :   1.0834 B( 28-C , 29-H ) :   0.9661
B( 28-C , 30-H ) :   0.9773 B( 28-C , 31-H ) :   0.9645

Dispersion correction           -0.015621865
FINAL SINGLE POINT ENERGY     -1339.866604640198

DIPOLE MOMENT
-------------
                                X             Y             Z
Electronic contribution:     -1.17577      15.79320      -1.49098
Nuclear contribution   :      1.28054     -16.20405       1.44863
                        -----------------------------------------
Total Dipole Moment    :      0.10477      -0.41085      -0.04235
                        -----------------------------------------
Magnitude (a.u.)       :      0.42611
Magnitude (Debye)      :      1.08308

Rotational constants in cm-1:     0.019933     0.009125     0.007652
Rotational constants in MHz :   597.579560   273.550026   229.394328

                             ****ORCA TERMINATED NORMALLY****
TOTAL RUN TIME: 0 days 0 hours 0 minutes 31 seconds 240 msec
