                         Program Version 4.2.1 -  RELEASE  -
|  1> ! wB97X-D3 SP def2-SVP
|  2> %pal
|  3> nprocs 16
|  4> end
|  5>
|  6> * xyz 0 1
|  7> S 	 -6.604 	 58.3235 	 47.7428
|  8> C 	 -6.8113 	 58.0567 	 49.3862
|  9> C 	 -6.03336 	 57.0029 	 49.8196
| 10> C 	 -5.13674 	 56.5362 	 48.7999
| 11> C 	 -5.38095 	 57.1253 	 47.5405
| 12> H 	 -4.39409 	 55.8011 	 48.9834
| 13> C 	 -6.29865 	 56.2771 	 51.1341
| 14> H 	 -6.16676 	 56.9826 	 51.9233
| 15> H 	 -5.5069 	 55.5206 	 51.2021
| 16> C 	 -7.75941 	 55.7666 	 51.1507
| 17> H 	 -8.44956 	 56.5493 	 51.2508
| 18> H 	 -7.89798 	 55.2203 	 50.1981
| 19> C 	 -8.00251 	 54.8392 	 52.3188
| 20> H 	 -8.98605 	 54.4325 	 52.3687
| 21> H 	 -7.28047 	 54.0346 	 52.4361
| 22> H 	 -7.84065 	 55.4567 	 53.2466
| 23> S 	 -5.28841 	 57.5191 	 44.734
| 24> C 	 -3.9272 	 57.0683 	 43.8525
| 25> C 	 -2.94409 	 56.4813 	 44.5857
| 26> C 	 -3.32922 	 56.3906 	 45.9697
| 27> C 	 -4.58577 	 56.9065 	 46.2302
| 28> H 	 -1.99373 	 56.2214 	 44.0263
| 29> C 	 -2.29409 	 55.845 	 46.9045
| 30> H 	 -2.64166 	 54.8528 	 47.3064
| 31> H 	 -2.28551 	 56.4508 	 47.8574
| 32> C 	 -0.812342 	 55.6925 	 46.4656
| 33> H 	 -0.344865 	 56.6964 	 46.341
| 34> H 	 -0.770033 	 55.2269 	 45.4734
| 35> C 	 0.050328 	 54.8977 	 47.4968
| 36> H 	 0.211162 	 55.4394 	 48.4556
| 37> H 	 0.998616 	 54.5993 	 46.9642
| 38> H 	 -0.405815 	 53.9205 	 47.7475
| 39> H 	 -7.53092 	 58.5411 	 50.0714
| 40> H 	 -3.87023 	 57.3669 	 42.8102
| 41> *
| 42>
| 43>                          ****END OF INPUT****

CARTESIAN COORDINATES (ANGSTROEM)
---------------------------------
  S     -6.604000   58.323500   47.742800
  C     -6.811300   58.056700   49.386200
  C     -6.033360   57.002900   49.819600
  C     -5.136740   56.536200   48.799900
  C     -5.380950   57.125300   47.540500
  H     -4.394090   55.801100   48.983400
  C     -6.298650   56.277100   51.134100
  H     -6.166760   56.982600   51.923300
  H     -5.506900   55.520600   51.202100
  C     -7.759410   55.766600   51.150700
  H     -8.449560   56.549300   51.250800
  H     -7.897980   55.220300   50.198100
  C     -8.002510   54.839200   52.318800
  H     -8.986050   54.432500   52.368700
  H     -7.280470   54.034600   52.436100
  H     -7.840650   55.456700   53.246600
  S     -5.288410   57.519100   44.734000
  C     -3.927200   57.068300   43.852500
  C     -2.944090   56.481300   44.585700
  C     -3.329220   56.390600   45.969700
  C     -4.585770   56.906500   46.230200
  H     -1.993730   56.221400   44.026300
  C     -2.294090   55.845000   46.904500
  H     -2.641660   54.852800   47.306400
  H     -2.285510   56.450800   47.857400
  C     -0.812342   55.692500   46.465600
  H     -0.344865   56.696400   46.341000
  H     -0.770033   55.226900   45.473400
  C      0.050328   54.897700   47.496800
  H      0.211162   55.439400   48.455600
  H      0.998616   54.599300   46.964200
  H     -0.405815   53.920500   47.747500
  H     -7.530920   58.541100   50.071400
  H     -3.870230   57.366900   42.810200

 Total Charge           Charge          ....    0
 Multiplicity           Mult            ....    1
 Number of Electrons    NEL             ....  134
 Basis Dimension        Dim             ....  322

ORBITAL ENERGIES
----------------

  NO   OCC          E(Eh)            E(eV)
   0   2.0000     -88.967398     -2420.9260
   1   2.0000     -88.963575     -2420.8220
   2   2.0000     -10.337868      -281.3077
   3   2.0000     -10.335645      -281.2472
   4   2.0000     -10.310042      -280.5505
   5   2.0000     -10.307642      -280.4852
   6   2.0000     -10.307545      -280.4826
   7   2.0000     -10.298357      -280.2326
   8   2.0000     -10.296049      -280.1697
   9   2.0000     -10.295391      -280.1518
  10   2.0000     -10.295320      -280.1499
  11   2.0000     -10.293351      -280.0963
  12   2.0000     -10.291367      -280.0423
  13   2.0000     -10.291005      -280.0325
  14   2.0000     -10.284608      -279.8584
  15   2.0000     -10.275706      -279.6162
  16   2.0000      -8.083372      -219.9597
  17   2.0000      -8.079732      -219.8607
  18   2.0000      -6.041796      -164.4056
  19   2.0000      -6.038161      -164.3067
  20   2.0000      -6.037510      -164.2890
  21   2.0000      -6.034359      -164.2033
  22   2.0000      -6.034035      -164.1944
  23   2.0000      -6.030523      -164.0989
  24   2.0000      -1.010447       -27.4957
  25   2.0000      -0.994863       -27.0716
  26   2.0000      -0.914355       -24.8809
  27   2.0000      -0.906489       -24.6668
  28   2.0000      -0.863535       -23.4980
  29   2.0000      -0.854009       -23.2388
  30   2.0000      -0.846661       -23.0388
  31   2.0000      -0.815453       -22.1896
  32   2.0000      -0.779344       -21.2070
  33   2.0000      -0.769870       -20.9492
  34   2.0000      -0.705116       -19.1872
  35   2.0000      -0.704096       -19.1594
  36   2.0000      -0.688403       -18.7324
  37   2.0000      -0.654442       -17.8083
  38   2.0000      -0.635061       -17.2809
  39   2.0000      -0.622272       -16.9329
  40   2.0000      -0.601161       -16.3584
  41   2.0000      -0.573308       -15.6005
  42   2.0000      -0.568088       -15.4585
  43   2.0000      -0.560724       -15.2581
  44   2.0000      -0.525821       -14.3083
  45   2.0000      -0.523975       -14.2581
  46   2.0000      -0.517906       -14.0929
  47   2.0000      -0.508794       -13.8450
  48   2.0000      -0.502141       -13.6639
  49   2.0000      -0.499666       -13.5966
  50   2.0000      -0.488808       -13.3011
  51   2.0000      -0.475523       -12.9396
  52   2.0000      -0.472399       -12.8546
  53   2.0000      -0.467078       -12.7098
  54   2.0000      -0.458244       -12.4695
  55   2.0000      -0.454608       -12.3705
  56   2.0000      -0.448692       -12.2095
  57   2.0000      -0.438747       -11.9389
  58   2.0000      -0.427420       -11.6307
  59   2.0000      -0.424688       -11.5564
  60   2.0000      -0.421350       -11.4655
  61   2.0000      -0.419695       -11.4205
  62   2.0000      -0.415235       -11.2991
  63   2.0000      -0.358641        -9.7591
  64   2.0000      -0.331941        -9.0326
  65   2.0000      -0.326433        -8.8827
  66   2.0000      -0.285625        -7.7722
  67   0.0000       0.029972         0.8156
  68   0.0000       0.087715         2.3869
  69   0.0000       0.111951         3.0463
  70   0.0000       0.126422         3.4401
  71   0.0000       0.135506         3.6873

MULLIKEN ATOMIC CHARGES
-----------------------
   0 S :    0.123474
   1 C :   -0.124875
   2 C :   -0.127614
   3 C :    0.007529
   4 C :   -0.106945
   5 H :   -0.008609
   6 C :    0.083472
   7 H :    0.021386
   8 H :    0.019578
   9 C :   -0.063390
  10 H :    0.020604
  11 H :    0.044253
  12 C :   -0.035532
  13 H :    0.033570
  14 H :    0.024647
  15 H :    0.018355
  16 S :    0.099028
  17 C :   -0.091237
  18 C :   -0.071828
  19 C :   -0.024276
  20 C :   -0.121157
  21 H :    0.048828
  22 C :   -0.016141
  23 H :    0.040616
  24 H :    0.037444
  25 C :   -0.083231
  26 H :    0.042948
  27 H :    0.036928
  28 C :   -0.067326
  29 H :    0.050062
  30 H :    0.044126
  31 H :    0.029526
  32 H :    0.058003
  33 H :    0.057786
Sum of atomic charges:    0.0000000

LOEWDIN ATOMIC CHARGES
----------------------
   0 S :    0.450386
   1 C :   -0.229729
   2 C :   -0.067850
   3 C :   -0.071530
   4 C :   -0.199062
   5 H :    0.021062
   6 C :   -0.024113
   7 H :    0.025449
   8 H :    0.029380
   9 C :   -0.032946
  10 H :    0.017598
  11 H :    0.030428
  12 C :   -0.066259
  13 H :    0.021596
  14 H :    0.021851
  15 H :    0.028027
  16 S :    0.420677
  17 C :   -0.199169
  18 C :   -0.088811
  19 C :   -0.058446
  20 C :   -0.191147
  21 H :    0.048326
  22 C :   -0.047634
  23 H :    0.034188
  24 H :    0.036568
  25 C :   -0.045472
  26 H :    0.030127
  27 H :    0.021259
  28 C :   -0.070819
  29 H :    0.030570
  30 H :    0.035532
  31 H :    0.024233
  32 H :    0.037363
  33 H :    0.028366

  Mayer bond orders larger than 0.100000
B(  0-S ,  1-C ) :   1.1677 B(  0-S ,  4-C ) :   1.1855 B(  1-C ,  2-C ) :   1.5664
B(  1-C , 32-H ) :   0.9652 B(  2-C ,  3-C ) :   1.3011 B(  2-C ,  6-C ) :   1.0244
B(  3-C ,  4-C ) :   1.5160 B(  3-C ,  5-H ) :   0.9995 B(  4-C , 20-C ) :   1.0248
B(  6-C ,  7-H ) :   0.9283 B(  6-C ,  8-H ) :   0.9477 B(  6-C ,  9-C ) :   1.0662
B(  9-C , 10-H ) :   0.9487 B(  9-C , 11-H ) :   0.9599 B(  9-C , 12-C ) :   1.0925
B( 12-C , 13-H ) :   0.9739 B( 12-C , 14-H ) :   0.9760 B( 12-C , 15-H ) :   0.9696
B( 16-S , 17-C ) :   1.1869 B( 16-S , 20-C ) :   1.1337 B( 17-C , 18-C ) :   1.6115
B( 17-C , 33-H ) :   0.9596 B( 18-C , 19-C ) :   1.2360 B( 18-C , 21-H ) :   0.9788
B( 19-C , 20-C ) :   1.6135 B( 19-C , 22-C ) :   1.0356 B( 22-C , 23-H ) :   0.9277
B( 22-C , 24-H ) :   0.9324 B( 22-C , 25-C ) :   1.0707 B( 25-C , 26-H ) :   0.9528
B( 25-C , 27-H ) :   0.9447 B( 25-C , 28-C ) :   1.0797 B( 28-C , 29-H ) :   0.9757
B( 28-C , 30-H ) :   0.9732 B( 28-C , 31-H ) :   0.9747

Dispersion correction           -0.013185538
FINAL SINGLE POINT ENERGY     -1339.880934216847

DIPOLE MOMENT
-------------
                                X             Y             Z
Electronic contribution:    -11.25727      16.11740     -20.40402
Nuclear contribution   :     11.61713     -16.41387      20.73441
                        -----------------------------------------
Total Dipole Moment    :      0.35985      -0.29648       0.33039
                        -----------------------------------------
Magnitude (a.u.)       :      0.57145
Magnitude (Debye)      :      1.45251

Rotational constants in cm-1:     0.018525     0.007572     0.005721
Rotational constants in MHz :   555.374333   227.003344   171.497260

                             ****ORCA TERMINATED NORMALLY****
TOTAL RUN TIME: 0 days 0 hours 0 minutes 32 seconds 429 msec
