                         Program Version 4.2.1 -  RELEASE  -
|  1> ! wB97X-D3 SP def2-SVP
|  2> %pal
|  3> nprocs 16
|  4> end
|  5>
|  6> * xyz 0 1
|  7> S 	 22.5554 	 1.47567 	 83.1829
|  8> C 	 24.0091 	 2.24963 	 82.6703
|  9> C 	 23.77 	 3.10424 	 81.6049
| 10> C 	 22.4227 	 3.13033 	 81.141
| 11> C 	 21.5772 	 2.29526 	 81.9081
| 12> H 	 22.0668 	 3.55314 	 80.2389
| 13> C 	 24.7986 	 3.95862 	 80.992
| 14> H 	 25.6832 	 3.85549 	 81.7045
| 15> H 	 24.5966 	 5.04177 	 80.9197
| 16> C 	 25.1918 	 3.47646 	 79.6055
| 17> H 	 25.4307 	 2.38956 	 79.7022
| 18> H 	 24.2677 	 3.63706 	 78.9536
| 19> C 	 26.3689 	 4.18391 	 78.9653
| 20> H 	 27.3175 	 4.05577 	 79.5849
| 21> H 	 26.3701 	 3.87505 	 77.9205
| 22> H 	 26.2731 	 5.28124 	 79.0372
| 23> S 	 19.0809 	 2.69911 	 83.0984
| 24> C 	 17.6487 	 2.04528 	 82.3628
| 25> C 	 18.001 	 1.37507 	 81.1981
| 26> C 	 19.431 	 1.21027 	 80.9493
| 27> C 	 20.1451 	 1.99358 	 81.8439
| 28> H 	 17.1355 	 0.930018 	 80.7219
| 29> C 	 20.0708 	 0.495331 	 79.7166
| 30> H 	 19.6192 	 -0.58902 	 79.555
| 31> H 	 21.1925 	 0.306793 	 79.8884
| 32> C 	 19.803 	 1.36253 	 78.4824
| 33> H 	 20.1955 	 2.30568 	 78.5951
| 34> H 	 18.6989 	 1.30873 	 78.286
| 35> C 	 20.6496 	 0.885319 	 77.2619
| 36> H 	 21.6913 	 0.764772 	 77.5626
| 37> H 	 20.6201 	 1.67283 	 76.4735
| 38> H 	 20.2689 	 -0.0078034 	 76.875
| 39> H 	 25.0239 	 2.06437 	 82.9651
| 40> H 	 16.6641 	 2.1818 	 82.7558
| 41> *
| 42>
| 43>                          ****END OF INPUT****

CARTESIAN COORDINATES (ANGSTROEM)
---------------------------------
  S     22.555400    1.475670   83.182900
  C     24.009100    2.249630   82.670300
  C     23.770000    3.104240   81.604900
  C     22.422700    3.130330   81.141000
  C     21.577200    2.295260   81.908100
  H     22.066800    3.553140   80.238900
  C     24.798600    3.958620   80.992000
  H     25.683200    3.855490   81.704500
  H     24.596600    5.041770   80.919700
  C     25.191800    3.476460   79.605500
  H     25.430700    2.389560   79.702200
  H     24.267700    3.637060   78.953600
  C     26.368900    4.183910   78.965300
  H     27.317500    4.055770   79.584900
  H     26.370100    3.875050   77.920500
  H     26.273100    5.281240   79.037200
  S     19.080900    2.699110   83.098400
  C     17.648700    2.045280   82.362800
  C     18.001000    1.375070   81.198100
  C     19.431000    1.210270   80.949300
  C     20.145100    1.993580   81.843900
  H     17.135500    0.930018   80.721900
  C     20.070800    0.495331   79.716600
  H     19.619200   -0.589020   79.555000
  H     21.192500    0.306793   79.888400
  C     19.803000    1.362530   78.482400
  H     20.195500    2.305680   78.595100
  H     18.698900    1.308730   78.286000
  C     20.649600    0.885319   77.261900
  H     21.691300    0.764772   77.562600
  H     20.620100    1.672830   76.473500
  H     20.268900   -0.007803   76.875000
  H     25.023900    2.064370   82.965100
  H     16.664100    2.181800   82.755800

 Total Charge           Charge          ....    0
 Multiplicity           Mult            ....    1
 Number of Electrons    NEL             ....  134
 Basis Dimension        Dim             ....  322

ORBITAL ENERGIES
----------------

  NO   OCC          E(Eh)            E(eV)
   0   2.0000     -88.966596     -2420.9041
   1   2.0000     -88.961624     -2420.7689
   2   2.0000     -10.337093      -281.2866
   3   2.0000     -10.329626      -281.0834
   4   2.0000     -10.318455      -280.7794
   5   2.0000     -10.314338      -280.6674
   6   2.0000     -10.313396      -280.6418
   7   2.0000     -10.310991      -280.5763
   8   2.0000     -10.298901      -280.2473
   9   2.0000     -10.297975      -280.2221
  10   2.0000     -10.297381      -280.2060
  11   2.0000     -10.292339      -280.0688
  12   2.0000     -10.292103      -280.0623
  13   2.0000     -10.285435      -279.8809
  14   2.0000     -10.285403      -279.8800
  15   2.0000     -10.276309      -279.6326
  16   2.0000      -8.080753      -219.8885
  17   2.0000      -8.076272      -219.7665
  18   2.0000      -6.039255      -164.3365
  19   2.0000      -6.035169      -164.2253
  20   2.0000      -6.034809      -164.2155
  21   2.0000      -6.031704      -164.1310
  22   2.0000      -6.030732      -164.1046
  23   2.0000      -6.027047      -164.0043
  24   2.0000      -0.999996       -27.2113
  25   2.0000      -0.980776       -26.6883
  26   2.0000      -0.915693       -24.9173
  27   2.0000      -0.906647       -24.6711
  28   2.0000      -0.868497       -23.6330
  29   2.0000      -0.850086       -23.1320
  30   2.0000      -0.843588       -22.9552
  31   2.0000      -0.815771       -22.1982
  32   2.0000      -0.778625       -21.1875
  33   2.0000      -0.767239       -20.8776
  34   2.0000      -0.707938       -19.2640
  35   2.0000      -0.693560       -18.8727
  36   2.0000      -0.686864       -18.6905
  37   2.0000      -0.655833       -17.8461
  38   2.0000      -0.644106       -17.5270
  39   2.0000      -0.620153       -16.8752
  40   2.0000      -0.591672       -16.1002
  41   2.0000      -0.577123       -15.7043
  42   2.0000      -0.574101       -15.6221
  43   2.0000      -0.557549       -15.1717
  44   2.0000      -0.533367       -14.5137
  45   2.0000      -0.520109       -14.1529
  46   2.0000      -0.517161       -14.0727
  47   2.0000      -0.512338       -13.9414
  48   2.0000      -0.506834       -13.7916
  49   2.0000      -0.501065       -13.6347
  50   2.0000      -0.490957       -13.3596
  51   2.0000      -0.478158       -13.0113
  52   2.0000      -0.469184       -12.7671
  53   2.0000      -0.465696       -12.6722
  54   2.0000      -0.458707       -12.4821
  55   2.0000      -0.439742       -11.9660
  56   2.0000      -0.435534       -11.8515
  57   2.0000      -0.432567       -11.7708
  58   2.0000      -0.429907       -11.6984
  59   2.0000      -0.429568       -11.6892
  60   2.0000      -0.423631       -11.5276
  61   2.0000      -0.414157       -11.2698
  62   2.0000      -0.411222       -11.1899
  63   2.0000      -0.336627        -9.1601
  64   2.0000      -0.328233        -8.9317
  65   2.0000      -0.325014        -8.8441
  66   2.0000      -0.303928        -8.2703
  67   0.0000       0.037829         1.0294
  68   0.0000       0.053276         1.4497
  69   0.0000       0.116539         3.1712
  70   0.0000       0.120802         3.2872
  71   0.0000       0.124100         3.3769

MULLIKEN ATOMIC CHARGES
-----------------------
   0 S :    0.116775
   1 C :   -0.087494
   2 C :   -0.095822
   3 C :    0.077028
   4 C :   -0.185857
   5 H :    0.004194
   6 C :    0.031518
   7 H :    0.015146
   8 H :    0.039151
   9 C :   -0.128551
  10 H :    0.038364
  11 H :    0.035496
  12 C :   -0.030298
  13 H :    0.037805
  14 H :    0.049267
  15 H :    0.021324
  16 S :    0.104379
  17 C :   -0.095427
  18 C :   -0.047384
  19 C :    0.027896
  20 C :   -0.187239
  21 H :    0.021149
  22 C :   -0.015189
  23 H :    0.050320
  24 H :    0.052429
  25 C :   -0.058574
  26 H :    0.014373
  27 H :    0.047708
  28 C :   -0.035947
  29 H :    0.030854
  30 H :    0.035773
  31 H :    0.019135
  32 H :    0.039917
  33 H :    0.057780
Sum of atomic charges:   -0.0000000

LOEWDIN ATOMIC CHARGES
----------------------
   0 S :    0.404366
   1 C :   -0.203072
   2 C :   -0.069752
   3 C :   -0.047721
   4 C :   -0.177798
   5 H :    0.025800
   6 C :   -0.044103
   7 H :    0.030914
   8 H :    0.032450
   9 C :   -0.050874
  10 H :    0.028461
  11 H :    0.027242
  12 C :   -0.074070
  13 H :    0.033543
  14 H :    0.031488
  15 H :    0.023797
  16 S :    0.391389
  17 C :   -0.181290
  18 C :   -0.078785
  19 C :   -0.045387
  20 C :   -0.202144
  21 H :    0.029734
  22 C :   -0.040288
  23 H :    0.041615
  24 H :    0.038220
  25 C :   -0.035420
  26 H :    0.012620
  27 H :    0.033132
  28 C :   -0.058113
  29 H :    0.025378
  30 H :    0.028679
  31 H :    0.012758
  32 H :    0.028740
  33 H :    0.028493

  Mayer bond orders larger than 0.100000
B(  0-S ,  1-C ) :   1.1439 B(  0-S ,  4-C ) :   1.1580 B(  1-C ,  2-C ) :   1.6082
B(  1-C ,  4-C ) :   0.1020 B(  1-C , 32-H ) :   0.9610 B(  2-C ,  3-C ) :   1.2342
B(  2-C ,  6-C ) :   1.0397 B(  3-C ,  4-C ) :   1.5732 B(  3-C ,  5-H ) :   0.9995
B(  4-C , 20-C ) :   1.0205 B(  6-C ,  7-H ) :   0.9384 B(  6-C ,  8-H ) :   0.9385
B(  6-C ,  9-C ) :   1.0576 B(  9-C , 10-H ) :   0.9533 B(  9-C , 11-H ) :   0.9527
B(  9-C , 12-C ) :   1.0872 B( 12-C , 13-H ) :   0.9709 B( 12-C , 14-H ) :   0.9722
B( 12-C , 15-H ) :   0.9689 B( 16-S , 17-C ) :   1.1502 B( 16-S , 20-C ) :   1.1404
B( 17-C , 18-C ) :   1.6336 B( 17-C , 33-H ) :   0.9715 B( 18-C , 19-C ) :   1.1942
B( 18-C , 21-H ) :   0.9859 B( 19-C , 20-C ) :   1.6109 B( 19-C , 22-C ) :   1.0411
B( 22-C , 23-H ) :   0.9391 B( 22-C , 24-H ) :   0.9374 B( 22-C , 25-C ) :   1.0618
B( 25-C , 26-H ) :   0.9572 B( 25-C , 27-H ) :   0.9553 B( 25-C , 28-C ) :   1.0776
B( 28-C , 29-H ) :   0.9746 B( 28-C , 30-H ) :   0.9785 B( 28-C , 31-H ) :   0.9760

Dispersion correction           -0.014225496
FINAL SINGLE POINT ENERGY     -1339.869669775666

DIPOLE MOMENT
-------------
                                X             Y             Z
Electronic contribution:    -14.57055      -2.33000      27.26378
Nuclear contribution   :     14.67447       2.34718     -27.92960
                        -----------------------------------------
Total Dipole Moment    :      0.10392       0.01718      -0.66582
                        -----------------------------------------
Magnitude (a.u.)       :      0.67411
Magnitude (Debye)      :      1.71344

Rotational constants in cm-1:     0.018106     0.008755     0.006616
Rotational constants in MHz :   542.794553   262.474217   198.351844

                             ****ORCA TERMINATED NORMALLY****
TOTAL RUN TIME: 0 days 0 hours 0 minutes 34 seconds 895 msec
