                         Program Version 4.2.1 -  RELEASE  -
|  1> ! wB97X-D3 SP def2-SVP
|  2> %pal
|  3> nprocs 16
|  4> end
|  5>
|  6> * xyz 0 1
|  7> S 	 7.87684 	 -12.3233 	 69.8331
|  8> C 	 6.77179 	 -11.2348 	 68.9657
|  9> C 	 7.49116 	 -10.1244 	 68.5423
| 10> C 	 8.87105 	 -10.1723 	 68.8385
| 11> C 	 9.28101 	 -11.3414 	 69.5022
| 12> H 	 9.67557 	 -9.44555 	 68.6274
| 13> C 	 7.04058 	 -8.97258 	 67.6568
| 14> H 	 7.25205 	 -8.03097 	 68.0817
| 15> H 	 5.9611 	 -9.14719 	 67.5703
| 16> C 	 7.68594 	 -8.97171 	 66.2539
| 17> H 	 8.7633 	 -8.99024 	 66.2246
| 18> H 	 7.40011 	 -9.93064 	 65.8039
| 19> C 	 7.22292 	 -7.76753 	 65.4252
| 20> H 	 7.72146 	 -6.83935 	 65.7636
| 21> H 	 7.47521 	 -7.95541 	 64.3572
| 22> H 	 6.17313 	 -7.60608 	 65.4642
| 23> S 	 10.6271 	 -13.0419 	 71.1472
| 24> C 	 12.2221 	 -12.6049 	 71.6771
| 25> C 	 12.6858 	 -11.5285 	 71.0076
| 26> C 	 11.8247 	 -11.0431 	 69.9815
| 27> C 	 10.5821 	 -11.6006 	 70.1145
| 28> H 	 13.6321 	 -11.121 	 71.108
| 29> C 	 12.206 	 -9.81379 	 69.1188
| 30> H 	 13.226 	 -9.40498 	 69.3869
| 31> H 	 11.5904 	 -9.00841 	 69.4255
| 32> C 	 12.0872 	 -10.0217 	 67.6088
| 33> H 	 11.3765 	 -10.8324 	 67.3409
| 34> H 	 13.0083 	 -10.4782 	 67.2821
| 35> C 	 11.9102 	 -8.72382 	 66.8815
| 36> H 	 12.1589 	 -8.84872 	 65.8591
| 37> H 	 12.6032 	 -7.99709 	 67.1366
| 38> H 	 10.9371 	 -8.32017 	 67.0399
| 39> H 	 5.80177 	 -11.4496 	 68.6895
| 40> H 	 12.7192 	 -13.2143 	 72.3387
| 41> *
| 42>
| 43>                          ****END OF INPUT****

CARTESIAN COORDINATES (ANGSTROEM)
---------------------------------
  S      7.876840  -12.323300   69.833100
  C      6.771790  -11.234800   68.965700
  C      7.491160  -10.124400   68.542300
  C      8.871050  -10.172300   68.838500
  C      9.281010  -11.341400   69.502200
  H      9.675570   -9.445550   68.627400
  C      7.040580   -8.972580   67.656800
  H      7.252050   -8.030970   68.081700
  H      5.961100   -9.147190   67.570300
  C      7.685940   -8.971710   66.253900
  H      8.763300   -8.990240   66.224600
  H      7.400110   -9.930640   65.803900
  C      7.222920   -7.767530   65.425200
  H      7.721460   -6.839350   65.763600
  H      7.475210   -7.955410   64.357200
  H      6.173130   -7.606080   65.464200
  S     10.627100  -13.041900   71.147200
  C     12.222100  -12.604900   71.677100
  C     12.685800  -11.528500   71.007600
  C     11.824700  -11.043100   69.981500
  C     10.582100  -11.600600   70.114500
  H     13.632100  -11.121000   71.108000
  C     12.206000   -9.813790   69.118800
  H     13.226000   -9.404980   69.386900
  H     11.590400   -9.008410   69.425500
  C     12.087200  -10.021700   67.608800
  H     11.376500  -10.832400   67.340900
  H     13.008300  -10.478200   67.282100
  C     11.910200   -8.723820   66.881500
  H     12.158900   -8.848720   65.859100
  H     12.603200   -7.997090   67.136600
  H     10.937100   -8.320170   67.039900
  H      5.801770  -11.449600   68.689500
  H     12.719200  -13.214300   72.338700

 Total Charge           Charge          ....    0
 Multiplicity           Mult            ....    1
 Number of Electrons    NEL             ....  134
 Basis Dimension        Dim             ....  322

ORBITAL ENERGIES
----------------

  NO   OCC          E(Eh)            E(eV)
   0   2.0000     -88.966070     -2420.8898
   1   2.0000     -88.961827     -2420.7744
   2   2.0000     -10.331471      -281.1336
   3   2.0000     -10.329255      -281.0733
   4   2.0000     -10.313787      -280.6524
   5   2.0000     -10.309304      -280.5304
   6   2.0000     -10.303461      -280.3714
   7   2.0000     -10.301110      -280.3075
   8   2.0000     -10.298791      -280.2443
   9   2.0000     -10.291976      -280.0589
  10   2.0000     -10.289092      -279.9804
  11   2.0000     -10.286324      -279.9051
  12   2.0000     -10.285413      -279.8803
  13   2.0000     -10.285226      -279.8752
  14   2.0000     -10.279708      -279.7251
  15   2.0000     -10.269772      -279.4547
  16   2.0000      -8.080224      -219.8741
  17   2.0000      -8.077146      -219.7903
  18   2.0000      -6.038966      -164.3286
  19   2.0000      -6.035665      -164.2388
  20   2.0000      -6.034711      -164.2128
  21   2.0000      -6.031733      -164.1318
  22   2.0000      -6.030883      -164.1087
  23   2.0000      -6.027717      -164.0225
  24   2.0000      -1.009384       -27.4667
  25   2.0000      -0.984838       -26.7988
  26   2.0000      -0.916810       -24.9477
  27   2.0000      -0.911918       -24.8146
  28   2.0000      -0.871281       -23.7087
  29   2.0000      -0.859929       -23.3999
  30   2.0000      -0.843483       -22.9523
  31   2.0000      -0.815167       -22.1818
  32   2.0000      -0.788079       -21.4447
  33   2.0000      -0.775174       -21.0936
  34   2.0000      -0.714349       -19.4384
  35   2.0000      -0.702722       -19.1220
  36   2.0000      -0.699873       -19.0445
  37   2.0000      -0.672731       -18.3059
  38   2.0000      -0.643159       -17.5012
  39   2.0000      -0.619520       -16.8580
  40   2.0000      -0.607139       -16.5211
  41   2.0000      -0.575146       -15.6505
  42   2.0000      -0.568946       -15.4818
  43   2.0000      -0.558878       -15.2078
  44   2.0000      -0.530970       -14.4484
  45   2.0000      -0.527889       -14.3646
  46   2.0000      -0.524121       -14.2621
  47   2.0000      -0.511095       -13.9076
  48   2.0000      -0.507964       -13.8224
  49   2.0000      -0.502923       -13.6852
  50   2.0000      -0.500392       -13.6164
  51   2.0000      -0.487379       -13.2622
  52   2.0000      -0.469888       -12.7863
  53   2.0000      -0.469215       -12.7680
  54   2.0000      -0.463673       -12.6172
  55   2.0000      -0.455334       -12.3903
  56   2.0000      -0.446262       -12.1434
  57   2.0000      -0.437737       -11.9114
  58   2.0000      -0.435778       -11.8581
  59   2.0000      -0.425697       -11.5838
  60   2.0000      -0.418873       -11.3981
  61   2.0000      -0.414057       -11.2671
  62   2.0000      -0.409547       -11.1443
  63   2.0000      -0.362623        -9.8675
  64   2.0000      -0.336858        -9.1664
  65   2.0000      -0.326210        -8.8766
  66   2.0000      -0.281635        -7.6637
  67   0.0000       0.016158         0.4397
  68   0.0000       0.087170         2.3720
  69   0.0000       0.094548         2.5728
  70   0.0000       0.124673         3.3925
  71   0.0000       0.128183         3.4880

MULLIKEN ATOMIC CHARGES
-----------------------
   0 S :    0.085728
   1 C :   -0.084486
   2 C :   -0.066005
   3 C :   -0.013261
   4 C :   -0.095608
   5 H :   -0.011189
   6 C :    0.090888
   7 H :    0.019636
   8 H :    0.018019
   9 C :   -0.090707
  10 H :    0.026706
  11 H :    0.024583
  12 C :   -0.044705
  13 H :    0.035098
  14 H :    0.040271
  15 H :    0.023714
  16 S :    0.078785
  17 C :   -0.036451
  18 C :    0.014689
  19 C :   -0.061652
  20 C :   -0.115372
  21 H :   -0.016503
  22 C :    0.019090
  23 H :    0.025797
  24 H :    0.033313
  25 C :   -0.089457
  26 H :    0.054093
  27 H :    0.017567
  28 C :    0.020470
  29 H :    0.020191
  30 H :    0.005340
  31 H :    0.026143
  32 H :    0.018584
  33 H :    0.026691
Sum of atomic charges:    0.0000000

LOEWDIN ATOMIC CHARGES
----------------------
   0 S :    0.393483
   1 C :   -0.182025
   2 C :   -0.058324
   3 C :   -0.073513
   4 C :   -0.187457
   5 H :    0.032149
   6 C :   -0.024526
   7 H :    0.023237
   8 H :    0.030075
   9 C :   -0.039601
  10 H :    0.020023
  11 H :    0.024962
  12 C :   -0.064686
  13 H :    0.027423
  14 H :    0.032689
  15 H :    0.018110
  16 S :    0.388533
  17 C :   -0.164643
  18 C :   -0.059410
  19 C :   -0.055966
  20 C :   -0.174187
  21 H :    0.018971
  22 C :   -0.031171
  23 H :    0.035967
  24 H :    0.021865
  25 C :   -0.047740
  26 H :    0.033293
  27 H :    0.024854
  28 C :   -0.054379
  29 H :    0.028205
  30 H :    0.019801
  31 H :    0.017337
  32 H :    0.014546
  33 H :    0.012103

  Mayer bond orders larger than 0.100000
B(  0-S ,  1-C ) :   1.1222 B(  0-S ,  4-C ) :   1.1497 B(  1-C ,  2-C ) :   1.5922
B(  1-C , 32-H ) :   0.9801 B(  2-C ,  3-C ) :   1.2481 B(  2-C ,  6-C ) :   1.0324
B(  3-C ,  4-C ) :   1.5536 B(  3-C ,  5-H ) :   0.9816 B(  4-C , 20-C ) :   1.0849
B(  6-C ,  7-H ) :   0.9377 B(  6-C ,  8-H ) :   0.9391 B(  6-C ,  9-C ) :   1.0631
B(  9-C , 10-H ) :   0.9528 B(  9-C , 11-H ) :   0.9529 B(  9-C , 12-C ) :   1.0844
B( 12-C , 13-H ) :   0.9739 B( 12-C , 14-H ) :   0.9736 B( 12-C , 15-H ) :   0.9755
B( 16-S , 17-C ) :   1.1434 B( 16-S , 20-C ) :   1.1288 B( 17-C , 18-C ) :   1.6010
B( 17-C , 33-H ) :   0.9848 B( 18-C , 19-C ) :   1.2401 B( 18-C , 21-H ) :   0.9998
B( 19-C , 20-C ) :   1.5997 B( 19-C , 22-C ) :   1.0265 B( 22-C , 23-H ) :   0.9325
B( 22-C , 24-H ) :   0.9520 B( 22-C , 25-C ) :   1.0328 B( 25-C , 26-H ) :   0.9652
B( 25-C , 27-H ) :   0.9451 B( 25-C , 28-C ) :   1.0859 B( 28-C , 29-H ) :   0.9647
B( 28-C , 30-H ) :   0.9593 B( 28-C , 31-H ) :   0.9706

Dispersion correction           -0.015120377
FINAL SINGLE POINT ENERGY     -1339.870330515236

DIPOLE MOMENT
-------------
                                X             Y             Z
Electronic contribution:     -2.38848     -24.19869      23.79507
Nuclear contribution   :      2.77840      24.78549     -24.26080
                        -----------------------------------------
Total Dipole Moment    :      0.38992       0.58681      -0.46574
                        -----------------------------------------
Magnitude (a.u.)       :      0.84457
Magnitude (Debye)      :      2.14672

Rotational constants in cm-1:     0.019670     0.009821     0.006791
Rotational constants in MHz :   589.696311   294.422249   203.578595

                             ****ORCA TERMINATED NORMALLY****
TOTAL RUN TIME: 0 days 0 hours 0 minutes 34 seconds 594 msec
