                         Program Version 4.2.1 -  RELEASE  -
|  1> ! wB97X-D3 SP def2-SVP
|  2> %pal
|  3> nprocs 16
|  4> end
|  5>
|  6> * xyz 0 1
|  7> S 	 -96.7644 	 39.4035 	 126.473
|  8> C 	 -97.7112 	 39.7901 	 127.862
|  9> C 	 -97.4674 	 41.0441 	 128.39
| 10> C 	 -96.619 	 41.7568 	 127.462
| 11> C 	 -96.2348 	 41.038 	 126.365
| 12> H 	 -96.2995 	 42.8081 	 127.465
| 13> C 	 -98.1165 	 41.6695 	 129.647
| 14> H 	 -99.0098 	 41.1496 	 129.834
| 15> H 	 -98.3481 	 42.6961 	 129.37
| 16> C 	 -97.1751 	 41.7898 	 130.832
| 17> H 	 -96.5451 	 42.5955 	 130.571
| 18> H 	 -97.7665 	 42.0846 	 131.726
| 19> C 	 -96.3048 	 40.541 	 131.174
| 20> H 	 -95.639 	 40.7245 	 132.002
| 21> H 	 -97.0027 	 39.7952 	 131.542
| 22> H 	 -95.917 	 39.9017 	 130.393
| 23> S 	 -94.1998 	 40.5377 	 124.636
| 24> C 	 -93.5722 	 41.8072 	 123.626
| 25> C 	 -94.1497 	 42.9962 	 123.784
| 26> C 	 -95.283 	 42.9095 	 124.741
| 27> C 	 -95.4031 	 41.643 	 125.304
| 28> H 	 -93.7856 	 43.8104 	 123.164
| 29> C 	 -96.1133 	 44.1869 	 125.017
| 30> H 	 -95.4362 	 44.8236 	 125.631
| 31> H 	 -97.017 	 43.947 	 125.567
| 32> C 	 -96.5066 	 44.8855 	 123.726
| 33> H 	 -96.9804 	 44.2099 	 123.051
| 34> H 	 -95.6122 	 45.3392 	 123.226
| 35> C 	 -97.5361 	 46.0202 	 123.892
| 36> H 	 -98.5817 	 45.6258 	 124.076
| 37> H 	 -97.5689 	 46.6205 	 122.972
| 38> H 	 -97.1983 	 46.6938 	 124.686
| 39> H 	 -98.204 	 38.9855 	 128.373
| 40> H 	 -92.7494 	 41.6426 	 122.918
| 41> *
| 42>
| 43>                          ****END OF INPUT****

CARTESIAN COORDINATES (ANGSTROEM)
---------------------------------
  S    -96.764400   39.403500  126.473000
  C    -97.711200   39.790100  127.862000
  C    -97.467400   41.044100  128.390000
  C    -96.619000   41.756800  127.462000
  C    -96.234800   41.038000  126.365000
  H    -96.299500   42.808100  127.465000
  C    -98.116500   41.669500  129.647000
  H    -99.009800   41.149600  129.834000
  H    -98.348100   42.696100  129.370000
  C    -97.175100   41.789800  130.832000
  H    -96.545100   42.595500  130.571000
  H    -97.766500   42.084600  131.726000
  C    -96.304800   40.541000  131.174000
  H    -95.639000   40.724500  132.002000
  H    -97.002700   39.795200  131.542000
  H    -95.917000   39.901700  130.393000
  S    -94.199800   40.537700  124.636000
  C    -93.572200   41.807200  123.626000
  C    -94.149700   42.996200  123.784000
  C    -95.283000   42.909500  124.741000
  C    -95.403100   41.643000  125.304000
  H    -93.785600   43.810400  123.164000
  C    -96.113300   44.186900  125.017000
  H    -95.436200   44.823600  125.631000
  H    -97.017000   43.947000  125.567000
  C    -96.506600   44.885500  123.726000
  H    -96.980400   44.209900  123.051000
  H    -95.612200   45.339200  123.226000
  C    -97.536100   46.020200  123.892000
  H    -98.581700   45.625800  124.076000
  H    -97.568900   46.620500  122.972000
  H    -97.198300   46.693800  124.686000
  H    -98.204000   38.985500  128.373000
  H    -92.749400   41.642600  122.918000

 Total Charge           Charge          ....    0
 Multiplicity           Mult            ....    1
 Number of Electrons    NEL             ....  134
 Basis Dimension        Dim             ....  322

ORBITAL ENERGIES
----------------

  NO   OCC          E(Eh)            E(eV)
   0   2.0000     -88.967413     -2420.9264
   1   2.0000     -88.958930     -2420.6956
   2   2.0000     -10.329895      -281.0907
   3   2.0000     -10.324983      -280.9571
   4   2.0000     -10.311670      -280.5948
   5   2.0000     -10.311291      -280.5845
   6   2.0000     -10.311176      -280.5814
   7   2.0000     -10.306178      -280.4454
   8   2.0000     -10.297378      -280.2059
   9   2.0000     -10.292816      -280.0818
  10   2.0000     -10.291529      -280.0467
  11   2.0000     -10.291484      -280.0455
  12   2.0000     -10.287294      -279.9315
  13   2.0000     -10.285946      -279.8948
  14   2.0000     -10.283472      -279.8275
  15   2.0000     -10.272028      -279.5161
  16   2.0000      -8.083094      -219.9522
  17   2.0000      -8.074347      -219.7142
  18   2.0000      -6.041516      -164.3980
  19   2.0000      -6.037612      -164.2918
  20   2.0000      -6.033756      -164.1869
  21   2.0000      -6.032922      -164.1641
  22   2.0000      -6.028933      -164.0556
  23   2.0000      -6.024845      -163.9444
  24   2.0000      -1.009101       -27.4590
  25   2.0000      -0.985185       -26.8082
  26   2.0000      -0.912707       -24.8360
  27   2.0000      -0.908728       -24.7277
  28   2.0000      -0.870936       -23.6994
  29   2.0000      -0.849820       -23.1248
  30   2.0000      -0.840721       -22.8772
  31   2.0000      -0.816090       -22.2069
  32   2.0000      -0.788545       -21.4574
  33   2.0000      -0.773023       -21.0350
  34   2.0000      -0.707189       -19.2436
  35   2.0000      -0.695430       -18.9236
  36   2.0000      -0.690845       -18.7988
  37   2.0000      -0.656343       -17.8600
  38   2.0000      -0.638905       -17.3855
  39   2.0000      -0.619333       -16.8529
  40   2.0000      -0.593695       -16.1553
  41   2.0000      -0.572084       -15.5672
  42   2.0000      -0.565028       -15.3752
  43   2.0000      -0.553723       -15.0676
  44   2.0000      -0.545160       -14.8345
  45   2.0000      -0.522666       -14.2225
  46   2.0000      -0.520361       -14.1597
  47   2.0000      -0.509291       -13.8585
  48   2.0000      -0.498173       -13.5560
  49   2.0000      -0.492384       -13.3984
  50   2.0000      -0.490817       -13.3558
  51   2.0000      -0.484604       -13.1867
  52   2.0000      -0.465495       -12.6668
  53   2.0000      -0.463327       -12.6078
  54   2.0000      -0.456521       -12.4226
  55   2.0000      -0.452646       -12.3171
  56   2.0000      -0.449226       -12.2241
  57   2.0000      -0.440726       -11.9928
  58   2.0000      -0.432811       -11.7774
  59   2.0000      -0.423484       -11.5236
  60   2.0000      -0.421840       -11.4788
  61   2.0000      -0.414207       -11.2712
  62   2.0000      -0.410675       -11.1750
  63   2.0000      -0.358227        -9.7479
  64   2.0000      -0.332434        -9.0460
  65   2.0000      -0.326072        -8.8729
  66   2.0000      -0.290951        -7.9172
  67   0.0000       0.033940         0.9236
  68   0.0000       0.083180         2.2635
  69   0.0000       0.104963         2.8562
  70   0.0000       0.118923         3.2361
  71   0.0000       0.140248         3.8163

MULLIKEN ATOMIC CHARGES
-----------------------
   0 S :    0.120418
   1 C :   -0.128299
   2 C :   -0.092423
   3 C :   -0.020642
   4 C :   -0.117015
   5 H :    0.018298
   6 C :    0.117215
   7 H :    0.012476
   8 H :    0.025036
   9 C :   -0.067452
  10 H :    0.021161
  11 H :    0.039383
  12 C :   -0.045939
  13 H :    0.039186
  14 H :    0.004701
  15 H :    0.043897
  16 S :    0.074922
  17 C :   -0.083406
  18 C :   -0.035378
  19 C :   -0.074935
  20 C :   -0.137768
  21 H :    0.026096
  22 C :    0.070878
  23 H :    0.045358
  24 H :    0.027155
  25 C :   -0.103266
  26 H :    0.033458
  27 H :    0.035769
  28 C :   -0.060256
  29 H :    0.046776
  30 H :    0.035131
  31 H :    0.028544
  32 H :    0.043465
  33 H :    0.057458
Sum of atomic charges:    0.0000000

LOEWDIN ATOMIC CHARGES
----------------------
   0 S :    0.421123
   1 C :   -0.202172
   2 C :   -0.054764
   3 C :   -0.068126
   4 C :   -0.207649
   5 H :    0.033607
   6 C :   -0.019910
   7 H :    0.021143
   8 H :    0.035368
   9 C :   -0.036079
  10 H :    0.016438
  11 H :    0.031952
  12 C :   -0.076100
  13 H :    0.027016
  14 H :    0.024357
  15 H :    0.029792
  16 S :    0.380340
  17 C :   -0.180685
  18 C :   -0.076350
  19 C :   -0.053063
  20 C :   -0.183512
  21 H :    0.036690
  22 C :   -0.034276
  23 H :    0.037377
  24 H :    0.027695
  25 C :   -0.045020
  26 H :    0.023924
  27 H :    0.026338
  28 C :   -0.069541
  29 H :    0.030965
  30 H :    0.027932
  31 H :    0.022403
  32 H :    0.020808
  33 H :    0.031977

  Mayer bond orders larger than 0.100000
B(  0-S ,  1-C ) :   1.1459 B(  0-S ,  4-C ) :   1.1453 B(  1-C ,  2-C ) :   1.6105
B(  1-C , 32-H ) :   0.9670 B(  2-C ,  3-C ) :   1.2167 B(  2-C ,  6-C ) :   1.0168
B(  3-C ,  4-C ) :   1.5967 B(  3-C ,  5-H ) :   0.9903 B(  4-C , 20-C ) :   1.0353
B(  6-C ,  7-H ) :   0.9425 B(  6-C ,  8-H ) :   0.9425 B(  6-C ,  9-C ) :   1.0666
B(  9-C , 10-H ) :   0.9591 B(  9-C , 11-H ) :   0.9564 B(  9-C , 12-C ) :   1.0745
B( 12-C , 13-H ) :   0.9759 B( 12-C , 14-H ) :   0.9692 B( 12-C , 15-H ) :   0.9705
B( 16-S , 17-C ) :   1.1331 B( 16-S , 20-C ) :   1.1134 B( 17-C , 18-C ) :   1.6976
B( 17-C , 33-H ) :   0.9586 B( 18-C , 19-C ) :   1.1598 B( 18-C , 21-H ) :   0.9872
B( 19-C , 20-C ) :   1.6704 B( 19-C , 22-C ) :   1.0372 B( 22-C , 23-H ) :   0.9279
B( 22-C , 24-H ) :   0.9393 B( 22-C , 25-C ) :   1.0688 B( 25-C , 26-H ) :   0.9596
B( 25-C , 27-H ) :   0.9480 B( 25-C , 28-C ) :   1.0929 B( 28-C , 29-H ) :   0.9747
B( 28-C , 30-H ) :   0.9745 B( 28-C , 31-H ) :   0.9726

Dispersion correction           -0.013847953
FINAL SINGLE POINT ENERGY     -1339.880340927954

DIPOLE MOMENT
-------------
                                X             Y             Z
Electronic contribution:      8.86918     -20.15473     -11.58877
Nuclear contribution   :     -9.02777      20.76315      11.79299
                        -----------------------------------------
Total Dipole Moment    :     -0.15859       0.60842       0.20422
                        -----------------------------------------
Magnitude (a.u.)       :      0.66108
Magnitude (Debye)      :      1.68033

Rotational constants in cm-1:     0.018007     0.008334     0.006539
Rotational constants in MHz :   539.839265   249.859621   196.048831

                             ****ORCA TERMINATED NORMALLY****
TOTAL RUN TIME: 0 days 0 hours 0 minutes 32 seconds 820 msec
