                         Program Version 4.2.1 -  RELEASE  -
|  1> ! wB97X-D3 SP def2-SVP
|  2> %pal
|  3> nprocs 16
|  4> end
|  5>
|  6> * xyz 0 1
|  7> S 	 -21.6564 	 2.23272 	 77.1349
|  8> C 	 -21.1828 	 0.48499 	 77.0715
|  9> C 	 -22.2747 	 -0.26558 	 76.6479
| 10> C 	 -23.4632 	 0.519822 	 76.4231
| 11> C 	 -23.2917 	 1.87275 	 76.782
| 12> H 	 -24.4873 	 0.289853 	 76.1116
| 13> C 	 -22.361 	 -1.77347 	 76.501
| 14> H 	 -23.2218 	 -2.10573 	 77.0786
| 15> H 	 -21.5235 	 -2.14568 	 77.1213
| 16> C 	 -22.3179 	 -2.29992 	 75.0795
| 17> H 	 -21.402 	 -1.9393 	 74.6072
| 18> H 	 -22.2041 	 -3.39269 	 75.0611
| 19> C 	 -23.5479 	 -2.07405 	 74.2752
| 20> H 	 -23.5621 	 -2.58612 	 73.3178
| 21> H 	 -24.3787 	 -2.48041 	 74.822
| 22> H 	 -23.7951 	 -1.0281 	 74.2163
| 23> S 	 -24.0173 	 4.42953 	 76.012
| 24> C 	 -25.6979 	 4.94756 	 76.3186
| 25> C 	 -26.3594 	 3.98267 	 77.0737
| 26> C 	 -25.6132 	 2.82102 	 77.3538
| 27> C 	 -24.3344 	 2.87308 	 76.8171
| 28> H 	 -27.4108 	 4.06962 	 77.2555
| 29> C 	 -26.2559 	 1.60609 	 78.0024
| 30> H 	 -25.481 	 0.843074 	 78.3583
| 31> H 	 -26.8677 	 1.13598 	 77.2722
| 32> C 	 -27.1483 	 1.90792 	 79.2346
| 33> H 	 -28.0106 	 2.48609 	 78.898
| 34> H 	 -26.5531 	 2.4706 	 79.9649
| 35> C 	 -27.7746 	 0.619057 	 79.7555
| 36> H 	 -28.3533 	 0.962621 	 80.6277
| 37> H 	 -26.8835 	 0.0873764 	 80.2092
| 38> H 	 -28.3682 	 -0.0724396 	 79.0304
| 39> H 	 -20.2924 	 -0.0221313 	 77.2988
| 40> H 	 -26.161 	 5.78728 	 75.8465
| 41> *
| 42>
| 43>                          ****END OF INPUT****

CARTESIAN COORDINATES (ANGSTROEM)
---------------------------------
  S    -21.656400    2.232720   77.134900
  C    -21.182800    0.484990   77.071500
  C    -22.274700   -0.265580   76.647900
  C    -23.463200    0.519822   76.423100
  C    -23.291700    1.872750   76.782000
  H    -24.487300    0.289853   76.111600
  C    -22.361000   -1.773470   76.501000
  H    -23.221800   -2.105730   77.078600
  H    -21.523500   -2.145680   77.121300
  C    -22.317900   -2.299920   75.079500
  H    -21.402000   -1.939300   74.607200
  H    -22.204100   -3.392690   75.061100
  C    -23.547900   -2.074050   74.275200
  H    -23.562100   -2.586120   73.317800
  H    -24.378700   -2.480410   74.822000
  H    -23.795100   -1.028100   74.216300
  S    -24.017300    4.429530   76.012000
  C    -25.697900    4.947560   76.318600
  C    -26.359400    3.982670   77.073700
  C    -25.613200    2.821020   77.353800
  C    -24.334400    2.873080   76.817100
  H    -27.410800    4.069620   77.255500
  C    -26.255900    1.606090   78.002400
  H    -25.481000    0.843074   78.358300
  H    -26.867700    1.135980   77.272200
  C    -27.148300    1.907920   79.234600
  H    -28.010600    2.486090   78.898000
  H    -26.553100    2.470600   79.964900
  C    -27.774600    0.619057   79.755500
  H    -28.353300    0.962621   80.627700
  H    -26.883500    0.087376   80.209200
  H    -28.368200   -0.072440   79.030400
  H    -20.292400   -0.022131   77.298800
  H    -26.161000    5.787280   75.846500

 Total Charge           Charge          ....    0
 Multiplicity           Mult            ....    1
 Number of Electrons    NEL             ....  134
 Basis Dimension        Dim             ....  322

ORBITAL ENERGIES
----------------

  NO   OCC          E(Eh)            E(eV)
   0   2.0000     -88.968532     -2420.9568
   1   2.0000     -88.966747     -2420.9083
   2   2.0000     -10.328980      -281.0658
   3   2.0000     -10.328366      -281.0491
   4   2.0000     -10.322516      -280.8899
   5   2.0000     -10.316039      -280.7137
   6   2.0000     -10.304811      -280.4082
   7   2.0000     -10.303884      -280.3829
   8   2.0000     -10.295100      -280.1439
   9   2.0000     -10.294691      -280.1328
  10   2.0000     -10.294318      -280.1226
  11   2.0000     -10.292719      -280.0791
  12   2.0000     -10.292363      -280.0694
  13   2.0000     -10.289333      -279.9870
  14   2.0000     -10.283648      -279.8323
  15   2.0000     -10.269342      -279.4430
  16   2.0000      -8.082716      -219.9419
  17   2.0000      -8.080596      -219.8842
  18   2.0000      -6.041398      -164.3948
  19   2.0000      -6.039189      -164.3347
  20   2.0000      -6.037284      -164.2829
  21   2.0000      -6.035231      -164.2270
  22   2.0000      -6.033329      -164.1752
  23   2.0000      -6.031321      -164.1206
  24   2.0000      -1.004040       -27.3213
  25   2.0000      -0.978865       -26.6363
  26   2.0000      -0.917849       -24.9759
  27   2.0000      -0.910166       -24.7669
  28   2.0000      -0.871500       -23.7147
  29   2.0000      -0.853558       -23.2265
  30   2.0000      -0.843117       -22.9424
  31   2.0000      -0.812065       -22.0974
  32   2.0000      -0.784601       -21.3501
  33   2.0000      -0.771516       -20.9940
  34   2.0000      -0.705986       -19.2109
  35   2.0000      -0.702343       -19.1117
  36   2.0000      -0.694290       -18.8926
  37   2.0000      -0.659269       -17.9396
  38   2.0000      -0.640149       -17.4193
  39   2.0000      -0.610496       -16.6125
  40   2.0000      -0.597699       -16.2642
  41   2.0000      -0.574951       -15.6452
  42   2.0000      -0.573349       -15.6016
  43   2.0000      -0.552996       -15.0478
  44   2.0000      -0.545114       -14.8333
  45   2.0000      -0.524294       -14.2668
  46   2.0000      -0.519175       -14.1275
  47   2.0000      -0.509445       -13.8627
  48   2.0000      -0.504558       -13.7297
  49   2.0000      -0.501814       -13.6551
  50   2.0000      -0.489828       -13.3289
  51   2.0000      -0.483885       -13.1672
  52   2.0000      -0.468409       -12.7461
  53   2.0000      -0.461868       -12.5681
  54   2.0000      -0.459723       -12.5097
  55   2.0000      -0.452042       -12.3007
  56   2.0000      -0.444834       -12.1045
  57   2.0000      -0.439120       -11.9491
  58   2.0000      -0.431028       -11.7289
  59   2.0000      -0.425186       -11.5699
  60   2.0000      -0.415008       -11.2929
  61   2.0000      -0.413376       -11.2485
  62   2.0000      -0.408138       -11.1060
  63   2.0000      -0.347406        -9.4534
  64   2.0000      -0.333737        -9.0814
  65   2.0000      -0.329869        -8.9762
  66   2.0000      -0.288492        -7.8503
  67   0.0000       0.025683         0.6989
  68   0.0000       0.065407         1.7798
  69   0.0000       0.100097         2.7238
  70   0.0000       0.115951         3.1552
  71   0.0000       0.131987         3.5915

MULLIKEN ATOMIC CHARGES
-----------------------
   0 S :    0.113095
   1 C :   -0.085996
   2 C :   -0.104250
   3 C :    0.011915
   4 C :   -0.158634
   5 H :    0.022240
   6 C :    0.056779
   7 H :    0.029254
   8 H :    0.013863
   9 C :   -0.041608
  10 H :    0.025399
  11 H :    0.025363
  12 C :   -0.023796
  13 H :    0.037892
  14 H :    0.005958
  15 H :    0.031119
  16 S :    0.094484
  17 C :   -0.086391
  18 C :   -0.034905
  19 C :    0.006248
  20 C :   -0.162281
  21 H :    0.016459
  22 C :    0.023289
  23 H :    0.045413
  24 H :    0.029408
  25 C :   -0.104438
  26 H :    0.027075
  27 H :    0.048589
  28 C :   -0.077873
  29 H :    0.041377
  30 H :    0.033782
  31 H :    0.063664
  32 H :    0.020414
  33 H :    0.057092
Sum of atomic charges:   -0.0000000

LOEWDIN ATOMIC CHARGES
----------------------
   0 S :    0.402334
   1 C :   -0.185089
   2 C :   -0.054929
   3 C :   -0.074783
   4 C :   -0.200561
   5 H :    0.033529
   6 C :   -0.033258
   7 H :    0.030536
   8 H :    0.032213
   9 C :   -0.041639
  10 H :    0.025205
  11 H :    0.027097
  12 C :   -0.063911
  13 H :    0.029578
  14 H :    0.021669
  15 H :    0.022231
  16 S :    0.377592
  17 C :   -0.166875
  18 C :   -0.066299
  19 C :   -0.057816
  20 C :   -0.188245
  21 H :    0.028489
  22 C :   -0.036071
  23 H :    0.038225
  24 H :    0.025308
  25 C :   -0.043501
  26 H :    0.018658
  27 H :    0.031009
  28 C :   -0.079421
  29 H :    0.029983
  30 H :    0.029533
  31 H :    0.040306
  32 H :    0.021659
  33 H :    0.027244

  Mayer bond orders larger than 0.100000
B(  0-S ,  1-C ) :   1.1080 B(  0-S ,  4-C ) :   1.1605 B(  1-C ,  2-C ) :   1.6370
B(  1-C , 32-H ) :   0.9715 B(  2-C ,  3-C ) :   1.2053 B(  2-C ,  6-C ) :   1.0171
B(  3-C ,  4-C ) :   1.5645 B(  3-C ,  5-H ) :   0.9863 B(  4-C , 20-C ) :   1.0532
B(  6-C ,  7-H ) :   0.9450 B(  6-C ,  8-H ) :   0.9334 B(  6-C ,  9-C ) :   1.0738
B(  9-C , 10-H ) :   0.9489 B(  9-C , 11-H ) :   0.9518 B(  9-C , 12-C ) :   1.0921
B( 12-C , 13-H ) :   0.9689 B( 12-C , 14-H ) :   0.9671 B( 12-C , 15-H ) :   0.9685
B( 16-S , 17-C ) :   1.1448 B( 16-S , 20-C ) :   1.1293 B( 17-C , 18-C ) :   1.6063
B( 17-C , 20-C ) :   0.1053 B( 17-C , 33-H ) :   0.9713 B( 18-C , 19-C ) :   1.2412
B( 18-C , 21-H ) :   0.9885 B( 19-C , 20-C ) :   1.5972 B( 19-C , 22-C ) :   1.0392
B( 22-C , 23-H ) :   0.9359 B( 22-C , 24-H ) :   0.9318 B( 22-C , 25-C ) :   1.0676
B( 25-C , 26-H ) :   0.9469 B( 25-C , 27-H ) :   0.9590 B( 25-C , 28-C ) :   1.0798
B( 28-C , 29-H ) :   0.9718 B( 28-C , 30-H ) :   0.9722 B( 28-C , 31-H ) :   0.9702

Dispersion correction           -0.014027085
FINAL SINGLE POINT ENERGY     -1339.872683015955

DIPOLE MOMENT
-------------
                                X             Y             Z
Electronic contribution:     14.68387      24.20917      -3.29266
Nuclear contribution   :    -15.30002     -24.78020       3.35405
                        -----------------------------------------
Total Dipole Moment    :     -0.61615      -0.57103       0.06138
                        -----------------------------------------
Magnitude (a.u.)       :      0.84231
Magnitude (Debye)      :      2.14099

Rotational constants in cm-1:     0.016195     0.009124     0.007062
Rotational constants in MHz :   485.500300   273.526532   211.721595

                             ****ORCA TERMINATED NORMALLY****
TOTAL RUN TIME: 0 days 0 hours 0 minutes 33 seconds 856 msec
