                         Program Version 4.2.1 -  RELEASE  -
|  1> ! wB97X-D3 SP def2-SVP
|  2> %pal
|  3> nprocs 16
|  4> end
|  5>
|  6> * xyz 0 1
|  7> S 	 70.8788 	 16.9854 	 75.3938
|  8> C 	 71.8125 	 17.6872 	 74.0779
|  9> C 	 71.2668 	 18.8431 	 73.5156
| 10> C 	 70.2543 	 19.3152 	 74.3678
| 11> C 	 69.9709 	 18.4833 	 75.4239
| 12> H 	 69.7992 	 20.3527 	 74.347
| 13> C 	 71.8792 	 19.7465 	 72.4842
| 14> H 	 71.499 	 20.7658 	 72.7563
| 15> H 	 71.5182 	 19.4732 	 71.552
| 16> C 	 73.4191 	 19.8118 	 72.357
| 17> H 	 73.8317 	 18.8786 	 71.9356
| 18> H 	 73.658 	 20.6282 	 71.7594
| 19> C 	 74.0464 	 20.1341 	 73.7266
| 20> H 	 75.0425 	 20.609 	 73.7028
| 21> H 	 73.3886 	 20.8276 	 74.2996
| 22> H 	 74.086 	 19.3206 	 74.4604
| 23> S 	 67.3713 	 17.8183 	 75.9688
| 24> C 	 66.593 	 18.6217 	 77.2895
| 25> C 	 67.4736 	 19.4559 	 78.0022
| 26> C 	 68.7045 	 19.601 	 77.324
| 27> C 	 68.8896 	 18.6561 	 76.344
| 28> H 	 66.9978 	 20.1101 	 78.7054
| 29> C 	 69.8064 	 20.6562 	 77.7649
| 30> H 	 69.289 	 21.5235 	 78.0509
| 31> H 	 70.3943 	 20.9653 	 76.8804
| 32> C 	 70.8223 	 20.2405 	 78.8895
| 33> H 	 70.9815 	 19.1999 	 79.0094
| 34> H 	 70.3681 	 20.4163 	 79.8772
| 35> C 	 72.0557 	 21.1368 	 78.8592
| 36> H 	 72.903 	 20.6808 	 79.5138
| 37> H 	 71.829 	 22.2023 	 78.9909
| 38> H 	 72.3327 	 21.0691 	 77.814
| 39> H 	 72.6291 	 17.1356 	 73.6116
| 40> H 	 65.5439 	 18.569 	 77.4744
| 41> *
| 42>
| 43>                          ****END OF INPUT****

CARTESIAN COORDINATES (ANGSTROEM)
---------------------------------
  S     70.878800   16.985400   75.393800
  C     71.812500   17.687200   74.077900
  C     71.266800   18.843100   73.515600
  C     70.254300   19.315200   74.367800
  C     69.970900   18.483300   75.423900
  H     69.799200   20.352700   74.347000
  C     71.879200   19.746500   72.484200
  H     71.499000   20.765800   72.756300
  H     71.518200   19.473200   71.552000
  C     73.419100   19.811800   72.357000
  H     73.831700   18.878600   71.935600
  H     73.658000   20.628200   71.759400
  C     74.046400   20.134100   73.726600
  H     75.042500   20.609000   73.702800
  H     73.388600   20.827600   74.299600
  H     74.086000   19.320600   74.460400
  S     67.371300   17.818300   75.968800
  C     66.593000   18.621700   77.289500
  C     67.473600   19.455900   78.002200
  C     68.704500   19.601000   77.324000
  C     68.889600   18.656100   76.344000
  H     66.997800   20.110100   78.705400
  C     69.806400   20.656200   77.764900
  H     69.289000   21.523500   78.050900
  H     70.394300   20.965300   76.880400
  C     70.822300   20.240500   78.889500
  H     70.981500   19.199900   79.009400
  H     70.368100   20.416300   79.877200
  C     72.055700   21.136800   78.859200
  H     72.903000   20.680800   79.513800
  H     71.829000   22.202300   78.990900
  H     72.332700   21.069100   77.814000
  H     72.629100   17.135600   73.611600
  H     65.543900   18.569000   77.474400

 Total Charge           Charge          ....    0
 Multiplicity           Mult            ....    1
 Number of Electrons    NEL             ....  134
 Basis Dimension        Dim             ....  322

ORBITAL ENERGIES
----------------

  NO   OCC          E(Eh)            E(eV)
   0   2.0000     -88.969129     -2420.9731
   1   2.0000     -88.964288     -2420.8413
   2   2.0000     -10.320870      -280.8452
   3   2.0000     -10.318178      -280.7719
   4   2.0000     -10.315559      -280.7006
   5   2.0000     -10.315102      -280.6882
   6   2.0000     -10.304942      -280.4117
   7   2.0000     -10.299040      -280.2511
   8   2.0000     -10.294676      -280.1324
   9   2.0000     -10.294383      -280.1244
  10   2.0000     -10.291552      -280.0474
  11   2.0000     -10.291320      -280.0411
  12   2.0000     -10.288293      -279.9587
  13   2.0000     -10.282796      -279.8091
  14   2.0000     -10.281065      -279.7620
  15   2.0000     -10.277105      -279.6542
  16   2.0000      -8.083699      -219.9686
  17   2.0000      -8.079126      -219.8442
  18   2.0000      -6.041975      -164.4105
  19   2.0000      -6.038417      -164.3137
  20   2.0000      -6.037489      -164.2884
  21   2.0000      -6.034530      -164.2079
  22   2.0000      -6.033612      -164.1829
  23   2.0000      -6.030042      -164.0858
  24   2.0000      -1.007659       -27.4198
  25   2.0000      -0.983340       -26.7580
  26   2.0000      -0.915054       -24.8999
  27   2.0000      -0.900590       -24.5063
  28   2.0000      -0.865858       -23.5612
  29   2.0000      -0.852988       -23.2110
  30   2.0000      -0.848638       -23.0926
  31   2.0000      -0.804652       -21.8957
  32   2.0000      -0.782902       -21.3038
  33   2.0000      -0.769228       -20.9317
  34   2.0000      -0.709696       -19.3118
  35   2.0000      -0.702524       -19.1166
  36   2.0000      -0.695601       -18.9283
  37   2.0000      -0.660483       -17.9727
  38   2.0000      -0.637897       -17.3581
  39   2.0000      -0.610488       -16.6122
  40   2.0000      -0.591377       -16.0922
  41   2.0000      -0.573091       -15.5946
  42   2.0000      -0.560611       -15.2550
  43   2.0000      -0.556473       -15.1424
  44   2.0000      -0.540847       -14.7172
  45   2.0000      -0.524645       -14.2763
  46   2.0000      -0.512210       -13.9380
  47   2.0000      -0.505679       -13.7602
  48   2.0000      -0.499002       -13.5785
  49   2.0000      -0.489456       -13.3188
  50   2.0000      -0.483795       -13.1647
  51   2.0000      -0.473896       -12.8954
  52   2.0000      -0.469759       -12.7828
  53   2.0000      -0.464659       -12.6440
  54   2.0000      -0.454467       -12.3667
  55   2.0000      -0.449799       -12.2396
  56   2.0000      -0.442301       -12.0356
  57   2.0000      -0.438660       -11.9366
  58   2.0000      -0.436933       -11.8896
  59   2.0000      -0.433095       -11.7851
  60   2.0000      -0.422894       -11.5075
  61   2.0000      -0.418035       -11.3753
  62   2.0000      -0.403132       -10.9698
  63   2.0000      -0.340445        -9.2640
  64   2.0000      -0.331532        -9.0214
  65   2.0000      -0.324574        -8.8321
  66   2.0000      -0.296360        -8.0644
  67   0.0000       0.041680         1.1342
  68   0.0000       0.049774         1.3544
  69   0.0000       0.109620         2.9829
  70   0.0000       0.115694         3.1482
  71   0.0000       0.119864         3.2617

MULLIKEN ATOMIC CHARGES
-----------------------
   0 S :    0.123007
   1 C :   -0.122512
   2 C :   -0.072691
   3 C :    0.006973
   4 C :   -0.191159
   5 H :    0.040844
   6 C :    0.073479
   7 H :    0.029858
   8 H :    0.021451
   9 C :   -0.036499
  10 H :    0.038280
  11 H :    0.022741
  12 C :   -0.082753
  13 H :    0.039608
  14 H :    0.017367
  15 H :    0.032863
  16 S :    0.117406
  17 C :   -0.110079
  18 C :   -0.009672
  19 C :   -0.050971
  20 C :   -0.155966
  21 H :    0.017162
  22 C :    0.076704
  23 H :    0.010360
  24 H :    0.016663
  25 C :   -0.041274
  26 H :    0.026674
  27 H :    0.014507
  28 C :   -0.075173
  29 H :    0.058315
  30 H :    0.038485
  31 H :    0.024082
  32 H :    0.048065
  33 H :    0.053855
Sum of atomic charges:    0.0000000

LOEWDIN ATOMIC CHARGES
----------------------
   0 S :    0.407843
   1 C :   -0.189988
   2 C :   -0.066080
   3 C :   -0.061672
   4 C :   -0.203258
   5 H :    0.043028
   6 C :   -0.023537
   7 H :    0.035485
   8 H :    0.024015
   9 C :   -0.031992
  10 H :    0.026646
  11 H :    0.021827
  12 C :   -0.077148
  13 H :    0.026024
  14 H :    0.026448
  15 H :    0.024984
  16 S :    0.408505
  17 C :   -0.182123
  18 C :   -0.076139
  19 C :   -0.049056
  20 C :   -0.204590
  21 H :    0.029613
  22 C :   -0.020713
  23 H :    0.021773
  24 H :    0.027302
  25 C :   -0.044513
  26 H :    0.021669
  27 H :    0.022886
  28 C :   -0.072988
  29 H :    0.042454
  30 H :    0.027217
  31 H :    0.020376
  32 H :    0.022694
  33 H :    0.023008

  Mayer bond orders larger than 0.100000
B(  0-S ,  1-C ) :   1.1488 B(  0-S ,  4-C ) :   1.1447 B(  1-C ,  2-C ) :   1.6126
B(  1-C ,  4-C ) :   0.1040 B(  1-C , 32-H ) :   0.9604 B(  2-C ,  3-C ) :   1.2468
B(  2-C ,  6-C ) :   1.0106 B(  3-C ,  4-C ) :   1.6098 B(  3-C ,  5-H ) :   0.9743
B(  4-C , 20-C ) :   1.0259 B(  6-C ,  7-H ) :   0.9516 B(  6-C ,  8-H ) :   0.9198
B(  6-C ,  9-C ) :   1.0961 B(  9-C , 10-H ) :   0.9514 B(  9-C , 11-H ) :   0.9521
B(  9-C , 12-C ) :   1.0709 B( 12-C , 13-H ) :   0.9770 B( 12-C , 14-H ) :   0.9740
B( 12-C , 15-H ) :   0.9715 B( 16-S , 17-C ) :   1.1790 B( 16-S , 20-C ) :   1.1384
B( 17-C , 18-C ) :   1.5972 B( 17-C , 20-C ) :   0.1065 B( 17-C , 33-H ) :   0.9693
B( 18-C , 19-C ) :   1.2486 B( 18-C , 21-H ) :   0.9849 B( 19-C , 20-C ) :   1.6175
B( 19-C , 22-C ) :   1.0379 B( 22-C , 23-H ) :   0.9307 B( 22-C , 24-H ) :   0.9452
B( 22-C , 25-C ) :   1.0463 B( 25-C , 26-H ) :   0.9633 B( 25-C , 27-H ) :   0.9493
B( 25-C , 28-C ) :   1.0700 B( 28-C , 29-H ) :   0.9701 B( 28-C , 30-H ) :   0.9744
B( 28-C , 31-H ) :   0.9802

Dispersion correction           -0.014925600
FINAL SINGLE POINT ENERGY     -1339.856012827856

DIPOLE MOMENT
-------------
                                X             Y             Z
Electronic contribution:    -20.72606     -19.26314      -1.58745
Nuclear contribution   :     20.88621      19.86374       1.43980
                        -----------------------------------------
Total Dipole Moment    :      0.16015       0.60059      -0.14764
                        -----------------------------------------
Magnitude (a.u.)       :      0.63887
Magnitude (Debye)      :      1.62389

Rotational constants in cm-1:     0.018402     0.009398     0.007269
Rotational constants in MHz :   551.691511   281.736297   217.920457

                             ****ORCA TERMINATED NORMALLY****
TOTAL RUN TIME: 0 days 0 hours 0 minutes 29 seconds 594 msec
