                         Program Version 4.2.1 -  RELEASE  -
|  1> ! wB97X-D3 SP def2-SVP
|  2> %pal
|  3> nprocs 16
|  4> end
|  5>
|  6> * xyz 0 1
|  7> S 	 44.8015 	 21.8975 	 92.467
|  8> C 	 45.0068 	 22.8096 	 93.9379
|  9> C 	 44.5135 	 24.1392 	 93.8429
| 10> C 	 43.9416 	 24.3899 	 92.5505
| 11> C 	 43.8854 	 23.2473 	 91.7801
| 12> H 	 43.6112 	 25.3525 	 92.179
| 13> C 	 44.473 	 25.2436 	 94.8595
| 14> H 	 44.2859 	 24.6715 	 95.8209
| 15> H 	 43.5603 	 25.7842 	 94.701
| 16> C 	 45.5315 	 26.337 	 94.8336
| 17> H 	 46.4432 	 25.9541 	 95.3388
| 18> H 	 45.7444 	 26.5971 	 93.7625
| 19> C 	 45.024 	 27.5703 	 95.5859
| 20> H 	 44.0611 	 27.8758 	 95.1859
| 21> H 	 44.995 	 27.325 	 96.6503
| 22> H 	 45.7196 	 28.4176 	 95.4738
| 23> S 	 44.747 	 22.7256 	 89.3035
| 24> C 	 43.6095 	 22.6323 	 88.0086
| 25> C 	 42.4066 	 23.2127 	 88.4281
| 26> C 	 42.4097 	 23.7101 	 89.765
| 27> C 	 43.5862 	 23.3611 	 90.4001
| 28> H 	 41.6396 	 23.1604 	 87.7059
| 29> C 	 41.1363 	 24.2915 	 90.4822
| 30> H 	 40.7853 	 25.1069 	 89.8385
| 31> H 	 41.3136 	 24.792 	 91.4289
| 32> C 	 39.926 	 23.3415 	 90.5706
| 33> H 	 39.9557 	 22.4943 	 91.2655
| 34> H 	 39.7172 	 23.0323 	 89.5494
| 35> C 	 38.5619 	 23.8983 	 91.0068
| 36> H 	 37.7719 	 23.1503 	 90.9268
| 37> H 	 38.2531 	 24.5998 	 90.211
| 38> H 	 38.5605 	 24.3009 	 91.9804
| 39> H 	 45.4028 	 22.3386 	 94.8264
| 40> H 	 43.7642 	 22.1693 	 87.0402
| 41> *
| 42>
| 43>                          ****END OF INPUT****

CARTESIAN COORDINATES (ANGSTROEM)
---------------------------------
  S     44.801500   21.897500   92.467000
  C     45.006800   22.809600   93.937900
  C     44.513500   24.139200   93.842900
  C     43.941600   24.389900   92.550500
  C     43.885400   23.247300   91.780100
  H     43.611200   25.352500   92.179000
  C     44.473000   25.243600   94.859500
  H     44.285900   24.671500   95.820900
  H     43.560300   25.784200   94.701000
  C     45.531500   26.337000   94.833600
  H     46.443200   25.954100   95.338800
  H     45.744400   26.597100   93.762500
  C     45.024000   27.570300   95.585900
  H     44.061100   27.875800   95.185900
  H     44.995000   27.325000   96.650300
  H     45.719600   28.417600   95.473800
  S     44.747000   22.725600   89.303500
  C     43.609500   22.632300   88.008600
  C     42.406600   23.212700   88.428100
  C     42.409700   23.710100   89.765000
  C     43.586200   23.361100   90.400100
  H     41.639600   23.160400   87.705900
  C     41.136300   24.291500   90.482200
  H     40.785300   25.106900   89.838500
  H     41.313600   24.792000   91.428900
  C     39.926000   23.341500   90.570600
  H     39.955700   22.494300   91.265500
  H     39.717200   23.032300   89.549400
  C     38.561900   23.898300   91.006800
  H     37.771900   23.150300   90.926800
  H     38.253100   24.599800   90.211000
  H     38.560500   24.300900   91.980400
  H     45.402800   22.338600   94.826400
  H     43.764200   22.169300   87.040200

 Total Charge           Charge          ....    0
 Multiplicity           Mult            ....    1
 Number of Electrons    NEL             ....  134
 Basis Dimension        Dim             ....  322

ORBITAL ENERGIES
----------------

  NO   OCC          E(Eh)            E(eV)
   0   2.0000     -88.971833     -2421.0467
   1   2.0000     -88.960527     -2420.7390
   2   2.0000     -10.323209      -280.9088
   3   2.0000     -10.319299      -280.8024
   4   2.0000     -10.316793      -280.7342
   5   2.0000     -10.311856      -280.5999
   6   2.0000     -10.305040      -280.4144
   7   2.0000     -10.304894      -280.4104
   8   2.0000     -10.297500      -280.2092
   9   2.0000     -10.293288      -280.0946
  10   2.0000     -10.293065      -280.0885
  11   2.0000     -10.291689      -280.0511
  12   2.0000     -10.291019      -280.0329
  13   2.0000     -10.282849      -279.8105
  14   2.0000     -10.281784      -279.7816
  15   2.0000     -10.273558      -279.5577
  16   2.0000      -8.086025      -220.0319
  17   2.0000      -8.076407      -219.7702
  18   2.0000      -6.044557      -164.4808
  19   2.0000      -6.040693      -164.3756
  20   2.0000      -6.036706      -164.2671
  21   2.0000      -6.034831      -164.2161
  22   2.0000      -6.030599      -164.1009
  23   2.0000      -6.027340      -164.0123
  24   2.0000      -1.011187       -27.5158
  25   2.0000      -0.981941       -26.7200
  26   2.0000      -0.915607       -24.9149
  27   2.0000      -0.903517       -24.5859
  28   2.0000      -0.872842       -23.7512
  29   2.0000      -0.856698       -23.3119
  30   2.0000      -0.847620       -23.0649
  31   2.0000      -0.810419       -22.0526
  32   2.0000      -0.782502       -21.2930
  33   2.0000      -0.769793       -20.9471
  34   2.0000      -0.701754       -19.0957
  35   2.0000      -0.699590       -19.0368
  36   2.0000      -0.689763       -18.7694
  37   2.0000      -0.660870       -17.9832
  38   2.0000      -0.641658       -17.4604
  39   2.0000      -0.618902       -16.8412
  40   2.0000      -0.594078       -16.1657
  41   2.0000      -0.575195       -15.6518
  42   2.0000      -0.569399       -15.4941
  43   2.0000      -0.560408       -15.2495
  44   2.0000      -0.530255       -14.4290
  45   2.0000      -0.521728       -14.1970
  46   2.0000      -0.519749       -14.1431
  47   2.0000      -0.510777       -13.8990
  48   2.0000      -0.503313       -13.6958
  49   2.0000      -0.498604       -13.5677
  50   2.0000      -0.492740       -13.4081
  51   2.0000      -0.478792       -13.0286
  52   2.0000      -0.473574       -12.8866
  53   2.0000      -0.464243       -12.6327
  54   2.0000      -0.457925       -12.4608
  55   2.0000      -0.454055       -12.3555
  56   2.0000      -0.443457       -12.0671
  57   2.0000      -0.435734       -11.8569
  58   2.0000      -0.429246       -11.6804
  59   2.0000      -0.424651       -11.5553
  60   2.0000      -0.421842       -11.4789
  61   2.0000      -0.416327       -11.3288
  62   2.0000      -0.402025       -10.9397
  63   2.0000      -0.350508        -9.5378
  64   2.0000      -0.332893        -9.0585
  65   2.0000      -0.324184        -8.8215
  66   2.0000      -0.284456        -7.7404
  67   0.0000       0.026985         0.7343
  68   0.0000       0.069391         1.8882
  69   0.0000       0.112032         3.0485
  70   0.0000       0.117385         3.1942
  71   0.0000       0.131019         3.5652

MULLIKEN ATOMIC CHARGES
-----------------------
   0 S :    0.122052
   1 C :   -0.131389
   2 C :   -0.069886
   3 C :   -0.006184
   4 C :   -0.111121
   5 H :    0.028345
   6 C :    0.050375
   7 H :    0.033766
   8 H :    0.003091
   9 C :   -0.066150
  10 H :    0.037075
  11 H :    0.039460
  12 C :   -0.053605
  13 H :    0.031506
  14 H :    0.038209
  15 H :    0.038513
  16 S :    0.110830
  17 C :   -0.114487
  18 C :   -0.047095
  19 C :    0.008207
  20 C :   -0.183790
  21 H :    0.003230
  22 C :    0.103107
  23 H :    0.018180
  24 H :    0.013468
  25 C :   -0.091089
  26 H :    0.039114
  27 H :    0.020321
  28 C :   -0.053199
  29 H :    0.030186
  30 H :    0.018718
  31 H :    0.032370
  32 H :    0.048796
  33 H :    0.059077
Sum of atomic charges:   -0.0000000

LOEWDIN ATOMIC CHARGES
----------------------
   0 S :    0.409565
   1 C :   -0.200620
   2 C :   -0.059706
   3 C :   -0.049062
   4 C :   -0.192537
   5 H :    0.032340
   6 C :   -0.044294
   7 H :    0.038619
   8 H :    0.024487
   9 C :   -0.040468
  10 H :    0.028109
  11 H :    0.030409
  12 C :   -0.064085
  13 H :    0.021791
  14 H :    0.028290
  15 H :    0.028629
  16 S :    0.422603
  17 C :   -0.203534
  18 C :   -0.064957
  19 C :   -0.058944
  20 C :   -0.203292
  21 H :    0.022086
  22 C :   -0.028397
  23 H :    0.034147
  24 H :    0.024348
  25 C :   -0.044191
  26 H :    0.026794
  27 H :    0.022703
  28 C :   -0.062793
  29 H :    0.028283
  30 H :    0.022160
  31 H :    0.015564
  32 H :    0.024657
  33 H :    0.031298

  Mayer bond orders larger than 0.100000
B(  0-S ,  1-C ) :   1.1428 B(  0-S ,  4-C ) :   1.1441 B(  1-C ,  2-C ) :   1.5808
B(  1-C , 32-H ) :   0.9719 B(  2-C ,  3-C ) :   1.2502 B(  2-C ,  6-C ) :   1.0269
B(  3-C ,  4-C ) :   1.5500 B(  3-C ,  5-H ) :   0.9890 B(  4-C , 20-C ) :   1.0665
B(  6-C ,  7-H ) :   0.9349 B(  6-C ,  8-H ) :   0.9406 B(  6-C ,  9-C ) :   1.0535
B(  9-C , 10-H ) :   0.9528 B(  9-C , 11-H ) :   0.9554 B(  9-C , 12-C ) :   1.0810
B( 12-C , 13-H ) :   0.9746 B( 12-C , 14-H ) :   0.9753 B( 12-C , 15-H ) :   0.9746
B( 16-S , 17-C ) :   1.1458 B( 16-S , 20-C ) :   1.1657 B( 17-C , 18-C ) :   1.6054
B( 17-C , 33-H ) :   0.9709 B( 18-C , 19-C ) :   1.2379 B( 18-C , 21-H ) :   0.9994
B( 19-C , 20-C ) :   1.5708 B( 19-C , 22-C ) :   1.0403 B( 22-C , 23-H ) :   0.9278
B( 22-C , 24-H ) :   0.9385 B( 22-C , 25-C ) :   1.0631 B( 25-C , 26-H ) :   0.9627
B( 25-C , 27-H ) :   0.9551 B( 25-C , 28-C ) :   1.0838 B( 28-C , 29-H ) :   0.9740
B( 28-C , 30-H ) :   0.9744 B( 28-C , 31-H ) :   0.9772

Dispersion correction           -0.013352810
FINAL SINGLE POINT ENERGY     -1339.862058014631

DIPOLE MOMENT
-------------
                                X             Y             Z
Electronic contribution:     16.37489     -18.40872     -13.03996
Nuclear contribution   :    -16.69740      18.77356      13.30431
                        -----------------------------------------
Total Dipole Moment    :     -0.32250       0.36484       0.26436
                        -----------------------------------------
Magnitude (a.u.)       :      0.55408
Magnitude (Debye)      :      1.40835

Rotational constants in cm-1:     0.016692     0.008327     0.006643
Rotational constants in MHz :   500.398633   249.632015   199.139881

                             ****ORCA TERMINATED NORMALLY****
TOTAL RUN TIME: 0 days 0 hours 0 minutes 29 seconds 550 msec
