                         Program Version 4.2.1 -  RELEASE  -
|  1> ! wB97X-D3 SP def2-SVP
|  2> %pal
|  3> nprocs 16
|  4> end
|  5>
|  6> * xyz 0 1
|  7> S 	 -47.9939 	 11.0946 	 81.2761
|  8> C 	 -47.0112 	 9.74706 	 81.915
|  9> C 	 -46.1089 	 10.2244 	 82.8284
| 10> C 	 -46.1474 	 11.6273 	 83.0111
| 11> C 	 -47.0059 	 12.2911 	 82.1639
| 12> H 	 -45.6572 	 12.2259 	 83.7483
| 13> C 	 -45.1443 	 9.33932 	 83.6139
| 14> H 	 -45.6987 	 8.61281 	 84.2167
| 15> H 	 -44.6574 	 9.83973 	 84.5028
| 16> C 	 -44.2923 	 8.39441 	 82.7057
| 17> H 	 -43.9377 	 7.42883 	 83.3252
| 18> H 	 -44.8594 	 7.97339 	 81.8944
| 19> C 	 -43.0583 	 9.14453 	 82.1681
| 20> H 	 -43.3919 	 9.96525 	 81.5924
| 21> H 	 -42.5775 	 9.73195 	 82.9912
| 22> H 	 -42.3936 	 8.56855 	 81.4981
| 23> S 	 -46.0085 	 14.865 	 82.0372
| 24> C 	 -46.9343 	 16.2396 	 82.457
| 25> C 	 -48.2499 	 15.867 	 82.7116
| 26> C 	 -48.4254 	 14.4581 	 82.4973
| 27> C 	 -47.3262 	 13.7151 	 82.2447
| 28> H 	 -49.0827 	 16.5452 	 82.9076
| 29> C 	 -49.8193 	 13.8614 	 82.4994
| 30> H 	 -49.7806 	 12.9785 	 83.0441
| 31> H 	 -50.118 	 13.6934 	 81.4682
| 32> C 	 -50.9646 	 14.6872 	 83.2406
| 33> H 	 -51.0714 	 15.7031 	 82.8323
| 34> H 	 -50.5958 	 14.9887 	 84.2749
| 35> C 	 -52.3742 	 14.0107 	 83.106
| 36> H 	 -53.107 	 14.4291 	 83.8712
| 37> H 	 -52.3042 	 12.9797 	 83.2622
| 38> H 	 -52.859 	 14.112 	 82.141
| 39> H 	 -47.0332 	 8.67861 	 81.5574
| 40> H 	 -46.6408 	 17.2958 	 82.3245
| 41> *
| 42>
| 43>                          ****END OF INPUT****

CARTESIAN COORDINATES (ANGSTROEM)
---------------------------------
  S    -47.993900   11.094600   81.276100
  C    -47.011200    9.747060   81.915000
  C    -46.108900   10.224400   82.828400
  C    -46.147400   11.627300   83.011100
  C    -47.005900   12.291100   82.163900
  H    -45.657200   12.225900   83.748300
  C    -45.144300    9.339320   83.613900
  H    -45.698700    8.612810   84.216700
  H    -44.657400    9.839730   84.502800
  C    -44.292300    8.394410   82.705700
  H    -43.937700    7.428830   83.325200
  H    -44.859400    7.973390   81.894400
  C    -43.058300    9.144530   82.168100
  H    -43.391900    9.965250   81.592400
  H    -42.577500    9.731950   82.991200
  H    -42.393600    8.568550   81.498100
  S    -46.008500   14.865000   82.037200
  C    -46.934300   16.239600   82.457000
  C    -48.249900   15.867000   82.711600
  C    -48.425400   14.458100   82.497300
  C    -47.326200   13.715100   82.244700
  H    -49.082700   16.545200   82.907600
  C    -49.819300   13.861400   82.499400
  H    -49.780600   12.978500   83.044100
  H    -50.118000   13.693400   81.468200
  C    -50.964600   14.687200   83.240600
  H    -51.071400   15.703100   82.832300
  H    -50.595800   14.988700   84.274900
  C    -52.374200   14.010700   83.106000
  H    -53.107000   14.429100   83.871200
  H    -52.304200   12.979700   83.262200
  H    -52.859000   14.112000   82.141000
  H    -47.033200    8.678610   81.557400
  H    -46.640800   17.295800   82.324500

 Total Charge           Charge          ....    0
 Multiplicity           Mult            ....    1
 Number of Electrons    NEL             ....  134
 Basis Dimension        Dim             ....  322

ORBITAL ENERGIES
----------------

  NO   OCC          E(Eh)            E(eV)
   0   2.0000     -88.970141     -2421.0006
   1   2.0000     -88.963582     -2420.8221
   2   2.0000     -10.336164      -281.2613
   3   2.0000     -10.324532      -280.9448
   4   2.0000     -10.323284      -280.9109
   5   2.0000     -10.320177      -280.8263
   6   2.0000     -10.304650      -280.4038
   7   2.0000     -10.301339      -280.3137
   8   2.0000     -10.299910      -280.2748
   9   2.0000     -10.299038      -280.2511
  10   2.0000     -10.297377      -280.2059
  11   2.0000     -10.295067      -280.1430
  12   2.0000     -10.294510      -280.1279
  13   2.0000     -10.285629      -279.8862
  14   2.0000     -10.281692      -279.7791
  15   2.0000     -10.274642      -279.5872
  16   2.0000      -8.083271      -219.9570
  17   2.0000      -8.078876      -219.8374
  18   2.0000      -6.042043      -164.4123
  19   2.0000      -6.037962      -164.3013
  20   2.0000      -6.037418      -164.2865
  21   2.0000      -6.033889      -164.1905
  22   2.0000      -6.033122      -164.1696
  23   2.0000      -6.029718      -164.0770
  24   2.0000      -1.009853       -27.4795
  25   2.0000      -0.987085       -26.8599
  26   2.0000      -0.907505       -24.6945
  27   2.0000      -0.900242       -24.4968
  28   2.0000      -0.870241       -23.6805
  29   2.0000      -0.847658       -23.0659
  30   2.0000      -0.842811       -22.9341
  31   2.0000      -0.815772       -22.1983
  32   2.0000      -0.780185       -21.2299
  33   2.0000      -0.771633       -20.9972
  34   2.0000      -0.711729       -19.3671
  35   2.0000      -0.703049       -19.1309
  36   2.0000      -0.695675       -18.9303
  37   2.0000      -0.658082       -17.9073
  38   2.0000      -0.639049       -17.3894
  39   2.0000      -0.612911       -16.6782
  40   2.0000      -0.597584       -16.2611
  41   2.0000      -0.576776       -15.6949
  42   2.0000      -0.562766       -15.3137
  43   2.0000      -0.547329       -14.8936
  44   2.0000      -0.532152       -14.4806
  45   2.0000      -0.522075       -14.2064
  46   2.0000      -0.519467       -14.1354
  47   2.0000      -0.509812       -13.8727
  48   2.0000      -0.508711       -13.8427
  49   2.0000      -0.494375       -13.4526
  50   2.0000      -0.485190       -13.2027
  51   2.0000      -0.476640       -12.9700
  52   2.0000      -0.474050       -12.8995
  53   2.0000      -0.471766       -12.8374
  54   2.0000      -0.462209       -12.5773
  55   2.0000      -0.453595       -12.3429
  56   2.0000      -0.442118       -12.0306
  57   2.0000      -0.434138       -11.8135
  58   2.0000      -0.425288       -11.5727
  59   2.0000      -0.419533       -11.4161
  60   2.0000      -0.417449       -11.3594
  61   2.0000      -0.410313       -11.1652
  62   2.0000      -0.407153       -11.0792
  63   2.0000      -0.350984        -9.5508
  64   2.0000      -0.332629        -9.0513
  65   2.0000      -0.327540        -8.9128
  66   2.0000      -0.296837        -8.0774
  67   0.0000       0.029077         0.7912
  68   0.0000       0.063906         1.7390
  69   0.0000       0.106031         2.8852
  70   0.0000       0.121743         3.3128
  71   0.0000       0.127483         3.4690

MULLIKEN ATOMIC CHARGES
-----------------------
   0 S :    0.098272
   1 C :   -0.149318
   2 C :   -0.038833
   3 C :    0.029330
   4 C :   -0.143215
   5 H :    0.011803
   6 C :    0.036129
   7 H :    0.029510
   8 H :    0.037397
   9 C :   -0.112745
  10 H :    0.041301
  11 H :    0.027214
  12 C :   -0.027106
  13 H :    0.016092
  14 H :    0.026962
  15 H :    0.044726
  16 S :    0.102698
  17 C :   -0.083796
  18 C :   -0.042256
  19 C :   -0.062291
  20 C :   -0.158540
  21 H :    0.023696
  22 C :    0.077280
  23 H :    0.024188
  24 H :    0.046217
  25 C :   -0.139700
  26 H :    0.028102
  27 H :    0.038113
  28 C :   -0.030470
  29 H :    0.043542
  30 H :    0.020028
  31 H :    0.036623
  32 H :    0.076286
  33 H :    0.072759
Sum of atomic charges:   -0.0000000

LOEWDIN ATOMIC CHARGES
----------------------
   0 S :    0.381835
   1 C :   -0.191545
   2 C :   -0.067719
   3 C :   -0.056637
   4 C :   -0.178493
   5 H :    0.030548
   6 C :   -0.043218
   7 H :    0.035340
   8 H :    0.039238
   9 C :   -0.040568
  10 H :    0.031780
  11 H :    0.018110
  12 C :   -0.075581
  13 H :    0.020680
  14 H :    0.031265
  15 H :    0.028041
  16 S :    0.422636
  17 C :   -0.199251
  18 C :   -0.080190
  19 C :   -0.060459
  20 C :   -0.200998
  21 H :    0.033615
  22 C :   -0.028671
  23 H :    0.020751
  24 H :    0.033559
  25 C :   -0.050018
  26 H :    0.017503
  27 H :    0.029629
  28 C :   -0.065577
  29 H :    0.037317
  30 H :    0.015563
  31 H :    0.027411
  32 H :    0.043557
  33 H :    0.040549

  Mayer bond orders larger than 0.100000
B(  0-S ,  1-C ) :   1.1275 B(  0-S ,  4-C ) :   1.1329 B(  1-C ,  2-C ) :   1.6182
B(  1-C , 32-H ) :   0.9576 B(  2-C ,  3-C ) :   1.2307 B(  2-C ,  6-C ) :   1.0096
B(  3-C ,  4-C ) :   1.5873 B(  3-C ,  5-H ) :   0.9976 B(  4-C , 20-C ) :   1.0189
B(  6-C ,  7-H ) :   0.9352 B(  6-C ,  8-H ) :   0.9536 B(  6-C ,  9-C ) :   1.0558
B(  9-C , 10-H ) :   0.9586 B(  9-C , 11-H ) :   0.9577 B(  9-C , 12-C ) :   1.0664
B( 12-C , 13-H ) :   0.9718 B( 12-C , 14-H ) :   0.9718 B( 12-C , 15-H ) :   0.9747
B( 16-S , 17-C ) :   1.1858 B( 16-S , 20-C ) :   1.1263 B( 17-C , 18-C ) :   1.5565
B( 17-C , 33-H ) :   0.9597 B( 18-C , 19-C ) :   1.2768 B( 18-C , 21-H ) :   0.9866
B( 19-C , 20-C ) :   1.6083 B( 19-C , 22-C ) :   1.0230 B( 22-C , 23-H ) :   0.9301
B( 22-C , 24-H ) :   0.9411 B( 22-C , 25-C ) :   1.0717 B( 25-C , 26-H ) :   0.9494
B( 25-C , 27-H ) :   0.9609 B( 25-C , 28-C ) :   1.0658 B( 28-C , 29-H ) :   0.9736
B( 28-C , 30-H ) :   0.9781 B( 28-C , 31-H ) :   0.9756

Dispersion correction           -0.013894269
FINAL SINGLE POINT ENERGY     -1339.857714855748

DIPOLE MOMENT
-------------
                                X             Y             Z
Electronic contribution:      4.34563       8.93236      -7.30756
Nuclear contribution   :     -4.57076      -9.02213       7.55372
                        -----------------------------------------
Total Dipole Moment    :     -0.22513      -0.08978       0.24616
                        -----------------------------------------
Magnitude (a.u.)       :      0.34546
Magnitude (Debye)      :      0.87808

Rotational constants in cm-1:     0.022203     0.007448     0.006015
Rotational constants in MHz :   665.633592   223.270605   180.338555

                             ****ORCA TERMINATED NORMALLY****
TOTAL RUN TIME: 0 days 0 hours 0 minutes 28 seconds 707 msec
