                         Program Version 4.2.1 -  RELEASE  -
|  1> ! wB97X-D3 SP def2-SVP
|  2> %pal
|  3> nprocs 16
|  4> end
|  5>
|  6> * xyz 0 1
|  7> S 	 -0.752512 	 30.3975 	 39.4147
|  8> C 	 -0.363278 	 29.5379 	 37.9897
|  9> C 	 -0.380033 	 28.1691 	 38.1254
| 10> C 	 -0.883154 	 27.8535 	 39.4566
| 11> C 	 -1.15293 	 28.9439 	 40.2824
| 12> H 	 -1.09364 	 26.9188 	 39.9347
| 13> C 	 -0.0274676 	 27.0703 	 37.1176
| 14> H 	 -0.868419 	 26.8084 	 36.5172
| 15> H 	 0.386458 	 26.2102 	 37.6018
| 16> C 	 1.04163 	 27.4895 	 36.0981
| 17> H 	 0.662678 	 28.3047 	 35.5744
| 18> H 	 1.97976 	 27.849 	 36.6187
| 19> C 	 1.18472 	 26.3728 	 35.1073
| 20> H 	 0.251569 	 26.1885 	 34.6248
| 21> H 	 1.79965 	 26.6926 	 34.232
| 22> H 	 1.66338 	 25.4845 	 35.4941
| 23> S 	 -2.91901 	 27.711 	 42.04
| 24> C 	 -3.06872 	 28.2526 	 43.622
| 25> C 	 -2.09836 	 29.2244 	 43.9435
| 26> C 	 -1.27776 	 29.5697 	 42.7715
| 27> C 	 -1.61384 	 28.8662 	 41.6469
| 28> H 	 -2.09236 	 29.539 	 44.9677
| 29> C 	 -0.00673326 	 30.3809 	 42.9988
| 30> H 	 -0.0181968 	 31.0491 	 42.1939
| 31> H 	 0.946998 	 29.7891 	 43.0443
| 32> C 	 0.0469919 	 31.3248 	 44.1707
| 33> H 	 -0.307395 	 30.9018 	 45.0709
| 34> H 	 -0.542982 	 32.1857 	 43.9441
| 35> C 	 1.50813 	 31.7523 	 44.4869
| 36> H 	 2.09708 	 30.8985 	 44.8911
| 37> H 	 1.37148 	 32.5141 	 45.2121
| 38> H 	 2.09636 	 32.1895 	 43.723
| 39> H 	 -0.290832 	 29.9716 	 37.0304
| 40> H 	 -3.699 	 27.8222 	 44.3359
| 41> *
| 42>
| 43>                          ****END OF INPUT****

CARTESIAN COORDINATES (ANGSTROEM)
---------------------------------
  S     -0.752512   30.397500   39.414700
  C     -0.363278   29.537900   37.989700
  C     -0.380033   28.169100   38.125400
  C     -0.883154   27.853500   39.456600
  C     -1.152930   28.943900   40.282400
  H     -1.093640   26.918800   39.934700
  C     -0.027468   27.070300   37.117600
  H     -0.868419   26.808400   36.517200
  H      0.386458   26.210200   37.601800
  C      1.041630   27.489500   36.098100
  H      0.662678   28.304700   35.574400
  H      1.979760   27.849000   36.618700
  C      1.184720   26.372800   35.107300
  H      0.251569   26.188500   34.624800
  H      1.799650   26.692600   34.232000
  H      1.663380   25.484500   35.494100
  S     -2.919010   27.711000   42.040000
  C     -3.068720   28.252600   43.622000
  C     -2.098360   29.224400   43.943500
  C     -1.277760   29.569700   42.771500
  C     -1.613840   28.866200   41.646900
  H     -2.092360   29.539000   44.967700
  C     -0.006733   30.380900   42.998800
  H     -0.018197   31.049100   42.193900
  H      0.946998   29.789100   43.044300
  C      0.046992   31.324800   44.170700
  H     -0.307395   30.901800   45.070900
  H     -0.542982   32.185700   43.944100
  C      1.508130   31.752300   44.486900
  H      2.097080   30.898500   44.891100
  H      1.371480   32.514100   45.212100
  H      2.096360   32.189500   43.723000
  H     -0.290832   29.971600   37.030400
  H     -3.699000   27.822200   44.335900

 Total Charge           Charge          ....    0
 Multiplicity           Mult            ....    1
 Number of Electrons    NEL             ....  134
 Basis Dimension        Dim             ....  322

ORBITAL ENERGIES
----------------

  NO   OCC          E(Eh)            E(eV)
   0   2.0000     -88.967192     -2420.9204
   1   2.0000     -88.964471     -2420.8463
   2   2.0000     -10.326988      -281.0116
   3   2.0000     -10.326365      -280.9947
   4   2.0000     -10.311210      -280.5823
   5   2.0000     -10.308528      -280.5093
   6   2.0000     -10.305354      -280.4229
   7   2.0000     -10.304898      -280.4105
   8   2.0000     -10.295067      -280.1430
   9   2.0000     -10.291705      -280.0515
  10   2.0000     -10.289137      -279.9817
  11   2.0000     -10.283535      -279.8292
  12   2.0000     -10.282123      -279.7908
  13   2.0000     -10.277134      -279.6550
  14   2.0000     -10.276828      -279.6467
  15   2.0000     -10.273184      -279.5475
  16   2.0000      -8.082327      -219.9313
  17   2.0000      -8.079989      -219.8677
  18   2.0000      -6.040885      -164.3808
  19   2.0000      -6.038446      -164.3145
  20   2.0000      -6.036732      -164.2678
  21   2.0000      -6.034327      -164.2024
  22   2.0000      -6.033076      -164.1683
  23   2.0000      -6.030812      -164.1067
  24   2.0000      -1.007838       -27.4247
  25   2.0000      -0.986145       -26.8344
  26   2.0000      -0.919778       -25.0284
  27   2.0000      -0.913655       -24.8618
  28   2.0000      -0.875184       -23.8150
  29   2.0000      -0.851618       -23.1737
  30   2.0000      -0.847383       -23.0585
  31   2.0000      -0.809479       -22.0270
  32   2.0000      -0.784812       -21.3558
  33   2.0000      -0.775740       -21.1090
  34   2.0000      -0.711444       -19.3594
  35   2.0000      -0.702016       -19.1028
  36   2.0000      -0.695541       -18.9266
  37   2.0000      -0.661973       -18.0132
  38   2.0000      -0.639358       -17.3978
  39   2.0000      -0.610563       -16.6143
  40   2.0000      -0.598539       -16.2871
  41   2.0000      -0.584773       -15.9125
  42   2.0000      -0.578293       -15.7361
  43   2.0000      -0.573002       -15.5922
  44   2.0000      -0.526657       -14.3311
  45   2.0000      -0.520585       -14.1658
  46   2.0000      -0.514210       -13.9924
  47   2.0000      -0.512866       -13.9558
  48   2.0000      -0.511402       -13.9160
  49   2.0000      -0.501375       -13.6431
  50   2.0000      -0.495363       -13.4795
  51   2.0000      -0.477716       -12.9993
  52   2.0000      -0.476995       -12.9797
  53   2.0000      -0.468305       -12.7432
  54   2.0000      -0.459387       -12.5006
  55   2.0000      -0.449485       -12.2311
  56   2.0000      -0.443891       -12.0789
  57   2.0000      -0.435414       -11.8482
  58   2.0000      -0.432321       -11.7641
  59   2.0000      -0.429651       -11.6914
  60   2.0000      -0.417613       -11.3638
  61   2.0000      -0.413738       -11.2584
  62   2.0000      -0.410751       -11.1771
  63   2.0000      -0.356734        -9.7072
  64   2.0000      -0.329840        -8.9754
  65   2.0000      -0.326290        -8.8788
  66   2.0000      -0.286250        -7.7893
  67   0.0000       0.029629         0.8062
  68   0.0000       0.075400         2.0517
  69   0.0000       0.104396         2.8408
  70   0.0000       0.120465         3.2780
  71   0.0000       0.133790         3.6406

MULLIKEN ATOMIC CHARGES
-----------------------
   0 S :    0.124448
   1 C :   -0.115121
   2 C :   -0.058284
   3 C :   -0.001869
   4 C :   -0.137152
   5 H :   -0.000890
   6 C :    0.091188
   7 H :    0.028937
   8 H :    0.025845
   9 C :   -0.096880
  10 H :    0.007865
  11 H :    0.044731
  12 C :   -0.030043
  13 H :    0.019179
  14 H :    0.027524
  15 H :    0.036145
  16 S :    0.110896
  17 C :   -0.069805
  18 C :   -0.060770
  19 C :   -0.044371
  20 C :   -0.149524
  21 H :    0.018542
  22 C :    0.104850
  23 H :   -0.000035
  24 H :    0.053500
  25 C :   -0.087568
  26 H :    0.016753
  27 H :    0.024480
  28 C :   -0.043066
  29 H :    0.039029
  30 H :    0.021620
  31 H :    0.024717
  32 H :    0.035198
  33 H :    0.039932
Sum of atomic charges:   -0.0000000

LOEWDIN ATOMIC CHARGES
----------------------
   0 S :    0.430829
   1 C :   -0.205652
   2 C :   -0.057300
   3 C :   -0.062192
   4 C :   -0.200230
   5 H :    0.020796
   6 C :   -0.022420
   7 H :    0.030268
   8 H :    0.029482
   9 C :   -0.041160
  10 H :    0.011561
  11 H :    0.031395
  12 C :   -0.062667
  13 H :    0.022885
  14 H :    0.030909
  15 H :    0.024045
  16 S :    0.425181
  17 C :   -0.196684
  18 C :   -0.074239
  19 C :   -0.058302
  20 C :   -0.187855
  21 H :    0.027974
  22 C :   -0.034279
  23 H :    0.019268
  24 H :    0.041378
  25 C :   -0.031546
  26 H :    0.013706
  27 H :    0.021809
  28 C :   -0.058296
  29 H :    0.029568
  30 H :    0.023232
  31 H :    0.017961
  32 H :    0.021246
  33 H :    0.019332

  Mayer bond orders larger than 0.100000
B(  0-S ,  1-C ) :   1.1519 B(  0-S ,  4-C ) :   1.1368 B(  1-C ,  2-C ) :   1.6136
B(  1-C , 32-H ) :   0.9682 B(  2-C ,  3-C ) :   1.2318 B(  2-C ,  6-C ) :   1.0094
B(  3-C ,  4-C ) :   1.5690 B(  3-C ,  5-H ) :   0.9979 B(  4-C , 20-C ) :   1.0795
B(  6-C ,  7-H ) :   0.9330 B(  6-C ,  8-H ) :   0.9507 B(  6-C ,  9-C ) :   1.0741
B(  9-C , 10-H ) :   0.9452 B(  9-C , 11-H ) :   0.9587 B(  9-C , 12-C ) :   1.0977
B( 12-C , 13-H ) :   0.9675 B( 12-C , 14-H ) :   0.9695 B( 12-C , 15-H ) :   0.9754
B( 16-S , 17-C ) :   1.1814 B( 16-S , 20-C ) :   1.1250 B( 17-C , 18-C ) :   1.6023
B( 17-C , 33-H ) :   0.9689 B( 18-C , 19-C ) :   1.2117 B( 18-C , 21-H ) :   0.9945
B( 19-C , 20-C ) :   1.6054 B( 19-C , 22-C ) :   1.0247 B( 22-C , 23-H ) :   0.9146
B( 22-C , 24-H ) :   0.9473 B( 22-C , 25-C ) :   1.0796 B( 25-C , 26-H ) :   0.9476
B( 25-C , 27-H ) :   0.9588 B( 25-C , 28-C ) :   1.0868 B( 28-C , 29-H ) :   0.9746
B( 28-C , 30-H ) :   0.9731 B( 28-C , 31-H ) :   0.9765

Dispersion correction           -0.013005059
FINAL SINGLE POINT ENERGY     -1339.862141436470

DIPOLE MOMENT
-------------
                                X             Y             Z
Electronic contribution:    -17.26800      -0.26281       5.07866
Nuclear contribution   :     17.52050       0.13110      -5.12473
                        -----------------------------------------
Total Dipole Moment    :      0.25249      -0.13171      -0.04607
                        -----------------------------------------
Magnitude (a.u.)       :      0.28849
Magnitude (Debye)      :      0.73327

Rotational constants in cm-1:     0.022281     0.006753     0.005644
Rotational constants in MHz :   667.957087   202.464344   169.193237

                             ****ORCA TERMINATED NORMALLY****
TOTAL RUN TIME: 0 days 0 hours 0 minutes 34 seconds 207 msec
