                         Program Version 4.2.1 -  RELEASE  -
|  1> ! wB97X-D3 SP def2-SVP
|  2> %pal
|  3> nprocs 16
|  4> end
|  5>
|  6> * xyz 0 1
|  7> S 	 -43.2684 	 55.4458 	 106.998
|  8> C 	 -41.7311 	 54.5761 	 106.931
|  9> C 	 -41.3223 	 54.2202 	 108.207
| 10> C 	 -42.2941 	 54.6186 	 109.212
| 11> C 	 -43.3155 	 55.3823 	 108.754
| 12> H 	 -42.2655 	 54.447 	 110.305
| 13> C 	 -40.1476 	 53.3793 	 108.491
| 14> H 	 -40.1239 	 52.5061 	 107.756
| 15> H 	 -40.2176 	 53.0201 	 109.488
| 16> C 	 -38.7745 	 53.9949 	 108.506
| 17> H 	 -38.8837 	 55.0586 	 108.793
| 18> H 	 -38.0177 	 53.6158 	 109.174
| 19> C 	 -38.2143 	 53.9964 	 107.055
| 20> H 	 -38.4337 	 53.0659 	 106.473
| 21> H 	 -38.5991 	 54.7375 	 106.396
| 22> H 	 -37.1192 	 53.9724 	 107.032
| 23> S 	 -45.837 	 55.2088 	 109.677
| 24> C 	 -46.6157 	 56.4103 	 110.693
| 25> C 	 -45.7588 	 57.3576 	 110.953
| 26> C 	 -44.3663 	 57.0569 	 110.493
| 27> C 	 -44.3259 	 56.0147 	 109.558
| 28> H 	 -46.0541 	 58.196 	 111.539
| 29> C 	 -43.2676 	 58.1058 	 110.515
| 30> H 	 -42.352 	 57.6292 	 110.839
| 31> H 	 -43.5888 	 58.897 	 111.234
| 32> C 	 -42.9248 	 58.81 	 109.153
| 33> H 	 -42.4951 	 58.1077 	 108.426
| 34> H 	 -42.175 	 59.5178 	 109.468
| 35> C 	 -44.1055 	 59.5944 	 108.594
| 36> H 	 -43.7334 	 60.3372 	 107.852
| 37> H 	 -44.7051 	 60.2469 	 109.286
| 38> H 	 -44.6084 	 58.8879 	 107.924
| 39> H 	 -41.2738 	 54.1553 	 106.047
| 40> H 	 -47.6717 	 56.2723 	 110.984
| 41> *
| 42>
| 43>                          ****END OF INPUT****

CARTESIAN COORDINATES (ANGSTROEM)
---------------------------------
  S    -43.268400   55.445800  106.998000
  C    -41.731100   54.576100  106.931000
  C    -41.322300   54.220200  108.207000
  C    -42.294100   54.618600  109.212000
  C    -43.315500   55.382300  108.754000
  H    -42.265500   54.447000  110.305000
  C    -40.147600   53.379300  108.491000
  H    -40.123900   52.506100  107.756000
  H    -40.217600   53.020100  109.488000
  C    -38.774500   53.994900  108.506000
  H    -38.883700   55.058600  108.793000
  H    -38.017700   53.615800  109.174000
  C    -38.214300   53.996400  107.055000
  H    -38.433700   53.065900  106.473000
  H    -38.599100   54.737500  106.396000
  H    -37.119200   53.972400  107.032000
  S    -45.837000   55.208800  109.677000
  C    -46.615700   56.410300  110.693000
  C    -45.758800   57.357600  110.953000
  C    -44.366300   57.056900  110.493000
  C    -44.325900   56.014700  109.558000
  H    -46.054100   58.196000  111.539000
  C    -43.267600   58.105800  110.515000
  H    -42.352000   57.629200  110.839000
  H    -43.588800   58.897000  111.234000
  C    -42.924800   58.810000  109.153000
  H    -42.495100   58.107700  108.426000
  H    -42.175000   59.517800  109.468000
  C    -44.105500   59.594400  108.594000
  H    -43.733400   60.337200  107.852000
  H    -44.705100   60.246900  109.286000
  H    -44.608400   58.887900  107.924000
  H    -41.273800   54.155300  106.047000
  H    -47.671700   56.272300  110.984000

 Total Charge           Charge          ....    0
 Multiplicity           Mult            ....    1
 Number of Electrons    NEL             ....  134
 Basis Dimension        Dim             ....  322

ORBITAL ENERGIES
----------------

  NO   OCC          E(Eh)            E(eV)
   0   2.0000     -88.969473     -2420.9824
   1   2.0000     -88.952724     -2420.5267
   2   2.0000     -10.330381      -281.1040
   3   2.0000     -10.325044      -280.9587
   4   2.0000     -10.319973      -280.8208
   5   2.0000     -10.313620      -280.6479
   6   2.0000     -10.307219      -280.4737
   7   2.0000     -10.305998      -280.4405
   8   2.0000     -10.299455      -280.2624
   9   2.0000     -10.291525      -280.0466
  10   2.0000     -10.289984      -280.0047
  11   2.0000     -10.288745      -279.9710
  12   2.0000     -10.288478      -279.9637
  13   2.0000     -10.281799      -279.7820
  14   2.0000     -10.277280      -279.6590
  15   2.0000     -10.276433      -279.6360
  16   2.0000      -8.083544      -219.9644
  17   2.0000      -8.069033      -219.5696
  18   2.0000      -6.042198      -164.4166
  19   2.0000      -6.038085      -164.3047
  20   2.0000      -6.034216      -164.1994
  21   2.0000      -6.027620      -164.0199
  22   2.0000      -6.023148      -163.8982
  23   2.0000      -6.019750      -163.8057
  24   2.0000      -1.011288       -27.5186
  25   2.0000      -0.987974       -26.8841
  26   2.0000      -0.920572       -25.0500
  27   2.0000      -0.901107       -24.5204
  28   2.0000      -0.879113       -23.9219
  29   2.0000      -0.847528       -23.0624
  30   2.0000      -0.836297       -22.7568
  31   2.0000      -0.823729       -22.4148
  32   2.0000      -0.782913       -21.3042
  33   2.0000      -0.767893       -20.8954
  34   2.0000      -0.713988       -19.4286
  35   2.0000      -0.703265       -19.1368
  36   2.0000      -0.683286       -18.5932
  37   2.0000      -0.659415       -17.9436
  38   2.0000      -0.646531       -17.5930
  39   2.0000      -0.616662       -16.7802
  40   2.0000      -0.588543       -16.0151
  41   2.0000      -0.579147       -15.7594
  42   2.0000      -0.558984       -15.2107
  43   2.0000      -0.557160       -15.1611
  44   2.0000      -0.544116       -14.8061
  45   2.0000      -0.535775       -14.5792
  46   2.0000      -0.517385       -14.0788
  47   2.0000      -0.514579       -14.0024
  48   2.0000      -0.510058       -13.8794
  49   2.0000      -0.490572       -13.3491
  50   2.0000      -0.484939       -13.1959
  51   2.0000      -0.479140       -13.0381
  52   2.0000      -0.473833       -12.8937
  53   2.0000      -0.471152       -12.8207
  54   2.0000      -0.458654       -12.4806
  55   2.0000      -0.452867       -12.3231
  56   2.0000      -0.434623       -11.8267
  57   2.0000      -0.433153       -11.7867
  58   2.0000      -0.427234       -11.6256
  59   2.0000      -0.423771       -11.5314
  60   2.0000      -0.413610       -11.2549
  61   2.0000      -0.407382       -11.0854
  62   2.0000      -0.397779       -10.8241
  63   2.0000      -0.343725        -9.3532
  64   2.0000      -0.332266        -9.0414
  65   2.0000      -0.320624        -8.7246
  66   2.0000      -0.308186        -8.3862
  67   0.0000       0.035860         0.9758
  68   0.0000       0.059039         1.6065
  69   0.0000       0.110882         3.0172
  70   0.0000       0.123522         3.3612
  71   0.0000       0.127429         3.4675

MULLIKEN ATOMIC CHARGES
-----------------------
   0 S :    0.112107
   1 C :   -0.106587
   2 C :   -0.092428
   3 C :    0.051483
   4 C :   -0.176323
   5 H :    0.028504
   6 C :    0.060186
   7 H :    0.045602
   8 H :    0.008754
   9 C :   -0.046278
  10 H :    0.033635
  11 H :    0.035985
  12 C :   -0.084321
  13 H :    0.013831
  14 H :    0.034598
  15 H :    0.030324
  16 S :    0.079206
  17 C :   -0.085888
  18 C :   -0.017232
  19 C :   -0.029866
  20 C :   -0.159902
  21 H :    0.014236
  22 C :    0.025677
  23 H :    0.026806
  24 H :    0.024018
  25 C :   -0.062555
  26 H :    0.044140
  27 H :    0.024345
  28 C :   -0.064478
  29 H :    0.024400
  30 H :    0.042497
  31 H :    0.039315
  32 H :    0.053512
  33 H :    0.072698
Sum of atomic charges:   -0.0000000

LOEWDIN ATOMIC CHARGES
----------------------
   0 S :    0.398591
   1 C :   -0.186820
   2 C :   -0.062374
   3 C :   -0.055674
   4 C :   -0.201581
   5 H :    0.040435
   6 C :   -0.038605
   7 H :    0.039533
   8 H :    0.028855
   9 C :   -0.037991
  10 H :    0.031862
  11 H :    0.025203
  12 C :   -0.075807
  13 H :    0.022668
  14 H :    0.019672
  15 H :    0.025733
  16 S :    0.403075
  17 C :   -0.176168
  18 C :   -0.073433
  19 C :   -0.056691
  20 C :   -0.208548
  21 H :    0.028793
  22 C :   -0.038235
  23 H :    0.028439
  24 H :    0.029631
  25 C :   -0.037225
  26 H :    0.025415
  27 H :    0.021003
  28 C :   -0.079799
  29 H :    0.028299
  30 H :    0.030908
  31 H :    0.030524
  32 H :    0.030919
  33 H :    0.039395

  Mayer bond orders larger than 0.100000
B(  0-S ,  1-C ) :   1.1286 B(  0-S ,  4-C ) :   1.1321 B(  1-C ,  2-C ) :   1.6210
B(  1-C , 32-H ) :   0.9649 B(  2-C ,  3-C ) :   1.2153 B(  2-C ,  6-C ) :   1.0443
B(  3-C ,  4-C ) :   1.6263 B(  3-C ,  5-H ) :   0.9863 B(  4-C , 20-C ) :   1.0125
B(  6-C ,  7-H ) :   0.9470 B(  6-C ,  8-H ) :   0.9281 B(  6-C ,  9-C ) :   1.0562
B(  9-C , 10-H ) :   0.9512 B(  9-C , 11-H ) :   0.9640 B(  9-C , 12-C ) :   1.0668
B( 12-C , 13-H ) :   0.9760 B( 12-C , 14-H ) :   0.9769 B( 12-C , 15-H ) :   0.9755
B( 16-S , 17-C ) :   1.1357 B( 16-S , 20-C ) :   1.1569 B( 17-C , 18-C ) :   1.6458
B( 17-C , 33-H ) :   0.9667 B( 18-C , 19-C ) :   1.1891 B( 18-C , 21-H ) :   0.9934
B( 19-C , 20-C ) :   1.5843 B( 19-C , 22-C ) :   1.0663 B( 22-C , 23-H ) :   0.9299
B( 22-C , 24-H ) :   0.9450 B( 22-C , 25-C ) :   1.0733 B( 25-C , 26-H ) :   0.9507
B( 25-C , 27-H ) :   0.9550 B( 25-C , 28-C ) :   1.0781 B( 28-C , 29-H ) :   0.9713
B( 28-C , 30-H ) :   0.9740 B( 28-C , 31-H ) :   0.9725

Dispersion correction           -0.015426119
FINAL SINGLE POINT ENERGY     -1339.856871849196

DIPOLE MOMENT
-------------
                                X             Y             Z
Electronic contribution:    -21.31484      -7.29888       0.87852
Nuclear contribution   :     21.75007       7.39273      -0.60422
                        -----------------------------------------
Total Dipole Moment    :      0.43523       0.09385       0.27430
                        -----------------------------------------
Magnitude (a.u.)       :      0.52295
Magnitude (Debye)      :      1.32922

Rotational constants in cm-1:     0.023840     0.007924     0.007176
Rotational constants in MHz :   714.706796   237.550283   215.117179

                             ****ORCA TERMINATED NORMALLY****
TOTAL RUN TIME: 0 days 0 hours 0 minutes 30 seconds 915 msec
