                         Program Version 4.2.1 -  RELEASE  -
|  1> ! wB97X-D3 SP def2-SVP
|  2> %pal
|  3> nprocs 16
|  4> end
|  5>
|  6> * xyz 0 1
|  7> S 	 -27.6391 	 55.6296 	 111.945
|  8> C 	 -28.5902 	 54.2143 	 112.36
|  9> C 	 -29.7161 	 54.4397 	 113.215
| 10> C 	 -29.8036 	 55.8335 	 113.55
| 11> C 	 -28.8433 	 56.6065 	 112.933
| 12> H 	 -30.5459 	 56.2573 	 114.135
| 13> C 	 -30.841 	 53.4673 	 113.628
| 14> H 	 -30.4895 	 52.4404 	 113.441
| 15> H 	 -31.6831 	 53.6442 	 112.877
| 16> C 	 -31.3648 	 53.2754 	 115.043
| 17> H 	 -32.0381 	 52.4161 	 115.222
| 18> H 	 -30.5354 	 53.3302 	 115.742
| 19> C 	 -32.3784 	 54.3545 	 115.288
| 20> H 	 -33.0675 	 54.4221 	 114.394
| 21> H 	 -33.0425 	 54.1387 	 116.151
| 22> H 	 -31.8719 	 55.2559 	 115.437
| 23> S 	 -28.4318 	 58.845 	 111.29
| 24> C 	 -28.4474 	 60.4026 	 111.994
| 25> C 	 -28.7668 	 60.3308 	 113.367
| 26> C 	 -28.9103 	 59.0002 	 113.867
| 27> C 	 -28.7361 	 58.0786 	 112.861
| 28> H 	 -28.9399 	 61.2264 	 113.809
| 29> C 	 -29.1941 	 58.7868 	 115.334
| 30> H 	 -30.1267 	 58.1181 	 115.336
| 31> H 	 -29.5652 	 59.7473 	 115.525
| 32> C 	 -28.0402 	 58.4346 	 116.3
| 33> H 	 -28.385 	 58.265 	 117.311
| 34> H 	 -27.3311 	 59.3065 	 116.418
| 35> C 	 -27.4001 	 57.135 	 115.933
| 36> H 	 -28.1279 	 56.3677 	 116.246
| 37> H 	 -26.5054 	 57.0317 	 116.548
| 38> H 	 -27.0724 	 57.1837 	 114.886
| 39> H 	 -28.4231 	 53.2288 	 111.935
| 40> H 	 -28.2463 	 61.3381 	 111.561
| 41> *
| 42>
| 43>                          ****END OF INPUT****

CARTESIAN COORDINATES (ANGSTROEM)
---------------------------------
  S    -27.639100   55.629600  111.945000
  C    -28.590200   54.214300  112.360000
  C    -29.716100   54.439700  113.215000
  C    -29.803600   55.833500  113.550000
  C    -28.843300   56.606500  112.933000
  H    -30.545900   56.257300  114.135000
  C    -30.841000   53.467300  113.628000
  H    -30.489500   52.440400  113.441000
  H    -31.683100   53.644200  112.877000
  C    -31.364800   53.275400  115.043000
  H    -32.038100   52.416100  115.222000
  H    -30.535400   53.330200  115.742000
  C    -32.378400   54.354500  115.288000
  H    -33.067500   54.422100  114.394000
  H    -33.042500   54.138700  116.151000
  H    -31.871900   55.255900  115.437000
  S    -28.431800   58.845000  111.290000
  C    -28.447400   60.402600  111.994000
  C    -28.766800   60.330800  113.367000
  C    -28.910300   59.000200  113.867000
  C    -28.736100   58.078600  112.861000
  H    -28.939900   61.226400  113.809000
  C    -29.194100   58.786800  115.334000
  H    -30.126700   58.118100  115.336000
  H    -29.565200   59.747300  115.525000
  C    -28.040200   58.434600  116.300000
  H    -28.385000   58.265000  117.311000
  H    -27.331100   59.306500  116.418000
  C    -27.400100   57.135000  115.933000
  H    -28.127900   56.367700  116.246000
  H    -26.505400   57.031700  116.548000
  H    -27.072400   57.183700  114.886000
  H    -28.423100   53.228800  111.935000
  H    -28.246300   61.338100  111.561000

 Total Charge           Charge          ....    0
 Multiplicity           Mult            ....    1
 Number of Electrons    NEL             ....  134
 Basis Dimension        Dim             ....  322

ORBITAL ENERGIES
----------------

  NO   OCC          E(Eh)            E(eV)
   0   2.0000     -88.972120     -2421.0545
   1   2.0000     -88.968629     -2420.9595
   2   2.0000     -10.335901      -281.2542
   3   2.0000     -10.325823      -280.9799
   4   2.0000     -10.320333      -280.8305
   5   2.0000     -10.312509      -280.6176
   6   2.0000     -10.311860      -280.6000
   7   2.0000     -10.300762      -280.2980
   8   2.0000     -10.300334      -280.2863
   9   2.0000     -10.292737      -280.0796
  10   2.0000     -10.292574      -280.0752
  11   2.0000     -10.288681      -279.9692
  12   2.0000     -10.286626      -279.9133
  13   2.0000     -10.285965      -279.8953
  14   2.0000     -10.275578      -279.6127
  15   2.0000     -10.268531      -279.4209
  16   2.0000      -8.085028      -220.0048
  17   2.0000      -8.083320      -219.9583
  18   2.0000      -6.043522      -164.4526
  19   2.0000      -6.041832      -164.4066
  20   2.0000      -6.040011      -164.3571
  21   2.0000      -6.037753      -164.2956
  22   2.0000      -6.035689      -164.2394
  23   2.0000      -6.034165      -164.1980
  24   2.0000      -1.001570       -27.2541
  25   2.0000      -0.975466       -26.5438
  26   2.0000      -0.917152       -24.9570
  27   2.0000      -0.912334       -24.8259
  28   2.0000      -0.864160       -23.5150
  29   2.0000      -0.857921       -23.3452
  30   2.0000      -0.849855       -23.1257
  31   2.0000      -0.812905       -22.1203
  32   2.0000      -0.784526       -21.3480
  33   2.0000      -0.768126       -20.9018
  34   2.0000      -0.701543       -19.0900
  35   2.0000      -0.695874       -18.9357
  36   2.0000      -0.689023       -18.7493
  37   2.0000      -0.666738       -18.1429
  38   2.0000      -0.641053       -17.4439
  39   2.0000      -0.624971       -17.0063
  40   2.0000      -0.585089       -15.9211
  41   2.0000      -0.576002       -15.6738
  42   2.0000      -0.558758       -15.2046
  43   2.0000      -0.556456       -15.1419
  44   2.0000      -0.551945       -15.0192
  45   2.0000      -0.538367       -14.6497
  46   2.0000      -0.519029       -14.1235
  47   2.0000      -0.511243       -13.9116
  48   2.0000      -0.500421       -13.6172
  49   2.0000      -0.491275       -13.3683
  50   2.0000      -0.489134       -13.3100
  51   2.0000      -0.481252       -13.0955
  52   2.0000      -0.467312       -12.7162
  53   2.0000      -0.462069       -12.5735
  54   2.0000      -0.457717       -12.4551
  55   2.0000      -0.446304       -12.1445
  56   2.0000      -0.442610       -12.0440
  57   2.0000      -0.438931       -11.9439
  58   2.0000      -0.429833       -11.6963
  59   2.0000      -0.428359       -11.6562
  60   2.0000      -0.418140       -11.3782
  61   2.0000      -0.412237       -11.2175
  62   2.0000      -0.397832       -10.8255
  63   2.0000      -0.350172        -9.5287
  64   2.0000      -0.334443        -9.1006
  65   2.0000      -0.328396        -8.9361
  66   2.0000      -0.284354        -7.7377
  67   0.0000       0.023616         0.6426
  68   0.0000       0.066972         1.8224
  69   0.0000       0.098849         2.6898
  70   0.0000       0.114887         3.1262
  71   0.0000       0.124351         3.3838

MULLIKEN ATOMIC CHARGES
-----------------------
   0 S :    0.108001
   1 C :   -0.107361
   2 C :   -0.076835
   3 C :    0.071873
   4 C :   -0.159010
   5 H :   -0.032399
   6 C :   -0.002872
   7 H :    0.022655
   8 H :    0.056399
   9 C :   -0.044913
  10 H :    0.038013
  11 H :    0.038963
  12 C :   -0.065381
  13 H :    0.031855
  14 H :    0.032157
  15 H :    0.018488
  16 S :    0.124017
  17 C :   -0.073870
  18 C :   -0.025842
  19 C :   -0.062880
  20 C :   -0.158736
  21 H :   -0.021613
  22 C :    0.102256
  23 H :    0.034673
  24 H :   -0.005581
  25 C :   -0.056810
  26 H :    0.021705
  27 H :    0.033285
  28 C :   -0.036811
  29 H :    0.036279
  30 H :    0.025486
  31 H :    0.053256
  32 H :    0.044548
  33 H :    0.037004
Sum of atomic charges:    0.0000000

LOEWDIN ATOMIC CHARGES
----------------------
   0 S :    0.370615
   1 C :   -0.195294
   2 C :   -0.056126
   3 C :   -0.051226
   4 C :   -0.153165
   5 H :    0.015958
   6 C :   -0.042519
   7 H :    0.032446
   8 H :    0.042242
   9 C :   -0.043436
  10 H :    0.035514
  11 H :    0.028049
  12 C :   -0.066455
  13 H :    0.029282
  14 H :    0.024429
  15 H :    0.008029
  16 S :    0.418263
  17 C :   -0.191935
  18 C :   -0.061338
  19 C :   -0.059395
  20 C :   -0.201342
  21 H :    0.011739
  22 C :   -0.033304
  23 H :    0.038046
  24 H :    0.023743
  25 C :   -0.041333
  26 H :    0.023498
  27 H :    0.028461
  28 C :   -0.063578
  29 H :    0.030276
  30 H :    0.024406
  31 H :    0.028590
  32 H :    0.024706
  33 H :    0.022156

  Mayer bond orders larger than 0.100000
B(  0-S ,  1-C ) :   1.1341 B(  0-S ,  4-C ) :   1.1196 B(  1-C ,  2-C ) :   1.6287
B(  1-C , 32-H ) :   0.9607 B(  2-C ,  3-C ) :   1.2173 B(  2-C ,  6-C ) :   1.0197
B(  3-C ,  4-C ) :   1.6111 B(  3-C ,  5-H ) :   0.9935 B(  4-C , 20-C ) :   1.0519
B(  6-C ,  7-H ) :   0.9382 B(  6-C ,  8-H ) :   0.9415 B(  6-C ,  9-C ) :   1.0634
B(  9-C , 10-H ) :   0.9588 B(  9-C , 11-H ) :   0.9532 B(  9-C , 12-C ) :   1.0713
B( 12-C , 13-H ) :   0.9744 B( 12-C , 14-H ) :   0.9719 B( 12-C , 15-H ) :   0.9745
B( 16-S , 17-C ) :   1.1622 B( 16-S , 20-C ) :   1.1418 B( 17-C , 18-C ) :   1.6033
B( 17-C , 33-H ) :   0.9706 B( 18-C , 19-C ) :   1.2500 B( 18-C , 21-H ) :   1.0013
B( 19-C , 20-C ) :   1.5780 B( 19-C , 22-C ) :   1.0107 B( 22-C , 23-H ) :   0.9335
B( 22-C , 24-H ) :   0.9190 B( 22-C , 25-C ) :   1.0683 B( 25-C , 26-H ) :   0.9530
B( 25-C , 27-H ) :   0.9528 B( 25-C , 28-C ) :   1.0842 B( 28-C , 29-H ) :   0.9741
B( 28-C , 30-H ) :   0.9695 B( 28-C , 31-H ) :   0.9702

Dispersion correction           -0.015578487
FINAL SINGLE POINT ENERGY     -1339.843698403343

DIPOLE MOMENT
-------------
                                X             Y             Z
Electronic contribution:     11.92698       8.78818     -23.20054
Nuclear contribution   :    -12.33350      -8.78845      23.70237
                        -----------------------------------------
Total Dipole Moment    :     -0.40652      -0.00027       0.50183
                        -----------------------------------------
Magnitude (a.u.)       :      0.64582
Magnitude (Debye)      :      1.64155

Rotational constants in cm-1:     0.018877     0.009554     0.007865
Rotational constants in MHz :   565.927453   286.425540   235.777752

                             ****ORCA TERMINATED NORMALLY****
TOTAL RUN TIME: 0 days 0 hours 0 minutes 32 seconds 446 msec
