                         Program Version 4.2.1 -  RELEASE  -
|  1> ! wB97X-D3 SP def2-SVP
|  2> %pal
|  3> nprocs 16
|  4> end
|  5>
|  6> * xyz 0 1
|  7> S 	 -69.4976 	 39.503 	 125.144
|  8> C 	 -70.1147 	 41.1619 	 125.144
|  9> C 	 -69.1483 	 42.1373 	 125.092
| 10> C 	 -67.9334 	 41.4966 	 124.708
| 11> C 	 -67.8691 	 40.1351 	 124.726
| 12> H 	 -67.0162 	 41.9421 	 124.52
| 13> C 	 -69.428 	 43.526 	 125.547
| 14> H 	 -68.725 	 43.7934 	 126.388
| 15> H 	 -70.4766 	 43.4986 	 125.909
| 16> C 	 -69.4245 	 44.7203 	 124.471
| 17> H 	 -70.3162 	 44.6669 	 123.851
| 18> H 	 -69.5063 	 45.6041 	 125.058
| 19> C 	 -68.148 	 44.9429 	 123.647
| 20> H 	 -67.2153 	 44.4296 	 123.978
| 21> H 	 -68.4352 	 44.5661 	 122.673
| 22> H 	 -68.0786 	 45.9632 	 123.458
| 23> S 	 -67.1671 	 37.8378 	 123.575
| 24> C 	 -65.5469 	 37.2543 	 123.669
| 25> C 	 -64.7723 	 38.0745 	 124.493
| 26> C 	 -65.4054 	 39.2857 	 124.921
| 27> C 	 -66.7367 	 39.2929 	 124.455
| 28> H 	 -63.7772 	 37.8629 	 124.945
| 29> C 	 -64.6869 	 40.4185 	 125.749
| 30> H 	 -64.4147 	 39.9008 	 126.665
| 31> H 	 -65.4454 	 41.1427 	 126.081
| 32> C 	 -63.4933 	 41.0727 	 125.069
| 33> H 	 -62.7428 	 40.297 	 124.781
| 34> H 	 -63.1735 	 41.7594 	 125.858
| 35> C 	 -63.6841 	 41.911 	 123.742
| 36> H 	 -62.8459 	 42.4825 	 123.509
| 37> H 	 -64.4298 	 42.6742 	 123.885
| 38> H 	 -64.0152 	 41.3615 	 122.906
| 39> H 	 -71.1608 	 41.3262 	 125.166
| 40> H 	 -65.4021 	 36.1569 	 123.601
| 41> *
| 42>
| 43>                          ****END OF INPUT****

CARTESIAN COORDINATES (ANGSTROEM)
---------------------------------
  S    -69.497600   39.503000  125.144000
  C    -70.114700   41.161900  125.144000
  C    -69.148300   42.137300  125.092000
  C    -67.933400   41.496600  124.708000
  C    -67.869100   40.135100  124.726000
  H    -67.016200   41.942100  124.520000
  C    -69.428000   43.526000  125.547000
  H    -68.725000   43.793400  126.388000
  H    -70.476600   43.498600  125.909000
  C    -69.424500   44.720300  124.471000
  H    -70.316200   44.666900  123.851000
  H    -69.506300   45.604100  125.058000
  C    -68.148000   44.942900  123.647000
  H    -67.215300   44.429600  123.978000
  H    -68.435200   44.566100  122.673000
  H    -68.078600   45.963200  123.458000
  S    -67.167100   37.837800  123.575000
  C    -65.546900   37.254300  123.669000
  C    -64.772300   38.074500  124.493000
  C    -65.405400   39.285700  124.921000
  C    -66.736700   39.292900  124.455000
  H    -63.777200   37.862900  124.945000
  C    -64.686900   40.418500  125.749000
  H    -64.414700   39.900800  126.665000
  H    -65.445400   41.142700  126.081000
  C    -63.493300   41.072700  125.069000
  H    -62.742800   40.297000  124.781000
  H    -63.173500   41.759400  125.858000
  C    -63.684100   41.911000  123.742000
  H    -62.845900   42.482500  123.509000
  H    -64.429800   42.674200  123.885000
  H    -64.015200   41.361500  122.906000
  H    -71.160800   41.326200  125.166000
  H    -65.402100   36.156900  123.601000

 Total Charge           Charge          ....    0
 Multiplicity           Mult            ....    1
 Number of Electrons    NEL             ....  134
 Basis Dimension        Dim             ....  322

ORBITAL ENERGIES
----------------

  NO   OCC          E(Eh)            E(eV)
   0   2.0000     -88.964592     -2420.8496
   1   2.0000     -88.961860     -2420.7753
   2   2.0000     -10.327006      -281.0121
   3   2.0000     -10.324921      -280.9554
   4   2.0000     -10.317317      -280.7485
   5   2.0000     -10.311118      -280.5798
   6   2.0000     -10.308953      -280.5209
   7   2.0000     -10.303649      -280.3765
   8   2.0000     -10.301668      -280.3226
   9   2.0000     -10.301056      -280.3060
  10   2.0000     -10.299974      -280.2765
  11   2.0000     -10.297443      -280.2077
  12   2.0000     -10.287107      -279.9264
  13   2.0000     -10.285106      -279.8719
  14   2.0000     -10.274073      -279.5717
  15   2.0000     -10.271598      -279.5044
  16   2.0000      -8.079890      -219.8650
  17   2.0000      -8.075913      -219.7568
  18   2.0000      -6.038263      -164.3095
  19   2.0000      -6.034467      -164.2062
  20   2.0000      -6.034294      -164.2015
  21   2.0000      -6.030765      -164.1054
  22   2.0000      -6.030738      -164.1047
  23   2.0000      -6.026449      -163.9880
  24   2.0000      -1.005075       -27.3495
  25   2.0000      -0.981280       -26.7020
  26   2.0000      -0.906679       -24.6720
  27   2.0000      -0.904823       -24.6215
  28   2.0000      -0.870566       -23.6893
  29   2.0000      -0.850748       -23.1500
  30   2.0000      -0.843585       -22.9551
  31   2.0000      -0.816118       -22.2077
  32   2.0000      -0.793037       -21.5796
  33   2.0000      -0.772977       -21.0338
  34   2.0000      -0.707870       -19.2621
  35   2.0000      -0.698849       -19.0166
  36   2.0000      -0.693350       -18.8670
  37   2.0000      -0.659314       -17.9408
  38   2.0000      -0.644251       -17.5309
  39   2.0000      -0.615345       -16.7444
  40   2.0000      -0.595824       -16.2132
  41   2.0000      -0.570346       -15.5199
  42   2.0000      -0.551677       -15.0119
  43   2.0000      -0.546901       -14.8819
  44   2.0000      -0.542460       -14.7611
  45   2.0000      -0.533272       -14.5111
  46   2.0000      -0.517687       -14.0870
  47   2.0000      -0.513593       -13.9756
  48   2.0000      -0.502563       -13.6754
  49   2.0000      -0.500875       -13.6295
  50   2.0000      -0.490607       -13.3501
  51   2.0000      -0.477950       -13.0057
  52   2.0000      -0.471813       -12.8387
  53   2.0000      -0.466219       -12.6865
  54   2.0000      -0.459934       -12.5154
  55   2.0000      -0.452836       -12.3223
  56   2.0000      -0.447689       -12.1822
  57   2.0000      -0.438143       -11.9225
  58   2.0000      -0.433209       -11.7882
  59   2.0000      -0.425470       -11.5776
  60   2.0000      -0.420886       -11.4529
  61   2.0000      -0.413165       -11.2428
  62   2.0000      -0.408517       -11.1163
  63   2.0000      -0.344997        -9.3878
  64   2.0000      -0.332460        -9.0467
  65   2.0000      -0.325752        -8.8642
  66   2.0000      -0.287181        -7.8146
  67   0.0000       0.021641         0.5889
  68   0.0000       0.072649         1.9769
  69   0.0000       0.098181         2.6716
  70   0.0000       0.116468         3.1693
  71   0.0000       0.123591         3.3631

MULLIKEN ATOMIC CHARGES
-----------------------
   0 S :    0.094284
   1 C :   -0.128934
   2 C :   -0.035527
   3 C :    0.044555
   4 C :   -0.132881
   5 H :   -0.043458
   6 C :    0.030590
   7 H :    0.054050
   8 H :    0.026989
   9 C :   -0.078702
  10 H :    0.030358
  11 H :    0.020518
  12 C :   -0.029069
  13 H :    0.050683
  14 H :    0.024514
  15 H :    0.017896
  16 S :    0.101951
  17 C :   -0.085206
  18 C :   -0.064783
  19 C :   -0.053441
  20 C :   -0.187292
  21 H :    0.031380
  22 C :    0.077956
  23 H :    0.034413
  24 H :    0.024709
  25 C :   -0.086861
  26 H :    0.043133
  27 H :    0.039076
  28 C :   -0.013297
  29 H :    0.022049
  30 H :    0.009512
  31 H :    0.039522
  32 H :    0.039975
  33 H :    0.081336
Sum of atomic charges:    0.0000000

LOEWDIN ATOMIC CHARGES
----------------------
   0 S :    0.362252
   1 C :   -0.170732
   2 C :   -0.068029
   3 C :   -0.058210
   4 C :   -0.182121
   5 H :    0.013221
   6 C :   -0.030461
   7 H :    0.041850
   8 H :    0.037462
   9 C :   -0.036912
  10 H :    0.023326
  11 H :    0.017798
  12 C :   -0.069435
  13 H :    0.030912
  14 H :    0.030342
  15 H :    0.019815
  16 S :    0.422235
  17 C :   -0.214922
  18 C :   -0.072615
  19 C :   -0.054947
  20 C :   -0.196238
  21 H :    0.035377
  22 C :   -0.030625
  23 H :    0.036438
  24 H :    0.031074
  25 C :   -0.038489
  26 H :    0.029575
  27 H :    0.030461
  28 C :   -0.058558
  29 H :    0.021887
  30 H :    0.020109
  31 H :    0.024176
  32 H :    0.016861
  33 H :    0.037121

  Mayer bond orders larger than 0.100000
B(  0-S ,  1-C ) :   1.1406 B(  0-S ,  4-C ) :   1.1018 B(  1-C ,  2-C ) :   1.6161
B(  1-C , 32-H ) :   0.9661 B(  2-C ,  3-C ) :   1.1912 B(  2-C ,  6-C ) :   1.0290
B(  3-C ,  4-C ) :   1.6230 B(  3-C ,  5-H ) :   1.0052 B(  4-C , 20-C ) :   1.0784
B(  6-C ,  7-H ) :   0.9417 B(  6-C ,  8-H ) :   0.9373 B(  6-C ,  9-C ) :   1.0727
B(  9-C , 10-H ) :   0.9615 B(  9-C , 11-H ) :   0.9636 B(  9-C , 12-C ) :   1.0635
B( 12-C , 13-H ) :   0.9775 B( 12-C , 14-H ) :   0.9750 B( 12-C , 15-H ) :   0.9739
B( 16-S , 17-C ) :   1.1573 B( 16-S , 20-C ) :   1.1653 B( 17-C , 18-C ) :   1.5752
B( 17-C , 20-C ) :   0.1019 B( 17-C , 33-H ) :   0.9578 B( 18-C , 19-C ) :   1.2865
B( 18-C , 21-H ) :   0.9742 B( 19-C , 20-C ) :   1.5449 B( 19-C , 22-C ) :   1.0195
B( 22-C , 23-H ) :   0.9309 B( 22-C , 24-H ) :   0.9347 B( 22-C , 25-C ) :   1.0706
B( 25-C , 26-H ) :   0.9564 B( 25-C , 27-H ) :   0.9537 B( 25-C , 28-C ) :   1.0750
B( 28-C , 29-H ) :   0.9715 B( 28-C , 30-H ) :   0.9701 B( 28-C , 31-H ) :   0.9763

Dispersion correction           -0.014594356
FINAL SINGLE POINT ENERGY     -1339.850293394081

DIPOLE MOMENT
-------------
                                X             Y             Z
Electronic contribution:    -11.90554     -27.03164      -0.24894
Nuclear contribution   :     12.20018      27.67122       0.59247
                        -----------------------------------------
Total Dipole Moment    :      0.29464       0.63958       0.34353
                        -----------------------------------------
Magnitude (a.u.)       :      0.78351
Magnitude (Debye)      :      1.99152

Rotational constants in cm-1:     0.017513     0.009704     0.006895
Rotational constants in MHz :   525.011746   290.913148   206.694270

                             ****ORCA TERMINATED NORMALLY****
TOTAL RUN TIME: 0 days 0 hours 0 minutes 35 seconds 80 msec
