                         Program Version 4.2.1 -  RELEASE  -
|  1> ! wB97X-D3 SP def2-SVP
|  2> %pal
|  3> nprocs 16
|  4> end
|  5>
|  6> * xyz 0 1
|  7> S 	 -16.1017 	 -3.43586 	 83.4423
|  8> C 	 -15.3033 	 -4.40137 	 82.2843
|  9> C 	 -14.4575 	 -5.38545 	 82.8863
| 10> C 	 -14.5887 	 -5.39222 	 84.3155
| 11> C 	 -15.4985 	 -4.42361 	 84.7972
| 12> H 	 -14.0911 	 -6.01877 	 85.0116
| 13> C 	 -13.4908 	 -6.29684 	 82.1031
| 14> H 	 -12.5907 	 -6.28648 	 82.6915
| 15> H 	 -13.1835 	 -5.8226 	 81.158
| 16> C 	 -13.9375 	 -7.68131 	 81.7558
| 17> H 	 -14.2038 	 -8.17309 	 82.6198
| 18> H 	 -14.8355 	 -7.62822 	 81.1518
| 19> C 	 -12.9491 	 -8.50452 	 80.8794
| 20> H 	 -11.9788 	 -8.56323 	 81.3089
| 21> H 	 -13.3702 	 -9.47037 	 80.593
| 22> H 	 -12.9458 	 -8.02966 	 79.956
| 23> S 	 -17.7479 	 -4.57364 	 86.306
| 24> C 	 -17.7425 	 -4.8401 	 88.014
| 25> C 	 -16.4252 	 -4.70021 	 88.4874
| 26> C 	 -15.4587 	 -4.45043 	 87.4839
| 27> C 	 -16.0147 	 -4.44121 	 86.2268
| 28> H 	 -16.3282 	 -4.59882 	 89.5802
| 29> C 	 -13.9994 	 -4.22858 	 87.9183
| 30> H 	 -13.5181 	 -5.13855 	 87.3687
| 31> H 	 -13.9565 	 -4.38521 	 89.0016
| 32> C 	 -13.3128 	 -2.95099 	 87.5082
| 33> H 	 -13.2302 	 -2.9637 	 86.3756
| 34> H 	 -12.2902 	 -2.89131 	 87.8521
| 35> C 	 -14.0734 	 -1.71514 	 87.9369
| 36> H 	 -13.7931 	 -0.802077 	 87.3673
| 37> H 	 -13.8683 	 -1.58562 	 88.9651
| 38> H 	 -15.1235 	 -1.85622 	 87.6888
| 39> H 	 -15.4456 	 -4.30843 	 81.2544
| 40> H 	 -18.5856 	 -5.00437 	 88.6976
| 41> *
| 42>
| 43>                          ****END OF INPUT****

CARTESIAN COORDINATES (ANGSTROEM)
---------------------------------
  S    -16.101700   -3.435860   83.442300
  C    -15.303300   -4.401370   82.284300
  C    -14.457500   -5.385450   82.886300
  C    -14.588700   -5.392220   84.315500
  C    -15.498500   -4.423610   84.797200
  H    -14.091100   -6.018770   85.011600
  C    -13.490800   -6.296840   82.103100
  H    -12.590700   -6.286480   82.691500
  H    -13.183500   -5.822600   81.158000
  C    -13.937500   -7.681310   81.755800
  H    -14.203800   -8.173090   82.619800
  H    -14.835500   -7.628220   81.151800
  C    -12.949100   -8.504520   80.879400
  H    -11.978800   -8.563230   81.308900
  H    -13.370200   -9.470370   80.593000
  H    -12.945800   -8.029660   79.956000
  S    -17.747900   -4.573640   86.306000
  C    -17.742500   -4.840100   88.014000
  C    -16.425200   -4.700210   88.487400
  C    -15.458700   -4.450430   87.483900
  C    -16.014700   -4.441210   86.226800
  H    -16.328200   -4.598820   89.580200
  C    -13.999400   -4.228580   87.918300
  H    -13.518100   -5.138550   87.368700
  H    -13.956500   -4.385210   89.001600
  C    -13.312800   -2.950990   87.508200
  H    -13.230200   -2.963700   86.375600
  H    -12.290200   -2.891310   87.852100
  C    -14.073400   -1.715140   87.936900
  H    -13.793100   -0.802077   87.367300
  H    -13.868300   -1.585620   88.965100
  H    -15.123500   -1.856220   87.688800
  H    -15.445600   -4.308430   81.254400
  H    -18.585600   -5.004370   88.697600

 Total Charge           Charge          ....    0
 Multiplicity           Mult            ....    1
 Number of Electrons    NEL             ....  134
 Basis Dimension        Dim             ....  322

ORBITAL ENERGIES
----------------

  NO   OCC          E(Eh)            E(eV)
   0   2.0000     -88.973468     -2421.0912
   1   2.0000     -88.965517     -2420.8748
   2   2.0000     -10.338904      -281.3359
   3   2.0000     -10.330954      -281.1195
   4   2.0000     -10.318201      -280.7725
   5   2.0000     -10.314085      -280.6605
   6   2.0000     -10.309296      -280.5302
   7   2.0000     -10.304773      -280.4071
   8   2.0000     -10.299584      -280.2659
   9   2.0000     -10.297991      -280.2226
  10   2.0000     -10.293684      -280.1054
  11   2.0000     -10.290488      -280.0184
  12   2.0000     -10.282410      -279.7986
  13   2.0000     -10.275998      -279.6241
  14   2.0000     -10.272226      -279.5215
  15   2.0000     -10.267815      -279.4015
  16   2.0000      -8.087811      -220.0805
  17   2.0000      -8.080634      -219.8852
  18   2.0000      -6.046333      -164.5291
  19   2.0000      -6.042167      -164.4157
  20   2.0000      -6.039097      -164.3322
  21   2.0000      -6.038808      -164.3243
  22   2.0000      -6.034946      -164.2192
  23   2.0000      -6.031548      -164.1268
  24   2.0000      -1.004899       -27.3447
  25   2.0000      -0.983739       -26.7689
  26   2.0000      -0.912682       -24.8353
  27   2.0000      -0.910424       -24.7739
  28   2.0000      -0.863115       -23.4865
  29   2.0000      -0.853422       -23.2228
  30   2.0000      -0.847967       -23.0744
  31   2.0000      -0.811920       -22.0935
  32   2.0000      -0.781082       -21.2543
  33   2.0000      -0.773738       -21.0545
  34   2.0000      -0.705608       -19.2006
  35   2.0000      -0.702460       -19.1149
  36   2.0000      -0.683371       -18.5955
  37   2.0000      -0.663603       -18.0576
  38   2.0000      -0.646745       -17.5988
  39   2.0000      -0.617026       -16.7901
  40   2.0000      -0.581521       -15.8240
  41   2.0000      -0.573344       -15.6015
  42   2.0000      -0.565440       -15.3864
  43   2.0000      -0.555567       -15.1177
  44   2.0000      -0.549374       -14.9492
  45   2.0000      -0.525347       -14.2954
  46   2.0000      -0.516558       -14.0563
  47   2.0000      -0.510030       -13.8786
  48   2.0000      -0.506572       -13.7845
  49   2.0000      -0.497519       -13.5382
  50   2.0000      -0.492062       -13.3897
  51   2.0000      -0.477163       -12.9843
  52   2.0000      -0.471428       -12.8282
  53   2.0000      -0.467487       -12.7210
  54   2.0000      -0.463696       -12.6178
  55   2.0000      -0.446815       -12.1584
  56   2.0000      -0.441133       -12.0038
  57   2.0000      -0.435506       -11.8507
  58   2.0000      -0.432236       -11.7617
  59   2.0000      -0.426913       -11.6169
  60   2.0000      -0.416609       -11.3365
  61   2.0000      -0.413686       -11.2570
  62   2.0000      -0.410409       -11.1678
  63   2.0000      -0.346773        -9.4362
  64   2.0000      -0.330451        -8.9920
  65   2.0000      -0.328219        -8.9313
  66   2.0000      -0.290964        -7.9175
  67   0.0000       0.029711         0.8085
  68   0.0000       0.063830         1.7369
  69   0.0000       0.111726         3.0402
  70   0.0000       0.122203         3.3253
  71   0.0000       0.130510         3.5514

MULLIKEN ATOMIC CHARGES
-----------------------
   0 S :    0.129593
   1 C :   -0.101029
   2 C :   -0.093832
   3 C :    0.052223
   4 C :   -0.153511
   5 H :    0.003882
   6 C :    0.063309
   7 H :    0.018743
   8 H :    0.010823
   9 C :   -0.036184
  10 H :    0.006542
  11 H :    0.015824
  12 C :   -0.011023
  13 H :    0.032608
  14 H :    0.030461
  15 H :    0.008804
  16 S :    0.115561
  17 C :   -0.105841
  18 C :   -0.071076
  19 C :   -0.058024
  20 C :   -0.173014
  21 H :    0.031436
  22 C :    0.058163
  23 H :    0.047716
  24 H :    0.020352
  25 C :   -0.065920
  26 H :    0.035929
  27 H :    0.028262
  28 C :   -0.042869
  29 H :    0.035507
  30 H :    0.023464
  31 H :    0.044522
  32 H :    0.033255
  33 H :    0.065345
Sum of atomic charges:   -0.0000000

LOEWDIN ATOMIC CHARGES
----------------------
   0 S :    0.421768
   1 C :   -0.203897
   2 C :   -0.056198
   3 C :   -0.053828
   4 C :   -0.197510
   5 H :    0.025758
   6 C :   -0.033020
   7 H :    0.028040
   8 H :    0.029099
   9 C :   -0.033687
  10 H :    0.009709
  11 H :    0.024946
  12 C :   -0.053515
  13 H :    0.020301
  14 H :    0.031225
  15 H :    0.016986
  16 S :    0.429454
  17 C :   -0.201056
  18 C :   -0.082694
  19 C :   -0.067753
  20 C :   -0.201729
  21 H :    0.034844
  22 C :   -0.032135
  23 H :    0.045488
  24 H :    0.027507
  25 C :   -0.049587
  26 H :    0.030344
  27 H :    0.023146
  28 C :   -0.063990
  29 H :    0.031197
  30 H :    0.018230
  31 H :    0.028533
  32 H :    0.017270
  33 H :    0.036754

  Mayer bond orders larger than 0.100000
B(  0-S ,  1-C ) :   1.1655 B(  0-S ,  4-C ) :   1.1624 B(  1-C ,  2-C ) :   1.5603
B(  1-C ,  4-C ) :   0.1012 B(  1-C , 32-H ) :   0.9761 B(  2-C ,  3-C ) :   1.2792
B(  2-C ,  6-C ) :   1.0204 B(  3-C ,  4-C ) :   1.5395 B(  3-C ,  5-H ) :   0.9947
B(  4-C , 20-C ) :   1.0081 B(  6-C ,  7-H ) :   0.9374 B(  6-C ,  8-H ) :   0.9418
B(  6-C ,  9-C ) :   1.0704 B(  9-C , 10-H ) :   0.9551 B(  9-C , 11-H ) :   0.9523
B(  9-C , 12-C ) :   1.0823 B( 12-C , 13-H ) :   0.9786 B( 12-C , 14-H ) :   0.9719
B( 12-C , 15-H ) :   0.9726 B( 16-S , 17-C ) :   1.1744 B( 16-S , 20-C ) :   1.1573
B( 17-C , 18-C ) :   1.5900 B( 17-C , 20-C ) :   0.1027 B( 17-C , 33-H ) :   0.9652
B( 18-C , 19-C ) :   1.2670 B( 18-C , 21-H ) :   0.9815 B( 19-C , 20-C ) :   1.5859
B( 19-C , 22-C ) :   1.0137 B( 22-C , 23-H ) :   0.9313 B( 22-C , 24-H ) :   0.9395
B( 22-C , 25-C ) :   1.0760 B( 25-C , 26-H ) :   0.9495 B( 25-C , 27-H ) :   0.9553
B( 25-C , 28-C ) :   1.0750 B( 28-C , 29-H ) :   0.9731 B( 28-C , 30-H ) :   0.9772
B( 28-C , 31-H ) :   0.9741

Dispersion correction           -0.014274020
FINAL SINGLE POINT ENERGY     -1339.866887953932

DIPOLE MOMENT
-------------
                                X             Y             Z
Electronic contribution:    -20.30582       7.65570       2.77299
Nuclear contribution   :     20.69020      -7.89075      -2.72882
                        -----------------------------------------
Total Dipole Moment    :      0.38438      -0.23505       0.04416
                        -----------------------------------------
Magnitude (a.u.)       :      0.45271
Magnitude (Debye)      :      1.15070

Rotational constants in cm-1:     0.020564     0.007310     0.006849
Rotational constants in MHz :   616.507178   219.158051   205.333696

                             ****ORCA TERMINATED NORMALLY****
TOTAL RUN TIME: 0 days 0 hours 0 minutes 33 seconds 845 msec
