                         Program Version 4.2.1 -  RELEASE  -
|  1> ! wB97X-D3 SP def2-SVP
|  2> %pal
|  3> nprocs 16
|  4> end
|  5>
|  6> * xyz 0 1
|  7> S 	 1.3214 	 -6.02323 	 86.8513
|  8> C 	 2.43642 	 -7.01533 	 87.6841
|  9> C 	 1.78724 	 -8.02773 	 88.417
| 10> C 	 0.354909 	 -7.92823 	 88.2619
| 11> C 	 0.0186272 	 -6.75923 	 87.5946
| 12> H 	 -0.388914 	 -8.66512 	 88.5914
| 13> C 	 2.3921 	 -9.26617 	 89.0675
| 14> H 	 2.2989 	 -9.96263 	 88.2118
| 15> H 	 1.7054 	 -9.67049 	 89.8836
| 16> C 	 3.79916 	 -9.24777 	 89.4627
| 17> H 	 4.06603 	 -10.2062 	 89.5713
| 18> H 	 4.30269 	 -8.91218 	 88.6274
| 19> C 	 4.08195 	 -8.33163 	 90.706
| 20> H 	 4.00104 	 -7.29371 	 90.5011
| 21> H 	 3.6831 	 -8.59908 	 91.6187
| 22> H 	 5.14349 	 -8.37758 	 90.9236
| 23> S 	 -2.26707 	 -6.38353 	 86.1871
| 24> C 	 -3.84105 	 -5.91242 	 86.8912
| 25> C 	 -3.61352 	 -5.74363 	 88.2219
| 26> C 	 -2.28946 	 -5.91837 	 88.6923
| 27> C 	 -1.37088 	 -6.25028 	 87.66
| 28> H 	 -4.45675 	 -5.34168 	 88.827
| 29> C 	 -1.96143 	 -5.87392 	 90.2034
| 30> H 	 -1.74569 	 -4.81528 	 90.5012
| 31> H 	 -0.973345 	 -6.42242 	 90.2471
| 32> C 	 -2.85268 	 -6.54869 	 91.2288
| 33> H 	 -2.92979 	 -7.64031 	 91.2006
| 34> H 	 -3.8213 	 -6.10747 	 91.0687
| 35> C 	 -2.30757 	 -6.22877 	 92.6396
| 36> H 	 -2.27269 	 -5.20306 	 92.8915
| 37> H 	 -1.22188 	 -6.44967 	 92.5425
| 38> H 	 -2.72536 	 -6.87383 	 93.4384
| 39> H 	 3.55308 	 -7.07137 	 87.625
| 40> H 	 -4.72051 	 -5.70752 	 86.3606
| 41> *
| 42>
| 43>                          ****END OF INPUT****

CARTESIAN COORDINATES (ANGSTROEM)
---------------------------------
  S      1.321400   -6.023230   86.851300
  C      2.436420   -7.015330   87.684100
  C      1.787240   -8.027730   88.417000
  C      0.354909   -7.928230   88.261900
  C      0.018627   -6.759230   87.594600
  H     -0.388914   -8.665120   88.591400
  C      2.392100   -9.266170   89.067500
  H      2.298900   -9.962630   88.211800
  H      1.705400   -9.670490   89.883600
  C      3.799160   -9.247770   89.462700
  H      4.066030  -10.206200   89.571300
  H      4.302690   -8.912180   88.627400
  C      4.081950   -8.331630   90.706000
  H      4.001040   -7.293710   90.501100
  H      3.683100   -8.599080   91.618700
  H      5.143490   -8.377580   90.923600
  S     -2.267070   -6.383530   86.187100
  C     -3.841050   -5.912420   86.891200
  C     -3.613520   -5.743630   88.221900
  C     -2.289460   -5.918370   88.692300
  C     -1.370880   -6.250280   87.660000
  H     -4.456750   -5.341680   88.827000
  C     -1.961430   -5.873920   90.203400
  H     -1.745690   -4.815280   90.501200
  H     -0.973345   -6.422420   90.247100
  C     -2.852680   -6.548690   91.228800
  H     -2.929790   -7.640310   91.200600
  H     -3.821300   -6.107470   91.068700
  C     -2.307570   -6.228770   92.639600
  H     -2.272690   -5.203060   92.891500
  H     -1.221880   -6.449670   92.542500
  H     -2.725360   -6.873830   93.438400
  H      3.553080   -7.071370   87.625000
  H     -4.720510   -5.707520   86.360600

 Total Charge           Charge          ....    0
 Multiplicity           Mult            ....    1
 Number of Electrons    NEL             ....  134
 Basis Dimension        Dim             ....  322

ORBITAL ENERGIES
----------------

  NO   OCC          E(Eh)            E(eV)
   0   2.0000     -88.971664     -2421.0420
   1   2.0000     -88.958288     -2420.6781
   2   2.0000     -10.330486      -281.1068
   3   2.0000     -10.325160      -280.9619
   4   2.0000     -10.315302      -280.6936
   5   2.0000     -10.314141      -280.6620
   6   2.0000     -10.306351      -280.4501
   7   2.0000     -10.303729      -280.3787
   8   2.0000     -10.294547      -280.1289
   9   2.0000     -10.294341      -280.1233
  10   2.0000     -10.294050      -280.1153
  11   2.0000     -10.292040      -280.0606
  12   2.0000     -10.285361      -279.8789
  13   2.0000     -10.276974      -279.6507
  14   2.0000     -10.274480      -279.5828
  15   2.0000     -10.270358      -279.4706
  16   2.0000      -8.088046      -220.0869
  17   2.0000      -8.073070      -219.6794
  18   2.0000      -6.046464      -164.5327
  19   2.0000      -6.042291      -164.4191
  20   2.0000      -6.038832      -164.3250
  21   2.0000      -6.031611      -164.1285
  22   2.0000      -6.027311      -164.0115
  23   2.0000      -6.024034      -163.9223
  24   2.0000      -1.013490       -27.5785
  25   2.0000      -0.986228       -26.8366
  26   2.0000      -0.924854       -25.1665
  27   2.0000      -0.906308       -24.6619
  28   2.0000      -0.869165       -23.6512
  29   2.0000      -0.854643       -23.2560
  30   2.0000      -0.841632       -22.9020
  31   2.0000      -0.812298       -22.1037
  32   2.0000      -0.790662       -21.5150
  33   2.0000      -0.765374       -20.8269
  34   2.0000      -0.719456       -19.5774
  35   2.0000      -0.700978       -19.0746
  36   2.0000      -0.695933       -18.9373
  37   2.0000      -0.653509       -17.7829
  38   2.0000      -0.637006       -17.3338
  39   2.0000      -0.606740       -16.5102
  40   2.0000      -0.595694       -16.2096
  41   2.0000      -0.585753       -15.9391
  42   2.0000      -0.567361       -15.4387
  43   2.0000      -0.557814       -15.1789
  44   2.0000      -0.546807       -14.8794
  45   2.0000      -0.527078       -14.3425
  46   2.0000      -0.516740       -14.0612
  47   2.0000      -0.514891       -14.0109
  48   2.0000      -0.506033       -13.7699
  49   2.0000      -0.498114       -13.5544
  50   2.0000      -0.491662       -13.3788
  51   2.0000      -0.480205       -13.0670
  52   2.0000      -0.467219       -12.7137
  53   2.0000      -0.465143       -12.6572
  54   2.0000      -0.453245       -12.3334
  55   2.0000      -0.452558       -12.3147
  56   2.0000      -0.446965       -12.1625
  57   2.0000      -0.435910       -11.8617
  58   2.0000      -0.433887       -11.8067
  59   2.0000      -0.428615       -11.6632
  60   2.0000      -0.423060       -11.5121
  61   2.0000      -0.410018       -11.1572
  62   2.0000      -0.407522       -11.0892
  63   2.0000      -0.339414        -9.2359
  64   2.0000      -0.327205        -8.9037
  65   2.0000      -0.318588        -8.6692
  66   2.0000      -0.302475        -8.2308
  67   0.0000       0.035966         0.9787
  68   0.0000       0.064594         1.7577
  69   0.0000       0.113274         3.0823
  70   0.0000       0.131607         3.5812
  71   0.0000       0.133095         3.6217

MULLIKEN ATOMIC CHARGES
-----------------------
   0 S :    0.157155
   1 C :   -0.134695
   2 C :   -0.114788
   3 C :    0.020595
   4 C :   -0.159856
   5 H :    0.032104
   6 C :   -0.006031
   7 H :    0.045835
   8 H :    0.036775
   9 C :    0.053986
  10 H :   -0.006357
  11 H :   -0.010175
  12 C :   -0.014144
  13 H :    0.028284
  14 H :    0.017841
  15 H :    0.012903
  16 S :    0.076164
  17 C :   -0.076913
  18 C :   -0.054872
  19 C :   -0.016054
  20 C :   -0.148472
  21 H :    0.035251
  22 C :   -0.005257
  23 H :    0.047531
  24 H :    0.033320
  25 C :   -0.044301
  26 H :    0.036226
  27 H :    0.022160
  28 C :   -0.049002
  29 H :    0.021395
  30 H :    0.018612
  31 H :    0.044913
  32 H :    0.058218
  33 H :    0.041647
Sum of atomic charges:    0.0000000

LOEWDIN ATOMIC CHARGES
----------------------
   0 S :    0.468030
   1 C :   -0.238571
   2 C :   -0.059106
   3 C :   -0.058778
   4 C :   -0.234365
   5 H :    0.037772
   6 C :   -0.037290
   7 H :    0.043047
   8 H :    0.034476
   9 C :   -0.026395
  10 H :    0.014202
  11 H :    0.016852
  12 C :   -0.055715
  13 H :    0.025173
  14 H :    0.016065
  15 H :    0.028471
  16 S :    0.398482
  17 C :   -0.169164
  18 C :   -0.081241
  19 C :   -0.064787
  20 C :   -0.199591
  21 H :    0.037376
  22 C :   -0.042355
  23 H :    0.037831
  24 H :    0.034480
  25 C :   -0.039406
  26 H :    0.028448
  27 H :    0.016133
  28 C :   -0.065646
  29 H :    0.017255
  30 H :    0.028864
  31 H :    0.029749
  32 H :    0.037105
  33 H :    0.022602

  Mayer bond orders larger than 0.100000
B(  0-S ,  1-C ) :   1.1451 B(  0-S ,  4-C ) :   1.1939 B(  1-C ,  2-C ) :   1.5894
B(  1-C , 32-H ) :   0.9587 B(  2-C ,  3-C ) :   1.2636 B(  2-C ,  6-C ) :   1.0074
B(  3-C ,  4-C ) :   1.5271 B(  3-C ,  5-H ) :   0.9968 B(  4-C , 20-C ) :   0.9803
B(  6-C ,  7-H ) :   0.9326 B(  6-C ,  8-H ) :   0.9427 B(  6-C ,  9-C ) :   1.1009
B(  9-C , 10-H ) :   0.9377 B(  9-C , 11-H ) :   0.9353 B(  9-C , 12-C ) :   1.0789
B( 12-C , 13-H ) :   0.9747 B( 12-C , 14-H ) :   0.9775 B( 12-C , 15-H ) :   0.9700
B( 16-S , 17-C ) :   1.1495 B( 16-S , 20-C ) :   1.1708 B( 17-C , 18-C ) :   1.5937
B( 17-C , 20-C ) :   0.1089 B( 17-C , 33-H ) :   0.9788 B( 18-C , 19-C ) :   1.2657
B( 18-C , 21-H ) :   0.9793 B( 19-C , 20-C ) :   1.5767 B( 19-C , 22-C ) :   1.0219
B( 22-C , 23-H ) :   0.9397 B( 22-C , 24-H ) :   0.9345 B( 22-C , 25-C ) :   1.0656
B( 25-C , 26-H ) :   0.9568 B( 25-C , 27-H ) :   0.9501 B( 25-C , 28-C ) :   1.0767
B( 28-C , 29-H ) :   0.9750 B( 28-C , 30-H ) :   0.9710 B( 28-C , 31-H ) :   0.9745

Dispersion correction           -0.013810465
FINAL SINGLE POINT ENERGY     -1339.842342503021

DIPOLE MOMENT
-------------
                                X             Y             Z
Electronic contribution:     -7.67081       8.59954     -27.66523
Nuclear contribution   :      7.82642      -9.00081      28.20212
                        -----------------------------------------
Total Dipole Moment    :      0.15561      -0.40127       0.53689
                        -----------------------------------------
Magnitude (a.u.)       :      0.68810
Magnitude (Debye)      :      1.74901

Rotational constants in cm-1:     0.017649     0.008781     0.006425
Rotational constants in MHz :   529.112703   263.256705   192.615430

                             ****ORCA TERMINATED NORMALLY****
TOTAL RUN TIME: 0 days 0 hours 0 minutes 33 seconds 681 msec
