                         Program Version 4.2.1 -  RELEASE  -
|  1> ! wB97X-D3 SP def2-SVP
|  2> %pal
|  3> nprocs 16
|  4> end
|  5>
|  6> * xyz 0 1
|  7> S 	 -16.4074 	 -0.190377 	 81.4168
|  8> C 	 -15.5933 	 0.416085 	 82.8359
|  9> C 	 -16.505 	 0.364578 	 83.9139
| 10> C 	 -17.8092 	 -0.242109 	 83.611
| 11> C 	 -17.8824 	 -0.528955 	 82.2497
| 12> H 	 -18.4797 	 -0.515141 	 84.4111
| 13> C 	 -16.2285 	 0.745922 	 85.3844
| 14> H 	 -16.5073 	 1.79298 	 85.5506
| 15> H 	 -15.0886 	 0.671956 	 85.5126
| 16> C 	 -16.8634 	 -0.108111 	 86.465
| 17> H 	 -17.9223 	 -0.266847 	 86.4194
| 18> H 	 -16.3761 	 -1.13112 	 86.4765
| 19> C 	 -16.5744 	 0.45254 	 87.9091
| 20> H 	 -17.1183 	 -0.11163 	 88.6155
| 21> H 	 -15.5159 	 0.360485 	 88.0572
| 22> H 	 -16.9032 	 1.55309 	 87.9051
| 23> S 	 -19.3419 	 -0.281333 	 79.9948
| 24> C 	 -20.6808 	 -1.3722 	 79.737
| 25> C 	 -20.8213 	 -2.25789 	 80.7653
| 26> C 	 -19.9511 	 -1.9973 	 81.8303
| 27> C 	 -18.9985 	 -1.04456 	 81.519
| 28> H 	 -21.5974 	 -2.99142 	 80.6538
| 29> C 	 -19.9055 	 -2.86246 	 83.039
| 30> H 	 -18.9322 	 -2.70462 	 83.4688
| 31> H 	 -19.8592 	 -3.97141 	 82.8521
| 32> C 	 -20.9976 	 -2.47386 	 84.1366
| 33> H 	 -21.9859 	 -2.64838 	 83.6274
| 34> H 	 -20.9147 	 -1.41689 	 84.3129
| 35> C 	 -20.8493 	 -3.31629 	 85.4386
| 36> H 	 -21.7584 	 -3.23109 	 85.9688
| 37> H 	 -19.9097 	 -3.02729 	 85.9372
| 38> H 	 -20.7748 	 -4.40692 	 85.1548
| 39> H 	 -14.6119 	 0.864173 	 82.8244
| 40> H 	 -21.3259 	 -1.23102 	 78.9689
| 41> *
| 42>
| 43>                          ****END OF INPUT****

CARTESIAN COORDINATES (ANGSTROEM)
---------------------------------
  S    -16.407400   -0.190377   81.416800
  C    -15.593300    0.416085   82.835900
  C    -16.505000    0.364578   83.913900
  C    -17.809200   -0.242109   83.611000
  C    -17.882400   -0.528955   82.249700
  H    -18.479700   -0.515141   84.411100
  C    -16.228500    0.745922   85.384400
  H    -16.507300    1.792980   85.550600
  H    -15.088600    0.671956   85.512600
  C    -16.863400   -0.108111   86.465000
  H    -17.922300   -0.266847   86.419400
  H    -16.376100   -1.131120   86.476500
  C    -16.574400    0.452540   87.909100
  H    -17.118300   -0.111630   88.615500
  H    -15.515900    0.360485   88.057200
  H    -16.903200    1.553090   87.905100
  S    -19.341900   -0.281333   79.994800
  C    -20.680800   -1.372200   79.737000
  C    -20.821300   -2.257890   80.765300
  C    -19.951100   -1.997300   81.830300
  C    -18.998500   -1.044560   81.519000
  H    -21.597400   -2.991420   80.653800
  C    -19.905500   -2.862460   83.039000
  H    -18.932200   -2.704620   83.468800
  H    -19.859200   -3.971410   82.852100
  C    -20.997600   -2.473860   84.136600
  H    -21.985900   -2.648380   83.627400
  H    -20.914700   -1.416890   84.312900
  C    -20.849300   -3.316290   85.438600
  H    -21.758400   -3.231090   85.968800
  H    -19.909700   -3.027290   85.937200
  H    -20.774800   -4.406920   85.154800
  H    -14.611900    0.864173   82.824400
  H    -21.325900   -1.231020   78.968900

 Total Charge           Charge          ....    0
 Multiplicity           Mult            ....    1
 Number of Electrons    NEL             ....  134
 Basis Dimension        Dim             ....  322

ORBITAL ENERGIES
----------------

  NO   OCC          E(Eh)            E(eV)
   0   2.0000     -88.967087     -2420.9175
   1   2.0000     -88.963692     -2420.8251
   2   2.0000     -10.330038      -281.0946
   3   2.0000     -10.322324      -280.8847
   4   2.0000     -10.316755      -280.7332
   5   2.0000     -10.308793      -280.5165
   6   2.0000     -10.306224      -280.4466
   7   2.0000     -10.299911      -280.2748
   8   2.0000     -10.297807      -280.2176
   9   2.0000     -10.296799      -280.1901
  10   2.0000     -10.293107      -280.0897
  11   2.0000     -10.291958      -280.0584
  12   2.0000     -10.289253      -279.9848
  13   2.0000     -10.288669      -279.9689
  14   2.0000     -10.284593      -279.8580
  15   2.0000     -10.283017      -279.8151
  16   2.0000      -8.082145      -219.9264
  17   2.0000      -8.079041      -219.8419
  18   2.0000      -6.040763      -164.3775
  19   2.0000      -6.037361      -164.2850
  20   2.0000      -6.036435      -164.2598
  21   2.0000      -6.033464      -164.1789
  22   2.0000      -6.032939      -164.1646
  23   2.0000      -6.029963      -164.0836
  24   2.0000      -1.012698       -27.5569
  25   2.0000      -0.984313       -26.7845
  26   2.0000      -0.909795       -24.7568
  27   2.0000      -0.903386       -24.5824
  28   2.0000      -0.874112       -23.7858
  29   2.0000      -0.853216       -23.2172
  30   2.0000      -0.843507       -22.9530
  31   2.0000      -0.815141       -22.1811
  32   2.0000      -0.779078       -21.1998
  33   2.0000      -0.768812       -20.9204
  34   2.0000      -0.710744       -19.3403
  35   2.0000      -0.698842       -19.0164
  36   2.0000      -0.693136       -18.8612
  37   2.0000      -0.664317       -18.0770
  38   2.0000      -0.637888       -17.3578
  39   2.0000      -0.625694       -17.0260
  40   2.0000      -0.601107       -16.3570
  41   2.0000      -0.570080       -15.5127
  42   2.0000      -0.567718       -15.4484
  43   2.0000      -0.559209       -15.2168
  44   2.0000      -0.533534       -14.5182
  45   2.0000      -0.529170       -14.3995
  46   2.0000      -0.515261       -14.0210
  47   2.0000      -0.512414       -13.9435
  48   2.0000      -0.506700       -13.7880
  49   2.0000      -0.498425       -13.5628
  50   2.0000      -0.494626       -13.4595
  51   2.0000      -0.482957       -13.1419
  52   2.0000      -0.469104       -12.7650
  53   2.0000      -0.462849       -12.5948
  54   2.0000      -0.456371       -12.4185
  55   2.0000      -0.450559       -12.2603
  56   2.0000      -0.447279       -12.1711
  57   2.0000      -0.438812       -11.9407
  58   2.0000      -0.432450       -11.7676
  59   2.0000      -0.424264       -11.5448
  60   2.0000      -0.419191       -11.4068
  61   2.0000      -0.417612       -11.3638
  62   2.0000      -0.408654       -11.1200
  63   2.0000      -0.353326        -9.6145
  64   2.0000      -0.332893        -9.0585
  65   2.0000      -0.327390        -8.9087
  66   2.0000      -0.286124        -7.7858
  67   0.0000       0.027244         0.7413
  68   0.0000       0.074198         2.0190
  69   0.0000       0.113333         3.0840
  70   0.0000       0.120049         3.2667
  71   0.0000       0.121764         3.3134

MULLIKEN ATOMIC CHARGES
-----------------------
   0 S :    0.113032
   1 C :   -0.124067
   2 C :   -0.094365
   3 C :    0.024719
   4 C :   -0.129093
   5 H :    0.009217
   6 C :    0.043149
   7 H :    0.042231
   8 H :    0.035471
   9 C :   -0.142664
  10 H :    0.038869
  11 H :    0.041634
  12 C :   -0.040269
  13 H :    0.030864
  14 H :    0.032408
  15 H :    0.040751
  16 S :    0.103806
  17 C :   -0.060655
  18 C :   -0.016408
  19 C :   -0.004058
  20 C :   -0.132982
  21 H :    0.012714
  22 C :    0.013814
  23 H :    0.006260
  24 H :    0.037507
  25 C :   -0.105046
  26 H :    0.032724
  27 H :    0.031641
  28 C :   -0.023933
  29 H :    0.037553
  30 H :    0.042733
  31 H :    0.032398
  32 H :    0.053625
  33 H :    0.016418
Sum of atomic charges:   -0.0000000

LOEWDIN ATOMIC CHARGES
----------------------
   0 S :    0.423323
   1 C :   -0.213667
   2 C :   -0.054643
   3 C :   -0.069412
   4 C :   -0.194468
   5 H :    0.028936
   6 C :   -0.041850
   7 H :    0.031689
   8 H :    0.039215
   9 C :   -0.049415
  10 H :    0.014822
  11 H :    0.031784
  12 C :   -0.056017
  13 H :    0.019238
  14 H :    0.021445
  15 H :    0.032174
  16 S :    0.412001
  17 C :   -0.165902
  18 C :   -0.061692
  19 C :   -0.060453
  20 C :   -0.197815
  21 H :    0.032372
  22 C :   -0.039594
  23 H :    0.022092
  24 H :    0.035386
  25 C :   -0.036925
  26 H :    0.025510
  27 H :    0.017647
  28 C :   -0.065051
  29 H :    0.022685
  30 H :    0.028807
  31 H :    0.031776
  32 H :    0.030344
  33 H :    0.005656

  Mayer bond orders larger than 0.100000
B(  0-S ,  1-C ) :   1.1239 B(  0-S ,  4-C ) :   1.1778 B(  1-C ,  2-C ) :   1.5982
B(  1-C , 32-H ) :   0.9756 B(  2-C ,  3-C ) :   1.2563 B(  2-C ,  6-C ) :   1.0116
B(  3-C ,  4-C ) :   1.5277 B(  3-C ,  5-H ) :   0.9884 B(  4-C , 20-C ) :   1.0479
B(  6-C ,  7-H ) :   0.9352 B(  6-C ,  8-H ) :   0.9490 B(  6-C ,  9-C ) :   1.0698
B(  9-C , 10-H ) :   0.9501 B(  9-C , 11-H ) :   0.9571 B(  9-C , 12-C ) :   1.0801
B( 12-C , 13-H ) :   0.9752 B( 12-C , 14-H ) :   0.9789 B( 12-C , 15-H ) :   0.9758
B( 16-S , 17-C ) :   1.1563 B( 16-S , 20-C ) :   1.1496 B( 17-C , 18-C ) :   1.5977
B( 17-C , 20-C ) :   0.1051 B( 17-C , 33-H ) :   0.9816 B( 18-C , 19-C ) :   1.2351
B( 18-C , 21-H ) :   0.9999 B( 19-C , 20-C ) :   1.5741 B( 19-C , 22-C ) :   1.0519
B( 22-C , 23-H ) :   0.9327 B( 22-C , 24-H ) :   0.9435 B( 22-C , 25-C ) :   1.0382
B( 25-C , 26-H ) :   0.9609 B( 25-C , 27-H ) :   0.9563 B( 25-C , 28-C ) :   1.0745
B( 28-C , 29-H ) :   0.9746 B( 28-C , 30-H ) :   0.9746 B( 28-C , 31-H ) :   0.9728

Dispersion correction           -0.014199251
FINAL SINGLE POINT ENERGY     -1339.875378519383

DIPOLE MOMENT
-------------
                                X             Y             Z
Electronic contribution:      4.23087       6.78815     -32.39746
Nuclear contribution   :     -4.44498      -6.99533      32.97998
                        -----------------------------------------
Total Dipole Moment    :     -0.21411      -0.20718       0.58252
                        -----------------------------------------
Magnitude (a.u.)       :      0.65429
Magnitude (Debye)      :      1.66308

Rotational constants in cm-1:     0.016971     0.009811     0.006567
Rotational constants in MHz :   508.787511   294.128370   196.888277

                             ****ORCA TERMINATED NORMALLY****
TOTAL RUN TIME: 0 days 0 hours 0 minutes 32 seconds 297 msec
