                         Program Version 4.2.1 -  RELEASE  -
|  1> ! wB97X-D3 SP def2-SVP
|  2> %pal
|  3> nprocs 16
|  4> end
|  5>
|  6> * xyz 0 1
|  7> S 	 19.2863 	 -8.40387 	 78.4902
|  8> C 	 18.0217 	 -8.5022 	 77.2683
|  9> C 	 16.7678 	 -8.50476 	 77.909
| 10> C 	 16.8518 	 -8.80496 	 79.3565
| 11> C 	 18.1822 	 -8.9809 	 79.7818
| 12> H 	 16.0283 	 -8.91853 	 80.0648
| 13> C 	 15.438 	 -8.27204 	 77.2179
| 14> H 	 14.6312 	 -8.71605 	 77.7971
| 15> H 	 15.4652 	 -9.02483 	 76.3876
| 16> C 	 15.0988 	 -6.86839 	 76.6627
| 17> H 	 15.0031 	 -6.14151 	 77.4971
| 18> H 	 15.9238 	 -6.42015 	 76.0243
| 19> C 	 13.7228 	 -6.84959 	 75.97
| 20> H 	 13.3612 	 -5.79222 	 75.9794
| 21> H 	 13.7102 	 -7.3975 	 75.0229
| 22> H 	 13.0277 	 -7.34339 	 76.6204
| 23> S 	 19.4542 	 -7.90838 	 81.9226
| 24> C 	 19.5171 	 -8.87344 	 83.4426
| 25> C 	 19.1302 	 -10.15 	 83.2567
| 26> C 	 18.7146 	 -10.3801 	 81.8762
| 27> C 	 18.6833 	 -9.21336 	 81.1306
| 28> H 	 19.0686 	 -10.8578 	 84.0939
| 29> C 	 18.1642 	 -11.749 	 81.5409
| 30> H 	 18.7541 	 -12.4886 	 82.2134
| 31> H 	 18.4062 	 -11.8048 	 80.4326
| 32> C 	 16.6965 	 -12.0425 	 81.853
| 33> H 	 16.1479 	 -11.3978 	 81.2188
| 34> H 	 16.429 	 -11.676 	 82.8717
| 35> C 	 16.2418 	 -13.4927 	 81.5347
| 36> H 	 16.5203 	 -13.7723 	 80.5284
| 37> H 	 15.1406 	 -13.5226 	 81.5246
| 38> H 	 16.5914 	 -14.1456 	 82.3677
| 39> H 	 18.1512 	 -8.52298 	 76.19
| 40> H 	 19.9299 	 -8.45658 	 84.3344
| 41> *
| 42>
| 43>                          ****END OF INPUT****

CARTESIAN COORDINATES (ANGSTROEM)
---------------------------------
  S     19.286300   -8.403870   78.490200
  C     18.021700   -8.502200   77.268300
  C     16.767800   -8.504760   77.909000
  C     16.851800   -8.804960   79.356500
  C     18.182200   -8.980900   79.781800
  H     16.028300   -8.918530   80.064800
  C     15.438000   -8.272040   77.217900
  H     14.631200   -8.716050   77.797100
  H     15.465200   -9.024830   76.387600
  C     15.098800   -6.868390   76.662700
  H     15.003100   -6.141510   77.497100
  H     15.923800   -6.420150   76.024300
  C     13.722800   -6.849590   75.970000
  H     13.361200   -5.792220   75.979400
  H     13.710200   -7.397500   75.022900
  H     13.027700   -7.343390   76.620400
  S     19.454200   -7.908380   81.922600
  C     19.517100   -8.873440   83.442600
  C     19.130200  -10.150000   83.256700
  C     18.714600  -10.380100   81.876200
  C     18.683300   -9.213360   81.130600
  H     19.068600  -10.857800   84.093900
  C     18.164200  -11.749000   81.540900
  H     18.754100  -12.488600   82.213400
  H     18.406200  -11.804800   80.432600
  C     16.696500  -12.042500   81.853000
  H     16.147900  -11.397800   81.218800
  H     16.429000  -11.676000   82.871700
  C     16.241800  -13.492700   81.534700
  H     16.520300  -13.772300   80.528400
  H     15.140600  -13.522600   81.524600
  H     16.591400  -14.145600   82.367700
  H     18.151200   -8.522980   76.190000
  H     19.929900   -8.456580   84.334400

 Total Charge           Charge          ....    0
 Multiplicity           Mult            ....    1
 Number of Electrons    NEL             ....  134
 Basis Dimension        Dim             ....  322

ORBITAL ENERGIES
----------------

  NO   OCC          E(Eh)            E(eV)
   0   2.0000     -88.964582     -2420.8493
   1   2.0000     -88.961982     -2420.7786
   2   2.0000     -10.335415      -281.2409
   3   2.0000     -10.323951      -280.9290
   4   2.0000     -10.320516      -280.8355
   5   2.0000     -10.315384      -280.6959
   6   2.0000     -10.311319      -280.5853
   7   2.0000     -10.306149      -280.4446
   8   2.0000     -10.302599      -280.3480
   9   2.0000     -10.298308      -280.2312
  10   2.0000     -10.296881      -280.1924
  11   2.0000     -10.296492      -280.1818
  12   2.0000     -10.295121      -280.1445
  13   2.0000     -10.284796      -279.8635
  14   2.0000     -10.283736      -279.8347
  15   2.0000     -10.282028      -279.7882
  16   2.0000      -8.078527      -219.8279
  17   2.0000      -8.077206      -219.7919
  18   2.0000      -6.037252      -164.2820
  19   2.0000      -6.035834      -164.2434
  20   2.0000      -6.033270      -164.1736
  21   2.0000      -6.031787      -164.1333
  22   2.0000      -6.028970      -164.0566
  23   2.0000      -6.027656      -164.0209
  24   2.0000      -1.003272       -27.3004
  25   2.0000      -0.976044       -26.5595
  26   2.0000      -0.906888       -24.6777
  27   2.0000      -0.904013       -24.5994
  28   2.0000      -0.871056       -23.7026
  29   2.0000      -0.846458       -23.0333
  30   2.0000      -0.843619       -22.9561
  31   2.0000      -0.816789       -22.2259
  32   2.0000      -0.775970       -21.1152
  33   2.0000      -0.764804       -20.8114
  34   2.0000      -0.704449       -19.1690
  35   2.0000      -0.700631       -19.0651
  36   2.0000      -0.688992       -18.7484
  37   2.0000      -0.663614       -18.0579
  38   2.0000      -0.641462       -17.4551
  39   2.0000      -0.609983       -16.5985
  40   2.0000      -0.588779       -16.0215
  41   2.0000      -0.567804       -15.4507
  42   2.0000      -0.564754       -15.3677
  43   2.0000      -0.555480       -15.1154
  44   2.0000      -0.526278       -14.3207
  45   2.0000      -0.523560       -14.2468
  46   2.0000      -0.518078       -14.0976
  47   2.0000      -0.511731       -13.9249
  48   2.0000      -0.503988       -13.7142
  49   2.0000      -0.501636       -13.6502
  50   2.0000      -0.491855       -13.3841
  51   2.0000      -0.476476       -12.9656
  52   2.0000      -0.468232       -12.7412
  53   2.0000      -0.460985       -12.5440
  54   2.0000      -0.456697       -12.4274
  55   2.0000      -0.448002       -12.1908
  56   2.0000      -0.443160       -12.0590
  57   2.0000      -0.438282       -11.9263
  58   2.0000      -0.437619       -11.9082
  59   2.0000      -0.419166       -11.4061
  60   2.0000      -0.415351       -11.3023
  61   2.0000      -0.412194       -11.2164
  62   2.0000      -0.408878       -11.1261
  63   2.0000      -0.345304        -9.3962
  64   2.0000      -0.325361        -8.8535
  65   2.0000      -0.321133        -8.7385
  66   2.0000      -0.296246        -8.0613
  67   0.0000       0.032065         0.8725
  68   0.0000       0.052950         1.4408
  69   0.0000       0.099026         2.6946
  70   0.0000       0.115315         3.1379
  71   0.0000       0.129402         3.5212

MULLIKEN ATOMIC CHARGES
-----------------------
   0 S :    0.098488
   1 C :   -0.110599
   2 C :   -0.096674
   3 C :    0.052310
   4 C :   -0.172871
   5 H :    0.030162
   6 C :    0.035464
   7 H :    0.012721
   8 H :    0.028596
   9 C :   -0.079302
  10 H :    0.031445
  11 H :    0.042447
  12 C :   -0.042907
  13 H :    0.043804
  14 H :    0.043087
  15 H :    0.016365
  16 S :    0.097452
  17 C :   -0.086133
  18 C :   -0.022494
  19 C :   -0.034890
  20 C :   -0.165858
  21 H :    0.032433
  22 C :    0.012617
  23 H :    0.031704
  24 H :    0.050206
  25 C :   -0.050531
  26 H :   -0.000053
  27 H :    0.024224
  28 C :   -0.038722
  29 H :    0.035507
  30 H :    0.032282
  31 H :    0.045774
  32 H :    0.057267
  33 H :    0.046680
Sum of atomic charges:    0.0000000

LOEWDIN ATOMIC CHARGES
----------------------
   0 S :    0.378275
   1 C :   -0.192165
   2 C :   -0.058891
   3 C :   -0.055559
   4 C :   -0.182784
   5 H :    0.034549
   6 C :   -0.048147
   7 H :    0.027409
   8 H :    0.037546
   9 C :   -0.045116
  10 H :    0.027164
  11 H :    0.030084
  12 C :   -0.067210
  13 H :    0.035458
  14 H :    0.026569
  15 H :    0.020577
  16 S :    0.391575
  17 C :   -0.159129
  18 C :   -0.068105
  19 C :   -0.058575
  20 C :   -0.217641
  21 H :    0.038348
  22 C :   -0.042855
  23 H :    0.036748
  24 H :    0.041092
  25 C :   -0.046015
  26 H :    0.013087
  27 H :    0.025984
  28 C :   -0.062834
  29 H :    0.026466
  30 H :    0.029067
  31 H :    0.030451
  32 H :    0.032613
  33 H :    0.021965

  Mayer bond orders larger than 0.100000
B(  0-S ,  1-C ) :   1.1308 B(  0-S ,  4-C ) :   1.1323 B(  1-C ,  2-C ) :   1.6053
B(  1-C ,  4-C ) :   0.1022 B(  1-C , 32-H ) :   0.9737 B(  2-C ,  3-C ) :   1.2158
B(  2-C ,  6-C ) :   1.0263 B(  3-C ,  4-C ) :   1.5876 B(  3-C ,  5-H ) :   0.9863
B(  4-C , 20-C ) :   1.0323 B(  6-C ,  7-H ) :   0.9426 B(  6-C ,  8-H ) :   0.9379
B(  6-C ,  9-C ) :   1.0511 B(  9-C , 10-H ) :   0.9561 B(  9-C , 11-H ) :   0.9567
B(  9-C , 12-C ) :   1.0758 B( 12-C , 13-H ) :   0.9749 B( 12-C , 14-H ) :   0.9765
B( 12-C , 15-H ) :   0.9718 B( 16-S , 17-C ) :   1.1248 B( 16-S , 20-C ) :   1.1374
B( 17-C , 18-C ) :   1.6595 B( 17-C , 33-H ) :   0.9709 B( 18-C , 19-C ) :   1.1931
B( 18-C , 21-H ) :   0.9861 B( 19-C , 20-C ) :   1.6281 B( 19-C , 22-C ) :   1.0550
B( 22-C , 23-H ) :   0.9339 B( 22-C , 24-H ) :   0.9253 B( 22-C , 25-C ) :   1.0694
B( 25-C , 26-H ) :   0.9458 B( 25-C , 27-H ) :   0.9535 B( 25-C , 28-C ) :   1.0808
B( 28-C , 29-H ) :   0.9732 B( 28-C , 30-H ) :   0.9742 B( 28-C , 31-H ) :   0.9769

Dispersion correction           -0.013683489
FINAL SINGLE POINT ENERGY     -1339.861766317441

DIPOLE MOMENT
-------------
                                X             Y             Z
Electronic contribution:     24.21241      10.58413       7.64905
Nuclear contribution   :    -24.89267     -10.82360      -7.62017
                        -----------------------------------------
Total Dipole Moment    :     -0.68025      -0.23946       0.02888
                        -----------------------------------------
Magnitude (a.u.)       :      0.72175
Magnitude (Debye)      :      1.83454

Rotational constants in cm-1:     0.018281     0.007705     0.006215
Rotational constants in MHz :   548.035610   230.990232   186.308759

                             ****ORCA TERMINATED NORMALLY****
TOTAL RUN TIME: 0 days 0 hours 0 minutes 28 seconds 882 msec
