                         Program Version 4.2.1 -  RELEASE  -
|  1> ! wB97X-D3 SP def2-SVP
|  2> %pal
|  3> nprocs 16
|  4> end
|  5>
|  6> * xyz 0 1
|  7> S 	 -94.1848 	 41.3547 	 121.367
|  8> C 	 -93.0761 	 40.2452 	 120.558
|  9> C 	 -93.6646 	 39.0368 	 120.286
| 10> C 	 -95.0179 	 39.0368 	 120.719
| 11> C 	 -95.5146 	 40.1822 	 121.338
| 12> H 	 -95.6188 	 38.1595 	 120.633
| 13> C 	 -93.0044 	 37.9156 	 119.541
| 14> H 	 -93.6534 	 37.4645 	 118.838
| 15> H 	 -92.629 	 37.203 	 120.368
| 16> C 	 -91.7174 	 38.2565 	 118.719
| 17> H 	 -91.9344 	 39.0884 	 118.059
| 18> H 	 -91.0189 	 38.6469 	 119.468
| 19> C 	 -90.998 	 37.1697 	 118.014
| 20> H 	 -91.5954 	 36.9383 	 117.144
| 21> H 	 -90.0168 	 37.4103 	 117.604
| 22> H 	 -90.7711 	 36.2814 	 118.659
| 23> S 	 -96.7877 	 40.2199 	 123.743
| 24> C 	 -98.4658 	 40.5688 	 123.856
| 25> C 	 -99.0775 	 40.556 	 122.683
| 26> C 	 -98.1121 	 40.4249 	 121.594
| 27> C 	 -96.8253 	 40.3277 	 122.043
| 28> H 	 -100.127 	 40.6147 	 122.649
| 29> C 	 -98.5149 	 40.2991 	 120.12
| 30> H 	 -99.3571 	 39.5915 	 120.122
| 31> H 	 -97.7842 	 39.8121 	 119.556
| 32> C 	 -98.9459 	 41.6351 	 119.465
| 33> H 	 -98.1924 	 42.4402 	 119.721
| 34> H 	 -99.7812 	 42.0951 	 119.876
| 35> C 	 -99.1291 	 41.5385 	 117.893
| 36> H 	 -99.7032 	 40.7035 	 117.557
| 37> H 	 -98.1354 	 41.5189 	 117.429
| 38> H 	 -99.5134 	 42.5481 	 117.475
| 39> H 	 -91.988 	 40.3518 	 120.526
| 40> H 	 -99.0241 	 40.7595 	 124.788
| 41> *
| 42>
| 43>                          ****END OF INPUT****

CARTESIAN COORDINATES (ANGSTROEM)
---------------------------------
  S    -94.184800   41.354700  121.367000
  C    -93.076100   40.245200  120.558000
  C    -93.664600   39.036800  120.286000
  C    -95.017900   39.036800  120.719000
  C    -95.514600   40.182200  121.338000
  H    -95.618800   38.159500  120.633000
  C    -93.004400   37.915600  119.541000
  H    -93.653400   37.464500  118.838000
  H    -92.629000   37.203000  120.368000
  C    -91.717400   38.256500  118.719000
  H    -91.934400   39.088400  118.059000
  H    -91.018900   38.646900  119.468000
  C    -90.998000   37.169700  118.014000
  H    -91.595400   36.938300  117.144000
  H    -90.016800   37.410300  117.604000
  H    -90.771100   36.281400  118.659000
  S    -96.787700   40.219900  123.743000
  C    -98.465800   40.568800  123.856000
  C    -99.077500   40.556000  122.683000
  C    -98.112100   40.424900  121.594000
  C    -96.825300   40.327700  122.043000
  H    -100.127000   40.614700  122.649000
  C    -98.514900   40.299100  120.120000
  H    -99.357100   39.591500  120.122000
  H    -97.784200   39.812100  119.556000
  C    -98.945900   41.635100  119.465000
  H    -98.192400   42.440200  119.721000
  H    -99.781200   42.095100  119.876000
  C    -99.129100   41.538500  117.893000
  H    -99.703200   40.703500  117.557000
  H    -98.135400   41.518900  117.429000
  H    -99.513400   42.548100  117.475000
  H    -91.988000   40.351800  120.526000
  H    -99.024100   40.759500  124.788000

 Total Charge           Charge          ....    0
 Multiplicity           Mult            ....    1
 Number of Electrons    NEL             ....  134
 Basis Dimension        Dim             ....  322

ORBITAL ENERGIES
----------------

  NO   OCC          E(Eh)            E(eV)
   0   2.0000     -88.965768     -2420.8816
   1   2.0000     -88.959465     -2420.7101
   2   2.0000     -10.334847      -281.2255
   3   2.0000     -10.323115      -280.9062
   4   2.0000     -10.314009      -280.6584
   5   2.0000     -10.309672      -280.5404
   6   2.0000     -10.303943      -280.3845
   7   2.0000     -10.299432      -280.2618
   8   2.0000     -10.299314      -280.2586
   9   2.0000     -10.292811      -280.0816
  10   2.0000     -10.288124      -279.9541
  11   2.0000     -10.286730      -279.9162
  12   2.0000     -10.286509      -279.9101
  13   2.0000     -10.285249      -279.8758
  14   2.0000     -10.283359      -279.8244
  15   2.0000     -10.281239      -279.7667
  16   2.0000      -8.079672      -219.8591
  17   2.0000      -8.076186      -219.7642
  18   2.0000      -6.038304      -164.3106
  19   2.0000      -6.034634      -164.2107
  20   2.0000      -6.034155      -164.1977
  21   2.0000      -6.030546      -164.0995
  22   2.0000      -6.030488      -164.0979
  23   2.0000      -6.026740      -163.9959
  24   2.0000      -1.011931       -27.5360
  25   2.0000      -0.987703       -26.8768
  26   2.0000      -0.914537       -24.8858
  27   2.0000      -0.899969       -24.4894
  28   2.0000      -0.873381       -23.7659
  29   2.0000      -0.851426       -23.1685
  30   2.0000      -0.842611       -22.9286
  31   2.0000      -0.819023       -22.2867
  32   2.0000      -0.782739       -21.2994
  33   2.0000      -0.770061       -20.9544
  34   2.0000      -0.709228       -19.2991
  35   2.0000      -0.703521       -19.1438
  36   2.0000      -0.691501       -18.8167
  37   2.0000      -0.659514       -17.9463
  38   2.0000      -0.635777       -17.3004
  39   2.0000      -0.616701       -16.7813
  40   2.0000      -0.596537       -16.2326
  41   2.0000      -0.585221       -15.9247
  42   2.0000      -0.573171       -15.5968
  43   2.0000      -0.551264       -15.0007
  44   2.0000      -0.528740       -14.3877
  45   2.0000      -0.522390       -14.2150
  46   2.0000      -0.516174       -14.0458
  47   2.0000      -0.513052       -13.9609
  48   2.0000      -0.503182       -13.6923
  49   2.0000      -0.499703       -13.5976
  50   2.0000      -0.492694       -13.4069
  51   2.0000      -0.481845       -13.1117
  52   2.0000      -0.471532       -12.8311
  53   2.0000      -0.465146       -12.6573
  54   2.0000      -0.461115       -12.5476
  55   2.0000      -0.453026       -12.3275
  56   2.0000      -0.446199       -12.1417
  57   2.0000      -0.438152       -11.9227
  58   2.0000      -0.429950       -11.6995
  59   2.0000      -0.422990       -11.5101
  60   2.0000      -0.419903       -11.4261
  61   2.0000      -0.408780       -11.1235
  62   2.0000      -0.405820       -11.0429
  63   2.0000      -0.340014        -9.2522
  64   2.0000      -0.327286        -8.9059
  65   2.0000      -0.324216        -8.8224
  66   2.0000      -0.310762        -8.4563
  67   0.0000       0.039752         1.0817
  68   0.0000       0.068614         1.8671
  69   0.0000       0.116521         3.1707
  70   0.0000       0.127056         3.4574
  71   0.0000       0.128965         3.5093

MULLIKEN ATOMIC CHARGES
-----------------------
   0 S :    0.112086
   1 C :   -0.129848
   2 C :   -0.092742
   3 C :    0.051503
   4 C :   -0.156410
   5 H :   -0.001858
   6 C :    0.065463
   7 H :    0.027802
   8 H :    0.053501
   9 C :   -0.118022
  10 H :    0.033817
  11 H :    0.019934
  12 C :   -0.023823
  13 H :    0.027185
  14 H :    0.031012
  15 H :    0.035377
  16 S :    0.116616
  17 C :   -0.089393
  18 C :   -0.010828
  19 C :   -0.055210
  20 C :   -0.171639
  21 H :    0.001042
  22 C :    0.122444
  23 H :    0.022225
  24 H :    0.000998
  25 C :   -0.071206
  26 H :    0.032274
  27 H :    0.009295
  28 C :   -0.074576
  29 H :    0.038743
  30 H :    0.036716
  31 H :    0.040449
  32 H :    0.056892
  33 H :    0.060181
Sum of atomic charges:    0.0000000

LOEWDIN ATOMIC CHARGES
----------------------
   0 S :    0.394469
   1 C :   -0.195748
   2 C :   -0.072160
   3 C :   -0.055704
   4 C :   -0.194109
   5 H :    0.024822
   6 C :   -0.028465
   7 H :    0.024113
   8 H :    0.048155
   9 C :   -0.049540
  10 H :    0.023789
  11 H :    0.018873
  12 C :   -0.067111
  13 H :    0.024358
  14 H :    0.030074
  15 H :    0.031579
  16 S :    0.429683
  17 C :   -0.189475
  18 C :   -0.070837
  19 C :   -0.048358
  20 C :   -0.216865
  21 H :    0.026866
  22 C :   -0.024179
  23 H :    0.033015
  24 H :    0.019787
  25 C :   -0.039705
  26 H :    0.032624
  27 H :    0.010362
  28 C :   -0.072486
  29 H :    0.019232
  30 H :    0.026768
  31 H :    0.036369
  32 H :    0.032810
  33 H :    0.036994

  Mayer bond orders larger than 0.100000
B(  0-S ,  1-C ) :   1.1425 B(  0-S ,  4-C ) :   1.1438 B(  1-C ,  2-C ) :   1.6200
B(  1-C , 32-H ) :   0.9531 B(  2-C ,  3-C ) :   1.2666 B(  2-C ,  6-C ) :   1.0146
B(  3-C ,  4-C ) :   1.5762 B(  3-C ,  5-H ) :   0.9967 B(  4-C , 20-C ) :   0.9991
B(  6-C ,  7-H ) :   0.9521 B(  6-C ,  8-H ) :   0.9237 B(  6-C ,  9-C ) :   1.0795
B(  9-C , 10-H ) :   0.9555 B(  9-C , 11-H ) :   0.9444 B(  9-C , 12-C ) :   1.0974
B( 12-C , 13-H ) :   0.9720 B( 12-C , 14-H ) :   0.9687 B( 12-C , 15-H ) :   0.9699
B( 16-S , 17-C ) :   1.1505 B( 16-S , 20-C ) :   1.1503 B( 17-C , 18-C ) :   1.6519
B( 17-C , 33-H ) :   0.9597 B( 18-C , 19-C ) :   1.2002 B( 18-C , 21-H ) :   1.0037
B( 19-C , 20-C ) :   1.6431 B( 19-C , 22-C ) :   1.0466 B( 22-C , 23-H ) :   0.9307
B( 22-C , 24-H ) :   0.9356 B( 22-C , 25-C ) :   1.0476 B( 25-C , 26-H ) :   0.9568
B( 25-C , 27-H ) :   0.9610 B( 25-C , 28-C ) :   1.0722 B( 28-C , 29-H ) :   0.9779
B( 28-C , 30-H ) :   0.9778 B( 28-C , 31-H ) :   0.9752

Dispersion correction           -0.013415342
FINAL SINGLE POINT ENERGY     -1339.867911426305

DIPOLE MOMENT
-------------
                                X             Y             Z
Electronic contribution:     -2.50989       8.03415      24.61815
Nuclear contribution   :      2.42236      -8.45985     -24.96369
                        -----------------------------------------
Total Dipole Moment    :     -0.08753      -0.42570      -0.34555
                        -----------------------------------------
Magnitude (a.u.)       :      0.55523
Magnitude (Debye)      :      1.41129

Rotational constants in cm-1:     0.019559     0.007253     0.006027
Rotational constants in MHz :   586.363932   217.436861   180.670011

                             ****ORCA TERMINATED NORMALLY****
TOTAL RUN TIME: 0 days 0 hours 0 minutes 33 seconds 161 msec
