                         Program Version 4.2.1 -  RELEASE  -
|  1> ! wB97X-D3 SP def2-SVP
|  2> %pal
|  3> nprocs 16
|  4> end
|  5>
|  6> * xyz 0 1
|  7> S 	 -13.0776 	 38.1093 	 35.7256
|  8> C 	 -14.7586 	 37.9994 	 36.1994
|  9> C 	 -15.5814 	 38.6328 	 35.3244
| 10> C 	 -14.8649 	 39.2585 	 34.2995
| 11> C 	 -13.4938 	 39.15 	 34.4062
| 12> H 	 -15.3439 	 39.773 	 33.4945
| 13> C 	 -17.1034 	 38.5732 	 35.5285
| 14> H 	 -17.2741 	 39.194 	 36.4186
| 15> H 	 -17.4201 	 37.5549 	 35.8532
| 16> C 	 -18.0768 	 39.086 	 34.4176
| 17> H 	 -19.0855 	 39.0604 	 34.8188
| 18> H 	 -17.8612 	 40.1155 	 33.9759
| 19> C 	 -17.8716 	 38.2956 	 33.0937
| 20> H 	 -18.2114 	 38.6005 	 32.1423
| 21> H 	 -16.7731 	 38.0455 	 32.8963
| 22> H 	 -18.4063 	 37.4114 	 33.2948
| 23> S 	 -11.2759 	 38.2746 	 32.8917
| 24> C 	 -10.6876 	 39.3411 	 31.5917
| 25> C 	 -11.3691 	 40.5522 	 31.6027
| 26> C 	 -12.3396 	 40.7093 	 32.6524
| 27> C 	 -12.4303 	 39.5671 	 33.4583
| 28> H 	 -11.1349 	 41.307 	 30.8333
| 29> C 	 -13.2232 	 41.9318 	 32.8103
| 30> H 	 -12.55 	 42.802 	 32.8337
| 31> H 	 -13.6246 	 41.9242 	 33.8281
| 32> C 	 -14.3997 	 42.3041 	 31.8904
| 33> H 	 -14.9544 	 43.2141 	 32.221
| 34> H 	 -15.0931 	 41.4594 	 31.8851
| 35> C 	 -13.8426 	 42.6045 	 30.5259
| 36> H 	 -14.6932 	 42.7653 	 29.8923
| 37> H 	 -13.2461 	 41.8135 	 30.1156
| 38> H 	 -13.3049 	 43.5007 	 30.6464
| 39> H 	 -15.0834 	 37.3479 	 36.9104
| 40> H 	 -9.95151 	 39.0843 	 30.8957
| 41> *
| 42>
| 43>                          ****END OF INPUT****

CARTESIAN COORDINATES (ANGSTROEM)
---------------------------------
  S    -13.077600   38.109300   35.725600
  C    -14.758600   37.999400   36.199400
  C    -15.581400   38.632800   35.324400
  C    -14.864900   39.258500   34.299500
  C    -13.493800   39.150000   34.406200
  H    -15.343900   39.773000   33.494500
  C    -17.103400   38.573200   35.528500
  H    -17.274100   39.194000   36.418600
  H    -17.420100   37.554900   35.853200
  C    -18.076800   39.086000   34.417600
  H    -19.085500   39.060400   34.818800
  H    -17.861200   40.115500   33.975900
  C    -17.871600   38.295600   33.093700
  H    -18.211400   38.600500   32.142300
  H    -16.773100   38.045500   32.896300
  H    -18.406300   37.411400   33.294800
  S    -11.275900   38.274600   32.891700
  C    -10.687600   39.341100   31.591700
  C    -11.369100   40.552200   31.602700
  C    -12.339600   40.709300   32.652400
  C    -12.430300   39.567100   33.458300
  H    -11.134900   41.307000   30.833300
  C    -13.223200   41.931800   32.810300
  H    -12.550000   42.802000   32.833700
  H    -13.624600   41.924200   33.828100
  C    -14.399700   42.304100   31.890400
  H    -14.954400   43.214100   32.221000
  H    -15.093100   41.459400   31.885100
  C    -13.842600   42.604500   30.525900
  H    -14.693200   42.765300   29.892300
  H    -13.246100   41.813500   30.115600
  H    -13.304900   43.500700   30.646400
  H    -15.083400   37.347900   36.910400
  H     -9.951510   39.084300   30.895700

 Total Charge           Charge          ....    0
 Multiplicity           Mult            ....    1
 Number of Electrons    NEL             ....  134
 Basis Dimension        Dim             ....  322

ORBITAL ENERGIES
----------------

  NO   OCC          E(Eh)            E(eV)
   0   2.0000     -88.967035     -2420.9161
   1   2.0000     -88.965621     -2420.8776
   2   2.0000     -10.336307      -281.2652
   3   2.0000     -10.330990      -281.1205
   4   2.0000     -10.320667      -280.8396
   5   2.0000     -10.310556      -280.5645
   6   2.0000     -10.303598      -280.3751
   7   2.0000     -10.302569      -280.3472
   8   2.0000     -10.299949      -280.2759
   9   2.0000     -10.299842      -280.2730
  10   2.0000     -10.298971      -280.2492
  11   2.0000     -10.292165      -280.0641
  12   2.0000     -10.290273      -280.0126
  13   2.0000     -10.289690      -279.9967
  14   2.0000     -10.273382      -279.5529
  15   2.0000     -10.267262      -279.3864
  16   2.0000      -8.080829      -219.8905
  17   2.0000      -8.080215      -219.8738
  18   2.0000      -6.039160      -164.3339
  19   2.0000      -6.038885      -164.3264
  20   2.0000      -6.035319      -164.2294
  21   2.0000      -6.035007      -164.2209
  22   2.0000      -6.031711      -164.1312
  23   2.0000      -6.030810      -164.1067
  24   2.0000      -1.007655       -27.4197
  25   2.0000      -0.978841       -26.6356
  26   2.0000      -0.913300       -24.8522
  27   2.0000      -0.907951       -24.7066
  28   2.0000      -0.868745       -23.6398
  29   2.0000      -0.853229       -23.2175
  30   2.0000      -0.842585       -22.9279
  31   2.0000      -0.818978       -22.2855
  32   2.0000      -0.786438       -21.4001
  33   2.0000      -0.774625       -21.0786
  34   2.0000      -0.712199       -19.3799
  35   2.0000      -0.697440       -18.9783
  36   2.0000      -0.691975       -18.8296
  37   2.0000      -0.659466       -17.9450
  38   2.0000      -0.646095       -17.5811
  39   2.0000      -0.627266       -17.0688
  40   2.0000      -0.595371       -16.2009
  41   2.0000      -0.568259       -15.4631
  42   2.0000      -0.561089       -15.2680
  43   2.0000      -0.553424       -15.0594
  44   2.0000      -0.548781       -14.9331
  45   2.0000      -0.537837       -14.6353
  46   2.0000      -0.517045       -14.0695
  47   2.0000      -0.512894       -13.9566
  48   2.0000      -0.503096       -13.6899
  49   2.0000      -0.495191       -13.4748
  50   2.0000      -0.490288       -13.3414
  51   2.0000      -0.489406       -13.3174
  52   2.0000      -0.480649       -13.0791
  53   2.0000      -0.466822       -12.7029
  54   2.0000      -0.458664       -12.4809
  55   2.0000      -0.448055       -12.1922
  56   2.0000      -0.442046       -12.0287
  57   2.0000      -0.437136       -11.8951
  58   2.0000      -0.434070       -11.8116
  59   2.0000      -0.424145       -11.5416
  60   2.0000      -0.419701       -11.4207
  61   2.0000      -0.414140       -11.2693
  62   2.0000      -0.401411       -10.9229
  63   2.0000      -0.348295        -9.4776
  64   2.0000      -0.334571        -9.1042
  65   2.0000      -0.331197        -9.0123
  66   2.0000      -0.290347        -7.9007
  67   0.0000       0.022949         0.6245
  68   0.0000       0.068040         1.8515
  69   0.0000       0.104339         2.8392
  70   0.0000       0.121274         3.3000
  71   0.0000       0.129524         3.5245

MULLIKEN ATOMIC CHARGES
-----------------------
   0 S :    0.105043
   1 C :   -0.090007
   2 C :   -0.070333
   3 C :    0.035737
   4 C :   -0.147680
   5 H :   -0.018493
   6 C :    0.044294
   7 H :    0.048644
   8 H :    0.037290
   9 C :   -0.082187
  10 H :    0.043032
  11 H :    0.040800
  12 C :   -0.071437
  13 H :    0.025573
  14 H :    0.050838
  15 H :    0.013924
  16 S :    0.084960
  17 C :   -0.070917
  18 C :   -0.047293
  19 C :   -0.035010
  20 C :   -0.116044
  21 H :    0.034967
  22 C :    0.026236
  23 H :    0.021890
  24 H :    0.027251
  25 C :   -0.061023
  26 H :    0.038966
  27 H :    0.027457
  28 C :   -0.019401
  29 H :    0.023267
  30 H :    0.034757
  31 H :    0.016349
  32 H :    0.006773
  33 H :    0.041778
Sum of atomic charges:   -0.0000000

LOEWDIN ATOMIC CHARGES
----------------------
   0 S :    0.416390
   1 C :   -0.179151
   2 C :   -0.060988
   3 C :   -0.063833
   4 C :   -0.194477
   5 H :    0.024560
   6 C :   -0.031052
   7 H :    0.039714
   8 H :    0.035776
   9 C :   -0.045181
  10 H :    0.027751
  11 H :    0.030577
  12 C :   -0.077575
  13 H :    0.017278
  14 H :    0.038219
  15 H :    0.017159
  16 S :    0.362067
  17 C :   -0.163251
  18 C :   -0.073958
  19 C :   -0.054843
  20 C :   -0.172161
  21 H :    0.035565
  22 C :   -0.041424
  23 H :    0.031740
  24 H :    0.032032
  25 C :   -0.034789
  26 H :    0.033237
  27 H :    0.016443
  28 C :   -0.058220
  29 H :    0.023950
  30 H :    0.022404
  31 H :    0.019462
  32 H :    0.006508
  33 H :    0.020072

  Mayer bond orders larger than 0.100000
B(  0-S ,  1-C ) :   1.1451 B(  0-S ,  4-C ) :   1.1702 B(  1-C ,  2-C ) :   1.6062
B(  1-C , 32-H ) :   0.9827 B(  2-C ,  3-C ) :   1.2830 B(  2-C ,  6-C ) :   0.9887
B(  3-C ,  4-C ) :   1.5303 B(  3-C ,  5-H ) :   0.9986 B(  4-C , 20-C ) :   1.0267
B(  6-C ,  7-H ) :   0.9398 B(  6-C ,  8-H ) :   0.9461 B(  6-C ,  9-C ) :   1.0726
B(  9-C , 10-H ) :   0.9600 B(  9-C , 11-H ) :   0.9615 B(  9-C , 12-C ) :   1.0386
B( 12-C , 13-H ) :   0.9810 B( 12-C , 14-H ) :   0.9748 B( 12-C , 15-H ) :   0.9764
B( 16-S , 17-C ) :   1.1369 B( 16-S , 20-C ) :   1.1215 B( 17-C , 18-C ) :   1.6238
B( 17-C , 33-H ) :   0.9743 B( 18-C , 19-C ) :   1.2225 B( 18-C , 21-H ) :   0.9797
B( 19-C , 20-C ) :   1.6134 B( 19-C , 22-C ) :   1.0475 B( 22-C , 23-H ) :   0.9325
B( 22-C , 24-H ) :   0.9292 B( 22-C , 25-C ) :   1.0717 B( 25-C , 26-H ) :   0.9508
B( 25-C , 27-H ) :   0.9502 B( 25-C , 28-C ) :   1.0846 B( 28-C , 29-H ) :   0.9683
B( 28-C , 30-H ) :   0.9722 B( 28-C , 31-H ) :   0.9754

Dispersion correction           -0.014759900
FINAL SINGLE POINT ENERGY     -1339.862538349487

DIPOLE MOMENT
-------------
                                X             Y             Z
Electronic contribution:     23.23268     -13.53951      10.99890
Nuclear contribution   :    -23.85882      13.83494     -11.30624
                        -----------------------------------------
Total Dipole Moment    :     -0.62614       0.29542      -0.30734
                        -----------------------------------------
Magnitude (a.u.)       :      0.75749
Magnitude (Debye)      :      1.92538

Rotational constants in cm-1:     0.016908     0.010106     0.007202
Rotational constants in MHz :   506.886361   302.972204   215.924579

                             ****ORCA TERMINATED NORMALLY****
TOTAL RUN TIME: 0 days 0 hours 0 minutes 35 seconds 345 msec
