                         Program Version 4.2.1 -  RELEASE  -
|  1> ! wB97X-D3 SP def2-SVP
|  2> %pal
|  3> nprocs 16
|  4> end
|  5>
|  6> * xyz 0 1
|  7> S 	 -15.8728 	 -8.0926 	 86.6708
|  8> C 	 -16.1436 	 -8.91246 	 88.1735
|  9> C 	 -15.1288 	 -9.8209 	 88.3908
| 10> C 	 -14.0492 	 -9.60367 	 87.534
| 11> C 	 -14.2475 	 -8.71191 	 86.5181
| 12> H 	 -13.1226 	 -10.1663 	 87.6083
| 13> C 	 -15.0939 	 -10.9493 	 89.3244
| 14> H 	 -14.3549 	 -11.72 	 88.9643
| 15> H 	 -15.9878 	 -11.598 	 89.3611
| 16> C 	 -14.6712 	 -10.5684 	 90.8259
| 17> H 	 -13.7297 	 -10.0444 	 90.7261
| 18> H 	 -15.4016 	 -9.82745 	 91.1343
| 19> C 	 -14.6808 	 -11.7058 	 91.8516
| 20> H 	 -14.371 	 -11.3378 	 92.8472
| 21> H 	 -15.6921 	 -12.1631 	 91.9021
| 22> H 	 -14.0603 	 -12.5266 	 91.5125
| 23> S 	 -13.7391 	 -8.73529 	 83.8171
| 24> C 	 -12.1681 	 -8.30245 	 83.274
| 25> C 	 -11.2961 	 -8.0578 	 84.3471
| 26> C 	 -11.9491 	 -8.12443 	 85.6294
| 27> C 	 -13.2801 	 -8.37753 	 85.5006
| 28> H 	 -10.2575 	 -7.89027 	 84.0814
| 29> C 	 -11.1709 	 -7.92965 	 86.8504
| 30> H 	 -11.8322 	 -8.17082 	 87.663
| 31> H 	 -11.0101 	 -6.92828 	 86.9075
| 32> C 	 -9.82043 	 -8.69226 	 86.9284
| 33> H 	 -9.18452 	 -8.39707 	 87.7799
| 34> H 	 -9.16923 	 -8.47014 	 86.0811
| 35> C 	 -10.0138 	 -10.1723 	 86.9029
| 36> H 	 -9.08915 	 -10.6635 	 86.8002
| 37> H 	 -10.6885 	 -10.4282 	 86.1109
| 38> H 	 -10.4747 	 -10.6302 	 87.7546
| 39> H 	 -16.9673 	 -8.78876 	 88.8712
| 40> H 	 -11.8274 	 -8.4506 	 82.2741
| 41> *
| 42>
| 43>                          ****END OF INPUT****

CARTESIAN COORDINATES (ANGSTROEM)
---------------------------------
  S    -15.872800   -8.092600   86.670800
  C    -16.143600   -8.912460   88.173500
  C    -15.128800   -9.820900   88.390800
  C    -14.049200   -9.603670   87.534000
  C    -14.247500   -8.711910   86.518100
  H    -13.122600  -10.166300   87.608300
  C    -15.093900  -10.949300   89.324400
  H    -14.354900  -11.720000   88.964300
  H    -15.987800  -11.598000   89.361100
  C    -14.671200  -10.568400   90.825900
  H    -13.729700  -10.044400   90.726100
  H    -15.401600   -9.827450   91.134300
  C    -14.680800  -11.705800   91.851600
  H    -14.371000  -11.337800   92.847200
  H    -15.692100  -12.163100   91.902100
  H    -14.060300  -12.526600   91.512500
  S    -13.739100   -8.735290   83.817100
  C    -12.168100   -8.302450   83.274000
  C    -11.296100   -8.057800   84.347100
  C    -11.949100   -8.124430   85.629400
  C    -13.280100   -8.377530   85.500600
  H    -10.257500   -7.890270   84.081400
  C    -11.170900   -7.929650   86.850400
  H    -11.832200   -8.170820   87.663000
  H    -11.010100   -6.928280   86.907500
  C     -9.820430   -8.692260   86.928400
  H     -9.184520   -8.397070   87.779900
  H     -9.169230   -8.470140   86.081100
  C    -10.013800  -10.172300   86.902900
  H     -9.089150  -10.663500   86.800200
  H    -10.688500  -10.428200   86.110900
  H    -10.474700  -10.630200   87.754600
  H    -16.967300   -8.788760   88.871200
  H    -11.827400   -8.450600   82.274100

 Total Charge           Charge          ....    0
 Multiplicity           Mult            ....    1
 Number of Electrons    NEL             ....  134
 Basis Dimension        Dim             ....  322

ORBITAL ENERGIES
----------------

  NO   OCC          E(Eh)            E(eV)
   0   2.0000     -88.967070     -2420.9170
   1   2.0000     -88.963810     -2420.8284
   2   2.0000     -10.324185      -280.9354
   3   2.0000     -10.323881      -280.9271
   4   2.0000     -10.315322      -280.6942
   5   2.0000     -10.313853      -280.6542
   6   2.0000     -10.300638      -280.2946
   7   2.0000     -10.295418      -280.1526
   8   2.0000     -10.294343      -280.1233
   9   2.0000     -10.293991      -280.1137
  10   2.0000     -10.288832      -279.9733
  11   2.0000     -10.288632      -279.9679
  12   2.0000     -10.286282      -279.9040
  13   2.0000     -10.284363      -279.8517
  14   2.0000     -10.278775      -279.6997
  15   2.0000     -10.264984      -279.3244
  16   2.0000      -8.081972      -219.9216
  17   2.0000      -8.078899      -219.8380
  18   2.0000      -6.040485      -164.3699
  19   2.0000      -6.037394      -164.2858
  20   2.0000      -6.036409      -164.2590
  21   2.0000      -6.033414      -164.1776
  22   2.0000      -6.032752      -164.1595
  23   2.0000      -6.029611      -164.0740
  24   2.0000      -1.012794       -27.5595
  25   2.0000      -0.989754       -26.9326
  26   2.0000      -0.919413       -25.0185
  27   2.0000      -0.907703       -24.6998
  28   2.0000      -0.872612       -23.7450
  29   2.0000      -0.857044       -23.3214
  30   2.0000      -0.850554       -23.1448
  31   2.0000      -0.812856       -22.1189
  32   2.0000      -0.788868       -21.4662
  33   2.0000      -0.773117       -21.0376
  34   2.0000      -0.712338       -19.3837
  35   2.0000      -0.704440       -19.1688
  36   2.0000      -0.699110       -19.0237
  37   2.0000      -0.660498       -17.9731
  38   2.0000      -0.641367       -17.4525
  39   2.0000      -0.624137       -16.9836
  40   2.0000      -0.599409       -16.3108
  41   2.0000      -0.570984       -15.5373
  42   2.0000      -0.569164       -15.4877
  43   2.0000      -0.554398       -15.0859
  44   2.0000      -0.540991       -14.7211
  45   2.0000      -0.526995       -14.3403
  46   2.0000      -0.525935       -14.3114
  47   2.0000      -0.510956       -13.9038
  48   2.0000      -0.506564       -13.7843
  49   2.0000      -0.502272       -13.6675
  50   2.0000      -0.496346       -13.5063
  51   2.0000      -0.479853       -13.0575
  52   2.0000      -0.474906       -12.9229
  53   2.0000      -0.460583       -12.5331
  54   2.0000      -0.460483       -12.5304
  55   2.0000      -0.448572       -12.2063
  56   2.0000      -0.445861       -12.1325
  57   2.0000      -0.441634       -12.0175
  58   2.0000      -0.434379       -11.8201
  59   2.0000      -0.429021       -11.6742
  60   2.0000      -0.425950       -11.5907
  61   2.0000      -0.414850       -11.2886
  62   2.0000      -0.412517       -11.2252
  63   2.0000      -0.347825        -9.4648
  64   2.0000      -0.330055        -8.9813
  65   2.0000      -0.328001        -8.9254
  66   2.0000      -0.289979        -7.8907
  67   0.0000       0.033522         0.9122
  68   0.0000       0.063177         1.7191
  69   0.0000       0.108933         2.9642
  70   0.0000       0.118869         3.2346
  71   0.0000       0.132581         3.6077

MULLIKEN ATOMIC CHARGES
-----------------------
   0 S :    0.122310
   1 C :   -0.119029
   2 C :   -0.050778
   3 C :    0.019226
   4 C :   -0.159350
   5 H :   -0.000614
   6 C :    0.000670
   7 H :    0.024493
   8 H :    0.029380
   9 C :   -0.079070
  10 H :    0.025826
  11 H :    0.023094
  12 C :   -0.031727
  13 H :    0.048404
  14 H :    0.031322
  15 H :    0.026667
  16 S :    0.102210
  17 C :   -0.079077
  18 C :   -0.059980
  19 C :   -0.074161
  20 C :   -0.133181
  21 H :    0.021508
  22 C :    0.169845
  23 H :    0.009440
  24 H :    0.012497
  25 C :   -0.087191
  26 H :    0.030184
  27 H :    0.024704
  28 C :   -0.021495
  29 H :    0.020412
  30 H :    0.033390
  31 H :    0.019163
  32 H :    0.050086
  33 H :    0.050824
Sum of atomic charges:    0.0000000

LOEWDIN ATOMIC CHARGES
----------------------
   0 S :    0.420343
   1 C :   -0.196815
   2 C :   -0.074220
   3 C :   -0.062055
   4 C :   -0.203361
   5 H :    0.029595
   6 C :   -0.041208
   7 H :    0.033014
   8 H :    0.030028
   9 C :   -0.038074
  10 H :    0.020686
  11 H :    0.019946
  12 C :   -0.068124
  13 H :    0.032615
  14 H :    0.029418
  15 H :    0.022497
  16 S :    0.403092
  17 C :   -0.187227
  18 C :   -0.071508
  19 C :   -0.051487
  20 C :   -0.189863
  21 H :    0.030912
  22 C :   -0.022518
  23 H :    0.030613
  24 H :    0.025954
  25 C :   -0.034789
  26 H :    0.027682
  27 H :    0.023541
  28 C :   -0.062372
  29 H :    0.021884
  30 H :    0.025669
  31 H :    0.019175
  32 H :    0.032701
  33 H :    0.024258

  Mayer bond orders larger than 0.100000
B(  0-S ,  1-C ) :   1.1518 B(  0-S ,  4-C ) :   1.1501 B(  1-C ,  2-C ) :   1.5710
B(  1-C ,  4-C ) :   0.1025 B(  1-C , 32-H ) :   0.9707 B(  2-C ,  3-C ) :   1.2832
B(  2-C ,  6-C ) :   1.0301 B(  3-C ,  4-C ) :   1.5503 B(  3-C ,  5-H ) :   0.9913
B(  4-C , 20-C ) :   1.0282 B(  6-C ,  7-H ) :   0.9433 B(  6-C ,  8-H ) :   0.9433
B(  6-C ,  9-C ) :   1.0437 B(  9-C , 10-H ) :   0.9580 B(  9-C , 11-H ) :   0.9609
B(  9-C , 12-C ) :   1.0782 B( 12-C , 13-H ) :   0.9731 B( 12-C , 14-H ) :   0.9720
B( 12-C , 15-H ) :   0.9753 B( 16-S , 17-C ) :   1.1646 B( 16-S , 20-C ) :   1.1310
B( 17-C , 18-C ) :   1.6181 B( 17-C , 33-H ) :   0.9683 B( 18-C , 19-C ) :   1.1990
B( 18-C , 21-H ) :   0.9938 B( 19-C , 20-C ) :   1.6191 B( 19-C , 22-C ) :   1.0432
B( 22-C , 23-H ) :   0.9252 B( 22-C , 24-H ) :   0.9126 B( 22-C , 25-C ) :   1.0719
B( 25-C , 26-H ) :   0.9543 B( 25-C , 27-H ) :   0.9522 B( 25-C , 28-C ) :   1.0846
B( 28-C , 29-H ) :   0.9682 B( 28-C , 30-H ) :   0.9708 B( 28-C , 31-H ) :   0.9692

Dispersion correction           -0.014852433
FINAL SINGLE POINT ENERGY     -1339.875311407940

DIPOLE MOMENT
-------------
                                X             Y             Z
Electronic contribution:    -14.63648      13.13041     -23.44342
Nuclear contribution   :     15.17088     -13.49031      23.87889
                        -----------------------------------------
Total Dipole Moment    :      0.53440      -0.35990       0.43548
                        -----------------------------------------
Magnitude (a.u.)       :      0.77765
Magnitude (Debye)      :      1.97664

Rotational constants in cm-1:     0.019226     0.008891     0.006639
Rotational constants in MHz :   576.383227   266.532030   199.046554

                             ****ORCA TERMINATED NORMALLY****
TOTAL RUN TIME: 0 days 0 hours 0 minutes 35 seconds 133 msec
