                         Program Version 4.2.1 -  RELEASE  -
|  1> ! wB97X-D3 SP def2-SVP
|  2> %pal
|  3> nprocs 16
|  4> end
|  5>
|  6> * xyz 0 1
|  7> S 	 -21.9401 	 33.889 	 40.7239
|  8> C 	 -20.5954 	 32.8482 	 40.2125
|  9> C 	 -20.4958 	 31.7058 	 40.9695
| 10> C 	 -21.541 	 31.6382 	 42.0048
| 11> C 	 -22.4042 	 32.7382 	 41.9688
| 12> H 	 -21.5797 	 30.8836 	 42.7978
| 13> C 	 -19.332 	 30.6742 	 40.8317
| 14> H 	 -19.1406 	 30.4075 	 39.7597
| 15> H 	 -19.8423 	 29.873 	 41.3018
| 16> C 	 -18.0672 	 31.0512 	 41.5218
| 17> H 	 -17.4512 	 31.8186 	 41.0292
| 18> H 	 -18.2786 	 31.5743 	 42.4965
| 19> C 	 -17.1094 	 29.8607 	 41.6771
| 20> H 	 -16.8076 	 29.281 	 40.7333
| 21> H 	 -16.1187 	 30.2941 	 42.0584
| 22> H 	 -17.3954 	 29.0528 	 42.3632
| 23> S 	 -24.876 	 33.7338 	 41.7394
| 24> C 	 -26.1165 	 33.4325 	 42.9589
| 25> C 	 -25.5939 	 32.6495 	 43.962
| 26> C 	 -24.2287 	 32.2166 	 43.765
| 27> C 	 -23.6909 	 32.7861 	 42.5639
| 28> H 	 -26.2676 	 32.4211 	 44.8036
| 29> C 	 -23.4732 	 31.5034 	 44.8395
| 30> H 	 -22.9522 	 30.6251 	 44.4851
| 31> H 	 -24.2496 	 31.1385 	 45.5611
| 32> C 	 -22.4646 	 32.4024 	 45.4952
| 33> H 	 -22.9828 	 33.0302 	 46.2496
| 34> H 	 -21.9461 	 33.1307 	 44.8186
| 35> C 	 -21.3497 	 31.6442 	 46.2264
| 36> H 	 -20.7609 	 31.049 	 45.5371
| 37> H 	 -21.8599 	 31.0067 	 46.9287
| 38> H 	 -20.7166 	 32.3119 	 46.7698
| 39> H 	 -19.8932 	 33.2349 	 39.4254
| 40> H 	 -27.1964 	 33.6388 	 42.9816
| 41> *
| 42>
| 43>                          ****END OF INPUT****

CARTESIAN COORDINATES (ANGSTROEM)
---------------------------------
  S    -21.940100   33.889000   40.723900
  C    -20.595400   32.848200   40.212500
  C    -20.495800   31.705800   40.969500
  C    -21.541000   31.638200   42.004800
  C    -22.404200   32.738200   41.968800
  H    -21.579700   30.883600   42.797800
  C    -19.332000   30.674200   40.831700
  H    -19.140600   30.407500   39.759700
  H    -19.842300   29.873000   41.301800
  C    -18.067200   31.051200   41.521800
  H    -17.451200   31.818600   41.029200
  H    -18.278600   31.574300   42.496500
  C    -17.109400   29.860700   41.677100
  H    -16.807600   29.281000   40.733300
  H    -16.118700   30.294100   42.058400
  H    -17.395400   29.052800   42.363200
  S    -24.876000   33.733800   41.739400
  C    -26.116500   33.432500   42.958900
  C    -25.593900   32.649500   43.962000
  C    -24.228700   32.216600   43.765000
  C    -23.690900   32.786100   42.563900
  H    -26.267600   32.421100   44.803600
  C    -23.473200   31.503400   44.839500
  H    -22.952200   30.625100   44.485100
  H    -24.249600   31.138500   45.561100
  C    -22.464600   32.402400   45.495200
  H    -22.982800   33.030200   46.249600
  H    -21.946100   33.130700   44.818600
  C    -21.349700   31.644200   46.226400
  H    -20.760900   31.049000   45.537100
  H    -21.859900   31.006700   46.928700
  H    -20.716600   32.311900   46.769800
  H    -19.893200   33.234900   39.425400
  H    -27.196400   33.638800   42.981600

 Total Charge           Charge          ....    0
 Multiplicity           Mult            ....    1
 Number of Electrons    NEL             ....  134
 Basis Dimension        Dim             ....  322

ORBITAL ENERGIES
----------------

  NO   OCC          E(Eh)            E(eV)
   0   2.0000     -88.967204     -2420.9207
   1   2.0000     -88.967076     -2420.9172
   2   2.0000     -10.333374      -281.1854
   3   2.0000     -10.328845      -281.0622
   4   2.0000     -10.320177      -280.8263
   5   2.0000     -10.315467      -280.6981
   6   2.0000     -10.309066      -280.5239
   7   2.0000     -10.306507      -280.4543
   8   2.0000     -10.304526      -280.4004
   9   2.0000     -10.295588      -280.1572
  10   2.0000     -10.295245      -280.1479
  11   2.0000     -10.293543      -280.1015
  12   2.0000     -10.293136      -280.0905
  13   2.0000     -10.291342      -280.0417
  14   2.0000     -10.284370      -279.8519
  15   2.0000     -10.272468      -279.5281
  16   2.0000      -8.081786      -219.9166
  17   2.0000      -8.081602      -219.9116
  18   2.0000      -6.040484      -164.3699
  19   2.0000      -6.040265      -164.3640
  20   2.0000      -6.036160      -164.2523
  21   2.0000      -6.036114      -164.2510
  22   2.0000      -6.032528      -164.1534
  23   2.0000      -6.032189      -164.1442
  24   2.0000      -1.007418       -27.4132
  25   2.0000      -0.977864       -26.6090
  26   2.0000      -0.916312       -24.9341
  27   2.0000      -0.913407       -24.8551
  28   2.0000      -0.873437       -23.7674
  29   2.0000      -0.851466       -23.1696
  30   2.0000      -0.842388       -22.9226
  31   2.0000      -0.814024       -22.1507
  32   2.0000      -0.780436       -21.2367
  33   2.0000      -0.769236       -20.9320
  34   2.0000      -0.707791       -19.2600
  35   2.0000      -0.702198       -19.1078
  36   2.0000      -0.688175       -18.7262
  37   2.0000      -0.663772       -18.0622
  38   2.0000      -0.633079       -17.2270
  39   2.0000      -0.620891       -16.8953
  40   2.0000      -0.594472       -16.1764
  41   2.0000      -0.567462       -15.4414
  42   2.0000      -0.561231       -15.2719
  43   2.0000      -0.558271       -15.1913
  44   2.0000      -0.529496       -14.4083
  45   2.0000      -0.526065       -14.3149
  46   2.0000      -0.520341       -14.1592
  47   2.0000      -0.509503       -13.8643
  48   2.0000      -0.505565       -13.7571
  49   2.0000      -0.497186       -13.5291
  50   2.0000      -0.494981       -13.4691
  51   2.0000      -0.489507       -13.3202
  52   2.0000      -0.467342       -12.7170
  53   2.0000      -0.466042       -12.6817
  54   2.0000      -0.456602       -12.4248
  55   2.0000      -0.450626       -12.2622
  56   2.0000      -0.444712       -12.1012
  57   2.0000      -0.439717       -11.9653
  58   2.0000      -0.430404       -11.7119
  59   2.0000      -0.424695       -11.5565
  60   2.0000      -0.418187       -11.3794
  61   2.0000      -0.411699       -11.2029
  62   2.0000      -0.405554       -11.0357
  63   2.0000      -0.362104        -9.8534
  64   2.0000      -0.334109        -9.0916
  65   2.0000      -0.327896        -8.9225
  66   2.0000      -0.278253        -7.5716
  67   0.0000       0.014785         0.4023
  68   0.0000       0.079526         2.1640
  69   0.0000       0.102378         2.7858
  70   0.0000       0.117145         3.1877
  71   0.0000       0.130011         3.5378

MULLIKEN ATOMIC CHARGES
-----------------------
   0 S :    0.088044
   1 C :   -0.147845
   2 C :   -0.100684
   3 C :   -0.001248
   4 C :   -0.114784
   5 H :    0.014040
   6 C :    0.093598
   7 H :    0.042413
   8 H :    0.013186
   9 C :   -0.059192
  10 H :    0.029889
  11 H :    0.039148
  12 C :   -0.106188
  13 H :    0.041297
  14 H :    0.040193
  15 H :    0.038971
  16 S :    0.103172
  17 C :   -0.097591
  18 C :   -0.060628
  19 C :   -0.036795
  20 C :   -0.127729
  21 H :    0.027344
  22 C :    0.070655
  23 H :    0.020545
  24 H :    0.029509
  25 C :   -0.114559
  26 H :    0.028388
  27 H :    0.052825
  28 C :   -0.015879
  29 H :    0.024960
  30 H :    0.019401
  31 H :    0.029608
  32 H :    0.072888
  33 H :    0.063051
Sum of atomic charges:   -0.0000000

LOEWDIN ATOMIC CHARGES
----------------------
   0 S :    0.383756
   1 C :   -0.192854
   2 C :   -0.060616
   3 C :   -0.064787
   4 C :   -0.188684
   5 H :    0.029929
   6 C :   -0.030182
   7 H :    0.038994
   8 H :    0.026095
   9 C :   -0.051672
  10 H :    0.028522
  11 H :    0.034049
  12 C :   -0.081337
  13 H :    0.032464
  14 H :    0.033557
  15 H :    0.022035
  16 S :    0.415172
  17 C :   -0.201965
  18 C :   -0.074402
  19 C :   -0.057914
  20 C :   -0.196921
  21 H :    0.035171
  22 C :   -0.038030
  23 H :    0.023111
  24 H :    0.039221
  25 C :   -0.046194
  26 H :    0.027086
  27 H :    0.030819
  28 C :   -0.057611
  29 H :    0.019408
  30 H :    0.020747
  31 H :    0.023806
  32 H :    0.038623
  33 H :    0.040606

  Mayer bond orders larger than 0.100000
B(  0-S ,  1-C ) :   1.1169 B(  0-S ,  4-C ) :   1.1355 B(  1-C ,  2-C ) :   1.6274
B(  1-C , 32-H ) :   0.9655 B(  2-C ,  3-C ) :   1.2408 B(  2-C ,  6-C ) :   1.0030
B(  3-C ,  4-C ) :   1.5482 B(  3-C ,  5-H ) :   0.9817 B(  4-C , 20-C ) :   1.1227
B(  6-C ,  7-H ) :   0.9403 B(  6-C ,  8-H ) :   0.9401 B(  6-C ,  9-C ) :   1.0695
B(  9-C , 10-H ) :   0.9526 B(  9-C , 11-H ) :   0.9518 B(  9-C , 12-C ) :   1.0708
B( 12-C , 13-H ) :   0.9730 B( 12-C , 14-H ) :   0.9753 B( 12-C , 15-H ) :   0.9779
B( 16-S , 17-C ) :   1.1356 B( 16-S , 20-C ) :   1.1527 B( 17-C , 18-C ) :   1.6249
B( 17-C , 33-H ) :   0.9615 B( 18-C , 19-C ) :   1.2702 B( 18-C , 21-H ) :   0.9786
B( 19-C , 20-C ) :   1.5122 B( 19-C , 22-C ) :   1.0616 B( 22-C , 23-H ) :   0.9330
B( 22-C , 24-H ) :   0.9219 B( 22-C , 25-C ) :   1.0502 B( 25-C , 26-H ) :   0.9510
B( 25-C , 27-H ) :   0.9635 B( 25-C , 28-C ) :   1.0810 B( 28-C , 29-H ) :   0.9768
B( 28-C , 30-H ) :   0.9726 B( 28-C , 31-H ) :   0.9724

Dispersion correction           -0.014304108
FINAL SINGLE POINT ENERGY     -1339.875805286043

DIPOLE MOMENT
-------------
                                X             Y             Z
Electronic contribution:    -22.46725      16.59914     -15.08084
Nuclear contribution   :     22.80463     -16.99876      15.45651
                        -----------------------------------------
Total Dipole Moment    :      0.33738      -0.39963       0.37567
                        -----------------------------------------
Magnitude (a.u.)       :      0.64394
Magnitude (Debye)      :      1.63676

Rotational constants in cm-1:     0.019875     0.008760     0.006533
Rotational constants in MHz :   595.839295   262.609039   195.852564

                             ****ORCA TERMINATED NORMALLY****
TOTAL RUN TIME: 0 days 0 hours 0 minutes 32 seconds 11 msec
