                         Program Version 4.2.1 -  RELEASE  -
|  1> ! wB97X-D3 SP def2-SVP
|  2> %pal
|  3> nprocs 16
|  4> end
|  5>
|  6> * xyz 0 1
|  7> S 	 -97.6145 	 50.8824 	 125.37
|  8> C 	 -96.4939 	 51.1146 	 124.068
|  9> C 	 -97.098 	 51.6636 	 122.94
| 10> C 	 -98.5425 	 51.8235 	 123.114
| 11> C 	 -98.927 	 51.511 	 124.39
| 12> H 	 -99.2289 	 52.2539 	 122.346
| 13> C 	 -96.3466 	 52.0993 	 121.654
| 14> H 	 -95.3034 	 52.2177 	 121.881
| 15> H 	 -96.5922 	 53.1727 	 121.458
| 16> C 	 -96.682 	 51.2215 	 120.431
| 17> H 	 -96.2909 	 50.2523 	 120.571
| 18> H 	 -97.7519 	 51.1902 	 120.351
| 19> C 	 -96.2371 	 51.767 	 119.066
| 20> H 	 -95.1172 	 51.6336 	 118.902
| 21> H 	 -96.6619 	 51.2585 	 118.192
| 22> H 	 -96.5377 	 52.8202 	 119.031
| 23> S 	 -100.648 	 53.1442 	 125.738
| 24> C 	 -102.31 	 52.683 	 125.746
| 25> C 	 -102.63 	 51.5737 	 125.037
| 26> C 	 -101.46 	 50.9456 	 124.552
| 27> C 	 -100.307 	 51.6786 	 124.872
| 28> H 	 -103.662 	 51.3961 	 124.749
| 29> C 	 -101.597 	 49.6581 	 123.792
| 30> H 	 -102.359 	 49.1206 	 124.25
| 31> H 	 -100.638 	 49.1714 	 123.963
| 32> C 	 -101.757 	 49.7897 	 122.265
| 33> H 	 -100.873 	 50.2382 	 121.805
| 34> H 	 -102.639 	 50.4091 	 122.048
| 35> C 	 -101.922 	 48.4564 	 121.527
| 36> H 	 -102.822 	 47.9183 	 121.804
| 37> H 	 -101.11 	 47.7992 	 121.738
| 38> H 	 -102.023 	 48.4885 	 120.467
| 39> H 	 -95.4687 	 50.8191 	 123.964
| 40> H 	 -103.071 	 53.3603 	 125.892
| 41> *
| 42>
| 43>                          ****END OF INPUT****

CARTESIAN COORDINATES (ANGSTROEM)
---------------------------------
  S    -97.614500   50.882400  125.370000
  C    -96.493900   51.114600  124.068000
  C    -97.098000   51.663600  122.940000
  C    -98.542500   51.823500  123.114000
  C    -98.927000   51.511000  124.390000
  H    -99.228900   52.253900  122.346000
  C    -96.346600   52.099300  121.654000
  H    -95.303400   52.217700  121.881000
  H    -96.592200   53.172700  121.458000
  C    -96.682000   51.221500  120.431000
  H    -96.290900   50.252300  120.571000
  H    -97.751900   51.190200  120.351000
  C    -96.237100   51.767000  119.066000
  H    -95.117200   51.633600  118.902000
  H    -96.661900   51.258500  118.192000
  H    -96.537700   52.820200  119.031000
  S    -100.648000   53.144200  125.738000
  C    -102.310000   52.683000  125.746000
  C    -102.630000   51.573700  125.037000
  C    -101.460000   50.945600  124.552000
  C    -100.307000   51.678600  124.872000
  H    -103.662000   51.396100  124.749000
  C    -101.597000   49.658100  123.792000
  H    -102.359000   49.120600  124.250000
  H    -100.638000   49.171400  123.963000
  C    -101.757000   49.789700  122.265000
  H    -100.873000   50.238200  121.805000
  H    -102.639000   50.409100  122.048000
  C    -101.922000   48.456400  121.527000
  H    -102.822000   47.918300  121.804000
  H    -101.110000   47.799200  121.738000
  H    -102.023000   48.488500  120.467000
  H    -95.468700   50.819100  123.964000
  H    -103.071000   53.360300  125.892000

 Total Charge           Charge          ....    0
 Multiplicity           Mult            ....    1
 Number of Electrons    NEL             ....  134
 Basis Dimension        Dim             ....  322

ORBITAL ENERGIES
----------------

  NO   OCC          E(Eh)            E(eV)
   0   2.0000     -88.969137     -2420.9733
   1   2.0000     -88.966875     -2420.9117
   2   2.0000     -10.327615      -281.0287
   3   2.0000     -10.323304      -280.9114
   4   2.0000     -10.312341      -280.6131
   5   2.0000     -10.304618      -280.4029
   6   2.0000     -10.301926      -280.3297
   7   2.0000     -10.300208      -280.2829
   8   2.0000     -10.299115      -280.2532
   9   2.0000     -10.297157      -280.1999
  10   2.0000     -10.287918      -279.9485
  11   2.0000     -10.286414      -279.9076
  12   2.0000     -10.284652      -279.8596
  13   2.0000     -10.284212      -279.8476
  14   2.0000     -10.283251      -279.8215
  15   2.0000     -10.269848      -279.4568
  16   2.0000      -8.083716      -219.9691
  17   2.0000      -8.082334      -219.9315
  18   2.0000      -6.042295      -164.4192
  19   2.0000      -6.040611      -164.3734
  20   2.0000      -6.038257      -164.3093
  21   2.0000      -6.036929      -164.2732
  22   2.0000      -6.034400      -164.2044
  23   2.0000      -6.033115      -164.1694
  24   2.0000      -1.008360       -27.4389
  25   2.0000      -0.985651       -26.8209
  26   2.0000      -0.910177       -24.7672
  27   2.0000      -0.907912       -24.7055
  28   2.0000      -0.870573       -23.6895
  29   2.0000      -0.854638       -23.2559
  30   2.0000      -0.846447       -23.0330
  31   2.0000      -0.816757       -22.2251
  32   2.0000      -0.783483       -21.3197
  33   2.0000      -0.770049       -20.9541
  34   2.0000      -0.708703       -19.2848
  35   2.0000      -0.700893       -19.0723
  36   2.0000      -0.692823       -18.8527
  37   2.0000      -0.661617       -18.0035
  38   2.0000      -0.639008       -17.3883
  39   2.0000      -0.617730       -16.8093
  40   2.0000      -0.594894       -16.1879
  41   2.0000      -0.571982       -15.5644
  42   2.0000      -0.569359       -15.4930
  43   2.0000      -0.561306       -15.2739
  44   2.0000      -0.525445       -14.2981
  45   2.0000      -0.521004       -14.1772
  46   2.0000      -0.516067       -14.0429
  47   2.0000      -0.509604       -13.8670
  48   2.0000      -0.505604       -13.7582
  49   2.0000      -0.497958       -13.5501
  50   2.0000      -0.489764       -13.3271
  51   2.0000      -0.477368       -12.9899
  52   2.0000      -0.475724       -12.9451
  53   2.0000      -0.463544       -12.6137
  54   2.0000      -0.459467       -12.5027
  55   2.0000      -0.454428       -12.3656
  56   2.0000      -0.445937       -12.1346
  57   2.0000      -0.436025       -11.8648
  58   2.0000      -0.433084       -11.7848
  59   2.0000      -0.425214       -11.5707
  60   2.0000      -0.423600       -11.5267
  61   2.0000      -0.419871       -11.4253
  62   2.0000      -0.417913       -11.3720
  63   2.0000      -0.341632        -9.2963
  64   2.0000      -0.330037        -8.9808
  65   2.0000      -0.322843        -8.7850
  66   2.0000      -0.305467        -8.3122
  67   0.0000       0.047593         1.2951
  68   0.0000       0.055900         1.5211
  69   0.0000       0.118585         3.2269
  70   0.0000       0.120310         3.2738
  71   0.0000       0.121170         3.2972

MULLIKEN ATOMIC CHARGES
-----------------------
   0 S :    0.130066
   1 C :   -0.098971
   2 C :   -0.120504
   3 C :    0.039683
   4 C :   -0.182732
   5 H :    0.040274
   6 C :    0.057444
   7 H :    0.011036
   8 H :    0.028765
   9 C :   -0.040230
  10 H :    0.024260
  11 H :    0.023502
  12 C :   -0.073570
  13 H :    0.038411
  14 H :    0.037879
  15 H :    0.032000
  16 S :    0.124810
  17 C :   -0.043514
  18 C :   -0.063387
  19 C :   -0.031837
  20 C :   -0.192284
  21 H :    0.027024
  22 C :    0.118236
  23 H :    0.009604
  24 H :    0.022235
  25 C :   -0.070811
  26 H :    0.029774
  27 H :    0.023938
  28 C :   -0.024504
  29 H :    0.015055
  30 H :    0.021142
  31 H :    0.024328
  32 H :    0.037784
  33 H :    0.025095
Sum of atomic charges:    0.0000000

LOEWDIN ATOMIC CHARGES
----------------------
   0 S :    0.411847
   1 C :   -0.207624
   2 C :   -0.059692
   3 C :   -0.061409
   4 C :   -0.204006
   5 H :    0.040734
   6 C :   -0.033054
   7 H :    0.023881
   8 H :    0.034611
   9 C :   -0.036468
  10 H :    0.019781
  11 H :    0.022988
  12 C :   -0.071823
  13 H :    0.029471
  14 H :    0.027100
  15 H :    0.024441
  16 S :    0.428704
  17 C :   -0.183824
  18 C :   -0.069775
  19 C :   -0.047126
  20 C :   -0.210949
  21 H :    0.036020
  22 C :   -0.024149
  23 H :    0.022427
  24 H :    0.034941
  25 C :   -0.034172
  26 H :    0.025802
  27 H :    0.021707
  28 C :   -0.065935
  29 H :    0.021702
  30 H :    0.021403
  31 H :    0.023199
  32 H :    0.028424
  33 H :    0.010823

  Mayer bond orders larger than 0.100000
B(  0-S ,  1-C ) :   1.1280 B(  0-S ,  4-C ) :   1.1438 B(  1-C ,  2-C ) :   1.6494
B(  1-C , 32-H ) :   0.9630 B(  2-C ,  3-C ) :   1.2132 B(  2-C ,  6-C ) :   1.0238
B(  3-C ,  4-C ) :   1.6166 B(  3-C ,  5-H ) :   0.9806 B(  4-C , 20-C ) :   0.9985
B(  6-C ,  7-H ) :   0.9430 B(  6-C ,  8-H ) :   0.9404 B(  6-C ,  9-C ) :   1.0507
B(  9-C , 10-H ) :   0.9566 B(  9-C , 11-H ) :   0.9588 B(  9-C , 12-C ) :   1.0815
B( 12-C , 13-H ) :   0.9763 B( 12-C , 14-H ) :   0.9754 B( 12-C , 15-H ) :   0.9741
B( 16-S , 17-C ) :   1.1616 B( 16-S , 20-C ) :   1.1615 B( 17-C , 18-C ) :   1.6403
B( 17-C , 33-H ) :   0.9608 B( 18-C , 19-C ) :   1.2429 B( 18-C , 21-H ) :   0.9846
B( 19-C , 20-C ) :   1.6025 B( 19-C , 22-C ) :   1.0437 B( 22-C , 23-H ) :   0.9365
B( 22-C , 24-H ) :   0.9191 B( 22-C , 25-C ) :   1.0714 B( 25-C , 26-H ) :   0.9518
B( 25-C , 27-H ) :   0.9576 B( 25-C , 28-C ) :   1.0869 B( 28-C , 29-H ) :   0.9723
B( 28-C , 30-H ) :   0.9731 B( 28-C , 31-H ) :   0.9735

Dispersion correction           -0.014295785
FINAL SINGLE POINT ENERGY     -1339.875905040675

DIPOLE MOMENT
-------------
                                X             Y             Z
Electronic contribution:     -0.46688       9.86891      29.47629
Nuclear contribution   :      0.31367      -9.92755     -30.24765
                        -----------------------------------------
Total Dipole Moment    :     -0.15320      -0.05864      -0.77136
                        -----------------------------------------
Magnitude (a.u.)       :      0.78861
Magnitude (Debye)      :      2.00449

Rotational constants in cm-1:     0.016510     0.008950     0.006942
Rotational constants in MHz :   494.951921   268.327479   208.129043

                             ****ORCA TERMINATED NORMALLY****
TOTAL RUN TIME: 0 days 0 hours 0 minutes 35 seconds 711 msec
