                         Program Version 4.2.1 -  RELEASE  -
|  1> ! wB97X-D3 SP def2-SVP
|  2> %pal
|  3> nprocs 16
|  4> end
|  5>
|  6> * xyz 0 1
|  7> S 	 -19.3948 	 -4.05234 	 85.1453
|  8> C 	 -19.9311 	 -5.28055 	 83.9955
|  9> C 	 -19.87 	 -6.52728 	 84.6257
| 10> C 	 -19.3902 	 -6.43631 	 86.0009
| 11> C 	 -19.1099 	 -5.14833 	 86.3541
| 12> H 	 -19.2934 	 -7.22936 	 86.7299
| 13> C 	 -20.1205 	 -7.87721 	 83.9118
| 14> H 	 -19.7394 	 -8.77661 	 84.5247
| 15> H 	 -19.4917 	 -7.9007 	 83.0318
| 16> C 	 -21.5363 	 -8.12369 	 83.6104
| 17> H 	 -21.9279 	 -7.35943 	 82.9856
| 18> H 	 -21.6968 	 -9.06941 	 83.1396
| 19> C 	 -22.4886 	 -8.15865 	 84.8749
| 20> H 	 -22.3455 	 -9.05776 	 85.4654
| 21> H 	 -22.3931 	 -7.38977 	 85.5926
| 22> H 	 -23.52 	 -8.18009 	 84.5309
| 23> S 	 -19.3843 	 -5.12157 	 89.0876
| 24> C 	 -18.2772 	 -4.12655 	 90.0081
| 25> C 	 -17.2883 	 -3.59473 	 89.1612
| 26> C 	 -17.4184 	 -3.8945 	 87.7815
| 27> C 	 -18.4936 	 -4.79452 	 87.6057
| 28> H 	 -16.5448 	 -2.93449 	 89.5625
| 29> C 	 -16.4102 	 -3.28779 	 86.7911
| 30> H 	 -15.8026 	 -2.68806 	 87.4509
| 31> H 	 -16.9391 	 -2.65019 	 86.08
| 32> C 	 -15.4971 	 -4.33584 	 85.9958
| 33> H 	 -16.1265 	 -5.0744 	 85.4097
| 34> H 	 -14.8265 	 -4.91197 	 86.7726
| 35> C 	 -14.5557 	 -3.66553 	 84.9706
| 36> H 	 -14.0353 	 -2.86898 	 85.4701
| 37> H 	 -15.1494 	 -3.16428 	 84.2029
| 38> H 	 -13.7292 	 -4.28099 	 84.6345
| 39> H 	 -20.2843 	 -5.20196 	 82.9915
| 40> H 	 -18.3374 	 -3.87082 	 91.0403
| 41> *
| 42>
| 43>                          ****END OF INPUT****

CARTESIAN COORDINATES (ANGSTROEM)
---------------------------------
  S    -19.394800   -4.052340   85.145300
  C    -19.931100   -5.280550   83.995500
  C    -19.870000   -6.527280   84.625700
  C    -19.390200   -6.436310   86.000900
  C    -19.109900   -5.148330   86.354100
  H    -19.293400   -7.229360   86.729900
  C    -20.120500   -7.877210   83.911800
  H    -19.739400   -8.776610   84.524700
  H    -19.491700   -7.900700   83.031800
  C    -21.536300   -8.123690   83.610400
  H    -21.927900   -7.359430   82.985600
  H    -21.696800   -9.069410   83.139600
  C    -22.488600   -8.158650   84.874900
  H    -22.345500   -9.057760   85.465400
  H    -22.393100   -7.389770   85.592600
  H    -23.520000   -8.180090   84.530900
  S    -19.384300   -5.121570   89.087600
  C    -18.277200   -4.126550   90.008100
  C    -17.288300   -3.594730   89.161200
  C    -17.418400   -3.894500   87.781500
  C    -18.493600   -4.794520   87.605700
  H    -16.544800   -2.934490   89.562500
  C    -16.410200   -3.287790   86.791100
  H    -15.802600   -2.688060   87.450900
  H    -16.939100   -2.650190   86.080000
  C    -15.497100   -4.335840   85.995800
  H    -16.126500   -5.074400   85.409700
  H    -14.826500   -4.911970   86.772600
  C    -14.555700   -3.665530   84.970600
  H    -14.035300   -2.868980   85.470100
  H    -15.149400   -3.164280   84.202900
  H    -13.729200   -4.280990   84.634500
  H    -20.284300   -5.201960   82.991500
  H    -18.337400   -3.870820   91.040300

 Total Charge           Charge          ....    0
 Multiplicity           Mult            ....    1
 Number of Electrons    NEL             ....  134
 Basis Dimension        Dim             ....  322

ORBITAL ENERGIES
----------------

  NO   OCC          E(Eh)            E(eV)
   0   2.0000     -88.971619     -2421.0408
   1   2.0000     -88.968202     -2420.9479
   2   2.0000     -10.326255      -280.9917
   3   2.0000     -10.317989      -280.7667
   4   2.0000     -10.317424      -280.7514
   5   2.0000     -10.313391      -280.6416
   6   2.0000     -10.305561      -280.4286
   7   2.0000     -10.305111      -280.4163
   8   2.0000     -10.301620      -280.3213
   9   2.0000     -10.300044      -280.2785
  10   2.0000     -10.293818      -280.1090
  11   2.0000     -10.292887      -280.0837
  12   2.0000     -10.289005      -279.9781
  13   2.0000     -10.279458      -279.7183
  14   2.0000     -10.274268      -279.5770
  15   2.0000     -10.269167      -279.4382
  16   2.0000      -8.085698      -220.0230
  17   2.0000      -8.083907      -219.9743
  18   2.0000      -6.044161      -164.4700
  19   2.0000      -6.042459      -164.4237
  20   2.0000      -6.040229      -164.3630
  21   2.0000      -6.038092      -164.3048
  22   2.0000      -6.036625      -164.2649
  23   2.0000      -6.034737      -164.2135
  24   2.0000      -1.013111       -27.5681
  25   2.0000      -0.982819       -26.7439
  26   2.0000      -0.914806       -24.8931
  27   2.0000      -0.898196       -24.4412
  28   2.0000      -0.867616       -23.6090
  29   2.0000      -0.852234       -23.1905
  30   2.0000      -0.841370       -22.8948
  31   2.0000      -0.808952       -22.0127
  32   2.0000      -0.785710       -21.3802
  33   2.0000      -0.773240       -21.0409
  34   2.0000      -0.704046       -19.1581
  35   2.0000      -0.703382       -19.1400
  36   2.0000      -0.685425       -18.6514
  37   2.0000      -0.664326       -18.0772
  38   2.0000      -0.637845       -17.3566
  39   2.0000      -0.608176       -16.5493
  40   2.0000      -0.591200       -16.0874
  41   2.0000      -0.576091       -15.6762
  42   2.0000      -0.560260       -15.2454
  43   2.0000      -0.550148       -14.9703
  44   2.0000      -0.547294       -14.8926
  45   2.0000      -0.520665       -14.1680
  46   2.0000      -0.517089       -14.0707
  47   2.0000      -0.509297       -13.8587
  48   2.0000      -0.504194       -13.7198
  49   2.0000      -0.494250       -13.4492
  50   2.0000      -0.487872       -13.2757
  51   2.0000      -0.482968       -13.1422
  52   2.0000      -0.470419       -12.8007
  53   2.0000      -0.463224       -12.6050
  54   2.0000      -0.459676       -12.5084
  55   2.0000      -0.444187       -12.0869
  56   2.0000      -0.442843       -12.0504
  57   2.0000      -0.438864       -11.9421
  58   2.0000      -0.431065       -11.7299
  59   2.0000      -0.422570       -11.4987
  60   2.0000      -0.417488       -11.3604
  61   2.0000      -0.415513       -11.3067
  62   2.0000      -0.411305       -11.1922
  63   2.0000      -0.344704        -9.3799
  64   2.0000      -0.334000        -9.0886
  65   2.0000      -0.330518        -8.9938
  66   2.0000      -0.290699        -7.9103
  67   0.0000       0.029639         0.8065
  68   0.0000       0.071801         1.9538
  69   0.0000       0.106534         2.8989
  70   0.0000       0.120571         3.2809
  71   0.0000       0.132269         3.5992

MULLIKEN ATOMIC CHARGES
-----------------------
   0 S :    0.123903
   1 C :   -0.118303
   2 C :   -0.095399
   3 C :    0.005611
   4 C :   -0.122163
   5 H :    0.010518
   6 C :    0.059052
   7 H :    0.030741
   8 H :    0.033844
   9 C :   -0.042497
  10 H :    0.017504
  11 H :    0.025426
  12 C :   -0.060146
  13 H :    0.017356
  14 H :    0.031978
  15 H :    0.029628
  16 S :    0.124254
  17 C :   -0.087892
  18 C :   -0.046195
  19 C :   -0.047469
  20 C :   -0.164273
  21 H :    0.012179
  22 C :    0.095295
  23 H :    0.011528
  24 H :    0.036650
  25 C :   -0.130671
  26 H :    0.057331
  27 H :    0.046081
  28 C :   -0.026033
  29 H :    0.008477
  30 H :    0.035252
  31 H :    0.040609
  32 H :    0.037886
  33 H :    0.049937
Sum of atomic charges:   -0.0000000

LOEWDIN ATOMIC CHARGES
----------------------
   0 S :    0.451860
   1 C :   -0.205856
   2 C :   -0.049331
   3 C :   -0.072993
   4 C :   -0.226464
   5 H :    0.029126
   6 C :   -0.036941
   7 H :    0.037315
   8 H :    0.030537
   9 C :   -0.036541
  10 H :    0.016918
  11 H :    0.023519
  12 C :   -0.061943
  13 H :    0.021144
  14 H :    0.018354
  15 H :    0.026516
  16 S :    0.418538
  17 C :   -0.190064
  18 C :   -0.067836
  19 C :   -0.057611
  20 C :   -0.196581
  21 H :    0.025726
  22 C :   -0.027751
  23 H :    0.027683
  24 H :    0.026410
  25 C :   -0.044707
  26 H :    0.030785
  27 H :    0.033786
  28 C :   -0.072027
  29 H :    0.019414
  30 H :    0.026976
  31 H :    0.029128
  32 H :    0.026520
  33 H :    0.026394

  Mayer bond orders larger than 0.100000
B(  0-S ,  1-C ) :   1.1264 B(  0-S ,  4-C ) :   1.1779 B(  1-C ,  2-C ) :   1.6090
B(  1-C , 32-H ) :   0.9736 B(  2-C ,  3-C ) :   1.2385 B(  2-C ,  6-C ) :   1.0024
B(  3-C ,  4-C ) :   1.5414 B(  3-C ,  5-H ) :   1.0026 B(  4-C , 20-C ) :   1.0308
B(  6-C ,  7-H ) :   0.9485 B(  6-C ,  8-H ) :   0.9420 B(  6-C ,  9-C ) :   1.0860
B(  9-C , 10-H ) :   0.9583 B(  9-C , 11-H ) :   0.9536 B(  9-C , 12-C ) :   1.0668
B( 12-C , 13-H ) :   0.9763 B( 12-C , 14-H ) :   0.9783 B( 12-C , 15-H ) :   0.9767
B( 16-S , 17-C ) :   1.1561 B( 16-S , 20-C ) :   1.1624 B( 17-C , 18-C ) :   1.5879
B( 17-C , 20-C ) :   0.1070 B( 17-C , 33-H ) :   0.9707 B( 18-C , 19-C ) :   1.2825
B( 18-C , 21-H ) :   0.9829 B( 19-C , 20-C ) :   1.5389 B( 19-C , 22-C ) :   1.0300
B( 22-C , 23-H ) :   0.9312 B( 22-C , 24-H ) :   0.9312 B( 22-C , 25-C ) :   1.0511
B( 25-C , 26-H ) :   0.9603 B( 25-C , 27-H ) :   0.9568 B( 25-C , 28-C ) :   1.0751
B( 28-C , 29-H ) :   0.9715 B( 28-C , 30-H ) :   0.9744 B( 28-C , 31-H ) :   0.9742

Dispersion correction           -0.014719657
FINAL SINGLE POINT ENERGY     -1339.874404253496

DIPOLE MOMENT
-------------
                                X             Y             Z
Electronic contribution:     -5.48136       8.48928      13.37255
Nuclear contribution   :      5.71562      -8.54036     -13.53575
                        -----------------------------------------
Total Dipole Moment    :      0.23426      -0.05108      -0.16319
                        -----------------------------------------
Magnitude (a.u.)       :      0.29003
Magnitude (Debye)      :      0.73720

Rotational constants in cm-1:     0.019268     0.008992     0.006863
Rotational constants in MHz :   577.653726   269.569606   205.739091

                             ****ORCA TERMINATED NORMALLY****
TOTAL RUN TIME: 0 days 0 hours 0 minutes 33 seconds 554 msec
