                         Program Version 4.2.1 -  RELEASE  -
|  1> ! wB97X-D3 SP def2-SVP
|  2> %pal
|  3> nprocs 16
|  4> end
|  5>
|  6> * xyz 0 1
|  7> S 	 -2.14921 	 -13.482 	 83.832
|  8> C 	 -3.0509 	 -13.2168 	 85.3041
|  9> C 	 -3.60931 	 -11.9765 	 85.4071
| 10> C 	 -3.21064 	 -11.1148 	 84.3653
| 11> C 	 -2.40462 	 -11.7999 	 83.465
| 12> H 	 -3.47352 	 -10.1536 	 84.0943
| 13> C 	 -4.68283 	 -11.6524 	 86.4605
| 14> H 	 -4.29995 	 -11.9228 	 87.4331
| 15> H 	 -5.55457 	 -12.3083 	 86.3275
| 16> C 	 -5.28525 	 -10.2261 	 86.4952
| 17> H 	 -4.44341 	 -9.5555 	 86.6611
| 18> H 	 -5.66714 	 -9.8608 	 85.5285
| 19> C 	 -6.46325 	 -10.1765 	 87.4206
| 20> H 	 -6.14222 	 -10.3187 	 88.471
| 21> H 	 -6.93615 	 -9.1894 	 87.4889
| 22> H 	 -7.31048 	 -10.7814 	 87.0287
| 23> S 	 -2.27722 	 -12.1724 	 80.721
| 24> C 	 -1.56432 	 -10.9974 	 79.7344
| 25> C 	 -1.08713 	 -9.89704 	 80.4683
| 26> C 	 -1.4192 	 -9.97856 	 81.843
| 27> C 	 -2.06841 	 -11.1692 	 82.1678
| 28> H 	 -0.446262 	 -9.26439 	 79.9215
| 29> C 	 -0.915522 	 -9.01184 	 82.8957
| 30> H 	 0.131004 	 -8.73872 	 82.6262
| 31> H 	 -0.837602 	 -9.55988 	 83.8025
| 32> C 	 -1.79477 	 -7.74668 	 83.0414
| 33> H 	 -2.812 	 -8.16679 	 82.9734
| 34> H 	 -1.71457 	 -7.11079 	 82.1744
| 35> C 	 -1.63108 	 -7.04426 	 84.3647
| 36> H 	 -1.60651 	 -7.69738 	 85.2435
| 37> H 	 -2.38904 	 -6.312 	 84.4896
| 38> H 	 -0.725467 	 -6.50593 	 84.4431
| 39> H 	 -3.43937 	 -13.9946 	 85.9718
| 40> H 	 -1.32584 	 -11.0855 	 78.675
| 41> *
| 42>
| 43>                          ****END OF INPUT****

CARTESIAN COORDINATES (ANGSTROEM)
---------------------------------
  S     -2.149210  -13.482000   83.832000
  C     -3.050900  -13.216800   85.304100
  C     -3.609310  -11.976500   85.407100
  C     -3.210640  -11.114800   84.365300
  C     -2.404620  -11.799900   83.465000
  H     -3.473520  -10.153600   84.094300
  C     -4.682830  -11.652400   86.460500
  H     -4.299950  -11.922800   87.433100
  H     -5.554570  -12.308300   86.327500
  C     -5.285250  -10.226100   86.495200
  H     -4.443410   -9.555500   86.661100
  H     -5.667140   -9.860800   85.528500
  C     -6.463250  -10.176500   87.420600
  H     -6.142220  -10.318700   88.471000
  H     -6.936150   -9.189400   87.488900
  H     -7.310480  -10.781400   87.028700
  S     -2.277220  -12.172400   80.721000
  C     -1.564320  -10.997400   79.734400
  C     -1.087130   -9.897040   80.468300
  C     -1.419200   -9.978560   81.843000
  C     -2.068410  -11.169200   82.167800
  H     -0.446262   -9.264390   79.921500
  C     -0.915522   -9.011840   82.895700
  H      0.131004   -8.738720   82.626200
  H     -0.837602   -9.559880   83.802500
  C     -1.794770   -7.746680   83.041400
  H     -2.812000   -8.166790   82.973400
  H     -1.714570   -7.110790   82.174400
  C     -1.631080   -7.044260   84.364700
  H     -1.606510   -7.697380   85.243500
  H     -2.389040   -6.312000   84.489600
  H     -0.725467   -6.505930   84.443100
  H     -3.439370  -13.994600   85.971800
  H     -1.325840  -11.085500   78.675000

 Total Charge           Charge          ....    0
 Multiplicity           Mult            ....    1
 Number of Electrons    NEL             ....  134
 Basis Dimension        Dim             ....  322

ORBITAL ENERGIES
----------------

  NO   OCC          E(Eh)            E(eV)
   0   2.0000     -88.974020     -2421.1062
   1   2.0000     -88.964966     -2420.8598
   2   2.0000     -10.328879      -281.0631
   3   2.0000     -10.325799      -280.9793
   4   2.0000     -10.311938      -280.6021
   5   2.0000     -10.307736      -280.4878
   6   2.0000     -10.301949      -280.3303
   7   2.0000     -10.299799      -280.2718
   8   2.0000     -10.293105      -280.0896
   9   2.0000     -10.289007      -279.9781
  10   2.0000     -10.288169      -279.9553
  11   2.0000     -10.288026      -279.9514
  12   2.0000     -10.286502      -279.9099
  13   2.0000     -10.284795      -279.8635
  14   2.0000     -10.283918      -279.8396
  15   2.0000     -10.270619      -279.4778
  16   2.0000      -8.088471      -220.0985
  17   2.0000      -8.080276      -219.8755
  18   2.0000      -6.046905      -164.5446
  19   2.0000      -6.043214      -164.4442
  20   2.0000      -6.039139      -164.3333
  21   2.0000      -6.038617      -164.3191
  22   2.0000      -6.034629      -164.2106
  23   2.0000      -6.031275      -164.1193
  24   2.0000      -1.009097       -27.4589
  25   2.0000      -0.986971       -26.8568
  26   2.0000      -0.912309       -24.8252
  27   2.0000      -0.910178       -24.7672
  28   2.0000      -0.868801       -23.6413
  29   2.0000      -0.858564       -23.3627
  30   2.0000      -0.851000       -23.1569
  31   2.0000      -0.814352       -22.1596
  32   2.0000      -0.783856       -21.3298
  33   2.0000      -0.771099       -20.9827
  34   2.0000      -0.710465       -19.3327
  35   2.0000      -0.701501       -19.0888
  36   2.0000      -0.687896       -18.7186
  37   2.0000      -0.660943       -17.9852
  38   2.0000      -0.642044       -17.4709
  39   2.0000      -0.622353       -16.9351
  40   2.0000      -0.592372       -16.1193
  41   2.0000      -0.573054       -15.5936
  42   2.0000      -0.569440       -15.4953
  43   2.0000      -0.560734       -15.2584
  44   2.0000      -0.528634       -14.3849
  45   2.0000      -0.522045       -14.2056
  46   2.0000      -0.512719       -13.9518
  47   2.0000      -0.509077       -13.8527
  48   2.0000      -0.504364       -13.7244
  49   2.0000      -0.502208       -13.6658
  50   2.0000      -0.489854       -13.3296
  51   2.0000      -0.481995       -13.1157
  52   2.0000      -0.476281       -12.9603
  53   2.0000      -0.466955       -12.7065
  54   2.0000      -0.464099       -12.6288
  55   2.0000      -0.453929       -12.3520
  56   2.0000      -0.443546       -12.0695
  57   2.0000      -0.439797       -11.9675
  58   2.0000      -0.436305       -11.8725
  59   2.0000      -0.425765       -11.5857
  60   2.0000      -0.422008       -11.4834
  61   2.0000      -0.415039       -11.2938
  62   2.0000      -0.410956       -11.1827
  63   2.0000      -0.347253        -9.4492
  64   2.0000      -0.336398        -9.1539
  65   2.0000      -0.331129        -9.0105
  66   2.0000      -0.285197        -7.7606
  67   0.0000       0.028126         0.7653
  68   0.0000       0.070645         1.9223
  69   0.0000       0.113827         3.0974
  70   0.0000       0.125711         3.4208
  71   0.0000       0.132526         3.6062

MULLIKEN ATOMIC CHARGES
-----------------------
   0 S :    0.131917
   1 C :   -0.123924
   2 C :   -0.034669
   3 C :    0.023984
   4 C :   -0.123016
   5 H :   -0.029042
   6 C :    0.043795
   7 H :    0.027506
   8 H :    0.030749
   9 C :   -0.085429
  10 H :    0.029265
  11 H :    0.028681
  12 C :   -0.048590
  13 H :    0.036973
  14 H :    0.024958
  15 H :    0.045667
  16 S :    0.111725
  17 C :   -0.108116
  18 C :   -0.034578
  19 C :   -0.035933
  20 C :   -0.180029
  21 H :    0.002627
  22 C :    0.068524
  23 H :    0.027465
  24 H :    0.017532
  25 C :   -0.068381
  26 H :    0.024766
  27 H :    0.026783
  28 C :   -0.003559
  29 H :    0.027868
  30 H :    0.024161
  31 H :    0.015343
  32 H :    0.045625
  33 H :    0.059350
Sum of atomic charges:    0.0000000

LOEWDIN ATOMIC CHARGES
----------------------
   0 S :    0.417642
   1 C :   -0.209503
   2 C :   -0.057469
   3 C :   -0.052980
   4 C :   -0.190177
   5 H :    0.018410
   6 C :   -0.031187
   7 H :    0.029872
   8 H :    0.032476
   9 C :   -0.049976
  10 H :    0.022522
  11 H :    0.025348
  12 C :   -0.071108
  13 H :    0.029021
  14 H :    0.027813
  15 H :    0.034694
  16 S :    0.419423
  17 C :   -0.208415
  18 C :   -0.071726
  19 C :   -0.056962
  20 C :   -0.192492
  21 H :    0.024911
  22 C :   -0.027591
  23 H :    0.031902
  24 H :    0.023458
  25 C :   -0.037997
  26 H :    0.022292
  27 H :    0.024127
  28 C :   -0.061420
  29 H :    0.027960
  30 H :    0.023572
  31 H :    0.020542
  32 H :    0.031190
  33 H :    0.031828

  Mayer bond orders larger than 0.100000
B(  0-S ,  1-C ) :   1.1225 B(  0-S ,  4-C ) :   1.1619 B(  1-C ,  2-C ) :   1.6447
B(  1-C , 32-H ) :   0.9621 B(  2-C ,  3-C ) :   1.2328 B(  2-C ,  6-C ) :   0.9966
B(  3-C ,  4-C ) :   1.5378 B(  3-C ,  5-H ) :   1.0129 B(  4-C , 20-C ) :   1.0459
B(  6-C ,  7-H ) :   0.9392 B(  6-C ,  8-H ) :   0.9446 B(  6-C ,  9-C ) :   1.0729
B(  9-C , 10-H ) :   0.9526 B(  9-C , 11-H ) :   0.9494 B(  9-C , 12-C ) :   1.0919
B( 12-C , 13-H ) :   0.9734 B( 12-C , 14-H ) :   0.9692 B( 12-C , 15-H ) :   0.9693
B( 16-S , 17-C ) :   1.1816 B( 16-S , 20-C ) :   1.1410 B( 17-C , 18-C ) :   1.5910
B( 17-C , 33-H ) :   0.9633 B( 18-C , 19-C ) :   1.2523 B( 18-C , 21-H ) :   1.0016
B( 19-C , 20-C ) :   1.5703 B( 19-C , 22-C ) :   1.0494 B( 22-C , 23-H ) :   0.9348
B( 22-C , 24-H ) :   0.9337 B( 22-C , 25-C ) :   1.0469 B( 25-C , 26-H ) :   0.9574
B( 25-C , 27-H ) :   0.9513 B( 25-C , 28-C ) :   1.0875 B( 28-C , 29-H ) :   0.9726
B( 28-C , 30-H ) :   0.9721 B( 28-C , 31-H ) :   0.9699

Dispersion correction           -0.014287751
FINAL SINGLE POINT ENERGY     -1339.874863223285

DIPOLE MOMENT
-------------
                                X             Y             Z
Electronic contribution:      9.88073     -23.24148     -19.23955
Nuclear contribution   :    -10.05256      23.70140      19.48163
                        -----------------------------------------
Total Dipole Moment    :     -0.17183       0.45992       0.24208
                        -----------------------------------------
Magnitude (a.u.)       :      0.54740
Magnitude (Debye)      :      1.39139

Rotational constants in cm-1:     0.016879     0.009433     0.006801
Rotational constants in MHz :   506.010991   282.802309   203.882743

                             ****ORCA TERMINATED NORMALLY****
TOTAL RUN TIME: 0 days 0 hours 0 minutes 34 seconds 348 msec
