                         Program Version 4.2.1 -  RELEASE  -
|  1> ! wB97X-D3 SP def2-SVP
|  2> %pal
|  3> nprocs 16
|  4> end
|  5>
|  6> * xyz 0 1
|  7> S 	 6.98998 	 24.373 	 36.6614
|  8> C 	 5.39303 	 25.0637 	 36.7077
|  9> C 	 4.42802 	 24.1549 	 37.0179
| 10> C 	 4.98227 	 22.9338 	 37.3471
| 11> C 	 6.35294 	 22.9055 	 37.3221
| 12> H 	 4.448 	 22.1187 	 37.6112
| 13> C 	 2.94648 	 24.4696 	 37.0099
| 14> H 	 2.81992 	 25.5124 	 37.0622
| 15> H 	 2.43252 	 23.9881 	 37.8229
| 16> C 	 2.36809 	 23.9494 	 35.7209
| 17> H 	 2.82031 	 24.3471 	 34.8518
| 18> H 	 2.48466 	 22.9335 	 35.7447
| 19> C 	 0.882415 	 24.2111 	 35.3603
| 20> H 	 0.334927 	 23.5772 	 36.016
| 21> H 	 0.492974 	 25.2011 	 35.5583
| 22> H 	 0.459299 	 23.97 	 34.3548
| 23> S 	 8.6681 	 22.3596 	 38.4804
| 24> C 	 9.26912 	 20.6864 	 38.6079
| 25> C 	 8.20402 	 19.7934 	 38.3023
| 26> C 	 7.08574 	 20.4241 	 37.7525
| 27> C 	 7.2639 	 21.8234 	 37.6164
| 28> H 	 8.35656 	 18.6956 	 38.3514
| 29> C 	 5.99166 	 19.6249 	 37.1751
| 30> H 	 6.50291 	 18.8956 	 36.5803
| 31> H 	 5.43844 	 20.3192 	 36.4714
| 32> C 	 4.97209 	 18.9786 	 38.1966
| 33> H 	 4.53437 	 19.7077 	 38.7929
| 34> H 	 5.46584 	 18.3704 	 38.9314
| 35> C 	 3.77863 	 18.1826 	 37.4013
| 36> H 	 4.25247 	 17.439 	 36.8483
| 37> H 	 3.07606 	 18.7433 	 36.8563
| 38> H 	 3.1824 	 17.6269 	 38.0953
| 39> H 	 5.29575 	 26.0621 	 36.4045
| 40> H 	 10.1943 	 20.3686 	 39.1009
| 41> *
| 42>
| 43>                          ****END OF INPUT****

CARTESIAN COORDINATES (ANGSTROEM)
---------------------------------
  S      6.989980   24.373000   36.661400
  C      5.393030   25.063700   36.707700
  C      4.428020   24.154900   37.017900
  C      4.982270   22.933800   37.347100
  C      6.352940   22.905500   37.322100
  H      4.448000   22.118700   37.611200
  C      2.946480   24.469600   37.009900
  H      2.819920   25.512400   37.062200
  H      2.432520   23.988100   37.822900
  C      2.368090   23.949400   35.720900
  H      2.820310   24.347100   34.851800
  H      2.484660   22.933500   35.744700
  C      0.882415   24.211100   35.360300
  H      0.334927   23.577200   36.016000
  H      0.492974   25.201100   35.558300
  H      0.459299   23.970000   34.354800
  S      8.668100   22.359600   38.480400
  C      9.269120   20.686400   38.607900
  C      8.204020   19.793400   38.302300
  C      7.085740   20.424100   37.752500
  C      7.263900   21.823400   37.616400
  H      8.356560   18.695600   38.351400
  C      5.991660   19.624900   37.175100
  H      6.502910   18.895600   36.580300
  H      5.438440   20.319200   36.471400
  C      4.972090   18.978600   38.196600
  H      4.534370   19.707700   38.792900
  H      5.465840   18.370400   38.931400
  C      3.778630   18.182600   37.401300
  H      4.252470   17.439000   36.848300
  H      3.076060   18.743300   36.856300
  H      3.182400   17.626900   38.095300
  H      5.295750   26.062100   36.404500
  H     10.194300   20.368600   39.100900

 Total Charge           Charge          ....    0
 Multiplicity           Mult            ....    1
 Number of Electrons    NEL             ....  134
 Basis Dimension        Dim             ....  322

ORBITAL ENERGIES
----------------

  NO   OCC          E(Eh)            E(eV)
   0   2.0000     -88.967464     -2420.9278
   1   2.0000     -88.963915     -2420.8312
   2   2.0000     -10.324884      -280.9544
   3   2.0000     -10.324560      -280.9456
   4   2.0000     -10.322262      -280.8830
   5   2.0000     -10.304538      -280.4007
   6   2.0000     -10.299518      -280.2641
   7   2.0000     -10.297827      -280.2181
   8   2.0000     -10.294866      -280.1376
   9   2.0000     -10.293485      -280.1000
  10   2.0000     -10.293317      -280.0954
  11   2.0000     -10.288258      -279.9577
  12   2.0000     -10.280426      -279.7446
  13   2.0000     -10.276021      -279.6248
  14   2.0000     -10.275185      -279.6020
  15   2.0000     -10.274724      -279.5894
  16   2.0000      -8.081684      -219.9138
  17   2.0000      -8.079521      -219.8549
  18   2.0000      -6.040093      -164.3593
  19   2.0000      -6.037790      -164.2966
  20   2.0000      -6.036262      -164.2550
  21   2.0000      -6.034037      -164.1945
  22   2.0000      -6.032554      -164.1541
  23   2.0000      -6.030355      -164.0943
  24   2.0000      -1.014956       -27.6183
  25   2.0000      -0.986795       -26.8521
  26   2.0000      -0.920911       -25.0593
  27   2.0000      -0.903769       -24.5928
  28   2.0000      -0.870540       -23.6886
  29   2.0000      -0.854534       -23.2531
  30   2.0000      -0.847797       -23.0697
  31   2.0000      -0.815998       -22.2044
  32   2.0000      -0.786074       -21.3902
  33   2.0000      -0.772421       -21.0186
  34   2.0000      -0.719746       -19.5853
  35   2.0000      -0.706508       -19.2251
  36   2.0000      -0.697242       -18.9729
  37   2.0000      -0.669828       -18.2270
  38   2.0000      -0.648463       -17.6456
  39   2.0000      -0.631529       -17.1848
  40   2.0000      -0.589618       -16.0443
  41   2.0000      -0.581986       -15.8366
  42   2.0000      -0.563070       -15.3219
  43   2.0000      -0.556098       -15.1322
  44   2.0000      -0.527091       -14.3429
  45   2.0000      -0.523354       -14.2412
  46   2.0000      -0.518921       -14.1205
  47   2.0000      -0.515618       -14.0307
  48   2.0000      -0.504653       -13.7323
  49   2.0000      -0.500687       -13.6244
  50   2.0000      -0.494121       -13.4457
  51   2.0000      -0.483134       -13.1467
  52   2.0000      -0.479910       -13.0590
  53   2.0000      -0.470614       -12.8061
  54   2.0000      -0.461771       -12.5654
  55   2.0000      -0.448756       -12.2113
  56   2.0000      -0.447886       -12.1876
  57   2.0000      -0.441294       -12.0082
  58   2.0000      -0.434685       -11.8284
  59   2.0000      -0.431296       -11.7362
  60   2.0000      -0.429849       -11.6968
  61   2.0000      -0.416725       -11.3397
  62   2.0000      -0.408652       -11.1200
  63   2.0000      -0.352374        -9.5886
  64   2.0000      -0.336581        -9.1588
  65   2.0000      -0.329298        -8.9607
  66   2.0000      -0.281116        -7.6496
  67   0.0000       0.019028         0.5178
  68   0.0000       0.076236         2.0745
  69   0.0000       0.104389         2.8406
  70   0.0000       0.117554         3.1988
  71   0.0000       0.127999         3.4830

MULLIKEN ATOMIC CHARGES
-----------------------
   0 S :    0.106692
   1 C :   -0.124502
   2 C :   -0.066519
   3 C :    0.040763
   4 C :   -0.124721
   5 H :   -0.057535
   6 C :    0.157819
   7 H :    0.003294
   8 H :    0.018830
   9 C :   -0.056347
  10 H :    0.022371
  11 H :    0.004843
  12 C :   -0.045126
  13 H :    0.005659
  14 H :    0.021064
  15 H :    0.039690
  16 S :    0.098276
  17 C :   -0.099945
  18 C :   -0.054020
  19 C :   -0.033132
  20 C :   -0.106391
  21 H :    0.032949
  22 C :    0.019431
  23 H :    0.028411
  24 H :    0.034067
  25 C :   -0.046569
  26 H :    0.013491
  27 H :    0.022316
  28 C :   -0.014351
  29 H :    0.019140
  30 H :    0.031130
  31 H :    0.018235
  32 H :    0.025232
  33 H :    0.065458
Sum of atomic charges:    0.0000000

LOEWDIN ATOMIC CHARGES
----------------------
   0 S :    0.416057
   1 C :   -0.185714
   2 C :   -0.054497
   3 C :   -0.057618
   4 C :   -0.192273
   5 H :    0.010673
   6 C :   -0.011238
   7 H :    0.023801
   8 H :    0.029249
   9 C :   -0.031168
  10 H :    0.022006
  11 H :    0.012579
  12 C :   -0.072410
  13 H :    0.015670
  14 H :    0.020462
  15 H :    0.033355
  16 S :    0.412702
  17 C :   -0.187521
  18 C :   -0.069243
  19 C :   -0.066890
  20 C :   -0.202192
  21 H :    0.036926
  22 C :   -0.034554
  23 H :    0.029402
  24 H :    0.036813
  25 C :   -0.022251
  26 H :    0.012355
  27 H :    0.022146
  28 C :   -0.053228
  29 H :    0.017617
  30 H :    0.019856
  31 H :    0.024565
  32 H :    0.012938
  33 H :    0.031625

  Mayer bond orders larger than 0.100000
B(  0-S ,  1-C ) :   1.1459 B(  0-S ,  4-C ) :   1.1641 B(  1-C ,  2-C ) :   1.5883
B(  1-C , 32-H ) :   0.9789 B(  2-C ,  3-C ) :   1.2672 B(  2-C ,  6-C ) :   1.0296
B(  3-C ,  4-C ) :   1.5449 B(  3-C ,  5-H ) :   1.0180 B(  4-C , 20-C ) :   1.0357
B(  6-C ,  7-H ) :   0.9304 B(  6-C ,  8-H ) :   0.9343 B(  6-C ,  9-C ) :   1.0654
B(  9-C , 10-H ) :   0.9594 B(  9-C , 11-H ) :   0.9607 B(  9-C , 12-C ) :   1.0686
B( 12-C , 13-H ) :   0.9734 B( 12-C , 14-H ) :   0.9757 B( 12-C , 15-H ) :   0.9779
B( 16-S , 17-C ) :   1.1588 B( 16-S , 20-C ) :   1.1591 B( 17-C , 18-C ) :   1.5630
B( 17-C , 20-C ) :   0.1176 B( 17-C , 33-H ) :   0.9684 B( 18-C , 19-C ) :   1.2875
B( 18-C , 21-H ) :   0.9818 B( 19-C , 20-C ) :   1.5374 B( 19-C , 22-C ) :   1.0401
B( 22-C , 23-H ) :   0.9408 B( 22-C , 24-H ) :   0.9437 B( 22-C , 25-C ) :   1.0442
B( 25-C , 26-H ) :   0.9577 B( 25-C , 27-H ) :   0.9585 B( 25-C , 28-C ) :   1.0682
B( 28-C , 29-H ) :   0.9789 B( 28-C , 30-H ) :   0.9810 B( 28-C , 31-H ) :   0.9754

Dispersion correction           -0.013870698
FINAL SINGLE POINT ENERGY     -1339.846210857373

DIPOLE MOMENT
-------------
                                X             Y             Z
Electronic contribution:     30.08615      11.97308       5.84696
Nuclear contribution   :    -30.67030     -12.39307      -5.82375
                        -----------------------------------------
Total Dipole Moment    :     -0.58415      -0.41998       0.02321
                        -----------------------------------------
Magnitude (a.u.)       :      0.71983
Magnitude (Debye)      :      1.82966

Rotational constants in cm-1:     0.017190     0.009342     0.006290
Rotational constants in MHz :   515.350115   280.074995   188.575492

                             ****ORCA TERMINATED NORMALLY****
TOTAL RUN TIME: 0 days 0 hours 0 minutes 33 seconds 306 msec
