                         Program Version 4.2.1 -  RELEASE  -
|  1> ! wB97X-D3 SP def2-SVP
|  2> %pal
|  3> nprocs 16
|  4> end
|  5>
|  6> * xyz 0 1
|  7> S 	 27.1727 	 -12.8175 	 75.566
|  8> C 	 27.5186 	 -13.6398 	 74.0886
|  9> C 	 26.7681 	 -13.1456 	 73.0213
| 10> C 	 25.9229 	 -12.0872 	 73.4019
| 11> C 	 26.0902 	 -11.7559 	 74.7293
| 12> H 	 25.2106 	 -11.5994 	 72.7559
| 13> C 	 26.8459 	 -13.7262 	 71.6554
| 14> H 	 27.8425 	 -14.2289 	 71.5046
| 15> H 	 26.8375 	 -12.9044 	 70.9834
| 16> C 	 25.7087 	 -14.7372 	 71.3186
| 17> H 	 25.8602 	 -15.7428 	 71.8289
| 18> H 	 24.8163 	 -14.3229 	 71.6967
| 19> C 	 25.6362 	 -15.1025 	 69.8227
| 20> H 	 25.4989 	 -14.2405 	 69.2496
| 21> H 	 26.6303 	 -15.5388 	 69.4854
| 22> H 	 24.9429 	 -15.8204 	 69.5368
| 23> S 	 24.291 	 -11.2407 	 76.659
| 24> C 	 23.9949 	 -9.55217 	 77.0672
| 25> C 	 24.7477 	 -8.69823 	 76.2889
| 26> C 	 25.5864 	 -9.34383 	 75.3518
| 27> C 	 25.4048 	 -10.7439 	 75.4471
| 28> H 	 24.6219 	 -7.65206 	 76.4449
| 29> C 	 26.4487 	 -8.67491 	 74.3246
| 30> H 	 25.6981 	 -8.05714 	 73.8118
| 31> H 	 26.825 	 -9.42007 	 73.6355
| 32> C 	 27.7457 	 -8.02917 	 74.8027
| 33> H 	 28.4253 	 -8.78828 	 75.2444
| 34> H 	 27.6084 	 -7.26286 	 75.6019
| 35> C 	 28.5885 	 -7.41195 	 73.7166
| 36> H 	 28.9323 	 -8.14439 	 73.0022
| 37> H 	 29.4986 	 -6.94868 	 74.1547
| 38> H 	 28.0785 	 -6.65586 	 73.0933
| 39> H 	 28.1908 	 -14.419 	 74.0414
| 40> H 	 23.3427 	 -9.32274 	 77.8607
| 41> *
| 42>
| 43>                          ****END OF INPUT****

CARTESIAN COORDINATES (ANGSTROEM)
---------------------------------
  S     27.172700  -12.817500   75.566000
  C     27.518600  -13.639800   74.088600
  C     26.768100  -13.145600   73.021300
  C     25.922900  -12.087200   73.401900
  C     26.090200  -11.755900   74.729300
  H     25.210600  -11.599400   72.755900
  C     26.845900  -13.726200   71.655400
  H     27.842500  -14.228900   71.504600
  H     26.837500  -12.904400   70.983400
  C     25.708700  -14.737200   71.318600
  H     25.860200  -15.742800   71.828900
  H     24.816300  -14.322900   71.696700
  C     25.636200  -15.102500   69.822700
  H     25.498900  -14.240500   69.249600
  H     26.630300  -15.538800   69.485400
  H     24.942900  -15.820400   69.536800
  S     24.291000  -11.240700   76.659000
  C     23.994900   -9.552170   77.067200
  C     24.747700   -8.698230   76.288900
  C     25.586400   -9.343830   75.351800
  C     25.404800  -10.743900   75.447100
  H     24.621900   -7.652060   76.444900
  C     26.448700   -8.674910   74.324600
  H     25.698100   -8.057140   73.811800
  H     26.825000   -9.420070   73.635500
  C     27.745700   -8.029170   74.802700
  H     28.425300   -8.788280   75.244400
  H     27.608400   -7.262860   75.601900
  C     28.588500   -7.411950   73.716600
  H     28.932300   -8.144390   73.002200
  H     29.498600   -6.948680   74.154700
  H     28.078500   -6.655860   73.093300
  H     28.190800  -14.419000   74.041400
  H     23.342700   -9.322740   77.860700

 Total Charge           Charge          ....    0
 Multiplicity           Mult            ....    1
 Number of Electrons    NEL             ....  134
 Basis Dimension        Dim             ....  322

ORBITAL ENERGIES
----------------

  NO   OCC          E(Eh)            E(eV)
   0   2.0000     -88.965670     -2420.8790
   1   2.0000     -88.964100     -2420.8362
   2   2.0000     -10.319895      -280.8186
   3   2.0000     -10.316377      -280.7229
   4   2.0000     -10.312063      -280.6055
   5   2.0000     -10.304238      -280.3926
   6   2.0000     -10.301013      -280.3048
   7   2.0000     -10.295596      -280.1574
   8   2.0000     -10.290781      -280.0264
   9   2.0000     -10.290506      -280.0189
  10   2.0000     -10.290471      -280.0179
  11   2.0000     -10.288977      -279.9773
  12   2.0000     -10.288588      -279.9667
  13   2.0000     -10.287401      -279.9344
  14   2.0000     -10.275936      -279.6224
  15   2.0000     -10.272629      -279.5325
  16   2.0000      -8.081185      -219.9002
  17   2.0000      -8.079383      -219.8512
  18   2.0000      -6.039458      -164.3420
  19   2.0000      -6.037590      -164.2912
  20   2.0000      -6.035522      -164.2349
  21   2.0000      -6.033878      -164.1902
  22   2.0000      -6.032232      -164.1454
  23   2.0000      -6.030375      -164.0948
  24   2.0000      -1.012067       -27.5397
  25   2.0000      -0.985354       -26.8128
  26   2.0000      -0.911556       -24.8047
  27   2.0000      -0.910151       -24.7665
  28   2.0000      -0.871164       -23.7056
  29   2.0000      -0.855895       -23.2901
  30   2.0000      -0.852124       -23.1875
  31   2.0000      -0.815969       -22.2036
  32   2.0000      -0.784306       -21.3421
  33   2.0000      -0.767136       -20.8748
  34   2.0000      -0.707462       -19.2510
  35   2.0000      -0.701010       -19.0754
  36   2.0000      -0.694325       -18.8936
  37   2.0000      -0.660652       -17.9773
  38   2.0000      -0.648328       -17.6419
  39   2.0000      -0.622480       -16.9385
  40   2.0000      -0.600712       -16.3462
  41   2.0000      -0.567382       -15.4393
  42   2.0000      -0.563565       -15.3354
  43   2.0000      -0.555975       -15.1288
  44   2.0000      -0.531581       -14.4651
  45   2.0000      -0.525759       -14.3066
  46   2.0000      -0.520836       -14.1727
  47   2.0000      -0.515176       -14.0187
  48   2.0000      -0.506266       -13.7762
  49   2.0000      -0.501569       -13.6484
  50   2.0000      -0.492697       -13.4070
  51   2.0000      -0.475142       -12.9293
  52   2.0000      -0.470186       -12.7944
  53   2.0000      -0.462716       -12.5912
  54   2.0000      -0.458752       -12.4833
  55   2.0000      -0.451939       -12.2979
  56   2.0000      -0.448465       -12.2034
  57   2.0000      -0.435730       -11.8568
  58   2.0000      -0.431960       -11.7542
  59   2.0000      -0.430594       -11.7170
  60   2.0000      -0.427319       -11.6279
  61   2.0000      -0.414162       -11.2699
  62   2.0000      -0.409786       -11.1508
  63   2.0000      -0.341903        -9.3036
  64   2.0000      -0.331025        -9.0076
  65   2.0000      -0.324878        -8.8404
  66   2.0000      -0.293240        -7.9795
  67   0.0000       0.040111         1.0915
  68   0.0000       0.062667         1.7053
  69   0.0000       0.120522         3.2796
  70   0.0000       0.125137         3.4052
  71   0.0000       0.132053         3.5933

MULLIKEN ATOMIC CHARGES
-----------------------
   0 S :    0.128263
   1 C :   -0.092387
   2 C :   -0.085899
   3 C :    0.051423
   4 C :   -0.183637
   5 H :    0.011126
   6 C :    0.070328
   7 H :    0.024805
   8 H :    0.011828
   9 C :   -0.069336
  10 H :    0.037122
  11 H :    0.019286
  12 C :   -0.015483
  13 H :    0.014293
  14 H :    0.024049
  15 H :    0.025457
  16 S :    0.116307
  17 C :   -0.089782
  18 C :   -0.021929
  19 C :   -0.003341
  20 C :   -0.197500
  21 H :    0.006695
  22 C :    0.093957
  23 H :    0.037896
  24 H :    0.015287
  25 C :   -0.084334
  26 H :    0.036824
  27 H :    0.029406
  28 C :   -0.051356
  29 H :    0.023403
  30 H :    0.039072
  31 H :    0.026575
  32 H :    0.010570
  33 H :    0.041012
Sum of atomic charges:   -0.0000000

LOEWDIN ATOMIC CHARGES
----------------------
   0 S :    0.429757
   1 C :   -0.192484
   2 C :   -0.063370
   3 C :   -0.058068
   4 C :   -0.204475
   5 H :    0.032981
   6 C :   -0.031132
   7 H :    0.034999
   8 H :    0.023342
   9 C :   -0.034180
  10 H :    0.032497
  11 H :    0.014684
  12 C :   -0.060648
  13 H :    0.014194
  14 H :    0.031798
  15 H :    0.017592
  16 S :    0.416556
  17 C :   -0.174631
  18 C :   -0.065287
  19 C :   -0.050499
  20 C :   -0.219282
  21 H :    0.028333
  22 C :   -0.035068
  23 H :    0.037625
  24 H :    0.032499
  25 C :   -0.045064
  26 H :    0.034058
  27 H :    0.022695
  28 C :   -0.069975
  29 H :    0.020808
  30 H :    0.031983
  31 H :    0.022891
  32 H :    0.007923
  33 H :    0.016946

  Mayer bond orders larger than 0.100000
B(  0-S ,  1-C ) :   1.1497 B(  0-S ,  4-C ) :   1.1743 B(  1-C ,  2-C ) :   1.5799
B(  1-C ,  4-C ) :   0.1015 B(  1-C , 32-H ) :   0.9813 B(  2-C ,  3-C ) :   1.2572
B(  2-C ,  6-C ) :   1.0357 B(  3-C ,  4-C ) :   1.5505 B(  3-C ,  5-H ) :   0.9996
B(  4-C , 20-C ) :   1.0333 B(  6-C ,  7-H ) :   0.9371 B(  6-C ,  8-H ) :   0.9365
B(  6-C ,  9-C ) :   1.0544 B(  9-C , 10-H ) :   0.9567 B(  9-C , 11-H ) :   0.9610
B(  9-C , 12-C ) :   1.0784 B( 12-C , 13-H ) :   0.9757 B( 12-C , 14-H ) :   0.9723
B( 12-C , 15-H ) :   0.9756 B( 16-S , 17-C ) :   1.1519 B( 16-S , 20-C ) :   1.1759
B( 17-C , 18-C ) :   1.5897 B( 17-C , 20-C ) :   0.1082 B( 17-C , 33-H ) :   0.9778
B( 18-C , 19-C ) :   1.2462 B( 18-C , 21-H ) :   0.9985 B( 19-C , 20-C ) :   1.5553
B( 19-C , 22-C ) :   1.0428 B( 22-C , 23-H ) :   0.9328 B( 22-C , 24-H ) :   0.9204
B( 22-C , 25-C ) :   1.0638 B( 25-C , 26-H ) :   0.9494 B( 25-C , 27-H ) :   0.9572
B( 25-C , 28-C ) :   1.0925 B( 28-C , 29-H ) :   0.9718 B( 28-C , 30-H ) :   0.9726
B( 28-C , 31-H ) :   0.9735

Dispersion correction           -0.013885906
FINAL SINGLE POINT ENERGY     -1339.887946542177

DIPOLE MOMENT
-------------
                                X             Y             Z
Electronic contribution:     -8.14471      -3.78704      23.72702
Nuclear contribution   :      8.19716       3.96054     -24.17477
                        -----------------------------------------
Total Dipole Moment    :      0.05245       0.17350      -0.44775
                        -----------------------------------------
Magnitude (a.u.)       :      0.48304
Magnitude (Debye)      :      1.22780

Rotational constants in cm-1:     0.018199     0.008037     0.006738
Rotational constants in MHz :   545.577335   240.937800   201.988575

                             ****ORCA TERMINATED NORMALLY****
TOTAL RUN TIME: 0 days 0 hours 0 minutes 28 seconds 300 msec
