                         Program Version 4.2.1 -  RELEASE  -
|  1> ! wB97X-D3 SP def2-SVP
|  2> %pal
|  3> nprocs 16
|  4> end
|  5>
|  6> * xyz 0 1
|  7> S 	 3.58212 	 -13.8099 	 84.6785
|  8> C 	 4.29821 	 -14.6138 	 83.3018
|  9> C 	 5.24269 	 -15.5681 	 83.6794
| 10> C 	 5.35879 	 -15.6307 	 85.1033
| 11> C 	 4.44122 	 -14.8049 	 85.7822
| 12> H 	 5.94025 	 -16.2954 	 85.7019
| 13> C 	 6.0338 	 -16.4448 	 82.778
| 14> H 	 7.06355 	 -16.1385 	 82.7984
| 15> H 	 5.76736 	 -16.3688 	 81.7558
| 16> C 	 5.78989 	 -18.0072 	 82.9861
| 17> H 	 5.95172 	 -18.3475 	 84.0448
| 18> H 	 4.7657 	 -18.2564 	 82.7006
| 19> C 	 6.59993 	 -18.8357 	 81.9819
| 20> H 	 7.64738 	 -18.4595 	 81.9375
| 21> H 	 6.55153 	 -19.9058 	 82.1299
| 22> H 	 6.14129 	 -18.7165 	 80.9984
| 23> S 	 4.32255 	 -16.3621 	 88.0323
| 24> C 	 4.18601 	 -15.6693 	 89.6055
| 25> C 	 3.93569 	 -14.3095 	 89.4808
| 26> C 	 3.96948 	 -13.794 	 88.128
| 27> C 	 4.25122 	 -14.789 	 87.2389
| 28> H 	 3.78925 	 -13.6725 	 90.3134
| 29> C 	 4.00009 	 -12.3242 	 87.8666
| 30> H 	 3.12963 	 -11.9079 	 88.4346
| 31> H 	 3.87213 	 -12.0818 	 86.8028
| 32> C 	 5.33811 	 -11.6494 	 88.3202
| 33> H 	 6.16742 	 -11.8868 	 87.6753
| 34> H 	 5.6476 	 -11.8963 	 89.3474
| 35> C 	 5.25625 	 -10.0495 	 88.3553
| 36> H 	 4.90947 	 -9.54172 	 87.4921
| 37> H 	 6.28951 	 -9.67693 	 88.5953
| 38> H 	 4.64665 	 -9.65813 	 89.1553
| 39> H 	 3.88725 	 -14.4298 	 82.3424
| 40> H 	 4.17862 	 -16.2687 	 90.4593
| 41> *
| 42>
| 43>                          ****END OF INPUT****

CARTESIAN COORDINATES (ANGSTROEM)
---------------------------------
  S      3.582120  -13.809900   84.678500
  C      4.298210  -14.613800   83.301800
  C      5.242690  -15.568100   83.679400
  C      5.358790  -15.630700   85.103300
  C      4.441220  -14.804900   85.782200
  H      5.940250  -16.295400   85.701900
  C      6.033800  -16.444800   82.778000
  H      7.063550  -16.138500   82.798400
  H      5.767360  -16.368800   81.755800
  C      5.789890  -18.007200   82.986100
  H      5.951720  -18.347500   84.044800
  H      4.765700  -18.256400   82.700600
  C      6.599930  -18.835700   81.981900
  H      7.647380  -18.459500   81.937500
  H      6.551530  -19.905800   82.129900
  H      6.141290  -18.716500   80.998400
  S      4.322550  -16.362100   88.032300
  C      4.186010  -15.669300   89.605500
  C      3.935690  -14.309500   89.480800
  C      3.969480  -13.794000   88.128000
  C      4.251220  -14.789000   87.238900
  H      3.789250  -13.672500   90.313400
  C      4.000090  -12.324200   87.866600
  H      3.129630  -11.907900   88.434600
  H      3.872130  -12.081800   86.802800
  C      5.338110  -11.649400   88.320200
  H      6.167420  -11.886800   87.675300
  H      5.647600  -11.896300   89.347400
  C      5.256250  -10.049500   88.355300
  H      4.909470   -9.541720   87.492100
  H      6.289510   -9.676930   88.595300
  H      4.646650   -9.658130   89.155300
  H      3.887250  -14.429800   82.342400
  H      4.178620  -16.268700   90.459300

 Total Charge           Charge          ....    0
 Multiplicity           Mult            ....    1
 Number of Electrons    NEL             ....  134
 Basis Dimension        Dim             ....  322

ORBITAL ENERGIES
----------------

  NO   OCC          E(Eh)            E(eV)
   0   2.0000     -88.967484     -2420.9283
   1   2.0000     -88.962153     -2420.7833
   2   2.0000     -10.329352      -281.0759
   3   2.0000     -10.325690      -280.9763
   4   2.0000     -10.314122      -280.6615
   5   2.0000     -10.312302      -280.6120
   6   2.0000     -10.304546      -280.4010
   7   2.0000     -10.299146      -280.2540
   8   2.0000     -10.297181      -280.2005
   9   2.0000     -10.293329      -280.0957
  10   2.0000     -10.292859      -280.0829
  11   2.0000     -10.292508      -280.0734
  12   2.0000     -10.292120      -280.0628
  13   2.0000     -10.290552      -280.0201
  14   2.0000     -10.279372      -279.7159
  15   2.0000     -10.277425      -279.6629
  16   2.0000      -8.082514      -219.9364
  17   2.0000      -8.077339      -219.7956
  18   2.0000      -6.040955      -164.3827
  19   2.0000      -6.036877      -164.2718
  20   2.0000      -6.035906      -164.2454
  21   2.0000      -6.033469      -164.1790
  22   2.0000      -6.031763      -164.1326
  23   2.0000      -6.028035      -164.0312
  24   2.0000      -1.008078       -27.4312
  25   2.0000      -0.985771       -26.8242
  26   2.0000      -0.910252       -24.7692
  27   2.0000      -0.902726       -24.5644
  28   2.0000      -0.868270       -23.6268
  29   2.0000      -0.852038       -23.1851
  30   2.0000      -0.844938       -22.9919
  31   2.0000      -0.809831       -22.0366
  32   2.0000      -0.782071       -21.2812
  33   2.0000      -0.772429       -21.0189
  34   2.0000      -0.705906       -19.2087
  35   2.0000      -0.701050       -19.0765
  36   2.0000      -0.690667       -18.7940
  37   2.0000      -0.674269       -18.3478
  38   2.0000      -0.643166       -17.5014
  39   2.0000      -0.618927       -16.8419
  40   2.0000      -0.600978       -16.3534
  41   2.0000      -0.567732       -15.4488
  42   2.0000      -0.561574       -15.2812
  43   2.0000      -0.555810       -15.1244
  44   2.0000      -0.528040       -14.3687
  45   2.0000      -0.520544       -14.1647
  46   2.0000      -0.518632       -14.1127
  47   2.0000      -0.512877       -13.9561
  48   2.0000      -0.510372       -13.8879
  49   2.0000      -0.502896       -13.6845
  50   2.0000      -0.487505       -13.2657
  51   2.0000      -0.479023       -13.0349
  52   2.0000      -0.467076       -12.7098
  53   2.0000      -0.463599       -12.6152
  54   2.0000      -0.462332       -12.5807
  55   2.0000      -0.447654       -12.1813
  56   2.0000      -0.441849       -12.0233
  57   2.0000      -0.438974       -11.9451
  58   2.0000      -0.433272       -11.7899
  59   2.0000      -0.430679       -11.7194
  60   2.0000      -0.424369       -11.5477
  61   2.0000      -0.413452       -11.2506
  62   2.0000      -0.411962       -11.2101
  63   2.0000      -0.352941        -9.6040
  64   2.0000      -0.331391        -9.0176
  65   2.0000      -0.327395        -8.9089
  66   2.0000      -0.287256        -7.8166
  67   0.0000       0.027613         0.7514
  68   0.0000       0.080484         2.1901
  69   0.0000       0.111524         3.0347
  70   0.0000       0.118002         3.2110
  71   0.0000       0.130924         3.5626

MULLIKEN ATOMIC CHARGES
-----------------------
   0 S :    0.109650
   1 C :   -0.125790
   2 C :   -0.041650
   3 C :    0.006414
   4 C :   -0.135524
   5 H :    0.005378
   6 C :    0.090978
   7 H :    0.038002
   8 H :   -0.002679
   9 C :   -0.107849
  10 H :    0.045666
  11 H :    0.033095
  12 C :   -0.057229
  13 H :    0.036479
  14 H :    0.038063
  15 H :    0.024785
  16 S :    0.091004
  17 C :   -0.067316
  18 C :   -0.020875
  19 C :   -0.039166
  20 C :   -0.142098
  21 H :    0.002712
  22 C :    0.055826
  23 H :    0.035938
  24 H :    0.025832
  25 C :   -0.069970
  26 H :    0.039732
  27 H :    0.031488
  28 C :   -0.066862
  29 H :    0.027969
  30 H :    0.033713
  31 H :    0.024330
  32 H :    0.038241
  33 H :    0.041714
Sum of atomic charges:    0.0000000

LOEWDIN ATOMIC CHARGES
----------------------
   0 S :    0.427725
   1 C :   -0.194587
   2 C :   -0.055763
   3 C :   -0.064851
   4 C :   -0.200776
   5 H :    0.020383
   6 C :   -0.029048
   7 H :    0.033092
   8 H :    0.025162
   9 C :   -0.037783
  10 H :    0.023873
  11 H :    0.026817
  12 C :   -0.070656
  13 H :    0.026602
  14 H :    0.026645
  15 H :    0.023916
  16 S :    0.410141
  17 C :   -0.180741
  18 C :   -0.059893
  19 C :   -0.068147
  20 C :   -0.185393
  21 H :    0.021828
  22 C :   -0.036433
  23 H :    0.038079
  24 H :    0.022951
  25 C :   -0.029270
  26 H :    0.025858
  27 H :    0.025345
  28 C :   -0.069946
  29 H :    0.016308
  30 H :    0.031461
  31 H :    0.019912
  32 H :    0.018762
  33 H :    0.018428

  Mayer bond orders larger than 0.100000
B(  0-S ,  1-C ) :   1.1450 B(  0-S ,  4-C ) :   1.1706 B(  1-C ,  2-C ) :   1.5778
B(  1-C , 32-H ) :   0.9770 B(  2-C ,  3-C ) :   1.2405 B(  2-C ,  6-C ) :   1.0419
B(  3-C ,  4-C ) :   1.5381 B(  3-C ,  5-H ) :   0.9945 B(  4-C , 20-C ) :   1.0457
B(  6-C ,  7-H ) :   0.9362 B(  6-C ,  8-H ) :   0.9393 B(  6-C ,  9-C ) :   1.0408
B(  9-C , 10-H ) :   0.9623 B(  9-C , 11-H ) :   0.9602 B(  9-C , 12-C ) :   1.0790
B( 12-C , 13-H ) :   0.9756 B( 12-C , 14-H ) :   0.9738 B( 12-C , 15-H ) :   0.9750
B( 16-S , 17-C ) :   1.1517 B( 16-S , 20-C ) :   1.1400 B( 17-C , 18-C ) :   1.5895
B( 17-C , 33-H ) :   0.9827 B( 18-C , 19-C ) :   1.2251 B( 18-C , 21-H ) :   0.9955
B( 19-C , 20-C ) :   1.6028 B( 19-C , 22-C ) :   1.0653 B( 22-C , 23-H ) :   0.9305
B( 22-C , 24-H ) :   0.9315 B( 22-C , 25-C ) :   1.0541 B( 25-C , 26-H ) :   0.9606
B( 25-C , 27-H ) :   0.9602 B( 25-C , 28-C ) :   1.0682 B( 28-C , 29-H ) :   0.9796
B( 28-C , 30-H ) :   0.9768 B( 28-C , 31-H ) :   0.9786

Dispersion correction           -0.013576258
FINAL SINGLE POINT ENERGY     -1339.889041301772

DIPOLE MOMENT
-------------
                                X             Y             Z
Electronic contribution:    -10.96083      -3.17849       6.60660
Nuclear contribution   :     11.14751       3.19239      -6.66901
                        -----------------------------------------
Total Dipole Moment    :      0.18668       0.01390      -0.06242
                        -----------------------------------------
Magnitude (a.u.)       :      0.19733
Magnitude (Debye)      :      0.50156

Rotational constants in cm-1:     0.021570     0.007483     0.006146
Rotational constants in MHz :   646.650779   224.345996   184.253592

                             ****ORCA TERMINATED NORMALLY****
TOTAL RUN TIME: 0 days 0 hours 0 minutes 30 seconds 815 msec
