                         Program Version 4.2.1 -  RELEASE  -
|  1> ! wB97X-D3 SP def2-SVP
|  2> %pal
|  3> nprocs 16
|  4> end
|  5>
|  6> * xyz 0 1
|  7> S 	 -1.71962 	 -13.1268 	 67.8313
|  8> C 	 -0.221942 	 -13.4888 	 66.9557
|  9> C 	 0.809929 	 -13.88 	 67.7967
| 10> C 	 0.416781 	 -13.9035 	 69.1292
| 11> C 	 -0.904406 	 -13.4885 	 69.394
| 12> H 	 1.15263 	 -14.0806 	 69.9191
| 13> C 	 2.11777 	 -14.3037 	 67.2707
| 14> H 	 2.05923 	 -14.4572 	 66.1363
| 15> H 	 2.4519 	 -15.1957 	 67.7675
| 16> C 	 3.27782 	 -13.2551 	 67.5347
| 17> H 	 2.96594 	 -12.2866 	 67.2389
| 18> H 	 3.39543 	 -13.2137 	 68.6887
| 19> C 	 4.67597 	 -13.6864 	 67.0483
| 20> H 	 4.85795 	 -14.5794 	 67.5846
| 21> H 	 4.73941 	 -13.8686 	 66.0076
| 22> H 	 5.40078 	 -12.928 	 67.2969
| 23> S 	 -1.67469 	 -11.3882 	 71.0207
| 24> C 	 -1.88437 	 -11.6114 	 72.6942
| 25> C 	 -1.6678 	 -12.9302 	 73.0407
| 26> C 	 -1.19433 	 -13.7016 	 71.9488
| 27> C 	 -1.29237 	 -13.0453 	 70.7436
| 28> H 	 -1.88191 	 -13.2114 	 74.0873
| 29> C 	 -0.65564 	 -15.1208 	 72.0918
| 30> H 	 -0.72944 	 -15.598 	 71.1524
| 31> H 	 -1.42396 	 -15.732 	 72.634
| 32> C 	 0.673668 	 -15.2742 	 72.7457
| 33> H 	 0.562293 	 -15.0202 	 73.8088
| 34> H 	 1.25906 	 -14.4297 	 72.353
| 35> C 	 1.31853 	 -16.6825 	 72.5048
| 36> H 	 1.34061 	 -16.8776 	 71.3918
| 37> H 	 0.81737 	 -17.5078 	 72.9299
| 38> H 	 2.31327 	 -16.7275 	 72.8369
| 39> H 	 -0.203282 	 -13.5097 	 65.8457
| 40> H 	 -2.31989 	 -10.9336 	 73.3879
| 41> *
| 42>
| 43>                          ****END OF INPUT****

CARTESIAN COORDINATES (ANGSTROEM)
---------------------------------
  S     -1.719620  -13.126800   67.831300
  C     -0.221942  -13.488800   66.955700
  C      0.809929  -13.880000   67.796700
  C      0.416781  -13.903500   69.129200
  C     -0.904406  -13.488500   69.394000
  H      1.152630  -14.080600   69.919100
  C      2.117770  -14.303700   67.270700
  H      2.059230  -14.457200   66.136300
  H      2.451900  -15.195700   67.767500
  C      3.277820  -13.255100   67.534700
  H      2.965940  -12.286600   67.238900
  H      3.395430  -13.213700   68.688700
  C      4.675970  -13.686400   67.048300
  H      4.857950  -14.579400   67.584600
  H      4.739410  -13.868600   66.007600
  H      5.400780  -12.928000   67.296900
  S     -1.674690  -11.388200   71.020700
  C     -1.884370  -11.611400   72.694200
  C     -1.667800  -12.930200   73.040700
  C     -1.194330  -13.701600   71.948800
  C     -1.292370  -13.045300   70.743600
  H     -1.881910  -13.211400   74.087300
  C     -0.655640  -15.120800   72.091800
  H     -0.729440  -15.598000   71.152400
  H     -1.423960  -15.732000   72.634000
  C      0.673668  -15.274200   72.745700
  H      0.562293  -15.020200   73.808800
  H      1.259060  -14.429700   72.353000
  C      1.318530  -16.682500   72.504800
  H      1.340610  -16.877600   71.391800
  H      0.817370  -17.507800   72.929900
  H      2.313270  -16.727500   72.836900
  H     -0.203282  -13.509700   65.845700
  H     -2.319890  -10.933600   73.387900

 Total Charge           Charge          ....    0
 Multiplicity           Mult            ....    1
 Number of Electrons    NEL             ....  134
 Basis Dimension        Dim             ....  322

ORBITAL ENERGIES
----------------

  NO   OCC          E(Eh)            E(eV)
   0   2.0000     -88.973078     -2421.0805
   1   2.0000     -88.962220     -2420.7851
   2   2.0000     -10.337267      -281.2913
   3   2.0000     -10.323751      -280.9235
   4   2.0000     -10.321790      -280.8702
   5   2.0000     -10.307858      -280.4911
   6   2.0000     -10.298414      -280.2341
   7   2.0000     -10.298186      -280.2279
   8   2.0000     -10.298046      -280.2241
   9   2.0000     -10.297206      -280.2012
  10   2.0000     -10.292922      -280.0846
  11   2.0000     -10.291549      -280.0473
  12   2.0000     -10.288047      -279.9520
  13   2.0000     -10.281460      -279.7727
  14   2.0000     -10.279172      -279.7105
  15   2.0000     -10.274119      -279.5730
  16   2.0000      -8.086240      -220.0378
  17   2.0000      -8.078376      -219.8238
  18   2.0000      -6.044824      -164.4880
  19   2.0000      -6.040916      -164.3817
  20   2.0000      -6.037080      -164.2773
  21   2.0000      -6.036764      -164.2687
  22   2.0000      -6.032614      -164.1558
  23   2.0000      -6.029230      -164.0637
  24   2.0000      -1.010326       -27.4924
  25   2.0000      -0.986659       -26.8484
  26   2.0000      -0.911038       -24.7906
  27   2.0000      -0.909742       -24.7553
  28   2.0000      -0.869254       -23.6536
  29   2.0000      -0.853943       -23.2370
  30   2.0000      -0.846863       -23.0443
  31   2.0000      -0.814567       -22.1655
  32   2.0000      -0.784398       -21.3445
  33   2.0000      -0.772965       -21.0335
  34   2.0000      -0.707977       -19.2650
  35   2.0000      -0.702259       -19.1095
  36   2.0000      -0.695970       -18.9383
  37   2.0000      -0.657815       -17.9001
  38   2.0000      -0.636234       -17.3128
  39   2.0000      -0.624264       -16.9871
  40   2.0000      -0.596551       -16.2330
  41   2.0000      -0.578128       -15.7317
  42   2.0000      -0.561163       -15.2700
  43   2.0000      -0.556133       -15.1332
  44   2.0000      -0.526890       -14.3374
  45   2.0000      -0.523029       -14.2323
  46   2.0000      -0.517048       -14.0696
  47   2.0000      -0.515435       -14.0257
  48   2.0000      -0.507578       -13.8119
  49   2.0000      -0.502571       -13.6757
  50   2.0000      -0.495231       -13.4759
  51   2.0000      -0.476547       -12.9675
  52   2.0000      -0.470933       -12.8147
  53   2.0000      -0.470223       -12.7954
  54   2.0000      -0.458503       -12.4765
  55   2.0000      -0.448342       -12.2000
  56   2.0000      -0.445909       -12.1338
  57   2.0000      -0.439951       -11.9717
  58   2.0000      -0.434609       -11.8263
  59   2.0000      -0.430126       -11.7043
  60   2.0000      -0.423061       -11.5121
  61   2.0000      -0.415509       -11.3066
  62   2.0000      -0.408265       -11.1095
  63   2.0000      -0.348347        -9.4790
  64   2.0000      -0.331971        -9.0334
  65   2.0000      -0.328711        -8.9447
  66   2.0000      -0.291526        -7.9328
  67   0.0000       0.026497         0.7210
  68   0.0000       0.070443         1.9169
  69   0.0000       0.109951         2.9919
  70   0.0000       0.122926         3.3450
  71   0.0000       0.129168         3.5148

MULLIKEN ATOMIC CHARGES
-----------------------
   0 S :    0.110674
   1 C :   -0.151957
   2 C :   -0.046807
   3 C :    0.029313
   4 C :   -0.149857
   5 H :    0.014481
   6 C :    0.055567
   7 H :    0.034231
   8 H :    0.020050
   9 C :   -0.129623
  10 H :    0.024260
  11 H :    0.032239
  12 C :    0.007977
  13 H :    0.018786
  14 H :    0.024284
  15 H :    0.038384
  16 S :    0.119110
  17 C :   -0.089880
  18 C :   -0.048949
  19 C :   -0.066466
  20 C :   -0.133468
  21 H :    0.028286
  22 C :    0.071278
  23 H :    0.002807
  24 H :    0.020603
  25 C :   -0.071787
  26 H :    0.028769
  27 H :    0.030300
  28 C :   -0.017621
  29 H :    0.029827
  30 H :    0.027926
  31 H :    0.025637
  32 H :    0.064976
  33 H :    0.046646
Sum of atomic charges:    0.0000000

LOEWDIN ATOMIC CHARGES
----------------------
   0 S :    0.386592
   1 C :   -0.186315
   2 C :   -0.073661
   3 C :   -0.049804
   4 C :   -0.186099
   5 H :    0.032682
   6 C :   -0.031635
   7 H :    0.036833
   8 H :    0.026907
   9 C :   -0.036728
  10 H :    0.012516
  11 H :    0.028953
  12 C :   -0.056504
  13 H :    0.021894
  14 H :    0.018058
  15 H :    0.029917
  16 S :    0.437741
  17 C :   -0.203221
  18 C :   -0.075094
  19 C :   -0.061498
  20 C :   -0.206020
  21 H :    0.037163
  22 C :   -0.038971
  23 H :    0.019999
  24 H :    0.032622
  25 C :   -0.042245
  26 H :    0.025601
  27 H :    0.023773
  28 C :   -0.057078
  29 H :    0.032206
  30 H :    0.021375
  31 H :    0.020128
  32 H :    0.034028
  33 H :    0.025886

  Mayer bond orders larger than 0.100000
B(  0-S ,  1-C ) :   1.1463 B(  0-S ,  4-C ) :   1.1481 B(  1-C ,  2-C ) :   1.5707
B(  1-C ,  4-C ) :   0.1031 B(  1-C , 32-H ) :   0.9602 B(  2-C ,  3-C ) :   1.2988
B(  2-C ,  6-C ) :   1.0396 B(  3-C ,  4-C ) :   1.5212 B(  3-C ,  5-H ) :   0.9798
B(  4-C , 20-C ) :   1.0361 B(  6-C ,  7-H ) :   0.9431 B(  6-C ,  8-H ) :   0.9346
B(  6-C ,  9-C ) :   1.0459 B(  9-C , 10-H ) :   0.9617 B(  9-C , 11-H ) :   0.9598
B(  9-C , 12-C ) :   1.0728 B( 12-C , 13-H ) :   0.9734 B( 12-C , 14-H ) :   0.9763
B( 12-C , 15-H ) :   0.9734 B( 16-S , 17-C ) :   1.1731 B( 16-S , 20-C ) :   1.1516
B( 17-C , 18-C ) :   1.6000 B( 17-C , 33-H ) :   0.9670 B( 18-C , 19-C ) :   1.2474
B( 18-C , 21-H ) :   0.9912 B( 19-C , 20-C ) :   1.5925 B( 19-C , 22-C ) :   1.0524
B( 22-C , 23-H ) :   0.9285 B( 22-C , 24-H ) :   0.9271 B( 22-C , 25-C ) :   1.0528
B( 25-C , 26-H ) :   0.9490 B( 25-C , 27-H ) :   0.9556 B( 25-C , 28-C ) :   1.0752
B( 28-C , 29-H ) :   0.9747 B( 28-C , 30-H ) :   0.9760 B( 28-C , 31-H ) :   0.9755

Dispersion correction           -0.014323545
FINAL SINGLE POINT ENERGY     -1339.875826259147

DIPOLE MOMENT
-------------
                                X             Y             Z
Electronic contribution:    -25.70932      15.70168      -2.60400
Nuclear contribution   :     26.28708     -16.02412       2.71012
                        -----------------------------------------
Total Dipole Moment    :      0.57777      -0.32244       0.10612
                        -----------------------------------------
Magnitude (a.u.)       :      0.67011
Magnitude (Debye)      :      1.70327

Rotational constants in cm-1:     0.016214     0.009159     0.007012
Rotational constants in MHz :   486.081826   274.569984   210.215244

                             ****ORCA TERMINATED NORMALLY****
TOTAL RUN TIME: 0 days 0 hours 0 minutes 34 seconds 758 msec
