                         Program Version 4.2.1 -  RELEASE  -
|  1> ! wB97X-D3 SP def2-SVP
|  2> %pal
|  3> nprocs 16
|  4> end
|  5>
|  6> * xyz 0 1
|  7> S 	 -41.9985 	 35.5787 	 80.443
|  8> C 	 -40.5406 	 36.4736 	 80.0064
|  9> C 	 -40.8074 	 37.7842 	 79.8078
| 10> C 	 -42.2064 	 38.1438 	 80.0318
| 11> C 	 -42.982 	 37.0687 	 80.485
| 12> H 	 -42.5842 	 39.1552 	 80.0126
| 13> C 	 -39.7427 	 38.8731 	 79.4267
| 14> H 	 -39.9179 	 39.2674 	 78.467
| 15> H 	 -38.7222 	 38.4921 	 79.3611
| 16> C 	 -39.6755 	 40.0586 	 80.3586
| 17> H 	 -38.958 	 40.7857 	 80.0098
| 18> H 	 -40.7146 	 40.4232 	 80.3572
| 19> C 	 -39.3741 	 39.5744 	 81.8308
| 20> H 	 -40.178 	 38.8614 	 82.0793
| 21> H 	 -38.4546 	 39.08 	 82.0688
| 22> H 	 -39.3961 	 40.3763 	 82.546
| 23> S 	 -45.6184 	 36.6713 	 79.6827
| 24> C 	 -46.8486 	 36.627 	 80.8754
| 25> C 	 -46.3273 	 36.604 	 82.1477
| 26> C 	 -44.9117 	 36.9642 	 82.1522
| 27> C 	 -44.4106 	 37.0432 	 80.8902
| 28> H 	 -46.9717 	 36.4562 	 82.9542
| 29> C 	 -44.2617 	 37.2352 	 83.5015
| 30> H 	 -43.595 	 36.4398 	 83.8218
| 31> H 	 -45.1128 	 37.0799 	 84.2059
| 32> C 	 -43.7229 	 38.6911 	 83.7736
| 33> H 	 -42.7751 	 38.8198 	 83.2539
| 34> H 	 -43.5679 	 38.9093 	 84.7977
| 35> C 	 -44.5974 	 39.7967 	 83.277
| 36> H 	 -44.3032 	 40.6814 	 83.8158
| 37> H 	 -45.6009 	 39.5436 	 83.5868
| 38> H 	 -44.7063 	 40.032 	 82.222
| 39> H 	 -39.5781 	 36.0253 	 79.8588
| 40> H 	 -47.9132 	 36.6004 	 80.6163
| 41> *
| 42>
| 43>                          ****END OF INPUT****

CARTESIAN COORDINATES (ANGSTROEM)
---------------------------------
  S    -41.998500   35.578700   80.443000
  C    -40.540600   36.473600   80.006400
  C    -40.807400   37.784200   79.807800
  C    -42.206400   38.143800   80.031800
  C    -42.982000   37.068700   80.485000
  H    -42.584200   39.155200   80.012600
  C    -39.742700   38.873100   79.426700
  H    -39.917900   39.267400   78.467000
  H    -38.722200   38.492100   79.361100
  C    -39.675500   40.058600   80.358600
  H    -38.958000   40.785700   80.009800
  H    -40.714600   40.423200   80.357200
  C    -39.374100   39.574400   81.830800
  H    -40.178000   38.861400   82.079300
  H    -38.454600   39.080000   82.068800
  H    -39.396100   40.376300   82.546000
  S    -45.618400   36.671300   79.682700
  C    -46.848600   36.627000   80.875400
  C    -46.327300   36.604000   82.147700
  C    -44.911700   36.964200   82.152200
  C    -44.410600   37.043200   80.890200
  H    -46.971700   36.456200   82.954200
  C    -44.261700   37.235200   83.501500
  H    -43.595000   36.439800   83.821800
  H    -45.112800   37.079900   84.205900
  C    -43.722900   38.691100   83.773600
  H    -42.775100   38.819800   83.253900
  H    -43.567900   38.909300   84.797700
  C    -44.597400   39.796700   83.277000
  H    -44.303200   40.681400   83.815800
  H    -45.600900   39.543600   83.586800
  H    -44.706300   40.032000   82.222000
  H    -39.578100   36.025300   79.858800
  H    -47.913200   36.600400   80.616300

 Total Charge           Charge          ....    0
 Multiplicity           Mult            ....    1
 Number of Electrons    NEL             ....  134
 Basis Dimension        Dim             ....  322

ORBITAL ENERGIES
----------------

  NO   OCC          E(Eh)            E(eV)
   0   2.0000     -88.964272     -2420.8409
   1   2.0000     -88.963662     -2420.8243
   2   2.0000     -10.336979      -281.2835
   3   2.0000     -10.324145      -280.9343
   4   2.0000     -10.317085      -280.7422
   5   2.0000     -10.313101      -280.6337
   6   2.0000     -10.306354      -280.4501
   7   2.0000     -10.305070      -280.4152
   8   2.0000     -10.301511      -280.3184
   9   2.0000     -10.295036      -280.1422
  10   2.0000     -10.291412      -280.0436
  11   2.0000     -10.288276      -279.9582
  12   2.0000     -10.288111      -279.9537
  13   2.0000     -10.281137      -279.7640
  14   2.0000     -10.271060      -279.4898
  15   2.0000     -10.266273      -279.3595
  16   2.0000      -8.079471      -219.8536
  17   2.0000      -8.078270      -219.8209
  18   2.0000      -6.037954      -164.3011
  19   2.0000      -6.036945      -164.2736
  20   2.0000      -6.033823      -164.1887
  21   2.0000      -6.032879      -164.1630
  22   2.0000      -6.030198      -164.0900
  23   2.0000      -6.028889      -164.0544
  24   2.0000      -1.005848       -27.3705
  25   2.0000      -0.982066       -26.7234
  26   2.0000      -0.909389       -24.7457
  27   2.0000      -0.907068       -24.6826
  28   2.0000      -0.867093       -23.5948
  29   2.0000      -0.853366       -23.2213
  30   2.0000      -0.834622       -22.7112
  31   2.0000      -0.814115       -22.1532
  32   2.0000      -0.785056       -21.3625
  33   2.0000      -0.777207       -21.1489
  34   2.0000      -0.708554       -19.2807
  35   2.0000      -0.694123       -18.8880
  36   2.0000      -0.685864       -18.6633
  37   2.0000      -0.665859       -18.1190
  38   2.0000      -0.640734       -17.4353
  39   2.0000      -0.621397       -16.9091
  40   2.0000      -0.588600       -16.0166
  41   2.0000      -0.572111       -15.5679
  42   2.0000      -0.558289       -15.1918
  43   2.0000      -0.552855       -15.0439
  44   2.0000      -0.547656       -14.9025
  45   2.0000      -0.541857       -14.7447
  46   2.0000      -0.515894       -14.0382
  47   2.0000      -0.506582       -13.7848
  48   2.0000      -0.503266       -13.6946
  49   2.0000      -0.489552       -13.3214
  50   2.0000      -0.486961       -13.2509
  51   2.0000      -0.475942       -12.9510
  52   2.0000      -0.471245       -12.8232
  53   2.0000      -0.462987       -12.5985
  54   2.0000      -0.459871       -12.5137
  55   2.0000      -0.449284       -12.2257
  56   2.0000      -0.445251       -12.1159
  57   2.0000      -0.434321       -11.8185
  58   2.0000      -0.430361       -11.7107
  59   2.0000      -0.424929       -11.5629
  60   2.0000      -0.418034       -11.3753
  61   2.0000      -0.414255       -11.2724
  62   2.0000      -0.404029       -10.9942
  63   2.0000      -0.333311        -9.0698
  64   2.0000      -0.327951        -8.9240
  65   2.0000      -0.321952        -8.7608
  66   2.0000      -0.320382        -8.7180
  67   0.0000       0.042800         1.1647
  68   0.0000       0.055486         1.5099
  69   0.0000       0.111715         3.0399
  70   0.0000       0.124148         3.3782
  71   0.0000       0.126687         3.4473

MULLIKEN ATOMIC CHARGES
-----------------------
   0 S :    0.104876
   1 C :   -0.117911
   2 C :   -0.094281
   3 C :    0.042618
   4 C :   -0.165867
   5 H :    0.019391
   6 C :    0.101859
   7 H :    0.021458
   8 H :    0.010639
   9 C :   -0.086516
  10 H :    0.038273
  11 H :    0.029065
  12 C :   -0.065159
  13 H :    0.050572
  14 H :    0.022039
  15 H :    0.023393
  16 S :    0.117819
  17 C :   -0.104573
  18 C :   -0.011627
  19 C :   -0.041901
  20 C :   -0.181536
  21 H :    0.002419
  22 C :    0.083670
  23 H :    0.040891
  24 H :    0.009807
  25 C :   -0.048408
  26 H :    0.034722
  27 H :    0.024863
  28 C :   -0.039870
  29 H :    0.025531
  30 H :    0.006202
  31 H :    0.037069
  32 H :    0.043261
  33 H :    0.067212
Sum of atomic charges:    0.0000000

LOEWDIN ATOMIC CHARGES
----------------------
   0 S :    0.381545
   1 C :   -0.184236
   2 C :   -0.063678
   3 C :   -0.058535
   4 C :   -0.178826
   5 H :    0.030236
   6 C :   -0.026978
   7 H :    0.023987
   8 H :    0.025864
   9 C :   -0.034862
  10 H :    0.023924
  11 H :    0.024298
  12 C :   -0.070694
  13 H :    0.030849
  14 H :    0.019819
  15 H :    0.020025
  16 S :    0.420230
  17 C :   -0.187823
  18 C :   -0.067290
  19 C :   -0.047052
  20 C :   -0.214618
  21 H :    0.020897
  22 C :   -0.032737
  23 H :    0.033938
  24 H :    0.031623
  25 C :   -0.034704
  26 H :    0.023965
  27 H :    0.023773
  28 C :   -0.065342
  29 H :    0.025991
  30 H :    0.020219
  31 H :    0.024265
  32 H :    0.028221
  33 H :    0.033707

  Mayer bond orders larger than 0.100000
B(  0-S ,  1-C ) :   1.1231 B(  0-S ,  4-C ) :   1.1425 B(  1-C ,  2-C ) :   1.6605
B(  1-C , 32-H ) :   0.9680 B(  2-C ,  3-C ) :   1.2031 B(  2-C ,  6-C ) :   1.0081
B(  3-C ,  4-C ) :   1.6129 B(  3-C ,  5-H ) :   0.9899 B(  4-C , 20-C ) :   1.0201
B(  6-C ,  7-H ) :   0.9408 B(  6-C ,  8-H ) :   0.9468 B(  6-C ,  9-C ) :   1.0756
B(  9-C , 10-H ) :   0.9574 B(  9-C , 11-H ) :   0.9561 B(  9-C , 12-C ) :   1.0658
B( 12-C , 13-H ) :   0.9716 B( 12-C , 14-H ) :   0.9761 B( 12-C , 15-H ) :   0.9771
B( 16-S , 17-C ) :   1.1703 B( 16-S , 20-C ) :   1.1416 B( 17-C , 18-C ) :   1.6135
B( 17-C , 33-H ) :   0.9649 B( 18-C , 19-C ) :   1.2322 B( 18-C , 21-H ) :   0.9958
B( 19-C , 20-C ) :   1.6180 B( 19-C , 22-C ) :   1.0346 B( 22-C , 23-H ) :   0.9313
B( 22-C , 24-H ) :   0.9327 B( 22-C , 25-C ) :   1.0674 B( 25-C , 26-H ) :   0.9515
B( 25-C , 27-H ) :   0.9586 B( 25-C , 28-C ) :   1.0857 B( 28-C , 29-H ) :   0.9731
B( 28-C , 30-H ) :   0.9732 B( 28-C , 31-H ) :   0.9698

Dispersion correction           -0.016103514
FINAL SINGLE POINT ENERGY     -1339.874677815622

DIPOLE MOMENT
-------------
                                X             Y             Z
Electronic contribution:    -11.70016     -20.00218     -14.03341
Nuclear contribution   :     11.77765      20.38654      14.36540
                        -----------------------------------------
Total Dipole Moment    :      0.07749       0.38436       0.33199
                        -----------------------------------------
Magnitude (a.u.)       :      0.51377
Magnitude (Debye)      :      1.30589

Rotational constants in cm-1:     0.020057     0.009615     0.007783
Rotational constants in MHz :   601.287332   288.247982   233.313554

                             ****ORCA TERMINATED NORMALLY****
TOTAL RUN TIME: 0 days 0 hours 0 minutes 30 seconds 750 msec
