                         Program Version 4.2.1 -  RELEASE  -
|  1> ! wB97X-D3 SP def2-SVP
|  2> %pal
|  3> nprocs 16
|  4> end
|  5>
|  6> * xyz 0 1
|  7> S 	 43.7922 	 22.5815 	 47.1668
|  8> C 	 43.5368 	 21.7532 	 45.5961
|  9> C 	 43.6126 	 22.6097 	 44.5076
| 10> C 	 43.56 	 23.9455 	 44.9136
| 11> C 	 43.5413 	 24.1067 	 46.2782
| 12> H 	 43.568 	 24.857 	 44.3269
| 13> C 	 43.6166 	 22.0773 	 43.1296
| 14> H 	 44.1499 	 21.1208 	 43.022
| 15> H 	 44.364 	 22.5292 	 42.5082
| 16> C 	 42.2418 	 22.0936 	 42.3731
| 17> H 	 41.9616 	 23.1287 	 42.1535
| 18> H 	 42.3742 	 21.7075 	 41.4141
| 19> C 	 41.108 	 21.3946 	 43.135
| 20> H 	 41.0754 	 21.8591 	 44.1136
| 21> H 	 40.2095 	 21.5131 	 42.5778
| 22> H 	 41.362 	 20.3219 	 43.1989
| 23> S 	 45.0575 	 26.1826 	 47.0271
| 24> C 	 44.3565 	 27.6713 	 47.5981
| 25> C 	 43.0076 	 27.4694 	 47.9269
| 26> C 	 42.516 	 26.1931 	 47.4533
| 27> C 	 43.5205 	 25.4324 	 46.9197
| 28> H 	 42.5063 	 28.3201 	 48.3571
| 29> C 	 41.0585 	 25.7343 	 47.5499
| 30> H 	 40.7723 	 24.9651 	 46.8431
| 31> H 	 40.35 	 26.5162 	 47.1923
| 32> C 	 40.747 	 25.1801 	 48.9577
| 33> H 	 41.1719 	 25.9149 	 49.7203
| 34> H 	 41.1946 	 24.1705 	 48.9944
| 35> C 	 39.2414 	 24.942 	 49.1811
| 36> H 	 38.6092 	 25.8448 	 49.0636
| 37> H 	 39.0291 	 24.5026 	 50.1673
| 38> H 	 39.0133 	 24.1767 	 48.4753
| 39> H 	 43.4929 	 20.6818 	 45.459
| 40> H 	 44.9669 	 28.506 	 47.8251
| 41> *
| 42>
| 43>                          ****END OF INPUT****

CARTESIAN COORDINATES (ANGSTROEM)
---------------------------------
  S     43.792200   22.581500   47.166800
  C     43.536800   21.753200   45.596100
  C     43.612600   22.609700   44.507600
  C     43.560000   23.945500   44.913600
  C     43.541300   24.106700   46.278200
  H     43.568000   24.857000   44.326900
  C     43.616600   22.077300   43.129600
  H     44.149900   21.120800   43.022000
  H     44.364000   22.529200   42.508200
  C     42.241800   22.093600   42.373100
  H     41.961600   23.128700   42.153500
  H     42.374200   21.707500   41.414100
  C     41.108000   21.394600   43.135000
  H     41.075400   21.859100   44.113600
  H     40.209500   21.513100   42.577800
  H     41.362000   20.321900   43.198900
  S     45.057500   26.182600   47.027100
  C     44.356500   27.671300   47.598100
  C     43.007600   27.469400   47.926900
  C     42.516000   26.193100   47.453300
  C     43.520500   25.432400   46.919700
  H     42.506300   28.320100   48.357100
  C     41.058500   25.734300   47.549900
  H     40.772300   24.965100   46.843100
  H     40.350000   26.516200   47.192300
  C     40.747000   25.180100   48.957700
  H     41.171900   25.914900   49.720300
  H     41.194600   24.170500   48.994400
  C     39.241400   24.942000   49.181100
  H     38.609200   25.844800   49.063600
  H     39.029100   24.502600   50.167300
  H     39.013300   24.176700   48.475300
  H     43.492900   20.681800   45.459000
  H     44.966900   28.506000   47.825100

 Total Charge           Charge          ....    0
 Multiplicity           Mult            ....    1
 Number of Electrons    NEL             ....  134
 Basis Dimension        Dim             ....  322

ORBITAL ENERGIES
----------------

  NO   OCC          E(Eh)            E(eV)
   0   2.0000     -88.970808     -2421.0188
   1   2.0000     -88.960270     -2420.7320
   2   2.0000     -10.328315      -281.0477
   3   2.0000     -10.318543      -280.7818
   4   2.0000     -10.316364      -280.7225
   5   2.0000     -10.315153      -280.6896
   6   2.0000     -10.305583      -280.4292
   7   2.0000     -10.299321      -280.2588
   8   2.0000     -10.297984      -280.2224
   9   2.0000     -10.292566      -280.0750
  10   2.0000     -10.290575      -280.0208
  11   2.0000     -10.289522      -279.9921
  12   2.0000     -10.289031      -279.9788
  13   2.0000     -10.282295      -279.7955
  14   2.0000     -10.275086      -279.5993
  15   2.0000     -10.272476      -279.5283
  16   2.0000      -8.084050      -219.9782
  17   2.0000      -8.076217      -219.7650
  18   2.0000      -6.042502      -164.4248
  19   2.0000      -6.039076      -164.3316
  20   2.0000      -6.034662      -164.2115
  21   2.0000      -6.034542      -164.2082
  22   2.0000      -6.030536      -164.0992
  23   2.0000      -6.027113      -164.0061
  24   2.0000      -1.007194       -27.4071
  25   2.0000      -0.983781       -26.7700
  26   2.0000      -0.910049       -24.7637
  27   2.0000      -0.903873       -24.5956
  28   2.0000      -0.865492       -23.5512
  29   2.0000      -0.849441       -23.1145
  30   2.0000      -0.846485       -23.0340
  31   2.0000      -0.814879       -22.1740
  32   2.0000      -0.783706       -21.3257
  33   2.0000      -0.771284       -20.9877
  34   2.0000      -0.705920       -19.2091
  35   2.0000      -0.694429       -18.8964
  36   2.0000      -0.687132       -18.6978
  37   2.0000      -0.663871       -18.0649
  38   2.0000      -0.642283       -17.4774
  39   2.0000      -0.619778       -16.8650
  40   2.0000      -0.599863       -16.3231
  41   2.0000      -0.574061       -15.6210
  42   2.0000      -0.561270       -15.2729
  43   2.0000      -0.547461       -14.8972
  44   2.0000      -0.541373       -14.7315
  45   2.0000      -0.520414       -14.1612
  46   2.0000      -0.517291       -14.0762
  47   2.0000      -0.509829       -13.8731
  48   2.0000      -0.504259       -13.7216
  49   2.0000      -0.492288       -13.3958
  50   2.0000      -0.487405       -13.2630
  51   2.0000      -0.471284       -12.8243
  52   2.0000      -0.468043       -12.7361
  53   2.0000      -0.464362       -12.6359
  54   2.0000      -0.461586       -12.5604
  55   2.0000      -0.450089       -12.2475
  56   2.0000      -0.444847       -12.1049
  57   2.0000      -0.436567       -11.8796
  58   2.0000      -0.428652       -11.6642
  59   2.0000      -0.424799       -11.5594
  60   2.0000      -0.420806       -11.4507
  61   2.0000      -0.411944       -11.2096
  62   2.0000      -0.408058       -11.1038
  63   2.0000      -0.340052        -9.2533
  64   2.0000      -0.327878        -8.9220
  65   2.0000      -0.317344        -8.6354
  66   2.0000      -0.311263        -8.4699
  67   0.0000       0.039661         1.0792
  68   0.0000       0.055293         1.5046
  69   0.0000       0.101678         2.7668
  70   0.0000       0.119512         3.2521
  71   0.0000       0.129420         3.5217

MULLIKEN ATOMIC CHARGES
-----------------------
   0 S :    0.115436
   1 C :   -0.114919
   2 C :   -0.054304
   3 C :    0.042465
   4 C :   -0.161531
   5 H :    0.018777
   6 C :    0.049965
   7 H :    0.014276
   8 H :    0.011372
   9 C :   -0.050547
  10 H :    0.021426
  11 H :    0.009286
  12 C :   -0.041029
  13 H :    0.051856
  14 H :    0.032394
  15 H :    0.029935
  16 S :    0.113300
  17 C :   -0.098730
  18 C :   -0.038847
  19 C :    0.014062
  20 C :   -0.206503
  21 H :    0.021856
  22 C :    0.052242
  23 H :    0.017014
  24 H :    0.025240
  25 C :   -0.107790
  26 H :    0.043333
  27 H :    0.037632
  28 C :   -0.033984
  29 H :    0.038114
  30 H :    0.035669
  31 H :    0.020578
  32 H :    0.042668
  33 H :    0.049288
Sum of atomic charges:   -0.0000000

LOEWDIN ATOMIC CHARGES
----------------------
   0 S :    0.374963
   1 C :   -0.173560
   2 C :   -0.065205
   3 C :   -0.051894
   4 C :   -0.187425
   5 H :    0.037233
   6 C :   -0.044808
   7 H :    0.034580
   8 H :    0.032728
   9 C :   -0.031799
  10 H :    0.021861
  11 H :    0.013606
  12 C :   -0.060534
  13 H :    0.027873
  14 H :    0.022761
  15 H :    0.026415
  16 S :    0.423392
  17 C :   -0.181597
  18 C :   -0.067738
  19 C :   -0.052296
  20 C :   -0.214921
  21 H :    0.031415
  22 C :   -0.038641
  23 H :    0.028310
  24 H :    0.030797
  25 C :   -0.041551
  26 H :    0.026954
  27 H :    0.028676
  28 C :   -0.068296
  29 H :    0.025639
  30 H :    0.027914
  31 H :    0.021219
  32 H :    0.024057
  33 H :    0.019872

  Mayer bond orders larger than 0.100000
B(  0-S ,  1-C ) :   1.1300 B(  0-S ,  4-C ) :   1.1314 B(  1-C ,  2-C ) :   1.6091
B(  1-C ,  4-C ) :   0.1018 B(  1-C , 32-H ) :   0.9678 B(  2-C ,  3-C ) :   1.2094
B(  2-C ,  6-C ) :   1.0451 B(  3-C ,  4-C ) :   1.6096 B(  3-C ,  5-H ) :   0.9986
B(  4-C , 20-C ) :   0.9975 B(  6-C ,  7-H ) :   0.9338 B(  6-C ,  8-H ) :   0.9256
B(  6-C ,  9-C ) :   1.0644 B(  9-C , 10-H ) :   0.9573 B(  9-C , 11-H ) :   0.9525
B(  9-C , 12-C ) :   1.0774 B( 12-C , 13-H ) :   0.9732 B( 12-C , 14-H ) :   0.9734
B( 12-C , 15-H ) :   0.9759 B( 16-S , 17-C ) :   1.1645 B( 16-S , 20-C ) :   1.1683
B( 17-C , 18-C ) :   1.6029 B( 17-C , 33-H ) :   0.9750 B( 18-C , 19-C ) :   1.2130
B( 18-C , 21-H ) :   0.9960 B( 19-C , 20-C ) :   1.6233 B( 19-C , 22-C ) :   1.0448
B( 22-C , 23-H ) :   0.9299 B( 22-C , 24-H ) :   0.9418 B( 22-C , 25-C ) :   1.0517
B( 25-C , 26-H ) :   0.9629 B( 25-C , 27-H ) :   0.9520 B( 25-C , 28-C ) :   1.0780
B( 28-C , 29-H ) :   0.9769 B( 28-C , 30-H ) :   0.9736 B( 28-C , 31-H ) :   0.9724

Dispersion correction           -0.014691167
FINAL SINGLE POINT ENERGY     -1339.871917653972

DIPOLE MOMENT
-------------
                                X             Y             Z
Electronic contribution:     21.59557       6.60891       7.87097
Nuclear contribution   :    -21.84999      -6.57140      -8.26956
                        -----------------------------------------
Total Dipole Moment    :     -0.25442       0.03752      -0.39859
                        -----------------------------------------
Magnitude (a.u.)       :      0.47435
Magnitude (Debye)      :      1.20571

Rotational constants in cm-1:     0.018027     0.008809     0.007211
Rotational constants in MHz :   540.424128   264.092867   216.167847

                             ****ORCA TERMINATED NORMALLY****
TOTAL RUN TIME: 0 days 0 hours 0 minutes 35 seconds 317 msec
