                         Program Version 4.2.1 -  RELEASE  -
|  1> ! wB97X-D3 SP def2-SVP
|  2> %pal
|  3> nprocs 16
|  4> end
|  5>
|  6> * xyz 0 1
|  7> S 	 14.5833 	 19.6702 	 40.8837
|  8> C 	 15.447 	 19.6375 	 39.365
|  9> C 	 14.9997 	 18.547 	 38.5821
| 10> C 	 13.909 	 17.8617 	 39.152
| 11> C 	 13.5776 	 18.2582 	 40.4555
| 12> H 	 13.3298 	 17.0272 	 38.6291
| 13> C 	 15.7563 	 18.1475 	 37.2968
| 14> H 	 15.992 	 17.075 	 37.365
| 15> H 	 16.6358 	 18.7373 	 37.3784
| 16> C 	 14.9674 	 18.4738 	 36.061
| 17> H 	 15.4256 	 17.8656 	 35.2899
| 18> H 	 13.9223 	 18.1053 	 36.1636
| 19> C 	 15.1313 	 19.8928 	 35.6597
| 20> H 	 14.9723 	 20.5818 	 36.4395
| 21> H 	 16.1341 	 20.1536 	 35.2166
| 22> H 	 14.4354 	 20.1254 	 34.8094
| 23> S 	 12.7003 	 16.4122 	 42.3115
| 24> C 	 11.0112 	 16.5643 	 42.8819
| 25> C 	 10.3145 	 17.572 	 42.2398
| 26> C 	 11.0872 	 18.3149 	 41.3181
| 27> C 	 12.3834 	 17.8292 	 41.2006
| 28> H 	 9.24089 	 17.7891 	 42.5172
| 29> C 	 10.4074 	 19.3962 	 40.5472
| 30> H 	 9.33504 	 19.1131 	 40.3381
| 31> H 	 10.8479 	 19.5348 	 39.592
| 32> C 	 10.4393 	 20.7109 	 41.2584
| 33> H 	 10.1706 	 21.3904 	 40.5323
| 34> H 	 11.3789 	 20.8569 	 41.7201
| 35> C 	 9.35337 	 20.7995 	 42.3485
| 36> H 	 9.49331 	 20.1297 	 43.1883
| 37> H 	 8.3979 	 20.6999 	 41.8587
| 38> H 	 9.18176 	 21.8301 	 42.6371
| 39> H 	 15.9772 	 20.4341 	 38.9423
| 40> H 	 10.6112 	 16.0044 	 43.7301
| 41> *
| 42>
| 43>                          ****END OF INPUT****

CARTESIAN COORDINATES (ANGSTROEM)
---------------------------------
  S     14.583300   19.670200   40.883700
  C     15.447000   19.637500   39.365000
  C     14.999700   18.547000   38.582100
  C     13.909000   17.861700   39.152000
  C     13.577600   18.258200   40.455500
  H     13.329800   17.027200   38.629100
  C     15.756300   18.147500   37.296800
  H     15.992000   17.075000   37.365000
  H     16.635800   18.737300   37.378400
  C     14.967400   18.473800   36.061000
  H     15.425600   17.865600   35.289900
  H     13.922300   18.105300   36.163600
  C     15.131300   19.892800   35.659700
  H     14.972300   20.581800   36.439500
  H     16.134100   20.153600   35.216600
  H     14.435400   20.125400   34.809400
  S     12.700300   16.412200   42.311500
  C     11.011200   16.564300   42.881900
  C     10.314500   17.572000   42.239800
  C     11.087200   18.314900   41.318100
  C     12.383400   17.829200   41.200600
  H      9.240890   17.789100   42.517200
  C     10.407400   19.396200   40.547200
  H      9.335040   19.113100   40.338100
  H     10.847900   19.534800   39.592000
  C     10.439300   20.710900   41.258400
  H     10.170600   21.390400   40.532300
  H     11.378900   20.856900   41.720100
  C      9.353370   20.799500   42.348500
  H      9.493310   20.129700   43.188300
  H      8.397900   20.699900   41.858700
  H      9.181760   21.830100   42.637100
  H     15.977200   20.434100   38.942300
  H     10.611200   16.004400   43.730100

 Total Charge           Charge          ....    0
 Multiplicity           Mult            ....    1
 Number of Electrons    NEL             ....  134
 Basis Dimension        Dim             ....  322

ORBITAL ENERGIES
----------------

  NO   OCC          E(Eh)            E(eV)
   0   2.0000     -88.967924     -2420.9403
   1   2.0000     -88.964509     -2420.8474
   2   2.0000     -10.332709      -281.1673
   3   2.0000     -10.332304      -281.1563
   4   2.0000     -10.321543      -280.8635
   5   2.0000     -10.313766      -280.6518
   6   2.0000     -10.304181      -280.3910
   7   2.0000     -10.301117      -280.3077
   8   2.0000     -10.300764      -280.2980
   9   2.0000     -10.296324      -280.1772
  10   2.0000     -10.288077      -279.9528
  11   2.0000     -10.284898      -279.8663
  12   2.0000     -10.283379      -279.8250
  13   2.0000     -10.278773      -279.6996
  14   2.0000     -10.271578      -279.5039
  15   2.0000     -10.271234      -279.4945
  16   2.0000      -8.081633      -219.9124
  17   2.0000      -8.077672      -219.8046
  18   2.0000      -6.040046      -164.3580
  19   2.0000      -6.036182      -164.2529
  20   2.0000      -6.036153      -164.2521
  21   2.0000      -6.032666      -164.1572
  22   2.0000      -6.032552      -164.1541
  23   2.0000      -6.028372      -164.0403
  24   2.0000      -0.996501       -27.1162
  25   2.0000      -0.977389       -26.5961
  26   2.0000      -0.919480       -25.0203
  27   2.0000      -0.916893       -24.9499
  28   2.0000      -0.863999       -23.5106
  29   2.0000      -0.847102       -23.0508
  30   2.0000      -0.845342       -23.0029
  31   2.0000      -0.810340       -22.0505
  32   2.0000      -0.785370       -21.3710
  33   2.0000      -0.772315       -21.0158
  34   2.0000      -0.712226       -19.3807
  35   2.0000      -0.696595       -18.9553
  36   2.0000      -0.688764       -18.7422
  37   2.0000      -0.660456       -17.9719
  38   2.0000      -0.633772       -17.2458
  39   2.0000      -0.616542       -16.7770
  40   2.0000      -0.605903       -16.4875
  41   2.0000      -0.572024       -15.5656
  42   2.0000      -0.556288       -15.1374
  43   2.0000      -0.551332       -15.0025
  44   2.0000      -0.545101       -14.8329
  45   2.0000      -0.537959       -14.6386
  46   2.0000      -0.524865       -14.2823
  47   2.0000      -0.512267       -13.9395
  48   2.0000      -0.497248       -13.5308
  49   2.0000      -0.495423       -13.4811
  50   2.0000      -0.486423       -13.2362
  51   2.0000      -0.477484       -12.9930
  52   2.0000      -0.473660       -12.8890
  53   2.0000      -0.464637       -12.6434
  54   2.0000      -0.456002       -12.4085
  55   2.0000      -0.446317       -12.1449
  56   2.0000      -0.442656       -12.0453
  57   2.0000      -0.436465       -11.8768
  58   2.0000      -0.429120       -11.6769
  59   2.0000      -0.426425       -11.6036
  60   2.0000      -0.421060       -11.4576
  61   2.0000      -0.416157       -11.3242
  62   2.0000      -0.404481       -11.0065
  63   2.0000      -0.336507        -9.1568
  64   2.0000      -0.331695        -9.0259
  65   2.0000      -0.312274        -8.4974
  66   2.0000      -0.308995        -8.4082
  67   0.0000       0.035254         0.9593
  68   0.0000       0.045528         1.2389
  69   0.0000       0.102607         2.7921
  70   0.0000       0.119603         3.2546
  71   0.0000       0.120689         3.2841

MULLIKEN ATOMIC CHARGES
-----------------------
   0 S :    0.115139
   1 C :   -0.105871
   2 C :   -0.140079
   3 C :    0.028075
   4 C :   -0.155385
   5 H :    0.043355
   6 C :    0.081914
   7 H :    0.041764
   8 H :    0.006508
   9 C :   -0.043415
  10 H :    0.022310
  11 H :    0.037040
  12 C :   -0.057762
  13 H :    0.018891
  14 H :    0.033081
  15 H :    0.036843
  16 S :    0.090148
  17 C :   -0.089948
  18 C :   -0.066503
  19 C :    0.002069
  20 C :   -0.214417
  21 H :    0.045262
  22 C :    0.067742
  23 H :    0.027355
  24 H :    0.014197
  25 C :    0.004409
  26 H :    0.008177
  27 H :    0.024041
  28 C :   -0.055099
  29 H :    0.049607
  30 H :    0.003360
  31 H :    0.021127
  32 H :    0.044611
  33 H :    0.061452
Sum of atomic charges:   -0.0000000

LOEWDIN ATOMIC CHARGES
----------------------
   0 S :    0.402527
   1 C :   -0.200394
   2 C :   -0.063914
   3 C :   -0.065334
   4 C :   -0.203935
   5 H :    0.045342
   6 C :   -0.022332
   7 H :    0.035899
   8 H :    0.024369
   9 C :   -0.047385
  10 H :    0.024961
  11 H :    0.028998
  12 C :   -0.067493
  13 H :    0.013515
  14 H :    0.031533
  15 H :    0.033103
  16 S :    0.360092
  17 C :   -0.169234
  18 C :   -0.080938
  19 C :   -0.047259
  20 C :   -0.179184
  21 H :    0.043039
  22 C :   -0.027273
  23 H :    0.035927
  24 H :    0.026110
  25 C :   -0.021859
  26 H :    0.017550
  27 H :    0.020274
  28 C :   -0.067984
  29 H :    0.023818
  30 H :    0.020739
  31 H :    0.026671
  32 H :    0.019342
  33 H :    0.030708

  Mayer bond orders larger than 0.100000
B(  0-S ,  1-C ) :   1.1599 B(  0-S ,  4-C ) :   1.1462 B(  1-C ,  2-C ) :   1.5713
B(  1-C ,  4-C ) :   0.1085 B(  1-C , 32-H ) :   0.9659 B(  2-C ,  3-C ) :   1.2850
B(  2-C ,  6-C ) :   1.0115 B(  3-C ,  4-C ) :   1.5627 B(  3-C ,  5-H ) :   0.9766
B(  4-C , 20-C ) :   1.0180 B(  6-C ,  7-H ) :   0.9439 B(  6-C ,  8-H ) :   0.9401
B(  6-C ,  9-C ) :   1.0681 B(  9-C , 10-H ) :   0.9490 B(  9-C , 11-H ) :   0.9580
B(  9-C , 12-C ) :   1.0816 B( 12-C , 13-H ) :   0.9778 B( 12-C , 14-H ) :   0.9707
B( 12-C , 15-H ) :   0.9697 B( 16-S , 17-C ) :   1.1450 B( 16-S , 20-C ) :   1.1223
B( 17-C , 18-C ) :   1.6327 B( 17-C , 20-C ) :   0.1029 B( 17-C , 33-H ) :   0.9626
B( 18-C , 19-C ) :   1.2262 B( 18-C , 21-H ) :   0.9707 B( 19-C , 20-C ) :   1.6263
B( 19-C , 22-C ) :   1.0432 B( 22-C , 23-H ) :   0.9377 B( 22-C , 24-H ) :   0.9261
B( 22-C , 25-C ) :   1.0792 B( 25-C , 26-H ) :   0.9485 B( 25-C , 27-H ) :   0.9497
B( 25-C , 28-C ) :   1.0944 B( 28-C , 29-H ) :   0.9730 B( 28-C , 30-H ) :   0.9674
B( 28-C , 31-H ) :   0.9689

Dispersion correction           -0.014732902
FINAL SINGLE POINT ENERGY     -1339.859765327427

DIPOLE MOMENT
-------------
                                X             Y             Z
Electronic contribution:      7.26817     -11.92148      16.99182
Nuclear contribution   :     -7.62174      12.15857     -17.54178
                        -----------------------------------------
Total Dipole Moment    :     -0.35357       0.23710      -0.54996
                        -----------------------------------------
Magnitude (a.u.)       :      0.69548
Magnitude (Debye)      :      1.76776

Rotational constants in cm-1:     0.021245     0.007813     0.006831
Rotational constants in MHz :   636.916570   234.221804   204.780834

                             ****ORCA TERMINATED NORMALLY****
TOTAL RUN TIME: 0 days 0 hours 0 minutes 34 seconds 687 msec
