                         Program Version 4.2.1 -  RELEASE  -
|  1> ! wB97X-D3 SP def2-SVP
|  2> %pal
|  3> nprocs 16
|  4> end
|  5>
|  6> * xyz 0 1
|  7> S 	 -41.0553 	 25.9796 	 79.5028
|  8> C 	 -42.3101 	 27.1133 	 79.9286
|  9> C 	 -43.4991 	 26.922 	 79.2261
| 10> C 	 -43.387 	 25.7782 	 78.353
| 11> C 	 -42.1444 	 25.1937 	 78.451
| 12> H 	 -44.2031 	 25.3736 	 77.6954
| 13> C 	 -44.784 	 27.7394 	 79.1854
| 14> H 	 -45.5765 	 27.0676 	 79.4025
| 15> H 	 -45.0607 	 28.1228 	 78.2394
| 16> C 	 -44.7929 	 28.8278 	 80.2342
| 17> H 	 -44.599 	 28.349 	 81.1857
| 18> H 	 -44.0472 	 29.6116 	 80.0724
| 19> C 	 -46.0533 	 29.6645 	 80.3267
| 20> H 	 -46.3493 	 30.0609 	 79.3949
| 21> H 	 -46.7814 	 29.0127 	 80.7773
| 22> H 	 -45.8762 	 30.5512 	 80.9441
| 23> S 	 -40.8037 	 23.9584 	 76.3976
| 24> C 	 -40.5786 	 22.2492 	 76.373
| 25> C 	 -41.295 	 21.6715 	 77.4004
| 26> C 	 -42.0343 	 22.5851 	 78.2016
| 27> C 	 -41.8339 	 23.9599 	 77.8452
| 28> H 	 -41.4341 	 20.6317 	 77.4351
| 29> C 	 -42.8704 	 22.065 	 79.3691
| 30> H 	 -43.497 	 21.2519 	 78.9421
| 31> H 	 -43.3894 	 22.8747 	 79.912
| 32> C 	 -41.9062 	 21.4891 	 80.5416
| 33> H 	 -41.0825 	 22.18 	 80.5632
| 34> H 	 -41.4458 	 20.547 	 80.341
| 35> C 	 -42.5443 	 21.5008 	 81.9286
| 36> H 	 -42.7747 	 22.5687 	 82.1413
| 37> H 	 -41.8448 	 21.2171 	 82.6478
| 38> H 	 -43.3493 	 20.8195 	 81.8992
| 39> H 	 -41.9985 	 27.9782 	 80.6052
| 40> H 	 -40.1082 	 21.7475 	 75.5704
| 41> *
| 42>
| 43>                          ****END OF INPUT****

CARTESIAN COORDINATES (ANGSTROEM)
---------------------------------
  S    -41.055300   25.979600   79.502800
  C    -42.310100   27.113300   79.928600
  C    -43.499100   26.922000   79.226100
  C    -43.387000   25.778200   78.353000
  C    -42.144400   25.193700   78.451000
  H    -44.203100   25.373600   77.695400
  C    -44.784000   27.739400   79.185400
  H    -45.576500   27.067600   79.402500
  H    -45.060700   28.122800   78.239400
  C    -44.792900   28.827800   80.234200
  H    -44.599000   28.349000   81.185700
  H    -44.047200   29.611600   80.072400
  C    -46.053300   29.664500   80.326700
  H    -46.349300   30.060900   79.394900
  H    -46.781400   29.012700   80.777300
  H    -45.876200   30.551200   80.944100
  S    -40.803700   23.958400   76.397600
  C    -40.578600   22.249200   76.373000
  C    -41.295000   21.671500   77.400400
  C    -42.034300   22.585100   78.201600
  C    -41.833900   23.959900   77.845200
  H    -41.434100   20.631700   77.435100
  C    -42.870400   22.065000   79.369100
  H    -43.497000   21.251900   78.942100
  H    -43.389400   22.874700   79.912000
  C    -41.906200   21.489100   80.541600
  H    -41.082500   22.180000   80.563200
  H    -41.445800   20.547000   80.341000
  C    -42.544300   21.500800   81.928600
  H    -42.774700   22.568700   82.141300
  H    -41.844800   21.217100   82.647800
  H    -43.349300   20.819500   81.899200
  H    -41.998500   27.978200   80.605200
  H    -40.108200   21.747500   75.570400

 Total Charge           Charge          ....    0
 Multiplicity           Mult            ....    1
 Number of Electrons    NEL             ....  134
 Basis Dimension        Dim             ....  322

ORBITAL ENERGIES
----------------

  NO   OCC          E(Eh)            E(eV)
   0   2.0000     -88.967948     -2420.9409
   1   2.0000     -88.958214     -2420.6761
   2   2.0000     -10.322566      -280.8913
   3   2.0000     -10.321905      -280.8733
   4   2.0000     -10.319521      -280.8084
   5   2.0000     -10.312689      -280.6225
   6   2.0000     -10.306687      -280.4592
   7   2.0000     -10.305155      -280.4175
   8   2.0000     -10.297486      -280.2088
   9   2.0000     -10.297079      -280.1978
  10   2.0000     -10.287793      -279.9451
  11   2.0000     -10.286349      -279.9058
  12   2.0000     -10.279870      -279.7295
  13   2.0000     -10.278723      -279.6983
  14   2.0000     -10.271944      -279.5138
  15   2.0000     -10.268336      -279.4156
  16   2.0000      -8.083737      -219.9697
  17   2.0000      -8.073237      -219.6839
  18   2.0000      -6.042010      -164.4115
  19   2.0000      -6.038226      -164.3085
  20   2.0000      -6.034537      -164.2081
  21   2.0000      -6.031623      -164.1288
  22   2.0000      -6.027465      -164.0157
  23   2.0000      -6.024354      -163.9310
  24   2.0000      -1.008920       -27.4541
  25   2.0000      -0.981748       -26.7147
  26   2.0000      -0.919618       -25.0241
  27   2.0000      -0.898516       -24.4499
  28   2.0000      -0.872043       -23.7295
  29   2.0000      -0.855962       -23.2919
  30   2.0000      -0.847805       -23.0700
  31   2.0000      -0.809906       -22.0387
  32   2.0000      -0.785873       -21.3847
  33   2.0000      -0.765246       -20.8234
  34   2.0000      -0.709485       -19.3061
  35   2.0000      -0.695351       -18.9215
  36   2.0000      -0.687929       -18.7195
  37   2.0000      -0.656156       -17.8549
  38   2.0000      -0.645799       -17.5731
  39   2.0000      -0.613409       -16.6917
  40   2.0000      -0.595135       -16.1944
  41   2.0000      -0.581444       -15.8219
  42   2.0000      -0.567196       -15.4342
  43   2.0000      -0.564567       -15.3626
  44   2.0000      -0.526782       -14.3345
  45   2.0000      -0.523618       -14.2484
  46   2.0000      -0.521958       -14.2032
  47   2.0000      -0.518054       -14.0970
  48   2.0000      -0.507677       -13.8146
  49   2.0000      -0.496963       -13.5231
  50   2.0000      -0.489695       -13.3253
  51   2.0000      -0.483649       -13.1608
  52   2.0000      -0.471447       -12.8287
  53   2.0000      -0.460328       -12.5262
  54   2.0000      -0.457141       -12.4394
  55   2.0000      -0.450225       -12.2512
  56   2.0000      -0.442840       -12.0503
  57   2.0000      -0.438752       -11.9391
  58   2.0000      -0.429760       -11.6944
  59   2.0000      -0.425235       -11.5712
  60   2.0000      -0.417319       -11.3558
  61   2.0000      -0.414969       -11.2919
  62   2.0000      -0.409754       -11.1500
  63   2.0000      -0.335059        -9.1174
  64   2.0000      -0.325458        -8.8562
  65   2.0000      -0.321219        -8.7408
  66   2.0000      -0.304206        -8.2779
  67   0.0000       0.045532         1.2390
  68   0.0000       0.055234         1.5030
  69   0.0000       0.117730         3.2036
  70   0.0000       0.119370         3.2482
  71   0.0000       0.128785         3.5044

MULLIKEN ATOMIC CHARGES
-----------------------
   0 S :    0.141854
   1 C :   -0.179452
   2 C :   -0.073110
   3 C :    0.014342
   4 C :   -0.157044
   5 H :    0.039435
   6 C :    0.127375
   7 H :    0.011928
   8 H :    0.020524
   9 C :   -0.127310
  10 H :    0.027373
  11 H :    0.027229
  12 C :   -0.004092
  13 H :    0.017814
  14 H :    0.026545
  15 H :    0.030211
  16 S :    0.093183
  17 C :   -0.077365
  18 C :   -0.015369
  19 C :   -0.029371
  20 C :   -0.199274
  21 H :    0.002762
  22 C :    0.063982
  23 H :    0.044263
  24 H :    0.028198
  25 C :   -0.102885
  26 H :    0.022675
  27 H :    0.020310
  28 C :   -0.012350
  29 H :    0.037462
  30 H :    0.021246
  31 H :    0.028172
  32 H :    0.079555
  33 H :    0.051183
Sum of atomic charges:    0.0000000

LOEWDIN ATOMIC CHARGES
----------------------
   0 S :    0.434198
   1 C :   -0.212603
   2 C :   -0.058967
   3 C :   -0.054358
   4 C :   -0.225186
   5 H :    0.045167
   6 C :   -0.024597
   7 H :    0.030380
   8 H :    0.027305
   9 C :   -0.045504
  10 H :    0.022859
  11 H :    0.022286
  12 C :   -0.055915
  13 H :    0.017092
  14 H :    0.021982
  15 H :    0.029462
  16 S :    0.405751
  17 C :   -0.182497
  18 C :   -0.074474
  19 C :   -0.049633
  20 C :   -0.208058
  21 H :    0.022514
  22 C :   -0.029571
  23 H :    0.035452
  24 H :    0.032683
  25 C :   -0.036848
  26 H :    0.019742
  27 H :    0.013720
  28 C :   -0.056168
  29 H :    0.032029
  30 H :    0.019560
  31 H :    0.019225
  32 H :    0.039320
  33 H :    0.023652

  Mayer bond orders larger than 0.100000
B(  0-S ,  1-C ) :   1.1391 B(  0-S ,  4-C ) :   1.1615 B(  1-C ,  2-C ) :   1.6163
B(  1-C , 32-H ) :   0.9566 B(  2-C ,  3-C ) :   1.2324 B(  2-C ,  6-C ) :   1.0095
B(  3-C ,  4-C ) :   1.5829 B(  3-C ,  5-H ) :   0.9905 B(  4-C , 20-C ) :   1.0348
B(  6-C ,  7-H ) :   0.9267 B(  6-C ,  8-H ) :   0.9361 B(  6-C ,  9-C ) :   1.0873
B(  9-C , 10-H ) :   0.9535 B(  9-C , 11-H ) :   0.9543 B(  9-C , 12-C ) :   1.0910
B( 12-C , 13-H ) :   0.9720 B( 12-C , 14-H ) :   0.9758 B( 12-C , 15-H ) :   0.9733
B( 16-S , 17-C ) :   1.1797 B( 16-S , 20-C ) :   1.1483 B( 17-C , 18-C ) :   1.5638
B( 17-C , 20-C ) :   0.1107 B( 17-C , 33-H ) :   0.9739 B( 18-C , 19-C ) :   1.2722
B( 18-C , 21-H ) :   0.9942 B( 19-C , 20-C ) :   1.5461 B( 19-C , 22-C ) :   1.0601
B( 22-C , 23-H ) :   0.9333 B( 22-C , 24-H ) :   0.9405 B( 22-C , 25-C ) :   1.0403
B( 25-C , 26-H ) :   0.9598 B( 25-C , 27-H ) :   0.9553 B( 25-C , 28-C ) :   1.0975
B( 28-C , 29-H ) :   0.9733 B( 28-C , 30-H ) :   0.9716 B( 28-C , 31-H ) :   0.9760

Dispersion correction           -0.013813514
FINAL SINGLE POINT ENERGY     -1339.868198924420

DIPOLE MOMENT
-------------
                                X             Y             Z
Electronic contribution:     18.35523      -2.77483     -16.99764
Nuclear contribution   :    -18.82685       2.72124      17.20900
                        -----------------------------------------
Total Dipole Moment    :     -0.47162      -0.05358       0.21136
                        -----------------------------------------
Magnitude (a.u.)       :      0.51958
Magnitude (Debye)      :      1.32067

Rotational constants in cm-1:     0.020458     0.007466     0.006300
Rotational constants in MHz :   613.324210   223.814323   188.859742

                             ****ORCA TERMINATED NORMALLY****
TOTAL RUN TIME: 0 days 0 hours 0 minutes 29 seconds 229 msec
