                         Program Version 4.2.1 -  RELEASE  -
|  1> ! wB97X-D3 SP def2-SVP
|  2> %pal
|  3> nprocs 16
|  4> end
|  5>
|  6> * xyz 0 1
|  7> S 	 -33.4636 	 74.2789 	 151.608
|  8> C 	 -31.9683 	 74.9731 	 150.957
|  9> C 	 -30.9071 	 74.4398 	 151.728
| 10> C 	 -31.3596 	 73.5547 	 152.786
| 11> C 	 -32.7339 	 73.412 	 152.925
| 12> H 	 -30.7095 	 72.9573 	 153.435
| 13> C 	 -29.4597 	 74.6705 	 151.447
| 14> H 	 -28.8713 	 74.5524 	 152.402
| 15> H 	 -29.3981 	 75.7303 	 151.109
| 16> C 	 -28.8285 	 73.8282 	 150.276
| 17> H 	 -29.4931 	 73.7532 	 149.453
| 18> H 	 -27.8859 	 74.2923 	 149.988
| 19> C 	 -28.4396 	 72.3927 	 150.648
| 20> H 	 -28.3845 	 71.7102 	 149.753
| 21> H 	 -27.4712 	 72.3783 	 151.225
| 22> H 	 -29.2086 	 71.989 	 151.279
| 23> S 	 -34.6123 	 71.4888 	 152.798
| 24> C 	 -34.7683 	 70.313 	 154.027
| 25> C 	 -33.8747 	 70.5487 	 155.06
| 26> C 	 -33.1576 	 71.7345 	 154.88
| 27> C 	 -33.4136 	 72.3474 	 153.661
| 28> H 	 -33.7328 	 69.8909 	 155.876
| 29> C 	 -32.2133 	 72.3169 	 155.881
| 30> H 	 -31.3767 	 72.7969 	 155.364
| 31> H 	 -31.8601 	 71.5642 	 156.564
| 32> C 	 -32.9065 	 73.4868 	 156.702
| 33> H 	 -33.179 	 74.3072 	 156.044
| 34> H 	 -32.1474 	 73.8831 	 157.378
| 35> C 	 -34.0283 	 72.9034 	 157.589
| 36> H 	 -33.647 	 72.3315 	 158.442
| 37> H 	 -34.7691 	 72.2768 	 157.046
| 38> H 	 -34.6322 	 73.7584 	 157.957
| 39> H 	 -31.8523 	 75.4728 	 149.957
| 40> H 	 -35.4852 	 69.4724 	 153.948
| 41> *
| 42>
| 43>                          ****END OF INPUT****

CARTESIAN COORDINATES (ANGSTROEM)
---------------------------------
  S    -33.463600   74.278900  151.608000
  C    -31.968300   74.973100  150.957000
  C    -30.907100   74.439800  151.728000
  C    -31.359600   73.554700  152.786000
  C    -32.733900   73.412000  152.925000
  H    -30.709500   72.957300  153.435000
  C    -29.459700   74.670500  151.447000
  H    -28.871300   74.552400  152.402000
  H    -29.398100   75.730300  151.109000
  C    -28.828500   73.828200  150.276000
  H    -29.493100   73.753200  149.453000
  H    -27.885900   74.292300  149.988000
  C    -28.439600   72.392700  150.648000
  H    -28.384500   71.710200  149.753000
  H    -27.471200   72.378300  151.225000
  H    -29.208600   71.989000  151.279000
  S    -34.612300   71.488800  152.798000
  C    -34.768300   70.313000  154.027000
  C    -33.874700   70.548700  155.060000
  C    -33.157600   71.734500  154.880000
  C    -33.413600   72.347400  153.661000
  H    -33.732800   69.890900  155.876000
  C    -32.213300   72.316900  155.881000
  H    -31.376700   72.796900  155.364000
  H    -31.860100   71.564200  156.564000
  C    -32.906500   73.486800  156.702000
  H    -33.179000   74.307200  156.044000
  H    -32.147400   73.883100  157.378000
  C    -34.028300   72.903400  157.589000
  H    -33.647000   72.331500  158.442000
  H    -34.769100   72.276800  157.046000
  H    -34.632200   73.758400  157.957000
  H    -31.852300   75.472800  149.957000
  H    -35.485200   69.472400  153.948000

 Total Charge           Charge          ....    0
 Multiplicity           Mult            ....    1
 Number of Electrons    NEL             ....  134
 Basis Dimension        Dim             ....  322

ORBITAL ENERGIES
----------------

  NO   OCC          E(Eh)            E(eV)
   0   2.0000     -88.966782     -2420.9092
   1   2.0000     -88.966540     -2420.9026
   2   2.0000     -10.333281      -281.1829
   3   2.0000     -10.324847      -280.9534
   4   2.0000     -10.323864      -280.9266
   5   2.0000     -10.317617      -280.7566
   6   2.0000     -10.308483      -280.5081
   7   2.0000     -10.299126      -280.2535
   8   2.0000     -10.297794      -280.2172
   9   2.0000     -10.297439      -280.2076
  10   2.0000     -10.290787      -280.0266
  11   2.0000     -10.289262      -279.9851
  12   2.0000     -10.286825      -279.9187
  13   2.0000     -10.285895      -279.8934
  14   2.0000     -10.279494      -279.7193
  15   2.0000     -10.277615      -279.6681
  16   2.0000      -8.082753      -219.9429
  17   2.0000      -8.081087      -219.8976
  18   2.0000      -6.040997      -164.3839
  19   2.0000      -6.039724      -164.3492
  20   2.0000      -6.036853      -164.2711
  21   2.0000      -6.035431      -164.2324
  22   2.0000      -6.033900      -164.1908
  23   2.0000      -6.031937      -164.1374
  24   2.0000      -1.016286       -27.6546
  25   2.0000      -0.986548       -26.8453
  26   2.0000      -0.909531       -24.7496
  27   2.0000      -0.907479       -24.6938
  28   2.0000      -0.870486       -23.6871
  29   2.0000      -0.849589       -23.1185
  30   2.0000      -0.842077       -22.9141
  31   2.0000      -0.814390       -22.1607
  32   2.0000      -0.779966       -21.2239
  33   2.0000      -0.767855       -20.8944
  34   2.0000      -0.705258       -19.1910
  35   2.0000      -0.699865       -19.0443
  36   2.0000      -0.688251       -18.7283
  37   2.0000      -0.670240       -18.2382
  38   2.0000      -0.636079       -17.3086
  39   2.0000      -0.615048       -16.7363
  40   2.0000      -0.595144       -16.1947
  41   2.0000      -0.575491       -15.6599
  42   2.0000      -0.554629       -15.0922
  43   2.0000      -0.546060       -14.8591
  44   2.0000      -0.542256       -14.7555
  45   2.0000      -0.533943       -14.5293
  46   2.0000      -0.515649       -14.0315
  47   2.0000      -0.512532       -13.9467
  48   2.0000      -0.508877       -13.8472
  49   2.0000      -0.495948       -13.4954
  50   2.0000      -0.486016       -13.2252
  51   2.0000      -0.483193       -13.1483
  52   2.0000      -0.474164       -12.9027
  53   2.0000      -0.468459       -12.7474
  54   2.0000      -0.460197       -12.5226
  55   2.0000      -0.445725       -12.1288
  56   2.0000      -0.441358       -12.0100
  57   2.0000      -0.435141       -11.8408
  58   2.0000      -0.431793       -11.7497
  59   2.0000      -0.421874       -11.4798
  60   2.0000      -0.418253       -11.3812
  61   2.0000      -0.417807       -11.3691
  62   2.0000      -0.410432       -11.1684
  63   2.0000      -0.354682        -9.6514
  64   2.0000      -0.334779        -9.1098
  65   2.0000      -0.324201        -8.8219
  66   2.0000      -0.286006        -7.7826
  67   0.0000       0.020342         0.5535
  68   0.0000       0.075651         2.0586
  69   0.0000       0.111137         3.0242
  70   0.0000       0.114729         3.1219
  71   0.0000       0.136809         3.7228

MULLIKEN ATOMIC CHARGES
-----------------------
   0 S :    0.084773
   1 C :   -0.133002
   2 C :   -0.096993
   3 C :   -0.000407
   4 C :   -0.114727
   5 H :    0.029723
   6 C :    0.014053
   7 H :    0.039507
   8 H :    0.038083
   9 C :   -0.034470
  10 H :    0.019270
  11 H :    0.032025
  12 C :   -0.084593
  13 H :    0.044350
  14 H :    0.038151
  15 H :    0.025560
  16 S :    0.121946
  17 C :   -0.108102
  18 C :   -0.015417
  19 C :   -0.061573
  20 C :   -0.146155
  21 H :    0.001572
  22 C :    0.077354
  23 H :    0.019140
  24 H :    0.013746
  25 C :   -0.065691
  26 H :    0.043693
  27 H :    0.028796
  28 C :   -0.081512
  29 H :    0.034864
  30 H :    0.047227
  31 H :    0.036282
  32 H :    0.082479
  33 H :    0.070047
Sum of atomic charges:   -0.0000000

LOEWDIN ATOMIC CHARGES
----------------------
   0 S :    0.402576
   1 C :   -0.209827
   2 C :   -0.064111
   3 C :   -0.073358
   4 C :   -0.200143
   5 H :    0.029327
   6 C :   -0.040880
   7 H :    0.036347
   8 H :    0.038941
   9 C :   -0.034865
  10 H :    0.018469
  11 H :    0.024845
  12 C :   -0.073381
  13 H :    0.032833
  14 H :    0.028208
  15 H :    0.018712
  16 S :    0.450589
  17 C :   -0.202689
  18 C :   -0.068311
  19 C :   -0.061189
  20 C :   -0.211903
  21 H :    0.026287
  22 C :   -0.028774
  23 H :    0.028384
  24 H :    0.025047
  25 C :   -0.030772
  26 H :    0.025955
  27 H :    0.023764
  28 C :   -0.075482
  29 H :    0.025004
  30 H :    0.028031
  31 H :    0.030089
  32 H :    0.046725
  33 H :    0.035551

  Mayer bond orders larger than 0.100000
B(  0-S ,  1-C ) :   1.1370 B(  0-S ,  4-C ) :   1.1610 B(  1-C ,  2-C ) :   1.5670
B(  1-C , 32-H ) :   0.9629 B(  2-C ,  3-C ) :   1.2757 B(  2-C ,  6-C ) :   1.0370
B(  3-C ,  4-C ) :   1.5377 B(  3-C ,  5-H ) :   0.9742 B(  4-C , 20-C ) :   1.0485
B(  6-C ,  7-H ) :   0.9477 B(  6-C ,  8-H ) :   0.9374 B(  6-C ,  9-C ) :   1.0605
B(  9-C , 10-H ) :   0.9582 B(  9-C , 11-H ) :   0.9598 B(  9-C , 12-C ) :   1.0722
B( 12-C , 13-H ) :   0.9745 B( 12-C , 14-H ) :   0.9775 B( 12-C , 15-H ) :   0.9783
B( 16-S , 17-C ) :   1.1924 B( 16-S , 20-C ) :   1.1710 B( 17-C , 18-C ) :   1.5306
B( 17-C , 33-H ) :   0.9673 B( 18-C , 19-C ) :   1.3026 B( 18-C , 21-H ) :   1.0020
B( 19-C , 20-C ) :   1.5365 B( 19-C , 22-C ) :   1.0601 B( 22-C , 23-H ) :   0.9270
B( 22-C , 24-H ) :   0.9335 B( 22-C , 25-C ) :   1.0700 B( 25-C , 26-H ) :   0.9614
B( 25-C , 27-H ) :   0.9567 B( 25-C , 28-C ) :   1.0669 B( 28-C , 29-H ) :   0.9759
B( 28-C , 30-H ) :   0.9753 B( 28-C , 31-H ) :   0.9726

Dispersion correction           -0.014680360
FINAL SINGLE POINT ENERGY     -1339.885738305041

DIPOLE MOMENT
-------------
                                X             Y             Z
Electronic contribution:    -18.77393      -0.83084      -9.54361
Nuclear contribution   :     19.30217       0.60922       9.68683
                        -----------------------------------------
Total Dipole Moment    :      0.52824      -0.22163       0.14322
                        -----------------------------------------
Magnitude (a.u.)       :      0.59048
Magnitude (Debye)      :      1.50089

Rotational constants in cm-1:     0.020707     0.008151     0.007481
Rotational constants in MHz :   620.778860   244.370741   224.271756

                             ****ORCA TERMINATED NORMALLY****
TOTAL RUN TIME: 0 days 0 hours 0 minutes 32 seconds 909 msec
