                         Program Version 4.2.1 -  RELEASE  -
|  1> ! wB97X-D3 SP def2-SVP
|  2> %pal
|  3> nprocs 16
|  4> end
|  5>
|  6> * xyz 0 1
|  7> S 	 24.6839 	 -12.871 	 76.6417
|  8> C 	 24.9533 	 -13.8133 	 75.2017
|  9> C 	 26.2918 	 -13.704 	 74.7517
| 10> C 	 26.9198 	 -12.5891 	 75.3823
| 11> C 	 26.1787 	 -11.9829 	 76.3678
| 12> H 	 27.9334 	 -12.2306 	 75.0818
| 13> C 	 27.0138 	 -14.4038 	 73.6433
| 14> H 	 26.3973 	 -15.1998 	 73.2087
| 15> H 	 27.8257 	 -14.8041 	 74.1545
| 16> C 	 27.4491 	 -13.5216 	 72.4532
| 17> H 	 26.6868 	 -12.9449 	 71.9143
| 18> H 	 28.2929 	 -12.9626 	 72.9031
| 19> C 	 27.9361 	 -14.4438 	 71.3067
| 20> H 	 27.3056 	 -14.9448 	 70.5995
| 21> H 	 28.4789 	 -13.7302 	 70.73
| 22> H 	 28.6917 	 -15.091 	 71.7178
| 23> S 	 27.3288 	 -11.3559 	 78.7017
| 24> C 	 27.5032 	 -9.67606 	 79.2003
| 25> C 	 27.0061 	 -8.82954 	 78.2251
| 26> C 	 26.5692 	 -9.49886 	 77.0135
| 27> C 	 26.6245 	 -10.8694 	 77.2073
| 28> H 	 26.9965 	 -7.79387 	 78.4788
| 29> C 	 25.8527 	 -8.67895 	 75.9897
| 30> H 	 25.6726 	 -7.65551 	 76.4564
| 31> H 	 24.8869 	 -9.19922 	 75.8427
| 32> C 	 26.5961 	 -8.5434 	 74.5927
| 33> H 	 27.0131 	 -9.44314 	 74.3126
| 34> H 	 27.4587 	 -7.89293 	 74.8164
| 35> C 	 25.6564 	 -7.8883 	 73.5073
| 36> H 	 24.8615 	 -8.49743 	 73.151
| 37> H 	 26.2227 	 -7.59127 	 72.6225
| 38> H 	 25.2045 	 -6.93858 	 73.9056
| 39> H 	 24.289 	 -14.5503 	 74.9155
| 40> H 	 27.8951 	 -9.36799 	 80.1671
| 41> *
| 42>
| 43>                          ****END OF INPUT****

CARTESIAN COORDINATES (ANGSTROEM)
---------------------------------
  S     24.683900  -12.871000   76.641700
  C     24.953300  -13.813300   75.201700
  C     26.291800  -13.704000   74.751700
  C     26.919800  -12.589100   75.382300
  C     26.178700  -11.982900   76.367800
  H     27.933400  -12.230600   75.081800
  C     27.013800  -14.403800   73.643300
  H     26.397300  -15.199800   73.208700
  H     27.825700  -14.804100   74.154500
  C     27.449100  -13.521600   72.453200
  H     26.686800  -12.944900   71.914300
  H     28.292900  -12.962600   72.903100
  C     27.936100  -14.443800   71.306700
  H     27.305600  -14.944800   70.599500
  H     28.478900  -13.730200   70.730000
  H     28.691700  -15.091000   71.717800
  S     27.328800  -11.355900   78.701700
  C     27.503200   -9.676060   79.200300
  C     27.006100   -8.829540   78.225100
  C     26.569200   -9.498860   77.013500
  C     26.624500  -10.869400   77.207300
  H     26.996500   -7.793870   78.478800
  C     25.852700   -8.678950   75.989700
  H     25.672600   -7.655510   76.456400
  H     24.886900   -9.199220   75.842700
  C     26.596100   -8.543400   74.592700
  H     27.013100   -9.443140   74.312600
  H     27.458700   -7.892930   74.816400
  C     25.656400   -7.888300   73.507300
  H     24.861500   -8.497430   73.151000
  H     26.222700   -7.591270   72.622500
  H     25.204500   -6.938580   73.905600
  H     24.289000  -14.550300   74.915500
  H     27.895100   -9.367990   80.167100

 Total Charge           Charge          ....    0
 Multiplicity           Mult            ....    1
 Number of Electrons    NEL             ....  134
 Basis Dimension        Dim             ....  322

ORBITAL ENERGIES
----------------

  NO   OCC          E(Eh)            E(eV)
   0   2.0000     -88.965589     -2420.8767
   1   2.0000     -88.962550     -2420.7940
   2   2.0000     -10.325345      -280.9669
   3   2.0000     -10.321841      -280.8716
   4   2.0000     -10.313873      -280.6548
   5   2.0000     -10.310278      -280.5569
   6   2.0000     -10.302085      -280.3340
   7   2.0000     -10.300401      -280.2882
   8   2.0000     -10.296350      -280.1779
   9   2.0000     -10.294567      -280.1294
  10   2.0000     -10.293419      -280.0982
  11   2.0000     -10.290586      -280.0211
  12   2.0000     -10.286744      -279.9165
  13   2.0000     -10.285926      -279.8943
  14   2.0000     -10.279744      -279.7261
  15   2.0000     -10.273045      -279.5438
  16   2.0000      -8.080160      -219.8723
  17   2.0000      -8.077704      -219.8055
  18   2.0000      -6.038556      -164.3175
  19   2.0000      -6.036192      -164.2531
  20   2.0000      -6.034805      -164.2154
  21   2.0000      -6.032074      -164.1411
  22   2.0000      -6.030956      -164.1107
  23   2.0000      -6.028551      -164.0452
  24   2.0000      -1.004857       -27.3436
  25   2.0000      -0.981534       -26.7089
  26   2.0000      -0.915685       -24.9171
  27   2.0000      -0.898714       -24.4553
  28   2.0000      -0.867248       -23.5990
  29   2.0000      -0.851606       -23.1734
  30   2.0000      -0.845048       -22.9949
  31   2.0000      -0.811860       -22.0918
  32   2.0000      -0.780302       -21.2331
  33   2.0000      -0.767368       -20.8811
  34   2.0000      -0.709470       -19.3057
  35   2.0000      -0.701805       -19.0971
  36   2.0000      -0.690273       -18.7833
  37   2.0000      -0.661593       -18.0028
  38   2.0000      -0.642122       -17.4730
  39   2.0000      -0.621453       -16.9106
  40   2.0000      -0.587019       -15.9736
  41   2.0000      -0.578534       -15.7427
  42   2.0000      -0.562234       -15.2992
  43   2.0000      -0.554392       -15.0858
  44   2.0000      -0.532261       -14.4835
  45   2.0000      -0.515843       -14.0368
  46   2.0000      -0.514146       -13.9906
  47   2.0000      -0.509890       -13.8748
  48   2.0000      -0.506175       -13.7737
  49   2.0000      -0.494894       -13.4667
  50   2.0000      -0.490055       -13.3351
  51   2.0000      -0.481361       -13.0985
  52   2.0000      -0.473988       -12.8979
  53   2.0000      -0.468110       -12.7379
  54   2.0000      -0.459670       -12.5083
  55   2.0000      -0.446904       -12.1609
  56   2.0000      -0.441879       -12.0241
  57   2.0000      -0.437029       -11.8922
  58   2.0000      -0.430870       -11.7246
  59   2.0000      -0.424375       -11.5478
  60   2.0000      -0.421906       -11.4806
  61   2.0000      -0.419685       -11.4202
  62   2.0000      -0.406357       -11.0575
  63   2.0000      -0.335962        -9.1420
  64   2.0000      -0.325882        -8.8677
  65   2.0000      -0.317606        -8.6425
  66   2.0000      -0.304655        -8.2901
  67   0.0000       0.046773         1.2728
  68   0.0000       0.053354         1.4518
  69   0.0000       0.114856         3.1254
  70   0.0000       0.116737         3.1766
  71   0.0000       0.130797         3.5592

MULLIKEN ATOMIC CHARGES
-----------------------
   0 S :    0.114724
   1 C :   -0.095919
   2 C :   -0.080562
   3 C :    0.016669
   4 C :   -0.163497
   5 H :    0.028047
   6 C :    0.083840
   7 H :    0.018048
   8 H :    0.025478
   9 C :   -0.099323
  10 H :    0.047596
  11 H :    0.037955
  12 C :   -0.034460
  13 H :    0.046519
  14 H :    0.015699
  15 H :    0.016912
  16 S :    0.116457
  17 C :   -0.104843
  18 C :   -0.044505
  19 C :    0.019068
  20 C :   -0.201041
  21 H :    0.012248
  22 C :    0.019128
  23 H :    0.036422
  24 H :    0.042841
  25 C :   -0.041056
  26 H :    0.014545
  27 H :    0.027325
  28 C :   -0.051556
  29 H :    0.035978
  30 H :    0.031869
  31 H :    0.031235
  32 H :    0.022322
  33 H :    0.055838
Sum of atomic charges:    0.0000000

LOEWDIN ATOMIC CHARGES
----------------------
   0 S :    0.406282
   1 C :   -0.190393
   2 C :   -0.058241
   3 C :   -0.062901
   4 C :   -0.203685
   5 H :    0.035721
   6 C :   -0.033174
   7 H :    0.029422
   8 H :    0.028730
   9 C :   -0.032331
  10 H :    0.032313
  11 H :    0.027701
  12 C :   -0.067689
  13 H :    0.025556
  14 H :    0.025780
  15 H :    0.021181
  16 S :    0.415313
  17 C :   -0.187922
  18 C :   -0.068544
  19 C :   -0.057909
  20 C :   -0.210148
  21 H :    0.026946
  22 C :   -0.033161
  23 H :    0.037506
  24 H :    0.035736
  25 C :   -0.027533
  26 H :    0.010188
  27 H :    0.027180
  28 C :   -0.067101
  29 H :    0.021105
  30 H :    0.025980
  31 H :    0.030282
  32 H :    0.009153
  33 H :    0.028657

  Mayer bond orders larger than 0.100000
B(  0-S ,  1-C ) :   1.1504 B(  0-S ,  4-C ) :   1.1495 B(  1-C ,  2-C ) :   1.5877
B(  1-C ,  4-C ) :   0.1015 B(  1-C , 32-H ) :   0.9772 B(  2-C ,  3-C ) :   1.2372
B(  2-C ,  6-C ) :   1.0309 B(  3-C ,  4-C ) :   1.5976 B(  3-C ,  5-H ) :   0.9836
B(  4-C , 20-C ) :   1.0044 B(  6-C ,  7-H ) :   0.9465 B(  6-C ,  8-H ) :   0.9252
B(  6-C ,  9-C ) :   1.0686 B(  9-C , 10-H ) :   0.9629 B(  9-C , 11-H ) :   0.9506
B(  9-C , 12-C ) :   1.0787 B( 12-C , 13-H ) :   0.9785 B( 12-C , 14-H ) :   0.9712
B( 12-C , 15-H ) :   0.9707 B( 16-S , 17-C ) :   1.1417 B( 16-S , 20-C ) :   1.1694
B( 17-C , 18-C ) :   1.6341 B( 17-C , 33-H ) :   0.9678 B( 18-C , 19-C ) :   1.2116
B( 18-C , 21-H ) :   0.9906 B( 19-C , 20-C ) :   1.6024 B( 19-C , 22-C ) :   1.0417
B( 22-C , 23-H ) :   0.9423 B( 22-C , 24-H ) :   0.9390 B( 22-C , 25-C ) :   1.0431
B( 25-C , 26-H ) :   0.9643 B( 25-C , 27-H ) :   0.9552 B( 25-C , 28-C ) :   1.0738
B( 28-C , 29-H ) :   0.9790 B( 28-C , 30-H ) :   0.9762 B( 28-C , 31-H ) :   0.9743

Dispersion correction           -0.013880966
FINAL SINGLE POINT ENERGY     -1339.858224894649

DIPOLE MOMENT
-------------
                                X             Y             Z
Electronic contribution:     -5.13738      -5.86179      28.11850
Nuclear contribution   :      5.35444       5.97839     -28.65182
                        -----------------------------------------
Total Dipole Moment    :      0.21706       0.11660      -0.53332
                        -----------------------------------------
Magnitude (a.u.)       :      0.58749
Magnitude (Debye)      :      1.49328

Rotational constants in cm-1:     0.016792     0.008810     0.007030
Rotational constants in MHz :   503.425795   264.126629   210.753318

                             ****ORCA TERMINATED NORMALLY****
TOTAL RUN TIME: 0 days 0 hours 0 minutes 28 seconds 183 msec
