                         Program Version 4.2.1 -  RELEASE  -
|  1> ! wB97X-D3 SP def2-SVP
|  2> %pal
|  3> nprocs 16
|  4> end
|  5>
|  6> * xyz 0 1
|  7> S 	 -48.7062 	 9.85368 	 80.0303
|  8> C 	 -48.704 	 10.7968 	 81.4971
|  9> C 	 -49.6845 	 10.4822 	 82.3755
| 10> C 	 -50.2024 	 9.14241 	 82.0819
| 11> C 	 -49.8622 	 8.74284 	 80.7855
| 12> H 	 -50.8992 	 8.66229 	 82.7523
| 13> C 	 -50.0805 	 11.271 	 83.636
| 14> H 	 -51.1774 	 11.2633 	 83.6801
| 15> H 	 -49.8797 	 12.333 	 83.5157
| 16> C 	 -49.5213 	 10.7604 	 84.9233
| 17> H 	 -49.6482 	 11.4652 	 85.7742
| 18> H 	 -50.1973 	 9.94728 	 85.2535
| 19> C 	 -48.0311 	 10.3471 	 84.8396
| 20> H 	 -47.8138 	 9.74692 	 85.6739
| 21> H 	 -47.7674 	 9.77223 	 83.9551
| 22> H 	 -47.4105 	 11.2576 	 84.8889
| 23> S 	 -48.7699 	 6.59791 	 79.8446
| 24> C 	 -49.6399 	 5.40967 	 78.9119
| 25> C 	 -51 	 5.60812 	 79.0104
| 26> C 	 -51.3023 	 6.75408 	 79.8482
| 27> C 	 -50.1742 	 7.45456 	 80.2441
| 28> H 	 -51.6001 	 4.94221 	 78.3325
| 29> C 	 -52.7644 	 7.25229 	 79.9712
| 30> H 	 -53.3316 	 7.06185 	 79.0605
| 31> H 	 -52.5519 	 8.30834 	 80.0355
| 32> C 	 -53.4904 	 6.72415 	 81.2219
| 33> H 	 -52.7025 	 6.8774 	 81.9534
| 34> H 	 -53.7142 	 5.66242 	 81.0913
| 35> C 	 -54.6712 	 7.61069 	 81.6583
| 36> H 	 -55.0693 	 7.33451 	 82.6199
| 37> H 	 -55.4108 	 7.69875 	 80.8326
| 38> H 	 -54.3586 	 8.64385 	 81.8168
| 39> H 	 -48.2535 	 11.77 	 81.5881
| 40> H 	 -49.222 	 4.70124 	 78.2039
| 41> *
| 42>
| 43>                          ****END OF INPUT****

CARTESIAN COORDINATES (ANGSTROEM)
---------------------------------
  S    -48.706200    9.853680   80.030300
  C    -48.704000   10.796800   81.497100
  C    -49.684500   10.482200   82.375500
  C    -50.202400    9.142410   82.081900
  C    -49.862200    8.742840   80.785500
  H    -50.899200    8.662290   82.752300
  C    -50.080500   11.271000   83.636000
  H    -51.177400   11.263300   83.680100
  H    -49.879700   12.333000   83.515700
  C    -49.521300   10.760400   84.923300
  H    -49.648200   11.465200   85.774200
  H    -50.197300    9.947280   85.253500
  C    -48.031100   10.347100   84.839600
  H    -47.813800    9.746920   85.673900
  H    -47.767400    9.772230   83.955100
  H    -47.410500   11.257600   84.888900
  S    -48.769900    6.597910   79.844600
  C    -49.639900    5.409670   78.911900
  C    -51.000000    5.608120   79.010400
  C    -51.302300    6.754080   79.848200
  C    -50.174200    7.454560   80.244100
  H    -51.600100    4.942210   78.332500
  C    -52.764400    7.252290   79.971200
  H    -53.331600    7.061850   79.060500
  H    -52.551900    8.308340   80.035500
  C    -53.490400    6.724150   81.221900
  H    -52.702500    6.877400   81.953400
  H    -53.714200    5.662420   81.091300
  C    -54.671200    7.610690   81.658300
  H    -55.069300    7.334510   82.619900
  H    -55.410800    7.698750   80.832600
  H    -54.358600    8.643850   81.816800
  H    -48.253500   11.770000   81.588100
  H    -49.222000    4.701240   78.203900

 Total Charge           Charge          ....    0
 Multiplicity           Mult            ....    1
 Number of Electrons    NEL             ....  134
 Basis Dimension        Dim             ....  322

ORBITAL ENERGIES
----------------

  NO   OCC          E(Eh)            E(eV)
   0   2.0000     -88.972022     -2421.0518
   1   2.0000     -88.959069     -2420.6993
   2   2.0000     -10.334035      -281.2034
   3   2.0000     -10.319458      -280.8067
   4   2.0000     -10.310869      -280.5730
   5   2.0000     -10.310554      -280.5644
   6   2.0000     -10.306262      -280.4477
   7   2.0000     -10.302833      -280.3543
   8   2.0000     -10.301775      -280.3255
   9   2.0000     -10.296343      -280.1777
  10   2.0000     -10.294011      -280.1143
  11   2.0000     -10.289752      -279.9984
  12   2.0000     -10.286247      -279.9030
  13   2.0000     -10.284574      -279.8575
  14   2.0000     -10.278783      -279.6999
  15   2.0000     -10.271378      -279.4984
  16   2.0000      -8.086362      -220.0411
  17   2.0000      -8.075322      -219.7407
  18   2.0000      -6.044995      -164.4927
  19   2.0000      -6.041096      -164.3866
  20   2.0000      -6.036808      -164.2699
  21   2.0000      -6.033827      -164.1888
  22   2.0000      -6.029407      -164.0685
  23   2.0000      -6.026165      -163.9803
  24   2.0000      -1.013227       -27.5713
  25   2.0000      -0.985514       -26.8172
  26   2.0000      -0.915044       -24.8996
  27   2.0000      -0.905127       -24.6298
  28   2.0000      -0.874410       -23.7939
  29   2.0000      -0.847674       -23.0664
  30   2.0000      -0.841994       -22.9118
  31   2.0000      -0.814251       -22.1569
  32   2.0000      -0.787672       -21.4337
  33   2.0000      -0.771267       -20.9872
  34   2.0000      -0.710021       -19.3207
  35   2.0000      -0.696151       -18.9432
  36   2.0000      -0.692565       -18.8457
  37   2.0000      -0.659812       -17.9544
  38   2.0000      -0.636473       -17.3193
  39   2.0000      -0.622163       -16.9299
  40   2.0000      -0.584008       -15.8917
  41   2.0000      -0.570229       -15.5167
  42   2.0000      -0.562271       -15.3002
  43   2.0000      -0.554557       -15.0903
  44   2.0000      -0.550558       -14.9814
  45   2.0000      -0.521648       -14.1948
  46   2.0000      -0.518641       -14.1129
  47   2.0000      -0.508601       -13.8397
  48   2.0000      -0.502363       -13.6700
  49   2.0000      -0.498094       -13.5538
  50   2.0000      -0.491359       -13.3706
  51   2.0000      -0.480773       -13.0825
  52   2.0000      -0.475292       -12.9333
  53   2.0000      -0.460946       -12.5430
  54   2.0000      -0.456919       -12.4334
  55   2.0000      -0.453113       -12.3298
  56   2.0000      -0.442423       -12.0390
  57   2.0000      -0.436684       -11.8828
  58   2.0000      -0.429288       -11.6815
  59   2.0000      -0.422758       -11.5038
  60   2.0000      -0.420115       -11.4319
  61   2.0000      -0.411884       -11.2079
  62   2.0000      -0.408000       -11.1022
  63   2.0000      -0.345421        -9.3994
  64   2.0000      -0.332964        -9.0604
  65   2.0000      -0.324208        -8.8221
  66   2.0000      -0.298386        -8.1195
  67   0.0000       0.028503         0.7756
  68   0.0000       0.071907         1.9567
  69   0.0000       0.101489         2.7617
  70   0.0000       0.122150         3.3239
  71   0.0000       0.128034         3.4840

MULLIKEN ATOMIC CHARGES
-----------------------
   0 S :    0.132014
   1 C :   -0.107758
   2 C :   -0.128581
   3 C :    0.033566
   4 C :   -0.143958
   5 H :    0.019881
   6 C :    0.087250
   7 H :    0.028332
   8 H :    0.017843
   9 C :   -0.099139
  10 H :    0.032840
  11 H :    0.023949
  12 C :   -0.031827
  13 H :    0.022602
  14 H :    0.054148
  15 H :    0.031662
  16 S :    0.104857
  17 C :   -0.103374
  18 C :   -0.061962
  19 C :   -0.038780
  20 C :   -0.164824
  21 H :    0.041777
  22 C :    0.051201
  23 H :    0.025061
  24 H :    0.019953
  25 C :   -0.056726
  26 H :    0.019372
  27 H :    0.038467
  28 C :   -0.033530
  29 H :    0.034308
  30 H :    0.034233
  31 H :    0.018344
  32 H :    0.043529
  33 H :    0.055272
Sum of atomic charges:    0.0000000

LOEWDIN ATOMIC CHARGES
----------------------
   0 S :    0.402999
   1 C :   -0.196496
   2 C :   -0.057848
   3 C :   -0.046388
   4 C :   -0.195911
   5 H :    0.029182
   6 C :   -0.036235
   7 H :    0.034381
   8 H :    0.027517
   9 C :   -0.048853
  10 H :    0.029777
  11 H :    0.022543
  12 C :   -0.061715
  13 H :    0.020257
  14 H :    0.028793
  15 H :    0.028215
  16 S :    0.431327
  17 C :   -0.195997
  18 C :   -0.080949
  19 C :   -0.055205
  20 C :   -0.220585
  21 H :    0.044089
  22 C :   -0.028661
  23 H :    0.024928
  24 H :    0.028032
  25 C :   -0.039662
  26 H :    0.022034
  27 H :    0.025845
  28 C :   -0.066850
  29 H :    0.024038
  30 H :    0.027482
  31 H :    0.024668
  32 H :    0.025415
  33 H :    0.029834

  Mayer bond orders larger than 0.100000
B(  0-S ,  1-C ) :   1.1271 B(  0-S ,  4-C ) :   1.1330 B(  1-C ,  2-C ) :   1.6608
B(  1-C , 32-H ) :   0.9534 B(  2-C ,  3-C ) :   1.1977 B(  2-C ,  6-C ) :   1.0307
B(  3-C ,  4-C ) :   1.5894 B(  3-C ,  5-H ) :   0.9899 B(  4-C , 20-C ) :   1.0418
B(  6-C ,  7-H ) :   0.9388 B(  6-C ,  8-H ) :   0.9391 B(  6-C ,  9-C ) :   1.0693
B(  9-C , 10-H ) :   0.9541 B(  9-C , 11-H ) :   0.9552 B(  9-C , 12-C ) :   1.0766
B( 12-C , 13-H ) :   0.9731 B( 12-C , 14-H ) :   0.9707 B( 12-C , 15-H ) :   0.9759
B( 16-S , 17-C ) :   1.1485 B( 16-S , 20-C ) :   1.1628 B( 17-C , 18-C ) :   1.6398
B( 17-C , 33-H ) :   0.9651 B( 18-C , 19-C ) :   1.2135 B( 18-C , 21-H ) :   0.9848
B( 19-C , 20-C ) :   1.5951 B( 19-C , 22-C ) :   1.0344 B( 22-C , 23-H ) :   0.9437
B( 22-C , 24-H ) :   0.9391 B( 22-C , 25-C ) :   1.0535 B( 25-C , 26-H ) :   0.9557
B( 25-C , 27-H ) :   0.9569 B( 25-C , 28-C ) :   1.0828 B( 28-C , 29-H ) :   0.9747
B( 28-C , 30-H ) :   0.9747 B( 28-C , 31-H ) :   0.9720

Dispersion correction           -0.014614949
FINAL SINGLE POINT ENERGY     -1339.864653493071

DIPOLE MOMENT
-------------
                                X             Y             Z
Electronic contribution:     16.03169      -5.36518     -18.75248
Nuclear contribution   :    -16.42869       5.58909      19.03043
                        -----------------------------------------
Total Dipole Moment    :     -0.39699       0.22391       0.27795
                        -----------------------------------------
Magnitude (a.u.)       :      0.53385
Magnitude (Debye)      :      1.35693

Rotational constants in cm-1:     0.017750     0.009317     0.007072
Rotational constants in MHz :   532.124771   279.320294   212.020834

                             ****ORCA TERMINATED NORMALLY****
TOTAL RUN TIME: 0 days 0 hours 0 minutes 30 seconds 322 msec
