                         Program Version 4.2.1 -  RELEASE  -
|  1> ! wB97X-D3 SP def2-SVP
|  2> %pal
|  3> nprocs 16
|  4> end
|  5>
|  6> * xyz 0 1
|  7> S 	 -2.26381 	 34.7836 	 50.2318
|  8> C 	 -0.555217 	 34.5291 	 50.6549
|  9> C 	 -0.174645 	 33.1958 	 50.6547
| 10> C 	 -1.25687 	 32.3381 	 50.1004
| 11> C 	 -2.4422 	 33.0357 	 49.8312
| 12> H 	 -1.27523 	 31.2668 	 49.9575
| 13> C 	 1.1526 	 32.6129 	 51.2467
| 14> H 	 1.99454 	 33.3836 	 51.1864
| 15> H 	 1.2851 	 31.7303 	 50.6768
| 16> C 	 1.1464 	 32.3095 	 52.7222
| 17> H 	 0.773626 	 33.0908 	 53.2935
| 18> H 	 0.417679 	 31.5744 	 52.8778
| 19> C 	 2.40691 	 31.7614 	 53.208
| 20> H 	 2.41448 	 31.6565 	 54.298
| 21> H 	 2.55764 	 30.8055 	 52.9013
| 22> H 	 3.2241 	 32.4214 	 52.8756
| 23> S 	 -4.25822 	 30.967 	 49.7822
| 24> C 	 -5.41437 	 30.8131 	 48.449
| 25> C 	 -5.36516 	 32.0075 	 47.7059
| 26> C 	 -4.46587 	 33.0173 	 48.194
| 27> C 	 -3.6706 	 32.5114 	 49.2403
| 28> H 	 -6.13736 	 32.1417 	 46.9141
| 29> C 	 -4.32399 	 34.4218 	 47.5618
| 30> H 	 -3.28675 	 34.6629 	 47.424
| 31> H 	 -4.51374 	 35.1417 	 48.2804
| 32> C 	 -5.11612 	 34.7515 	 46.3445
| 33> H 	 -6.14026 	 34.4703 	 46.5055
| 34> H 	 -4.88549 	 34.0445 	 45.469
| 35> C 	 -5.12967 	 36.2765 	 46.0081
| 36> H 	 -5.78401 	 36.545 	 45.2244
| 37> H 	 -4.09796 	 36.6109 	 45.8455
| 38> H 	 -5.53194 	 36.8808 	 46.8419
| 39> H 	 0.0438685 	 35.3206 	 51.1419
| 40> H 	 -6.04431 	 29.9757 	 48.1473
| 41> *
| 42>
| 43>                          ****END OF INPUT****

CARTESIAN COORDINATES (ANGSTROEM)
---------------------------------
  S     -2.263810   34.783600   50.231800
  C     -0.555217   34.529100   50.654900
  C     -0.174645   33.195800   50.654700
  C     -1.256870   32.338100   50.100400
  C     -2.442200   33.035700   49.831200
  H     -1.275230   31.266800   49.957500
  C      1.152600   32.612900   51.246700
  H      1.994540   33.383600   51.186400
  H      1.285100   31.730300   50.676800
  C      1.146400   32.309500   52.722200
  H      0.773626   33.090800   53.293500
  H      0.417679   31.574400   52.877800
  C      2.406910   31.761400   53.208000
  H      2.414480   31.656500   54.298000
  H      2.557640   30.805500   52.901300
  H      3.224100   32.421400   52.875600
  S     -4.258220   30.967000   49.782200
  C     -5.414370   30.813100   48.449000
  C     -5.365160   32.007500   47.705900
  C     -4.465870   33.017300   48.194000
  C     -3.670600   32.511400   49.240300
  H     -6.137360   32.141700   46.914100
  C     -4.323990   34.421800   47.561800
  H     -3.286750   34.662900   47.424000
  H     -4.513740   35.141700   48.280400
  C     -5.116120   34.751500   46.344500
  H     -6.140260   34.470300   46.505500
  H     -4.885490   34.044500   45.469000
  C     -5.129670   36.276500   46.008100
  H     -5.784010   36.545000   45.224400
  H     -4.097960   36.610900   45.845500
  H     -5.531940   36.880800   46.841900
  H      0.043868   35.320600   51.141900
  H     -6.044310   29.975700   48.147300

 Total Charge           Charge          ....    0
 Multiplicity           Mult            ....    1
 Number of Electrons    NEL             ....  134
 Basis Dimension        Dim             ....  322

ORBITAL ENERGIES
----------------

  NO   OCC          E(Eh)            E(eV)
   0   2.0000     -88.970033     -2420.9977
   1   2.0000     -88.968709     -2420.9616
   2   2.0000     -10.339095      -281.3411
   3   2.0000     -10.330377      -281.1039
   4   2.0000     -10.323066      -280.9049
   5   2.0000     -10.320470      -280.8343
   6   2.0000     -10.313839      -280.6538
   7   2.0000     -10.310904      -280.5740
   8   2.0000     -10.304733      -280.4060
   9   2.0000     -10.301098      -280.3071
  10   2.0000     -10.298391      -280.2335
  11   2.0000     -10.288913      -279.9756
  12   2.0000     -10.282738      -279.8075
  13   2.0000     -10.279977      -279.7324
  14   2.0000     -10.267689      -279.3980
  15   2.0000     -10.267193      -279.3845
  16   2.0000      -8.084009      -219.9771
  17   2.0000      -8.081813      -219.9173
  18   2.0000      -6.042584      -164.4271
  19   2.0000      -6.040516      -164.3708
  20   2.0000      -6.038443      -164.3144
  21   2.0000      -6.036675      -164.2663
  22   2.0000      -6.034923      -164.2186
  23   2.0000      -6.032350      -164.1486
  24   2.0000      -0.999620       -27.2010
  25   2.0000      -0.973376       -26.4869
  26   2.0000      -0.922851       -25.1120
  27   2.0000      -0.911007       -24.7898
  28   2.0000      -0.870034       -23.6748
  29   2.0000      -0.849431       -23.1142
  30   2.0000      -0.842013       -22.9123
  31   2.0000      -0.811984       -22.0952
  32   2.0000      -0.785116       -21.3641
  33   2.0000      -0.774367       -21.0716
  34   2.0000      -0.709679       -19.3114
  35   2.0000      -0.705225       -19.1902
  36   2.0000      -0.699142       -19.0246
  37   2.0000      -0.654496       -17.8097
  38   2.0000      -0.634143       -17.2559
  39   2.0000      -0.616123       -16.7656
  40   2.0000      -0.599727       -16.3194
  41   2.0000      -0.579838       -15.7782
  42   2.0000      -0.565408       -15.3855
  43   2.0000      -0.559579       -15.2269
  44   2.0000      -0.531569       -14.4647
  45   2.0000      -0.523937       -14.2571
  46   2.0000      -0.519281       -14.1303
  47   2.0000      -0.511595       -13.9212
  48   2.0000      -0.508376       -13.8336
  49   2.0000      -0.497813       -13.5462
  50   2.0000      -0.486606       -13.2412
  51   2.0000      -0.481937       -13.1142
  52   2.0000      -0.469940       -12.7877
  53   2.0000      -0.466163       -12.6849
  54   2.0000      -0.459853       -12.5132
  55   2.0000      -0.448998       -12.2179
  56   2.0000      -0.448464       -12.2033
  57   2.0000      -0.439812       -11.9679
  58   2.0000      -0.434832       -11.8324
  59   2.0000      -0.423646       -11.5280
  60   2.0000      -0.420740       -11.4489
  61   2.0000      -0.416436       -11.3318
  62   2.0000      -0.409730       -11.1493
  63   2.0000      -0.349912        -9.5216
  64   2.0000      -0.333271        -9.0688
  65   2.0000      -0.326840        -8.8938
  66   2.0000      -0.288690        -7.8557
  67   0.0000       0.020384         0.5547
  68   0.0000       0.073355         1.9961
  69   0.0000       0.103309         2.8112
  70   0.0000       0.117849         3.2068
  71   0.0000       0.122684         3.3384

MULLIKEN ATOMIC CHARGES
-----------------------
   0 S :    0.086205
   1 C :   -0.125682
   2 C :   -0.086656
   3 C :    0.022347
   4 C :   -0.155690
   5 H :    0.017616
   6 C :    0.045915
   7 H :    0.032772
   8 H :    0.020075
   9 C :   -0.014735
  10 H :    0.005489
  11 H :   -0.003117
  12 C :    0.010802
  13 H :    0.028710
  14 H :    0.003195
  15 H :    0.022611
  16 S :    0.113614
  17 C :   -0.100272
  18 C :   -0.076249
  19 C :   -0.020859
  20 C :   -0.149782
  21 H :    0.036053
  22 C :    0.112512
  23 H :    0.021066
  24 H :    0.001778
  25 C :   -0.098081
  26 H :    0.017788
  27 H :    0.038868
  28 C :   -0.030348
  29 H :    0.027739
  30 H :    0.037378
  31 H :    0.030546
  32 H :    0.063073
  33 H :    0.065322
Sum of atomic charges:    0.0000000

LOEWDIN ATOMIC CHARGES
----------------------
   0 S :    0.375177
   1 C :   -0.194335
   2 C :   -0.054802
   3 C :   -0.062781
   4 C :   -0.171890
   5 H :    0.028288
   6 C :   -0.021669
   7 H :    0.036795
   8 H :    0.025611
   9 C :   -0.042799
  10 H :    0.016491
  11 H :    0.018509
  12 C :   -0.051442
  13 H :    0.032565
  14 H :    0.012295
  15 H :    0.025549
  16 S :    0.414531
  17 C :   -0.194712
  18 C :   -0.077125
  19 C :   -0.047791
  20 C :   -0.206708
  21 H :    0.036271
  22 C :   -0.039000
  23 H :    0.029636
  24 H :    0.020673
  25 C :   -0.047274
  26 H :    0.017364
  27 H :    0.031149
  28 C :   -0.059160
  29 H :    0.021925
  30 H :    0.027087
  31 H :    0.030129
  32 H :    0.033790
  33 H :    0.037654

  Mayer bond orders larger than 0.100000
B(  0-S ,  1-C ) :   1.1192 B(  0-S ,  4-C ) :   1.1234 B(  1-C ,  2-C ) :   1.6600
B(  1-C , 32-H ) :   0.9596 B(  2-C ,  3-C ) :   1.1929 B(  2-C ,  6-C ) :   1.0204
B(  3-C ,  4-C ) :   1.6151 B(  3-C ,  5-H ) :   0.9842 B(  4-C , 20-C ) :   1.0499
B(  6-C ,  7-H ) :   0.9444 B(  6-C ,  8-H ) :   0.9382 B(  6-C ,  9-C ) :   1.0747
B(  9-C , 10-H ) :   0.9487 B(  9-C , 11-H ) :   0.9377 B(  9-C , 12-C ) :   1.1004
B( 12-C , 13-H ) :   0.9662 B( 12-C , 14-H ) :   0.9693 B( 12-C , 15-H ) :   0.9707
B( 16-S , 17-C ) :   1.1480 B( 16-S , 20-C ) :   1.1564 B( 17-C , 18-C ) :   1.5907
B( 17-C , 20-C ) :   0.1035 B( 17-C , 33-H ) :   0.9652 B( 18-C , 19-C ) :   1.2825
B( 18-C , 21-H ) :   0.9736 B( 19-C , 20-C ) :   1.5367 B( 19-C , 22-C ) :   1.0203
B( 22-C , 23-H ) :   0.9156 B( 22-C , 24-H ) :   0.9216 B( 22-C , 25-C ) :   1.0849
B( 25-C , 26-H ) :   0.9456 B( 25-C , 27-H ) :   0.9505 B( 25-C , 28-C ) :   1.0783
B( 28-C , 29-H ) :   0.9737 B( 28-C , 30-H ) :   0.9783 B( 28-C , 31-H ) :   0.9716

Dispersion correction           -0.013279979
FINAL SINGLE POINT ENERGY     -1339.857587887827

DIPOLE MOMENT
-------------
                                X             Y             Z
Electronic contribution:    -10.49576      -6.02280       2.31565
Nuclear contribution   :     10.59407       5.99062      -2.33521
                        -----------------------------------------
Total Dipole Moment    :      0.09830      -0.03218      -0.01957
                        -----------------------------------------
Magnitude (a.u.)       :      0.10527
Magnitude (Debye)      :      0.26758

Rotational constants in cm-1:     0.022949     0.006965     0.005588
Rotational constants in MHz :   688.005063   208.813216   167.520522

                             ****ORCA TERMINATED NORMALLY****
TOTAL RUN TIME: 0 days 0 hours 0 minutes 30 seconds 903 msec
