                         Program Version 4.2.1 -  RELEASE  -
|  1> ! wB97X-D3 SP def2-SVP
|  2> %pal
|  3> nprocs 16
|  4> end
|  5>
|  6> * xyz 0 1
|  7> S 	 -31.3955 	 67.034 	 138.412
|  8> C 	 -30.613 	 68.5923 	 138.496
|  9> C 	 -31.0858 	 69.3254 	 139.581
| 10> C 	 -31.9864 	 68.6266 	 140.476
| 11> C 	 -32.2404 	 67.3524 	 139.951
| 12> H 	 -32.4681 	 69.1663 	 141.32
| 13> C 	 -30.5585 	 70.748 	 139.92
| 14> H 	 -29.7702 	 71.0011 	 139.32
| 15> H 	 -30.0249 	 70.6553 	 140.876
| 16> C 	 -31.6796 	 71.7904 	 140.122
| 17> H 	 -32.5002 	 71.3172 	 140.799
| 18> H 	 -31.3027 	 72.674 	 140.582
| 19> C 	 -32.3557 	 72.3513 	 138.856
| 20> H 	 -33.1856 	 72.9875 	 139.154
| 21> H 	 -31.6127 	 72.9655 	 138.379
| 22> H 	 -32.6813 	 71.4504 	 138.263
| 23> S 	 -34.1061 	 65.3597 	 139.585
| 24> C 	 -34.8716 	 64.6964 	 140.983
| 25> C 	 -34.3806 	 65.1341 	 142.149
| 26> C 	 -33.4368 	 66.1868 	 141.947
| 27> C 	 -33.1356 	 66.3953 	 140.622
| 28> H 	 -34.6522 	 64.6927 	 143.093
| 29> C 	 -32.5899 	 66.6265 	 143.171
| 30> H 	 -31.7905 	 67.3482 	 142.956
| 31> H 	 -32.0316 	 65.7208 	 143.534
| 32> C 	 -33.4209 	 67.2716 	 144.214
| 33> H 	 -34.1417 	 66.4702 	 144.539
| 34> H 	 -34.0511 	 68.0867 	 143.762
| 35> C 	 -32.6315 	 67.7138 	 145.463
| 36> H 	 -32.1777 	 66.843 	 145.968
| 37> H 	 -33.1721 	 68.2352 	 146.235
| 38> H 	 -31.7666 	 68.2899 	 145.179
| 39> H 	 -30.0297 	 69.0243 	 137.717
| 40> H 	 -35.5732 	 63.9482 	 140.883
| 41> *
| 42>
| 43>                          ****END OF INPUT****

CARTESIAN COORDINATES (ANGSTROEM)
---------------------------------
  S    -31.395500   67.034000  138.412000
  C    -30.613000   68.592300  138.496000
  C    -31.085800   69.325400  139.581000
  C    -31.986400   68.626600  140.476000
  C    -32.240400   67.352400  139.951000
  H    -32.468100   69.166300  141.320000
  C    -30.558500   70.748000  139.920000
  H    -29.770200   71.001100  139.320000
  H    -30.024900   70.655300  140.876000
  C    -31.679600   71.790400  140.122000
  H    -32.500200   71.317200  140.799000
  H    -31.302700   72.674000  140.582000
  C    -32.355700   72.351300  138.856000
  H    -33.185600   72.987500  139.154000
  H    -31.612700   72.965500  138.379000
  H    -32.681300   71.450400  138.263000
  S    -34.106100   65.359700  139.585000
  C    -34.871600   64.696400  140.983000
  C    -34.380600   65.134100  142.149000
  C    -33.436800   66.186800  141.947000
  C    -33.135600   66.395300  140.622000
  H    -34.652200   64.692700  143.093000
  C    -32.589900   66.626500  143.171000
  H    -31.790500   67.348200  142.956000
  H    -32.031600   65.720800  143.534000
  C    -33.420900   67.271600  144.214000
  H    -34.141700   66.470200  144.539000
  H    -34.051100   68.086700  143.762000
  C    -32.631500   67.713800  145.463000
  H    -32.177700   66.843000  145.968000
  H    -33.172100   68.235200  146.235000
  H    -31.766600   68.289900  145.179000
  H    -30.029700   69.024300  137.717000
  H    -35.573200   63.948200  140.883000

 Total Charge           Charge          ....    0
 Multiplicity           Mult            ....    1
 Number of Electrons    NEL             ....  134
 Basis Dimension        Dim             ....  322

ORBITAL ENERGIES
----------------

  NO   OCC          E(Eh)            E(eV)
   0   2.0000     -88.971059     -2421.0256
   1   2.0000     -88.962862     -2420.8025
   2   2.0000     -10.338430      -281.3230
   3   2.0000     -10.327813      -281.0341
   4   2.0000     -10.312489      -280.6171
   5   2.0000     -10.307480      -280.4808
   6   2.0000     -10.304328      -280.3950
   7   2.0000     -10.302845      -280.3547
   8   2.0000     -10.301654      -280.3222
   9   2.0000     -10.293065      -280.0885
  10   2.0000     -10.291028      -280.0331
  11   2.0000     -10.290534      -280.0197
  12   2.0000     -10.290161      -280.0095
  13   2.0000     -10.288624      -279.9677
  14   2.0000     -10.278458      -279.6911
  15   2.0000     -10.276577      -279.6399
  16   2.0000      -8.085038      -220.0051
  17   2.0000      -8.078613      -219.8302
  18   2.0000      -6.043681      -164.4569
  19   2.0000      -6.039774      -164.3506
  20   2.0000      -6.037027      -164.2759
  21   2.0000      -6.035591      -164.2368
  22   2.0000      -6.033120      -164.1695
  23   2.0000      -6.029284      -164.0652
  24   2.0000      -1.008177       -27.4339
  25   2.0000      -0.983235       -26.7552
  26   2.0000      -0.913555       -24.8591
  27   2.0000      -0.906361       -24.6633
  28   2.0000      -0.870782       -23.6952
  29   2.0000      -0.852076       -23.1862
  30   2.0000      -0.843882       -22.9632
  31   2.0000      -0.815943       -22.2029
  32   2.0000      -0.783929       -21.3318
  33   2.0000      -0.774333       -21.0707
  34   2.0000      -0.706908       -19.2359
  35   2.0000      -0.694559       -18.8999
  36   2.0000      -0.686914       -18.6919
  37   2.0000      -0.662037       -18.0149
  38   2.0000      -0.634304       -17.2603
  39   2.0000      -0.626943       -17.0600
  40   2.0000      -0.607049       -16.5186
  41   2.0000      -0.568970       -15.4825
  42   2.0000      -0.562373       -15.3030
  43   2.0000      -0.548307       -14.9202
  44   2.0000      -0.537629       -14.6296
  45   2.0000      -0.525298       -14.2941
  46   2.0000      -0.518320       -14.1042
  47   2.0000      -0.515145       -14.0178
  48   2.0000      -0.503743       -13.7076
  49   2.0000      -0.497318       -13.5327
  50   2.0000      -0.489775       -13.3275
  51   2.0000      -0.481055       -13.0902
  52   2.0000      -0.472098       -12.8464
  53   2.0000      -0.461922       -12.5695
  54   2.0000      -0.459419       -12.5014
  55   2.0000      -0.456161       -12.4128
  56   2.0000      -0.447533       -12.1780
  57   2.0000      -0.438944       -11.9443
  58   2.0000      -0.435512       -11.8509
  59   2.0000      -0.421011       -11.4563
  60   2.0000      -0.419096       -11.4042
  61   2.0000      -0.408623       -11.1192
  62   2.0000      -0.407854       -11.0983
  63   2.0000      -0.358409        -9.7528
  64   2.0000      -0.335082        -9.1180
  65   2.0000      -0.329127        -8.9560
  66   2.0000      -0.286927        -7.8077
  67   0.0000       0.024858         0.6764
  68   0.0000       0.077749         2.1157
  69   0.0000       0.105557         2.8724
  70   0.0000       0.117947         3.2095
  71   0.0000       0.123203         3.3525

MULLIKEN ATOMIC CHARGES
-----------------------
   0 S :    0.109935
   1 C :   -0.110561
   2 C :   -0.117393
   3 C :   -0.009811
   4 C :   -0.103557
   5 H :    0.043674
   6 C :    0.116659
   7 H :   -0.016489
   8 H :    0.031515
   9 C :   -0.118403
  10 H :    0.037769
  11 H :    0.021623
  12 C :   -0.045268
  13 H :    0.039073
  14 H :    0.026768
  15 H :    0.050733
  16 S :    0.091610
  17 C :   -0.049624
  18 C :   -0.013797
  19 C :   -0.036520
  20 C :   -0.137860
  21 H :    0.021288
  22 C :    0.026917
  23 H :    0.017415
  24 H :    0.045417
  25 C :   -0.121400
  26 H :    0.027719
  27 H :    0.041672
  28 C :   -0.014404
  29 H :    0.021588
  30 H :    0.038440
  31 H :    0.018448
  32 H :    0.043689
  33 H :    0.023136
Sum of atomic charges:    0.0000000

LOEWDIN ATOMIC CHARGES
----------------------
   0 S :    0.392317
   1 C :   -0.206461
   2 C :   -0.055710
   3 C :   -0.067440
   4 C :   -0.173361
   5 H :    0.041488
   6 C :   -0.027731
   7 H :    0.013202
   8 H :    0.038649
   9 C :   -0.045341
  10 H :    0.029373
  11 H :    0.017242
  12 C :   -0.065355
  13 H :    0.026785
  14 H :    0.020493
  15 H :    0.033126
  16 S :    0.399947
  17 C :   -0.166972
  18 C :   -0.065044
  19 C :   -0.058022
  20 C :   -0.187459
  21 H :    0.033314
  22 C :   -0.034220
  23 H :    0.023991
  24 H :    0.037471
  25 C :   -0.051843
  26 H :    0.023899
  27 H :    0.029657
  28 C :   -0.067296
  29 H :    0.028846
  30 H :    0.025664
  31 H :    0.020620
  32 H :    0.024969
  33 H :    0.011201

  Mayer bond orders larger than 0.100000
B(  0-S ,  1-C ) :   1.1131 B(  0-S ,  4-C ) :   1.1502 B(  1-C ,  2-C ) :   1.6272
B(  1-C , 32-H ) :   0.9687 B(  2-C ,  3-C ) :   1.2359 B(  2-C ,  6-C ) :   1.0213
B(  3-C ,  4-C ) :   1.5645 B(  3-C ,  5-H ) :   0.9791 B(  4-C , 20-C ) :   1.0544
B(  6-C ,  7-H ) :   0.9431 B(  6-C ,  8-H ) :   0.9377 B(  6-C ,  9-C ) :   1.0579
B(  9-C , 10-H ) :   0.9574 B(  9-C , 11-H ) :   0.9572 B(  9-C , 12-C ) :   1.0731
B( 12-C , 13-H ) :   0.9738 B( 12-C , 14-H ) :   0.9767 B( 12-C , 15-H ) :   0.9775
B( 16-S , 17-C ) :   1.1528 B( 16-S , 20-C ) :   1.1250 B( 17-C , 18-C ) :   1.6329
B( 17-C , 33-H ) :   0.9748 B( 18-C , 19-C ) :   1.2101 B( 18-C , 21-H ) :   0.9921
B( 19-C , 20-C ) :   1.6312 B( 19-C , 22-C ) :   1.0282 B( 22-C , 23-H ) :   0.9436
B( 22-C , 24-H ) :   0.9453 B( 22-C , 25-C ) :   1.0449 B( 25-C , 26-H ) :   0.9559
B( 25-C , 27-H ) :   0.9554 B( 25-C , 28-C ) :   1.0787 B( 28-C , 29-H ) :   0.9691
B( 28-C , 30-H ) :   0.9755 B( 28-C , 31-H ) :   0.9729

Dispersion correction           -0.013908636
FINAL SINGLE POINT ENERGY     -1339.875059970385

DIPOLE MOMENT
-------------
                                X             Y             Z
Electronic contribution:     -2.77091     -21.58075     -19.28752
Nuclear contribution   :      2.88417      21.90980      19.83849
                        -----------------------------------------
Total Dipole Moment    :      0.11326       0.32905       0.55097
                        -----------------------------------------
Magnitude (a.u.)       :      0.65167
Magnitude (Debye)      :      1.65640

Rotational constants in cm-1:     0.016286     0.009261     0.006731
Rotational constants in MHz :   488.254288   277.647074   201.782723

                             ****ORCA TERMINATED NORMALLY****
TOTAL RUN TIME: 0 days 0 hours 0 minutes 35 seconds 112 msec
