                         Program Version 4.2.1 -  RELEASE  -
|  1> ! wB97X-D3 SP def2-SVP
|  2> %pal
|  3> nprocs 16
|  4> end
|  5>
|  6> * xyz 0 1
|  7> S 	 -50.1897 	 9.77218 	 93.1482
|  8> C 	 -50.8022 	 11.1785 	 93.958
|  9> C 	 -50.9656 	 12.2033 	 93.0188
| 10> C 	 -50.7804 	 11.809 	 91.6816
| 11> C 	 -50.4719 	 10.4391 	 91.5808
| 12> H 	 -50.7706 	 12.4517 	 90.7691
| 13> C 	 -51.4145 	 13.6518 	 93.4325
| 14> H 	 -51.3676 	 13.636 	 94.4996
| 15> H 	 -52.3718 	 13.9821 	 93.2034
| 16> C 	 -50.4492 	 14.7037 	 92.9946
| 17> H 	 -50.3755 	 15.5595 	 93.6772
| 18> H 	 -49.4346 	 14.2257 	 93.1641
| 19> C 	 -50.6387 	 15.2959 	 91.5728
| 20> H 	 -51.2023 	 14.6936 	 90.8153
| 21> H 	 -51.3422 	 16.1092 	 91.6439
| 22> H 	 -49.5949 	 15.5499 	 91.2105
| 23> S 	 -48.6334 	 8.75082 	 90.3346
| 24> C 	 -48.8247 	 8.15798 	 88.6716
| 25> C 	 -50.0453 	 8.57501 	 88.2348
| 26> C 	 -50.7457 	 9.4409 	 89.1201
| 27> C 	 -50.1516 	 9.59004 	 90.3736
| 28> H 	 -50.3506 	 8.24054 	 87.2556
| 29> C 	 -52.043 	 10.1157 	 88.7381
| 30> H 	 -52.1314 	 11.1605 	 89.0858
| 31> H 	 -52.8817 	 9.57296 	 89.2142
| 32> C 	 -52.3691 	 10.0038 	 87.2267
| 33> H 	 -52.6761 	 8.93633 	 87.0563
| 34> H 	 -51.4955 	 10.0566 	 86.5935
| 35> C 	 -53.3687 	 10.9479 	 86.6725
| 36> H 	 -52.9984 	 12.0094 	 86.7847
| 37> H 	 -54.1525 	 10.9384 	 87.3949
| 38> H 	 -53.8165 	 10.7264 	 85.6864
| 39> H 	 -50.7704 	 11.1436 	 95.0971
| 40> H 	 -48.1187 	 7.40536 	 88.2562
| 41> *
| 42>
| 43>                          ****END OF INPUT****

CARTESIAN COORDINATES (ANGSTROEM)
---------------------------------
  S    -50.189700    9.772180   93.148200
  C    -50.802200   11.178500   93.958000
  C    -50.965600   12.203300   93.018800
  C    -50.780400   11.809000   91.681600
  C    -50.471900   10.439100   91.580800
  H    -50.770600   12.451700   90.769100
  C    -51.414500   13.651800   93.432500
  H    -51.367600   13.636000   94.499600
  H    -52.371800   13.982100   93.203400
  C    -50.449200   14.703700   92.994600
  H    -50.375500   15.559500   93.677200
  H    -49.434600   14.225700   93.164100
  C    -50.638700   15.295900   91.572800
  H    -51.202300   14.693600   90.815300
  H    -51.342200   16.109200   91.643900
  H    -49.594900   15.549900   91.210500
  S    -48.633400    8.750820   90.334600
  C    -48.824700    8.157980   88.671600
  C    -50.045300    8.575010   88.234800
  C    -50.745700    9.440900   89.120100
  C    -50.151600    9.590040   90.373600
  H    -50.350600    8.240540   87.255600
  C    -52.043000   10.115700   88.738100
  H    -52.131400   11.160500   89.085800
  H    -52.881700    9.572960   89.214200
  C    -52.369100   10.003800   87.226700
  H    -52.676100    8.936330   87.056300
  H    -51.495500   10.056600   86.593500
  C    -53.368700   10.947900   86.672500
  H    -52.998400   12.009400   86.784700
  H    -54.152500   10.938400   87.394900
  H    -53.816500   10.726400   85.686400
  H    -50.770400   11.143600   95.097100
  H    -48.118700    7.405360   88.256200

 Total Charge           Charge          ....    0
 Multiplicity           Mult            ....    1
 Number of Electrons    NEL             ....  134
 Basis Dimension        Dim             ....  322

ORBITAL ENERGIES
----------------

  NO   OCC          E(Eh)            E(eV)
   0   2.0000     -88.966745     -2420.9082
   1   2.0000     -88.959672     -2420.7157
   2   2.0000     -10.336869      -281.2805
   3   2.0000     -10.330833      -281.1162
   4   2.0000     -10.323513      -280.9171
   5   2.0000     -10.320938      -280.8470
   6   2.0000     -10.309388      -280.5327
   7   2.0000     -10.304876      -280.4099
   8   2.0000     -10.301403      -280.3154
   9   2.0000     -10.294662      -280.1320
  10   2.0000     -10.293699      -280.1058
  11   2.0000     -10.287112      -279.9266
  12   2.0000     -10.286497      -279.9098
  13   2.0000     -10.284802      -279.8637
  14   2.0000     -10.283478      -279.8277
  15   2.0000     -10.278428      -279.6902
  16   2.0000      -8.082323      -219.9312
  17   2.0000      -8.074639      -219.7221
  18   2.0000      -6.040639      -164.3741
  19   2.0000      -6.036577      -164.2636
  20   2.0000      -6.033368      -164.1763
  21   2.0000      -6.033183      -164.1713
  22   2.0000      -6.028949      -164.0560
  23   2.0000      -6.025487      -163.9618
  24   2.0000      -1.008238       -27.4356
  25   2.0000      -0.988249       -26.8916
  26   2.0000      -0.913175       -24.8488
  27   2.0000      -0.910521       -24.7765
  28   2.0000      -0.867041       -23.5934
  29   2.0000      -0.851148       -23.1609
  30   2.0000      -0.843282       -22.9469
  31   2.0000      -0.818193       -22.2642
  32   2.0000      -0.785193       -21.3662
  33   2.0000      -0.769992       -20.9525
  34   2.0000      -0.702846       -19.1254
  35   2.0000      -0.697212       -18.9721
  36   2.0000      -0.687778       -18.7154
  37   2.0000      -0.652388       -17.7524
  38   2.0000      -0.641011       -17.4428
  39   2.0000      -0.623478       -16.9657
  40   2.0000      -0.601899       -16.3785
  41   2.0000      -0.575372       -15.6567
  42   2.0000      -0.565376       -15.3847
  43   2.0000      -0.543768       -14.7967
  44   2.0000      -0.535030       -14.5589
  45   2.0000      -0.531636       -14.4666
  46   2.0000      -0.523663       -14.2496
  47   2.0000      -0.509255       -13.8575
  48   2.0000      -0.507208       -13.8018
  49   2.0000      -0.498839       -13.5741
  50   2.0000      -0.493302       -13.4234
  51   2.0000      -0.482028       -13.1167
  52   2.0000      -0.474454       -12.9105
  53   2.0000      -0.472423       -12.8553
  54   2.0000      -0.456705       -12.4276
  55   2.0000      -0.454794       -12.3756
  56   2.0000      -0.439480       -11.9589
  57   2.0000      -0.434023       -11.8104
  58   2.0000      -0.424578       -11.5534
  59   2.0000      -0.420521       -11.4430
  60   2.0000      -0.413775       -11.2594
  61   2.0000      -0.404940       -11.0190
  62   2.0000      -0.403595       -10.9824
  63   2.0000      -0.350184        -9.5290
  64   2.0000      -0.334863        -9.1121
  65   2.0000      -0.325840        -8.8666
  66   2.0000      -0.293954        -7.9989
  67   0.0000       0.027097         0.7373
  68   0.0000       0.069647         1.8952
  69   0.0000       0.113164         3.0794
  70   0.0000       0.123304         3.3553
  71   0.0000       0.132635         3.6092

MULLIKEN ATOMIC CHARGES
-----------------------
   0 S :    0.111456
   1 C :   -0.153651
   2 C :   -0.098674
   3 C :    0.027652
   4 C :   -0.167379
   5 H :    0.041331
   6 C :    0.144876
   7 H :   -0.001516
   8 H :    0.017033
   9 C :   -0.125378
  10 H :    0.031677
  11 H :    0.033598
  12 C :   -0.070801
  13 H :    0.030400
  14 H :    0.028761
  15 H :    0.059960
  16 S :    0.077123
  17 C :   -0.111295
  18 C :   -0.026289
  19 C :   -0.062776
  20 C :   -0.114630
  21 H :    0.020004
  22 C :    0.072551
  23 H :    0.025080
  24 H :    0.046313
  25 C :   -0.134866
  26 H :    0.027358
  27 H :    0.026490
  28 C :   -0.007795
  29 H :    0.032911
  30 H :    0.006201
  31 H :    0.047856
  32 H :    0.085994
  33 H :    0.080426
Sum of atomic charges:   -0.0000000

LOEWDIN ATOMIC CHARGES
----------------------
   0 S :    0.431476
   1 C :   -0.215763
   2 C :   -0.060010
   3 C :   -0.070970
   4 C :   -0.195851
   5 H :    0.041844
   6 C :   -0.022173
   7 H :    0.028162
   8 H :    0.017914
   9 C :   -0.052796
  10 H :    0.025833
  11 H :    0.029448
  12 C :   -0.077279
  13 H :    0.024146
  14 H :    0.023693
  15 H :    0.041038
  16 S :    0.395227
  17 C :   -0.181962
  18 C :   -0.074305
  19 C :   -0.064464
  20 C :   -0.203031
  21 H :    0.032532
  22 C :   -0.032050
  23 H :    0.028650
  24 H :    0.042109
  25 C :   -0.054010
  26 H :    0.025847
  27 H :    0.015556
  28 C :   -0.068335
  29 H :    0.031734
  30 H :    0.018275
  31 H :    0.033378
  32 H :    0.044722
  33 H :    0.041414

  Mayer bond orders larger than 0.100000
B(  0-S ,  1-C ) :   1.1616 B(  0-S ,  4-C ) :   1.1990 B(  1-C ,  2-C ) :   1.5645
B(  1-C ,  4-C ) :   0.1115 B(  1-C , 32-H ) :   0.9624 B(  2-C ,  3-C ) :   1.2833
B(  2-C ,  6-C ) :   1.0170 B(  3-C ,  4-C ) :   1.5305 B(  3-C ,  5-H ) :   0.9823
B(  4-C , 20-C ) :   1.0011 B(  6-C ,  7-H ) :   0.9286 B(  6-C ,  8-H ) :   0.9501
B(  6-C ,  9-C ) :   1.0704 B(  9-C , 10-H ) :   0.9582 B(  9-C , 11-H ) :   0.9610
B(  9-C , 12-C ) :   1.0525 B( 12-C , 13-H ) :   0.9755 B( 12-C , 14-H ) :   0.9724
B( 12-C , 15-H ) :   0.9765 B( 16-S , 17-C ) :   1.1555 B( 16-S , 20-C ) :   1.1559
B( 17-C , 18-C ) :   1.5803 B( 17-C , 20-C ) :   0.1038 B( 17-C , 33-H ) :   0.9619
B( 18-C , 19-C ) :   1.2602 B( 18-C , 21-H ) :   0.9898 B( 19-C , 20-C ) :   1.5900
B( 19-C , 22-C ) :   1.0372 B( 22-C , 23-H ) :   0.9445 B( 22-C , 24-H ) :   0.9190
B( 22-C , 25-C ) :   1.0665 B( 25-C , 26-H ) :   0.9431 B( 25-C , 27-H ) :   0.9596
B( 25-C , 28-C ) :   1.0879 B( 28-C , 29-H ) :   0.9693 B( 28-C , 30-H ) :   0.9665
B( 28-C , 31-H ) :   0.9691

Dispersion correction           -0.013547835
FINAL SINGLE POINT ENERGY     -1339.860455404379

DIPOLE MOMENT
-------------
                                X             Y             Z
Electronic contribution:     14.21885     -21.50507      12.07444
Nuclear contribution   :    -14.52111      21.90090     -12.25298
                        -----------------------------------------
Total Dipole Moment    :     -0.30226       0.39583      -0.17854
                        -----------------------------------------
Magnitude (a.u.)       :      0.52907
Magnitude (Debye)      :      1.34480

Rotational constants in cm-1:     0.016457     0.008876     0.006601
Rotational constants in MHz :   493.355889   266.095359   197.897321

                             ****ORCA TERMINATED NORMALLY****
TOTAL RUN TIME: 0 days 0 hours 0 minutes 29 seconds 656 msec
