                         Program Version 4.2.1 -  RELEASE  -
|  1> ! wB97X-D3 SP def2-SVP
|  2> %pal
|  3> nprocs 16
|  4> end
|  5>
|  6> * xyz 0 1
|  7> S 	 -0.435469 	 -15.4513 	 82.8609
|  8> C 	 -0.00542772 	 -16.4763 	 81.5061
|  9> C 	 -0.616642 	 -15.9901 	 80.37
| 10> C 	 -1.52042 	 -14.8573 	 80.6281
| 11> C 	 -1.61556 	 -14.5579 	 81.9422
| 12> H 	 -2.00437 	 -14.2611 	 79.8181
| 13> C 	 -0.56246 	 -16.5334 	 78.991
| 14> H 	 -1.54102 	 -16.3066 	 78.5865
| 15> H 	 -0.602578 	 -17.6037 	 78.9802
| 16> C 	 0.62348 	 -15.8736 	 78.1602
| 17> H 	 1.57542 	 -15.8164 	 78.6919
| 18> H 	 0.717691 	 -16.4311 	 77.1883
| 19> C 	 0.368624 	 -14.5034 	 77.7389
| 20> H 	 1.16805 	 -14.0504 	 77.1714
| 21> H 	 -0.432087 	 -14.5355 	 76.9935
| 22> H 	 0.179693 	 -13.794 	 78.5342
| 23> S 	 -1.21385 	 -12.0755 	 83.0011
| 24> C 	 -2.54655 	 -10.9492 	 83.0251
| 25> C 	 -3.75954 	 -11.5614 	 82.755
| 26> C 	 -3.57771 	 -12.8908 	 82.3744
| 27> C 	 -2.25431 	 -13.316 	 82.4392
| 28> H 	 -4.54718 	 -10.9483 	 82.727
| 29> C 	 -4.82606 	 -13.6554 	 81.9211
| 30> H 	 -5.66998 	 -12.9963 	 82.0612
| 31> H 	 -4.82361 	 -14.5253 	 82.6375
| 32> C 	 -4.98994 	 -14.0626 	 80.4977
| 33> H 	 -4.25003 	 -14.8371 	 80.3168
| 34> H 	 -4.86112 	 -13.265 	 79.817
| 35> C 	 -6.32533 	 -14.6938 	 80.1523
| 36> H 	 -6.23915 	 -15.1616 	 79.2259
| 37> H 	 -7.04089 	 -13.9329 	 79.9356
| 38> H 	 -6.63653 	 -15.3023 	 80.9849
| 39> H 	 0.431186 	 -17.4715 	 81.4779
| 40> H 	 -2.41625 	 -9.95562 	 83.3551
| 41> *
| 42>
| 43>                          ****END OF INPUT****

CARTESIAN COORDINATES (ANGSTROEM)
---------------------------------
  S     -0.435469  -15.451300   82.860900
  C     -0.005428  -16.476300   81.506100
  C     -0.616642  -15.990100   80.370000
  C     -1.520420  -14.857300   80.628100
  C     -1.615560  -14.557900   81.942200
  H     -2.004370  -14.261100   79.818100
  C     -0.562460  -16.533400   78.991000
  H     -1.541020  -16.306600   78.586500
  H     -0.602578  -17.603700   78.980200
  C      0.623480  -15.873600   78.160200
  H      1.575420  -15.816400   78.691900
  H      0.717691  -16.431100   77.188300
  C      0.368624  -14.503400   77.738900
  H      1.168050  -14.050400   77.171400
  H     -0.432087  -14.535500   76.993500
  H      0.179693  -13.794000   78.534200
  S     -1.213850  -12.075500   83.001100
  C     -2.546550  -10.949200   83.025100
  C     -3.759540  -11.561400   82.755000
  C     -3.577710  -12.890800   82.374400
  C     -2.254310  -13.316000   82.439200
  H     -4.547180  -10.948300   82.727000
  C     -4.826060  -13.655400   81.921100
  H     -5.669980  -12.996300   82.061200
  H     -4.823610  -14.525300   82.637500
  C     -4.989940  -14.062600   80.497700
  H     -4.250030  -14.837100   80.316800
  H     -4.861120  -13.265000   79.817000
  C     -6.325330  -14.693800   80.152300
  H     -6.239150  -15.161600   79.225900
  H     -7.040890  -13.932900   79.935600
  H     -6.636530  -15.302300   80.984900
  H      0.431186  -17.471500   81.477900
  H     -2.416250   -9.955620   83.355100

 Total Charge           Charge          ....    0
 Multiplicity           Mult            ....    1
 Number of Electrons    NEL             ....  134
 Basis Dimension        Dim             ....  322

ORBITAL ENERGIES
----------------

  NO   OCC          E(Eh)            E(eV)
   0   2.0000     -88.965234     -2420.8671
   1   2.0000     -88.964838     -2420.8563
   2   2.0000     -10.327562      -281.0272
   3   2.0000     -10.323200      -280.9085
   4   2.0000     -10.313796      -280.6527
   5   2.0000     -10.310555      -280.5645
   6   2.0000     -10.299561      -280.2653
   7   2.0000     -10.299391      -280.2607
   8   2.0000     -10.294592      -280.1301
   9   2.0000     -10.290251      -280.0120
  10   2.0000     -10.289239      -279.9844
  11   2.0000     -10.288616      -279.9675
  12   2.0000     -10.281712      -279.7796
  13   2.0000     -10.272799      -279.5371
  14   2.0000     -10.268608      -279.4230
  15   2.0000     -10.266144      -279.3560
  16   2.0000      -8.080768      -219.8889
  17   2.0000      -8.079612      -219.8574
  18   2.0000      -6.039097      -164.3322
  19   2.0000      -6.038360      -164.3121
  20   2.0000      -6.035085      -164.2230
  21   2.0000      -6.034070      -164.1954
  22   2.0000      -6.031759      -164.1325
  23   2.0000      -6.030143      -164.0885
  24   2.0000      -1.010738       -27.5036
  25   2.0000      -0.987652       -26.8754
  26   2.0000      -0.916663       -24.9437
  27   2.0000      -0.914766       -24.8921
  28   2.0000      -0.873853       -23.7788
  29   2.0000      -0.857381       -23.3305
  30   2.0000      -0.850302       -23.1379
  31   2.0000      -0.818798       -22.2806
  32   2.0000      -0.783454       -21.3189
  33   2.0000      -0.773531       -21.0489
  34   2.0000      -0.705865       -19.2076
  35   2.0000      -0.696759       -18.9598
  36   2.0000      -0.688328       -18.7303
  37   2.0000      -0.671175       -18.2636
  38   2.0000      -0.637678       -17.3521
  39   2.0000      -0.617851       -16.8126
  40   2.0000      -0.597608       -16.2617
  41   2.0000      -0.580923       -15.8077
  42   2.0000      -0.575348       -15.6560
  43   2.0000      -0.551895       -15.0178
  44   2.0000      -0.544539       -14.8177
  45   2.0000      -0.532170       -14.4811
  46   2.0000      -0.524509       -14.2726
  47   2.0000      -0.515460       -14.0264
  48   2.0000      -0.507954       -13.8221
  49   2.0000      -0.496745       -13.5171
  50   2.0000      -0.493104       -13.4180
  51   2.0000      -0.482248       -13.1226
  52   2.0000      -0.472760       -12.8645
  53   2.0000      -0.465805       -12.6752
  54   2.0000      -0.458546       -12.4777
  55   2.0000      -0.452234       -12.3059
  56   2.0000      -0.445234       -12.1154
  57   2.0000      -0.438268       -11.9259
  58   2.0000      -0.431372       -11.7382
  59   2.0000      -0.419180       -11.4065
  60   2.0000      -0.413043       -11.2395
  61   2.0000      -0.411237       -11.1903
  62   2.0000      -0.406290       -11.0557
  63   2.0000      -0.348850        -9.4927
  64   2.0000      -0.331226        -9.0131
  65   2.0000      -0.323063        -8.7910
  66   2.0000      -0.296947        -8.0803
  67   0.0000       0.038719         1.0536
  68   0.0000       0.060736         1.6527
  69   0.0000       0.115105         3.1322
  70   0.0000       0.118365         3.2209
  71   0.0000       0.132400         3.6028

MULLIKEN ATOMIC CHARGES
-----------------------
   0 S :    0.096862
   1 C :   -0.096784
   2 C :   -0.137547
   3 C :    0.022906
   4 C :   -0.139772
   5 H :    0.045642
   6 C :    0.075713
   7 H :    0.013289
   8 H :    0.019077
   9 C :   -0.050259
  10 H :    0.037535
  11 H :    0.034698
  12 C :   -0.057831
  13 H :    0.025262
  14 H :    0.014857
  15 H :    0.039235
  16 S :    0.119611
  17 C :   -0.099645
  18 C :    0.015447
  19 C :   -0.040627
  20 C :   -0.157190
  21 H :   -0.030756
  22 C :    0.074157
  23 H :    0.004620
  24 H :    0.047621
  25 C :   -0.075098
  26 H :    0.024425
  27 H :    0.013708
  28 C :    0.004148
  29 H :    0.016766
  30 H :    0.014613
  31 H :    0.031497
  32 H :    0.053496
  33 H :    0.040323
Sum of atomic charges:    0.0000000

LOEWDIN ATOMIC CHARGES
----------------------
   0 S :    0.398797
   1 C :   -0.204102
   2 C :   -0.060666
   3 C :   -0.064762
   4 C :   -0.199127
   5 H :    0.040382
   6 C :   -0.033485
   7 H :    0.029794
   8 H :    0.027280
   9 C :   -0.037001
  10 H :    0.027768
  11 H :    0.030793
  12 C :   -0.070448
  13 H :    0.026761
  14 H :    0.022166
  15 H :    0.023268
  16 S :    0.429414
  17 C :   -0.175008
  18 C :   -0.055948
  19 C :   -0.057371
  20 C :   -0.213225
  21 H :    0.012508
  22 C :   -0.030002
  23 H :    0.025718
  24 H :    0.042177
  25 C :   -0.042571
  26 H :    0.020024
  27 H :    0.017512
  28 C :   -0.051894
  29 H :    0.021471
  30 H :    0.020133
  31 H :    0.025663
  32 H :    0.037350
  33 H :    0.016632

  Mayer bond orders larger than 0.100000
B(  0-S ,  1-C ) :   1.1143 B(  0-S ,  4-C ) :   1.1439 B(  1-C ,  2-C ) :   1.6434
B(  1-C , 32-H ) :   0.9633 B(  2-C ,  3-C ) :   1.2216 B(  2-C ,  6-C ) :   1.0218
B(  3-C ,  4-C ) :   1.6050 B(  3-C ,  5-H ) :   0.9719 B(  4-C , 20-C ) :   0.9941
B(  6-C ,  7-H ) :   0.9452 B(  6-C ,  8-H ) :   0.9432 B(  6-C ,  9-C ) :   1.0432
B(  9-C , 10-H ) :   0.9590 B(  9-C , 11-H ) :   0.9552 B(  9-C , 12-C ) :   1.0966
B( 12-C , 13-H ) :   0.9665 B( 12-C , 14-H ) :   0.9729 B( 12-C , 15-H ) :   0.9683
B( 16-S , 17-C ) :   1.1771 B( 16-S , 20-C ) :   1.1638 B( 17-C , 18-C ) :   1.5820
B( 17-C , 20-C ) :   0.1002 B( 17-C , 33-H ) :   0.9707 B( 18-C , 19-C ) :   1.2620
B( 18-C , 21-H ) :   1.0155 B( 19-C , 20-C ) :   1.5910 B( 19-C , 22-C ) :   1.0276
B( 22-C , 23-H ) :   0.9388 B( 22-C , 24-H ) :   0.9238 B( 22-C , 25-C ) :   1.0881
B( 25-C , 26-H ) :   0.9449 B( 25-C , 27-H ) :   0.9511 B( 25-C , 28-C ) :   1.0942
B( 28-C , 29-H ) :   0.9689 B( 28-C , 30-H ) :   0.9716 B( 28-C , 31-H ) :   0.9734

Dispersion correction           -0.014645890
FINAL SINGLE POINT ENERGY     -1339.851499967959

DIPOLE MOMENT
-------------
                                X             Y             Z
Electronic contribution:     11.47324       5.88647      23.50907
Nuclear contribution   :    -11.78902      -5.87147     -24.19391
                        -----------------------------------------
Total Dipole Moment    :     -0.31578       0.01500      -0.68485
                        -----------------------------------------
Magnitude (a.u.)       :      0.75429
Magnitude (Debye)      :      1.91726

Rotational constants in cm-1:     0.016380     0.009724     0.007790
Rotational constants in MHz :   491.067510   291.504837   233.552859

                             ****ORCA TERMINATED NORMALLY****
TOTAL RUN TIME: 0 days 0 hours 0 minutes 34 seconds 854 msec
