                         Program Version 4.2.1 -  RELEASE  -
|  1> ! wB97X-D3 SP def2-SVP
|  2> %pal
|  3> nprocs 16
|  4> end
|  5>
|  6> * xyz 0 1
|  7> S 	 -40.4022 	 3.46216 	 97.3505
|  8> C 	 -38.669 	 3.90356 	 97.6329
|  9> C 	 -37.7967 	 3.16578 	 96.8547
| 10> C 	 -38.5242 	 2.25234 	 96.0275
| 11> C 	 -39.9069 	 2.27267 	 96.1509
| 12> H 	 -37.9908 	 1.6251 	 95.3439
| 13> C 	 -36.2882 	 3.16876 	 96.9902
| 14> H 	 -35.9776 	 2.14592 	 96.8667
| 15> H 	 -35.933 	 3.55281 	 97.9774
| 16> C 	 -35.4434 	 3.93089 	 95.919
| 17> H 	 -35.1401 	 4.9232 	 96.2552
| 18> H 	 -34.5626 	 3.39769 	 95.5974
| 19> C 	 -36.1128 	 4.34599 	 94.5574
| 20> H 	 -36.8713 	 5.02697 	 94.8581
| 21> H 	 -35.3768 	 4.76044 	 93.7947
| 22> H 	 -36.5615 	 3.41608 	 94.1165
| 23> S 	 -42.1965 	 2.51134 	 94.6065
| 24> C 	 -42.858 	 1.06032 	 93.8894
| 25> C 	 -42.1039 	 -0.0714286 	 94.1246
| 26> C 	 -40.9007 	 0.205484 	 94.8959
| 27> C 	 -40.8763 	 1.54117 	 95.3247
| 28> H 	 -42.3869 	 -1.06026 	 93.6904
| 29> C 	 -40.0263 	 -0.937115 	 95.2922
| 30> H 	 -39.024 	 -0.684289 	 95.0733
| 31> H 	 -40.2786 	 -1.72811 	 94.5912
| 32> C 	 -40.1431 	 -1.4629 	 96.7284
| 33> H 	 -41.2139 	 -1.59928 	 96.8323
| 34> H 	 -39.8395 	 -0.707464 	 97.39
| 35> C 	 -39.4138 	 -2.82116 	 96.9359
| 36> H 	 -39.3873 	 -3.27198 	 95.9516
| 37> H 	 -39.8435 	 -3.47839 	 97.6648
| 38> H 	 -38.3588 	 -2.72737 	 97.2917
| 39> H 	 -38.4018 	 4.83613 	 98.1505
| 40> H 	 -43.795 	 1.01576 	 93.3985
| 41> *
| 42>
| 43>                          ****END OF INPUT****

CARTESIAN COORDINATES (ANGSTROEM)
---------------------------------
  S    -40.402200    3.462160   97.350500
  C    -38.669000    3.903560   97.632900
  C    -37.796700    3.165780   96.854700
  C    -38.524200    2.252340   96.027500
  C    -39.906900    2.272670   96.150900
  H    -37.990800    1.625100   95.343900
  C    -36.288200    3.168760   96.990200
  H    -35.977600    2.145920   96.866700
  H    -35.933000    3.552810   97.977400
  C    -35.443400    3.930890   95.919000
  H    -35.140100    4.923200   96.255200
  H    -34.562600    3.397690   95.597400
  C    -36.112800    4.345990   94.557400
  H    -36.871300    5.026970   94.858100
  H    -35.376800    4.760440   93.794700
  H    -36.561500    3.416080   94.116500
  S    -42.196500    2.511340   94.606500
  C    -42.858000    1.060320   93.889400
  C    -42.103900   -0.071429   94.124600
  C    -40.900700    0.205484   94.895900
  C    -40.876300    1.541170   95.324700
  H    -42.386900   -1.060260   93.690400
  C    -40.026300   -0.937115   95.292200
  H    -39.024000   -0.684289   95.073300
  H    -40.278600   -1.728110   94.591200
  C    -40.143100   -1.462900   96.728400
  H    -41.213900   -1.599280   96.832300
  H    -39.839500   -0.707464   97.390000
  C    -39.413800   -2.821160   96.935900
  H    -39.387300   -3.271980   95.951600
  H    -39.843500   -3.478390   97.664800
  H    -38.358800   -2.727370   97.291700
  H    -38.401800    4.836130   98.150500
  H    -43.795000    1.015760   93.398500

 Total Charge           Charge          ....    0
 Multiplicity           Mult            ....    1
 Number of Electrons    NEL             ....  134
 Basis Dimension        Dim             ....  322

ORBITAL ENERGIES
----------------

  NO   OCC          E(Eh)            E(eV)
   0   2.0000     -88.968216     -2420.9482
   1   2.0000     -88.968144     -2420.9463
   2   2.0000     -10.334405      -281.2134
   3   2.0000     -10.332603      -281.1644
   4   2.0000     -10.320148      -280.8255
   5   2.0000     -10.315941      -280.7110
   6   2.0000     -10.307318      -280.4764
   7   2.0000     -10.305734      -280.4333
   8   2.0000     -10.301358      -280.3142
   9   2.0000     -10.299693      -280.2689
  10   2.0000     -10.295059      -280.1428
  11   2.0000     -10.286025      -279.8970
  12   2.0000     -10.285820      -279.8914
  13   2.0000     -10.280846      -279.7561
  14   2.0000     -10.280719      -279.7526
  15   2.0000     -10.279272      -279.7132
  16   2.0000      -8.082380      -219.9327
  17   2.0000      -8.081866      -219.9187
  18   2.0000      -6.040922      -164.3818
  19   2.0000      -6.040408      -164.3678
  20   2.0000      -6.037035      -164.2761
  21   2.0000      -6.036628      -164.2650
  22   2.0000      -6.033070      -164.1682
  23   2.0000      -6.032526      -164.1534
  24   2.0000      -1.000167       -27.2159
  25   2.0000      -0.978021       -26.6133
  26   2.0000      -0.911768       -24.8105
  27   2.0000      -0.906997       -24.6806
  28   2.0000      -0.864099       -23.5133
  29   2.0000      -0.850488       -23.1430
  30   2.0000      -0.841576       -22.9004
  31   2.0000      -0.811488       -22.0817
  32   2.0000      -0.785032       -21.3618
  33   2.0000      -0.773205       -21.0400
  34   2.0000      -0.712206       -19.3801
  35   2.0000      -0.694885       -18.9088
  36   2.0000      -0.692643       -18.8478
  37   2.0000      -0.661888       -18.0109
  38   2.0000      -0.634309       -17.2604
  39   2.0000      -0.619399       -16.8547
  40   2.0000      -0.595778       -16.2119
  41   2.0000      -0.572180       -15.5698
  42   2.0000      -0.568970       -15.4824
  43   2.0000      -0.549814       -14.9612
  44   2.0000      -0.537944       -14.6382
  45   2.0000      -0.523476       -14.2445
  46   2.0000      -0.511958       -13.9311
  47   2.0000      -0.509773       -13.8716
  48   2.0000      -0.508093       -13.8259
  49   2.0000      -0.495262       -13.4768
  50   2.0000      -0.486274       -13.2322
  51   2.0000      -0.481349       -13.0982
  52   2.0000      -0.471464       -12.8292
  53   2.0000      -0.459495       -12.5035
  54   2.0000      -0.456678       -12.4269
  55   2.0000      -0.451285       -12.2801
  56   2.0000      -0.442796       -12.0491
  57   2.0000      -0.438772       -11.9396
  58   2.0000      -0.437342       -11.9007
  59   2.0000      -0.424877       -11.5615
  60   2.0000      -0.418568       -11.3898
  61   2.0000      -0.416705       -11.3391
  62   2.0000      -0.408102       -11.1050
  63   2.0000      -0.344891        -9.3850
  64   2.0000      -0.334125        -9.0920
  65   2.0000      -0.331491        -9.0203
  66   2.0000      -0.290907        -7.9160
  67   0.0000       0.022659         0.6166
  68   0.0000       0.068372         1.8605
  69   0.0000       0.100825         2.7436
  70   0.0000       0.111092         3.0230
  71   0.0000       0.132853         3.6151

MULLIKEN ATOMIC CHARGES
-----------------------
   0 S :    0.094973
   1 C :   -0.142143
   2 C :   -0.100498
   3 C :    0.033576
   4 C :   -0.134680
   5 H :    0.001581
   6 C :    0.104492
   7 H :    0.027073
   8 H :    0.044937
   9 C :   -0.118083
  10 H :    0.026955
  11 H :    0.028285
  12 C :   -0.077723
  13 H :    0.041395
  14 H :    0.053320
  15 H :    0.027619
  16 S :    0.107344
  17 C :   -0.073564
  18 C :   -0.053975
  19 C :   -0.051679
  20 C :   -0.150882
  21 H :    0.036931
  22 C :    0.076787
  23 H :    0.008832
  24 H :    0.007084
  25 C :   -0.029407
  26 H :    0.024537
  27 H :    0.030555
  28 C :   -0.048527
  29 H :    0.024175
  30 H :    0.035659
  31 H :    0.036184
  32 H :    0.063288
  33 H :    0.045579
Sum of atomic charges:    0.0000000

LOEWDIN ATOMIC CHARGES
----------------------
   0 S :    0.375741
   1 C :   -0.182076
   2 C :   -0.062702
   3 C :   -0.060675
   4 C :   -0.189359
   5 H :    0.023414
   6 C :   -0.029163
   7 H :    0.034799
   8 H :    0.042276
   9 C :   -0.046426
  10 H :    0.020881
  11 H :    0.020381
  12 C :   -0.070118
  13 H :    0.019971
  14 H :    0.035555
  15 H :    0.022420
  16 S :    0.392729
  17 C :   -0.179234
  18 C :   -0.073721
  19 C :   -0.049865
  20 C :   -0.186271
  21 H :    0.039260
  22 C :   -0.031948
  23 H :    0.020865
  24 H :    0.027959
  25 C :   -0.027751
  26 H :    0.025809
  27 H :    0.019847
  28 C :   -0.066066
  29 H :    0.023859
  30 H :    0.024592
  31 H :    0.030756
  32 H :    0.031673
  33 H :    0.022588

  Mayer bond orders larger than 0.100000
B(  0-S ,  1-C ) :   1.1224 B(  0-S ,  4-C ) :   1.1416 B(  1-C ,  2-C ) :   1.6211
B(  1-C , 32-H ) :   0.9609 B(  2-C ,  3-C ) :   1.2443 B(  2-C ,  6-C ) :   1.0281
B(  3-C ,  4-C ) :   1.5724 B(  3-C ,  5-H ) :   0.9889 B(  4-C , 20-C ) :   1.0526
B(  6-C ,  7-H ) :   0.9359 B(  6-C ,  8-H ) :   0.9526 B(  6-C ,  9-C ) :   1.0394
B(  9-C , 10-H ) :   0.9638 B(  9-C , 11-H ) :   0.9629 B(  9-C , 12-C ) :   1.0926
B( 12-C , 13-H ) :   0.9702 B( 12-C , 14-H ) :   0.9745 B( 12-C , 15-H ) :   0.9728
B( 16-S , 17-C ) :   1.1456 B( 16-S , 20-C ) :   1.1313 B( 17-C , 18-C ) :   1.6360
B( 17-C , 33-H ) :   0.9673 B( 18-C , 19-C ) :   1.2262 B( 18-C , 21-H ) :   0.9777
B( 19-C , 20-C ) :   1.5967 B( 19-C , 22-C ) :   1.0613 B( 22-C , 23-H ) :   0.9174
B( 22-C , 24-H ) :   0.9232 B( 22-C , 25-C ) :   1.0688 B( 25-C , 26-H ) :   0.9557
B( 25-C , 27-H ) :   0.9571 B( 25-C , 28-C ) :   1.0704 B( 28-C , 29-H ) :   0.9768
B( 28-C , 30-H ) :   0.9775 B( 28-C , 31-H ) :   0.9751

Dispersion correction           -0.014320074
FINAL SINGLE POINT ENERGY     -1339.873031378148

DIPOLE MOMENT
-------------
                                X             Y             Z
Electronic contribution:    -21.67418      12.32533       0.37907
Nuclear contribution   :     22.13849     -12.71093      -0.49272
                        -----------------------------------------
Total Dipole Moment    :      0.46431      -0.38560      -0.11366
                        -----------------------------------------
Magnitude (a.u.)       :      0.61416
Magnitude (Debye)      :      1.56106

Rotational constants in cm-1:     0.016870     0.008865     0.007263
Rotational constants in MHz :   505.739780   265.751929   217.725506

                             ****ORCA TERMINATED NORMALLY****
TOTAL RUN TIME: 0 days 0 hours 0 minutes 29 seconds 992 msec
