                         Program Version 4.2.1 -  RELEASE  -
|  1> ! wB97X-D3 SP def2-SVP
|  2> %pal
|  3> nprocs 16
|  4> end
|  5>
|  6> * xyz 0 1
|  7> S 	 39.7255 	 7.35323 	 89.2463
|  8> C 	 40.6395 	 7.64747 	 87.8101
|  9> C 	 39.875 	 7.31164 	 86.6791
| 10> C 	 38.6542 	 6.72685 	 86.9808
| 11> C 	 38.3533 	 6.65429 	 88.3404
| 12> H 	 38.0099 	 6.25416 	 86.244
| 13> C 	 40.292 	 7.39744 	 85.2124
| 14> H 	 41.1477 	 8.09719 	 85.1354
| 15> H 	 39.4894 	 7.90729 	 84.6932
| 16> C 	 40.7318 	 6.05618 	 84.5979
| 17> H 	 40.0673 	 5.20651 	 84.709
| 18> H 	 40.8823 	 6.15953 	 83.4882
| 19> C 	 42.0476 	 5.56488 	 85.309
| 20> H 	 41.9152 	 5.531 	 86.3485
| 21> H 	 42.3672 	 4.57697 	 84.9993
| 22> H 	 42.7984 	 6.28309 	 85.0513
| 23> S 	 35.7308 	 6.10481 	 88.0741
| 24> C 	 35.0252 	 4.93827 	 89.1144
| 25> C 	 35.8503 	 4.5449 	 90.161
| 26> C 	 37.1339 	 5.1349 	 90.0117
| 27> C 	 37.2525 	 5.95002 	 88.9239
| 28> H 	 35.5125 	 3.89673 	 90.9657
| 29> C 	 38.2074 	 4.97554 	 91.0398
| 30> H 	 37.748 	 4.43898 	 91.9384
| 31> H 	 38.5468 	 5.8991 	 91.3982
| 32> C 	 39.3031 	 4.00474 	 90.4977
| 33> H 	 39.6539 	 4.52192 	 89.5744
| 34> H 	 38.9306 	 2.94552 	 90.3179
| 35> C 	 40.4169 	 3.96657 	 91.4595
| 36> H 	 41.3233 	 3.6298 	 90.9924
| 37> H 	 40.2598 	 3.36423 	 92.3358
| 38> H 	 40.6564 	 5.03633 	 91.7235
| 39> H 	 41.6289 	 8.08194 	 87.6621
| 40> H 	 34.0317 	 4.51049 	 89.1706
| 41> *
| 42>
| 43>                          ****END OF INPUT****

CARTESIAN COORDINATES (ANGSTROEM)
---------------------------------
  S     39.725500    7.353230   89.246300
  C     40.639500    7.647470   87.810100
  C     39.875000    7.311640   86.679100
  C     38.654200    6.726850   86.980800
  C     38.353300    6.654290   88.340400
  H     38.009900    6.254160   86.244000
  C     40.292000    7.397440   85.212400
  H     41.147700    8.097190   85.135400
  H     39.489400    7.907290   84.693200
  C     40.731800    6.056180   84.597900
  H     40.067300    5.206510   84.709000
  H     40.882300    6.159530   83.488200
  C     42.047600    5.564880   85.309000
  H     41.915200    5.531000   86.348500
  H     42.367200    4.576970   84.999300
  H     42.798400    6.283090   85.051300
  S     35.730800    6.104810   88.074100
  C     35.025200    4.938270   89.114400
  C     35.850300    4.544900   90.161000
  C     37.133900    5.134900   90.011700
  C     37.252500    5.950020   88.923900
  H     35.512500    3.896730   90.965700
  C     38.207400    4.975540   91.039800
  H     37.748000    4.438980   91.938400
  H     38.546800    5.899100   91.398200
  C     39.303100    4.004740   90.497700
  H     39.653900    4.521920   89.574400
  H     38.930600    2.945520   90.317900
  C     40.416900    3.966570   91.459500
  H     41.323300    3.629800   90.992400
  H     40.259800    3.364230   92.335800
  H     40.656400    5.036330   91.723500
  H     41.628900    8.081940   87.662100
  H     34.031700    4.510490   89.170600

 Total Charge           Charge          ....    0
 Multiplicity           Mult            ....    1
 Number of Electrons    NEL             ....  134
 Basis Dimension        Dim             ....  322

ORBITAL ENERGIES
----------------

  NO   OCC          E(Eh)            E(eV)
   0   2.0000     -88.973744     -2421.0986
   1   2.0000     -88.970015     -2420.9972
   2   2.0000     -10.333635      -281.1925
   3   2.0000     -10.320896      -280.8459
   4   2.0000     -10.317575      -280.7555
   5   2.0000     -10.313766      -280.6518
   6   2.0000     -10.298530      -280.2372
   7   2.0000     -10.295843      -280.1641
   8   2.0000     -10.295655      -280.1590
   9   2.0000     -10.292271      -280.0669
  10   2.0000     -10.292164      -280.0640
  11   2.0000     -10.290930      -280.0304
  12   2.0000     -10.287482      -279.9366
  13   2.0000     -10.284367      -279.8518
  14   2.0000     -10.269302      -279.4419
  15   2.0000     -10.266804      -279.3739
  16   2.0000      -8.087074      -220.0605
  17   2.0000      -8.084905      -220.0014
  18   2.0000      -6.045656      -164.5107
  19   2.0000      -6.043405      -164.4494
  20   2.0000      -6.041636      -164.4013
  21   2.0000      -6.039455      -164.3419
  22   2.0000      -6.037992      -164.3021
  23   2.0000      -6.035603      -164.2371
  24   2.0000      -1.012647       -27.5555
  25   2.0000      -0.988383       -26.8953
  26   2.0000      -0.914118       -24.8744
  27   2.0000      -0.908482       -24.7211
  28   2.0000      -0.873070       -23.7574
  29   2.0000      -0.856955       -23.3189
  30   2.0000      -0.847619       -23.0649
  31   2.0000      -0.811456       -22.0808
  32   2.0000      -0.781486       -21.2653
  33   2.0000      -0.769638       -20.9429
  34   2.0000      -0.710082       -19.3223
  35   2.0000      -0.697401       -18.9772
  36   2.0000      -0.685281       -18.6474
  37   2.0000      -0.670955       -18.2576
  38   2.0000      -0.633504       -17.2385
  39   2.0000      -0.621876       -16.9221
  40   2.0000      -0.595969       -16.2171
  41   2.0000      -0.571541       -15.5524
  42   2.0000      -0.569265       -15.4905
  43   2.0000      -0.552907       -15.0454
  44   2.0000      -0.539329       -14.6759
  45   2.0000      -0.523201       -14.2370
  46   2.0000      -0.518830       -14.1181
  47   2.0000      -0.512567       -13.9476
  48   2.0000      -0.505398       -13.7526
  49   2.0000      -0.497261       -13.5312
  50   2.0000      -0.486155       -13.2290
  51   2.0000      -0.478482       -13.0201
  52   2.0000      -0.471575       -12.8322
  53   2.0000      -0.469129       -12.7657
  54   2.0000      -0.460656       -12.5351
  55   2.0000      -0.451659       -12.2903
  56   2.0000      -0.447551       -12.1785
  57   2.0000      -0.439558       -11.9610
  58   2.0000      -0.429288       -11.6815
  59   2.0000      -0.422929       -11.5085
  60   2.0000      -0.416485       -11.3331
  61   2.0000      -0.415799       -11.3145
  62   2.0000      -0.403097       -10.9688
  63   2.0000      -0.356596        -9.7035
  64   2.0000      -0.334511        -9.1025
  65   2.0000      -0.332735        -9.0542
  66   2.0000      -0.282927        -7.6988
  67   0.0000       0.021007         0.5716
  68   0.0000       0.079728         2.1695
  69   0.0000       0.107968         2.9380
  70   0.0000       0.118231         3.2172
  71   0.0000       0.125627         3.4185

MULLIKEN ATOMIC CHARGES
-----------------------
   0 S :    0.104642
   1 C :   -0.106439
   2 C :   -0.116522
   3 C :    0.006387
   4 C :   -0.137957
   5 H :    0.021773
   6 C :    0.069568
   7 H :    0.017135
   8 H :    0.036070
   9 C :   -0.082583
  10 H :    0.032632
  11 H :    0.040986
  12 C :   -0.043682
  13 H :    0.033769
  14 H :    0.029544
  15 H :    0.019050
  16 S :    0.127787
  17 C :   -0.070943
  18 C :   -0.059063
  19 C :   -0.031451
  20 C :   -0.138488
  21 H :    0.021503
  22 C :    0.032567
  23 H :    0.018674
  24 H :    0.027528
  25 C :   -0.101939
  26 H :    0.044362
  27 H :    0.043039
  28 C :   -0.001179
  29 H :    0.019711
  30 H :    0.028227
  31 H :    0.017465
  32 H :    0.050152
  33 H :    0.047676
Sum of atomic charges:    0.0000000

LOEWDIN ATOMIC CHARGES
----------------------
   0 S :    0.417309
   1 C :   -0.213991
   2 C :   -0.067601
   3 C :   -0.066521
   4 C :   -0.182767
   5 H :    0.030645
   6 C :   -0.031365
   7 H :    0.029855
   8 H :    0.031824
   9 C :   -0.039667
  10 H :    0.020722
  11 H :    0.029124
  12 C :   -0.056605
  13 H :    0.018053
  14 H :    0.024283
  15 H :    0.018806
  16 S :    0.433142
  17 C :   -0.199113
  18 C :   -0.070945
  19 C :   -0.057442
  20 C :   -0.199996
  21 H :    0.034240
  22 C :   -0.033300
  23 H :    0.034684
  24 H :    0.013945
  25 C :   -0.043865
  26 H :    0.023587
  27 H :    0.032757
  28 C :   -0.067883
  29 H :    0.022062
  30 H :    0.020225
  31 H :    0.028356
  32 H :    0.034963
  33 H :    0.032478

  Mayer bond orders larger than 0.100000
B(  0-S ,  1-C ) :   1.1432 B(  0-S ,  4-C ) :   1.1401 B(  1-C ,  2-C ) :   1.5754
B(  1-C ,  4-C ) :   0.1040 B(  1-C , 32-H ) :   0.9630 B(  2-C ,  3-C ) :   1.2924
B(  2-C ,  6-C ) :   1.0252 B(  3-C ,  4-C ) :   1.5257 B(  3-C ,  5-H ) :   0.9856
B(  4-C , 20-C ) :   1.0671 B(  6-C ,  7-H ) :   0.9425 B(  6-C ,  8-H ) :   0.9409
B(  6-C ,  9-C ) :   1.0570 B(  9-C , 10-H ) :   0.9637 B(  9-C , 11-H ) :   0.9589
B(  9-C , 12-C ) :   1.0584 B( 12-C , 13-H ) :   0.9782 B( 12-C , 14-H ) :   0.9749
B( 12-C , 15-H ) :   0.9790 B( 16-S , 17-C ) :   1.1628 B( 16-S , 20-C ) :   1.1292
B( 17-C , 18-C ) :   1.6070 B( 17-C , 33-H ) :   0.9602 B( 18-C , 19-C ) :   1.2624
B( 18-C , 21-H ) :   0.9867 B( 19-C , 20-C ) :   1.5797 B( 19-C , 22-C ) :   1.0401
B( 22-C , 23-H ) :   0.9304 B( 22-C , 24-H ) :   0.9459 B( 22-C , 25-C ) :   1.0518
B( 25-C , 26-H ) :   0.9554 B( 25-C , 27-H ) :   0.9510 B( 25-C , 28-C ) :   1.0982
B( 28-C , 29-H ) :   0.9678 B( 28-C , 30-H ) :   0.9713 B( 28-C , 31-H ) :   0.9662

Dispersion correction           -0.015248270
FINAL SINGLE POINT ENERGY     -1339.879498683446

DIPOLE MOMENT
-------------
                                X             Y             Z
Electronic contribution:    -18.48220      10.50601       3.72137
Nuclear contribution   :     18.63297     -10.80872      -3.83121
                        -----------------------------------------
Total Dipole Moment    :      0.15076      -0.30271      -0.10983
                        -----------------------------------------
Magnitude (a.u.)       :      0.35556
Magnitude (Debye)      :      0.90377

Rotational constants in cm-1:     0.018757     0.009725     0.007719
Rotational constants in MHz :   562.317210   291.542295   231.401412

                             ****ORCA TERMINATED NORMALLY****
TOTAL RUN TIME: 0 days 0 hours 0 minutes 30 seconds 350 msec
