                         Program Version 4.2.1 -  RELEASE  -
|  1> ! wB97X-D3 SP def2-SVP
|  2> %pal
|  3> nprocs 16
|  4> end
|  5>
|  6> * xyz 0 1
|  7> S 	 1.18276 	 2.0279 	 84.2098
|  8> C 	 0.273494 	 0.741729 	 83.4547
|  9> C 	 -0.663268 	 1.15081 	 82.493
| 10> C 	 -0.676699 	 2.66027 	 82.5361
| 11> C 	 0.144046 	 3.21485 	 83.4051
| 12> H 	 -1.38465 	 3.21053 	 81.9013
| 13> C 	 -1.51957 	 0.31217 	 81.5347
| 14> H 	 -0.906203 	 -0.530706 	 81.3031
| 15> H 	 -1.70998 	 0.763212 	 80.6224
| 16> C 	 -2.89304 	 -0.103435 	 82.1484
| 17> H 	 -2.66666 	 -0.831747 	 82.9637
| 18> H 	 -3.37191 	 0.681388 	 82.7049
| 19> C 	 -3.9178 	 -0.593338 	 81.1258
| 20> H 	 -4.81773 	 -1.09929 	 81.5515
| 21> H 	 -4.24967 	 0.204587 	 80.4368
| 22> H 	 -3.3623 	 -1.38831 	 80.531
| 23> S 	 2.31269 	 5.00409 	 83.6876
| 24> C 	 1.90143 	 6.6632 	 83.654
| 25> C 	 0.5591 	 6.88069 	 83.517
| 26> C 	 -0.25225 	 5.7354 	 83.3653
| 27> C 	 0.510305 	 4.58117 	 83.4408
| 28> H 	 0.252703 	 7.88654 	 83.4851
| 29> C 	 -1.73303 	 5.83898 	 83.1968
| 30> H 	 -1.97096 	 5.35143 	 82.2187
| 31> H 	 -2.02504 	 6.86491 	 83.1198
| 32> C 	 -2.62415 	 5.14035 	 84.284
| 33> H 	 -2.57725 	 4.11846 	 84.0315
| 34> H 	 -3.67199 	 5.39777 	 84.2085
| 35> C 	 -2.16811 	 5.24798 	 85.7433
| 36> H 	 -1.12583 	 4.88914 	 85.9415
| 37> H 	 -2.7404 	 4.77846 	 86.53
| 38> H 	 -2.16998 	 6.27446 	 86.0818
| 39> H 	 0.619979 	 -0.212824 	 83.7407
| 40> H 	 2.56053 	 7.545 	 83.6293
| 41> *
| 42>
| 43>                          ****END OF INPUT****

CARTESIAN COORDINATES (ANGSTROEM)
---------------------------------
  S      1.182760    2.027900   84.209800
  C      0.273494    0.741729   83.454700
  C     -0.663268    1.150810   82.493000
  C     -0.676699    2.660270   82.536100
  C      0.144046    3.214850   83.405100
  H     -1.384650    3.210530   81.901300
  C     -1.519570    0.312170   81.534700
  H     -0.906203   -0.530706   81.303100
  H     -1.709980    0.763212   80.622400
  C     -2.893040   -0.103435   82.148400
  H     -2.666660   -0.831747   82.963700
  H     -3.371910    0.681388   82.704900
  C     -3.917800   -0.593338   81.125800
  H     -4.817730   -1.099290   81.551500
  H     -4.249670    0.204587   80.436800
  H     -3.362300   -1.388310   80.531000
  S      2.312690    5.004090   83.687600
  C      1.901430    6.663200   83.654000
  C      0.559100    6.880690   83.517000
  C     -0.252250    5.735400   83.365300
  C      0.510305    4.581170   83.440800
  H      0.252703    7.886540   83.485100
  C     -1.733030    5.838980   83.196800
  H     -1.970960    5.351430   82.218700
  H     -2.025040    6.864910   83.119800
  C     -2.624150    5.140350   84.284000
  H     -2.577250    4.118460   84.031500
  H     -3.671990    5.397770   84.208500
  C     -2.168110    5.247980   85.743300
  H     -1.125830    4.889140   85.941500
  H     -2.740400    4.778460   86.530000
  H     -2.169980    6.274460   86.081800
  H      0.619979   -0.212824   83.740700
  H      2.560530    7.545000   83.629300

 Total Charge           Charge          ....    0
 Multiplicity           Mult            ....    1
 Number of Electrons    NEL             ....  134
 Basis Dimension        Dim             ....  322

ORBITAL ENERGIES
----------------

  NO   OCC          E(Eh)            E(eV)
   0   2.0000     -88.965971     -2420.8871
   1   2.0000     -88.962564     -2420.7944
   2   2.0000     -10.328425      -281.0507
   3   2.0000     -10.321626      -280.8657
   4   2.0000     -10.317452      -280.7522
   5   2.0000     -10.315892      -280.7097
   6   2.0000     -10.311536      -280.5912
   7   2.0000     -10.300597      -280.2935
   8   2.0000     -10.296665      -280.1865
   9   2.0000     -10.296036      -280.1694
  10   2.0000     -10.294251      -280.1208
  11   2.0000     -10.290099      -280.0078
  12   2.0000     -10.290040      -280.0062
  13   2.0000     -10.282563      -279.8028
  14   2.0000     -10.282114      -279.7906
  15   2.0000     -10.269813      -279.4558
  16   2.0000      -8.079653      -219.8585
  17   2.0000      -8.077820      -219.8086
  18   2.0000      -6.038274      -164.3098
  19   2.0000      -6.036518      -164.2620
  20   2.0000      -6.034465      -164.2061
  21   2.0000      -6.032466      -164.1517
  22   2.0000      -6.030199      -164.0900
  23   2.0000      -6.028152      -164.0343
  24   2.0000      -1.005705       -27.3666
  25   2.0000      -0.979234       -26.6463
  26   2.0000      -0.911143       -24.7934
  27   2.0000      -0.906958       -24.6796
  28   2.0000      -0.872554       -23.7434
  29   2.0000      -0.850822       -23.1520
  30   2.0000      -0.843774       -22.9603
  31   2.0000      -0.813464       -22.1355
  32   2.0000      -0.787220       -21.4213
  33   2.0000      -0.772434       -21.0190
  34   2.0000      -0.712628       -19.3916
  35   2.0000      -0.703016       -19.1300
  36   2.0000      -0.689761       -18.7693
  37   2.0000      -0.666244       -18.1294
  38   2.0000      -0.644767       -17.5450
  39   2.0000      -0.622005       -16.9256
  40   2.0000      -0.588144       -16.0042
  41   2.0000      -0.569097       -15.4859
  42   2.0000      -0.561004       -15.2657
  43   2.0000      -0.551117       -14.9967
  44   2.0000      -0.542891       -14.7728
  45   2.0000      -0.527361       -14.3502
  46   2.0000      -0.516814       -14.0632
  47   2.0000      -0.505693       -13.7606
  48   2.0000      -0.500405       -13.6167
  49   2.0000      -0.495267       -13.4769
  50   2.0000      -0.492225       -13.3941
  51   2.0000      -0.477368       -12.9898
  52   2.0000      -0.473172       -12.8757
  53   2.0000      -0.467359       -12.7175
  54   2.0000      -0.459900       -12.5145
  55   2.0000      -0.446838       -12.1591
  56   2.0000      -0.440540       -11.9877
  57   2.0000      -0.437760       -11.9121
  58   2.0000      -0.433605       -11.7990
  59   2.0000      -0.429511       -11.6876
  60   2.0000      -0.421669       -11.4742
  61   2.0000      -0.411722       -11.2035
  62   2.0000      -0.408692       -11.1211
  63   2.0000      -0.362760        -9.8712
  64   2.0000      -0.332659        -9.0521
  65   2.0000      -0.325996        -8.8708
  66   2.0000      -0.282159        -7.6779
  67   0.0000       0.025740         0.7004
  68   0.0000       0.063935         1.7398
  69   0.0000       0.102083         2.7778
  70   0.0000       0.118805         3.2329
  71   0.0000       0.127550         3.4708

MULLIKEN ATOMIC CHARGES
-----------------------
   0 S :    0.079437
   1 C :   -0.117934
   2 C :   -0.093359
   3 C :   -0.006986
   4 C :   -0.106594
   5 H :    0.016032
   6 C :    0.124783
   7 H :    0.023764
   8 H :    0.003340
   9 C :   -0.079732
  10 H :    0.030971
  11 H :    0.026641
  12 C :   -0.082534
  13 H :    0.049227
  14 H :    0.045572
  15 H :    0.033901
  16 S :    0.095146
  17 C :   -0.080874
  18 C :   -0.039117
  19 C :   -0.023346
  20 C :   -0.143887
  21 H :   -0.008774
  22 C :    0.070755
  23 H :    0.042148
  24 H :    0.012927
  25 C :   -0.034491
  26 H :    0.015332
  27 H :    0.028167
  28 C :   -0.057569
  29 H :    0.042833
  30 H :    0.026911
  31 H :    0.014075
  32 H :    0.034013
  33 H :    0.059220
Sum of atomic charges:    0.0000000

LOEWDIN ATOMIC CHARGES
----------------------
   0 S :    0.382608
   1 C :   -0.179482
   2 C :   -0.047222
   3 C :   -0.056504
   4 C :   -0.189809
   5 H :    0.031750
   6 C :   -0.022087
   7 H :    0.032362
   8 H :    0.020463
   9 C :   -0.044758
  10 H :    0.028485
  11 H :    0.019939
  12 C :   -0.076073
  13 H :    0.032867
  14 H :    0.027591
  15 H :    0.029454
  16 S :    0.369727
  17 C :   -0.199724
  18 C :   -0.072494
  19 C :   -0.054230
  20 C :   -0.155163
  21 H :    0.021928
  22 C :   -0.024573
  23 H :    0.038295
  24 H :    0.025632
  25 C :   -0.036197
  26 H :    0.016623
  27 H :    0.025696
  28 C :   -0.074395
  29 H :    0.033281
  30 H :    0.025711
  31 H :    0.019466
  32 H :    0.012290
  33 H :    0.038544

  Mayer bond orders larger than 0.100000
B(  0-S ,  1-C ) :   1.1355 B(  0-S ,  4-C ) :   1.0968 B(  1-C ,  2-C ) :   1.6309
B(  1-C , 32-H ) :   0.9785 B(  2-C ,  3-C ) :   1.1932 B(  2-C ,  6-C ) :   1.0285
B(  3-C ,  4-C ) :   1.6259 B(  3-C ,  5-H ) :   0.9846 B(  4-C , 20-C ) :   1.0978
B(  6-C ,  7-H ) :   0.9325 B(  6-C ,  8-H ) :   0.9431 B(  6-C ,  9-C ) :   1.0460
B(  9-C , 10-H ) :   0.9549 B(  9-C , 11-H ) :   0.9628 B(  9-C , 12-C ) :   1.0738
B( 12-C , 13-H ) :   0.9736 B( 12-C , 14-H ) :   0.9744 B( 12-C , 15-H ) :   0.9750
B( 16-S , 17-C ) :   1.1415 B( 16-S , 20-C ) :   1.1006 B( 17-C , 18-C ) :   1.6435
B( 17-C , 33-H ) :   0.9562 B( 18-C , 19-C ) :   1.2278 B( 18-C , 21-H ) :   0.9947
B( 19-C , 20-C ) :   1.5986 B( 19-C , 22-C ) :   1.0416 B( 22-C , 23-H ) :   0.9347
B( 22-C , 24-H ) :   0.9322 B( 22-C , 25-C ) :   1.0585 B( 25-C , 26-H ) :   0.9493
B( 25-C , 27-H ) :   0.9573 B( 25-C , 28-C ) :   1.0839 B( 28-C , 29-H ) :   0.9673
B( 28-C , 30-H ) :   0.9747 B( 28-C , 31-H ) :   0.9770

Dispersion correction           -0.014940397
FINAL SINGLE POINT ENERGY     -1339.867774126704

DIPOLE MOMENT
-------------
                                X             Y             Z
Electronic contribution:     27.21241       6.72744       4.45212
Nuclear contribution   :    -27.83224      -6.75384      -4.80407
                        -----------------------------------------
Total Dipole Moment    :     -0.61983      -0.02639      -0.35195
                        -----------------------------------------
Magnitude (a.u.)       :      0.71327
Magnitude (Debye)      :      1.81298

Rotational constants in cm-1:     0.021070     0.008475     0.006935
Rotational constants in MHz :   631.660353   254.064412   207.900000

                             ****ORCA TERMINATED NORMALLY****
TOTAL RUN TIME: 0 days 0 hours 0 minutes 35 seconds 459 msec
