                         Program Version 4.2.1 -  RELEASE  -
|  1> ! wB97X-D3 SP def2-SVP
|  2> %pal
|  3> nprocs 16
|  4> end
|  5>
|  6> * xyz 0 1
|  7> S 	 -31.7057 	 66.6205 	 117.489
|  8> C 	 -33.097 	 65.5034 	 117.257
|  9> C 	 -33.2459 	 65.0454 	 115.951
| 10> C 	 -32.1661 	 65.5028 	 115.145
| 11> C 	 -31.3508 	 66.3782 	 115.77
| 12> H 	 -31.9684 	 65.229 	 114.109
| 13> C 	 -34.1033 	 63.8175 	 115.617
| 14> H 	 -34.2302 	 63.3701 	 116.612
| 15> H 	 -33.5268 	 63.0483 	 115.035
| 16> C 	 -35.4877 	 64.0604 	 114.961
| 17> H 	 -36.0109 	 63.1324 	 114.815
| 18> H 	 -36.1119 	 64.664 	 115.664
| 19> C 	 -35.5767 	 64.8451 	 113.686
| 20> H 	 -34.9023 	 65.6337 	 113.584
| 21> H 	 -35.3262 	 64.2227 	 112.792
| 22> H 	 -36.6138 	 65.2918 	 113.631
| 23> S 	 -28.6784 	 66.7556 	 115.767
| 24> C 	 -27.8952 	 67.5944 	 114.418
| 25> C 	 -28.85 	 67.9894 	 113.488
| 26> C 	 -30.1668 	 67.635 	 113.876
| 27> C 	 -30.2536 	 66.984 	 115.131
| 28> H 	 -28.6703 	 68.6589 	 112.566
| 29> C 	 -31.4009 	 67.8802 	 112.952
| 30> H 	 -31.3595 	 68.9326 	 112.611
| 31> H 	 -32.3322 	 67.7886 	 113.497
| 32> C 	 -31.5219 	 67.0845 	 111.702
| 33> H 	 -31.516 	 66.0208 	 112.047
| 34> H 	 -30.6844 	 67.3545 	 111.114
| 35> C 	 -32.7817 	 67.4293 	 110.974
| 36> H 	 -33.1415 	 68.4047 	 111.005
| 37> H 	 -33.5922 	 66.9076 	 111.475
| 38> H 	 -32.7537 	 67.0892 	 109.894
| 39> H 	 -33.7018 	 65.1342 	 118.065
| 40> H 	 -26.8348 	 67.8235 	 114.26
| 41> *
| 42>
| 43>                          ****END OF INPUT****

CARTESIAN COORDINATES (ANGSTROEM)
---------------------------------
  S    -31.705700   66.620500  117.489000
  C    -33.097000   65.503400  117.257000
  C    -33.245900   65.045400  115.951000
  C    -32.166100   65.502800  115.145000
  C    -31.350800   66.378200  115.770000
  H    -31.968400   65.229000  114.109000
  C    -34.103300   63.817500  115.617000
  H    -34.230200   63.370100  116.612000
  H    -33.526800   63.048300  115.035000
  C    -35.487700   64.060400  114.961000
  H    -36.010900   63.132400  114.815000
  H    -36.111900   64.664000  115.664000
  C    -35.576700   64.845100  113.686000
  H    -34.902300   65.633700  113.584000
  H    -35.326200   64.222700  112.792000
  H    -36.613800   65.291800  113.631000
  S    -28.678400   66.755600  115.767000
  C    -27.895200   67.594400  114.418000
  C    -28.850000   67.989400  113.488000
  C    -30.166800   67.635000  113.876000
  C    -30.253600   66.984000  115.131000
  H    -28.670300   68.658900  112.566000
  C    -31.400900   67.880200  112.952000
  H    -31.359500   68.932600  112.611000
  H    -32.332200   67.788600  113.497000
  C    -31.521900   67.084500  111.702000
  H    -31.516000   66.020800  112.047000
  H    -30.684400   67.354500  111.114000
  C    -32.781700   67.429300  110.974000
  H    -33.141500   68.404700  111.005000
  H    -33.592200   66.907600  111.475000
  H    -32.753700   67.089200  109.894000
  H    -33.701800   65.134200  118.065000
  H    -26.834800   67.823500  114.260000

 Total Charge           Charge          ....    0
 Multiplicity           Mult            ....    1
 Number of Electrons    NEL             ....  134
 Basis Dimension        Dim             ....  322

ORBITAL ENERGIES
----------------

  NO   OCC          E(Eh)            E(eV)
   0   2.0000     -88.971967     -2421.0503
   1   2.0000     -88.968257     -2420.9494
   2   2.0000     -10.324033      -280.9312
   3   2.0000     -10.322206      -280.8815
   4   2.0000     -10.321222      -280.8547
   5   2.0000     -10.320242      -280.8281
   6   2.0000     -10.304863      -280.4096
   7   2.0000     -10.304180      -280.3910
   8   2.0000     -10.301481      -280.3176
   9   2.0000     -10.301386      -280.3150
  10   2.0000     -10.292918      -280.0845
  11   2.0000     -10.287554      -279.9386
  12   2.0000     -10.286230      -279.9025
  13   2.0000     -10.280605      -279.7495
  14   2.0000     -10.277368      -279.6614
  15   2.0000     -10.274572      -279.5853
  16   2.0000      -8.085630      -220.0212
  17   2.0000      -8.082999      -219.9496
  18   2.0000      -6.044163      -164.4700
  19   2.0000      -6.041546      -164.3988
  20   2.0000      -6.040533      -164.3713
  21   2.0000      -6.037317      -164.2838
  22   2.0000      -6.036173      -164.2526
  23   2.0000      -6.033898      -164.1907
  24   2.0000      -1.010143       -27.4874
  25   2.0000      -0.981598       -26.7106
  26   2.0000      -0.919165       -25.0117
  27   2.0000      -0.910100       -24.7651
  28   2.0000      -0.874840       -23.8056
  29   2.0000      -0.854095       -23.2411
  30   2.0000      -0.847427       -23.0597
  31   2.0000      -0.815895       -22.2016
  32   2.0000      -0.783763       -21.3273
  33   2.0000      -0.770207       -20.9584
  34   2.0000      -0.707218       -19.2444
  35   2.0000      -0.699350       -19.0303
  36   2.0000      -0.694463       -18.8973
  37   2.0000      -0.659204       -17.9379
  38   2.0000      -0.640900       -17.4398
  39   2.0000      -0.616503       -16.7759
  40   2.0000      -0.594510       -16.1774
  41   2.0000      -0.577980       -15.7276
  42   2.0000      -0.570920       -15.5355
  43   2.0000      -0.546476       -14.8704
  44   2.0000      -0.542185       -14.7536
  45   2.0000      -0.525048       -14.2873
  46   2.0000      -0.515166       -14.0184
  47   2.0000      -0.512653       -13.9500
  48   2.0000      -0.509132       -13.8542
  49   2.0000      -0.499144       -13.5824
  50   2.0000      -0.494525       -13.4567
  51   2.0000      -0.477072       -12.9818
  52   2.0000      -0.471931       -12.8419
  53   2.0000      -0.465845       -12.6763
  54   2.0000      -0.456550       -12.4234
  55   2.0000      -0.449863       -12.2414
  56   2.0000      -0.444987       -12.1087
  57   2.0000      -0.437844       -11.9143
  58   2.0000      -0.430622       -11.7178
  59   2.0000      -0.425979       -11.5915
  60   2.0000      -0.418624       -11.3913
  61   2.0000      -0.416239       -11.3265
  62   2.0000      -0.412430       -11.2228
  63   2.0000      -0.348798        -9.4913
  64   2.0000      -0.337837        -9.1930
  65   2.0000      -0.328593        -8.9415
  66   2.0000      -0.291593        -7.9347
  67   0.0000       0.025289         0.6881
  68   0.0000       0.067138         1.8269
  69   0.0000       0.102807         2.7975
  70   0.0000       0.116151         3.1606
  71   0.0000       0.122760         3.3405

MULLIKEN ATOMIC CHARGES
-----------------------
   0 S :    0.114953
   1 C :   -0.117077
   2 C :   -0.045865
   3 C :    0.013596
   4 C :   -0.144892
   5 H :    0.007450
   6 C :    0.022072
   7 H :    0.025944
   8 H :    0.043535
   9 C :   -0.059612
  10 H :    0.030984
  11 H :    0.025448
  12 C :   -0.055187
  13 H :    0.015674
  14 H :    0.028937
  15 H :    0.044878
  16 S :    0.115004
  17 C :   -0.102047
  18 C :   -0.057201
  19 C :   -0.026321
  20 C :   -0.152098
  21 H :    0.052853
  22 C :   -0.000316
  23 H :    0.018966
  24 H :    0.023687
  25 C :   -0.029066
  26 H :    0.031991
  27 H :    0.015284
  28 C :   -0.030227
  29 H :    0.014015
  30 H :    0.016930
  31 H :    0.045765
  32 H :    0.045928
  33 H :    0.066015
Sum of atomic charges:   -0.0000000

LOEWDIN ATOMIC CHARGES
----------------------
   0 S :    0.377589
   1 C :   -0.171034
   2 C :   -0.063832
   3 C :   -0.053693
   4 C :   -0.189092
   5 H :    0.032825
   6 C :   -0.032582
   7 H :    0.034604
   8 H :    0.036011
   9 C :   -0.047566
  10 H :    0.024253
  11 H :    0.028022
  12 C :   -0.069900
  13 H :    0.011102
  14 H :    0.026627
  15 H :    0.038367
  16 S :    0.422962
  17 C :   -0.190903
  18 C :   -0.081640
  19 C :   -0.056962
  20 C :   -0.216788
  21 H :    0.048057
  22 C :   -0.036170
  23 H :    0.028938
  24 H :    0.023775
  25 C :   -0.040569
  26 H :    0.026127
  27 H :    0.016936
  28 C :   -0.065071
  29 H :    0.016584
  30 H :    0.027395
  31 H :    0.036093
  32 H :    0.022580
  33 H :    0.036956

  Mayer bond orders larger than 0.100000
B(  0-S ,  1-C ) :   1.1253 B(  0-S ,  4-C ) :   1.1168 B(  1-C ,  2-C ) :   1.6410
B(  1-C , 32-H ) :   0.9621 B(  2-C ,  3-C ) :   1.2003 B(  2-C ,  6-C ) :   1.0036
B(  3-C ,  4-C ) :   1.6080 B(  3-C ,  5-H ) :   0.9919 B(  4-C , 20-C ) :   1.0641
B(  6-C ,  7-H ) :   0.9467 B(  6-C ,  8-H ) :   0.9540 B(  6-C ,  9-C ) :   1.0643
B(  9-C , 10-H ) :   0.9552 B(  9-C , 11-H ) :   0.9573 B(  9-C , 12-C ) :   1.0821
B( 12-C , 13-H ) :   0.9739 B( 12-C , 14-H ) :   0.9738 B( 12-C , 15-H ) :   0.9736
B( 16-S , 17-C ) :   1.1590 B( 16-S , 20-C ) :   1.1524 B( 17-C , 18-C ) :   1.5783
B( 17-C , 20-C ) :   0.1072 B( 17-C , 33-H ) :   0.9661 B( 18-C , 19-C ) :   1.2899
B( 18-C , 21-H ) :   0.9703 B( 19-C , 20-C ) :   1.5530 B( 19-C , 22-C ) :   1.0369
B( 22-C , 23-H ) :   0.9305 B( 22-C , 24-H ) :   0.9417 B( 22-C , 25-C ) :   1.0735
B( 25-C , 26-H ) :   0.9489 B( 25-C , 27-H ) :   0.9475 B( 25-C , 28-C ) :   1.0845
B( 28-C , 29-H ) :   0.9698 B( 28-C , 30-H ) :   0.9694 B( 28-C , 31-H ) :   0.9712

Dispersion correction           -0.015037040
FINAL SINGLE POINT ENERGY     -1339.868100809570

DIPOLE MOMENT
-------------
                                X             Y             Z
Electronic contribution:     22.68958       5.23838      23.00319
Nuclear contribution   :    -23.01650      -5.41637     -23.48340
                        -----------------------------------------
Total Dipole Moment    :     -0.32692      -0.17800      -0.48021
                        -----------------------------------------
Magnitude (a.u.)       :      0.60758
Magnitude (Debye)      :      1.54435

Rotational constants in cm-1:     0.016995     0.010471     0.006979
Rotational constants in MHz :   509.506995   313.914700   209.235264

                             ****ORCA TERMINATED NORMALLY****
TOTAL RUN TIME: 0 days 0 hours 0 minutes 27 seconds 328 msec
