                         Program Version 4.2.1 -  RELEASE  -
|  1> ! wB97X-D3 SP def2-SVP
|  2> %pal
|  3> nprocs 16
|  4> end
|  5>
|  6> * xyz 0 1
|  7> S 	 -26.5128 	 62.5626 	 103.958
|  8> C 	 -27.8581 	 63.5208 	 104.484
|  9> C 	 -28.3367 	 63.1205 	 105.712
| 10> C 	 -27.6064 	 62.024 	 106.216
| 11> C 	 -26.7228 	 61.4449 	 105.342
| 12> H 	 -27.644 	 61.6524 	 107.26
| 13> C 	 -29.4107 	 63.7563 	 106.598
| 14> H 	 -29.0398 	 64.7524 	 106.905
| 15> H 	 -29.3983 	 63.3303 	 107.587
| 16> C 	 -30.7973 	 63.7684 	 106.042
| 17> H 	 -31.5556 	 64.41 	 106.505
| 18> H 	 -30.6217 	 64.0409 	 104.991
| 19> C 	 -31.3058 	 62.2839 	 105.846
| 20> H 	 -31.177 	 61.8212 	 106.82
| 21> H 	 -32.316 	 62.41 	 105.501
| 22> H 	 -30.7944 	 61.7382 	 105.071
| 23> S 	 -24.5888 	 60.6075 	 106.704
| 24> C 	 -23.9058 	 58.9973 	 106.43
| 25> C 	 -24.8213 	 58.2213 	 105.722
| 26> C 	 -25.9602 	 58.9944 	 105.206
| 27> C 	 -25.8637 	 60.3199 	 105.622
| 28> H 	 -24.6667 	 57.1991 	 105.534
| 29> C 	 -26.9463 	 58.5249 	 104.207
| 30> H 	 -26.4287 	 57.7915 	 103.679
| 31> H 	 -27.2227 	 59.3881 	 103.557
| 32> C 	 -28.2215 	 57.7934 	 104.779
| 33> H 	 -27.7853 	 57.1099 	 105.489
| 34> H 	 -28.8057 	 57.1675 	 104.068
| 35> C 	 -29.2686 	 58.6493 	 105.563
| 36> H 	 -28.8046 	 58.9661 	 106.472
| 37> H 	 -30.0657 	 57.8678 	 105.832
| 38> H 	 -29.7729 	 59.4654 	 105.099
| 39> H 	 -28.4162 	 64.2053 	 103.902
| 40> H 	 -23.0008 	 58.6079 	 106.908
| 41> *
| 42>
| 43>                          ****END OF INPUT****

CARTESIAN COORDINATES (ANGSTROEM)
---------------------------------
  S    -26.512800   62.562600  103.958000
  C    -27.858100   63.520800  104.484000
  C    -28.336700   63.120500  105.712000
  C    -27.606400   62.024000  106.216000
  C    -26.722800   61.444900  105.342000
  H    -27.644000   61.652400  107.260000
  C    -29.410700   63.756300  106.598000
  H    -29.039800   64.752400  106.905000
  H    -29.398300   63.330300  107.587000
  C    -30.797300   63.768400  106.042000
  H    -31.555600   64.410000  106.505000
  H    -30.621700   64.040900  104.991000
  C    -31.305800   62.283900  105.846000
  H    -31.177000   61.821200  106.820000
  H    -32.316000   62.410000  105.501000
  H    -30.794400   61.738200  105.071000
  S    -24.588800   60.607500  106.704000
  C    -23.905800   58.997300  106.430000
  C    -24.821300   58.221300  105.722000
  C    -25.960200   58.994400  105.206000
  C    -25.863700   60.319900  105.622000
  H    -24.666700   57.199100  105.534000
  C    -26.946300   58.524900  104.207000
  H    -26.428700   57.791500  103.679000
  H    -27.222700   59.388100  103.557000
  C    -28.221500   57.793400  104.779000
  H    -27.785300   57.109900  105.489000
  H    -28.805700   57.167500  104.068000
  C    -29.268600   58.649300  105.563000
  H    -28.804600   58.966100  106.472000
  H    -30.065700   57.867800  105.832000
  H    -29.772900   59.465400  105.099000
  H    -28.416200   64.205300  103.902000
  H    -23.000800   58.607900  106.908000

 Total Charge           Charge          ....    0
 Multiplicity           Mult            ....    1
 Number of Electrons    NEL             ....  134
 Basis Dimension        Dim             ....  322

ORBITAL ENERGIES
----------------

  NO   OCC          E(Eh)            E(eV)
   0   2.0000     -88.968523     -2420.9566
   1   2.0000     -88.964887     -2420.8576
   2   2.0000     -10.327186      -281.0170
   3   2.0000     -10.322665      -280.8940
   4   2.0000     -10.319514      -280.8082
   5   2.0000     -10.312153      -280.6080
   6   2.0000     -10.304529      -280.4005
   7   2.0000     -10.299530      -280.2644
   8   2.0000     -10.298619      -280.2397
   9   2.0000     -10.293100      -280.0895
  10   2.0000     -10.290385      -280.0156
  11   2.0000     -10.289269      -279.9852
  12   2.0000     -10.288059      -279.9523
  13   2.0000     -10.286819      -279.9186
  14   2.0000     -10.274082      -279.5720
  15   2.0000     -10.273857      -279.5659
  16   2.0000      -8.082559      -219.9376
  17   2.0000      -8.080327      -219.8769
  18   2.0000      -6.041157      -164.3882
  19   2.0000      -6.038823      -164.3247
  20   2.0000      -6.037182      -164.2801
  21   2.0000      -6.034678      -164.2119
  22   2.0000      -6.033239      -164.1728
  23   2.0000      -6.031102      -164.1146
  24   2.0000      -1.009607       -27.4728
  25   2.0000      -0.985697       -26.8222
  26   2.0000      -0.914004       -24.8713
  27   2.0000      -0.903924       -24.5970
  28   2.0000      -0.872327       -23.7372
  29   2.0000      -0.846770       -23.0418
  30   2.0000      -0.844035       -22.9674
  31   2.0000      -0.814194       -22.1554
  32   2.0000      -0.782998       -21.3065
  33   2.0000      -0.772573       -21.0228
  34   2.0000      -0.709003       -19.2929
  35   2.0000      -0.696894       -18.9635
  36   2.0000      -0.691908       -18.8278
  37   2.0000      -0.665486       -18.1088
  38   2.0000      -0.641697       -17.4615
  39   2.0000      -0.610286       -16.6067
  40   2.0000      -0.590988       -16.0816
  41   2.0000      -0.581867       -15.8334
  42   2.0000      -0.556898       -15.1540
  43   2.0000      -0.549781       -14.9603
  44   2.0000      -0.547186       -14.8897
  45   2.0000      -0.541797       -14.7430
  46   2.0000      -0.513697       -13.9784
  47   2.0000      -0.509888       -13.8747
  48   2.0000      -0.500826       -13.6282
  49   2.0000      -0.494433       -13.4542
  50   2.0000      -0.491244       -13.3674
  51   2.0000      -0.477928       -13.0051
  52   2.0000      -0.469524       -12.7764
  53   2.0000      -0.466867       -12.7041
  54   2.0000      -0.462750       -12.5921
  55   2.0000      -0.443182       -12.0596
  56   2.0000      -0.442889       -12.0516
  57   2.0000      -0.438346       -11.9280
  58   2.0000      -0.430752       -11.7214
  59   2.0000      -0.426236       -11.5985
  60   2.0000      -0.421606       -11.4725
  61   2.0000      -0.413312       -11.2468
  62   2.0000      -0.399178       -10.8622
  63   2.0000      -0.335791        -9.1373
  64   2.0000      -0.332352        -9.0437
  65   2.0000      -0.319110        -8.6834
  66   2.0000      -0.307873        -8.3777
  67   0.0000       0.040012         1.0888
  68   0.0000       0.049484         1.3465
  69   0.0000       0.108677         2.9572
  70   0.0000       0.111431         3.0322
  71   0.0000       0.129311         3.5187

MULLIKEN ATOMIC CHARGES
-----------------------
   0 S :    0.118112
   1 C :   -0.097495
   2 C :   -0.107049
   3 C :    0.013073
   4 C :   -0.165461
   5 H :    0.031967
   6 C :    0.083076
   7 H :    0.033213
   8 H :    0.003922
   9 C :   -0.078793
  10 H :    0.045832
  11 H :    0.017231
  12 C :   -0.058375
  13 H :    0.033184
  14 H :    0.030388
  15 H :    0.050518
  16 S :    0.122940
  17 C :   -0.099008
  18 C :   -0.017347
  19 C :   -0.040197
  20 C :   -0.193432
  21 H :    0.004089
  22 C :    0.114351
  23 H :    0.004340
  24 H :    0.040160
  25 C :   -0.087486
  26 H :    0.015796
  27 H :    0.036400
  28 C :   -0.054902
  29 H :    0.028339
  30 H :    0.033464
  31 H :    0.036950
  32 H :    0.036307
  33 H :    0.065894
Sum of atomic charges:    0.0000000

LOEWDIN ATOMIC CHARGES
----------------------
   0 S :    0.401348
   1 C :   -0.194221
   2 C :   -0.064590
   3 C :   -0.059379
   4 C :   -0.191481
   5 H :    0.036875
   6 C :   -0.036703
   7 H :    0.035218
   8 H :    0.022339
   9 C :   -0.042293
  10 H :    0.027676
  11 H :    0.024080
  12 C :   -0.057485
  13 H :    0.022117
  14 H :    0.024438
  15 H :    0.023469
  16 S :    0.424749
  17 C :   -0.183459
  18 C :   -0.060946
  19 C :   -0.051373
  20 C :   -0.222293
  21 H :    0.021906
  22 C :   -0.030906
  23 H :    0.024439
  24 H :    0.035688
  25 C :   -0.037535
  26 H :    0.021207
  27 H :    0.025310
  28 C :   -0.066058
  29 H :    0.019364
  30 H :    0.035669
  31 H :    0.017882
  32 H :    0.021293
  33 H :    0.033655

  Mayer bond orders larger than 0.100000
B(  0-S ,  1-C ) :   1.1465 B(  0-S ,  4-C ) :   1.1326 B(  1-C ,  2-C ) :   1.6151
B(  1-C ,  4-C ) :   0.1030 B(  1-C , 32-H ) :   0.9634 B(  2-C ,  3-C ) :   1.2504
B(  2-C ,  6-C ) :   1.0040 B(  3-C ,  4-C ) :   1.5929 B(  3-C ,  5-H ) :   0.9851
B(  4-C , 20-C ) :   1.0234 B(  6-C ,  7-H ) :   0.9342 B(  6-C ,  8-H ) :   0.9439
B(  6-C ,  9-C ) :   1.0685 B(  9-C , 10-H ) :   0.9596 B(  9-C , 11-H ) :   0.9590
B(  9-C , 12-C ) :   1.0610 B( 12-C , 13-H ) :   0.9812 B( 12-C , 14-H ) :   0.9724
B( 12-C , 15-H ) :   0.9741 B( 16-S , 17-C ) :   1.1451 B( 16-S , 20-C ) :   1.1643
B( 17-C , 18-C ) :   1.6121 B( 17-C , 33-H ) :   0.9682 B( 18-C , 19-C ) :   1.2291
B( 18-C , 21-H ) :   0.9920 B( 19-C , 20-C ) :   1.5806 B( 19-C , 22-C ) :   1.0472
B( 22-C , 23-H ) :   0.9212 B( 22-C , 24-H ) :   0.9365 B( 22-C , 25-C ) :   1.0573
B( 25-C , 26-H ) :   0.9549 B( 25-C , 27-H ) :   0.9644 B( 25-C , 28-C ) :   1.0750
B( 28-C , 29-H ) :   0.9753 B( 28-C , 30-H ) :   0.9717 B( 28-C , 31-H ) :   0.9785

Dispersion correction           -0.016206337
FINAL SINGLE POINT ENERGY     -1339.861761189461

DIPOLE MOMENT
-------------
                                X             Y             Z
Electronic contribution:     26.10850       5.56860      -1.84024
Nuclear contribution   :    -26.47633      -5.76058       2.01485
                        -----------------------------------------
Total Dipole Moment    :     -0.36783      -0.19198       0.17460
                        -----------------------------------------
Magnitude (a.u.)       :      0.45016
Magnitude (Debye)      :      1.14421

Rotational constants in cm-1:     0.020315     0.009535     0.007851
Rotational constants in MHz :   609.029583   285.862771   235.357572

                             ****ORCA TERMINATED NORMALLY****
TOTAL RUN TIME: 0 days 0 hours 0 minutes 32 seconds 381 msec
