                         Program Version 4.2.1 -  RELEASE  -
|  1> ! wB97X-D3 SP def2-SVP
|  2> %pal
|  3> nprocs 16
|  4> end
|  5>
|  6> * xyz 0 1
|  7> S 	 -35.4932 	 52.4946 	 108.091
|  8> C 	 -36.9648 	 51.7699 	 108.674
|  9> C 	 -37.5821 	 50.9163 	 107.741
| 10> C 	 -36.759 	 50.8464 	 106.532
| 11> C 	 -35.5539 	 51.5303 	 106.607
| 12> H 	 -37.0029 	 50.2023 	 105.708
| 13> C 	 -38.8411 	 50.1742 	 107.956
| 14> H 	 -38.5541 	 49.5564 	 108.751
| 15> H 	 -39.1876 	 49.5288 	 107.098
| 16> C 	 -40.0968 	 51.1345 	 108.466
| 17> H 	 -39.7593 	 51.6056 	 109.392
| 18> H 	 -40.2913 	 51.9473 	 107.847
| 19> C 	 -41.2482 	 50.2063 	 108.764
| 20> H 	 -42.0345 	 50.8228 	 109.173
| 21> H 	 -41.7173 	 49.8113 	 107.839
| 22> H 	 -41.1001 	 49.433 	 109.483
| 23> S 	 -32.785 	 51.7329 	 106.17
| 24> C 	 -32.1496 	 51.9295 	 104.565
| 25> C 	 -33.1729 	 51.8804 	 103.659
| 26> C 	 -34.4787 	 51.6743 	 104.226
| 27> C 	 -34.4642 	 51.7091 	 105.654
| 28> H 	 -32.8863 	 51.8685 	 102.619
| 29> C 	 -35.7224 	 51.4665 	 103.348
| 30> H 	 -35.9259 	 52.2402 	 102.65
| 31> H 	 -36.5563 	 51.4975 	 104.059
| 32> C 	 -35.6955 	 50.1824 	 102.591
| 33> H 	 -35.8067 	 49.271 	 103.233
| 34> H 	 -34.8652 	 50.1115 	 101.931
| 35> C 	 -36.9217 	 49.9108 	 101.728
| 36> H 	 -36.7571 	 48.9712 	 101.146
| 37> H 	 -37.1348 	 50.8153 	 101.149
| 38> H 	 -37.844 	 49.685 	 102.243
| 39> H 	 -37.36 	 52.0588 	 109.632
| 40> H 	 -31.0913 	 52.0705 	 104.313
| 41> *
| 42>
| 43>                          ****END OF INPUT****

CARTESIAN COORDINATES (ANGSTROEM)
---------------------------------
  S    -35.493200   52.494600  108.091000
  C    -36.964800   51.769900  108.674000
  C    -37.582100   50.916300  107.741000
  C    -36.759000   50.846400  106.532000
  C    -35.553900   51.530300  106.607000
  H    -37.002900   50.202300  105.708000
  C    -38.841100   50.174200  107.956000
  H    -38.554100   49.556400  108.751000
  H    -39.187600   49.528800  107.098000
  C    -40.096800   51.134500  108.466000
  H    -39.759300   51.605600  109.392000
  H    -40.291300   51.947300  107.847000
  C    -41.248200   50.206300  108.764000
  H    -42.034500   50.822800  109.173000
  H    -41.717300   49.811300  107.839000
  H    -41.100100   49.433000  109.483000
  S    -32.785000   51.732900  106.170000
  C    -32.149600   51.929500  104.565000
  C    -33.172900   51.880400  103.659000
  C    -34.478700   51.674300  104.226000
  C    -34.464200   51.709100  105.654000
  H    -32.886300   51.868500  102.619000
  C    -35.722400   51.466500  103.348000
  H    -35.925900   52.240200  102.650000
  H    -36.556300   51.497500  104.059000
  C    -35.695500   50.182400  102.591000
  H    -35.806700   49.271000  103.233000
  H    -34.865200   50.111500  101.931000
  C    -36.921700   49.910800  101.728000
  H    -36.757100   48.971200  101.146000
  H    -37.134800   50.815300  101.149000
  H    -37.844000   49.685000  102.243000
  H    -37.360000   52.058800  109.632000
  H    -31.091300   52.070500  104.313000

 Total Charge           Charge          ....    0
 Multiplicity           Mult            ....    1
 Number of Electrons    NEL             ....  134
 Basis Dimension        Dim             ....  322

ORBITAL ENERGIES
----------------

  NO   OCC          E(Eh)            E(eV)
   0   2.0000     -88.964738     -2420.8536
   1   2.0000     -88.964223     -2420.8396
   2   2.0000     -10.333510      -281.1891
   3   2.0000     -10.332220      -281.1540
   4   2.0000     -10.317053      -280.7413
   5   2.0000     -10.313320      -280.6397
   6   2.0000     -10.308691      -280.5138
   7   2.0000     -10.306175      -280.4453
   8   2.0000     -10.298020      -280.2234
   9   2.0000     -10.296971      -280.1948
  10   2.0000     -10.292304      -280.0678
  11   2.0000     -10.291885      -280.0564
  12   2.0000     -10.287379      -279.9338
  13   2.0000     -10.282227      -279.7936
  14   2.0000     -10.277785      -279.6727
  15   2.0000     -10.277692      -279.6702
  16   2.0000      -8.079441      -219.8528
  17   2.0000      -8.078892      -219.8378
  18   2.0000      -6.038037      -164.3034
  19   2.0000      -6.037372      -164.2852
  20   2.0000      -6.033826      -164.1888
  21   2.0000      -6.033431      -164.1780
  22   2.0000      -6.030221      -164.0907
  23   2.0000      -6.029670      -164.0757
  24   2.0000      -1.001992       -27.2656
  25   2.0000      -0.979909       -26.6647
  26   2.0000      -0.915393       -24.9091
  27   2.0000      -0.908152       -24.7121
  28   2.0000      -0.869399       -23.6575
  29   2.0000      -0.853266       -23.2186
  30   2.0000      -0.845587       -23.0096
  31   2.0000      -0.816756       -22.2251
  32   2.0000      -0.782443       -21.2913
  33   2.0000      -0.766309       -20.8523
  34   2.0000      -0.715064       -19.4579
  35   2.0000      -0.699778       -19.0419
  36   2.0000      -0.693335       -18.8666
  37   2.0000      -0.657814       -17.9000
  38   2.0000      -0.637866       -17.3572
  39   2.0000      -0.620983       -16.8978
  40   2.0000      -0.596268       -16.2253
  41   2.0000      -0.575134       -15.6502
  42   2.0000      -0.570217       -15.5164
  43   2.0000      -0.559681       -15.2297
  44   2.0000      -0.530656       -14.4399
  45   2.0000      -0.526727       -14.3330
  46   2.0000      -0.518410       -14.1066
  47   2.0000      -0.512770       -13.9532
  48   2.0000      -0.509396       -13.8614
  49   2.0000      -0.501589       -13.6489
  50   2.0000      -0.492067       -13.3898
  51   2.0000      -0.479185       -13.0393
  52   2.0000      -0.475994       -12.9525
  53   2.0000      -0.470179       -12.7942
  54   2.0000      -0.457427       -12.4472
  55   2.0000      -0.454683       -12.3725
  56   2.0000      -0.442685       -12.0461
  57   2.0000      -0.439895       -11.9702
  58   2.0000      -0.433956       -11.8085
  59   2.0000      -0.424511       -11.5515
  60   2.0000      -0.421012       -11.4563
  61   2.0000      -0.408259       -11.1093
  62   2.0000      -0.404432       -11.0052
  63   2.0000      -0.353268        -9.6129
  64   2.0000      -0.328784        -8.9467
  65   2.0000      -0.325296        -8.8518
  66   2.0000      -0.284591        -7.7441
  67   0.0000       0.023789         0.6473
  68   0.0000       0.076789         2.0895
  69   0.0000       0.111102         3.0232
  70   0.0000       0.120066         3.2672
  71   0.0000       0.131212         3.5705

MULLIKEN ATOMIC CHARGES
-----------------------
   0 S :    0.102850
   1 C :   -0.130249
   2 C :   -0.070195
   3 C :    0.015194
   4 C :   -0.145878
   5 H :    0.008821
   6 C :    0.037818
   7 H :    0.034615
   8 H :    0.038177
   9 C :   -0.069131
  10 H :    0.022132
  11 H :    0.029773
  12 C :   -0.027859
  13 H :    0.021351
  14 H :    0.033126
  15 H :    0.031568
  16 S :    0.103433
  17 C :   -0.102239
  18 C :   -0.027810
  19 C :   -0.049046
  20 C :   -0.117259
  21 H :    0.016813
  22 C :    0.105820
  23 H :    0.016322
  24 H :    0.006032
  25 C :   -0.081263
  26 H :    0.032253
  27 H :    0.027815
  28 C :   -0.062469
  29 H :    0.041759
  30 H :    0.022953
  31 H :    0.021045
  32 H :    0.045103
  33 H :    0.068626
Sum of atomic charges:    0.0000000

LOEWDIN ATOMIC CHARGES
----------------------
   0 S :    0.403021
   1 C :   -0.202399
   2 C :   -0.057658
   3 C :   -0.065482
   4 C :   -0.182238
   5 H :    0.026739
   6 C :   -0.033380
   7 H :    0.032047
   8 H :    0.035731
   9 C :   -0.021390
  10 H :    0.022457
  11 H :    0.018136
  12 C :   -0.067361
  13 H :    0.025953
  14 H :    0.028957
  15 H :    0.023597
  16 S :    0.409466
  17 C :   -0.191813
  18 C :   -0.075726
  19 C :   -0.047257
  20 C :   -0.205643
  21 H :    0.030609
  22 C :   -0.031447
  23 H :    0.025858
  24 H :    0.030558
  25 C :   -0.043261
  26 H :    0.031897
  27 H :    0.019739
  28 C :   -0.068419
  29 H :    0.033535
  30 H :    0.019151
  31 H :    0.018166
  32 H :    0.019930
  33 H :    0.037924

  Mayer bond orders larger than 0.100000
B(  0-S ,  1-C ) :   1.1445 B(  0-S ,  4-C ) :   1.1508 B(  1-C ,  2-C ) :   1.5866
B(  1-C , 32-H ) :   0.9717 B(  2-C ,  3-C ) :   1.2461 B(  2-C ,  6-C ) :   1.0199
B(  3-C ,  4-C ) :   1.5678 B(  3-C ,  5-H ) :   0.9887 B(  4-C , 20-C ) :   1.0499
B(  6-C ,  7-H ) :   0.9336 B(  6-C ,  8-H ) :   0.9530 B(  6-C ,  9-C ) :   1.0438
B(  9-C , 10-H ) :   0.9537 B(  9-C , 11-H ) :   0.9648 B(  9-C , 12-C ) :   1.0904
B( 12-C , 13-H ) :   0.9685 B( 12-C , 14-H ) :   0.9727 B( 12-C , 15-H ) :   0.9745
B( 16-S , 17-C ) :   1.1561 B( 16-S , 20-C ) :   1.1479 B( 17-C , 18-C ) :   1.5994
B( 17-C , 20-C ) :   0.1009 B( 17-C , 33-H ) :   0.9654 B( 18-C , 19-C ) :   1.2533
B( 18-C , 21-H ) :   0.9926 B( 19-C , 20-C ) :   1.5556 B( 19-C , 22-C ) :   1.0428
B( 22-C , 23-H ) :   0.9299 B( 22-C , 24-H ) :   0.9284 B( 22-C , 25-C ) :   1.0771
B( 25-C , 26-H ) :   0.9526 B( 25-C , 27-H ) :   0.9558 B( 25-C , 28-C ) :   1.0808
B( 28-C , 29-H ) :   0.9743 B( 28-C , 30-H ) :   0.9702 B( 28-C , 31-H ) :   0.9773

Dispersion correction           -0.013426160
FINAL SINGLE POINT ENERGY     -1339.868743436462

DIPOLE MOMENT
-------------
                                X             Y             Z
Electronic contribution:     27.25247      11.30437      10.29625
Nuclear contribution   :    -27.82838     -11.59855     -10.59347
                        -----------------------------------------
Total Dipole Moment    :     -0.57591      -0.29418      -0.29722
                        -----------------------------------------
Magnitude (a.u.)       :      0.71172
Magnitude (Debye)      :      1.80906

Rotational constants in cm-1:     0.018785     0.008002     0.005815
Rotational constants in MHz :   563.169273   239.881133   174.337809

                             ****ORCA TERMINATED NORMALLY****
TOTAL RUN TIME: 0 days 0 hours 0 minutes 28 seconds 996 msec
