                         Program Version 4.2.1 -  RELEASE  -
|  1> ! wB97X-D3 SP def2-SVP
|  2> %pal
|  3> nprocs 16
|  4> end
|  5>
|  6> * xyz 0 1
|  7> S 	 -61.9952 	 54.9182 	 125.428
|  8> C 	 -63.0025 	 54.6087 	 126.736
|  9> C 	 -64.2581 	 54.2251 	 126.371
| 10> C 	 -64.3637 	 54.2827 	 124.964
| 11> C 	 -63.2035 	 54.5405 	 124.214
| 12> H 	 -65.2171 	 54.0493 	 124.336
| 13> C 	 -65.4076 	 53.9811 	 127.341
| 14> H 	 -66.3044 	 54.1198 	 126.766
| 15> H 	 -65.4577 	 54.8111 	 128.118
| 16> C 	 -65.5896 	 52.5655 	 128.058
| 17> H 	 -64.6594 	 52.4764 	 128.548
| 18> H 	 -66.4263 	 52.5297 	 128.781
| 19> C 	 -65.609 	 51.3901 	 127.049
| 20> H 	 -66.4116 	 51.2535 	 126.363
| 21> H 	 -64.6801 	 51.3649 	 126.374
| 22> H 	 -65.4209 	 50.4847 	 127.735
| 23> S 	 -62.642 	 56.2686 	 122.085
| 24> C 	 -63.0236 	 55.6005 	 120.545
| 25> C 	 -63.5276 	 54.3136 	 120.509
| 26> C 	 -63.412 	 53.6943 	 121.802
| 27> C 	 -62.9769 	 54.6578 	 122.782
| 28> H 	 -63.9533 	 53.8659 	 119.668
| 29> C 	 -63.8102 	 52.2842 	 121.97
| 30> H 	 -64.3491 	 51.942 	 121.129
| 31> H 	 -64.5779 	 52.3757 	 122.744
| 32> C 	 -62.7428 	 51.3714 	 122.605
| 33> H 	 -62.5864 	 51.8081 	 123.472
| 34> H 	 -61.8121 	 51.4685 	 122.095
| 35> C 	 -63.0746 	 49.8866 	 122.962
| 36> H 	 -62.5297 	 49.5788 	 123.833
| 37> H 	 -62.829 	 49.1643 	 122.223
| 38> H 	 -64.1136 	 49.7453 	 123.197
| 39> H 	 -62.7538 	 54.7997 	 127.774
| 40> H 	 -62.9493 	 56.2737 	 119.697
| 41> *
| 42>
| 43>                          ****END OF INPUT****

CARTESIAN COORDINATES (ANGSTROEM)
---------------------------------
  S    -61.995200   54.918200  125.428000
  C    -63.002500   54.608700  126.736000
  C    -64.258100   54.225100  126.371000
  C    -64.363700   54.282700  124.964000
  C    -63.203500   54.540500  124.214000
  H    -65.217100   54.049300  124.336000
  C    -65.407600   53.981100  127.341000
  H    -66.304400   54.119800  126.766000
  H    -65.457700   54.811100  128.118000
  C    -65.589600   52.565500  128.058000
  H    -64.659400   52.476400  128.548000
  H    -66.426300   52.529700  128.781000
  C    -65.609000   51.390100  127.049000
  H    -66.411600   51.253500  126.363000
  H    -64.680100   51.364900  126.374000
  H    -65.420900   50.484700  127.735000
  S    -62.642000   56.268600  122.085000
  C    -63.023600   55.600500  120.545000
  C    -63.527600   54.313600  120.509000
  C    -63.412000   53.694300  121.802000
  C    -62.976900   54.657800  122.782000
  H    -63.953300   53.865900  119.668000
  C    -63.810200   52.284200  121.970000
  H    -64.349100   51.942000  121.129000
  H    -64.577900   52.375700  122.744000
  C    -62.742800   51.371400  122.605000
  H    -62.586400   51.808100  123.472000
  H    -61.812100   51.468500  122.095000
  C    -63.074600   49.886600  122.962000
  H    -62.529700   49.578800  123.833000
  H    -62.829000   49.164300  122.223000
  H    -64.113600   49.745300  123.197000
  H    -62.753800   54.799700  127.774000
  H    -62.949300   56.273700  119.697000

 Total Charge           Charge          ....    0
 Multiplicity           Mult            ....    1
 Number of Electrons    NEL             ....  134
 Basis Dimension        Dim             ....  322

ORBITAL ENERGIES
----------------

  NO   OCC          E(Eh)            E(eV)
   0   2.0000     -88.971839     -2421.0468
   1   2.0000     -88.960538     -2420.7393
   2   2.0000     -10.330519      -281.1077
   3   2.0000     -10.326694      -281.0036
   4   2.0000     -10.319312      -280.8028
   5   2.0000     -10.311429      -280.5883
   6   2.0000     -10.306782      -280.4618
   7   2.0000     -10.297829      -280.2182
   8   2.0000     -10.296731      -280.1883
   9   2.0000     -10.293217      -280.0927
  10   2.0000     -10.293190      -280.0919
  11   2.0000     -10.292915      -280.0845
  12   2.0000     -10.287635      -279.9408
  13   2.0000     -10.286392      -279.9070
  14   2.0000     -10.272622      -279.5323
  15   2.0000     -10.271996      -279.5152
  16   2.0000      -8.086441      -220.0432
  17   2.0000      -8.076711      -219.7785
  18   2.0000      -6.044733      -164.4856
  19   2.0000      -6.041154      -164.3882
  20   2.0000      -6.037260      -164.2822
  21   2.0000      -6.035012      -164.2210
  22   2.0000      -6.030744      -164.1049
  23   2.0000      -6.027865      -164.0265
  24   2.0000      -1.008365       -27.4390
  25   2.0000      -0.987285       -26.8654
  26   2.0000      -0.914564       -24.8865
  27   2.0000      -0.902320       -24.5534
  28   2.0000      -0.867802       -23.6141
  29   2.0000      -0.856612       -23.3096
  30   2.0000      -0.844953       -22.9923
  31   2.0000      -0.812599       -22.1119
  32   2.0000      -0.786730       -21.4080
  33   2.0000      -0.769482       -20.9387
  34   2.0000      -0.720354       -19.6018
  35   2.0000      -0.700794       -19.0696
  36   2.0000      -0.690731       -18.7958
  37   2.0000      -0.665840       -18.1184
  38   2.0000      -0.643270       -17.5043
  39   2.0000      -0.611499       -16.6397
  40   2.0000      -0.597117       -16.2484
  41   2.0000      -0.574649       -15.6370
  42   2.0000      -0.567112       -15.4319
  43   2.0000      -0.542284       -14.7563
  44   2.0000      -0.533149       -14.5077
  45   2.0000      -0.524276       -14.2663
  46   2.0000      -0.517848       -14.0914
  47   2.0000      -0.512956       -13.9583
  48   2.0000      -0.506380       -13.7793
  49   2.0000      -0.494827       -13.4649
  50   2.0000      -0.493618       -13.4320
  51   2.0000      -0.481926       -13.1139
  52   2.0000      -0.473461       -12.8835
  53   2.0000      -0.465080       -12.6555
  54   2.0000      -0.459279       -12.4976
  55   2.0000      -0.454846       -12.3770
  56   2.0000      -0.441916       -12.0251
  57   2.0000      -0.436072       -11.8661
  58   2.0000      -0.434400       -11.8206
  59   2.0000      -0.429466       -11.6864
  60   2.0000      -0.418309       -11.3828
  61   2.0000      -0.417749       -11.3675
  62   2.0000      -0.410280       -11.1643
  63   2.0000      -0.340548        -9.2668
  64   2.0000      -0.332030        -9.0350
  65   2.0000      -0.326905        -8.8955
  66   2.0000      -0.291378        -7.9288
  67   0.0000       0.027161         0.7391
  68   0.0000       0.064568         1.7570
  69   0.0000       0.105510         2.8711
  70   0.0000       0.120300         3.2735
  71   0.0000       0.127236         3.4623

MULLIKEN ATOMIC CHARGES
-----------------------
   0 S :    0.109620
   1 C :   -0.106289
   2 C :   -0.084118
   3 C :    0.034429
   4 C :   -0.215534
   5 H :    0.007584
   6 C :    0.035774
   7 H :    0.012997
   8 H :    0.041404
   9 C :   -0.030945
  10 H :    0.018336
  11 H :    0.047932
  12 C :   -0.109472
  13 H :    0.037419
  14 H :    0.045532
  15 H :    0.042460
  16 S :    0.126438
  17 C :   -0.088798
  18 C :   -0.010256
  19 C :   -0.081360
  20 C :   -0.136406
  21 H :    0.001560
  22 C :    0.137428
  23 H :    0.004559
  24 H :    0.005954
  25 C :   -0.014682
  26 H :   -0.005399
  27 H :    0.023317
  28 C :   -0.022303
  29 H :    0.025683
  30 H :    0.026364
  31 H :    0.017355
  32 H :    0.046417
  33 H :    0.057001
Sum of atomic charges:    0.0000000

LOEWDIN ATOMIC CHARGES
----------------------
   0 S :    0.430909
   1 C :   -0.209076
   2 C :   -0.081340
   3 C :   -0.062036
   4 C :   -0.211461
   5 H :    0.026094
   6 C :   -0.036530
   7 H :    0.023248
   8 H :    0.036444
   9 C :   -0.034839
  10 H :    0.019103
  11 H :    0.030473
  12 C :   -0.079509
  13 H :    0.015810
  14 H :    0.034909
  15 H :    0.037037
  16 S :    0.416070
  17 C :   -0.179261
  18 C :   -0.064819
  19 C :   -0.027383
  20 C :   -0.214442
  21 H :    0.024132
  22 C :   -0.029496
  23 H :    0.021590
  24 H :    0.036666
  25 C :   -0.021630
  26 H :    0.008067
  27 H :    0.023531
  28 C :   -0.057083
  29 H :    0.027946
  30 H :    0.020423
  31 H :    0.022896
  32 H :    0.030289
  33 H :    0.023267

  Mayer bond orders larger than 0.100000
B(  0-S ,  1-C ) :   1.1880 B(  0-S ,  4-C ) :   1.1496 B(  1-C ,  2-C ) :   1.5658
B(  1-C , 32-H ) :   0.9651 B(  2-C ,  3-C ) :   1.2774 B(  2-C ,  6-C ) :   1.0100
B(  3-C ,  4-C ) :   1.5524 B(  3-C ,  5-H ) :   0.9894 B(  4-C , 20-C ) :   1.0448
B(  6-C ,  7-H ) :   0.9442 B(  6-C ,  8-H ) :   0.9496 B(  6-C ,  9-C ) :   1.0516
B(  9-C , 10-H ) :   0.9568 B(  9-C , 11-H ) :   0.9605 B(  9-C , 12-C ) :   1.0683
B( 12-C , 13-H ) :   0.9813 B( 12-C , 14-H ) :   0.9709 B( 12-C , 15-H ) :   0.9747
B( 16-S , 17-C ) :   1.1838 B( 16-S , 20-C ) :   1.1384 B( 17-C , 18-C ) :   1.5771
B( 17-C , 33-H ) :   0.9653 B( 18-C , 19-C ) :   1.2553 B( 18-C , 21-H ) :   1.0044
B( 19-C , 20-C ) :   1.5407 B( 19-C , 22-C ) :   1.0529 B( 22-C , 23-H ) :   0.9339
B( 22-C , 24-H ) :   0.9052 B( 22-C , 25-C ) :   1.0520 B( 25-C , 26-H ) :   0.9486
B( 25-C , 27-H ) :   0.9592 B( 25-C , 28-C ) :   1.0820 B( 28-C , 29-H ) :   0.9764
B( 28-C , 30-H ) :   0.9781 B( 28-C , 31-H ) :   0.9733

Dispersion correction           -0.014997981
FINAL SINGLE POINT ENERGY     -1339.846711773552

DIPOLE MOMENT
-------------
                                X             Y             Z
Electronic contribution:     12.81968      25.69924      -8.98938
Nuclear contribution   :    -13.33557     -26.03435       8.97007
                        -----------------------------------------
Total Dipole Moment    :     -0.51589      -0.33510      -0.01931
                        -----------------------------------------
Magnitude (a.u.)       :      0.61547
Magnitude (Debye)      :      1.56441

Rotational constants in cm-1:     0.017970     0.009497     0.007243
Rotational constants in MHz :   538.736759   284.704462   217.140166

                             ****ORCA TERMINATED NORMALLY****
TOTAL RUN TIME: 0 days 0 hours 0 minutes 35 seconds 210 msec
