                         Program Version 4.2.1 -  RELEASE  -
|  1> ! wB97X-D3 SP def2-SVP
|  2> %pal
|  3> nprocs 16
|  4> end
|  5>
|  6> * xyz 0 1
|  7> S 	 -96.9094 	 44.1811 	 117.219
|  8> C 	 -97.7872 	 45.425 	 118.07
|  9> C 	 -97.174 	 45.7135 	 119.319
| 10> C 	 -95.9527 	 45.0091 	 119.44
| 11> C 	 -95.7024 	 44.0417 	 118.504
| 12> H 	 -95.2516 	 45.0646 	 120.281
| 13> C 	 -97.7918 	 46.5455 	 120.439
| 14> H 	 -97.3327 	 46.412 	 121.391
| 15> H 	 -98.8385 	 46.2011 	 120.441
| 16> C 	 -97.8548 	 47.9747 	 120.122
| 17> H 	 -96.9342 	 48.5369 	 119.925
| 18> H 	 -98.3489 	 48.0429 	 119.124
| 19> C 	 -98.8237 	 48.7555 	 120.998
| 20> H 	 -99.8405 	 48.4513 	 120.842
| 21> H 	 -98.5898 	 48.821 	 122.07
| 22> H 	 -98.8234 	 49.7259 	 120.568
| 23> S 	 -94.2286 	 41.6603 	 118.937
| 24> C 	 -92.5467 	 41.582 	 118.762
| 25> C 	 -92.1651 	 42.8327 	 118.338
| 26> C 	 -93.1546 	 43.8461 	 118.252
| 27> C 	 -94.4376 	 43.3127 	 118.437
| 28> H 	 -91.1282 	 42.9522 	 118.074
| 29> C 	 -92.8241 	 45.316 	 117.862
| 30> H 	 -91.9551 	 45.6292 	 118.467
| 31> H 	 -93.6556 	 45.9709 	 118.301
| 32> C 	 -92.4469 	 45.7273 	 116.419
| 33> H 	 -91.4053 	 45.4971 	 116.184
| 34> H 	 -92.4254 	 46.7926 	 116.303
| 35> C 	 -93.4902 	 45.2227 	 115.342
| 36> H 	 -93.4423 	 45.8062 	 114.432
| 37> H 	 -94.4846 	 45.39 	 115.802
| 38> H 	 -93.4552 	 44.1655 	 115.036
| 39> H 	 -98.8 	 45.936 	 117.787
| 40> H 	 -91.7389 	 40.8177 	 118.784
| 41> *
| 42>
| 43>                          ****END OF INPUT****

CARTESIAN COORDINATES (ANGSTROEM)
---------------------------------
  S    -96.909400   44.181100  117.219000
  C    -97.787200   45.425000  118.070000
  C    -97.174000   45.713500  119.319000
  C    -95.952700   45.009100  119.440000
  C    -95.702400   44.041700  118.504000
  H    -95.251600   45.064600  120.281000
  C    -97.791800   46.545500  120.439000
  H    -97.332700   46.412000  121.391000
  H    -98.838500   46.201100  120.441000
  C    -97.854800   47.974700  120.122000
  H    -96.934200   48.536900  119.925000
  H    -98.348900   48.042900  119.124000
  C    -98.823700   48.755500  120.998000
  H    -99.840500   48.451300  120.842000
  H    -98.589800   48.821000  122.070000
  H    -98.823400   49.725900  120.568000
  S    -94.228600   41.660300  118.937000
  C    -92.546700   41.582000  118.762000
  C    -92.165100   42.832700  118.338000
  C    -93.154600   43.846100  118.252000
  C    -94.437600   43.312700  118.437000
  H    -91.128200   42.952200  118.074000
  C    -92.824100   45.316000  117.862000
  H    -91.955100   45.629200  118.467000
  H    -93.655600   45.970900  118.301000
  C    -92.446900   45.727300  116.419000
  H    -91.405300   45.497100  116.184000
  H    -92.425400   46.792600  116.303000
  C    -93.490200   45.222700  115.342000
  H    -93.442300   45.806200  114.432000
  H    -94.484600   45.390000  115.802000
  H    -93.455200   44.165500  115.036000
  H    -98.800000   45.936000  117.787000
  H    -91.738900   40.817700  118.784000

 Total Charge           Charge          ....    0
 Multiplicity           Mult            ....    1
 Number of Electrons    NEL             ....  134
 Basis Dimension        Dim             ....  322

ORBITAL ENERGIES
----------------

  NO   OCC          E(Eh)            E(eV)
   0   2.0000     -88.973373     -2421.0886
   1   2.0000     -88.965488     -2420.8740
   2   2.0000     -10.328753      -281.0597
   3   2.0000     -10.328230      -281.0454
   4   2.0000     -10.327655      -281.0298
   5   2.0000     -10.315500      -280.6990
   6   2.0000     -10.305420      -280.4247
   7   2.0000     -10.305055      -280.4148
   8   2.0000     -10.298116      -280.2260
   9   2.0000     -10.293971      -280.1132
  10   2.0000     -10.290343      -280.0145
  11   2.0000     -10.287201      -279.9290
  12   2.0000     -10.285529      -279.8835
  13   2.0000     -10.284024      -279.8425
  14   2.0000     -10.273840      -279.5654
  15   2.0000     -10.272156      -279.5196
  16   2.0000      -8.086772      -220.0523
  17   2.0000      -8.080870      -219.8917
  18   2.0000      -6.045326      -164.5017
  19   2.0000      -6.041245      -164.3906
  20   2.0000      -6.039304      -164.3378
  21   2.0000      -6.037747      -164.2954
  22   2.0000      -6.035018      -164.2212
  23   2.0000      -6.031871      -164.1355
  24   2.0000      -1.010403       -27.4945
  25   2.0000      -0.989292       -26.9200
  26   2.0000      -0.924106       -25.1462
  27   2.0000      -0.896053       -24.3828
  28   2.0000      -0.871386       -23.7116
  29   2.0000      -0.852340       -23.1934
  30   2.0000      -0.839738       -22.8504
  31   2.0000      -0.815031       -22.1781
  32   2.0000      -0.783681       -21.3250
  33   2.0000      -0.770496       -20.9663
  34   2.0000      -0.705560       -19.1993
  35   2.0000      -0.698806       -19.0155
  36   2.0000      -0.692537       -18.8449
  37   2.0000      -0.648642       -17.6505
  38   2.0000      -0.640479       -17.4283
  39   2.0000      -0.620829       -16.8936
  40   2.0000      -0.586439       -15.9578
  41   2.0000      -0.580689       -15.8014
  42   2.0000      -0.565611       -15.3911
  43   2.0000      -0.543821       -14.7981
  44   2.0000      -0.537213       -14.6183
  45   2.0000      -0.529835       -14.4176
  46   2.0000      -0.514941       -14.0122
  47   2.0000      -0.512565       -13.9476
  48   2.0000      -0.505410       -13.7529
  49   2.0000      -0.500787       -13.6271
  50   2.0000      -0.488108       -13.2821
  51   2.0000      -0.477320       -12.9885
  52   2.0000      -0.473133       -12.8746
  53   2.0000      -0.464529       -12.6405
  54   2.0000      -0.454326       -12.3628
  55   2.0000      -0.445714       -12.1285
  56   2.0000      -0.439552       -11.9608
  57   2.0000      -0.437890       -11.9156
  58   2.0000      -0.428355       -11.6561
  59   2.0000      -0.422707       -11.5024
  60   2.0000      -0.414489       -11.2788
  61   2.0000      -0.409416       -11.1408
  62   2.0000      -0.408136       -11.1059
  63   2.0000      -0.338187        -9.2025
  64   2.0000      -0.329733        -8.9725
  65   2.0000      -0.326759        -8.8916
  66   2.0000      -0.306102        -8.3295
  67   0.0000       0.036690         0.9984
  68   0.0000       0.057427         1.5627
  69   0.0000       0.113493         3.0883
  70   0.0000       0.122405         3.3308
  71   0.0000       0.130544         3.5523

MULLIKEN ATOMIC CHARGES
-----------------------
   0 S :    0.127261
   1 C :   -0.161219
   2 C :   -0.095848
   3 C :    0.024274
   4 C :   -0.160028
   5 H :    0.023129
   6 C :    0.128998
   7 H :    0.019305
   8 H :    0.028281
   9 C :   -0.122639
  10 H :    0.033119
  11 H :    0.011983
  12 C :   -0.015707
  13 H :    0.020161
  14 H :    0.039618
  15 H :    0.017574
  16 S :    0.120569
  17 C :   -0.085603
  18 C :   -0.066377
  19 C :   -0.021485
  20 C :   -0.166980
  21 H :    0.008435
  22 C :    0.030171
  23 H :    0.026874
  24 H :    0.040167
  25 C :   -0.034198
  26 H :    0.020324
  27 H :    0.021515
  28 C :   -0.069372
  29 H :    0.027417
  30 H :    0.027707
  31 H :    0.044425
  32 H :    0.087153
  33 H :    0.070997
Sum of atomic charges:    0.0000000

LOEWDIN ATOMIC CHARGES
----------------------
   0 S :    0.422141
   1 C :   -0.221055
   2 C :   -0.063666
   3 C :   -0.056481
   4 C :   -0.201822
   5 H :    0.035595
   6 C :   -0.027700
   7 H :    0.026368
   8 H :    0.040789
   9 C :   -0.049716
  10 H :    0.025032
  11 H :    0.026360
  12 C :   -0.062872
  13 H :    0.021954
  14 H :    0.024619
  15 H :    0.025241
  16 S :    0.443809
  17 C :   -0.220890
  18 C :   -0.081019
  19 C :   -0.055973
  20 C :   -0.213751
  21 H :    0.024575
  22 C :   -0.042464
  23 H :    0.033567
  24 H :    0.038817
  25 C :   -0.039579
  26 H :    0.019945
  27 H :    0.025904
  28 C :   -0.072224
  29 H :    0.021526
  30 H :    0.021973
  31 H :    0.026801
  32 H :    0.052068
  33 H :    0.052131

  Mayer bond orders larger than 0.100000
B(  0-S ,  1-C ) :   1.1669 B(  0-S ,  4-C ) :   1.1397 B(  1-C ,  2-C ) :   1.5713
B(  1-C ,  4-C ) :   0.1054 B(  1-C , 32-H ) :   0.9490 B(  2-C ,  3-C ) :   1.2740
B(  2-C ,  6-C ) :   1.0106 B(  3-C ,  4-C ) :   1.5753 B(  3-C ,  5-H ) :   0.9898
B(  4-C , 20-C ) :   1.0136 B(  6-C ,  7-H ) :   0.9455 B(  6-C ,  8-H ) :   0.9339
B(  6-C ,  9-C ) :   1.0690 B(  9-C , 10-H ) :   0.9549 B(  9-C , 11-H ) :   0.9520
B(  9-C , 12-C ) :   1.0864 B( 12-C , 13-H ) :   0.9723 B( 12-C , 14-H ) :   0.9742
B( 12-C , 15-H ) :   0.9693 B( 16-S , 17-C ) :   1.1733 B( 16-S , 20-C ) :   1.1622
B( 17-C , 18-C ) :   1.5823 B( 17-C , 20-C ) :   0.1015 B( 17-C , 33-H ) :   0.9621
B( 18-C , 19-C ) :   1.2842 B( 18-C , 21-H ) :   0.9897 B( 19-C , 20-C ) :   1.5412
B( 19-C , 22-C ) :   1.0395 B( 22-C , 23-H ) :   0.9341 B( 22-C , 24-H ) :   0.9317
B( 22-C , 25-C ) :   1.0813 B( 25-C , 26-H ) :   0.9561 B( 25-C , 27-H ) :   0.9513
B( 25-C , 28-C ) :   1.0624 B( 28-C , 29-H ) :   0.9774 B( 28-C , 30-H ) :   0.9742
B( 28-C , 31-H ) :   0.9774

Dispersion correction           -0.014933807
FINAL SINGLE POINT ENERGY     -1339.859748507884

DIPOLE MOMENT
-------------
                                X             Y             Z
Electronic contribution:      1.53759     -24.97936      -1.30512
Nuclear contribution   :     -1.39269      25.62162       1.49711
                        -----------------------------------------
Total Dipole Moment    :      0.14490       0.64227       0.19199
                        -----------------------------------------
Magnitude (a.u.)       :      0.68583
Magnitude (Debye)      :      1.74324

Rotational constants in cm-1:     0.021175     0.007631     0.006973
Rotational constants in MHz :   634.821709   228.774321   209.047408

                             ****ORCA TERMINATED NORMALLY****
TOTAL RUN TIME: 0 days 0 hours 0 minutes 32 seconds 468 msec
