                         Program Version 4.2.1 -  RELEASE  -
|  1> ! wB97X-D3 SP def2-SVP
|  2> %pal
|  3> nprocs 16
|  4> end
|  5>
|  6> * xyz 0 1
|  7> S 	 -32.4627 	 60.963 	 107.931
|  8> C 	 -33.1932 	 60.1199 	 109.291
|  9> C 	 -34.0144 	 59.0768 	 108.889
| 10> C 	 -34.1877 	 59.1187 	 107.437
| 11> C 	 -33.4708 	 60.0844 	 106.764
| 12> H 	 -34.6897 	 58.4239 	 106.78
| 13> C 	 -34.5699 	 57.996 	 109.801
| 14> H 	 -35.1086 	 57.2576 	 109.209
| 15> H 	 -35.2622 	 58.4841 	 110.389
| 16> C 	 -33.5968 	 57.1781 	 110.635
| 17> H 	 -33.024 	 57.7902 	 111.262
| 18> H 	 -34.2247 	 56.4583 	 111.298
| 19> C 	 -32.5407 	 56.3944 	 109.834
| 20> H 	 -31.9673 	 55.7638 	 110.535
| 21> H 	 -33.0378 	 55.6388 	 109.167
| 22> H 	 -31.8155 	 57.0054 	 109.2
| 23> S 	 -31.8681 	 60.3419 	 104.642
| 24> C 	 -32.5232 	 60.5239 	 103.032
| 25> C 	 -33.9001 	 60.5904 	 103.048
| 26> C 	 -34.4559 	 60.4342 	 104.355
| 27> C 	 -33.425 	 60.3462 	 105.326
| 28> H 	 -34.3726 	 60.706 	 102.075
| 29> C 	 -35.9141 	 60.5861 	 104.633
| 30> H 	 -36.1033 	 60.1904 	 105.632
| 31> H 	 -36.5796 	 60.1316 	 103.934
| 32> C 	 -36.2682 	 62.05 	 104.619
| 33> H 	 -35.9173 	 62.4483 	 103.69
| 34> H 	 -35.5567 	 62.4883 	 105.318
| 35> C 	 -37.7757 	 62.3726 	 104.954
| 36> H 	 -38.0385 	 61.851 	 105.821
| 37> H 	 -38.4523 	 62.1247 	 104.135
| 38> H 	 -37.9232 	 63.4184 	 105.231
| 39> H 	 -32.8074 	 60.1777 	 110.291
| 40> H 	 -32.0248 	 60.5359 	 102.088
| 41> *
| 42>
| 43>                          ****END OF INPUT****

CARTESIAN COORDINATES (ANGSTROEM)
---------------------------------
  S    -32.462700   60.963000  107.931000
  C    -33.193200   60.119900  109.291000
  C    -34.014400   59.076800  108.889000
  C    -34.187700   59.118700  107.437000
  C    -33.470800   60.084400  106.764000
  H    -34.689700   58.423900  106.780000
  C    -34.569900   57.996000  109.801000
  H    -35.108600   57.257600  109.209000
  H    -35.262200   58.484100  110.389000
  C    -33.596800   57.178100  110.635000
  H    -33.024000   57.790200  111.262000
  H    -34.224700   56.458300  111.298000
  C    -32.540700   56.394400  109.834000
  H    -31.967300   55.763800  110.535000
  H    -33.037800   55.638800  109.167000
  H    -31.815500   57.005400  109.200000
  S    -31.868100   60.341900  104.642000
  C    -32.523200   60.523900  103.032000
  C    -33.900100   60.590400  103.048000
  C    -34.455900   60.434200  104.355000
  C    -33.425000   60.346200  105.326000
  H    -34.372600   60.706000  102.075000
  C    -35.914100   60.586100  104.633000
  H    -36.103300   60.190400  105.632000
  H    -36.579600   60.131600  103.934000
  C    -36.268200   62.050000  104.619000
  H    -35.917300   62.448300  103.690000
  H    -35.556700   62.488300  105.318000
  C    -37.775700   62.372600  104.954000
  H    -38.038500   61.851000  105.821000
  H    -38.452300   62.124700  104.135000
  H    -37.923200   63.418400  105.231000
  H    -32.807400   60.177700  110.291000
  H    -32.024800   60.535900  102.088000

 Total Charge           Charge          ....    0
 Multiplicity           Mult            ....    1
 Number of Electrons    NEL             ....  134
 Basis Dimension        Dim             ....  322

ORBITAL ENERGIES
----------------

  NO   OCC          E(Eh)            E(eV)
   0   2.0000     -88.969517     -2420.9836
   1   2.0000     -88.964983     -2420.8603
   2   2.0000     -10.331466      -281.1335
   3   2.0000     -10.328138      -281.0429
   4   2.0000     -10.314145      -280.6622
   5   2.0000     -10.313941      -280.6566
   6   2.0000     -10.307704      -280.4869
   7   2.0000     -10.307442      -280.4798
   8   2.0000     -10.295570      -280.1567
   9   2.0000     -10.294307      -280.1223
  10   2.0000     -10.292601      -280.0759
  11   2.0000     -10.287720      -279.9431
  12   2.0000     -10.285746      -279.8894
  13   2.0000     -10.282216      -279.7933
  14   2.0000     -10.278159      -279.6829
  15   2.0000     -10.275268      -279.6042
  16   2.0000      -8.084958      -220.0029
  17   2.0000      -8.079245      -219.8474
  18   2.0000      -6.043411      -164.4496
  19   2.0000      -6.039297      -164.3376
  20   2.0000      -6.037946      -164.3009
  21   2.0000      -6.035796      -164.2424
  22   2.0000      -6.033819      -164.1886
  23   2.0000      -6.029841      -164.0803
  24   2.0000      -1.009282       -27.4640
  25   2.0000      -0.982444       -26.7337
  26   2.0000      -0.915573       -24.9140
  27   2.0000      -0.912966       -24.8431
  28   2.0000      -0.870993       -23.7009
  29   2.0000      -0.847394       -23.0588
  30   2.0000      -0.841240       -22.8913
  31   2.0000      -0.816921       -22.2296
  32   2.0000      -0.784760       -21.3544
  33   2.0000      -0.773888       -21.0586
  34   2.0000      -0.705641       -19.2015
  35   2.0000      -0.701294       -19.0832
  36   2.0000      -0.694744       -18.9049
  37   2.0000      -0.662565       -18.0293
  38   2.0000      -0.640894       -17.4396
  39   2.0000      -0.612457       -16.6658
  40   2.0000      -0.596430       -16.2297
  41   2.0000      -0.579203       -15.7609
  42   2.0000      -0.567153       -15.4330
  43   2.0000      -0.556730       -15.1494
  44   2.0000      -0.537873       -14.6363
  45   2.0000      -0.515722       -14.0335
  46   2.0000      -0.513377       -13.9697
  47   2.0000      -0.510200       -13.8833
  48   2.0000      -0.506550       -13.7839
  49   2.0000      -0.499142       -13.5823
  50   2.0000      -0.489849       -13.3295
  51   2.0000      -0.480493       -13.0749
  52   2.0000      -0.470174       -12.7941
  53   2.0000      -0.466672       -12.6988
  54   2.0000      -0.458433       -12.4746
  55   2.0000      -0.447211       -12.1692
  56   2.0000      -0.440429       -11.9847
  57   2.0000      -0.438781       -11.9398
  58   2.0000      -0.431946       -11.7538
  59   2.0000      -0.428288       -11.6543
  60   2.0000      -0.423182       -11.5154
  61   2.0000      -0.416986       -11.3468
  62   2.0000      -0.415936       -11.3182
  63   2.0000      -0.351921        -9.5763
  64   2.0000      -0.331722        -9.0266
  65   2.0000      -0.327567        -8.9136
  66   2.0000      -0.291242        -7.9251
  67   0.0000       0.029151         0.7933
  68   0.0000       0.068969         1.8767
  69   0.0000       0.108948         2.9646
  70   0.0000       0.122736         3.3398
  71   0.0000       0.134111         3.6493

MULLIKEN ATOMIC CHARGES
-----------------------
   0 S :    0.095401
   1 C :   -0.110550
   2 C :   -0.116982
   3 C :    0.036170
   4 C :   -0.161161
   5 H :    0.014071
   6 C :    0.130406
   7 H :    0.014778
   8 H :    0.022686
   9 C :   -0.080225
  10 H :    0.014322
  11 H :    0.043708
  12 C :   -0.092594
  13 H :    0.035340
  14 H :    0.028753
  15 H :    0.063052
  16 S :    0.124082
  17 C :   -0.079983
  18 C :   -0.056051
  19 C :   -0.044722
  20 C :   -0.158374
  21 H :    0.024448
  22 C :    0.109021
  23 H :    0.011199
  24 H :    0.011722
  25 C :   -0.083441
  26 H :    0.008285
  27 H :    0.021173
  28 C :   -0.001644
  29 H :    0.016085
  30 H :    0.036564
  31 H :    0.033760
  32 H :    0.047186
  33 H :    0.043514
Sum of atomic charges:    0.0000000

LOEWDIN ATOMIC CHARGES
----------------------
   0 S :    0.383734
   1 C :   -0.193933
   2 C :   -0.055898
   3 C :   -0.066684
   4 C :   -0.189553
   5 H :    0.030432
   6 C :   -0.027991
   7 H :    0.031408
   8 H :    0.026184
   9 C :   -0.039790
  10 H :    0.011095
  11 H :    0.037822
  12 C :   -0.076395
  13 H :    0.027528
  14 H :    0.024590
  15 H :    0.037136
  16 S :    0.437634
  17 C :   -0.189142
  18 C :   -0.069941
  19 C :   -0.049348
  20 C :   -0.217047
  21 H :    0.035359
  22 C :   -0.031839
  23 H :    0.027637
  24 H :    0.024328
  25 C :   -0.035972
  26 H :    0.015641
  27 H :    0.025527
  28 C :   -0.059541
  29 H :    0.018281
  30 H :    0.026742
  31 H :    0.030519
  32 H :    0.024202
  33 H :    0.027276

  Mayer bond orders larger than 0.100000
B(  0-S ,  1-C ) :   1.1321 B(  0-S ,  4-C ) :   1.1326 B(  1-C ,  2-C ) :   1.6276
B(  1-C , 32-H ) :   0.9680 B(  2-C ,  3-C ) :   1.2156 B(  2-C ,  6-C ) :   1.0035
B(  3-C ,  4-C ) :   1.6134 B(  3-C ,  5-H ) :   0.9886 B(  4-C , 20-C ) :   1.0217
B(  6-C ,  7-H ) :   0.9432 B(  6-C ,  8-H ) :   0.9304 B(  6-C ,  9-C ) :   1.0794
B(  9-C , 10-H ) :   0.9556 B(  9-C , 11-H ) :   0.9536 B(  9-C , 12-C ) :   1.0725
B( 12-C , 13-H ) :   0.9737 B( 12-C , 14-H ) :   0.9758 B( 12-C , 15-H ) :   0.9723
B( 16-S , 17-C ) :   1.1526 B( 16-S , 20-C ) :   1.1720 B( 17-C , 18-C ) :   1.6209
B( 17-C , 20-C ) :   0.1012 B( 17-C , 33-H ) :   0.9684 B( 18-C , 19-C ) :   1.2369
B( 18-C , 21-H ) :   0.9884 B( 19-C , 20-C ) :   1.5560 B( 19-C , 22-C ) :   1.0695
B( 22-C , 23-H ) :   0.9216 B( 22-C , 24-H ) :   0.9275 B( 22-C , 25-C ) :   1.0649
B( 25-C , 26-H ) :   0.9577 B( 25-C , 27-H ) :   0.9522 B( 25-C , 28-C ) :   1.0669
B( 28-C , 29-H ) :   0.9740 B( 28-C , 30-H ) :   0.9758 B( 28-C , 31-H ) :   0.9747

Dispersion correction           -0.014223647
FINAL SINGLE POINT ENERGY     -1339.879124173119

DIPOLE MOMENT
-------------
                                X             Y             Z
Electronic contribution:     17.47537       7.88313      -7.51690
Nuclear contribution   :    -17.88991      -8.24997       7.50811
                        -----------------------------------------
Total Dipole Moment    :     -0.41454      -0.36683      -0.00880
                        -----------------------------------------
Magnitude (a.u.)       :      0.55361
Magnitude (Debye)      :      1.40717

Rotational constants in cm-1:     0.019698     0.008078     0.006774
Rotational constants in MHz :   590.531899   242.178484   203.073820

                             ****ORCA TERMINATED NORMALLY****
TOTAL RUN TIME: 0 days 0 hours 0 minutes 29 seconds 884 msec
