                         Program Version 4.2.1 -  RELEASE  -
|  1> ! wB97X-D3 SP def2-SVP
|  2> %pal
|  3> nprocs 16
|  4> end
|  5>
|  6> * xyz 0 1
|  7> S 	 7.87736 	 76.259 	 43.9176
|  8> C 	 7.5525 	 74.6232 	 43.3726
|  9> C 	 7.07486 	 73.8301 	 44.369
| 10> C 	 6.91504 	 74.543 	 45.5921
| 11> C 	 7.17391 	 75.8754 	 45.4404
| 12> H 	 6.39217 	 74.1662 	 46.4598
| 13> C 	 6.85631 	 72.3482 	 44.2341
| 14> H 	 7.84734 	 71.8338 	 44.0315
| 15> H 	 6.28358 	 72.2264 	 43.3278
| 16> C 	 6.25125 	 71.5376 	 45.3547
| 17> H 	 6.87559 	 71.5036 	 46.2526
| 18> H 	 5.22072 	 71.9353 	 45.5527
| 19> C 	 6.24835 	 70.138 	 44.876
| 20> H 	 5.57738 	 69.4406 	 45.5142
| 21> H 	 5.72907 	 70.0424 	 43.8635
| 22> H 	 7.18739 	 69.6801 	 44.8411
| 23> S 	 8.50963 	 77.9456 	 46.5471
| 24> C 	 7.7156 	 78.8442 	 47.8603
| 25> C 	 6.7052 	 78.1319 	 48.4164
| 26> C 	 6.34774 	 76.9911 	 47.6202
| 27> C 	 7.15823 	 76.8348 	 46.5192
| 28> H 	 6.20573 	 78.4483 	 49.2802
| 29> C 	 5.01567 	 76.3262 	 47.973
| 30> H 	 4.86793 	 76.3655 	 49.0568
| 31> H 	 5.18237 	 75.2714 	 47.8438
| 32> C 	 3.82663 	 76.8292 	 47.209
| 33> H 	 3.02901 	 76.1685 	 47.1983
| 34> H 	 4.14643 	 76.7922 	 46.2456
| 35> C 	 3.40695 	 78.1864 	 47.6138
| 36> H 	 2.50932 	 78.3196 	 47.0478
| 37> H 	 4.0861 	 78.8905 	 47.1406
| 38> H 	 3.28751 	 78.4933 	 48.6838
| 39> H 	 7.85566 	 74.2141 	 42.3919
| 40> H 	 8.01837 	 79.7427 	 48.2367
| 41> *
| 42>
| 43>                          ****END OF INPUT****

CARTESIAN COORDINATES (ANGSTROEM)
---------------------------------
  S      7.877360   76.259000   43.917600
  C      7.552500   74.623200   43.372600
  C      7.074860   73.830100   44.369000
  C      6.915040   74.543000   45.592100
  C      7.173910   75.875400   45.440400
  H      6.392170   74.166200   46.459800
  C      6.856310   72.348200   44.234100
  H      7.847340   71.833800   44.031500
  H      6.283580   72.226400   43.327800
  C      6.251250   71.537600   45.354700
  H      6.875590   71.503600   46.252600
  H      5.220720   71.935300   45.552700
  C      6.248350   70.138000   44.876000
  H      5.577380   69.440600   45.514200
  H      5.729070   70.042400   43.863500
  H      7.187390   69.680100   44.841100
  S      8.509630   77.945600   46.547100
  C      7.715600   78.844200   47.860300
  C      6.705200   78.131900   48.416400
  C      6.347740   76.991100   47.620200
  C      7.158230   76.834800   46.519200
  H      6.205730   78.448300   49.280200
  C      5.015670   76.326200   47.973000
  H      4.867930   76.365500   49.056800
  H      5.182370   75.271400   47.843800
  C      3.826630   76.829200   47.209000
  H      3.029010   76.168500   47.198300
  H      4.146430   76.792200   46.245600
  C      3.406950   78.186400   47.613800
  H      2.509320   78.319600   47.047800
  H      4.086100   78.890500   47.140600
  H      3.287510   78.493300   48.683800
  H      7.855660   74.214100   42.391900
  H      8.018370   79.742700   48.236700

 Total Charge           Charge          ....    0
 Multiplicity           Mult            ....    1
 Number of Electrons    NEL             ....  134
 Basis Dimension        Dim             ....  322

ORBITAL ENERGIES
----------------

  NO   OCC          E(Eh)            E(eV)
   0   2.0000     -88.967767     -2420.9360
   1   2.0000     -88.961988     -2420.7788
   2   2.0000     -10.323220      -280.9091
   3   2.0000     -10.322881      -280.8999
   4   2.0000     -10.310215      -280.5552
   5   2.0000     -10.306843      -280.4635
   6   2.0000     -10.297590      -280.2117
   7   2.0000     -10.296025      -280.1691
   8   2.0000     -10.292193      -280.0648
   9   2.0000     -10.290152      -280.0093
  10   2.0000     -10.288520      -279.9649
  11   2.0000     -10.285541      -279.8838
  12   2.0000     -10.284761      -279.8626
  13   2.0000     -10.283875      -279.8385
  14   2.0000     -10.269618      -279.4505
  15   2.0000     -10.265320      -279.3336
  16   2.0000      -8.082867      -219.9460
  17   2.0000      -8.076665      -219.7772
  18   2.0000      -6.041367      -164.3940
  19   2.0000      -6.037382      -164.2855
  20   2.0000      -6.035271      -164.2281
  21   2.0000      -6.033560      -164.1815
  22   2.0000      -6.031352      -164.1214
  23   2.0000      -6.027163      -164.0074
  24   2.0000      -1.012838       -27.5607
  25   2.0000      -0.985958       -26.8293
  26   2.0000      -0.925088       -25.1729
  27   2.0000      -0.919349       -25.0168
  28   2.0000      -0.877428       -23.8760
  29   2.0000      -0.855386       -23.2762
  30   2.0000      -0.846691       -23.0396
  31   2.0000      -0.817895       -22.2560
  32   2.0000      -0.782786       -21.3007
  33   2.0000      -0.771685       -20.9986
  34   2.0000      -0.715979       -19.4828
  35   2.0000      -0.701942       -19.1008
  36   2.0000      -0.687947       -18.7200
  37   2.0000      -0.667359       -18.1598
  38   2.0000      -0.637937       -17.3591
  39   2.0000      -0.623645       -16.9703
  40   2.0000      -0.596426       -16.2296
  41   2.0000      -0.586042       -15.9470
  42   2.0000      -0.567399       -15.4397
  43   2.0000      -0.560388       -15.2489
  44   2.0000      -0.552440       -15.0327
  45   2.0000      -0.525925       -14.3111
  46   2.0000      -0.516541       -14.0558
  47   2.0000      -0.508843       -13.8463
  48   2.0000      -0.505766       -13.7626
  49   2.0000      -0.498066       -13.5531
  50   2.0000      -0.488248       -13.2859
  51   2.0000      -0.481122       -13.0920
  52   2.0000      -0.475524       -12.9397
  53   2.0000      -0.472895       -12.8681
  54   2.0000      -0.460779       -12.5384
  55   2.0000      -0.451114       -12.2754
  56   2.0000      -0.437456       -11.9038
  57   2.0000      -0.433843       -11.8055
  58   2.0000      -0.431081       -11.7303
  59   2.0000      -0.429308       -11.6821
  60   2.0000      -0.421541       -11.4707
  61   2.0000      -0.417050       -11.3485
  62   2.0000      -0.408237       -11.1087
  63   2.0000      -0.352197        -9.5838
  64   2.0000      -0.332708        -9.0535
  65   2.0000      -0.329378        -8.9628
  66   2.0000      -0.285730        -7.7751
  67   0.0000       0.024344         0.6624
  68   0.0000       0.080310         2.1853
  69   0.0000       0.097364         2.6494
  70   0.0000       0.125977         3.4280
  71   0.0000       0.135431         3.6853

MULLIKEN ATOMIC CHARGES
-----------------------
   0 S :    0.113262
   1 C :   -0.137701
   2 C :   -0.041143
   3 C :   -0.002803
   4 C :   -0.118389
   5 H :    0.016510
   6 C :   -0.000818
   7 H :    0.040094
   8 H :    0.027983
   9 C :   -0.051248
  10 H :    0.041122
  11 H :    0.040137
  12 C :   -0.070277
  13 H :    0.035929
  14 H :    0.029604
  15 H :    0.031000
  16 S :    0.087772
  17 C :   -0.045388
  18 C :   -0.002933
  19 C :   -0.075909
  20 C :   -0.139273
  21 H :   -0.003133
  22 C :    0.063677
  23 H :    0.012738
  24 H :   -0.002558
  25 C :    0.045846
  26 H :    0.003381
  27 H :   -0.003852
  28 C :   -0.045039
  29 H :    0.018957
  30 H :    0.031675
  31 H :    0.041674
  32 H :    0.047421
  33 H :    0.011684
Sum of atomic charges:    0.0000000

LOEWDIN ATOMIC CHARGES
----------------------
   0 S :    0.415374
   1 C :   -0.202487
   2 C :   -0.064247
   3 C :   -0.064546
   4 C :   -0.199553
   5 H :    0.029806
   6 C :   -0.040562
   7 H :    0.040855
   8 H :    0.031309
   9 C :   -0.050094
  10 H :    0.030656
  11 H :    0.029945
  12 C :   -0.067041
  13 H :    0.032434
  14 H :    0.029356
  15 H :    0.016758
  16 S :    0.380500
  17 C :   -0.156498
  18 C :   -0.053768
  19 C :   -0.060319
  20 C :   -0.188024
  21 H :    0.023220
  22 C :   -0.027935
  23 H :    0.027330
  24 H :    0.020956
  25 C :   -0.030407
  26 H :    0.016154
  27 H :    0.021071
  28 C :   -0.065717
  29 H :    0.026792
  30 H :    0.029119
  31 H :    0.029655
  32 H :    0.032250
  33 H :    0.007653

  Mayer bond orders larger than 0.100000
B(  0-S ,  1-C ) :   1.1197 B(  0-S ,  4-C ) :   1.1580 B(  1-C ,  2-C ) :   1.6307
B(  1-C , 32-H ) :   0.9686 B(  2-C ,  3-C ) :   1.2595 B(  2-C ,  6-C ) :   0.9958
B(  3-C ,  4-C ) :   1.5578 B(  3-C ,  5-H ) :   0.9835 B(  4-C , 20-C ) :   1.0536
B(  6-C ,  7-H ) :   0.9381 B(  6-C ,  8-H ) :   0.9377 B(  6-C ,  9-C ) :   1.0935
B(  9-C , 10-H ) :   0.9407 B(  9-C , 11-H ) :   0.9466 B(  9-C , 12-C ) :   1.0926
B( 12-C , 13-H ) :   0.9694 B( 12-C , 14-H ) :   0.9693 B( 12-C , 15-H ) :   0.9735
B( 16-S , 17-C ) :   1.1225 B( 16-S , 20-C ) :   1.1286 B( 17-C , 18-C ) :   1.6434
B( 17-C , 33-H ) :   0.9791 B( 18-C , 19-C ) :   1.2121 B( 18-C , 21-H ) :   0.9963
B( 19-C , 20-C ) :   1.6369 B( 19-C , 22-C ) :   1.0424 B( 22-C , 23-H ) :   0.9321
B( 22-C , 24-H ) :   0.9235 B( 22-C , 25-C ) :   1.0733 B( 25-C , 26-H ) :   0.9509
B( 25-C , 27-H ) :   0.9352 B( 25-C , 28-C ) :   1.0898 B( 28-C , 29-H ) :   0.9666
B( 28-C , 30-H ) :   0.9677 B( 28-C , 31-H ) :   0.9767

Dispersion correction           -0.014306596
FINAL SINGLE POINT ENERGY     -1339.855457569063

DIPOLE MOMENT
-------------
                                X             Y             Z
Electronic contribution:     19.27273      18.39258      -5.51597
Nuclear contribution   :    -19.70919     -18.87638       5.69903
                        -----------------------------------------
Total Dipole Moment    :     -0.43646      -0.48380       0.18306
                        -----------------------------------------
Magnitude (a.u.)       :      0.67681
Magnitude (Debye)      :      1.72032

Rotational constants in cm-1:     0.019668     0.008499     0.006802
Rotational constants in MHz :   589.639174   254.794452   203.930942

                             ****ORCA TERMINATED NORMALLY****
TOTAL RUN TIME: 0 days 0 hours 0 minutes 34 seconds 940 msec
