                         Program Version 4.2.1 -  RELEASE  -
|  1> ! wB97X-D3 SP def2-SVP
|  2> %pal
|  3> nprocs 16
|  4> end
|  5>
|  6> * xyz 0 1
|  7> S 	 -1.82775 	 -17.1467 	 87.6266
|  8> C 	 -2.5678 	 -18.5914 	 87.1068
|  9> C 	 -3.70644 	 -18.4261 	 86.3386
| 10> C 	 -3.82437 	 -17.0208 	 85.9457
| 11> C 	 -2.85188 	 -16.2749 	 86.4881
| 12> H 	 -4.53637 	 -16.7087 	 85.2688
| 13> C 	 -4.67097 	 -19.5504 	 85.8776
| 14> H 	 -4.10626 	 -20.4281 	 85.671
| 15> H 	 -4.99304 	 -19.2088 	 84.9153
| 16> C 	 -5.6867 	 -19.9223 	 86.9709
| 17> H 	 -5.21412 	 -20.2642 	 87.8874
| 18> H 	 -6.27961 	 -19.0006 	 87.1035
| 19> C 	 -6.55345 	 -21.1519 	 86.5377
| 20> H 	 -6.98991 	 -21.6224 	 87.4272
| 21> H 	 -7.36653 	 -20.8802 	 85.8065
| 22> H 	 -5.97073 	 -21.9332 	 86.112
| 23> S 	 -2.57362 	 -13.7689 	 87.65
| 24> C 	 -2.71986 	 -12.3796 	 86.5823
| 25> C 	 -2.66006 	 -12.7594 	 85.2551
| 26> C 	 -2.8335 	 -14.1525 	 85.0962
| 27> C 	 -2.68614 	 -14.8588 	 86.3206
| 28> H 	 -2.60253 	 -12.0051 	 84.4228
| 29> C 	 -2.75517 	 -14.8426 	 83.7356
| 30> H 	 -2.09128 	 -15.7245 	 83.8233
| 31> H 	 -2.35571 	 -14.0645 	 83.1086
| 32> C 	 -4.08526 	 -15.1986 	 83.054
| 33> H 	 -4.39984 	 -16.2662 	 83.263
| 34> H 	 -3.79017 	 -15.2792 	 81.9631
| 35> C 	 -5.27499 	 -14.2032 	 83.0717
| 36> H 	 -5.97351 	 -14.3584 	 82.2142
| 37> H 	 -4.98295 	 -13.1498 	 82.8512
| 38> H 	 -5.7066 	 -14.104 	 84.116
| 39> H 	 -2.37043 	 -19.5525 	 87.6086
| 40> H 	 -2.64268 	 -11.3452 	 86.8285
| 41> *
| 42>
| 43>                          ****END OF INPUT****

CARTESIAN COORDINATES (ANGSTROEM)
---------------------------------
  S     -1.827750  -17.146700   87.626600
  C     -2.567800  -18.591400   87.106800
  C     -3.706440  -18.426100   86.338600
  C     -3.824370  -17.020800   85.945700
  C     -2.851880  -16.274900   86.488100
  H     -4.536370  -16.708700   85.268800
  C     -4.670970  -19.550400   85.877600
  H     -4.106260  -20.428100   85.671000
  H     -4.993040  -19.208800   84.915300
  C     -5.686700  -19.922300   86.970900
  H     -5.214120  -20.264200   87.887400
  H     -6.279610  -19.000600   87.103500
  C     -6.553450  -21.151900   86.537700
  H     -6.989910  -21.622400   87.427200
  H     -7.366530  -20.880200   85.806500
  H     -5.970730  -21.933200   86.112000
  S     -2.573620  -13.768900   87.650000
  C     -2.719860  -12.379600   86.582300
  C     -2.660060  -12.759400   85.255100
  C     -2.833500  -14.152500   85.096200
  C     -2.686140  -14.858800   86.320600
  H     -2.602530  -12.005100   84.422800
  C     -2.755170  -14.842600   83.735600
  H     -2.091280  -15.724500   83.823300
  H     -2.355710  -14.064500   83.108600
  C     -4.085260  -15.198600   83.054000
  H     -4.399840  -16.266200   83.263000
  H     -3.790170  -15.279200   81.963100
  C     -5.274990  -14.203200   83.071700
  H     -5.973510  -14.358400   82.214200
  H     -4.982950  -13.149800   82.851200
  H     -5.706600  -14.104000   84.116000
  H     -2.370430  -19.552500   87.608600
  H     -2.642680  -11.345200   86.828500

 Total Charge           Charge          ....    0
 Multiplicity           Mult            ....    1
 Number of Electrons    NEL             ....  134
 Basis Dimension        Dim             ....  322

ORBITAL ENERGIES
----------------

  NO   OCC          E(Eh)            E(eV)
   0   2.0000     -88.969100     -2420.9723
   1   2.0000     -88.965267     -2420.8680
   2   2.0000     -10.323239      -280.9096
   3   2.0000     -10.321410      -280.8598
   4   2.0000     -10.313339      -280.6402
   5   2.0000     -10.308859      -280.5183
   6   2.0000     -10.301192      -280.3097
   7   2.0000     -10.298495      -280.2363
   8   2.0000     -10.296148      -280.1724
   9   2.0000     -10.295797      -280.1629
  10   2.0000     -10.292342      -280.0689
  11   2.0000     -10.291801      -280.0542
  12   2.0000     -10.290880      -280.0291
  13   2.0000     -10.290260      -280.0122
  14   2.0000     -10.287597      -279.9397
  15   2.0000     -10.281251      -279.7671
  16   2.0000      -8.083774      -219.9707
  17   2.0000      -8.081008      -219.8954
  18   2.0000      -6.042281      -164.4188
  19   2.0000      -6.039395      -164.3403
  20   2.0000      -6.038234      -164.3087
  21   2.0000      -6.035673      -164.2390
  22   2.0000      -6.034619      -164.2103
  23   2.0000      -6.031553      -164.1269
  24   2.0000      -1.010871       -27.5072
  25   2.0000      -0.985466       -26.8159
  26   2.0000      -0.908774       -24.7290
  27   2.0000      -0.904354       -24.6087
  28   2.0000      -0.871562       -23.7164
  29   2.0000      -0.852244       -23.1907
  30   2.0000      -0.843821       -22.9615
  31   2.0000      -0.814255       -22.1570
  32   2.0000      -0.783182       -21.3115
  33   2.0000      -0.768936       -20.9238
  34   2.0000      -0.704697       -19.1758
  35   2.0000      -0.702504       -19.1161
  36   2.0000      -0.686417       -18.6784
  37   2.0000      -0.663968       -18.0675
  38   2.0000      -0.638399       -17.3717
  39   2.0000      -0.624298       -16.9880
  40   2.0000      -0.581868       -15.8334
  41   2.0000      -0.569717       -15.5028
  42   2.0000      -0.559992       -15.2381
  43   2.0000      -0.551663       -15.0115
  44   2.0000      -0.544377       -14.8133
  45   2.0000      -0.525944       -14.3117
  46   2.0000      -0.517988       -14.0952
  47   2.0000      -0.505762       -13.7625
  48   2.0000      -0.499302       -13.5867
  49   2.0000      -0.493734       -13.4352
  50   2.0000      -0.486921       -13.2498
  51   2.0000      -0.481796       -13.1103
  52   2.0000      -0.468582       -12.7508
  53   2.0000      -0.465779       -12.6745
  54   2.0000      -0.459131       -12.4936
  55   2.0000      -0.451801       -12.2941
  56   2.0000      -0.443778       -12.0758
  57   2.0000      -0.440631       -11.9902
  58   2.0000      -0.434923       -11.8349
  59   2.0000      -0.430411       -11.7121
  60   2.0000      -0.422981       -11.5099
  61   2.0000      -0.413553       -11.2533
  62   2.0000      -0.399252       -10.8642
  63   2.0000      -0.355141        -9.6639
  64   2.0000      -0.333947        -9.0872
  65   2.0000      -0.326632        -8.8881
  66   2.0000      -0.284920        -7.7531
  67   0.0000       0.029639         0.8065
  68   0.0000       0.069930         1.9029
  69   0.0000       0.108517         2.9529
  70   0.0000       0.119577         3.2539
  71   0.0000       0.127249         3.4626

MULLIKEN ATOMIC CHARGES
-----------------------
   0 S :    0.112435
   1 C :   -0.107967
   2 C :   -0.135018
   3 C :    0.050454
   4 C :   -0.128836
   5 H :   -0.029639
   6 C :    0.099579
   7 H :    0.008416
   8 H :    0.015771
   9 C :   -0.072302
  10 H :    0.035378
  11 H :    0.042234
  12 C :   -0.052930
  13 H :    0.033656
  14 H :    0.043607
  15 H :    0.020492
  16 S :    0.120491
  17 C :   -0.086197
  18 C :   -0.046837
  19 C :   -0.081463
  20 C :   -0.125864
  21 H :    0.039587
  22 C :    0.090760
  23 H :    0.055785
  24 H :    0.009624
  25 C :   -0.128104
  26 H :    0.035706
  27 H :    0.028264
  28 C :   -0.062741
  29 H :    0.048350
  30 H :    0.017171
  31 H :    0.056951
  32 H :    0.048580
  33 H :    0.044604
Sum of atomic charges:    0.0000000

LOEWDIN ATOMIC CHARGES
----------------------
   0 S :    0.407931
   1 C :   -0.213373
   2 C :   -0.055707
   3 C :   -0.046252
   4 C :   -0.183846
   5 H :    0.018030
   6 C :   -0.027726
   7 H :    0.024462
   8 H :    0.026393
   9 C :   -0.034064
  10 H :    0.027243
  11 H :    0.029755
  12 C :   -0.070323
  13 H :    0.027143
  14 H :    0.031043
  15 H :    0.017935
  16 S :    0.420053
  17 C :   -0.190093
  18 C :   -0.073615
  19 C :   -0.065634
  20 C :   -0.211454
  21 H :    0.040107
  22 C :   -0.030553
  23 H :    0.042388
  24 H :    0.029366
  25 C :   -0.056875
  26 H :    0.022285
  27 H :    0.029617
  28 C :   -0.083332
  29 H :    0.035797
  30 H :    0.025440
  31 H :    0.035054
  32 H :    0.027562
  33 H :    0.025245

  Mayer bond orders larger than 0.100000
B(  0-S ,  1-C ) :   1.1399 B(  0-S ,  4-C ) :   1.1272 B(  1-C ,  2-C ) :   1.6534
B(  1-C , 32-H ) :   0.9573 B(  2-C ,  3-C ) :   1.2107 B(  2-C ,  6-C ) :   1.0113
B(  3-C ,  4-C ) :   1.5919 B(  3-C ,  5-H ) :   1.0133 B(  4-C , 20-C ) :   1.0489
B(  6-C ,  7-H ) :   0.9378 B(  6-C ,  8-H ) :   0.9447 B(  6-C ,  9-C ) :   1.0562
B(  9-C , 10-H ) :   0.9596 B(  9-C , 11-H ) :   0.9600 B(  9-C , 12-C ) :   1.0750
B( 12-C , 13-H ) :   0.9778 B( 12-C , 14-H ) :   0.9767 B( 12-C , 15-H ) :   0.9733
B( 16-S , 17-C ) :   1.1555 B( 16-S , 20-C ) :   1.1537 B( 17-C , 18-C ) :   1.5982
B( 17-C , 20-C ) :   0.1071 B( 17-C , 33-H ) :   0.9667 B( 18-C , 19-C ) :   1.2794
B( 18-C , 21-H ) :   0.9713 B( 19-C , 20-C ) :   1.5406 B( 19-C , 22-C ) :   1.0430
B( 22-C , 23-H ) :   0.9411 B( 22-C , 24-H ) :   0.9303 B( 22-C , 25-C ) :   1.0619
B( 25-C , 26-H ) :   0.9497 B( 25-C , 27-H ) :   0.9531 B( 25-C , 28-C ) :   1.0759
B( 28-C , 29-H ) :   0.9729 B( 28-C , 30-H ) :   0.9692 B( 28-C , 31-H ) :   0.9678

Dispersion correction           -0.014816245
FINAL SINGLE POINT ENERGY     -1339.866722822054

DIPOLE MOMENT
-------------
                                X             Y             Z
Electronic contribution:     19.08959      13.45458      17.45541
Nuclear contribution   :    -19.40731     -13.64039     -17.94632
                        -----------------------------------------
Total Dipole Moment    :     -0.31772      -0.18581      -0.49091
                        -----------------------------------------
Magnitude (a.u.)       :      0.61357
Magnitude (Debye)      :      1.55956

Rotational constants in cm-1:     0.019722     0.008528     0.006697
Rotational constants in MHz :   591.261553   255.666030   200.762980

                             ****ORCA TERMINATED NORMALLY****
TOTAL RUN TIME: 0 days 0 hours 0 minutes 32 seconds 332 msec
