                         Program Version 4.2.1 -  RELEASE  -
|  1> ! wB97X-D3 SP def2-SVP
|  2> %pal
|  3> nprocs 16
|  4> end
|  5>
|  6> * xyz 0 1
|  7> S 	 -114.595 	 42.3312 	 132.195
|  8> C 	 -115.27 	 41.7215 	 133.723
|  9> C 	 -114.931 	 42.5849 	 134.775
| 10> C 	 -114.163 	 43.6703 	 134.346
| 11> C 	 -114.008 	 43.7947 	 133.005
| 12> H 	 -113.929 	 44.5124 	 134.97
| 13> C 	 -115.251 	 42.2634 	 136.255
| 14> H 	 -115.454 	 41.1807 	 136.37
| 15> H 	 -116.083 	 42.7932 	 136.639
| 16> C 	 -114.022 	 42.3917 	 137.179
| 17> H 	 -114.191 	 41.657 	 137.93
| 18> H 	 -113.038 	 42.0707 	 136.738
| 19> C 	 -113.884 	 43.7057 	 137.9
| 20> H 	 -114.638 	 43.752 	 138.713
| 21> H 	 -112.908 	 43.7012 	 138.386
| 22> H 	 -113.946 	 44.5723 	 137.26
| 23> S 	 -111.694 	 44.5208 	 131.643
| 24> C 	 -111.515 	 46.2624 	 131.253
| 25> C 	 -112.586 	 46.9564 	 131.721
| 26> C 	 -113.617 	 46.2072 	 132.387
| 27> C 	 -113.294 	 44.8666 	 132.331
| 28> H 	 -112.526 	 48.0353 	 131.729
| 29> C 	 -114.77 	 46.8631 	 133.217
| 30> H 	 -115.323 	 45.9579 	 133.531
| 31> H 	 -115.352 	 47.3704 	 132.382
| 32> C 	 -114.459 	 47.7004 	 134.433
| 33> H 	 -113.774 	 48.4702 	 134.092
| 34> H 	 -113.842 	 47.1828 	 135.198
| 35> C 	 -115.704 	 48.3225 	 135.035
| 36> H 	 -116.393 	 48.5629 	 134.232
| 37> H 	 -115.434 	 49.1714 	 135.611
| 38> H 	 -116.239 	 47.5928 	 135.681
| 39> H 	 -115.889 	 40.7813 	 133.748
| 40> H 	 -110.545 	 46.6455 	 131.038
| 41> *
| 42>
| 43>                          ****END OF INPUT****

CARTESIAN COORDINATES (ANGSTROEM)
---------------------------------
  S    -114.595000   42.331200  132.195000
  C    -115.270000   41.721500  133.723000
  C    -114.931000   42.584900  134.775000
  C    -114.163000   43.670300  134.346000
  C    -114.008000   43.794700  133.005000
  H    -113.929000   44.512400  134.970000
  C    -115.251000   42.263400  136.255000
  H    -115.454000   41.180700  136.370000
  H    -116.083000   42.793200  136.639000
  C    -114.022000   42.391700  137.179000
  H    -114.191000   41.657000  137.930000
  H    -113.038000   42.070700  136.738000
  C    -113.884000   43.705700  137.900000
  H    -114.638000   43.752000  138.713000
  H    -112.908000   43.701200  138.386000
  H    -113.946000   44.572300  137.260000
  S    -111.694000   44.520800  131.643000
  C    -111.515000   46.262400  131.253000
  C    -112.586000   46.956400  131.721000
  C    -113.617000   46.207200  132.387000
  C    -113.294000   44.866600  132.331000
  H    -112.526000   48.035300  131.729000
  C    -114.770000   46.863100  133.217000
  H    -115.323000   45.957900  133.531000
  H    -115.352000   47.370400  132.382000
  C    -114.459000   47.700400  134.433000
  H    -113.774000   48.470200  134.092000
  H    -113.842000   47.182800  135.198000
  C    -115.704000   48.322500  135.035000
  H    -116.393000   48.562900  134.232000
  H    -115.434000   49.171400  135.611000
  H    -116.239000   47.592800  135.681000
  H    -115.889000   40.781300  133.748000
  H    -110.545000   46.645500  131.038000

 Total Charge           Charge          ....    0
 Multiplicity           Mult            ....    1
 Number of Electrons    NEL             ....  134
 Basis Dimension        Dim             ....  322

ORBITAL ENERGIES
----------------

  NO   OCC          E(Eh)            E(eV)
   0   2.0000     -88.963134     -2420.8099
   1   2.0000     -88.963036     -2420.8073
   2   2.0000     -10.326194      -280.9900
   3   2.0000     -10.324596      -280.9465
   4   2.0000     -10.321014      -280.8491
   5   2.0000     -10.316511      -280.7265
   6   2.0000     -10.305485      -280.4265
   7   2.0000     -10.301972      -280.3309
   8   2.0000     -10.300980      -280.3039
   9   2.0000     -10.293630      -280.1039
  10   2.0000     -10.292859      -280.0829
  11   2.0000     -10.290937      -280.0306
  12   2.0000     -10.287024      -279.9242
  13   2.0000     -10.283667      -279.8328
  14   2.0000     -10.279590      -279.7219
  15   2.0000     -10.277486      -279.6646
  16   2.0000      -8.077189      -219.7915
  17   2.0000      -8.077153      -219.7905
  18   2.0000      -6.035764      -164.2415
  19   2.0000      -6.035583      -164.2366
  20   2.0000      -6.032007      -164.1393
  21   2.0000      -6.031786      -164.1333
  22   2.0000      -6.027999      -164.0302
  23   2.0000      -6.027693      -164.0219
  24   2.0000      -1.002958       -27.2919
  25   2.0000      -0.978910       -26.6375
  26   2.0000      -0.911626       -24.8066
  27   2.0000      -0.911178       -24.7944
  28   2.0000      -0.869728       -23.6665
  29   2.0000      -0.851495       -23.1703
  30   2.0000      -0.844097       -22.9690
  31   2.0000      -0.815499       -22.1908
  32   2.0000      -0.784800       -21.3555
  33   2.0000      -0.771650       -20.9977
  34   2.0000      -0.705107       -19.1869
  35   2.0000      -0.698674       -19.0119
  36   2.0000      -0.691449       -18.8153
  37   2.0000      -0.657377       -17.8881
  38   2.0000      -0.642194       -17.4750
  39   2.0000      -0.622057       -16.9270
  40   2.0000      -0.596761       -16.2387
  41   2.0000      -0.567285       -15.4366
  42   2.0000      -0.564175       -15.3520
  43   2.0000      -0.542894       -14.7729
  44   2.0000      -0.539745       -14.6872
  45   2.0000      -0.534101       -14.5336
  46   2.0000      -0.522088       -14.2067
  47   2.0000      -0.511747       -13.9253
  48   2.0000      -0.508822       -13.8458
  49   2.0000      -0.497437       -13.5360
  50   2.0000      -0.491096       -13.3634
  51   2.0000      -0.483875       -13.1669
  52   2.0000      -0.471063       -12.8183
  53   2.0000      -0.465013       -12.6537
  54   2.0000      -0.454991       -12.3809
  55   2.0000      -0.449950       -12.2438
  56   2.0000      -0.442207       -12.0331
  57   2.0000      -0.439487       -11.9590
  58   2.0000      -0.434578       -11.8255
  59   2.0000      -0.421122       -11.4593
  60   2.0000      -0.415612       -11.3094
  61   2.0000      -0.412572       -11.2266
  62   2.0000      -0.410234       -11.1630
  63   2.0000      -0.342440        -9.3183
  64   2.0000      -0.330613        -8.9964
  65   2.0000      -0.328325        -8.9342
  66   2.0000      -0.297936        -8.1073
  67   0.0000       0.036685         0.9983
  68   0.0000       0.058455         1.5906
  69   0.0000       0.108382         2.9492
  70   0.0000       0.118142         3.2148
  71   0.0000       0.124538         3.3888

MULLIKEN ATOMIC CHARGES
-----------------------
   0 S :    0.100249
   1 C :   -0.158162
   2 C :   -0.065889
   3 C :    0.056245
   4 C :   -0.184525
   5 H :   -0.005017
   6 C :    0.086451
   7 H :    0.024351
   8 H :    0.029046
   9 C :   -0.106007
  10 H :    0.015459
  11 H :    0.043828
  12 C :   -0.040147
  13 H :    0.031435
  14 H :    0.032143
  15 H :    0.026719
  16 S :    0.091746
  17 C :   -0.086350
  18 C :   -0.026876
  19 C :   -0.041104
  20 C :   -0.156003
  21 H :    0.016785
  22 C :    0.020437
  23 H :    0.038667
  24 H :    0.052199
  25 C :   -0.056705
  26 H :    0.016945
  27 H :    0.034377
  28 C :   -0.020883
  29 H :    0.029063
  30 H :    0.034315
  31 H :    0.036318
  32 H :    0.074328
  33 H :    0.056562
Sum of atomic charges:   -0.0000000

LOEWDIN ATOMIC CHARGES
----------------------
   0 S :    0.382899
   1 C :   -0.194905
   2 C :   -0.063986
   3 C :   -0.065459
   4 C :   -0.187103
   5 H :    0.028334
   6 C :   -0.023928
   7 H :    0.036169
   8 H :    0.024960
   9 C :   -0.047867
  10 H :    0.020898
  11 H :    0.032531
  12 C :   -0.065418
  13 H :    0.027063
  14 H :    0.029195
  15 H :    0.015880
  16 S :    0.371523
  17 C :   -0.166762
  18 C :   -0.067387
  19 C :   -0.056049
  20 C :   -0.188589
  21 H :    0.028644
  22 C :   -0.037632
  23 H :    0.032773
  24 H :    0.043153
  25 C :   -0.046796
  26 H :    0.021113
  27 H :    0.027985
  28 C :   -0.057124
  29 H :    0.026962
  30 H :    0.024186
  31 H :    0.030292
  32 H :    0.039560
  33 H :    0.024884

  Mayer bond orders larger than 0.100000
B(  0-S ,  1-C ) :   1.1428 B(  0-S ,  4-C ) :   1.1450 B(  1-C ,  2-C ) :   1.6011
B(  1-C ,  4-C ) :   0.1022 B(  1-C , 32-H ) :   0.9633 B(  2-C ,  3-C ) :   1.2581
B(  2-C ,  6-C ) :   1.0168 B(  3-C ,  4-C ) :   1.5844 B(  3-C ,  5-H ) :   0.9893
B(  4-C , 20-C ) :   1.0201 B(  6-C ,  7-H ) :   0.9519 B(  6-C ,  8-H ) :   0.9392
B(  6-C ,  9-C ) :   1.0582 B(  9-C , 10-H ) :   0.9590 B(  9-C , 11-H ) :   0.9602
B(  9-C , 12-C ) :   1.0793 B( 12-C , 13-H ) :   0.9735 B( 12-C , 14-H ) :   0.9707
B( 12-C , 15-H ) :   0.9785 B( 16-S , 17-C ) :   1.1208 B( 16-S , 20-C ) :   1.1456
B( 17-C , 18-C ) :   1.6507 B( 17-C , 33-H ) :   0.9697 B( 18-C , 19-C ) :   1.2112
B( 18-C , 21-H ) :   0.9834 B( 19-C , 20-C ) :   1.6330 B( 19-C , 22-C ) :   1.0247
B( 22-C , 23-H ) :   0.9314 B( 22-C , 24-H ) :   0.9299 B( 22-C , 25-C ) :   1.0693
B( 25-C , 26-H ) :   0.9497 B( 25-C , 27-H ) :   0.9486 B( 25-C , 28-C ) :   1.0812
B( 28-C , 29-H ) :   0.9738 B( 28-C , 30-H ) :   0.9731 B( 28-C , 31-H ) :   0.9749

Dispersion correction           -0.014691027
FINAL SINGLE POINT ENERGY     -1339.872537019123

DIPOLE MOMENT
-------------
                                X             Y             Z
Electronic contribution:      8.94986     -12.13400     -26.36272
Nuclear contribution   :     -9.07796      12.53492      27.19406
                        -----------------------------------------
Total Dipole Moment    :     -0.12809       0.40092       0.83134
                        -----------------------------------------
Magnitude (a.u.)       :      0.93181
Magnitude (Debye)      :      2.36846

Rotational constants in cm-1:     0.015116     0.010338     0.007565
Rotational constants in MHz :   453.176684   309.913880   226.791035

                             ****ORCA TERMINATED NORMALLY****
TOTAL RUN TIME: 0 days 0 hours 0 minutes 34 seconds 964 msec
