                         Program Version 4.2.1 -  RELEASE  -
|  1> ! wB97X-D3 SP def2-SVP
|  2> %pal
|  3> nprocs 16
|  4> end
|  5>
|  6> * xyz 0 1
|  7> S 	 48.779 	 8.12682 	 99.8208
|  8> C 	 48.9473 	 9.78073 	 100.359
|  9> C 	 48.8528 	 10.6405 	 99.236
| 10> C 	 48.7103 	 9.92953 	 97.9921
| 11> C 	 48.7449 	 8.56954 	 98.1247
| 12> H 	 48.6604 	 10.3783 	 96.9884
| 13> C 	 48.9701 	 12.1198 	 99.2555
| 14> H 	 48.2444 	 12.6202 	 98.5767
| 15> H 	 49.9526 	 12.4461 	 98.8424
| 16> C 	 48.8315 	 12.8602 	 100.603
| 17> H 	 47.8316 	 12.6129 	 101.071
| 18> H 	 49.6021 	 12.4581 	 101.325
| 19> C 	 49.0214 	 14.3482 	 100.379
| 20> H 	 48.5822 	 14.8961 	 101.221
| 21> H 	 50.0559 	 14.4671 	 100.21
| 22> H 	 48.4958 	 14.8101 	 99.5627
| 23> S 	 49.6479 	 6.22474 	 97.0385
| 24> C 	 49.3553 	 5.85084 	 95.3637
| 25> C 	 48.421 	 6.77474 	 94.8583
| 26> C 	 47.9315 	 7.71293 	 95.8071
| 27> C 	 48.6162 	 7.64044 	 97.0025
| 28> H 	 48.0894 	 6.76517 	 93.8642
| 29> C 	 46.9764 	 8.68831 	 95.2271
| 30> H 	 47.3774 	 9.07933 	 94.2669
| 31> H 	 47.063 	 9.58909 	 95.8854
| 32> C 	 45.4955 	 8.36261 	 95.2724
| 33> H 	 45.3476 	 7.4134 	 94.8513
| 34> H 	 44.9591 	 9.07899 	 94.699
| 35> C 	 44.9256 	 8.15745 	 96.6839
| 36> H 	 45.0809 	 8.94669 	 97.3674
| 37> H 	 45.3098 	 7.23787 	 97.1385
| 38> H 	 43.7731 	 8.03811 	 96.7631
| 39> H 	 49.0918 	 10.1064 	 101.369
| 40> H 	 49.7179 	 4.95273 	 94.8165
| 41> *
| 42>
| 43>                          ****END OF INPUT****

CARTESIAN COORDINATES (ANGSTROEM)
---------------------------------
  S     48.779000    8.126820   99.820800
  C     48.947300    9.780730  100.359000
  C     48.852800   10.640500   99.236000
  C     48.710300    9.929530   97.992100
  C     48.744900    8.569540   98.124700
  H     48.660400   10.378300   96.988400
  C     48.970100   12.119800   99.255500
  H     48.244400   12.620200   98.576700
  H     49.952600   12.446100   98.842400
  C     48.831500   12.860200  100.603000
  H     47.831600   12.612900  101.071000
  H     49.602100   12.458100  101.325000
  C     49.021400   14.348200  100.379000
  H     48.582200   14.896100  101.221000
  H     50.055900   14.467100  100.210000
  H     48.495800   14.810100   99.562700
  S     49.647900    6.224740   97.038500
  C     49.355300    5.850840   95.363700
  C     48.421000    6.774740   94.858300
  C     47.931500    7.712930   95.807100
  C     48.616200    7.640440   97.002500
  H     48.089400    6.765170   93.864200
  C     46.976400    8.688310   95.227100
  H     47.377400    9.079330   94.266900
  H     47.063000    9.589090   95.885400
  C     45.495500    8.362610   95.272400
  H     45.347600    7.413400   94.851300
  H     44.959100    9.078990   94.699000
  C     44.925600    8.157450   96.683900
  H     45.080900    8.946690   97.367400
  H     45.309800    7.237870   97.138500
  H     43.773100    8.038110   96.763100
  H     49.091800   10.106400  101.369000
  H     49.717900    4.952730   94.816500

 Total Charge           Charge          ....    0
 Multiplicity           Mult            ....    1
 Number of Electrons    NEL             ....  134
 Basis Dimension        Dim             ....  322

ORBITAL ENERGIES
----------------

  NO   OCC          E(Eh)            E(eV)
   0   2.0000     -88.967204     -2420.9207
   1   2.0000     -88.965637     -2420.8781
   2   2.0000     -10.330176      -281.0984
   3   2.0000     -10.329723      -281.0860
   4   2.0000     -10.322719      -280.8955
   5   2.0000     -10.317225      -280.7460
   6   2.0000     -10.305077      -280.4154
   7   2.0000     -10.299996      -280.2771
   8   2.0000     -10.294487      -280.1272
   9   2.0000     -10.293995      -280.1139
  10   2.0000     -10.293593      -280.1029
  11   2.0000     -10.293246      -280.0935
  12   2.0000     -10.289722      -279.9976
  13   2.0000     -10.280680      -279.7515
  14   2.0000     -10.276065      -279.6259
  15   2.0000     -10.275182      -279.6019
  16   2.0000      -8.081638      -219.9126
  17   2.0000      -8.080563      -219.8833
  18   2.0000      -6.040301      -164.3649
  19   2.0000      -6.039090      -164.3320
  20   2.0000      -6.036129      -164.2514
  21   2.0000      -6.034883      -164.2175
  22   2.0000      -6.032314      -164.1476
  23   2.0000      -6.031452      -164.1241
  24   2.0000      -1.007904       -27.4265
  25   2.0000      -0.984386       -26.7865
  26   2.0000      -0.915400       -24.9093
  27   2.0000      -0.913006       -24.8442
  28   2.0000      -0.868759       -23.6401
  29   2.0000      -0.854829       -23.2611
  30   2.0000      -0.848564       -23.0906
  31   2.0000      -0.811687       -22.0871
  32   2.0000      -0.780392       -21.2356
  33   2.0000      -0.769949       -20.9514
  34   2.0000      -0.711553       -19.3623
  35   2.0000      -0.705313       -19.1925
  36   2.0000      -0.687080       -18.6964
  37   2.0000      -0.669058       -18.2060
  38   2.0000      -0.641187       -17.4476
  39   2.0000      -0.615300       -16.7432
  40   2.0000      -0.598713       -16.2918
  41   2.0000      -0.573253       -15.5990
  42   2.0000      -0.569494       -15.4967
  43   2.0000      -0.553805       -15.0698
  44   2.0000      -0.542059       -14.7502
  45   2.0000      -0.523996       -14.2586
  46   2.0000      -0.519308       -14.1311
  47   2.0000      -0.509280       -13.8582
  48   2.0000      -0.506732       -13.7889
  49   2.0000      -0.501517       -13.6470
  50   2.0000      -0.491140       -13.3646
  51   2.0000      -0.478133       -13.0107
  52   2.0000      -0.474808       -12.9202
  53   2.0000      -0.464566       -12.6415
  54   2.0000      -0.457112       -12.4387
  55   2.0000      -0.452195       -12.3049
  56   2.0000      -0.445315       -12.1176
  57   2.0000      -0.435872       -11.8607
  58   2.0000      -0.426309       -11.6005
  59   2.0000      -0.425664       -11.5829
  60   2.0000      -0.419862       -11.4250
  61   2.0000      -0.413584       -11.2542
  62   2.0000      -0.406816       -11.0700
  63   2.0000      -0.351572        -9.5668
  64   2.0000      -0.331763        -9.0277
  65   2.0000      -0.325989        -8.8706
  66   2.0000      -0.289305        -7.8724
  67   0.0000       0.025739         0.7004
  68   0.0000       0.075074         2.0429
  69   0.0000       0.110989         3.0202
  70   0.0000       0.114231         3.1084
  71   0.0000       0.132933         3.6173

MULLIKEN ATOMIC CHARGES
-----------------------
   0 S :    0.112507
   1 C :   -0.118309
   2 C :   -0.053149
   3 C :   -0.008257
   4 C :   -0.103259
   5 H :    0.030236
   6 C :    0.006544
   7 H :    0.030218
   8 H :    0.037029
   9 C :   -0.129231
  10 H :    0.037994
  11 H :    0.040598
  12 C :   -0.009014
  13 H :    0.035188
  14 H :    0.028575
  15 H :    0.020429
  16 S :    0.105049
  17 C :   -0.097650
  18 C :   -0.034943
  19 C :   -0.042545
  20 C :   -0.150918
  21 H :    0.002050
  22 C :    0.017670
  23 H :    0.040770
  24 H :    0.002601
  25 C :    0.028452
  26 H :    0.007892
  27 H :    0.025413
  28 C :   -0.091396
  29 H :    0.023081
  30 H :    0.043233
  31 H :    0.037636
  32 H :    0.047586
  33 H :    0.077920
Sum of atomic charges:   -0.0000000

LOEWDIN ATOMIC CHARGES
----------------------
   0 S :    0.404737
   1 C :   -0.202357
   2 C :   -0.059803
   3 C :   -0.066361
   4 C :   -0.191965
   5 H :    0.036192
   6 C :   -0.045256
   7 H :    0.033954
   8 H :    0.036260
   9 C :   -0.048640
  10 H :    0.024855
  11 H :    0.026611
  12 C :   -0.062140
  13 H :    0.032231
  14 H :    0.023237
  15 H :    0.022965
  16 S :    0.413386
  17 C :   -0.196738
  18 C :   -0.062823
  19 C :   -0.063292
  20 C :   -0.192550
  21 H :    0.020505
  22 C :   -0.039679
  23 H :    0.037752
  24 H :    0.029048
  25 C :   -0.030472
  26 H :    0.018022
  27 H :    0.022858
  28 C :   -0.069348
  29 H :    0.014991
  30 H :    0.029311
  31 H :    0.036815
  32 H :    0.026525
  33 H :    0.041170

  Mayer bond orders larger than 0.100000
B(  0-S ,  1-C ) :   1.1276 B(  0-S ,  4-C ) :   1.1464 B(  1-C ,  2-C ) :   1.5891
B(  1-C , 32-H ) :   0.9717 B(  2-C ,  3-C ) :   1.2449 B(  2-C ,  6-C ) :   1.0286
B(  3-C ,  4-C ) :   1.5826 B(  3-C ,  5-H ) :   0.9867 B(  4-C , 20-C ) :   1.0338
B(  6-C ,  7-H ) :   0.9424 B(  6-C ,  8-H ) :   0.9353 B(  6-C ,  9-C ) :   1.0690
B(  9-C , 10-H ) :   0.9587 B(  9-C , 11-H ) :   0.9480 B(  9-C , 12-C ) :   1.0782
B( 12-C , 13-H ) :   0.9710 B( 12-C , 14-H ) :   0.9753 B( 12-C , 15-H ) :   0.9741
B( 16-S , 17-C ) :   1.1608 B( 16-S , 20-C ) :   1.1468 B( 17-C , 18-C ) :   1.5684
B( 17-C , 20-C ) :   0.1039 B( 17-C , 33-H ) :   0.9658 B( 18-C , 19-C ) :   1.2636
B( 18-C , 21-H ) :   0.9957 B( 19-C , 20-C ) :   1.5677 B( 19-C , 22-C ) :   1.0373
B( 22-C , 23-H ) :   0.9405 B( 22-C , 24-H ) :   0.9269 B( 22-C , 25-C ) :   1.0713
B( 25-C , 26-H ) :   0.9528 B( 25-C , 27-H ) :   0.9539 B( 25-C , 28-C ) :   1.0692
B( 28-C , 29-H ) :   0.9786 B( 28-C , 30-H ) :   0.9743 B( 28-C , 31-H ) :   0.9738

Dispersion correction           -0.014185669
FINAL SINGLE POINT ENERGY     -1339.875123927037

DIPOLE MOMENT
-------------
                                X             Y             Z
Electronic contribution:     12.43590     -23.78661       1.29428
Nuclear contribution   :    -12.64049      24.37920      -1.67591
                        -----------------------------------------
Total Dipole Moment    :     -0.20459       0.59260      -0.38163
                        -----------------------------------------
Magnitude (a.u.)       :      0.73394
Magnitude (Debye)      :      1.86552

Rotational constants in cm-1:     0.021355     0.007654     0.006526
Rotational constants in MHz :   640.196576   229.458745   195.655414

                             ****ORCA TERMINATED NORMALLY****
TOTAL RUN TIME: 0 days 0 hours 0 minutes 28 seconds 644 msec
