                         Program Version 4.2.1 -  RELEASE  -
|  1> ! wB97X-D3 SP def2-SVP
|  2> %pal
|  3> nprocs 16
|  4> end
|  5>
|  6> * xyz 0 1
|  7> S 	 61.7144 	 -3.91805 	 87.6945
|  8> C 	 60.2392 	 -3.42141 	 88.4445
|  9> C 	 60.4129 	 -2.61157 	 89.5623
| 10> C 	 61.8226 	 -2.35916 	 89.7547
| 11> C 	 62.6117 	 -2.86561 	 88.7432
| 12> H 	 62.3376 	 -1.78353 	 90.5275
| 13> C 	 59.2984 	 -2.04233 	 90.4289
| 14> H 	 58.6345 	 -1.41663 	 89.8424
| 15> H 	 59.7661 	 -1.20662 	 90.9927
| 16> C 	 58.5348 	 -2.98717 	 91.2953
| 17> H 	 57.9214 	 -2.34625 	 91.8313
| 18> H 	 57.8982 	 -3.55858 	 90.6962
| 19> C 	 59.2472 	 -4.03825 	 92.0933
| 20> H 	 60.0951 	 -3.63627 	 92.5868
| 21> H 	 58.6591 	 -4.57557 	 92.8522
| 22> H 	 59.589 	 -4.80611 	 91.3216
| 23> S 	 65.022 	 -4.1547 	 88.2679
| 24> C 	 66.4646 	 -3.19405 	 88.2941
| 25> C 	 66.2106 	 -1.89277 	 88.6732
| 26> C 	 64.8261 	 -1.5953 	 88.835
| 27> C 	 64.0523 	 -2.70407 	 88.5845
| 28> H 	 67.0318 	 -1.21078 	 88.9375
| 29> C 	 64.2883 	 -0.219057 	 89.1741
| 30> H 	 63.8243 	 -0.323568 	 90.1805
| 31> H 	 63.4945 	 0.0189342 	 88.4434
| 32> C 	 65.3504 	 0.892873 	 89.1361
| 33> H 	 65.7546 	 0.943055 	 88.1209
| 34> H 	 66.1671 	 0.716614 	 89.8593
| 35> C 	 64.7802 	 2.2413 	 89.4155
| 36> H 	 64.0137 	 2.5158 	 88.6687
| 37> H 	 65.4702 	 3.00208 	 89.357
| 38> H 	 64.2571 	 2.36857 	 90.3592
| 39> H 	 59.3087 	 -3.90859 	 88.2523
| 40> H 	 67.5068 	 -3.53858 	 88.301
| 41> *
| 42>
| 43>                          ****END OF INPUT****

CARTESIAN COORDINATES (ANGSTROEM)
---------------------------------
  S     61.714400   -3.918050   87.694500
  C     60.239200   -3.421410   88.444500
  C     60.412900   -2.611570   89.562300
  C     61.822600   -2.359160   89.754700
  C     62.611700   -2.865610   88.743200
  H     62.337600   -1.783530   90.527500
  C     59.298400   -2.042330   90.428900
  H     58.634500   -1.416630   89.842400
  H     59.766100   -1.206620   90.992700
  C     58.534800   -2.987170   91.295300
  H     57.921400   -2.346250   91.831300
  H     57.898200   -3.558580   90.696200
  C     59.247200   -4.038250   92.093300
  H     60.095100   -3.636270   92.586800
  H     58.659100   -4.575570   92.852200
  H     59.589000   -4.806110   91.321600
  S     65.022000   -4.154700   88.267900
  C     66.464600   -3.194050   88.294100
  C     66.210600   -1.892770   88.673200
  C     64.826100   -1.595300   88.835000
  C     64.052300   -2.704070   88.584500
  H     67.031800   -1.210780   88.937500
  C     64.288300   -0.219057   89.174100
  H     63.824300   -0.323568   90.180500
  H     63.494500    0.018934   88.443400
  C     65.350400    0.892873   89.136100
  H     65.754600    0.943055   88.120900
  H     66.167100    0.716614   89.859300
  C     64.780200    2.241300   89.415500
  H     64.013700    2.515800   88.668700
  H     65.470200    3.002080   89.357000
  H     64.257100    2.368570   90.359200
  H     59.308700   -3.908590   88.252300
  H     67.506800   -3.538580   88.301000

 Total Charge           Charge          ....    0
 Multiplicity           Mult            ....    1
 Number of Electrons    NEL             ....  134
 Basis Dimension        Dim             ....  322

ORBITAL ENERGIES
----------------

  NO   OCC          E(Eh)            E(eV)
   0   2.0000     -88.966500     -2420.9015
   1   2.0000     -88.964854     -2420.8568
   2   2.0000     -10.324181      -280.9352
   3   2.0000     -10.322479      -280.8889
   4   2.0000     -10.315007      -280.6856
   5   2.0000     -10.308547      -280.5098
   6   2.0000     -10.303206      -280.3645
   7   2.0000     -10.299523      -280.2643
   8   2.0000     -10.297185      -280.2006
   9   2.0000     -10.294316      -280.1226
  10   2.0000     -10.292304      -280.0678
  11   2.0000     -10.291600      -280.0487
  12   2.0000     -10.288985      -279.9775
  13   2.0000     -10.275792      -279.6185
  14   2.0000     -10.271917      -279.5131
  15   2.0000     -10.270009      -279.4612
  16   2.0000      -8.081070      -219.8971
  17   2.0000      -8.080320      -219.8767
  18   2.0000      -6.039607      -164.3461
  19   2.0000      -6.038660      -164.3203
  20   2.0000      -6.035736      -164.2407
  21   2.0000      -6.034810      -164.2155
  22   2.0000      -6.031687      -164.1306
  23   2.0000      -6.031147      -164.1158
  24   2.0000      -1.007852       -27.4251
  25   2.0000      -0.984569       -26.7915
  26   2.0000      -0.919723       -25.0269
  27   2.0000      -0.914586       -24.8871
  28   2.0000      -0.869411       -23.6579
  29   2.0000      -0.857755       -23.3407
  30   2.0000      -0.846276       -23.0283
  31   2.0000      -0.812523       -22.1099
  32   2.0000      -0.788214       -21.4484
  33   2.0000      -0.775628       -21.1059
  34   2.0000      -0.709220       -19.2988
  35   2.0000      -0.703486       -19.1428
  36   2.0000      -0.695629       -18.9290
  37   2.0000      -0.652386       -17.7523
  38   2.0000      -0.638960       -17.3870
  39   2.0000      -0.611262       -16.6333
  40   2.0000      -0.595678       -16.2092
  41   2.0000      -0.578485       -15.7414
  42   2.0000      -0.575565       -15.6619
  43   2.0000      -0.554790       -15.0966
  44   2.0000      -0.541197       -14.7267
  45   2.0000      -0.528801       -14.3894
  46   2.0000      -0.515076       -14.0159
  47   2.0000      -0.510751       -13.8982
  48   2.0000      -0.504772       -13.7355
  49   2.0000      -0.496157       -13.5011
  50   2.0000      -0.484223       -13.1764
  51   2.0000      -0.477409       -12.9910
  52   2.0000      -0.474159       -12.9025
  53   2.0000      -0.466822       -12.7029
  54   2.0000      -0.460157       -12.5215
  55   2.0000      -0.458496       -12.4763
  56   2.0000      -0.449466       -12.2306
  57   2.0000      -0.442582       -12.0433
  58   2.0000      -0.426818       -11.6143
  59   2.0000      -0.425302       -11.5730
  60   2.0000      -0.424103       -11.5404
  61   2.0000      -0.419281       -11.4092
  62   2.0000      -0.406448       -11.0600
  63   2.0000      -0.348872        -9.4933
  64   2.0000      -0.332087        -9.0366
  65   2.0000      -0.330861        -9.0032
  66   2.0000      -0.286401        -7.7934
  67   0.0000       0.027955         0.7607
  68   0.0000       0.073995         2.0135
  69   0.0000       0.105275         2.8647
  70   0.0000       0.122583         3.3356
  71   0.0000       0.136922         3.7258

MULLIKEN ATOMIC CHARGES
-----------------------
   0 S :    0.112672
   1 C :   -0.101359
   2 C :   -0.108324
   3 C :    0.016818
   4 C :   -0.170797
   5 H :    0.010167
   6 C :    0.065426
   7 H :    0.029383
   8 H :    0.010792
   9 C :   -0.003167
  10 H :    0.006349
  11 H :    0.004930
  12 C :   -0.049678
  13 H :    0.019778
  14 H :    0.040197
  15 H :    0.043747
  16 S :    0.108363
  17 C :   -0.068871
  18 C :   -0.073165
  19 C :   -0.055627
  20 C :   -0.138557
  21 H :    0.025743
  22 C :    0.052375
  23 H :    0.039640
  24 H :    0.049318
  25 C :   -0.097601
  26 H :    0.037673
  27 H :    0.038665
  28 C :    0.007429
  29 H :    0.018510
  30 H :    0.010456
  31 H :    0.020528
  32 H :    0.038839
  33 H :    0.059345
Sum of atomic charges:   -0.0000000

LOEWDIN ATOMIC CHARGES
----------------------
   0 S :    0.417059
   1 C :   -0.202291
   2 C :   -0.059876
   3 C :   -0.064956
   4 C :   -0.197788
   5 H :    0.031087
   6 C :   -0.033390
   7 H :    0.036891
   8 H :    0.031578
   9 C :   -0.039569
  10 H :    0.017237
  11 H :    0.017746
  12 C :   -0.063121
  13 H :    0.016215
  14 H :    0.030499
  15 H :    0.037531
  16 S :    0.400825
  17 C :   -0.196764
  18 C :   -0.077424
  19 C :   -0.059553
  20 C :   -0.194012
  21 H :    0.034357
  22 C :   -0.031738
  23 H :    0.033516
  24 H :    0.041167
  25 C :   -0.043839
  26 H :    0.030855
  27 H :    0.025938
  28 C :   -0.061128
  29 H :    0.027771
  30 H :    0.014964
  31 H :    0.023557
  32 H :    0.020427
  33 H :    0.036232

  Mayer bond orders larger than 0.100000
B(  0-S ,  1-C ) :   1.1484 B(  0-S ,  4-C ) :   1.1540 B(  1-C ,  2-C ) :   1.6086
B(  1-C , 32-H ) :   0.9692 B(  2-C ,  3-C ) :   1.2380 B(  2-C ,  6-C ) :   1.0082
B(  3-C ,  4-C ) :   1.5762 B(  3-C ,  5-H ) :   0.9877 B(  4-C , 20-C ) :   1.0467
B(  6-C ,  7-H ) :   0.9371 B(  6-C ,  8-H ) :   0.9357 B(  6-C ,  9-C ) :   1.0800
B(  9-C , 10-H ) :   0.9466 B(  9-C , 11-H ) :   0.9525 B(  9-C , 12-C ) :   1.0794
B( 12-C , 13-H ) :   0.9793 B( 12-C , 14-H ) :   0.9732 B( 12-C , 15-H ) :   0.9675
B( 16-S , 17-C ) :   1.1477 B( 16-S , 20-C ) :   1.1361 B( 17-C , 18-C ) :   1.6135
B( 17-C , 33-H ) :   0.9567 B( 18-C , 19-C ) :   1.2579 B( 18-C , 21-H ) :   0.9790
B( 19-C , 20-C ) :   1.6170 B( 19-C , 22-C ) :   1.0192 B( 22-C , 23-H ) :   0.9209
B( 22-C , 24-H ) :   0.9345 B( 22-C , 25-C ) :   1.0974 B( 25-C , 26-H ) :   0.9481
B( 25-C , 27-H ) :   0.9441 B( 25-C , 28-C ) :   1.1008 B( 28-C , 29-H ) :   0.9679
B( 28-C , 30-H ) :   0.9679 B( 28-C , 31-H ) :   0.9700

Dispersion correction           -0.013980118
FINAL SINGLE POINT ENERGY     -1339.881007696627

DIPOLE MOMENT
-------------
                                X             Y             Z
Electronic contribution:      9.05697     -18.88666     -15.39852
Nuclear contribution   :     -9.17201      19.45830      15.90694
                        -----------------------------------------
Total Dipole Moment    :     -0.11505       0.57164       0.50842
                        -----------------------------------------
Magnitude (a.u.)       :      0.77362
Magnitude (Debye)      :      1.96639

Rotational constants in cm-1:     0.018144     0.008419     0.006486
Rotational constants in MHz :   543.943995   252.402004   194.445995

                             ****ORCA TERMINATED NORMALLY****
TOTAL RUN TIME: 0 days 0 hours 0 minutes 29 seconds 638 msec
