                         Program Version 4.2.1 -  RELEASE  -
|  1> ! wB97X-D3 SP def2-SVP
|  2> %pal
|  3> nprocs 16
|  4> end
|  5>
|  6> * xyz 0 1
|  7> S 	 -74.9679 	 35.587 	 121.875
|  8> C 	 -73.7173 	 34.4066 	 121.706
|  9> C 	 -72.5018 	 35.0636 	 121.569
| 10> C 	 -72.6112 	 36.4889 	 121.748
| 11> C 	 -73.9159 	 36.9354 	 121.809
| 12> H 	 -71.7917 	 37.1455 	 121.736
| 13> C 	 -71.1698 	 34.3539 	 121.486
| 14> H 	 -71.3095 	 33.795 	 120.586
| 15> H 	 -70.9884 	 33.6833 	 122.269
| 16> C 	 -69.9152 	 35.1845 	 121.18
| 17> H 	 -69.1782 	 34.442 	 120.765
| 18> H 	 -70.0542 	 35.7896 	 120.339
| 19> C 	 -69.2924 	 35.8607 	 122.398
| 20> H 	 -69.9966 	 36.6045 	 122.684
| 21> H 	 -69.0757 	 35.2551 	 123.274
| 22> H 	 -68.3993 	 36.3659 	 122.105
| 23> S 	 -75.8024 	 38.5782 	 123.044
| 24> C 	 -75.7724 	 40.2976 	 122.8
| 25> C 	 -74.7371 	 40.6931 	 122.055
| 26> C 	 -73.9189 	 39.5777 	 121.579
| 27> C 	 -74.4406 	 38.3344 	 121.966
| 28> H 	 -74.6191 	 41.7666 	 122.005
| 29> C 	 -72.6207 	 39.6458 	 120.72
| 30> H 	 -72.8081 	 39.0628 	 119.794
| 31> H 	 -71.894 	 39.1556 	 121.299
| 32> C 	 -72.0894 	 41.0637 	 120.307
| 33> H 	 -71.8226 	 41.6673 	 121.199
| 34> H 	 -72.9182 	 41.6749 	 119.878
| 35> C 	 -70.8203 	 41.0707 	 119.566
| 36> H 	 -70.9206 	 40.6133 	 118.536
| 37> H 	 -70.0352 	 40.6489 	 120.187
| 38> H 	 -70.56 	 42.0773 	 119.332
| 39> H 	 -73.723 	 33.3662 	 121.72
| 40> H 	 -76.5129 	 41.0017 	 123.176
| 41> *
| 42>
| 43>                          ****END OF INPUT****

CARTESIAN COORDINATES (ANGSTROEM)
---------------------------------
  S    -74.967900   35.587000  121.875000
  C    -73.717300   34.406600  121.706000
  C    -72.501800   35.063600  121.569000
  C    -72.611200   36.488900  121.748000
  C    -73.915900   36.935400  121.809000
  H    -71.791700   37.145500  121.736000
  C    -71.169800   34.353900  121.486000
  H    -71.309500   33.795000  120.586000
  H    -70.988400   33.683300  122.269000
  C    -69.915200   35.184500  121.180000
  H    -69.178200   34.442000  120.765000
  H    -70.054200   35.789600  120.339000
  C    -69.292400   35.860700  122.398000
  H    -69.996600   36.604500  122.684000
  H    -69.075700   35.255100  123.274000
  H    -68.399300   36.365900  122.105000
  S    -75.802400   38.578200  123.044000
  C    -75.772400   40.297600  122.800000
  C    -74.737100   40.693100  122.055000
  C    -73.918900   39.577700  121.579000
  C    -74.440600   38.334400  121.966000
  H    -74.619100   41.766600  122.005000
  C    -72.620700   39.645800  120.720000
  H    -72.808100   39.062800  119.794000
  H    -71.894000   39.155600  121.299000
  C    -72.089400   41.063700  120.307000
  H    -71.822600   41.667300  121.199000
  H    -72.918200   41.674900  119.878000
  C    -70.820300   41.070700  119.566000
  H    -70.920600   40.613300  118.536000
  H    -70.035200   40.648900  120.187000
  H    -70.560000   42.077300  119.332000
  H    -73.723000   33.366200  121.720000
  H    -76.512900   41.001700  123.176000

 Total Charge           Charge          ....    0
 Multiplicity           Mult            ....    1
 Number of Electrons    NEL             ....  134
 Basis Dimension        Dim             ....  322

ORBITAL ENERGIES
----------------

  NO   OCC          E(Eh)            E(eV)
   0   2.0000     -88.966451     -2420.9002
   1   2.0000     -88.962243     -2420.7857
   2   2.0000     -10.331615      -281.1375
   3   2.0000     -10.331548      -281.1357
   4   2.0000     -10.312699      -280.6228
   5   2.0000     -10.311838      -280.5994
   6   2.0000     -10.307214      -280.4736
   7   2.0000     -10.298940      -280.2484
   8   2.0000     -10.295716      -280.1607
   9   2.0000     -10.293488      -280.1000
  10   2.0000     -10.289403      -279.9889
  11   2.0000     -10.289399      -279.9888
  12   2.0000     -10.286173      -279.9010
  13   2.0000     -10.283106      -279.8175
  14   2.0000     -10.278425      -279.6902
  15   2.0000     -10.272847      -279.5384
  16   2.0000      -8.081773      -219.9162
  17   2.0000      -8.077355      -219.7960
  18   2.0000      -6.040350      -164.3663
  19   2.0000      -6.035957      -164.2467
  20   2.0000      -6.035907      -164.2454
  21   2.0000      -6.032676      -164.1574
  22   2.0000      -6.031835      -164.1346
  23   2.0000      -6.028016      -164.0307
  24   2.0000      -1.009026       -27.4570
  25   2.0000      -0.987644       -26.8752
  26   2.0000      -0.916035       -24.9266
  27   2.0000      -0.909094       -24.7377
  28   2.0000      -0.872893       -23.7526
  29   2.0000      -0.854199       -23.2439
  30   2.0000      -0.842703       -22.9311
  31   2.0000      -0.825390       -22.4600
  32   2.0000      -0.789022       -21.4704
  33   2.0000      -0.774183       -21.0666
  34   2.0000      -0.711524       -19.3615
  35   2.0000      -0.697739       -18.9864
  36   2.0000      -0.694480       -18.8978
  37   2.0000      -0.648644       -17.6505
  38   2.0000      -0.638537       -17.3755
  39   2.0000      -0.630254       -17.1501
  40   2.0000      -0.594526       -16.1779
  41   2.0000      -0.578955       -15.7542
  42   2.0000      -0.572399       -15.5758
  43   2.0000      -0.556357       -15.1392
  44   2.0000      -0.533628       -14.5208
  45   2.0000      -0.530034       -14.4229
  46   2.0000      -0.521791       -14.1987
  47   2.0000      -0.513772       -13.9804
  48   2.0000      -0.508690       -13.8422
  49   2.0000      -0.502698       -13.6791
  50   2.0000      -0.499090       -13.5809
  51   2.0000      -0.485622       -13.2144
  52   2.0000      -0.476532       -12.9671
  53   2.0000      -0.469241       -12.7687
  54   2.0000      -0.465106       -12.6562
  55   2.0000      -0.456739       -12.4285
  56   2.0000      -0.450826       -12.2676
  57   2.0000      -0.437364       -11.9013
  58   2.0000      -0.427915       -11.6442
  59   2.0000      -0.421359       -11.4658
  60   2.0000      -0.413867       -11.2619
  61   2.0000      -0.412043       -11.2123
  62   2.0000      -0.406499       -11.0614
  63   2.0000      -0.355964        -9.6863
  64   2.0000      -0.330169        -8.9843
  65   2.0000      -0.326145        -8.8749
  66   2.0000      -0.290682        -7.9099
  67   0.0000       0.027603         0.7511
  68   0.0000       0.085794         2.3346
  69   0.0000       0.113524         3.0891
  70   0.0000       0.128884         3.5071
  71   0.0000       0.130637         3.5548

MULLIKEN ATOMIC CHARGES
-----------------------
   0 S :    0.116840
   1 C :   -0.082122
   2 C :   -0.111786
   3 C :    0.024997
   4 C :   -0.119800
   5 H :   -0.019645
   6 C :    0.081325
   7 H :    0.024510
   8 H :    0.030370
   9 C :   -0.097216
  10 H :    0.024984
  11 H :    0.015346
  12 C :    0.000446
  13 H :    0.007944
  14 H :    0.034881
  15 H :    0.026450
  16 S :    0.095432
  17 C :   -0.086568
  18 C :   -0.041526
  19 C :   -0.055092
  20 C :   -0.121887
  21 H :    0.020114
  22 C :    0.053227
  23 H :    0.052678
  24 H :    0.031668
  25 C :   -0.114854
  26 H :    0.023113
  27 H :    0.035171
  28 C :   -0.011601
  29 H :    0.033670
  30 H :    0.035273
  31 H :    0.021275
  32 H :    0.015383
  33 H :    0.056998
Sum of atomic charges:    0.0000000

LOEWDIN ATOMIC CHARGES
----------------------
   0 S :    0.436895
   1 C :   -0.202575
   2 C :   -0.056306
   3 C :   -0.067794
   4 C :   -0.200304
   5 H :    0.015382
   6 C :   -0.030696
   7 H :    0.036492
   8 H :    0.025022
   9 C :   -0.040404
  10 H :    0.030563
  11 H :    0.017413
  12 C :   -0.060373
  13 H :    0.017870
  14 H :    0.028636
  15 H :    0.024094
  16 S :    0.399271
  17 C :   -0.186199
  18 C :   -0.080565
  19 C :   -0.049851
  20 C :   -0.196412
  21 H :    0.035677
  22 C :   -0.028723
  23 H :    0.040900
  24 H :    0.021001
  25 C :   -0.053930
  26 H :    0.026490
  27 H :    0.025681
  28 C :   -0.063654
  29 H :    0.029235
  30 H :    0.027708
  31 H :    0.024885
  32 H :    0.020227
  33 H :    0.034347

  Mayer bond orders larger than 0.100000
B(  0-S ,  1-C ) :   1.1412 B(  0-S ,  4-C ) :   1.1772 B(  1-C ,  2-C ) :   1.5934
B(  1-C , 32-H ) :   0.9816 B(  2-C ,  3-C ) :   1.2799 B(  2-C ,  6-C ) :   1.0032
B(  3-C ,  4-C ) :   1.5370 B(  3-C ,  5-H ) :   0.9873 B(  4-C , 20-C ) :   1.0256
B(  6-C ,  7-H ) :   0.9271 B(  6-C ,  8-H ) :   0.9452 B(  6-C ,  9-C ) :   1.1001
B(  9-C , 10-H ) :   0.9523 B(  9-C , 11-H ) :   0.9514 B(  9-C , 12-C ) :   1.0730
B( 12-C , 13-H ) :   0.9775 B( 12-C , 14-H ) :   0.9716 B( 12-C , 15-H ) :   0.9694
B( 16-S , 17-C ) :   1.1448 B( 16-S , 20-C ) :   1.1391 B( 17-C , 18-C ) :   1.6543
B( 17-C , 33-H ) :   0.9583 B( 18-C , 19-C ) :   1.2080 B( 18-C , 21-H ) :   0.9938
B( 19-C , 20-C ) :   1.6186 B( 19-C , 22-C ) :   1.0184 B( 22-C , 23-H ) :   0.9418
B( 22-C , 24-H ) :   0.9290 B( 22-C , 25-C ) :   1.0757 B( 25-C , 26-H ) :   0.9497
B( 25-C , 27-H ) :   0.9514 B( 25-C , 28-C ) :   1.1006 B( 28-C , 29-H ) :   0.9696
B( 28-C , 30-H ) :   0.9703 B( 28-C , 31-H ) :   0.9666

Dispersion correction           -0.013866933
FINAL SINGLE POINT ENERGY     -1339.867204752336

DIPOLE MOMENT
-------------
                                X             Y             Z
Electronic contribution:    -29.90864      -6.30462       9.26576
Nuclear contribution   :     30.64583       6.54736      -9.42418
                        -----------------------------------------
Total Dipole Moment    :      0.73719       0.24273      -0.15842
                        -----------------------------------------
Magnitude (a.u.)       :      0.79213
Magnitude (Debye)      :      2.01343

Rotational constants in cm-1:     0.015217     0.010305     0.006652
Rotational constants in MHz :   456.181679   308.946242   199.418449

                             ****ORCA TERMINATED NORMALLY****
TOTAL RUN TIME: 0 days 0 hours 0 minutes 34 seconds 350 msec
