                         Program Version 4.2.1 -  RELEASE  -
|  1> ! wB97X-D3 SP def2-SVP
|  2> %pal
|  3> nprocs 16
|  4> end
|  5>
|  6> * xyz 0 1
|  7> S 	 -28.7865 	 58.4817 	 111.198
|  8> C 	 -27.9863 	 58.365 	 109.664
|  9> C 	 -28.8231 	 57.8766 	 108.697
| 10> C 	 -30.1759 	 57.6488 	 109.194
| 11> C 	 -30.2655 	 57.8921 	 110.596
| 12> H 	 -31.1226 	 57.5042 	 108.704
| 13> C 	 -28.4484 	 57.9368 	 107.205
| 14> H 	 -28.0737 	 59.0206 	 106.993
| 15> H 	 -29.3346 	 57.8518 	 106.589
| 16> C 	 -27.3299 	 56.9117 	 106.742
| 17> H 	 -26.4971 	 57.1415 	 107.408
| 18> H 	 -27.5443 	 55.838 	 106.849
| 19> C 	 -26.8749 	 57.4133 	 105.371
| 20> H 	 -27.5785 	 57.0895 	 104.543
| 21> H 	 -26.6129 	 58.4306 	 105.355
| 22> H 	 -25.9167 	 56.8644 	 105.17
| 23> S 	 -31.6066 	 59.366 	 112.517
| 24> C 	 -33.1988 	 58.8744 	 112.975
| 25> C 	 -33.5573 	 57.6853 	 112.359
| 26> C 	 -32.6626 	 57.1752 	 111.431
| 27> C 	 -31.549 	 58.0081 	 111.394
| 28> H 	 -34.4891 	 57.248 	 112.643
| 29> C 	 -32.9222 	 55.9125 	 110.683
| 30> H 	 -33.6924 	 55.3726 	 111.19
| 31> H 	 -32.1036 	 55.2816 	 110.773
| 32> C 	 -33.5387 	 55.9446 	 109.288
| 33> H 	 -33.9357 	 54.8918 	 109.119
| 34> H 	 -32.6898 	 56.1604 	 108.56
| 35> C 	 -34.6468 	 56.9784 	 109.002
| 36> H 	 -34.1793 	 58.0475 	 109.136
| 37> H 	 -35.5621 	 56.9591 	 109.625
| 38> H 	 -34.9024 	 56.9868 	 107.921
| 39> H 	 -26.9815 	 58.6645 	 109.394
| 40> H 	 -33.7025 	 59.4017 	 113.793
| 41> *
| 42>
| 43>                          ****END OF INPUT****

CARTESIAN COORDINATES (ANGSTROEM)
---------------------------------
  S    -28.786500   58.481700  111.198000
  C    -27.986300   58.365000  109.664000
  C    -28.823100   57.876600  108.697000
  C    -30.175900   57.648800  109.194000
  C    -30.265500   57.892100  110.596000
  H    -31.122600   57.504200  108.704000
  C    -28.448400   57.936800  107.205000
  H    -28.073700   59.020600  106.993000
  H    -29.334600   57.851800  106.589000
  C    -27.329900   56.911700  106.742000
  H    -26.497100   57.141500  107.408000
  H    -27.544300   55.838000  106.849000
  C    -26.874900   57.413300  105.371000
  H    -27.578500   57.089500  104.543000
  H    -26.612900   58.430600  105.355000
  H    -25.916700   56.864400  105.170000
  S    -31.606600   59.366000  112.517000
  C    -33.198800   58.874400  112.975000
  C    -33.557300   57.685300  112.359000
  C    -32.662600   57.175200  111.431000
  C    -31.549000   58.008100  111.394000
  H    -34.489100   57.248000  112.643000
  C    -32.922200   55.912500  110.683000
  H    -33.692400   55.372600  111.190000
  H    -32.103600   55.281600  110.773000
  C    -33.538700   55.944600  109.288000
  H    -33.935700   54.891800  109.119000
  H    -32.689800   56.160400  108.560000
  C    -34.646800   56.978400  109.002000
  H    -34.179300   58.047500  109.136000
  H    -35.562100   56.959100  109.625000
  H    -34.902400   56.986800  107.921000
  H    -26.981500   58.664500  109.394000
  H    -33.702500   59.401700  113.793000

 Total Charge           Charge          ....    0
 Multiplicity           Mult            ....    1
 Number of Electrons    NEL             ....  134
 Basis Dimension        Dim             ....  322

ORBITAL ENERGIES
----------------

  NO   OCC          E(Eh)            E(eV)
   0   2.0000     -88.967542     -2420.9299
   1   2.0000     -88.967323     -2420.9239
   2   2.0000     -10.331720      -281.1404
   3   2.0000     -10.330373      -281.1038
   4   2.0000     -10.314960      -280.6843
   5   2.0000     -10.309266      -280.5294
   6   2.0000     -10.302223      -280.3377
   7   2.0000     -10.300621      -280.2942
   8   2.0000     -10.300165      -280.2817
   9   2.0000     -10.299809      -280.2721
  10   2.0000     -10.297133      -280.1992
  11   2.0000     -10.291856      -280.0556
  12   2.0000     -10.290939      -280.0307
  13   2.0000     -10.288688      -279.9694
  14   2.0000     -10.283599      -279.8310
  15   2.0000     -10.281778      -279.7814
  16   2.0000      -8.082825      -219.9448
  17   2.0000      -8.082514      -219.9364
  18   2.0000      -6.041279      -164.3916
  19   2.0000      -6.040764      -164.3775
  20   2.0000      -6.037102      -164.2779
  21   2.0000      -6.037020      -164.2757
  22   2.0000      -6.033728      -164.1861
  23   2.0000      -6.033515      -164.1803
  24   2.0000      -1.008374       -27.4393
  25   2.0000      -0.987504       -26.8714
  26   2.0000      -0.914396       -24.8820
  27   2.0000      -0.905829       -24.6489
  28   2.0000      -0.864423       -23.5221
  29   2.0000      -0.852592       -23.2002
  30   2.0000      -0.843229       -22.9454
  31   2.0000      -0.809557       -22.0292
  32   2.0000      -0.787835       -21.4381
  33   2.0000      -0.767708       -20.8904
  34   2.0000      -0.701800       -19.0970
  35   2.0000      -0.699243       -19.0274
  36   2.0000      -0.683756       -18.6059
  37   2.0000      -0.666417       -18.1341
  38   2.0000      -0.639792       -17.4096
  39   2.0000      -0.607969       -16.5437
  40   2.0000      -0.597082       -16.2474
  41   2.0000      -0.570070       -15.5124
  42   2.0000      -0.565261       -15.3815
  43   2.0000      -0.556759       -15.1502
  44   2.0000      -0.544554       -14.8181
  45   2.0000      -0.514594       -14.0028
  46   2.0000      -0.513645       -13.9770
  47   2.0000      -0.507246       -13.8029
  48   2.0000      -0.499063       -13.5802
  49   2.0000      -0.493575       -13.4308
  50   2.0000      -0.486579       -13.2405
  51   2.0000      -0.482206       -13.1215
  52   2.0000      -0.475348       -12.9349
  53   2.0000      -0.465740       -12.6734
  54   2.0000      -0.463125       -12.6023
  55   2.0000      -0.450157       -12.2494
  56   2.0000      -0.449410       -12.2291
  57   2.0000      -0.444677       -12.1003
  58   2.0000      -0.432478       -11.7683
  59   2.0000      -0.418760       -11.3950
  60   2.0000      -0.417235       -11.3535
  61   2.0000      -0.409711       -11.1488
  62   2.0000      -0.406181       -11.0528
  63   2.0000      -0.348457        -9.4820
  64   2.0000      -0.337921        -9.1953
  65   2.0000      -0.327885        -8.9222
  66   2.0000      -0.286129        -7.7860
  67   0.0000       0.026791         0.7290
  68   0.0000       0.075619         2.0577
  69   0.0000       0.109955         2.9920
  70   0.0000       0.118097         3.2136
  71   0.0000       0.132338         3.6011

MULLIKEN ATOMIC CHARGES
-----------------------
   0 S :    0.111639
   1 C :   -0.116232
   2 C :   -0.047698
   3 C :    0.019137
   4 C :   -0.137474
   5 H :    0.001879
   6 C :   -0.013304
   7 H :    0.048610
   8 H :    0.022489
   9 C :   -0.070361
  10 H :    0.020105
  11 H :    0.050530
  12 C :   -0.054400
  13 H :    0.047327
  14 H :    0.027521
  15 H :    0.029177
  16 S :    0.109421
  17 C :   -0.109201
  18 C :   -0.025010
  19 C :   -0.034933
  20 C :   -0.171103
  21 H :    0.002918
  22 C :    0.140356
  23 H :   -0.000567
  24 H :    0.022215
  25 C :   -0.110458
  26 H :    0.042161
  27 H :    0.036742
  28 C :   -0.092341
  29 H :    0.049904
  30 H :    0.045663
  31 H :    0.045115
  32 H :    0.045989
  33 H :    0.064184
Sum of atomic charges:   -0.0000000

LOEWDIN ATOMIC CHARGES
----------------------
   0 S :    0.431081
   1 C :   -0.208309
   2 C :   -0.066373
   3 C :   -0.069771
   4 C :   -0.208830
   5 H :    0.025203
   6 C :   -0.035277
   7 H :    0.041745
   8 H :    0.023071
   9 C :   -0.039757
  10 H :    0.021569
  11 H :    0.030924
  12 C :   -0.067986
  13 H :    0.031956
  14 H :    0.017467
  15 H :    0.029198
  16 S :    0.410871
  17 C :   -0.197115
  18 C :   -0.065093
  19 C :   -0.061406
  20 C :   -0.184761
  21 H :    0.026053
  22 C :   -0.030972
  23 H :    0.031670
  24 H :    0.029110
  25 C :   -0.043857
  26 H :    0.031586
  27 H :    0.024446
  28 C :   -0.082608
  29 H :    0.038817
  30 H :    0.025540
  31 H :    0.031779
  32 H :    0.029428
  33 H :    0.030604

  Mayer bond orders larger than 0.100000
B(  0-S ,  1-C ) :   1.1378 B(  0-S ,  4-C ) :   1.1784 B(  1-C ,  2-C ) :   1.6116
B(  1-C , 32-H ) :   0.9666 B(  2-C ,  3-C ) :   1.2459 B(  2-C ,  6-C ) :   1.0079
B(  3-C ,  4-C ) :   1.5459 B(  3-C ,  5-H ) :   0.9873 B(  4-C , 20-C ) :   1.0240
B(  6-C ,  7-H ) :   0.9568 B(  6-C ,  8-H ) :   0.9514 B(  6-C ,  9-C ) :   1.0390
B(  9-C , 10-H ) :   0.9584 B(  9-C , 11-H ) :   0.9597 B(  9-C , 12-C ) :   1.0805
B( 12-C , 13-H ) :   0.9750 B( 12-C , 14-H ) :   0.9740 B( 12-C , 15-H ) :   0.9735
B( 16-S , 17-C ) :   1.1615 B( 16-S , 20-C ) :   1.1650 B( 17-C , 18-C ) :   1.5782
B( 17-C , 20-C ) :   0.1015 B( 17-C , 33-H ) :   0.9686 B( 18-C , 19-C ) :   1.2697
B( 18-C , 21-H ) :   0.9936 B( 19-C , 20-C ) :   1.5596 B( 19-C , 22-C ) :   1.0431
B( 22-C , 23-H ) :   0.9229 B( 22-C , 24-H ) :   0.9249 B( 22-C , 25-C ) :   1.0603
B( 25-C , 26-H ) :   0.9555 B( 25-C , 27-H ) :   0.9479 B( 25-C , 28-C ) :   1.0797
B( 28-C , 29-H ) :   0.9646 B( 28-C , 30-H ) :   0.9750 B( 28-C , 31-H ) :   0.9727

Dispersion correction           -0.014250897
FINAL SINGLE POINT ENERGY     -1339.865135726233

DIPOLE MOMENT
-------------
                                X             Y             Z
Electronic contribution:      2.24580      11.15481      26.18862
Nuclear contribution   :     -2.45776     -11.34978     -26.58961
                        -----------------------------------------
Total Dipole Moment    :     -0.21196      -0.19497      -0.40100
                        -----------------------------------------
Magnitude (a.u.)       :      0.49370
Magnitude (Debye)      :      1.25488

Rotational constants in cm-1:     0.021048     0.007945     0.006137
Rotational constants in MHz :   631.008482   238.194981   183.994763

                             ****ORCA TERMINATED NORMALLY****
TOTAL RUN TIME: 0 days 0 hours 0 minutes 29 seconds 646 msec
