                         Program Version 4.2.1 -  RELEASE  -
|  1> ! wB97X-D3 SP def2-SVP
|  2> %pal
|  3> nprocs 16
|  4> end
|  5>
|  6> * xyz 0 1
|  7> S 	 54.2459 	 21.3406 	 91.9521
|  8> C 	 52.7515 	 21.9233 	 91.1574
|  9> C 	 51.868 	 20.8459 	 90.8753
| 10> C 	 52.5882 	 19.6257 	 91.0842
| 11> C 	 53.9101 	 19.7076 	 91.4037
| 12> H 	 52.2045 	 18.6644 	 90.7576
| 13> C 	 50.3922 	 20.8116 	 90.5554
| 14> H 	 49.9624 	 19.8084 	 90.439
| 15> H 	 50.2146 	 21.3568 	 89.5729
| 16> C 	 49.3908 	 21.6012 	 91.4641
| 17> H 	 49.6332 	 21.3969 	 92.5069
| 18> H 	 49.4742 	 22.7237 	 91.4377
| 19> C 	 47.9463 	 21.3967 	 91.0396
| 20> H 	 47.2715 	 21.9333 	 91.7203
| 21> H 	 47.9184 	 21.7024 	 89.9752
| 22> H 	 47.7185 	 20.3571 	 91.0719
| 23> S 	 54.9017 	 18.0094 	 93.2714
| 24> C 	 55.6804 	 16.5625 	 92.7476
| 25> C 	 55.756 	 16.5398 	 91.341
| 26> C 	 55.2019 	 17.6475 	 90.7348
| 27> C 	 54.6917 	 18.5162 	 91.652
| 28> H 	 56.3204 	 15.73 	 90.7489
| 29> C 	 55.1021 	 17.8381 	 89.2605
| 30> H 	 55.6961 	 18.8134 	 89.1704
| 31> H 	 54.0649 	 18.027 	 89.0114
| 32> C 	 55.626 	 16.6926 	 88.305
| 33> H 	 55.051 	 15.801 	 88.4427
| 34> H 	 56.6704 	 16.4426 	 88.5477
| 35> C 	 55.4753 	 17.1257 	 86.8487
| 36> H 	 56.0882 	 16.4714 	 86.272
| 37> H 	 55.7706 	 18.2088 	 86.608
| 38> H 	 54.4699 	 17.088 	 86.5392
| 39> H 	 52.4907 	 22.9328 	 91.2465
| 40> H 	 56.0642 	 15.7307 	 93.3125
| 41> *
| 42>
| 43>                          ****END OF INPUT****

CARTESIAN COORDINATES (ANGSTROEM)
---------------------------------
  S     54.245900   21.340600   91.952100
  C     52.751500   21.923300   91.157400
  C     51.868000   20.845900   90.875300
  C     52.588200   19.625700   91.084200
  C     53.910100   19.707600   91.403700
  H     52.204500   18.664400   90.757600
  C     50.392200   20.811600   90.555400
  H     49.962400   19.808400   90.439000
  H     50.214600   21.356800   89.572900
  C     49.390800   21.601200   91.464100
  H     49.633200   21.396900   92.506900
  H     49.474200   22.723700   91.437700
  C     47.946300   21.396700   91.039600
  H     47.271500   21.933300   91.720300
  H     47.918400   21.702400   89.975200
  H     47.718500   20.357100   91.071900
  S     54.901700   18.009400   93.271400
  C     55.680400   16.562500   92.747600
  C     55.756000   16.539800   91.341000
  C     55.201900   17.647500   90.734800
  C     54.691700   18.516200   91.652000
  H     56.320400   15.730000   90.748900
  C     55.102100   17.838100   89.260500
  H     55.696100   18.813400   89.170400
  H     54.064900   18.027000   89.011400
  C     55.626000   16.692600   88.305000
  H     55.051000   15.801000   88.442700
  H     56.670400   16.442600   88.547700
  C     55.475300   17.125700   86.848700
  H     56.088200   16.471400   86.272000
  H     55.770600   18.208800   86.608000
  H     54.469900   17.088000   86.539200
  H     52.490700   22.932800   91.246500
  H     56.064200   15.730700   93.312500

 Total Charge           Charge          ....    0
 Multiplicity           Mult            ....    1
 Number of Electrons    NEL             ....  134
 Basis Dimension        Dim             ....  322

ORBITAL ENERGIES
----------------

  NO   OCC          E(Eh)            E(eV)
   0   2.0000     -88.967616     -2420.9319
   1   2.0000     -88.966496     -2420.9014
   2   2.0000     -10.322452      -280.8882
   3   2.0000     -10.319268      -280.8016
   4   2.0000     -10.313392      -280.6417
   5   2.0000     -10.312087      -280.6062
   6   2.0000     -10.310310      -280.5578
   7   2.0000     -10.304277      -280.3936
   8   2.0000     -10.293165      -280.0913
   9   2.0000     -10.291959      -280.0584
  10   2.0000     -10.290974      -280.0316
  11   2.0000     -10.290092      -280.0076
  12   2.0000     -10.289150      -279.9820
  13   2.0000     -10.289049      -279.9793
  14   2.0000     -10.281056      -279.7618
  15   2.0000     -10.276992      -279.6512
  16   2.0000      -8.083062      -219.9513
  17   2.0000      -8.080516      -219.8820
  18   2.0000      -6.041396      -164.3947
  19   2.0000      -6.039028      -164.3303
  20   2.0000      -6.037371      -164.2852
  21   2.0000      -6.035352      -164.2303
  22   2.0000      -6.034076      -164.1956
  23   2.0000      -6.031092      -164.1144
  24   2.0000      -1.013293       -27.5731
  25   2.0000      -0.984015       -26.7764
  26   2.0000      -0.910606       -24.7789
  27   2.0000      -0.908027       -24.7087
  28   2.0000      -0.869383       -23.6571
  29   2.0000      -0.858439       -23.3593
  30   2.0000      -0.849303       -23.1107
  31   2.0000      -0.808608       -22.0033
  32   2.0000      -0.779533       -21.2122
  33   2.0000      -0.769185       -20.9306
  34   2.0000      -0.707778       -19.2596
  35   2.0000      -0.703952       -19.1555
  36   2.0000      -0.693255       -18.8644
  37   2.0000      -0.650376       -17.6976
  38   2.0000      -0.646477       -17.5915
  39   2.0000      -0.615395       -16.7457
  40   2.0000      -0.595856       -16.2141
  41   2.0000      -0.570763       -15.5312
  42   2.0000      -0.566761       -15.4223
  43   2.0000      -0.562041       -15.2939
  44   2.0000      -0.527881       -14.3644
  45   2.0000      -0.523469       -14.2443
  46   2.0000      -0.520733       -14.1699
  47   2.0000      -0.510920       -13.9028
  48   2.0000      -0.504567       -13.7300
  49   2.0000      -0.493716       -13.4347
  50   2.0000      -0.492953       -13.4139
  51   2.0000      -0.478774       -13.0281
  52   2.0000      -0.467741       -12.7279
  53   2.0000      -0.466782       -12.7018
  54   2.0000      -0.457804       -12.4575
  55   2.0000      -0.447703       -12.1826
  56   2.0000      -0.444679       -12.1003
  57   2.0000      -0.435082       -11.8392
  58   2.0000      -0.430317       -11.7095
  59   2.0000      -0.429306       -11.6820
  60   2.0000      -0.427622       -11.6362
  61   2.0000      -0.418936       -11.3998
  62   2.0000      -0.410665       -11.1748
  63   2.0000      -0.338293        -9.2054
  64   2.0000      -0.329506        -8.9663
  65   2.0000      -0.321869        -8.7585
  66   2.0000      -0.297084        -8.0841
  67   0.0000       0.033413         0.9092
  68   0.0000       0.054903         1.4940
  69   0.0000       0.106116         2.8876
  70   0.0000       0.126485         3.4418
  71   0.0000       0.134356         3.6560

MULLIKEN ATOMIC CHARGES
-----------------------
   0 S :    0.100071
   1 C :   -0.099642
   2 C :   -0.036035
   3 C :    0.024679
   4 C :   -0.177776
   5 H :    0.015849
   6 C :    0.028029
   7 H :    0.030954
   8 H :    0.042179
   9 C :   -0.114228
  10 H :    0.030832
  11 H :    0.029285
  12 C :   -0.031575
  13 H :    0.047205
  14 H :    0.032389
  15 H :    0.020651
  16 S :    0.143582
  17 C :   -0.081226
  18 C :   -0.100863
  19 C :   -0.024949
  20 C :   -0.190713
  21 H :    0.041479
  22 C :    0.053660
  23 H :    0.055300
  24 H :    0.027981
  25 C :   -0.082439
  26 H :    0.031984
  27 H :    0.035755
  28 C :   -0.019348
  29 H :    0.028205
  30 H :    0.035743
  31 H :    0.022538
  32 H :    0.033112
  33 H :    0.047333
Sum of atomic charges:   -0.0000000

LOEWDIN ATOMIC CHARGES
----------------------
   0 S :    0.387603
   1 C :   -0.171604
   2 C :   -0.056311
   3 C :   -0.057101
   4 C :   -0.200794
   5 H :    0.027927
   6 C :   -0.039993
   7 H :    0.032577
   8 H :    0.043333
   9 C :   -0.049818
  10 H :    0.018291
  11 H :    0.025280
  12 C :   -0.061250
  13 H :    0.032777
  14 H :    0.030248
  15 H :    0.016389
  16 S :    0.447553
  17 C :   -0.203213
  18 C :   -0.084504
  19 C :   -0.068842
  20 C :   -0.222017
  21 H :    0.042647
  22 C :   -0.034181
  23 H :    0.050324
  24 H :    0.029996
  25 C :   -0.038032
  26 H :    0.023447
  27 H :    0.023080
  28 C :   -0.060409
  29 H :    0.022938
  30 H :    0.034306
  31 H :    0.018378
  32 H :    0.012016
  33 H :    0.028959

  Mayer bond orders larger than 0.100000
B(  0-S ,  1-C ) :   1.1447 B(  0-S ,  4-C ) :   1.1317 B(  1-C ,  2-C ) :   1.5781
B(  1-C ,  4-C ) :   0.1017 B(  1-C , 32-H ) :   0.9770 B(  2-C ,  3-C ) :   1.2555
B(  2-C ,  6-C ) :   1.0280 B(  3-C ,  4-C ) :   1.5894 B(  3-C ,  5-H ) :   0.9823
B(  4-C , 20-C ) :   1.0291 B(  6-C ,  7-H ) :   0.9529 B(  6-C ,  8-H ) :   0.9290
B(  6-C ,  9-C ) :   1.0460 B(  9-C , 10-H ) :   0.9594 B(  9-C , 11-H ) :   0.9561
B(  9-C , 12-C ) :   1.0752 B( 12-C , 13-H ) :   0.9722 B( 12-C , 14-H ) :   0.9719
B( 12-C , 15-H ) :   0.9764 B( 16-S , 17-C ) :   1.1778 B( 16-S , 20-C ) :   1.1693
B( 17-C , 18-C ) :   1.5570 B( 17-C , 20-C ) :   0.1089 B( 17-C , 33-H ) :   0.9661
B( 18-C , 19-C ) :   1.3195 B( 18-C , 21-H ) :   0.9663 B( 19-C , 20-C ) :   1.5781
B( 19-C , 22-C ) :   1.0200 B( 22-C , 23-H ) :   0.9227 B( 22-C , 24-H ) :   0.9291
B( 22-C , 25-C ) :   1.0821 B( 25-C , 26-H ) :   0.9493 B( 25-C , 27-H ) :   0.9528
B( 25-C , 28-C ) :   1.0836 B( 28-C , 29-H ) :   0.9731 B( 28-C , 30-H ) :   0.9750
B( 28-C , 31-H ) :   0.9747

Dispersion correction           -0.013399796
FINAL SINGLE POINT ENERGY     -1339.858151438463

DIPOLE MOMENT
-------------
                                X             Y             Z
Electronic contribution:     15.97027       2.33163      20.11349
Nuclear contribution   :    -16.42900      -2.58661     -20.52191
                        -----------------------------------------
Total Dipole Moment    :     -0.45872      -0.25498      -0.40842
                        -----------------------------------------
Magnitude (a.u.)       :      0.66502
Magnitude (Debye)      :      1.69035

Rotational constants in cm-1:     0.018047     0.007449     0.006293
Rotational constants in MHz :   541.032432   223.322282   188.650594

                             ****ORCA TERMINATED NORMALLY****
TOTAL RUN TIME: 0 days 0 hours 0 minutes 28 seconds 783 msec
