                         Program Version 4.2.1 -  RELEASE  -
|  1> ! wB97X-D3 SP def2-SVP
|  2> %pal
|  3> nprocs 16
|  4> end
|  5>
|  6> * xyz 0 1
|  7> S 	 57.6323 	 8.65344 	 67.5973
|  8> C 	 58.1114 	 10.303 	 67.9624
|  9> C 	 57.1401 	 11.0443 	 68.5413
| 10> C 	 55.9843 	 10.2166 	 68.84
| 11> C 	 56.0094 	 8.90264 	 68.3938
| 12> H 	 55.0689 	 10.5903 	 69.3059
| 13> C 	 57.1366 	 12.4612 	 68.9487
| 14> H 	 56.0049 	 12.6846 	 69.0077
| 15> H 	 57.5307 	 13.0632 	 68.1354
| 16> C 	 57.9322 	 12.6304 	 70.2871
| 17> H 	 57.404 	 11.982 	 71.0649
| 18> H 	 58.9384 	 12.2509 	 70.098
| 19> C 	 58.039 	 14.1046 	 70.7915
| 20> H 	 58.5773 	 14.6604 	 70.0373
| 21> H 	 57.0234 	 14.4521 	 70.8624
| 22> H 	 58.616 	 14.1075 	 71.6907
| 23> S 	 55.3083 	 6.21098 	 68.5279
| 24> C 	 53.6869 	 5.77201 	 68.8207
| 25> C 	 52.8731 	 6.87794 	 68.9363
| 26> C 	 53.541 	 8.05559 	 68.5626
| 27> C 	 54.9382 	 7.92236 	 68.4549
| 28> H 	 51.8296 	 6.78499 	 69.0817
| 29> C 	 52.7239 	 9.33457 	 68.3135
| 30> H 	 53.0434 	 10.2128 	 68.8795
| 31> H 	 51.6876 	 9.12917 	 68.5321
| 32> C 	 52.8106 	 9.80064 	 66.8479
| 33> H 	 52.6327 	 8.91743 	 66.1384
| 34> H 	 53.7735 	 10.1535 	 66.6435
| 35> C 	 51.7337 	 10.8804 	 66.6301
| 36> H 	 51.721 	 11.8146 	 67.2217
| 37> H 	 50.8028 	 10.3634 	 66.8169
| 38> H 	 51.6218 	 11.2743 	 65.5923
| 39> H 	 59.0272 	 10.7236 	 67.7281
| 40> H 	 53.3047 	 4.79523 	 68.9765
| 41> *
| 42>
| 43>                          ****END OF INPUT****

CARTESIAN COORDINATES (ANGSTROEM)
---------------------------------
  S     57.632300    8.653440   67.597300
  C     58.111400   10.303000   67.962400
  C     57.140100   11.044300   68.541300
  C     55.984300   10.216600   68.840000
  C     56.009400    8.902640   68.393800
  H     55.068900   10.590300   69.305900
  C     57.136600   12.461200   68.948700
  H     56.004900   12.684600   69.007700
  H     57.530700   13.063200   68.135400
  C     57.932200   12.630400   70.287100
  H     57.404000   11.982000   71.064900
  H     58.938400   12.250900   70.098000
  C     58.039000   14.104600   70.791500
  H     58.577300   14.660400   70.037300
  H     57.023400   14.452100   70.862400
  H     58.616000   14.107500   71.690700
  S     55.308300    6.210980   68.527900
  C     53.686900    5.772010   68.820700
  C     52.873100    6.877940   68.936300
  C     53.541000    8.055590   68.562600
  C     54.938200    7.922360   68.454900
  H     51.829600    6.784990   69.081700
  C     52.723900    9.334570   68.313500
  H     53.043400   10.212800   68.879500
  H     51.687600    9.129170   68.532100
  C     52.810600    9.800640   66.847900
  H     52.632700    8.917430   66.138400
  H     53.773500   10.153500   66.643500
  C     51.733700   10.880400   66.630100
  H     51.721000   11.814600   67.221700
  H     50.802800   10.363400   66.816900
  H     51.621800   11.274300   65.592300
  H     59.027200   10.723600   67.728100
  H     53.304700    4.795230   68.976500

 Total Charge           Charge          ....    0
 Multiplicity           Mult            ....    1
 Number of Electrons    NEL             ....  134
 Basis Dimension        Dim             ....  322

ORBITAL ENERGIES
----------------

  NO   OCC          E(Eh)            E(eV)
   0   2.0000     -88.968235     -2420.9488
   1   2.0000     -88.964827     -2420.8560
   2   2.0000     -10.337446      -281.2962
   3   2.0000     -10.330386      -281.1041
   4   2.0000     -10.314568      -280.6737
   5   2.0000     -10.307835      -280.4904
   6   2.0000     -10.305410      -280.4245
   7   2.0000     -10.298625      -280.2398
   8   2.0000     -10.296831      -280.1910
   9   2.0000     -10.296216      -280.1743
  10   2.0000     -10.295239      -280.1477
  11   2.0000     -10.292316      -280.0682
  12   2.0000     -10.289449      -279.9901
  13   2.0000     -10.286001      -279.8963
  14   2.0000     -10.279629      -279.7229
  15   2.0000     -10.277128      -279.6549
  16   2.0000      -8.083620      -219.9665
  17   2.0000      -8.078381      -219.8239
  18   2.0000      -6.042010      -164.4114
  19   2.0000      -6.037905      -164.2998
  20   2.0000      -6.037231      -164.2814
  21   2.0000      -6.034601      -164.2098
  22   2.0000      -6.033134      -164.1699
  23   2.0000      -6.028784      -164.0516
  24   2.0000      -1.007928       -27.4271
  25   2.0000      -0.984410       -26.7872
  26   2.0000      -0.910381       -24.7727
  27   2.0000      -0.909980       -24.7618
  28   2.0000      -0.871768       -23.7220
  29   2.0000      -0.852178       -23.1889
  30   2.0000      -0.845762       -23.0144
  31   2.0000      -0.815223       -22.1833
  32   2.0000      -0.779847       -21.2207
  33   2.0000      -0.771110       -20.9830
  34   2.0000      -0.712516       -19.3886
  35   2.0000      -0.699301       -19.0290
  36   2.0000      -0.693737       -18.8775
  37   2.0000      -0.667474       -18.1629
  38   2.0000      -0.639449       -17.4003
  39   2.0000      -0.621790       -16.9198
  40   2.0000      -0.599131       -16.3032
  41   2.0000      -0.571144       -15.5416
  42   2.0000      -0.569114       -15.4864
  43   2.0000      -0.560181       -15.2433
  44   2.0000      -0.529019       -14.3954
  45   2.0000      -0.519346       -14.1321
  46   2.0000      -0.515959       -14.0399
  47   2.0000      -0.512673       -13.9506
  48   2.0000      -0.507140       -13.8000
  49   2.0000      -0.504649       -13.7322
  50   2.0000      -0.491320       -13.3695
  51   2.0000      -0.483991       -13.1701
  52   2.0000      -0.474294       -12.9062
  53   2.0000      -0.462667       -12.5898
  54   2.0000      -0.459176       -12.4948
  55   2.0000      -0.448344       -12.2001
  56   2.0000      -0.438842       -11.9415
  57   2.0000      -0.436743       -11.8844
  58   2.0000      -0.429982       -11.7004
  59   2.0000      -0.427933       -11.6446
  60   2.0000      -0.423815       -11.5326
  61   2.0000      -0.420714       -11.4482
  62   2.0000      -0.412093       -11.2136
  63   2.0000      -0.359259        -9.7759
  64   2.0000      -0.335197        -9.1212
  65   2.0000      -0.326573        -8.8865
  66   2.0000      -0.283337        -7.7100
  67   0.0000       0.018491         0.5032
  68   0.0000       0.082071         2.2333
  69   0.0000       0.099126         2.6973
  70   0.0000       0.121265         3.2998
  71   0.0000       0.136525         3.7150

MULLIKEN ATOMIC CHARGES
-----------------------
   0 S :    0.090282
   1 C :   -0.083770
   2 C :   -0.081989
   3 C :   -0.012357
   4 C :   -0.103201
   5 H :    0.001736
   6 C :    0.045054
   7 H :    0.034676
   8 H :    0.028530
   9 C :   -0.122065
  10 H :    0.046211
  11 H :    0.030608
  12 C :    0.006696
  13 H :    0.024388
  14 H :    0.031737
  15 H :    0.039793
  16 S :    0.119174
  17 C :   -0.067166
  18 C :   -0.023253
  19 C :   -0.054083
  20 C :   -0.136104
  21 H :    0.007871
  22 C :    0.050460
  23 H :    0.031372
  24 H :    0.006773
  25 C :   -0.059926
  26 H :    0.043458
  27 H :    0.028545
  28 C :   -0.068729
  29 H :    0.034445
  30 H :    0.019300
  31 H :    0.035071
  32 H :    0.011073
  33 H :    0.045391
Sum of atomic charges:    0.0000000

LOEWDIN ATOMIC CHARGES
----------------------
   0 S :    0.361930
   1 C :   -0.177217
   2 C :   -0.066994
   3 C :   -0.064041
   4 C :   -0.168283
   5 H :    0.027108
   6 C :   -0.039400
   7 H :    0.038940
   8 H :    0.028817
   9 C :   -0.036721
  10 H :    0.033020
  11 H :    0.021676
  12 C :   -0.058608
  13 H :    0.023137
  14 H :    0.024525
  15 H :    0.025837
  16 S :    0.433219
  17 C :   -0.187813
  18 C :   -0.070859
  19 C :   -0.050609
  20 C :   -0.205004
  21 H :    0.026970
  22 C :   -0.026599
  23 H :    0.026837
  24 H :    0.023817
  25 C :   -0.032844
  26 H :    0.034987
  27 H :    0.013663
  28 C :   -0.076633
  29 H :    0.026359
  30 H :    0.022004
  31 H :    0.029109
  32 H :    0.013856
  33 H :    0.025815

  Mayer bond orders larger than 0.100000
B(  0-S ,  1-C ) :   1.1190 B(  0-S ,  4-C ) :   1.1068 B(  1-C ,  2-C ) :   1.6464
B(  1-C , 32-H ) :   0.9698 B(  2-C ,  3-C ) :   1.2207 B(  2-C ,  6-C ) :   1.0222
B(  3-C ,  4-C ) :   1.6035 B(  3-C ,  5-H ) :   0.9821 B(  4-C , 20-C ) :   1.0975
B(  6-C ,  7-H ) :   0.9399 B(  6-C ,  8-H ) :   0.9339 B(  6-C ,  9-C ) :   1.0530
B(  9-C , 10-H ) :   0.9567 B(  9-C , 11-H ) :   0.9593 B(  9-C , 12-C ) :   1.0757
B( 12-C , 13-H ) :   0.9744 B( 12-C , 14-H ) :   0.9758 B( 12-C , 15-H ) :   0.9745
B( 16-S , 17-C ) :   1.1868 B( 16-S , 20-C ) :   1.1404 B( 17-C , 18-C ) :   1.5623
B( 17-C , 20-C ) :   0.1026 B( 17-C , 33-H ) :   0.9697 B( 18-C , 19-C ) :   1.3040
B( 18-C , 21-H ) :   0.9923 B( 19-C , 20-C ) :   1.5241 B( 19-C , 22-C ) :   1.0424
B( 22-C , 23-H ) :   0.9358 B( 22-C , 24-H ) :   0.9395 B( 22-C , 25-C ) :   1.0538
B( 25-C , 26-H ) :   0.9547 B( 25-C , 27-H ) :   0.9569 B( 25-C , 28-C ) :   1.0710
B( 28-C , 29-H ) :   0.9755 B( 28-C , 30-H ) :   0.9758 B( 28-C , 31-H ) :   0.9745

Dispersion correction           -0.014054246
FINAL SINGLE POINT ENERGY     -1339.877294610091

DIPOLE MOMENT
-------------
                                X             Y             Z
Electronic contribution:      9.36571     -27.67034      -3.15603
Nuclear contribution   :     -9.78009      28.21391       3.28447
                        -----------------------------------------
Total Dipole Moment    :     -0.41438       0.54358       0.12844
                        -----------------------------------------
Magnitude (a.u.)       :      0.69547
Magnitude (Debye)      :      1.76775

Rotational constants in cm-1:     0.018205     0.008275     0.006588
Rotational constants in MHz :   545.773292   248.079450   197.496304

                             ****ORCA TERMINATED NORMALLY****
TOTAL RUN TIME: 0 days 0 hours 0 minutes 30 seconds 98 msec
