                         Program Version 4.2.1 -  RELEASE  -
|  1> ! wB97X-D3 SP def2-SVP
|  2> %pal
|  3> nprocs 16
|  4> end
|  5>
|  6> * xyz 0 1
|  7> S 	 -14.2623 	 47.569 	 43.2713
|  8> C 	 -15.0136 	 47.7912 	 41.7165
|  9> C 	 -14.9668 	 46.5821 	 41.0663
| 10> C 	 -14.4837 	 45.512 	 41.8889
| 11> C 	 -13.9118 	 45.9573 	 43.0533
| 12> H 	 -14.5613 	 44.4657 	 41.7297
| 13> C 	 -15.5705 	 46.3467 	 39.7425
| 14> H 	 -14.8082 	 46.6218 	 39.0178
| 15> H 	 -16.448 	 46.9445 	 39.6061
| 16> C 	 -16.0114 	 44.912 	 39.3983
| 17> H 	 -15.1966 	 44.1969 	 39.4315
| 18> H 	 -16.6317 	 44.4612 	 40.0898
| 19> C 	 -16.8289 	 44.703 	 38.1362
| 20> H 	 -17.6178 	 43.9187 	 38.0936
| 21> H 	 -17.2086 	 45.6616 	 37.699
| 22> H 	 -16.1125 	 44.5473 	 37.3419
| 23> S 	 -14.3539 	 45.2147 	 45.718
| 24> C 	 -13.345 	 43.9619 	 46.3517
| 25> C 	 -12.5882 	 43.3128 	 45.4479
| 26> C 	 -12.6642 	 43.966 	 44.1762
| 27> C 	 -13.4944 	 45.0858 	 44.1702
| 28> H 	 -12.1062 	 42.4047 	 45.7349
| 29> C 	 -11.7318 	 43.5756 	 43.0298
| 30> H 	 -12.1868 	 43.6328 	 42.0369
| 31> H 	 -11.4375 	 42.4924 	 43.0796
| 32> C 	 -10.5008 	 44.4849 	 42.9593
| 33> H 	 -9.98119 	 44.399 	 43.8558
| 34> H 	 -10.704 	 45.5021 	 42.7737
| 35> C 	 -9.52236 	 44.0396 	 41.817
| 36> H 	 -9.26851 	 42.984 	 41.8127
| 37> H 	 -8.60178 	 44.6513 	 41.8693
| 38> H 	 -9.74988 	 44.2022 	 40.8083
| 39> H 	 -15.4776 	 48.6926 	 41.2633
| 40> H 	 -13.3473 	 43.6853 	 47.4535
| 41> *
| 42>
| 43>                          ****END OF INPUT****

CARTESIAN COORDINATES (ANGSTROEM)
---------------------------------
  S    -14.262300   47.569000   43.271300
  C    -15.013600   47.791200   41.716500
  C    -14.966800   46.582100   41.066300
  C    -14.483700   45.512000   41.888900
  C    -13.911800   45.957300   43.053300
  H    -14.561300   44.465700   41.729700
  C    -15.570500   46.346700   39.742500
  H    -14.808200   46.621800   39.017800
  H    -16.448000   46.944500   39.606100
  C    -16.011400   44.912000   39.398300
  H    -15.196600   44.196900   39.431500
  H    -16.631700   44.461200   40.089800
  C    -16.828900   44.703000   38.136200
  H    -17.617800   43.918700   38.093600
  H    -17.208600   45.661600   37.699000
  H    -16.112500   44.547300   37.341900
  S    -14.353900   45.214700   45.718000
  C    -13.345000   43.961900   46.351700
  C    -12.588200   43.312800   45.447900
  C    -12.664200   43.966000   44.176200
  C    -13.494400   45.085800   44.170200
  H    -12.106200   42.404700   45.734900
  C    -11.731800   43.575600   43.029800
  H    -12.186800   43.632800   42.036900
  H    -11.437500   42.492400   43.079600
  C    -10.500800   44.484900   42.959300
  H     -9.981190   44.399000   43.855800
  H    -10.704000   45.502100   42.773700
  C     -9.522360   44.039600   41.817000
  H     -9.268510   42.984000   41.812700
  H     -8.601780   44.651300   41.869300
  H     -9.749880   44.202200   40.808300
  H    -15.477600   48.692600   41.263300
  H    -13.347300   43.685300   47.453500

 Total Charge           Charge          ....    0
 Multiplicity           Mult            ....    1
 Number of Electrons    NEL             ....  134
 Basis Dimension        Dim             ....  322

ORBITAL ENERGIES
----------------

  NO   OCC          E(Eh)            E(eV)
   0   2.0000     -88.965157     -2420.8650
   1   2.0000     -88.964191     -2420.8387
   2   2.0000     -10.327993      -281.0390
   3   2.0000     -10.321574      -280.8643
   4   2.0000     -10.315996      -280.7125
   5   2.0000     -10.314094      -280.6608
   6   2.0000     -10.305332      -280.4223
   7   2.0000     -10.297980      -280.2223
   8   2.0000     -10.292681      -280.0781
   9   2.0000     -10.289444      -279.9900
  10   2.0000     -10.288994      -279.9778
  11   2.0000     -10.287433      -279.9353
  12   2.0000     -10.281008      -279.7605
  13   2.0000     -10.278597      -279.6948
  14   2.0000     -10.277213      -279.6572
  15   2.0000     -10.270782      -279.4822
  16   2.0000      -8.080579      -219.8837
  17   2.0000      -8.080041      -219.8691
  18   2.0000      -6.038994      -164.3294
  19   2.0000      -6.038491      -164.3157
  20   2.0000      -6.034712      -164.2129
  21   2.0000      -6.034637      -164.2108
  22   2.0000      -6.031521      -164.1260
  23   2.0000      -6.030665      -164.1027
  24   2.0000      -1.016696       -27.6657
  25   2.0000      -0.990915       -26.9642
  26   2.0000      -0.918953       -25.0060
  27   2.0000      -0.905037       -24.6273
  28   2.0000      -0.873947       -23.7813
  29   2.0000      -0.850507       -23.1435
  30   2.0000      -0.846834       -23.0435
  31   2.0000      -0.817918       -22.2567
  32   2.0000      -0.784129       -21.3372
  33   2.0000      -0.771676       -20.9984
  34   2.0000      -0.716469       -19.4961
  35   2.0000      -0.705212       -19.1898
  36   2.0000      -0.688799       -18.7432
  37   2.0000      -0.657914       -17.9028
  38   2.0000      -0.641813       -17.4646
  39   2.0000      -0.622396       -16.9362
  40   2.0000      -0.597891       -16.2695
  41   2.0000      -0.576901       -15.6983
  42   2.0000      -0.570821       -15.5328
  43   2.0000      -0.561034       -15.2665
  44   2.0000      -0.532925       -14.5016
  45   2.0000      -0.520770       -14.1709
  46   2.0000      -0.511615       -13.9217
  47   2.0000      -0.507519       -13.8103
  48   2.0000      -0.502223       -13.6662
  49   2.0000      -0.499671       -13.5967
  50   2.0000      -0.496477       -13.5098
  51   2.0000      -0.478937       -13.0325
  52   2.0000      -0.472335       -12.8529
  53   2.0000      -0.466725       -12.7002
  54   2.0000      -0.461754       -12.5650
  55   2.0000      -0.456614       -12.4251
  56   2.0000      -0.445892       -12.1334
  57   2.0000      -0.437640       -11.9088
  58   2.0000      -0.430779       -11.7221
  59   2.0000      -0.425334       -11.5739
  60   2.0000      -0.422986       -11.5100
  61   2.0000      -0.413810       -11.2603
  62   2.0000      -0.402968       -10.9653
  63   2.0000      -0.346031        -9.4160
  64   2.0000      -0.332079        -9.0363
  65   2.0000      -0.326651        -8.8886
  66   2.0000      -0.295284        -8.0351
  67   0.0000       0.031157         0.8478
  68   0.0000       0.077064         2.0970
  69   0.0000       0.110362         3.0031
  70   0.0000       0.130223         3.5436
  71   0.0000       0.132918         3.6169

MULLIKEN ATOMIC CHARGES
-----------------------
   0 S :    0.107182
   1 C :   -0.136327
   2 C :   -0.095195
   3 C :    0.014763
   4 C :   -0.125782
   5 H :    0.010858
   6 C :    0.108955
   7 H :    0.039959
   8 H :    0.022303
   9 C :   -0.083292
  10 H :    0.021065
  11 H :    0.006728
  12 C :   -0.053039
  13 H :    0.053801
  14 H :    0.019188
  15 H :    0.014882
  16 S :    0.111008
  17 C :   -0.112776
  18 C :   -0.019261
  19 C :   -0.025701
  20 C :   -0.148077
  21 H :    0.014010
  22 C :    0.036653
  23 H :    0.015219
  24 H :    0.025366
  25 C :   -0.001980
  26 H :    0.014038
  27 H :    0.030756
  28 C :   -0.061495
  29 H :    0.021301
  30 H :    0.027460
  31 H :    0.012366
  32 H :    0.061010
  33 H :    0.074054
Sum of atomic charges:   -0.0000000

LOEWDIN ATOMIC CHARGES
----------------------
   0 S :    0.448747
   1 C :   -0.211770
   2 C :   -0.064571
   3 C :   -0.061236
   4 C :   -0.225662
   5 H :    0.026381
   6 C :   -0.027503
   7 H :    0.038510
   8 H :    0.029211
   9 C :   -0.047629
  10 H :    0.021559
  11 H :    0.015747
  12 C :   -0.074239
  13 H :    0.033612
  14 H :    0.029663
  15 H :    0.023743
  16 S :    0.398703
  17 C :   -0.190662
  18 C :   -0.075049
  19 C :   -0.052007
  20 C :   -0.191296
  21 H :    0.033296
  22 C :   -0.036612
  23 H :    0.026296
  24 H :    0.033023
  25 C :   -0.020082
  26 H :    0.017032
  27 H :    0.023988
  28 C :   -0.071252
  29 H :    0.021327
  30 H :    0.030758
  31 H :    0.015301
  32 H :    0.042148
  33 H :    0.040524

  Mayer bond orders larger than 0.100000
B(  0-S ,  1-C ) :   1.1400 B(  0-S ,  4-C ) :   1.1860 B(  1-C ,  2-C ) :   1.5878
B(  1-C , 32-H ) :   0.9733 B(  2-C ,  3-C ) :   1.2654 B(  2-C ,  6-C ) :   1.0243
B(  3-C ,  4-C ) :   1.5302 B(  3-C ,  5-H ) :   0.9952 B(  4-C , 20-C ) :   1.0204
B(  6-C ,  7-H ) :   0.9176 B(  6-C ,  8-H ) :   0.9417 B(  6-C ,  9-C ) :   1.0864
B(  9-C , 10-H ) :   0.9442 B(  9-C , 11-H ) :   0.9575 B(  9-C , 12-C ) :   1.0682
B( 12-C , 13-H ) :   0.9785 B( 12-C , 14-H ) :   0.9700 B( 12-C , 15-H ) :   0.9697
B( 16-S , 17-C ) :   1.1563 B( 16-S , 20-C ) :   1.1324 B( 17-C , 18-C ) :   1.6361
B( 17-C , 33-H ) :   0.9532 B( 18-C , 19-C ) :   1.2185 B( 18-C , 21-H ) :   1.0000
B( 19-C , 20-C ) :   1.6129 B( 19-C , 22-C ) :   1.0535 B( 22-C , 23-H ) :   0.9322
B( 22-C , 24-H ) :   0.9396 B( 22-C , 25-C ) :   1.0705 B( 25-C , 26-H ) :   0.9550
B( 25-C , 27-H ) :   0.9554 B( 25-C , 28-C ) :   1.0753 B( 28-C , 29-H ) :   0.9761
B( 28-C , 30-H ) :   0.9732 B( 28-C , 31-H ) :   0.9761

Dispersion correction           -0.013820399
FINAL SINGLE POINT ENERGY     -1339.855738569639

DIPOLE MOMENT
-------------
                                X             Y             Z
Electronic contribution:     -6.19978      11.55282      25.14695
Nuclear contribution   :      6.20067     -11.95375     -25.60183
                        -----------------------------------------
Total Dipole Moment    :      0.00090      -0.40093      -0.45489
                        -----------------------------------------
Magnitude (a.u.)       :      0.60636
Magnitude (Debye)      :      1.54123

Rotational constants in cm-1:     0.016774     0.008625     0.007173
Rotational constants in MHz :   502.875444   258.580471   215.045940

                             ****ORCA TERMINATED NORMALLY****
TOTAL RUN TIME: 0 days 0 hours 0 minutes 34 seconds 463 msec
