                         Program Version 4.2.1 -  RELEASE  -
|  1> ! wB97X-D3 SP def2-SVP
|  2> %pal
|  3> nprocs 16
|  4> end
|  5>
|  6> * xyz 0 1
|  7> S 	 53.9992 	 3.39154 	 78.1738
|  8> C 	 52.5297 	 2.78452 	 78.9323
|  9> C 	 52.8161 	 2.23646 	 80.1916
| 10> C 	 54.2254 	 2.28218 	 80.4533
| 11> C 	 54.9958 	 2.68338 	 79.3898
| 12> H 	 54.6523 	 1.89844 	 81.3533
| 13> C 	 51.8 	 1.73414 	 81.2091
| 14> H 	 50.8744 	 2.19449 	 80.7755
| 15> H 	 51.9979 	 2.07469 	 82.2232
| 16> C 	 51.6386 	 0.151368 	 81.3468
| 17> H 	 51.5251 	 -0.331062 	 80.4165
| 18> H 	 52.5794 	 -0.264465 	 81.7089
| 19> C 	 50.4075 	 -0.155624 	 82.1944
| 20> H 	 50.4035 	 0.465656 	 83.1082
| 21> H 	 49.5656 	 0.012978 	 81.6066
| 22> H 	 50.4338 	 -1.18587 	 82.5133
| 23> S 	 57.3786 	 4.10713 	 79.9077
| 24> C 	 58.8538 	 3.42652 	 79.5162
| 25> C 	 58.7225 	 2.07893 	 79.263
| 26> C 	 57.3426 	 1.6176 	 79.1522
| 27> C 	 56.5046 	 2.69739 	 79.3202
| 28> H 	 59.5247 	 1.47975 	 79.0698
| 29> C 	 57.0089 	 0.125505 	 78.8584
| 30> H 	 57.6888 	 -0.189545 	 78.079
| 31> H 	 55.9894 	 0.00161212 	 78.5048
| 32> C 	 57.1048 	 -0.838162 	 80.0844
| 33> H 	 56.2344 	 -0.672334 	 80.7393
| 34> H 	 58.0442 	 -0.547479 	 80.7111
| 35> C 	 57.3712 	 -2.28637 	 79.579
| 36> H 	 56.7843 	 -2.50585 	 78.6512
| 37> H 	 56.9636 	 -2.8518 	 80.41
| 38> H 	 58.4292 	 -2.578 	 79.3543
| 39> H 	 51.5131 	 2.90549 	 78.6044
| 40> H 	 59.8443 	 3.89083 	 79.5207
| 41> *
| 42>
| 43>                          ****END OF INPUT****

CARTESIAN COORDINATES (ANGSTROEM)
---------------------------------
  S     53.999200    3.391540   78.173800
  C     52.529700    2.784520   78.932300
  C     52.816100    2.236460   80.191600
  C     54.225400    2.282180   80.453300
  C     54.995800    2.683380   79.389800
  H     54.652300    1.898440   81.353300
  C     51.800000    1.734140   81.209100
  H     50.874400    2.194490   80.775500
  H     51.997900    2.074690   82.223200
  C     51.638600    0.151368   81.346800
  H     51.525100   -0.331062   80.416500
  H     52.579400   -0.264465   81.708900
  C     50.407500   -0.155624   82.194400
  H     50.403500    0.465656   83.108200
  H     49.565600    0.012978   81.606600
  H     50.433800   -1.185870   82.513300
  S     57.378600    4.107130   79.907700
  C     58.853800    3.426520   79.516200
  C     58.722500    2.078930   79.263000
  C     57.342600    1.617600   79.152200
  C     56.504600    2.697390   79.320200
  H     59.524700    1.479750   79.069800
  C     57.008900    0.125505   78.858400
  H     57.688800   -0.189545   78.079000
  H     55.989400    0.001612   78.504800
  C     57.104800   -0.838162   80.084400
  H     56.234400   -0.672334   80.739300
  H     58.044200   -0.547479   80.711100
  C     57.371200   -2.286370   79.579000
  H     56.784300   -2.505850   78.651200
  H     56.963600   -2.851800   80.410000
  H     58.429200   -2.578000   79.354300
  H     51.513100    2.905490   78.604400
  H     59.844300    3.890830   79.520700

 Total Charge           Charge          ....    0
 Multiplicity           Mult            ....    1
 Number of Electrons    NEL             ....  134
 Basis Dimension        Dim             ....  322

ORBITAL ENERGIES
----------------

  NO   OCC          E(Eh)            E(eV)
   0   2.0000     -88.965902     -2420.8853
   1   2.0000     -88.962540     -2420.7938
   2   2.0000     -10.326841      -281.0076
   3   2.0000     -10.325153      -280.9617
   4   2.0000     -10.315006      -280.6856
   5   2.0000     -10.311545      -280.5914
   6   2.0000     -10.305610      -280.4299
   7   2.0000     -10.301270      -280.3118
   8   2.0000     -10.299796      -280.2717
   9   2.0000     -10.298962      -280.2490
  10   2.0000     -10.293954      -280.1127
  11   2.0000     -10.288769      -279.9716
  12   2.0000     -10.287133      -279.9271
  13   2.0000     -10.285877      -279.8929
  14   2.0000     -10.283996      -279.8418
  15   2.0000     -10.274868      -279.5934
  16   2.0000      -8.080633      -219.8852
  17   2.0000      -8.078728      -219.8334
  18   2.0000      -6.039162      -164.3340
  19   2.0000      -6.037198      -164.2805
  20   2.0000      -6.035097      -164.2233
  21   2.0000      -6.033093      -164.1688
  22   2.0000      -6.031411      -164.1230
  23   2.0000      -6.029381      -164.0678
  24   2.0000      -1.006307       -27.3830
  25   2.0000      -0.986768       -26.8513
  26   2.0000      -0.906521       -24.6677
  27   2.0000      -0.902699       -24.5637
  28   2.0000      -0.864913       -23.5355
  29   2.0000      -0.849450       -23.1147
  30   2.0000      -0.845214       -22.9994
  31   2.0000      -0.811871       -22.0921
  32   2.0000      -0.780548       -21.2398
  33   2.0000      -0.770051       -20.9541
  34   2.0000      -0.705838       -19.2068
  35   2.0000      -0.696163       -18.9436
  36   2.0000      -0.687882       -18.7182
  37   2.0000      -0.659656       -17.9502
  38   2.0000      -0.639618       -17.4049
  39   2.0000      -0.618019       -16.8172
  40   2.0000      -0.596696       -16.2369
  41   2.0000      -0.577500       -15.7146
  42   2.0000      -0.561981       -15.2923
  43   2.0000      -0.555900       -15.1268
  44   2.0000      -0.526141       -14.3170
  45   2.0000      -0.519495       -14.1362
  46   2.0000      -0.515161       -14.0183
  47   2.0000      -0.508330       -13.8324
  48   2.0000      -0.507902       -13.8207
  49   2.0000      -0.497706       -13.5433
  50   2.0000      -0.495513       -13.4836
  51   2.0000      -0.478988       -13.0339
  52   2.0000      -0.469932       -12.7875
  53   2.0000      -0.464723       -12.6457
  54   2.0000      -0.455463       -12.3938
  55   2.0000      -0.450441       -12.2571
  56   2.0000      -0.445032       -12.1099
  57   2.0000      -0.442263       -12.0346
  58   2.0000      -0.433504       -11.7962
  59   2.0000      -0.426512       -11.6060
  60   2.0000      -0.422942       -11.5088
  61   2.0000      -0.416000       -11.3199
  62   2.0000      -0.408610       -11.1188
  63   2.0000      -0.331703        -9.0261
  64   2.0000      -0.324116        -8.8196
  65   2.0000      -0.320242        -8.7142
  66   2.0000      -0.313106        -8.5200
  67   0.0000       0.045633         1.2417
  68   0.0000       0.060133         1.6363
  69   0.0000       0.108996         2.9659
  70   0.0000       0.119865         3.2617
  71   0.0000       0.129430         3.5220

MULLIKEN ATOMIC CHARGES
-----------------------
   0 S :    0.120826
   1 C :   -0.110972
   2 C :   -0.101275
   3 C :    0.059924
   4 C :   -0.179864
   5 H :   -0.000322
   6 C :    0.030498
   7 H :    0.023803
   8 H :    0.035998
   9 C :   -0.059900
  10 H :    0.015861
  11 H :    0.020459
  12 C :   -0.016887
  13 H :    0.029857
  14 H :    0.025610
  15 H :    0.031492
  16 S :    0.125457
  17 C :   -0.077140
  18 C :   -0.017656
  19 C :   -0.015279
  20 C :   -0.188366
  21 H :   -0.023736
  22 C :    0.082905
  23 H :    0.026210
  24 H :    0.034586
  25 C :   -0.125842
  26 H :    0.044391
  27 H :    0.043397
  28 C :   -0.067156
  29 H :    0.039647
  30 H :    0.038921
  31 H :    0.053431
  32 H :    0.039272
  33 H :    0.061851
Sum of atomic charges:    0.0000000

LOEWDIN ATOMIC CHARGES
----------------------
   0 S :    0.418569
   1 C :   -0.198530
   2 C :   -0.064927
   3 C :   -0.061660
   4 C :   -0.206172
   5 H :    0.024531
   6 C :   -0.030426
   7 H :    0.033404
   8 H :    0.031205
   9 C :   -0.034199
  10 H :    0.016904
  11 H :    0.019384
  12 C :   -0.055879
  13 H :    0.026964
  14 H :    0.018657
  15 H :    0.026561
  16 S :    0.430084
  17 C :   -0.207903
  18 C :   -0.066820
  19 C :   -0.045055
  20 C :   -0.207556
  21 H :    0.010092
  22 C :   -0.028971
  23 H :    0.028641
  24 H :    0.032284
  25 C :   -0.044881
  26 H :    0.025276
  27 H :    0.032224
  28 C :   -0.073687
  29 H :    0.027477
  30 H :    0.029003
  31 H :    0.032945
  32 H :    0.025161
  33 H :    0.037302

  Mayer bond orders larger than 0.100000
B(  0-S ,  1-C ) :   1.1442 B(  0-S ,  4-C ) :   1.1659 B(  1-C ,  2-C ) :   1.6029
B(  1-C , 32-H ) :   0.9675 B(  2-C ,  3-C ) :   1.2485 B(  2-C ,  6-C ) :   1.0220
B(  3-C ,  4-C ) :   1.5819 B(  3-C ,  5-H ) :   0.9991 B(  4-C , 20-C ) :   0.9791
B(  6-C ,  7-H ) :   0.9456 B(  6-C ,  8-H ) :   0.9445 B(  6-C ,  9-C ) :   1.0513
B(  9-C , 10-H ) :   0.9567 B(  9-C , 11-H ) :   0.9577 B(  9-C , 12-C ) :   1.0807
B( 12-C , 13-H ) :   0.9746 B( 12-C , 14-H ) :   0.9779 B( 12-C , 15-H ) :   0.9725
B( 16-S , 17-C ) :   1.1656 B( 16-S , 20-C ) :   1.1522 B( 17-C , 18-C ) :   1.6053
B( 17-C , 33-H ) :   0.9659 B( 18-C , 19-C ) :   1.2300 B( 18-C , 21-H ) :   1.0019
B( 19-C , 20-C ) :   1.6245 B( 19-C , 22-C ) :   1.0382 B( 22-C , 23-H ) :   0.9443
B( 22-C , 24-H ) :   0.9310 B( 22-C , 25-C ) :   1.0530 B( 25-C , 26-H ) :   0.9608
B( 25-C , 27-H ) :   0.9610 B( 25-C , 28-C ) :   1.0521 B( 28-C , 29-H ) :   0.9754
B( 28-C , 30-H ) :   0.9751 B( 28-C , 31-H ) :   0.9769

Dispersion correction           -0.013846676
FINAL SINGLE POINT ENERGY     -1339.867813953277

DIPOLE MOMENT
-------------
                                X             Y             Z
Electronic contribution:     10.07990      27.37651     -10.68250
Nuclear contribution   :    -10.12644     -28.03177      10.99799
                        -----------------------------------------
Total Dipole Moment    :     -0.04653      -0.65525       0.31549
                        -----------------------------------------
Magnitude (a.u.)       :      0.72874
Magnitude (Debye)      :      1.85230

Rotational constants in cm-1:     0.016555     0.008613     0.006481
Rotational constants in MHz :   496.315194   258.211648   194.286008

                             ****ORCA TERMINATED NORMALLY****
TOTAL RUN TIME: 0 days 0 hours 0 minutes 29 seconds 320 msec
