                         Program Version 4.2.1 -  RELEASE  -
|  1> ! wB97X-D3 SP def2-SVP
|  2> %pal
|  3> nprocs 16
|  4> end
|  5>
|  6> * xyz 0 1
|  7> S 	 69.2422 	 20.694 	 72.6446
|  8> C 	 68.7027 	 19.6582 	 73.9892
|  9> C 	 68.5284 	 20.3282 	 75.1367
| 10> C 	 68.9769 	 21.6981 	 75.1153
| 11> C 	 69.4163 	 22.0259 	 73.7972
| 12> H 	 68.9919 	 22.4713 	 75.9038
| 13> C 	 67.9478 	 19.7197 	 76.385
| 14> H 	 68.2508 	 20.3923 	 77.2187
| 15> H 	 68.4704 	 18.7995 	 76.4901
| 16> C 	 66.4017 	 19.5008 	 76.277
| 17> H 	 65.8922 	 20.4884 	 75.9808
| 18> H 	 66.2666 	 18.7142 	 75.5932
| 19> C 	 65.8064 	 18.7274 	 77.4416
| 20> H 	 65.908 	 17.652 	 77.2527
| 21> H 	 66.2546 	 18.9011 	 78.4215
| 22> H 	 64.6738 	 18.9068 	 77.3978
| 23> S 	 69.0043 	 23.8923 	 71.8519
| 24> C 	 69.8584 	 25.4657 	 72.0639
| 25> C 	 70.5838 	 25.551 	 73.2021
| 26> C 	 70.6577 	 24.3078 	 73.9325
| 27> C 	 69.8465 	 23.3496 	 73.3271
| 28> H 	 71.0762 	 26.4587 	 73.4056
| 29> C 	 71.4459 	 24.191 	 75.1816
| 30> H 	 70.7346 	 24.0336 	 76.0784
| 31> H 	 71.8509 	 25.1547 	 75.4362
| 32> C 	 72.6252 	 23.1325 	 75.1642
| 33> H 	 72.2587 	 22.1521 	 75.2766
| 34> H 	 73.2765 	 23.3665 	 76.0128
| 35> C 	 73.4849 	 23.2264 	 73.951
| 36> H 	 73.7069 	 24.2146 	 73.8322
| 37> H 	 72.8647 	 22.9519 	 73.1291
| 38> H 	 74.3134 	 22.5258 	 74.0088
| 39> H 	 68.4053 	 18.6274 	 73.8076
| 40> H 	 69.7712 	 26.2288 	 71.3293
| 41> *
| 42>
| 43>                          ****END OF INPUT****

CARTESIAN COORDINATES (ANGSTROEM)
---------------------------------
  S     69.242200   20.694000   72.644600
  C     68.702700   19.658200   73.989200
  C     68.528400   20.328200   75.136700
  C     68.976900   21.698100   75.115300
  C     69.416300   22.025900   73.797200
  H     68.991900   22.471300   75.903800
  C     67.947800   19.719700   76.385000
  H     68.250800   20.392300   77.218700
  H     68.470400   18.799500   76.490100
  C     66.401700   19.500800   76.277000
  H     65.892200   20.488400   75.980800
  H     66.266600   18.714200   75.593200
  C     65.806400   18.727400   77.441600
  H     65.908000   17.652000   77.252700
  H     66.254600   18.901100   78.421500
  H     64.673800   18.906800   77.397800
  S     69.004300   23.892300   71.851900
  C     69.858400   25.465700   72.063900
  C     70.583800   25.551000   73.202100
  C     70.657700   24.307800   73.932500
  C     69.846500   23.349600   73.327100
  H     71.076200   26.458700   73.405600
  C     71.445900   24.191000   75.181600
  H     70.734600   24.033600   76.078400
  H     71.850900   25.154700   75.436200
  C     72.625200   23.132500   75.164200
  H     72.258700   22.152100   75.276600
  H     73.276500   23.366500   76.012800
  C     73.484900   23.226400   73.951000
  H     73.706900   24.214600   73.832200
  H     72.864700   22.951900   73.129100
  H     74.313400   22.525800   74.008800
  H     68.405300   18.627400   73.807600
  H     69.771200   26.228800   71.329300

 Total Charge           Charge          ....    0
 Multiplicity           Mult            ....    1
 Number of Electrons    NEL             ....  134
 Basis Dimension        Dim             ....  322

ORBITAL ENERGIES
----------------

  NO   OCC          E(Eh)            E(eV)
   0   2.0000     -88.966694     -2420.9068
   1   2.0000     -88.964844     -2420.8565
   2   2.0000     -10.334010      -281.2027
   3   2.0000     -10.328394      -281.0499
   4   2.0000     -10.315011      -280.6857
   5   2.0000     -10.309427      -280.5338
   6   2.0000     -10.304436      -280.3980
   7   2.0000     -10.301813      -280.3266
   8   2.0000     -10.297333      -280.2047
   9   2.0000     -10.297100      -280.1983
  10   2.0000     -10.291154      -280.0365
  11   2.0000     -10.290470      -280.0179
  12   2.0000     -10.289621      -279.9948
  13   2.0000     -10.284238      -279.8483
  14   2.0000     -10.277192      -279.6566
  15   2.0000     -10.256639      -279.0973
  16   2.0000      -8.080691      -219.8868
  17   2.0000      -8.078622      -219.8305
  18   2.0000      -6.039226      -164.3357
  19   2.0000      -6.037130      -164.2787
  20   2.0000      -6.035458      -164.2332
  21   2.0000      -6.033559      -164.1815
  22   2.0000      -6.031330      -164.1208
  23   2.0000      -6.029139      -164.0612
  24   2.0000      -0.999482       -27.1973
  25   2.0000      -0.977648       -26.6032
  26   2.0000      -0.911652       -24.8073
  27   2.0000      -0.908495       -24.7214
  28   2.0000      -0.869562       -23.6620
  29   2.0000      -0.852380       -23.1944
  30   2.0000      -0.846957       -23.0469
  31   2.0000      -0.813162       -22.1273
  32   2.0000      -0.781444       -21.2642
  33   2.0000      -0.769467       -20.9383
  34   2.0000      -0.708198       -19.2710
  35   2.0000      -0.695303       -18.9202
  36   2.0000      -0.686185       -18.6720
  37   2.0000      -0.665960       -18.1217
  38   2.0000      -0.637646       -17.3512
  39   2.0000      -0.609660       -16.5897
  40   2.0000      -0.592079       -16.1113
  41   2.0000      -0.571839       -15.5605
  42   2.0000      -0.560388       -15.2489
  43   2.0000      -0.555262       -15.1094
  44   2.0000      -0.549747       -14.9594
  45   2.0000      -0.526486       -14.3264
  46   2.0000      -0.520603       -14.1663
  47   2.0000      -0.509962       -13.8768
  48   2.0000      -0.499064       -13.5802
  49   2.0000      -0.495594       -13.4858
  50   2.0000      -0.484767       -13.1912
  51   2.0000      -0.481688       -13.1074
  52   2.0000      -0.475283       -12.9331
  53   2.0000      -0.460197       -12.5226
  54   2.0000      -0.457325       -12.4445
  55   2.0000      -0.447250       -12.1703
  56   2.0000      -0.437442       -11.9034
  57   2.0000      -0.435738       -11.8570
  58   2.0000      -0.430361       -11.7107
  59   2.0000      -0.425259       -11.5719
  60   2.0000      -0.420006       -11.4290
  61   2.0000      -0.415252       -11.2996
  62   2.0000      -0.409979       -11.1561
  63   2.0000      -0.347601        -9.4587
  64   2.0000      -0.331722        -9.0266
  65   2.0000      -0.330249        -8.9865
  66   2.0000      -0.286496        -7.7959
  67   0.0000       0.023566         0.6413
  68   0.0000       0.070391         1.9154
  69   0.0000       0.094339         2.5671
  70   0.0000       0.117658         3.2016
  71   0.0000       0.135543         3.6883

MULLIKEN ATOMIC CHARGES
-----------------------
   0 S :    0.097471
   1 C :   -0.131318
   2 C :   -0.077911
   3 C :    0.023369
   4 C :   -0.161978
   5 H :    0.025669
   6 C :    0.076236
   7 H :    0.024202
   8 H :    0.018412
   9 C :   -0.074557
  10 H :    0.059415
  11 H :    0.016278
  12 C :   -0.064649
  13 H :    0.028494
  14 H :    0.034085
  15 H :    0.048015
  16 S :    0.086348
  17 C :   -0.079434
  18 C :   -0.005146
  19 C :   -0.052254
  20 C :   -0.140724
  21 H :    0.003384
  22 C :    0.042257
  23 H :    0.042933
  24 H :    0.004253
  25 C :   -0.063223
  26 H :    0.028022
  27 H :    0.023103
  28 C :    0.018170
  29 H :   -0.002268
  30 H :    0.029152
  31 H :    0.036117
  32 H :    0.046194
  33 H :    0.041884
Sum of atomic charges:    0.0000000

LOEWDIN ATOMIC CHARGES
----------------------
   0 S :    0.379879
   1 C :   -0.190089
   2 C :   -0.064042
   3 C :   -0.063931
   4 C :   -0.181880
   5 H :    0.037054
   6 C :   -0.029117
   7 H :    0.030039
   8 H :    0.026982
   9 C :   -0.045116
  10 H :    0.037049
  11 H :    0.021973
  12 C :   -0.071583
  13 H :    0.024301
  14 H :    0.019683
  15 H :    0.039723
  16 S :    0.362541
  17 C :   -0.155638
  18 C :   -0.060583
  19 C :   -0.060436
  20 C :   -0.183116
  21 H :    0.026915
  22 C :   -0.037925
  23 H :    0.040445
  24 H :    0.025230
  25 C :   -0.028542
  26 H :    0.016186
  27 H :    0.023193
  28 C :   -0.051325
  29 H :    0.010824
  30 H :    0.025307
  31 H :    0.029536
  32 H :    0.026870
  33 H :    0.019589

  Mayer bond orders larger than 0.100000
B(  0-S ,  1-C ) :   1.1034 B(  0-S ,  4-C ) :   1.1603 B(  1-C ,  2-C ) :   1.6556
B(  1-C , 32-H ) :   0.9666 B(  2-C ,  3-C ) :   1.2154 B(  2-C ,  6-C ) :   1.0121
B(  3-C ,  4-C ) :   1.5647 B(  3-C ,  5-H ) :   0.9868 B(  4-C , 20-C ) :   1.0469
B(  6-C ,  7-H ) :   0.9413 B(  6-C ,  8-H ) :   0.9372 B(  6-C ,  9-C ) :   1.0678
B(  9-C , 10-H ) :   0.9611 B(  9-C , 11-H ) :   0.9589 B(  9-C , 12-C ) :   1.0592
B( 12-C , 13-H ) :   0.9832 B( 12-C , 14-H ) :   0.9748 B( 12-C , 15-H ) :   0.9723
B( 16-S , 17-C ) :   1.1167 B( 16-S , 20-C ) :   1.1292 B( 17-C , 18-C ) :   1.6653
B( 17-C , 33-H ) :   0.9706 B( 18-C , 19-C ) :   1.1904 B( 18-C , 21-H ) :   0.9937
B( 19-C , 20-C ) :   1.6151 B( 19-C , 22-C ) :   1.0520 B( 22-C , 23-H ) :   0.9313
B( 22-C , 24-H ) :   0.9282 B( 22-C , 25-C ) :   1.0584 B( 25-C , 26-H ) :   0.9571
B( 25-C , 27-H ) :   0.9581 B( 25-C , 28-C ) :   1.0910 B( 28-C , 29-H ) :   0.9743
B( 28-C , 30-H ) :   0.9633 B( 28-C , 31-H ) :   0.9703

Dispersion correction           -0.014695450
FINAL SINGLE POINT ENERGY     -1339.861182729986

DIPOLE MOMENT
-------------
                                X             Y             Z
Electronic contribution:     -2.29683       7.09506     -21.24777
Nuclear contribution   :      2.32187      -7.05397      21.80507
                        -----------------------------------------
Total Dipole Moment    :      0.02504       0.04109       0.55730
                        -----------------------------------------
Magnitude (a.u.)       :      0.55938
Magnitude (Debye)      :      1.42182

Rotational constants in cm-1:     0.021887     0.007669     0.006868
Rotational constants in MHz :   656.167954   229.923879   205.887477

                             ****ORCA TERMINATED NORMALLY****
TOTAL RUN TIME: 0 days 0 hours 0 minutes 30 seconds 726 msec
