                         Program Version 4.2.1 -  RELEASE  -
|  1> ! wB97X-D3 SP def2-SVP
|  2> %pal
|  3> nprocs 16
|  4> end
|  5>
|  6> * xyz 0 1
|  7> S 	 -24.0796 	 46.6797 	 61.1513
|  8> C 	 -24.3662 	 48.3821 	 61.4226
|  9> C 	 -24.2928 	 49.099 	 60.2508
| 10> C 	 -23.8039 	 48.3027 	 59.1792
| 11> C 	 -23.4577 	 47.0065 	 59.5402
| 12> H 	 -23.6746 	 48.6206 	 58.1617
| 13> C 	 -24.7318 	 50.5256 	 60.095
| 14> H 	 -23.7957 	 50.9965 	 59.7847
| 15> H 	 -25.0054 	 50.9369 	 61.037
| 16> C 	 -25.8189 	 50.7335 	 59.0214
| 17> H 	 -25.9104 	 51.8306 	 58.8192
| 18> H 	 -25.4838 	 50.3485 	 58.1188
| 19> C 	 -27.1958 	 50.0794 	 59.347
| 20> H 	 -27.6759 	 50.5596 	 60.1924
| 21> H 	 -27.8303 	 50.1702 	 58.5017
| 22> H 	 -27.1324 	 49.0193 	 59.6027
| 23> S 	 -21.8754 	 44.7927 	 59.3526
| 24> C 	 -21.4292 	 44.3341 	 57.7674
| 25> C 	 -22.2072 	 44.7695 	 56.7675
| 26> C 	 -23.154 	 45.7532 	 57.2183
| 27> C 	 -23.0023 	 45.9792 	 58.6473
| 28> H 	 -22.0849 	 44.2766 	 55.8413
| 29> C 	 -24.0805 	 46.4749 	 56.2549
| 30> H 	 -23.6828 	 46.4751 	 55.2958
| 31> H 	 -24.2782 	 47.4607 	 56.4534
| 32> C 	 -25.5051 	 45.8294 	 56.0383
| 33> H 	 -26.0773 	 46.4947 	 55.3466
| 34> H 	 -26.1652 	 45.933 	 56.9284
| 35> C 	 -25.3626 	 44.4027 	 55.4717
| 36> H 	 -24.6919 	 43.6602 	 55.964
| 37> H 	 -25.113 	 44.3755 	 54.4078
| 38> H 	 -26.2974 	 43.8617 	 55.634
| 39> H 	 -24.7722 	 48.6804 	 62.3885
| 40> H 	 -20.6316 	 43.626 	 57.5377
| 41> *
| 42>
| 43>                          ****END OF INPUT****

CARTESIAN COORDINATES (ANGSTROEM)
---------------------------------
  S    -24.079600   46.679700   61.151300
  C    -24.366200   48.382100   61.422600
  C    -24.292800   49.099000   60.250800
  C    -23.803900   48.302700   59.179200
  C    -23.457700   47.006500   59.540200
  H    -23.674600   48.620600   58.161700
  C    -24.731800   50.525600   60.095000
  H    -23.795700   50.996500   59.784700
  H    -25.005400   50.936900   61.037000
  C    -25.818900   50.733500   59.021400
  H    -25.910400   51.830600   58.819200
  H    -25.483800   50.348500   58.118800
  C    -27.195800   50.079400   59.347000
  H    -27.675900   50.559600   60.192400
  H    -27.830300   50.170200   58.501700
  H    -27.132400   49.019300   59.602700
  S    -21.875400   44.792700   59.352600
  C    -21.429200   44.334100   57.767400
  C    -22.207200   44.769500   56.767500
  C    -23.154000   45.753200   57.218300
  C    -23.002300   45.979200   58.647300
  H    -22.084900   44.276600   55.841300
  C    -24.080500   46.474900   56.254900
  H    -23.682800   46.475100   55.295800
  H    -24.278200   47.460700   56.453400
  C    -25.505100   45.829400   56.038300
  H    -26.077300   46.494700   55.346600
  H    -26.165200   45.933000   56.928400
  C    -25.362600   44.402700   55.471700
  H    -24.691900   43.660200   55.964000
  H    -25.113000   44.375500   54.407800
  H    -26.297400   43.861700   55.634000
  H    -24.772200   48.680400   62.388500
  H    -20.631600   43.626000   57.537700

 Total Charge           Charge          ....    0
 Multiplicity           Mult            ....    1
 Number of Electrons    NEL             ....  134
 Basis Dimension        Dim             ....  322

ORBITAL ENERGIES
----------------

  NO   OCC          E(Eh)            E(eV)
   0   2.0000     -88.965772     -2420.8817
   1   2.0000     -88.960887     -2420.7488
   2   2.0000     -10.332039      -281.1491
   3   2.0000     -10.327232      -281.0183
   4   2.0000     -10.315781      -280.7067
   5   2.0000     -10.309967      -280.5485
   6   2.0000     -10.309904      -280.5468
   7   2.0000     -10.297716      -280.2151
   8   2.0000     -10.296053      -280.1699
   9   2.0000     -10.289067      -279.9797
  10   2.0000     -10.288302      -279.9589
  11   2.0000     -10.288009      -279.9510
  12   2.0000     -10.287969      -279.9499
  13   2.0000     -10.284372      -279.8520
  14   2.0000     -10.279765      -279.7266
  15   2.0000     -10.274296      -279.5778
  16   2.0000      -8.081050      -219.8966
  17   2.0000      -8.075939      -219.7575
  18   2.0000      -6.039364      -164.3395
  19   2.0000      -6.035693      -164.2396
  20   2.0000      -6.034439      -164.2054
  21   2.0000      -6.031782      -164.1331
  22   2.0000      -6.030646      -164.1022
  23   2.0000      -6.026467      -163.9885
  24   2.0000      -1.005462       -27.3600
  25   2.0000      -0.984638       -26.7934
  26   2.0000      -0.911903       -24.8141
  27   2.0000      -0.906705       -24.6727
  28   2.0000      -0.870742       -23.6941
  29   2.0000      -0.847877       -23.0719
  30   2.0000      -0.842296       -22.9200
  31   2.0000      -0.814742       -22.1703
  32   2.0000      -0.789121       -21.4731
  33   2.0000      -0.773747       -21.0547
  34   2.0000      -0.716819       -19.5056
  35   2.0000      -0.701841       -19.0981
  36   2.0000      -0.689378       -18.7589
  37   2.0000      -0.658768       -17.9260
  38   2.0000      -0.635898       -17.3037
  39   2.0000      -0.626165       -17.0388
  40   2.0000      -0.598738       -16.2925
  41   2.0000      -0.567385       -15.4393
  42   2.0000      -0.555560       -15.1176
  43   2.0000      -0.550954       -14.9922
  44   2.0000      -0.535284       -14.5658
  45   2.0000      -0.533424       -14.5152
  46   2.0000      -0.523330       -14.2405
  47   2.0000      -0.508992       -13.8504
  48   2.0000      -0.496552       -13.5119
  49   2.0000      -0.490619       -13.3504
  50   2.0000      -0.488501       -13.2928
  51   2.0000      -0.486277       -13.2323
  52   2.0000      -0.477580       -12.9956
  53   2.0000      -0.465207       -12.6589
  54   2.0000      -0.458410       -12.4740
  55   2.0000      -0.450982       -12.2718
  56   2.0000      -0.445392       -12.1197
  57   2.0000      -0.438792       -11.9401
  58   2.0000      -0.434083       -11.8120
  59   2.0000      -0.430225       -11.7070
  60   2.0000      -0.421571       -11.4715
  61   2.0000      -0.416041       -11.3210
  62   2.0000      -0.412937       -11.2366
  63   2.0000      -0.353111        -9.6086
  64   2.0000      -0.331669        -9.0252
  65   2.0000      -0.325049        -8.8450
  66   2.0000      -0.278531        -7.5792
  67   0.0000       0.019290         0.5249
  68   0.0000       0.073919         2.0114
  69   0.0000       0.103233         2.8091
  70   0.0000       0.122655         3.3376
  71   0.0000       0.132067         3.5937

MULLIKEN ATOMIC CHARGES
-----------------------
   0 S :    0.087843
   1 C :   -0.137199
   2 C :   -0.083918
   3 C :   -0.019544
   4 C :   -0.085949
   5 H :    0.003371
   6 C :    0.111055
   7 H :    0.033685
   8 H :    0.006317
   9 C :   -0.063989
  10 H :    0.034303
  11 H :    0.003968
  12 C :   -0.040653
  13 H :    0.026317
  14 H :    0.027436
  15 H :    0.042928
  16 S :    0.113463
  17 C :   -0.081535
  18 C :   -0.030356
  19 C :   -0.020664
  20 C :   -0.175971
  21 H :    0.007883
  22 C :    0.141452
  23 H :   -0.000254
  24 H :   -0.011136
  25 C :   -0.091499
  26 H :    0.029763
  27 H :    0.039606
  28 C :   -0.077666
  29 H :    0.045261
  30 H :    0.035241
  31 H :    0.028474
  32 H :    0.050268
  33 H :    0.051696
Sum of atomic charges:    0.0000000

LOEWDIN ATOMIC CHARGES
----------------------
   0 S :    0.390046
   1 C :   -0.200480
   2 C :   -0.062579
   3 C :   -0.066762
   4 C :   -0.188667
   5 H :    0.024827
   6 C :   -0.024757
   7 H :    0.037064
   8 H :    0.022694
   9 C :   -0.032973
  10 H :    0.030782
  11 H :    0.010042
  12 C :   -0.061205
  13 H :    0.023531
  14 H :    0.021857
  15 H :    0.029614
  16 S :    0.409235
  17 C :   -0.189227
  18 C :   -0.074184
  19 C :   -0.035297
  20 C :   -0.189978
  21 H :    0.029901
  22 C :   -0.023243
  23 H :    0.023793
  24 H :    0.014912
  25 C :   -0.035655
  26 H :    0.028043
  27 H :    0.027284
  28 C :   -0.081475
  29 H :    0.032717
  30 H :    0.025547
  31 H :    0.028911
  32 H :    0.025978
  33 H :    0.029704

  Mayer bond orders larger than 0.100000
B(  0-S ,  1-C ) :   1.1281 B(  0-S ,  4-C ) :   1.1508 B(  1-C ,  2-C ) :   1.5940
B(  1-C , 32-H ) :   0.9716 B(  2-C ,  3-C ) :   1.2368 B(  2-C ,  6-C ) :   1.0193
B(  3-C ,  4-C ) :   1.5603 B(  3-C ,  5-H ) :   1.0029 B(  4-C , 20-C ) :   1.0829
B(  6-C ,  7-H ) :   0.9324 B(  6-C ,  8-H ) :   0.9440 B(  6-C ,  9-C ) :   1.0754
B(  9-C , 10-H ) :   0.9549 B(  9-C , 11-H ) :   0.9552 B(  9-C , 12-C ) :   1.0691
B( 12-C , 13-H ) :   0.9769 B( 12-C , 14-H ) :   0.9750 B( 12-C , 15-H ) :   0.9759
B( 16-S , 17-C ) :   1.1587 B( 16-S , 20-C ) :   1.1320 B( 17-C , 18-C ) :   1.6444
B( 17-C , 33-H ) :   0.9575 B( 18-C , 19-C ) :   1.2177 B( 18-C , 21-H ) :   0.9956
B( 19-C , 20-C ) :   1.5538 B( 19-C , 22-C ) :   1.0471 B( 22-C , 23-H ) :   0.9283
B( 22-C , 24-H ) :   0.9331 B( 22-C , 25-C ) :   1.0687 B( 25-C , 26-H ) :   0.9545
B( 25-C , 27-H ) :   0.9614 B( 25-C , 28-C ) :   1.0658 B( 28-C , 29-H ) :   0.9738
B( 28-C , 30-H ) :   0.9760 B( 28-C , 31-H ) :   0.9717

Dispersion correction           -0.014861717
FINAL SINGLE POINT ENERGY     -1339.864642098925

DIPOLE MOMENT
-------------
                                X             Y             Z
Electronic contribution:     18.13273     -12.14348      16.71904
Nuclear contribution   :    -18.45315      12.41386     -17.35590
                        -----------------------------------------
Total Dipole Moment    :     -0.32042       0.27038      -0.63686
                        -----------------------------------------
Magnitude (a.u.)       :      0.76247
Magnitude (Debye)      :      1.93805

Rotational constants in cm-1:     0.018920     0.009456     0.007122
Rotational constants in MHz :   567.221783   283.472629   213.511155

                             ****ORCA TERMINATED NORMALLY****
TOTAL RUN TIME: 0 days 0 hours 0 minutes 36 seconds 360 msec
