                         Program Version 4.2.1 -  RELEASE  -
|  1> ! wB97X-D3 SP def2-SVP
|  2> %pal
|  3> nprocs 16
|  4> end
|  5>
|  6> * xyz 0 1
|  7> S 	 -75.5876 	 46.4601 	 120.048
|  8> C 	 -75.7546 	 44.7109 	 120.371
|  9> C 	 -75.5178 	 44.3949 	 121.708
| 10> C 	 -75.1492 	 45.5685 	 122.477
| 11> C 	 -75.0705 	 46.7246 	 121.709
| 12> H 	 -74.7722 	 45.5045 	 123.434
| 13> C 	 -75.424 	 42.9658 	 122.247
| 14> H 	 -75.1614 	 42.3184 	 121.352
| 15> H 	 -76.3342 	 42.5417 	 122.62
| 16> C 	 -74.3069 	 42.6727 	 123.288
| 17> H 	 -74.4473 	 43.3987 	 124.08
| 18> H 	 -74.5166 	 41.7751 	 123.867
| 19> C 	 -72.8856 	 42.6947 	 122.717
| 20> H 	 -72.2062 	 42.8367 	 123.545
| 21> H 	 -72.7159 	 41.7169 	 122.221
| 22> H 	 -72.7167 	 43.5495 	 121.985
| 23> S 	 -75.0185 	 48.5202 	 123.746
| 24> C 	 -73.6783 	 49.6774 	 123.836
| 25> C 	 -72.7461 	 49.4648 	 122.837
| 26> C 	 -73.1304 	 48.4091 	 121.976
| 27> C 	 -74.4183 	 47.9198 	 122.248
| 28> H 	 -71.8704 	 50.1502 	 122.763
| 29> C 	 -72.4276 	 47.8977 	 120.809
| 30> H 	 -72.5898 	 46.8077 	 120.787
| 31> H 	 -71.3293 	 48.0443 	 120.978
| 32> C 	 -72.8301 	 48.4814 	 119.462
| 33> H 	 -72.5794 	 49.6222 	 119.433
| 34> H 	 -73.9066 	 48.3886 	 119.323
| 35> C 	 -72.2916 	 47.7216 	 118.305
| 36> H 	 -72.453 	 46.649 	 118.472
| 37> H 	 -71.2062 	 47.9047 	 118.154
| 38> H 	 -72.8149 	 48.0586 	 117.527
| 39> H 	 -76.091 	 44.0056 	 119.601
| 40> H 	 -73.406 	 50.5551 	 124.492
| 41> *
| 42>
| 43>                          ****END OF INPUT****

CARTESIAN COORDINATES (ANGSTROEM)
---------------------------------
  S    -75.587600   46.460100  120.048000
  C    -75.754600   44.710900  120.371000
  C    -75.517800   44.394900  121.708000
  C    -75.149200   45.568500  122.477000
  C    -75.070500   46.724600  121.709000
  H    -74.772200   45.504500  123.434000
  C    -75.424000   42.965800  122.247000
  H    -75.161400   42.318400  121.352000
  H    -76.334200   42.541700  122.620000
  C    -74.306900   42.672700  123.288000
  H    -74.447300   43.398700  124.080000
  H    -74.516600   41.775100  123.867000
  C    -72.885600   42.694700  122.717000
  H    -72.206200   42.836700  123.545000
  H    -72.715900   41.716900  122.221000
  H    -72.716700   43.549500  121.985000
  S    -75.018500   48.520200  123.746000
  C    -73.678300   49.677400  123.836000
  C    -72.746100   49.464800  122.837000
  C    -73.130400   48.409100  121.976000
  C    -74.418300   47.919800  122.248000
  H    -71.870400   50.150200  122.763000
  C    -72.427600   47.897700  120.809000
  H    -72.589800   46.807700  120.787000
  H    -71.329300   48.044300  120.978000
  C    -72.830100   48.481400  119.462000
  H    -72.579400   49.622200  119.433000
  H    -73.906600   48.388600  119.323000
  C    -72.291600   47.721600  118.305000
  H    -72.453000   46.649000  118.472000
  H    -71.206200   47.904700  118.154000
  H    -72.814900   48.058600  117.527000
  H    -76.091000   44.005600  119.601000
  H    -73.406000   50.555100  124.492000

 Total Charge           Charge          ....    0
 Multiplicity           Mult            ....    1
 Number of Electrons    NEL             ....  134
 Basis Dimension        Dim             ....  322

ORBITAL ENERGIES
----------------

  NO   OCC          E(Eh)            E(eV)
   0   2.0000     -88.974254     -2421.1125
   1   2.0000     -88.969668     -2420.9877
   2   2.0000     -10.333798      -281.1969
   3   2.0000     -10.321644      -280.8662
   4   2.0000     -10.321106      -280.8516
   5   2.0000     -10.318931      -280.7924
   6   2.0000     -10.309164      -280.5266
   7   2.0000     -10.297792      -280.2172
   8   2.0000     -10.295969      -280.1676
   9   2.0000     -10.294673      -280.1323
  10   2.0000     -10.293374      -280.0970
  11   2.0000     -10.288006      -279.9509
  12   2.0000     -10.283943      -279.8403
  13   2.0000     -10.283162      -279.8191
  14   2.0000     -10.282808      -279.8094
  15   2.0000     -10.262793      -279.2648
  16   2.0000      -8.087319      -220.0671
  17   2.0000      -8.083764      -219.9704
  18   2.0000      -6.045882      -164.5168
  19   2.0000      -6.042329      -164.4201
  20   2.0000      -6.042067      -164.4130
  21   2.0000      -6.038296      -164.3104
  22   2.0000      -6.038109      -164.3053
  23   2.0000      -6.034561      -164.2088
  24   2.0000      -1.006877       -27.3985
  25   2.0000      -0.980240       -26.6737
  26   2.0000      -0.915022       -24.8990
  27   2.0000      -0.908208       -24.7136
  28   2.0000      -0.870543       -23.6887
  29   2.0000      -0.856698       -23.3119
  30   2.0000      -0.846266       -23.0281
  31   2.0000      -0.815450       -22.1895
  32   2.0000      -0.781936       -21.2776
  33   2.0000      -0.765615       -20.8334
  34   2.0000      -0.708659       -19.2836
  35   2.0000      -0.692356       -18.8400
  36   2.0000      -0.684855       -18.6359
  37   2.0000      -0.660642       -17.9770
  38   2.0000      -0.640578       -17.4310
  39   2.0000      -0.620417       -16.8824
  40   2.0000      -0.592809       -16.1312
  41   2.0000      -0.567234       -15.4352
  42   2.0000      -0.563012       -15.3203
  43   2.0000      -0.553877       -15.0718
  44   2.0000      -0.537077       -14.6146
  45   2.0000      -0.532545       -14.4913
  46   2.0000      -0.515326       -14.0227
  47   2.0000      -0.510917       -13.9028
  48   2.0000      -0.501840       -13.6558
  49   2.0000      -0.496287       -13.5047
  50   2.0000      -0.487233       -13.2583
  51   2.0000      -0.479509       -13.0481
  52   2.0000      -0.468284       -12.7426
  53   2.0000      -0.462237       -12.5781
  54   2.0000      -0.458827       -12.4853
  55   2.0000      -0.452557       -12.3147
  56   2.0000      -0.439863       -11.9693
  57   2.0000      -0.436472       -11.8770
  58   2.0000      -0.433971       -11.8089
  59   2.0000      -0.425932       -11.5902
  60   2.0000      -0.424520       -11.5518
  61   2.0000      -0.412142       -11.2149
  62   2.0000      -0.404489       -11.0067
  63   2.0000      -0.342418        -9.3177
  64   2.0000      -0.337271        -9.1776
  65   2.0000      -0.326914        -8.8958
  66   2.0000      -0.292022        -7.9463
  67   0.0000       0.030320         0.8250
  68   0.0000       0.062318         1.6957
  69   0.0000       0.105124         2.8606
  70   0.0000       0.111497         3.0340
  71   0.0000       0.129376         3.5205

MULLIKEN ATOMIC CHARGES
-----------------------
   0 S :    0.105876
   1 C :   -0.145957
   2 C :   -0.060470
   3 C :    0.062224
   4 C :   -0.162937
   5 H :   -0.010773
   6 C :    0.050142
   7 H :    0.026539
   8 H :    0.036494
   9 C :   -0.096126
  10 H :    0.017601
  11 H :    0.024135
  12 C :   -0.060607
  13 H :    0.036317
  14 H :    0.042919
  15 H :    0.055698
  16 S :    0.120991
  17 C :   -0.105045
  18 C :   -0.057906
  19 C :   -0.012276
  20 C :   -0.164462
  21 H :    0.033656
  22 C :    0.044941
  23 H :    0.031253
  24 H :    0.022661
  25 C :   -0.106114
  26 H :    0.036732
  27 H :    0.018343
  28 C :    0.028674
  29 H :    0.025718
  30 H :    0.029792
  31 H :    0.004145
  32 H :    0.060796
  33 H :    0.067025
Sum of atomic charges:    0.0000000

LOEWDIN ATOMIC CHARGES
----------------------
   0 S :    0.405539
   1 C :   -0.190787
   2 C :   -0.057907
   3 C :   -0.050814
   4 C :   -0.190526
   5 H :    0.014985
   6 C :   -0.033780
   7 H :    0.035207
   8 H :    0.028794
   9 C :   -0.048543
  10 H :    0.016902
  11 H :    0.027048
  12 C :   -0.068695
  13 H :    0.026163
  14 H :    0.030006
  15 H :    0.035701
  16 S :    0.423017
  17 C :   -0.201521
  18 C :   -0.076679
  19 C :   -0.057942
  20 C :   -0.209524
  21 H :    0.040277
  22 C :   -0.046613
  23 H :    0.031747
  24 H :    0.033357
  25 C :   -0.045666
  26 H :    0.031755
  27 H :    0.008146
  28 C :   -0.052637
  29 H :    0.027623
  30 H :    0.026838
  31 H :    0.009536
  32 H :    0.031859
  33 H :    0.047134

  Mayer bond orders larger than 0.100000
B(  0-S ,  1-C ) :   1.1276 B(  0-S ,  4-C ) :   1.1416 B(  1-C ,  2-C ) :   1.6267
B(  1-C , 32-H ) :   0.9645 B(  2-C ,  3-C ) :   1.2378 B(  2-C ,  6-C ) :   1.0081
B(  3-C ,  4-C ) :   1.5828 B(  3-C ,  5-H ) :   0.9925 B(  4-C , 20-C ) :   1.0229
B(  6-C ,  7-H ) :   0.9522 B(  6-C ,  8-H ) :   0.9365 B(  6-C ,  9-C ) :   1.0754
B(  9-C , 10-H ) :   0.9544 B(  9-C , 11-H ) :   0.9511 B(  9-C , 12-C ) :   1.0677
B( 12-C , 13-H ) :   0.9740 B( 12-C , 14-H ) :   0.9742 B( 12-C , 15-H ) :   0.9768
B( 16-S , 17-C ) :   1.1505 B( 16-S , 20-C ) :   1.1426 B( 17-C , 18-C ) :   1.6192
B( 17-C , 33-H ) :   0.9538 B( 18-C , 19-C ) :   1.2589 B( 18-C , 21-H ) :   0.9821
B( 19-C , 20-C ) :   1.5529 B( 19-C , 22-C ) :   1.0676 B( 22-C , 23-H ) :   0.9130
B( 22-C , 24-H ) :   0.9252 B( 22-C , 25-C ) :   1.0799 B( 25-C , 26-H ) :   0.9462
B( 25-C , 27-H ) :   0.9474 B( 25-C , 28-C ) :   1.0855 B( 28-C , 29-H ) :   0.9671
B( 28-C , 30-H ) :   0.9721 B( 28-C , 31-H ) :   0.9696

Dispersion correction           -0.015593028
FINAL SINGLE POINT ENERGY     -1339.864663774985

DIPOLE MOMENT
-------------
                                X             Y             Z
Electronic contribution:    -14.44828      14.02427       6.24405
Nuclear contribution   :     14.86550     -14.42076      -6.20669
                        -----------------------------------------
Total Dipole Moment    :      0.41722      -0.39649       0.03736
                        -----------------------------------------
Magnitude (a.u.)       :      0.57678
Magnitude (Debye)      :      1.46605

Rotational constants in cm-1:     0.016962     0.010173     0.008347
Rotational constants in MHz :   508.520239   304.993853   250.248362

                             ****ORCA TERMINATED NORMALLY****
TOTAL RUN TIME: 0 days 0 hours 0 minutes 34 seconds 517 msec
