                         Program Version 4.2.1 -  RELEASE  -
|  1> ! wB97X-D3 SP def2-SVP
|  2> %pal
|  3> nprocs 16
|  4> end
|  5>
|  6> * xyz 0 1
|  7> S 	 -39.6001 	 57.9685 	 109.316
|  8> C 	 -41.1886 	 57.7051 	 110.127
|  9> C 	 -41.6671 	 56.435 	 109.769
| 10> C 	 -40.9064 	 55.7991 	 108.762
| 11> C 	 -39.7741 	 56.4957 	 108.392
| 12> H 	 -41.2385 	 54.8907 	 108.274
| 13> C 	 -42.953 	 55.8593 	 110.251
| 14> H 	 -43.024 	 56.1173 	 111.304
| 15> H 	 -42.9238 	 54.7858 	 110.179
| 16> C 	 -44.1456 	 56.3629 	 109.516
| 17> H 	 -43.9205 	 56.3503 	 108.464
| 18> H 	 -44.9732 	 55.6864 	 109.587
| 19> C 	 -44.445 	 57.8461 	 109.936
| 20> H 	 -44.3347 	 58.1448 	 110.958
| 21> H 	 -43.9954 	 58.5856 	 109.328
| 22> H 	 -45.5116 	 58.0635 	 109.761
| 23> S 	 -37.8913 	 57.2444 	 106.652
| 24> C 	 -37.0851 	 56.162 	 105.601
| 25> C 	 -37.3836 	 54.8343 	 105.962
| 26> C 	 -38.3449 	 54.7856 	 107.039
| 27> C 	 -38.7768 	 56.0405 	 107.448
| 28> H 	 -36.7132 	 54.0838 	 105.529
| 29> C 	 -38.8966 	 53.5247 	 107.533
| 30> H 	 -39.1547 	 53.6354 	 108.616
| 31> H 	 -38.1673 	 52.7583 	 107.506
| 32> C 	 -40.0666 	 52.9645 	 106.655
| 33> H 	 -39.702 	 52.8595 	 105.659
| 34> H 	 -40.8862 	 53.6732 	 106.498
| 35> C 	 -40.4775 	 51.6189 	 107.266
| 36> H 	 -40.667 	 51.7326 	 108.328
| 37> H 	 -39.6963 	 50.9124 	 107.124
| 38> H 	 -41.3397 	 51.2683 	 106.748
| 39> H 	 -41.6213 	 58.2766 	 110.976
| 40> H 	 -36.386 	 56.4778 	 104.838
| 41> *
| 42>
| 43>                          ****END OF INPUT****

CARTESIAN COORDINATES (ANGSTROEM)
---------------------------------
  S    -39.600100   57.968500  109.316000
  C    -41.188600   57.705100  110.127000
  C    -41.667100   56.435000  109.769000
  C    -40.906400   55.799100  108.762000
  C    -39.774100   56.495700  108.392000
  H    -41.238500   54.890700  108.274000
  C    -42.953000   55.859300  110.251000
  H    -43.024000   56.117300  111.304000
  H    -42.923800   54.785800  110.179000
  C    -44.145600   56.362900  109.516000
  H    -43.920500   56.350300  108.464000
  H    -44.973200   55.686400  109.587000
  C    -44.445000   57.846100  109.936000
  H    -44.334700   58.144800  110.958000
  H    -43.995400   58.585600  109.328000
  H    -45.511600   58.063500  109.761000
  S    -37.891300   57.244400  106.652000
  C    -37.085100   56.162000  105.601000
  C    -37.383600   54.834300  105.962000
  C    -38.344900   54.785600  107.039000
  C    -38.776800   56.040500  107.448000
  H    -36.713200   54.083800  105.529000
  C    -38.896600   53.524700  107.533000
  H    -39.154700   53.635400  108.616000
  H    -38.167300   52.758300  107.506000
  C    -40.066600   52.964500  106.655000
  H    -39.702000   52.859500  105.659000
  H    -40.886200   53.673200  106.498000
  C    -40.477500   51.618900  107.266000
  H    -40.667000   51.732600  108.328000
  H    -39.696300   50.912400  107.124000
  H    -41.339700   51.268300  106.748000
  H    -41.621300   58.276600  110.976000
  H    -36.386000   56.477800  104.838000

 Total Charge           Charge          ....    0
 Multiplicity           Mult            ....    1
 Number of Electrons    NEL             ....  134
 Basis Dimension        Dim             ....  322

ORBITAL ENERGIES
----------------

  NO   OCC          E(Eh)            E(eV)
   0   2.0000     -88.968547     -2420.9572
   1   2.0000     -88.962168     -2420.7837
   2   2.0000     -10.330945      -281.1193
   3   2.0000     -10.320962      -280.8477
   4   2.0000     -10.318698      -280.7861
   5   2.0000     -10.316557      -280.7278
   6   2.0000     -10.301881      -280.3284
   7   2.0000     -10.298382      -280.2332
   8   2.0000     -10.297351      -280.2052
   9   2.0000     -10.289094      -279.9805
  10   2.0000     -10.285998      -279.8962
  11   2.0000     -10.285664      -279.8871
  12   2.0000     -10.283779      -279.8359
  13   2.0000     -10.282593      -279.8036
  14   2.0000     -10.273999      -279.5697
  15   2.0000     -10.272685      -279.5340
  16   2.0000      -8.082190      -219.9276
  17   2.0000      -8.078856      -219.8368
  18   2.0000      -6.040828      -164.3793
  19   2.0000      -6.037087      -164.2775
  20   2.0000      -6.036912      -164.2727
  21   2.0000      -6.032956      -164.1651
  22   2.0000      -6.032815      -164.1612
  23   2.0000      -6.029927      -164.0827
  24   2.0000      -1.013734       -27.5851
  25   2.0000      -0.984274       -26.7835
  26   2.0000      -0.919647       -25.0249
  27   2.0000      -0.915025       -24.8991
  28   2.0000      -0.867156       -23.5965
  29   2.0000      -0.856186       -23.2980
  30   2.0000      -0.842746       -22.9323
  31   2.0000      -0.812232       -22.1020
  32   2.0000      -0.784401       -21.3446
  33   2.0000      -0.772969       -21.0336
  34   2.0000      -0.713171       -19.4064
  35   2.0000      -0.707356       -19.2481
  36   2.0000      -0.698140       -18.9974
  37   2.0000      -0.667500       -18.1636
  38   2.0000      -0.632417       -17.2089
  39   2.0000      -0.624961       -17.0061
  40   2.0000      -0.597691       -16.2640
  41   2.0000      -0.572035       -15.5659
  42   2.0000      -0.566549       -15.4166
  43   2.0000      -0.548119       -14.9151
  44   2.0000      -0.538660       -14.6577
  45   2.0000      -0.530567       -14.4375
  46   2.0000      -0.521765       -14.1979
  47   2.0000      -0.516219       -14.0470
  48   2.0000      -0.506328       -13.7779
  49   2.0000      -0.500313       -13.6142
  50   2.0000      -0.486223       -13.2308
  51   2.0000      -0.485025       -13.1982
  52   2.0000      -0.468018       -12.7354
  53   2.0000      -0.465447       -12.6654
  54   2.0000      -0.458010       -12.4631
  55   2.0000      -0.452909       -12.3243
  56   2.0000      -0.448754       -12.2112
  57   2.0000      -0.441603       -12.0166
  58   2.0000      -0.435726       -11.8567
  59   2.0000      -0.425260       -11.5719
  60   2.0000      -0.422384       -11.4936
  61   2.0000      -0.415228       -11.2989
  62   2.0000      -0.412405       -11.2221
  63   2.0000      -0.355565        -9.6754
  64   2.0000      -0.332612        -9.0508
  65   2.0000      -0.324989        -8.8434
  66   2.0000      -0.282507        -7.6874
  67   0.0000       0.023359         0.6356
  68   0.0000       0.079145         2.1537
  69   0.0000       0.099352         2.7035
  70   0.0000       0.124687         3.3929
  71   0.0000       0.130509         3.5513

MULLIKEN ATOMIC CHARGES
-----------------------
   0 S :    0.106427
   1 C :   -0.125879
   2 C :   -0.112382
   3 C :   -0.009138
   4 C :   -0.077559
   5 H :   -0.005743
   6 C :    0.071732
   7 H :    0.022798
   8 H :    0.011703
   9 C :   -0.017050
  10 H :    0.019395
  11 H :    0.025787
  12 C :   -0.052859
  13 H :    0.020017
  14 H :    0.035073
  15 H :    0.020234
  16 S :    0.106305
  17 C :   -0.104835
  18 C :   -0.043172
  19 C :   -0.042722
  20 C :   -0.132193
  21 H :    0.033353
  22 C :    0.035275
  23 H :    0.037931
  24 H :    0.000213
  25 C :   -0.080890
  26 H :    0.013502
  27 H :    0.029257
  28 C :    0.011417
  29 H :    0.028117
  30 H :    0.024110
  31 H :    0.026991
  32 H :    0.063025
  33 H :    0.061760
Sum of atomic charges:    0.0000000

LOEWDIN ATOMIC CHARGES
----------------------
   0 S :    0.387538
   1 C :   -0.198263
   2 C :   -0.056015
   3 C :   -0.071675
   4 C :   -0.183068
   5 H :    0.030173
   6 C :   -0.033753
   7 H :    0.029122
   8 H :    0.026347
   9 C :   -0.030217
  10 H :    0.027157
  11 H :    0.021460
  12 C :   -0.068501
  13 H :    0.018634
  14 H :    0.023994
  15 H :    0.030207
  16 S :    0.446048
  17 C :   -0.198267
  18 C :   -0.077051
  19 C :   -0.058810
  20 C :   -0.215941
  21 H :    0.037635
  22 C :   -0.036988
  23 H :    0.034700
  24 H :    0.023976
  25 C :   -0.032894
  26 H :    0.020898
  27 H :    0.019143
  28 C :   -0.054238
  29 H :    0.025435
  30 H :    0.022522
  31 H :    0.022891
  32 H :    0.038131
  33 H :    0.029671

  Mayer bond orders larger than 0.100000
B(  0-S ,  1-C ) :   1.1107 B(  0-S ,  4-C ) :   1.1536 B(  1-C ,  2-C ) :   1.6087
B(  1-C ,  4-C ) :   0.1018 B(  1-C , 32-H ) :   0.9578 B(  2-C ,  3-C ) :   1.2576
B(  2-C ,  6-C ) :   1.0412 B(  3-C ,  4-C ) :   1.5428 B(  3-C ,  5-H ) :   0.9952
B(  4-C , 20-C ) :   1.0691 B(  6-C ,  7-H ) :   0.9387 B(  6-C ,  8-H ) :   0.9331
B(  6-C ,  9-C ) :   1.0798 B(  9-C , 10-H ) :   0.9483 B(  9-C , 11-H ) :   0.9608
B(  9-C , 12-C ) :   1.0645 B( 12-C , 13-H ) :   0.9802 B( 12-C , 14-H ) :   0.9732
B( 12-C , 15-H ) :   0.9702 B( 16-S , 17-C ) :   1.1911 B( 16-S , 20-C ) :   1.1534
B( 17-C , 18-C ) :   1.5653 B( 17-C , 33-H ) :   0.9706 B( 18-C , 19-C ) :   1.2542
B( 18-C , 21-H ) :   0.9910 B( 19-C , 20-C ) :   1.5443 B( 19-C , 22-C ) :   1.0812
B( 22-C , 23-H ) :   0.9297 B( 22-C , 24-H ) :   0.9227 B( 22-C , 25-C ) :   1.0502
B( 25-C , 26-H ) :   0.9470 B( 25-C , 27-H ) :   0.9562 B( 25-C , 28-C ) :   1.0758
B( 28-C , 29-H ) :   0.9741 B( 28-C , 30-H ) :   0.9735 B( 28-C , 31-H ) :   0.9718

Dispersion correction           -0.014722439
FINAL SINGLE POINT ENERGY     -1339.879389645645

DIPOLE MOMENT
-------------
                                X             Y             Z
Electronic contribution:     21.35359      17.43706      -3.26647
Nuclear contribution   :    -21.65764     -18.05353       3.18949
                        -----------------------------------------
Total Dipole Moment    :     -0.30405      -0.61647      -0.07699
                        -----------------------------------------
Magnitude (a.u.)       :      0.69167
Magnitude (Debye)      :      1.75809

Rotational constants in cm-1:     0.018869     0.009460     0.006799
Rotational constants in MHz :   565.681967   283.602573   203.829151

                             ****ORCA TERMINATED NORMALLY****
TOTAL RUN TIME: 0 days 0 hours 0 minutes 29 seconds 297 msec
