                         Program Version 4.2.1 -  RELEASE  -
|  1> ! wB97X-D3 SP def2-SVP
|  2> %pal
|  3> nprocs 16
|  4> end
|  5>
|  6> * xyz 0 1
|  7> S 	 -5.60962 	 -12.5701 	 85.3457
|  8> C 	 -4.82307 	 -13.8222 	 86.2955
|  9> C 	 -3.4324 	 -13.8897 	 86.0918
| 10> C 	 -3.07129 	 -13.0626 	 85.0042
| 11> C 	 -4.0833 	 -12.2108 	 84.5856
| 12> H 	 -2.13047 	 -12.9654 	 84.4901
| 13> C 	 -2.48975 	 -14.9256 	 86.7872
| 14> H 	 -2.78087 	 -15.2056 	 87.7634
| 15> H 	 -1.51619 	 -14.403 	 86.9403
| 16> C 	 -2.26761 	 -16.2374 	 85.9757
| 17> H 	 -3.26671 	 -16.5028 	 85.585
| 18> H 	 -1.60279 	 -15.9482 	 85.1613
| 19> C 	 -1.81441 	 -17.3051 	 86.914
| 20> H 	 -1.87369 	 -18.2423 	 86.4008
| 21> H 	 -0.93213 	 -17.0246 	 87.3969
| 22> H 	 -2.50291 	 -17.4085 	 87.7726
| 23> S 	 -3.03198 	 -9.86987 	 83.9551
| 24> C 	 -3.47751 	 -8.99875 	 82.4449
| 25> C 	 -4.31923 	 -9.77582 	 81.6793
| 26> C 	 -4.65018 	 -11.0054 	 82.384
| 27> C 	 -3.97993 	 -11.177 	 83.5704
| 28> H 	 -4.66101 	 -9.46742 	 80.7357
| 29> C 	 -5.5582 	 -12.048 	 81.7398
| 30> H 	 -5.72848 	 -12.8405 	 82.4771
| 31> H 	 -5.07207 	 -12.3758 	 80.8461
| 32> C 	 -6.99494 	 -11.5778 	 81.3668
| 33> H 	 -7.06079 	 -10.7154 	 80.6353
| 34> H 	 -7.55662 	 -11.1135 	 82.1366
| 35> C 	 -7.77931 	 -12.6185 	 80.5445
| 36> H 	 -7.37837 	 -12.6893 	 79.5591
| 37> H 	 -8.84345 	 -12.3665 	 80.5218
| 38> H 	 -7.69783 	 -13.6495 	 80.9931
| 39> H 	 -5.44525 	 -14.4331 	 86.9139
| 40> H 	 -3.39169 	 -7.94348 	 82.2099
| 41> *
| 42>
| 43>                          ****END OF INPUT****

CARTESIAN COORDINATES (ANGSTROEM)
---------------------------------
  S     -5.609620  -12.570100   85.345700
  C     -4.823070  -13.822200   86.295500
  C     -3.432400  -13.889700   86.091800
  C     -3.071290  -13.062600   85.004200
  C     -4.083300  -12.210800   84.585600
  H     -2.130470  -12.965400   84.490100
  C     -2.489750  -14.925600   86.787200
  H     -2.780870  -15.205600   87.763400
  H     -1.516190  -14.403000   86.940300
  C     -2.267610  -16.237400   85.975700
  H     -3.266710  -16.502800   85.585000
  H     -1.602790  -15.948200   85.161300
  C     -1.814410  -17.305100   86.914000
  H     -1.873690  -18.242300   86.400800
  H     -0.932130  -17.024600   87.396900
  H     -2.502910  -17.408500   87.772600
  S     -3.031980   -9.869870   83.955100
  C     -3.477510   -8.998750   82.444900
  C     -4.319230   -9.775820   81.679300
  C     -4.650180  -11.005400   82.384000
  C     -3.979930  -11.177000   83.570400
  H     -4.661010   -9.467420   80.735700
  C     -5.558200  -12.048000   81.739800
  H     -5.728480  -12.840500   82.477100
  H     -5.072070  -12.375800   80.846100
  C     -6.994940  -11.577800   81.366800
  H     -7.060790  -10.715400   80.635300
  H     -7.556620  -11.113500   82.136600
  C     -7.779310  -12.618500   80.544500
  H     -7.378370  -12.689300   79.559100
  H     -8.843450  -12.366500   80.521800
  H     -7.697830  -13.649500   80.993100
  H     -5.445250  -14.433100   86.913900
  H     -3.391690   -7.943480   82.209900

 Total Charge           Charge          ....    0
 Multiplicity           Mult            ....    1
 Number of Electrons    NEL             ....  134
 Basis Dimension        Dim             ....  322

ORBITAL ENERGIES
----------------

  NO   OCC          E(Eh)            E(eV)
   0   2.0000     -88.968858     -2420.9657
   1   2.0000     -88.963581     -2420.8221
   2   2.0000     -10.326439      -280.9967
   3   2.0000     -10.317336      -280.7490
   4   2.0000     -10.316391      -280.7233
   5   2.0000     -10.316137      -280.7164
   6   2.0000     -10.308638      -280.5123
   7   2.0000     -10.299422      -280.2615
   8   2.0000     -10.294160      -280.1183
   9   2.0000     -10.293703      -280.1059
  10   2.0000     -10.293087      -280.0891
  11   2.0000     -10.288840      -279.9736
  12   2.0000     -10.285593      -279.8852
  13   2.0000     -10.284239      -279.8484
  14   2.0000     -10.277203      -279.6569
  15   2.0000     -10.273131      -279.5461
  16   2.0000      -8.083290      -219.9575
  17   2.0000      -8.079296      -219.8488
  18   2.0000      -6.041582      -164.3998
  19   2.0000      -6.037847      -164.2982
  20   2.0000      -6.037835      -164.2978
  21   2.0000      -6.034321      -164.2022
  22   2.0000      -6.033542      -164.1810
  23   2.0000      -6.030031      -164.0855
  24   2.0000      -1.011838       -27.5335
  25   2.0000      -0.983969       -26.7752
  26   2.0000      -0.913486       -24.8572
  27   2.0000      -0.902115       -24.5478
  28   2.0000      -0.873806       -23.7775
  29   2.0000      -0.854670       -23.2568
  30   2.0000      -0.843944       -22.9649
  31   2.0000      -0.816624       -22.2215
  32   2.0000      -0.781024       -21.2528
  33   2.0000      -0.764332       -20.7985
  34   2.0000      -0.703082       -19.1318
  35   2.0000      -0.698397       -19.0044
  36   2.0000      -0.692124       -18.8337
  37   2.0000      -0.668692       -18.1960
  38   2.0000      -0.648227       -17.6392
  39   2.0000      -0.618819       -16.8389
  40   2.0000      -0.590803       -16.0766
  41   2.0000      -0.574423       -15.6308
  42   2.0000      -0.563625       -15.3370
  43   2.0000      -0.559574       -15.2268
  44   2.0000      -0.536050       -14.5867
  45   2.0000      -0.525859       -14.3093
  46   2.0000      -0.522139       -14.2081
  47   2.0000      -0.509408       -13.8617
  48   2.0000      -0.506741       -13.7891
  49   2.0000      -0.496877       -13.5207
  50   2.0000      -0.491794       -13.3824
  51   2.0000      -0.475224       -12.9315
  52   2.0000      -0.471460       -12.8291
  53   2.0000      -0.461533       -12.5589
  54   2.0000      -0.456987       -12.4352
  55   2.0000      -0.449265       -12.2251
  56   2.0000      -0.443754       -12.0752
  57   2.0000      -0.439385       -11.9563
  58   2.0000      -0.439031       -11.9466
  59   2.0000      -0.430792       -11.7224
  60   2.0000      -0.418543       -11.3891
  61   2.0000      -0.413610       -11.2549
  62   2.0000      -0.400781       -10.9058
  63   2.0000      -0.343932        -9.3589
  64   2.0000      -0.336753        -9.1635
  65   2.0000      -0.320830        -8.7302
  66   2.0000      -0.296304        -8.0628
  67   0.0000       0.038451         1.0463
  68   0.0000       0.065153         1.7729
  69   0.0000       0.107319         2.9203
  70   0.0000       0.118571         3.2265
  71   0.0000       0.129097         3.5129

MULLIKEN ATOMIC CHARGES
-----------------------
   0 S :    0.123454
   1 C :   -0.134954
   2 C :   -0.044852
   3 C :    0.027074
   4 C :   -0.179805
   5 H :    0.011851
   6 C :    0.046148
   7 H :    0.002337
   8 H :    0.032341
   9 C :   -0.072304
  10 H :    0.031229
  11 H :    0.037589
  12 C :   -0.003742
  13 H :    0.037292
  14 H :    0.018382
  15 H :    0.020068
  16 S :    0.117198
  17 C :   -0.098286
  18 C :   -0.009373
  19 C :   -0.050159
  20 C :   -0.151474
  21 H :    0.004346
  22 C :    0.101311
  23 H :    0.028389
  24 H :    0.027656
  25 C :   -0.106159
  26 H :    0.016767
  27 H :    0.018968
  28 C :   -0.052696
  29 H :    0.029518
  30 H :    0.038758
  31 H :    0.029068
  32 H :    0.043064
  33 H :    0.060996
Sum of atomic charges:    0.0000000

LOEWDIN ATOMIC CHARGES
----------------------
   0 S :    0.416109
   1 C :   -0.188690
   2 C :   -0.056688
   3 C :   -0.061984
   4 C :   -0.198037
   5 H :    0.031944
   6 C :   -0.027484
   7 H :    0.017647
   8 H :    0.033071
   9 C :   -0.037483
  10 H :    0.026373
  11 H :    0.025277
  12 C :   -0.059575
  13 H :    0.027604
  14 H :    0.018672
  15 H :    0.028643
  16 S :    0.432274
  17 C :   -0.180175
  18 C :   -0.053701
  19 C :   -0.062218
  20 C :   -0.236587
  21 H :    0.024097
  22 C :   -0.026734
  23 H :    0.026042
  24 H :    0.030467
  25 C :   -0.049382
  26 H :    0.024523
  27 H :    0.017018
  28 C :   -0.065744
  29 H :    0.019436
  30 H :    0.029067
  31 H :    0.024995
  32 H :    0.017956
  33 H :    0.033268

  Mayer bond orders larger than 0.100000
B(  0-S ,  1-C ) :   1.1554 B(  0-S ,  4-C ) :   1.1532 B(  1-C ,  2-C ) :   1.5772
B(  1-C ,  4-C ) :   0.1070 B(  1-C , 32-H ) :   0.9759 B(  2-C ,  3-C ) :   1.2337
B(  2-C ,  6-C ) :   1.0289 B(  3-C ,  4-C ) :   1.5854 B(  3-C ,  5-H ) :   0.9926
B(  4-C , 20-C ) :   1.0057 B(  6-C ,  7-H ) :   0.9490 B(  6-C ,  8-H ) :   0.9377
B(  6-C ,  9-C ) :   1.0484 B(  9-C , 10-H ) :   0.9591 B(  9-C , 11-H ) :   0.9549
B(  9-C , 12-C ) :   1.0902 B( 12-C , 13-H ) :   0.9710 B( 12-C , 14-H ) :   0.9710
B( 12-C , 15-H ) :   0.9702 B( 16-S , 17-C ) :   1.1412 B( 16-S , 20-C ) :   1.1604
B( 17-C , 18-C ) :   1.6234 B( 17-C , 33-H ) :   0.9649 B( 18-C , 19-C ) :   1.2227
B( 18-C , 21-H ) :   0.9981 B( 19-C , 20-C ) :   1.5992 B( 19-C , 22-C ) :   1.0514
B( 22-C , 23-H ) :   0.9283 B( 22-C , 24-H ) :   0.9377 B( 22-C , 25-C ) :   1.0485
B( 25-C , 26-H ) :   0.9553 B( 25-C , 27-H ) :   0.9606 B( 25-C , 28-C ) :   1.0733
B( 28-C , 29-H ) :   0.9781 B( 28-C , 30-H ) :   0.9740 B( 28-C , 31-H ) :   0.9753

Dispersion correction           -0.013727433
FINAL SINGLE POINT ENERGY     -1339.866669149544

DIPOLE MOMENT
-------------
                                X             Y             Z
Electronic contribution:      2.82062      19.96413       5.19861
Nuclear contribution   :     -2.86359     -20.30525      -5.35544
                        -----------------------------------------
Total Dipole Moment    :     -0.04298      -0.34111      -0.15683
                        -----------------------------------------
Magnitude (a.u.)       :      0.37789
Magnitude (Debye)      :      0.96052

Rotational constants in cm-1:     0.020151     0.007435     0.006224
Rotational constants in MHz :   604.112238   222.882848   186.599302

                             ****ORCA TERMINATED NORMALLY****
TOTAL RUN TIME: 0 days 0 hours 0 minutes 31 seconds 644 msec
