                         Program Version 4.2.1 -  RELEASE  -
|  1> ! wB97X-D3 SP def2-SVP
|  2> %pal
|  3> nprocs 16
|  4> end
|  5>
|  6> * xyz 0 1
|  7> S 	 63.9358 	 22.324 	 74.6078
|  8> C 	 64.9764 	 21.7636 	 73.3212
|  9> C 	 65.9415 	 20.8696 	 73.7085
| 10> C 	 66.0562 	 20.892 	 75.1199
| 11> C 	 65.0068 	 21.5214 	 75.7453
| 12> H 	 66.8928 	 20.5239 	 75.6515
| 13> C 	 66.989 	 20.1401 	 72.8534
| 14> H 	 66.4617 	 20.02 	 71.9646
| 15> H 	 67.2641 	 19.2334 	 73.2962
| 16> C 	 68.2396 	 20.9687 	 72.6256
| 17> H 	 67.8886 	 21.8412 	 72.0626
| 18> H 	 68.6242 	 21.3108 	 73.5708
| 19> C 	 69.3801 	 20.186 	 71.9435
| 20> H 	 69.8179 	 19.35 	 72.4525
| 21> H 	 69.1306 	 19.8668 	 70.9421
| 22> H 	 70.207 	 20.8336 	 71.7601
| 23> S 	 64.5085 	 23.0265 	 77.9143
| 24> C 	 64.0675 	 22.2857 	 79.4409
| 25> C 	 64.0122 	 20.9023 	 79.3757
| 26> C 	 64.4457 	 20.4275 	 78.0783
| 27> C 	 64.6945 	 21.4977 	 77.1779
| 28> H 	 63.7547 	 20.2931 	 80.215
| 29> C 	 64.5013 	 18.8803 	 77.8286
| 30> H 	 65.2238 	 18.434 	 78.5251
| 31> H 	 64.732 	 18.7807 	 76.7809
| 32> C 	 63.1548 	 18.1306 	 78.1195
| 33> H 	 62.9099 	 18.0187 	 79.1707
| 34> H 	 63.2304 	 17.1232 	 77.7322
| 35> C 	 62.0639 	 18.6892 	 77.2665
| 36> H 	 61.7732 	 19.6139 	 77.6717
| 37> H 	 61.1456 	 18.1287 	 77.3042
| 38> H 	 62.4059 	 18.7782 	 76.2399
| 39> H 	 64.7409 	 22.0709 	 72.3143
| 40> H 	 63.8763 	 22.7507 	 80.3254
| 41> *
| 42>
| 43>                          ****END OF INPUT****

CARTESIAN COORDINATES (ANGSTROEM)
---------------------------------
  S     63.935800   22.324000   74.607800
  C     64.976400   21.763600   73.321200
  C     65.941500   20.869600   73.708500
  C     66.056200   20.892000   75.119900
  C     65.006800   21.521400   75.745300
  H     66.892800   20.523900   75.651500
  C     66.989000   20.140100   72.853400
  H     66.461700   20.020000   71.964600
  H     67.264100   19.233400   73.296200
  C     68.239600   20.968700   72.625600
  H     67.888600   21.841200   72.062600
  H     68.624200   21.310800   73.570800
  C     69.380100   20.186000   71.943500
  H     69.817900   19.350000   72.452500
  H     69.130600   19.866800   70.942100
  H     70.207000   20.833600   71.760100
  S     64.508500   23.026500   77.914300
  C     64.067500   22.285700   79.440900
  C     64.012200   20.902300   79.375700
  C     64.445700   20.427500   78.078300
  C     64.694500   21.497700   77.177900
  H     63.754700   20.293100   80.215000
  C     64.501300   18.880300   77.828600
  H     65.223800   18.434000   78.525100
  H     64.732000   18.780700   76.780900
  C     63.154800   18.130600   78.119500
  H     62.909900   18.018700   79.170700
  H     63.230400   17.123200   77.732200
  C     62.063900   18.689200   77.266500
  H     61.773200   19.613900   77.671700
  H     61.145600   18.128700   77.304200
  H     62.405900   18.778200   76.239900
  H     64.740900   22.070900   72.314300
  H     63.876300   22.750700   80.325400

 Total Charge           Charge          ....    0
 Multiplicity           Mult            ....    1
 Number of Electrons    NEL             ....  134
 Basis Dimension        Dim             ....  322

ORBITAL ENERGIES
----------------

  NO   OCC          E(Eh)            E(eV)
   0   2.0000     -88.966102     -2420.8907
   1   2.0000     -88.965802     -2420.8825
   2   2.0000     -10.325192      -280.9628
   3   2.0000     -10.324132      -280.9339
   4   2.0000     -10.311839      -280.5994
   5   2.0000     -10.309472      -280.5350
   6   2.0000     -10.307835      -280.4904
   7   2.0000     -10.298030      -280.2236
   8   2.0000     -10.294078      -280.1161
   9   2.0000     -10.292264      -280.0667
  10   2.0000     -10.286725      -279.9160
  11   2.0000     -10.286715      -279.9158
  12   2.0000     -10.282799      -279.8092
  13   2.0000     -10.279946      -279.7315
  14   2.0000     -10.274181      -279.5747
  15   2.0000     -10.259776      -279.1827
  16   2.0000      -8.081351      -219.9047
  17   2.0000      -8.080716      -219.8875
  18   2.0000      -6.039791      -164.3511
  19   2.0000      -6.039156      -164.3338
  20   2.0000      -6.035721      -164.2403
  21   2.0000      -6.035340      -164.2300
  22   2.0000      -6.032233      -164.1454
  23   2.0000      -6.031408      -164.1230
  24   2.0000      -1.006615       -27.3914
  25   2.0000      -0.983659       -26.7667
  26   2.0000      -0.915618       -24.9152
  27   2.0000      -0.906684       -24.6721
  28   2.0000      -0.868002       -23.6195
  29   2.0000      -0.851036       -23.1579
  30   2.0000      -0.844576       -22.9821
  31   2.0000      -0.814491       -22.1634
  32   2.0000      -0.786129       -21.3917
  33   2.0000      -0.770381       -20.9631
  34   2.0000      -0.707336       -19.2476
  35   2.0000      -0.700830       -19.0706
  36   2.0000      -0.692180       -18.8352
  37   2.0000      -0.660145       -17.9635
  38   2.0000      -0.645137       -17.5551
  39   2.0000      -0.623822       -16.9751
  40   2.0000      -0.591034       -16.0829
  41   2.0000      -0.579924       -15.7805
  42   2.0000      -0.560041       -15.2395
  43   2.0000      -0.557647       -15.1744
  44   2.0000      -0.540314       -14.7027
  45   2.0000      -0.524245       -14.2654
  46   2.0000      -0.516157       -14.0453
  47   2.0000      -0.514324       -13.9955
  48   2.0000      -0.505909       -13.7665
  49   2.0000      -0.496520       -13.5110
  50   2.0000      -0.490903       -13.3582
  51   2.0000      -0.475602       -12.9418
  52   2.0000      -0.472751       -12.8642
  53   2.0000      -0.459715       -12.5095
  54   2.0000      -0.455262       -12.3883
  55   2.0000      -0.452869       -12.3232
  56   2.0000      -0.443483       -12.0678
  57   2.0000      -0.440920       -11.9980
  58   2.0000      -0.435706       -11.8562
  59   2.0000      -0.433294       -11.7905
  60   2.0000      -0.423370       -11.5205
  61   2.0000      -0.418456       -11.3868
  62   2.0000      -0.405191       -11.0258
  63   2.0000      -0.341251        -9.2859
  64   2.0000      -0.331902        -9.0315
  65   2.0000      -0.326494        -8.8843
  66   2.0000      -0.292610        -7.9623
  67   0.0000       0.035912         0.9772
  68   0.0000       0.071254         1.9389
  69   0.0000       0.112064         3.0494
  70   0.0000       0.120334         3.2744
  71   0.0000       0.128418         3.4944

MULLIKEN ATOMIC CHARGES
-----------------------
   0 S :    0.115896
   1 C :   -0.136707
   2 C :   -0.101409
   3 C :    0.036897
   4 C :   -0.146187
   5 H :    0.003813
   6 C :    0.146275
   7 H :    0.006257
   8 H :    0.005801
   9 C :   -0.070762
  10 H :    0.026842
  11 H :    0.021637
  12 C :   -0.017030
  13 H :    0.029670
  14 H :    0.017948
  15 H :    0.020727
  16 S :    0.119612
  17 C :   -0.044036
  18 C :   -0.036557
  19 C :   -0.049007
  20 C :   -0.188072
  21 H :    0.014301
  22 C :    0.093138
  23 H :    0.040618
  24 H :    0.021122
  25 C :   -0.093506
  26 H :    0.027006
  27 H :    0.024430
  28 C :   -0.014676
  29 H :    0.018967
  30 H :    0.020778
  31 H :    0.031743
  32 H :    0.040884
  33 H :    0.013585
Sum of atomic charges:   -0.0000000

LOEWDIN ATOMIC CHARGES
----------------------
   0 S :    0.400761
   1 C :   -0.192765
   2 C :   -0.058143
   3 C :   -0.056596
   4 C :   -0.196068
   5 H :    0.026774
   6 C :   -0.015699
   7 H :    0.022813
   8 H :    0.021771
   9 C :   -0.031484
  10 H :    0.028177
  11 H :    0.021163
  12 C :   -0.065869
  13 H :    0.024151
  14 H :    0.022745
  15 H :    0.025500
  16 S :    0.428521
  17 C :   -0.171146
  18 C :   -0.064030
  19 C :   -0.050373
  20 C :   -0.223618
  21 H :    0.028694
  22 C :   -0.022644
  23 H :    0.034326
  24 H :    0.026088
  25 C :   -0.043667
  26 H :    0.018934
  27 H :    0.025227
  28 C :   -0.059277
  29 H :    0.017638
  30 H :    0.022326
  31 H :    0.028286
  32 H :    0.019533
  33 H :    0.007951

  Mayer bond orders larger than 0.100000
B(  0-S ,  1-C ) :   1.1397 B(  0-S ,  4-C ) :   1.1471 B(  1-C ,  2-C ) :   1.6202
B(  1-C , 32-H ) :   0.9692 B(  2-C ,  3-C ) :   1.2190 B(  2-C ,  6-C ) :   1.0294
B(  3-C ,  4-C ) :   1.5983 B(  3-C ,  5-H ) :   1.0017 B(  4-C , 20-C ) :   1.0151
B(  6-C ,  7-H ) :   0.9296 B(  6-C ,  8-H ) :   0.9349 B(  6-C ,  9-C ) :   1.0727
B(  9-C , 10-H ) :   0.9531 B(  9-C , 11-H ) :   0.9582 B(  9-C , 12-C ) :   1.0838
B( 12-C , 13-H ) :   0.9743 B( 12-C , 14-H ) :   0.9726 B( 12-C , 15-H ) :   0.9708
B( 16-S , 17-C ) :   1.1533 B( 16-S , 20-C ) :   1.1647 B( 17-C , 18-C ) :   1.6093
B( 17-C , 33-H ) :   0.9780 B( 18-C , 19-C ) :   1.2417 B( 18-C , 21-H ) :   0.9913
B( 19-C , 20-C ) :   1.5765 B( 19-C , 22-C ) :   1.0324 B( 22-C , 23-H ) :   0.9378
B( 22-C , 24-H ) :   0.9348 B( 22-C , 25-C ) :   1.0792 B( 25-C , 26-H ) :   0.9534
B( 25-C , 27-H ) :   0.9556 B( 25-C , 28-C ) :   1.0799 B( 28-C , 29-H ) :   0.9691
B( 28-C , 30-H ) :   0.9715 B( 28-C , 31-H ) :   0.9734

Dispersion correction           -0.014445378
FINAL SINGLE POINT ENERGY     -1339.871104125892

DIPOLE MOMENT
-------------
                                X             Y             Z
Electronic contribution:     -9.03432      19.58564       8.68713
Nuclear contribution   :      9.32155     -20.09409      -8.73575
                        -----------------------------------------
Total Dipole Moment    :      0.28723      -0.50845      -0.04861
                        -----------------------------------------
Magnitude (a.u.)       :      0.58599
Magnitude (Debye)      :      1.48947

Rotational constants in cm-1:     0.020871     0.007594     0.006851
Rotational constants in MHz :   625.684360   227.669778   205.382717

                             ****ORCA TERMINATED NORMALLY****
TOTAL RUN TIME: 0 days 0 hours 0 minutes 29 seconds 732 msec
