                         Program Version 4.2.1 -  RELEASE  -
|  1> ! wB97X-D3 SP def2-SVP
|  2> %pal
|  3> nprocs 16
|  4> end
|  5>
|  6> * xyz 0 1
|  7> S 	 28.9261 	 -8.68323 	 80.0502
|  8> C 	 28.8276 	 -7.04956 	 79.5024
|  9> C 	 28.1714 	 -6.28329 	 80.4931
| 10> C 	 27.6961 	 -7.02436 	 81.6464
| 11> C 	 28.1373 	 -8.3488 	 81.5847
| 12> H 	 27.2323 	 -6.61312 	 82.5412
| 13> C 	 27.9395 	 -4.77293 	 80.3452
| 14> H 	 28.6165 	 -4.33921 	 79.6528
| 15> H 	 28.3087 	 -4.44505 	 81.2724
| 16> C 	 26.529 	 -4.34183 	 79.905
| 17> H 	 25.7233 	 -4.95278 	 80.3046
| 18> H 	 26.3456 	 -3.35919 	 80.2686
| 19> C 	 26.353 	 -4.27744 	 78.3708
| 20> H 	 26.8343 	 -3.41209 	 77.9769
| 21> H 	 26.7253 	 -5.20985 	 77.9402
| 22> H 	 25.234 	 -4.16699 	 78.1811
| 23> S 	 27.5655 	 -10.9235 	 81.9248
| 24> C 	 27.7293 	 -11.6837 	 83.4687
| 25> C 	 27.7497 	 -10.7127 	 84.4408
| 26> C 	 28.012 	 -9.42995 	 83.9372
| 27> C 	 28.071 	 -9.42487 	 82.5183
| 28> H 	 27.7347 	 -11.0695 	 85.4752
| 29> C 	 28.1386 	 -8.22884 	 84.8583
| 30> H 	 27.3049 	 -8.29074 	 85.5848
| 31> H 	 27.9575 	 -7.33691 	 84.3573
| 32> C 	 29.4585 	 -8.13897 	 85.6618
| 33> H 	 29.49 	 -7.16176 	 86.2016
| 34> H 	 30.2419 	 -8.15649 	 84.8911
| 35> C 	 29.6411 	 -9.18266 	 86.7795
| 36> H 	 28.7966 	 -9.19952 	 87.4551
| 37> H 	 30.4491 	 -8.9225 	 87.4051
| 38> H 	 29.8907 	 -10.1959 	 86.5226
| 39> H 	 29.1348 	 -6.70152 	 78.531
| 40> H 	 27.459 	 -12.7778 	 83.648
| 41> *
| 42>
| 43>                          ****END OF INPUT****

CARTESIAN COORDINATES (ANGSTROEM)
---------------------------------
  S     28.926100   -8.683230   80.050200
  C     28.827600   -7.049560   79.502400
  C     28.171400   -6.283290   80.493100
  C     27.696100   -7.024360   81.646400
  C     28.137300   -8.348800   81.584700
  H     27.232300   -6.613120   82.541200
  C     27.939500   -4.772930   80.345200
  H     28.616500   -4.339210   79.652800
  H     28.308700   -4.445050   81.272400
  C     26.529000   -4.341830   79.905000
  H     25.723300   -4.952780   80.304600
  H     26.345600   -3.359190   80.268600
  C     26.353000   -4.277440   78.370800
  H     26.834300   -3.412090   77.976900
  H     26.725300   -5.209850   77.940200
  H     25.234000   -4.166990   78.181100
  S     27.565500  -10.923500   81.924800
  C     27.729300  -11.683700   83.468700
  C     27.749700  -10.712700   84.440800
  C     28.012000   -9.429950   83.937200
  C     28.071000   -9.424870   82.518300
  H     27.734700  -11.069500   85.475200
  C     28.138600   -8.228840   84.858300
  H     27.304900   -8.290740   85.584800
  H     27.957500   -7.336910   84.357300
  C     29.458500   -8.138970   85.661800
  H     29.490000   -7.161760   86.201600
  H     30.241900   -8.156490   84.891100
  C     29.641100   -9.182660   86.779500
  H     28.796600   -9.199520   87.455100
  H     30.449100   -8.922500   87.405100
  H     29.890700  -10.195900   86.522600
  H     29.134800   -6.701520   78.531000
  H     27.459000  -12.777800   83.648000

 Total Charge           Charge          ....    0
 Multiplicity           Mult            ....    1
 Number of Electrons    NEL             ....  134
 Basis Dimension        Dim             ....  322

ORBITAL ENERGIES
----------------

  NO   OCC          E(Eh)            E(eV)
   0   2.0000     -88.963852     -2420.8295
   1   2.0000     -88.963410     -2420.8174
   2   2.0000     -10.330924      -281.1187
   3   2.0000     -10.322492      -280.8893
   4   2.0000     -10.316960      -280.7387
   5   2.0000     -10.314019      -280.6587
   6   2.0000     -10.306423      -280.4520
   7   2.0000     -10.303618      -280.3757
   8   2.0000     -10.300210      -280.2830
   9   2.0000     -10.291777      -280.0535
  10   2.0000     -10.291765      -280.0532
  11   2.0000     -10.288484      -279.9639
  12   2.0000     -10.283664      -279.8327
  13   2.0000     -10.282062      -279.7891
  14   2.0000     -10.279346      -279.7152
  15   2.0000     -10.271826      -279.5106
  16   2.0000      -8.080242      -219.8746
  17   2.0000      -8.078479      -219.8266
  18   2.0000      -6.038497      -164.3159
  19   2.0000      -6.036967      -164.2742
  20   2.0000      -6.034554      -164.2086
  21   2.0000      -6.032761      -164.1598
  22   2.0000      -6.031104      -164.1147
  23   2.0000      -6.029411      -164.0686
  24   2.0000      -1.015927       -27.6448
  25   2.0000      -0.985157       -26.8075
  26   2.0000      -0.910510       -24.7762
  27   2.0000      -0.907347       -24.6902
  28   2.0000      -0.873442       -23.7676
  29   2.0000      -0.851906       -23.1815
  30   2.0000      -0.843560       -22.9544
  31   2.0000      -0.815690       -22.1961
  32   2.0000      -0.787683       -21.4340
  33   2.0000      -0.770836       -20.9755
  34   2.0000      -0.710233       -19.3264
  35   2.0000      -0.697738       -18.9864
  36   2.0000      -0.690964       -18.8021
  37   2.0000      -0.661754       -18.0072
  38   2.0000      -0.639166       -17.3926
  39   2.0000      -0.622712       -16.9448
  40   2.0000      -0.596528       -16.2323
  41   2.0000      -0.569507       -15.4971
  42   2.0000      -0.558451       -15.1962
  43   2.0000      -0.550767       -14.9871
  44   2.0000      -0.539870       -14.6906
  45   2.0000      -0.536211       -14.5910
  46   2.0000      -0.518232       -14.1018
  47   2.0000      -0.512393       -13.9429
  48   2.0000      -0.504586       -13.7305
  49   2.0000      -0.497100       -13.5268
  50   2.0000      -0.486551       -13.2397
  51   2.0000      -0.482600       -13.1322
  52   2.0000      -0.474430       -12.9099
  53   2.0000      -0.470799       -12.8111
  54   2.0000      -0.458246       -12.4695
  55   2.0000      -0.447798       -12.1852
  56   2.0000      -0.440066       -11.9748
  57   2.0000      -0.437869       -11.9150
  58   2.0000      -0.432358       -11.7650
  59   2.0000      -0.428465       -11.6591
  60   2.0000      -0.424309       -11.5460
  61   2.0000      -0.418721       -11.3940
  62   2.0000      -0.403470       -10.9790
  63   2.0000      -0.354374        -9.6430
  64   2.0000      -0.330111        -8.9828
  65   2.0000      -0.326885        -8.8950
  66   2.0000      -0.284478        -7.7410
  67   0.0000       0.020869         0.5679
  68   0.0000       0.078832         2.1451
  69   0.0000       0.103373         2.8129
  70   0.0000       0.120408         3.2765
  71   0.0000       0.140091         3.8121

MULLIKEN ATOMIC CHARGES
-----------------------
   0 S :    0.104503
   1 C :   -0.100691
   2 C :   -0.146796
   3 C :    0.036506
   4 C :   -0.162873
   5 H :    0.027420
   6 C :    0.106296
   7 H :    0.000764
   8 H :    0.011512
   9 C :   -0.050000
  10 H :    0.029238
  11 H :    0.016219
  12 C :   -0.066830
  13 H :    0.030843
  14 H :    0.036739
  15 H :    0.041717
  16 S :    0.114636
  17 C :   -0.120578
  18 C :   -0.052596
  19 C :   -0.046798
  20 C :   -0.118786
  21 H :    0.029681
  22 C :    0.106858
  23 H :    0.022730
  24 H :   -0.019517
  25 C :   -0.072380
  26 H :    0.034244
  27 H :    0.038774
  28 C :   -0.027492
  29 H :    0.017422
  30 H :    0.016821
  31 H :    0.030503
  32 H :    0.049486
  33 H :    0.082426
Sum of atomic charges:   -0.0000000

LOEWDIN ATOMIC CHARGES
----------------------
   0 S :    0.414384
   1 C :   -0.214047
   2 C :   -0.054544
   3 C :   -0.068852
   4 C :   -0.186067
   5 H :    0.033236
   6 C :   -0.029353
   7 H :    0.024707
   8 H :    0.024893
   9 C :   -0.037052
  10 H :    0.023451
  11 H :    0.018939
  12 C :   -0.061848
  13 H :    0.017842
  14 H :    0.023323
  15 H :    0.035616
  16 S :    0.446145
  17 C :   -0.208237
  18 C :   -0.072669
  19 C :   -0.056511
  20 C :   -0.224820
  21 H :    0.036297
  22 C :   -0.029024
  23 H :    0.033803
  24 H :    0.014364
  25 C :   -0.033542
  26 H :    0.030210
  27 H :    0.027933
  28 C :   -0.068533
  29 H :    0.023038
  30 H :    0.023606
  31 H :    0.021920
  32 H :    0.027345
  33 H :    0.044048

  Mayer bond orders larger than 0.100000
B(  0-S ,  1-C ) :   1.1353 B(  0-S ,  4-C ) :   1.1685 B(  1-C ,  2-C ) :   1.5843
B(  1-C ,  4-C ) :   0.1019 B(  1-C , 32-H ) :   0.9738 B(  2-C ,  3-C ) :   1.2472
B(  2-C ,  6-C ) :   1.0218 B(  3-C ,  4-C ) :   1.5473 B(  3-C ,  5-H ) :   0.9844
B(  4-C , 20-C ) :   1.0545 B(  6-C ,  7-H ) :   0.9432 B(  6-C ,  8-H ) :   0.9371
B(  6-C ,  9-C ) :   1.0506 B(  9-C , 10-H ) :   0.9649 B(  9-C , 11-H ) :   0.9541
B(  9-C , 12-C ) :   1.0783 B( 12-C , 13-H ) :   0.9772 B( 12-C , 14-H ) :   0.9781
B( 12-C , 15-H ) :   0.9750 B( 16-S , 17-C ) :   1.1688 B( 16-S , 20-C ) :   1.1897
B( 17-C , 18-C ) :   1.5697 B( 17-C , 20-C ) :   0.1089 B( 17-C , 33-H ) :   0.9591
B( 18-C , 19-C ) :   1.2905 B( 18-C , 21-H ) :   0.9865 B( 19-C , 20-C ) :   1.5173
B( 19-C , 22-C ) :   1.0386 B( 22-C , 23-H ) :   0.9345 B( 22-C , 24-H ) :   0.9286
B( 22-C , 25-C ) :   1.0754 B( 25-C , 26-H ) :   0.9552 B( 25-C , 27-H ) :   0.9546
B( 25-C , 28-C ) :   1.0835 B( 28-C , 29-H ) :   0.9714 B( 28-C , 30-H ) :   0.9690
B( 28-C , 31-H ) :   0.9711

Dispersion correction           -0.014095494
FINAL SINGLE POINT ENERGY     -1339.871534650558

DIPOLE MOMENT
-------------
                                X             Y             Z
Electronic contribution:      1.73636     -20.30137     -10.09981
Nuclear contribution   :     -1.89329      20.77020      10.59988
                        -----------------------------------------
Total Dipole Moment    :     -0.15694       0.46883       0.50007
                        -----------------------------------------
Magnitude (a.u.)       :      0.70321
Magnitude (Debye)      :      1.78742

Rotational constants in cm-1:     0.022242     0.007635     0.006346
Rotational constants in MHz :   666.812902   228.877730   190.245045

                             ****ORCA TERMINATED NORMALLY****
TOTAL RUN TIME: 0 days 0 hours 0 minutes 29 seconds 891 msec
