                         Program Version 4.2.1 -  RELEASE  -
|  1> ! wB97X-D3 SP def2-SVP
|  2> %pal
|  3> nprocs 16
|  4> end
|  5>
|  6> * xyz 0 1
|  7> S 	 24.6553 	 1.15272 	 84.2238
|  8> C 	 25.8084 	 1.44052 	 82.9639
|  9> C 	 25.2021 	 1.52983 	 81.7011
| 10> C 	 23.7922 	 1.38385 	 81.8112
| 11> C 	 23.2806 	 1.14563 	 83.0906
| 12> H 	 23.0701 	 1.4136 	 81.0146
| 13> C 	 25.9066 	 1.85299 	 80.3822
| 14> H 	 25.6522 	 1.10947 	 79.6873
| 15> H 	 27.009 	 1.7771 	 80.5041
| 16> C 	 25.5499 	 3.16945 	 79.553
| 17> H 	 24.4877 	 3.38642 	 79.4343
| 18> H 	 25.948 	 3.9917 	 80.1211
| 19> C 	 26.3226 	 3.26156 	 78.2346
| 20> H 	 26.0815 	 4.15043 	 77.6937
| 21> H 	 27.3008 	 3.32618 	 78.4667
| 22> H 	 26.2184 	 2.43101 	 77.5278
| 23> S 	 21.6908 	 1.48512 	 85.2066
| 24> C 	 19.9408 	 1.30784 	 85.1348
| 25> C 	 19.5863 	 0.89256 	 83.8773
| 26> C 	 20.5994 	 0.982991 	 82.884
| 27> C 	 21.8631 	 1.19913 	 83.4545
| 28> H 	 18.5848 	 0.757758 	 83.6074
| 29> C 	 20.3467 	 0.608795 	 81.4583
| 30> H 	 19.4173 	 -0.02119 	 81.5121
| 31> H 	 21.1888 	 0.0561742 	 81.0287
| 32> C 	 20.0543 	 1.90873 	 80.5375
| 33> H 	 21.0244 	 2.51873 	 80.4655
| 34> H 	 19.3495 	 2.54352 	 80.9864
| 35> C 	 19.5725 	 1.54087 	 79.1108
| 36> H 	 19.0699 	 2.37074 	 78.5817
| 37> H 	 18.7336 	 0.849737 	 79.1221
| 38> H 	 20.3439 	 1.1659 	 78.3857
| 39> H 	 26.8782 	 1.53001 	 83.1087
| 40> H 	 19.1777 	 1.44913 	 85.8396
| 41> *
| 42>
| 43>                          ****END OF INPUT****

CARTESIAN COORDINATES (ANGSTROEM)
---------------------------------
  S     24.655300    1.152720   84.223800
  C     25.808400    1.440520   82.963900
  C     25.202100    1.529830   81.701100
  C     23.792200    1.383850   81.811200
  C     23.280600    1.145630   83.090600
  H     23.070100    1.413600   81.014600
  C     25.906600    1.852990   80.382200
  H     25.652200    1.109470   79.687300
  H     27.009000    1.777100   80.504100
  C     25.549900    3.169450   79.553000
  H     24.487700    3.386420   79.434300
  H     25.948000    3.991700   80.121100
  C     26.322600    3.261560   78.234600
  H     26.081500    4.150430   77.693700
  H     27.300800    3.326180   78.466700
  H     26.218400    2.431010   77.527800
  S     21.690800    1.485120   85.206600
  C     19.940800    1.307840   85.134800
  C     19.586300    0.892560   83.877300
  C     20.599400    0.982991   82.884000
  C     21.863100    1.199130   83.454500
  H     18.584800    0.757758   83.607400
  C     20.346700    0.608795   81.458300
  H     19.417300   -0.021190   81.512100
  H     21.188800    0.056174   81.028700
  C     20.054300    1.908730   80.537500
  H     21.024400    2.518730   80.465500
  H     19.349500    2.543520   80.986400
  C     19.572500    1.540870   79.110800
  H     19.069900    2.370740   78.581700
  H     18.733600    0.849737   79.122100
  H     20.343900    1.165900   78.385700
  H     26.878200    1.530010   83.108700
  H     19.177700    1.449130   85.839600

 Total Charge           Charge          ....    0
 Multiplicity           Mult            ....    1
 Number of Electrons    NEL             ....  134
 Basis Dimension        Dim             ....  322

ORBITAL ENERGIES
----------------

  NO   OCC          E(Eh)            E(eV)
   0   2.0000     -88.971192     -2421.0292
   1   2.0000     -88.964663     -2420.8516
   2   2.0000     -10.336209      -281.2626
   3   2.0000     -10.335308      -281.2380
   4   2.0000     -10.318368      -280.7771
   5   2.0000     -10.314267      -280.6655
   6   2.0000     -10.307046      -280.4690
   7   2.0000     -10.304953      -280.4120
   8   2.0000     -10.302486      -280.3449
   9   2.0000     -10.298961      -280.2490
  10   2.0000     -10.297024      -280.1963
  11   2.0000     -10.294289      -280.1218
  12   2.0000     -10.290074      -280.0071
  13   2.0000     -10.288319      -279.9594
  14   2.0000     -10.285226      -279.8752
  15   2.0000     -10.270006      -279.4611
  16   2.0000      -8.085223      -220.0101
  17   2.0000      -8.078805      -219.8355
  18   2.0000      -6.043928      -164.4636
  19   2.0000      -6.039744      -164.3498
  20   2.0000      -6.037520      -164.2893
  21   2.0000      -6.035891      -164.2449
  22   2.0000      -6.033398      -164.1771
  23   2.0000      -6.029376      -164.0677
  24   2.0000      -1.004807       -27.3422
  25   2.0000      -0.982299       -26.7297
  26   2.0000      -0.906837       -24.6763
  27   2.0000      -0.901072       -24.5194
  28   2.0000      -0.873438       -23.7675
  29   2.0000      -0.854196       -23.2438
  30   2.0000      -0.847417       -23.0594
  31   2.0000      -0.817396       -22.2425
  32   2.0000      -0.780888       -21.2490
  33   2.0000      -0.770944       -20.9784
  34   2.0000      -0.711636       -19.3646
  35   2.0000      -0.705079       -19.1862
  36   2.0000      -0.697554       -18.9814
  37   2.0000      -0.671335       -18.2680
  38   2.0000      -0.643169       -17.5015
  39   2.0000      -0.620601       -16.8874
  40   2.0000      -0.593184       -16.1414
  41   2.0000      -0.569195       -15.4886
  42   2.0000      -0.565068       -15.3763
  43   2.0000      -0.557495       -15.1702
  44   2.0000      -0.524653       -14.2765
  45   2.0000      -0.519929       -14.1480
  46   2.0000      -0.516147       -14.0451
  47   2.0000      -0.509813       -13.8727
  48   2.0000      -0.506359       -13.7787
  49   2.0000      -0.502827       -13.6826
  50   2.0000      -0.498812       -13.5734
  51   2.0000      -0.478920       -13.0321
  52   2.0000      -0.471234       -12.8229
  53   2.0000      -0.468990       -12.7619
  54   2.0000      -0.462395       -12.5824
  55   2.0000      -0.451081       -12.2745
  56   2.0000      -0.445048       -12.1104
  57   2.0000      -0.438717       -11.9381
  58   2.0000      -0.435656       -11.8548
  59   2.0000      -0.430078       -11.7030
  60   2.0000      -0.423984       -11.5372
  61   2.0000      -0.421057       -11.4576
  62   2.0000      -0.409719       -11.1490
  63   2.0000      -0.363886        -9.9018
  64   2.0000      -0.335102        -9.1186
  65   2.0000      -0.326201        -8.8764
  66   2.0000      -0.278911        -7.5895
  67   0.0000       0.015956         0.4342
  68   0.0000       0.077673         2.1136
  69   0.0000       0.102902         2.8001
  70   0.0000       0.117931         3.2091
  71   0.0000       0.127228         3.4621

MULLIKEN ATOMIC CHARGES
-----------------------
   0 S :    0.112178
   1 C :   -0.122826
   2 C :   -0.046281
   3 C :   -0.009179
   4 C :   -0.092208
   5 H :   -0.010950
   6 C :    0.061725
   7 H :    0.017538
   8 H :    0.021603
   9 C :   -0.074176
  10 H :    0.035791
  11 H :    0.025174
  12 C :   -0.016875
  13 H :    0.028108
  14 H :    0.003777
  15 H :    0.027085
  16 S :    0.074971
  17 C :   -0.045600
  18 C :   -0.015793
  19 C :   -0.057264
  20 C :   -0.124004
  21 H :   -0.003328
  22 C :    0.011257
  23 H :    0.032910
  24 H :    0.045398
  25 C :   -0.068095
  26 H :    0.045486
  27 H :    0.022151
  28 C :   -0.064582
  29 H :    0.030875
  30 H :    0.022946
  31 H :    0.045012
  32 H :    0.051312
  33 H :    0.035862
Sum of atomic charges:   -0.0000000

LOEWDIN ATOMIC CHARGES
----------------------
   0 S :    0.403707
   1 C :   -0.199956
   2 C :   -0.062843
   3 C :   -0.062127
   4 C :   -0.190240
   5 H :    0.023053
   6 C :   -0.030756
   7 H :    0.023923
   8 H :    0.032876
   9 C :   -0.033377
  10 H :    0.022577
  11 H :    0.023494
  12 C :   -0.056129
  13 H :    0.028093
  14 H :    0.010900
  15 H :    0.024331
  16 S :    0.386154
  17 C :   -0.174432
  18 C :   -0.064546
  19 C :   -0.065477
  20 C :   -0.167293
  21 H :    0.020109
  22 C :   -0.030854
  23 H :    0.036483
  24 H :    0.030954
  25 C :   -0.035300
  26 H :    0.031450
  27 H :    0.017445
  28 C :   -0.081431
  29 H :    0.029892
  30 H :    0.022604
  31 H :    0.030764
  32 H :    0.030890
  33 H :    0.025064

  Mayer bond orders larger than 0.100000
B(  0-S ,  1-C ) :   1.1483 B(  0-S ,  4-C ) :   1.1348 B(  1-C ,  2-C ) :   1.5789
B(  1-C , 32-H ) :   0.9662 B(  2-C ,  3-C ) :   1.2623 B(  2-C ,  6-C ) :   1.0335
B(  3-C ,  4-C ) :   1.5502 B(  3-C ,  5-H ) :   0.9937 B(  4-C , 20-C ) :   1.0880
B(  6-C ,  7-H ) :   0.9369 B(  6-C ,  8-H ) :   0.9448 B(  6-C ,  9-C ) :   1.0484
B(  9-C , 10-H ) :   0.9607 B(  9-C , 11-H ) :   0.9564 B(  9-C , 12-C ) :   1.0795
B( 12-C , 13-H ) :   0.9711 B( 12-C , 14-H ) :   0.9745 B( 12-C , 15-H ) :   0.9766
B( 16-S , 17-C ) :   1.1385 B( 16-S , 20-C ) :   1.1234 B( 17-C , 18-C ) :   1.6214
B( 17-C , 33-H ) :   0.9714 B( 18-C , 19-C ) :   1.2707 B( 18-C , 21-H ) :   0.9808
B( 19-C , 20-C ) :   1.5568 B( 19-C , 22-C ) :   1.0484 B( 22-C , 23-H ) :   0.9398
B( 22-C , 24-H ) :   0.9412 B( 22-C , 25-C ) :   1.0428 B( 25-C , 26-H ) :   0.9562
B( 25-C , 27-H ) :   0.9578 B( 25-C , 28-C ) :   1.0759 B( 28-C , 29-H ) :   0.9739
B( 28-C , 30-H ) :   0.9733 B( 28-C , 31-H ) :   0.9765

Dispersion correction           -0.013495996
FINAL SINGLE POINT ENERGY     -1339.862805982439

DIPOLE MOMENT
-------------
                                X             Y             Z
Electronic contribution:      1.08841      -6.41813      33.20894
Nuclear contribution   :     -1.27187       6.59715     -33.95153
                        -----------------------------------------
Total Dipole Moment    :     -0.18346       0.17902      -0.74259
                        -----------------------------------------
Magnitude (a.u.)       :      0.78559
Magnitude (Debye)      :      1.99680

Rotational constants in cm-1:     0.016228     0.009234     0.006154
Rotational constants in MHz :   486.491870   276.840072   184.486787

                             ****ORCA TERMINATED NORMALLY****
TOTAL RUN TIME: 0 days 0 hours 0 minutes 32 seconds 131 msec
