                         Program Version 4.2.1 -  RELEASE  -
|  1> ! wB97X-D3 SP def2-SVP
|  2> %pal
|  3> nprocs 16
|  4> end
|  5>
|  6> * xyz 0 1
|  7> S 	 -0.158721 	 28.2407 	 43.0469
|  8> C 	 -1.07808 	 26.8294 	 43.1988
|  9> C 	 -1.19293 	 26.1622 	 41.9873
| 10> C 	 -0.66757 	 26.9531 	 40.8813
| 11> C 	 0.1371 	 28.001 	 41.3468
| 12> H 	 -0.538783 	 26.6778 	 39.8275
| 13> C 	 -1.81962 	 24.7753 	 41.7354
| 14> H 	 -2.68251 	 24.7117 	 42.4566
| 15> H 	 -1.11459 	 24.0401 	 42.0326
| 16> C 	 -2.33916 	 24.4393 	 40.2729
| 17> H 	 -3.29268 	 24.8694 	 40.0516
| 18> H 	 -1.73401 	 24.8819 	 39.4726
| 19> C 	 -2.41697 	 22.95 	 39.9137
| 20> H 	 -3.07473 	 22.3503 	 40.6338
| 21> H 	 -2.80791 	 22.7636 	 38.8952
| 22> H 	 -1.37142 	 22.5833 	 39.8235
| 23> S 	 2.57807 	 29.2514 	 41.5561
| 24> C 	 3.22711 	 29.996 	 40.0071
| 25> C 	 2.24907 	 30.1559 	 39.0392
| 26> C 	 1.06925 	 29.424 	 39.4204
| 27> C 	 1.073 	 28.8264 	 40.6544
| 28> H 	 2.44863 	 30.6203 	 38.1406
| 29> C 	 -0.073907 	 29.3113 	 38.4743
| 30> H 	 -0.280628 	 28.2954 	 38.3173
| 31> H 	 0.375838 	 29.4497 	 37.4449
| 32> C 	 -1.36194 	 30.0211 	 38.7912
| 33> H 	 -1.1214 	 31.0844 	 38.8137
| 34> H 	 -1.75127 	 29.7841 	 39.7566
| 35> C 	 -2.3124 	 29.9316 	 37.6191
| 36> H 	 -3.04547 	 30.7632 	 37.5645
| 37> H 	 -2.69358 	 28.9394 	 37.6302
| 38> H 	 -1.61459 	 30.0162 	 36.7717
| 39> H 	 -1.36038 	 26.4335 	 44.1689
| 40> H 	 4.11402 	 30.5146 	 39.9765
| 41> *
| 42>
| 43>                          ****END OF INPUT****

CARTESIAN COORDINATES (ANGSTROEM)
---------------------------------
  S     -0.158721   28.240700   43.046900
  C     -1.078080   26.829400   43.198800
  C     -1.192930   26.162200   41.987300
  C     -0.667570   26.953100   40.881300
  C      0.137100   28.001000   41.346800
  H     -0.538783   26.677800   39.827500
  C     -1.819620   24.775300   41.735400
  H     -2.682510   24.711700   42.456600
  H     -1.114590   24.040100   42.032600
  C     -2.339160   24.439300   40.272900
  H     -3.292680   24.869400   40.051600
  H     -1.734010   24.881900   39.472600
  C     -2.416970   22.950000   39.913700
  H     -3.074730   22.350300   40.633800
  H     -2.807910   22.763600   38.895200
  H     -1.371420   22.583300   39.823500
  S      2.578070   29.251400   41.556100
  C      3.227110   29.996000   40.007100
  C      2.249070   30.155900   39.039200
  C      1.069250   29.424000   39.420400
  C      1.073000   28.826400   40.654400
  H      2.448630   30.620300   38.140600
  C     -0.073907   29.311300   38.474300
  H     -0.280628   28.295400   38.317300
  H      0.375838   29.449700   37.444900
  C     -1.361940   30.021100   38.791200
  H     -1.121400   31.084400   38.813700
  H     -1.751270   29.784100   39.756600
  C     -2.312400   29.931600   37.619100
  H     -3.045470   30.763200   37.564500
  H     -2.693580   28.939400   37.630200
  H     -1.614590   30.016200   36.771700
  H     -1.360380   26.433500   44.168900
  H      4.114020   30.514600   39.976500

 Total Charge           Charge          ....    0
 Multiplicity           Mult            ....    1
 Number of Electrons    NEL             ....  134
 Basis Dimension        Dim             ....  322

ORBITAL ENERGIES
----------------

  NO   OCC          E(Eh)            E(eV)
   0   2.0000     -88.965164     -2420.8652
   1   2.0000     -88.965028     -2420.8615
   2   2.0000     -10.329796      -281.0880
   3   2.0000     -10.327802      -281.0338
   4   2.0000     -10.320112      -280.8245
   5   2.0000     -10.310335      -280.5585
   6   2.0000     -10.309179      -280.5270
   7   2.0000     -10.301722      -280.3241
   8   2.0000     -10.300996      -280.3043
   9   2.0000     -10.298617      -280.2396
  10   2.0000     -10.296213      -280.1742
  11   2.0000     -10.290768      -280.0260
  12   2.0000     -10.289187      -279.9830
  13   2.0000     -10.285029      -279.8699
  14   2.0000     -10.276698      -279.6432
  15   2.0000     -10.275234      -279.6033
  16   2.0000      -8.081055      -219.8967
  17   2.0000      -8.077993      -219.8134
  18   2.0000      -6.039504      -164.3432
  19   2.0000      -6.036717      -164.2674
  20   2.0000      -6.035250      -164.2275
  21   2.0000      -6.033048      -164.1676
  22   2.0000      -6.031932      -164.1372
  23   2.0000      -6.028348      -164.0397
  24   2.0000      -1.008313       -27.4376
  25   2.0000      -0.979891       -26.6642
  26   2.0000      -0.916186       -24.9307
  27   2.0000      -0.903320       -24.5806
  28   2.0000      -0.875463       -23.8226
  29   2.0000      -0.853730       -23.2312
  30   2.0000      -0.845535       -23.0082
  31   2.0000      -0.818425       -22.2705
  32   2.0000      -0.778944       -21.1961
  33   2.0000      -0.767106       -20.8740
  34   2.0000      -0.713271       -19.4091
  35   2.0000      -0.701213       -19.0810
  36   2.0000      -0.693127       -18.8609
  37   2.0000      -0.672559       -18.3013
  38   2.0000      -0.645456       -17.5637
  39   2.0000      -0.616762       -16.7829
  40   2.0000      -0.599299       -16.3078
  41   2.0000      -0.573601       -15.6085
  42   2.0000      -0.565962       -15.4006
  43   2.0000      -0.559760       -15.2318
  44   2.0000      -0.533735       -14.5237
  45   2.0000      -0.527595       -14.3566
  46   2.0000      -0.516410       -14.0522
  47   2.0000      -0.508604       -13.8398
  48   2.0000      -0.506104       -13.7718
  49   2.0000      -0.503570       -13.7028
  50   2.0000      -0.494291       -13.4503
  51   2.0000      -0.482606       -13.1324
  52   2.0000      -0.465280       -12.6609
  53   2.0000      -0.457799       -12.4573
  54   2.0000      -0.455247       -12.3879
  55   2.0000      -0.453540       -12.3414
  56   2.0000      -0.449138       -12.2217
  57   2.0000      -0.439817       -11.9680
  58   2.0000      -0.428394       -11.6572
  59   2.0000      -0.426331       -11.6011
  60   2.0000      -0.417126       -11.3506
  61   2.0000      -0.413504       -11.2520
  62   2.0000      -0.405592       -11.0367
  63   2.0000      -0.355749        -9.6804
  64   2.0000      -0.332913        -9.0590
  65   2.0000      -0.327306        -8.9064
  66   2.0000      -0.284968        -7.7544
  67   0.0000       0.019333         0.5261
  68   0.0000       0.064313         1.7500
  69   0.0000       0.105409         2.8683
  70   0.0000       0.116618         3.1733
  71   0.0000       0.128567         3.4985

MULLIKEN ATOMIC CHARGES
-----------------------
   0 S :    0.115614
   1 C :   -0.116669
   2 C :   -0.100925
   3 C :    0.005055
   4 C :   -0.157562
   5 H :    0.027405
   6 C :    0.079305
   7 H :    0.039634
   8 H :    0.036455
   9 C :   -0.073550
  10 H :    0.025364
  11 H :    0.023926
  12 C :   -0.095483
  13 H :    0.049070
  14 H :    0.035001
  15 H :    0.038967
  16 S :    0.073483
  17 C :   -0.054607
  18 C :    0.007002
  19 C :   -0.048230
  20 C :   -0.114069
  21 H :   -0.002726
  22 C :    0.030194
  23 H :   -0.009401
  24 H :    0.010661
  25 C :   -0.026414
  26 H :    0.015916
  27 H :    0.038026
  28 C :   -0.023189
  29 H :    0.047629
  30 H :    0.025179
  31 H :    0.016643
  32 H :    0.050399
  33 H :    0.031895
Sum of atomic charges:    0.0000000

LOEWDIN ATOMIC CHARGES
----------------------
   0 S :    0.431863
   1 C :   -0.224050
   2 C :   -0.057808
   3 C :   -0.073188
   4 C :   -0.191528
   5 H :    0.031004
   6 C :   -0.028444
   7 H :    0.039479
   8 H :    0.029109
   9 C :   -0.045675
  10 H :    0.020728
  11 H :    0.023771
  12 C :   -0.074868
  13 H :    0.031118
  14 H :    0.028936
  15 H :    0.027720
  16 S :    0.342586
  17 C :   -0.134919
  18 C :   -0.048940
  19 C :   -0.052950
  20 C :   -0.177320
  21 H :    0.022587
  22 C :   -0.043129
  23 H :    0.018932
  24 H :    0.035306
  25 C :   -0.036244
  26 H :    0.024736
  27 H :    0.022931
  28 C :   -0.058139
  29 H :    0.031286
  30 H :    0.019219
  31 H :    0.026637
  32 H :    0.029403
  33 H :    0.009852

  Mayer bond orders larger than 0.100000
B(  0-S ,  1-C ) :   1.1443 B(  0-S ,  4-C ) :   1.1617 B(  1-C ,  2-C ) :   1.6090
B(  1-C , 32-H ) :   0.9713 B(  2-C ,  3-C ) :   1.2469 B(  2-C ,  6-C ) :   1.0031
B(  3-C ,  4-C ) :   1.5561 B(  3-C ,  5-H ) :   0.9792 B(  4-C , 20-C ) :   1.0902
B(  6-C ,  7-H ) :   0.9439 B(  6-C ,  8-H ) :   0.9440 B(  6-C ,  9-C ) :   1.0499
B(  9-C , 10-H ) :   0.9575 B(  9-C , 11-H ) :   0.9535 B(  9-C , 12-C ) :   1.0879
B( 12-C , 13-H ) :   0.9754 B( 12-C , 14-H ) :   0.9719 B( 12-C , 15-H ) :   0.9763
B( 16-S , 17-C ) :   1.1289 B( 16-S , 20-C ) :   1.0903 B( 17-C , 18-C ) :   1.6383
B( 17-C , 33-H ) :   0.9714 B( 18-C , 19-C ) :   1.2099 B( 18-C , 21-H ) :   1.0008
B( 19-C , 20-C ) :   1.6230 B( 19-C , 22-C ) :   1.0455 B( 22-C , 23-H ) :   0.9213
B( 22-C , 24-H ) :   0.9222 B( 22-C , 25-C ) :   1.0569 B( 25-C , 26-H ) :   0.9508
B( 25-C , 27-H ) :   0.9543 B( 25-C , 28-C ) :   1.0709 B( 28-C , 29-H ) :   0.9757
B( 28-C , 30-H ) :   0.9762 B( 28-C , 31-H ) :   0.9720

Dispersion correction           -0.014006560
FINAL SINGLE POINT ENERGY     -1339.851042037521

DIPOLE MOMENT
-------------
                                X             Y             Z
Electronic contribution:     19.36910      12.86791      19.35569
Nuclear contribution   :    -19.59137     -13.09790     -19.90482
                        -----------------------------------------
Total Dipole Moment    :     -0.22227      -0.22999      -0.54913
                        -----------------------------------------
Magnitude (a.u.)       :      0.63549
Magnitude (Debye)      :      1.61528

Rotational constants in cm-1:     0.016868     0.008983     0.007022
Rotational constants in MHz :   505.699162   269.310562   210.509373

                             ****ORCA TERMINATED NORMALLY****
TOTAL RUN TIME: 0 days 0 hours 0 minutes 32 seconds 790 msec
