                         Program Version 4.2.1 -  RELEASE  -
|  1> ! wB97X-D3 SP def2-SVP
|  2> %pal
|  3> nprocs 16
|  4> end
|  5>
|  6> * xyz 0 1
|  7> S 	 -18.0064 	 -1.93386 	 83.9225
|  8> C 	 -17.2293 	 -1.54803 	 85.451
|  9> C 	 -17.4091 	 -0.201767 	 85.6827
| 10> C 	 -17.9445 	 0.513774 	 84.5793
| 11> C 	 -18.2813 	 -0.277191 	 83.5366
| 12> H 	 -18.1409 	 1.56542 	 84.3858
| 13> C 	 -16.8566 	 0.423446 	 87.0111
| 14> H 	 -15.8809 	 -0.0098999 	 87.2869
| 15> H 	 -17.3548 	 0.15262 	 87.9918
| 16> C 	 -16.6781 	 1.96965 	 86.9777
| 17> H 	 -16.1927 	 2.19361 	 86.0816
| 18> H 	 -17.6332 	 2.46209 	 86.9024
| 19> C 	 -15.8598 	 2.48318 	 88.1881
| 20> H 	 -15.3513 	 3.4653 	 88.0078
| 21> H 	 -16.4899 	 2.51714 	 89.0745
| 22> H 	 -15.0838 	 1.75298 	 88.4807
| 23> S 	 -17.9222 	 1.19429 	 81.1962
| 24> C 	 -19.1558 	 1.08088 	 79.9149
| 25> C 	 -20.2291 	 0.299438 	 80.3538
| 26> C 	 -20.1266 	 -0.276336 	 81.6574
| 27> C 	 -18.8639 	 0.0979504 	 82.2811
| 28> H 	 -21.0121 	 0.122984 	 79.6351
| 29> C 	 -21.1117 	 -1.26602 	 82.2647
| 30> H 	 -20.7562 	 -1.81224 	 83.122
| 31> H 	 -21.1462 	 -2.00549 	 81.5302
| 32> C 	 -22.5453 	 -0.664667 	 82.4166
| 33> H 	 -22.796 	 -0.219281 	 81.399
| 34> H 	 -22.6099 	 0.211606 	 83.0152
| 35> C 	 -23.605 	 -1.59542 	 82.9743
| 36> H 	 -23.8426 	 -2.43734 	 82.3253
| 37> H 	 -24.4607 	 -1.07911 	 83.2295
| 38> H 	 -23.1235 	 -2.11719 	 83.8742
| 39> H 	 -16.8465 	 -2.23666 	 86.2171
| 40> H 	 -19.2605 	 1.65621 	 79.0053
| 41> *
| 42>
| 43>                          ****END OF INPUT****

CARTESIAN COORDINATES (ANGSTROEM)
---------------------------------
  S    -18.006400   -1.933860   83.922500
  C    -17.229300   -1.548030   85.451000
  C    -17.409100   -0.201767   85.682700
  C    -17.944500    0.513774   84.579300
  C    -18.281300   -0.277191   83.536600
  H    -18.140900    1.565420   84.385800
  C    -16.856600    0.423446   87.011100
  H    -15.880900   -0.009900   87.286900
  H    -17.354800    0.152620   87.991800
  C    -16.678100    1.969650   86.977700
  H    -16.192700    2.193610   86.081600
  H    -17.633200    2.462090   86.902400
  C    -15.859800    2.483180   88.188100
  H    -15.351300    3.465300   88.007800
  H    -16.489900    2.517140   89.074500
  H    -15.083800    1.752980   88.480700
  S    -17.922200    1.194290   81.196200
  C    -19.155800    1.080880   79.914900
  C    -20.229100    0.299438   80.353800
  C    -20.126600   -0.276336   81.657400
  C    -18.863900    0.097950   82.281100
  H    -21.012100    0.122984   79.635100
  C    -21.111700   -1.266020   82.264700
  H    -20.756200   -1.812240   83.122000
  H    -21.146200   -2.005490   81.530200
  C    -22.545300   -0.664667   82.416600
  H    -22.796000   -0.219281   81.399000
  H    -22.609900    0.211606   83.015200
  C    -23.605000   -1.595420   82.974300
  H    -23.842600   -2.437340   82.325300
  H    -24.460700   -1.079110   83.229500
  H    -23.123500   -2.117190   83.874200
  H    -16.846500   -2.236660   86.217100
  H    -19.260500    1.656210   79.005300

 Total Charge           Charge          ....    0
 Multiplicity           Mult            ....    1
 Number of Electrons    NEL             ....  134
 Basis Dimension        Dim             ....  322

ORBITAL ENERGIES
----------------

  NO   OCC          E(Eh)            E(eV)
   0   2.0000     -88.970333     -2421.0058
   1   2.0000     -88.965313     -2420.8692
   2   2.0000     -10.335435      -281.2415
   3   2.0000     -10.323471      -280.9159
   4   2.0000     -10.322434      -280.8877
   5   2.0000     -10.316265      -280.7198
   6   2.0000     -10.315609      -280.7020
   7   2.0000     -10.307847      -280.4908
   8   2.0000     -10.299796      -280.2717
   9   2.0000     -10.297542      -280.2104
  10   2.0000     -10.293227      -280.0929
  11   2.0000     -10.289866      -280.0015
  12   2.0000     -10.287835      -279.9462
  13   2.0000     -10.283125      -279.8181
  14   2.0000     -10.280686      -279.7517
  15   2.0000     -10.276710      -279.6435
  16   2.0000      -8.083109      -219.9526
  17   2.0000      -8.080194      -219.8733
  18   2.0000      -6.041770      -164.4049
  19   2.0000      -6.038662      -164.3203
  20   2.0000      -6.037731      -164.2950
  21   2.0000      -6.034597      -164.2097
  22   2.0000      -6.033982      -164.1930
  23   2.0000      -6.031046      -164.1131
  24   2.0000      -1.009214       -27.4621
  25   2.0000      -0.975448       -26.5433
  26   2.0000      -0.906736       -24.6735
  27   2.0000      -0.904699       -24.6181
  28   2.0000      -0.872470       -23.7411
  29   2.0000      -0.850961       -23.1558
  30   2.0000      -0.843244       -22.9458
  31   2.0000      -0.815948       -22.2031
  32   2.0000      -0.783075       -21.3086
  33   2.0000      -0.767124       -20.8745
  34   2.0000      -0.714771       -19.4499
  35   2.0000      -0.702290       -19.1103
  36   2.0000      -0.691267       -18.8103
  37   2.0000      -0.662625       -18.0310
  38   2.0000      -0.640623       -17.4322
  39   2.0000      -0.616143       -16.7661
  40   2.0000      -0.595557       -16.2059
  41   2.0000      -0.568896       -15.4804
  42   2.0000      -0.559177       -15.2160
  43   2.0000      -0.557082       -15.1590
  44   2.0000      -0.535856       -14.5814
  45   2.0000      -0.521818       -14.1994
  46   2.0000      -0.516325       -14.0499
  47   2.0000      -0.509169       -13.8552
  48   2.0000      -0.504373       -13.7247
  49   2.0000      -0.497555       -13.5392
  50   2.0000      -0.490590       -13.3496
  51   2.0000      -0.481158       -13.0930
  52   2.0000      -0.471332       -12.8256
  53   2.0000      -0.464686       -12.6447
  54   2.0000      -0.456421       -12.4198
  55   2.0000      -0.450594       -12.2613
  56   2.0000      -0.446838       -12.1591
  57   2.0000      -0.441690       -12.0190
  58   2.0000      -0.435804       -11.8588
  59   2.0000      -0.423767       -11.5313
  60   2.0000      -0.419748       -11.4219
  61   2.0000      -0.413265       -11.2455
  62   2.0000      -0.405917       -11.0456
  63   2.0000      -0.341070        -9.2810
  64   2.0000      -0.334937        -9.1141
  65   2.0000      -0.328288        -8.9332
  66   2.0000      -0.294382        -8.0105
  67   0.0000       0.027703         0.7538
  68   0.0000       0.060221         1.6387
  69   0.0000       0.108081         2.9410
  70   0.0000       0.117131         3.1873
  71   0.0000       0.131816         3.5869

MULLIKEN ATOMIC CHARGES
-----------------------
   0 S :    0.112373
   1 C :   -0.125007
   2 C :   -0.031267
   3 C :    0.015833
   4 C :   -0.154760
   5 H :    0.014098
   6 C :   -0.005892
   7 H :    0.020103
   8 H :    0.034538
   9 C :   -0.050905
  10 H :    0.018935
  11 H :    0.034066
  12 C :   -0.061970
  13 H :    0.049729
  14 H :    0.031156
  15 H :    0.025863
  16 S :    0.108486
  17 C :   -0.089957
  18 C :   -0.060748
  19 C :   -0.012451
  20 C :   -0.186786
  21 H :    0.022863
  22 C :    0.130861
  23 H :    0.013043
  24 H :    0.015704
  25 C :   -0.111387
  26 H :    0.023763
  27 H :    0.024769
  28 C :   -0.014871
  29 H :    0.026869
  30 H :    0.027505
  31 H :    0.032712
  32 H :    0.061040
  33 H :    0.061692
Sum of atomic charges:   -0.0000000

LOEWDIN ATOMIC CHARGES
----------------------
   0 S :    0.420940
   1 C :   -0.196629
   2 C :   -0.060813
   3 C :   -0.069120
   4 C :   -0.204686
   5 H :    0.036982
   6 C :   -0.040318
   7 H :    0.028316
   8 H :    0.033609
   9 C :   -0.040028
  10 H :    0.015101
  11 H :    0.022891
  12 C :   -0.068474
  13 H :    0.033985
  14 H :    0.024443
  15 H :    0.025091
  16 S :    0.381984
  17 C :   -0.183947
  18 C :   -0.073189
  19 C :   -0.040761
  20 C :   -0.188697
  21 H :    0.029376
  22 C :   -0.027196
  23 H :    0.020132
  24 H :    0.028546
  25 C :   -0.042248
  26 H :    0.026036
  27 H :    0.020870
  28 C :   -0.060836
  29 H :    0.023093
  30 H :    0.016848
  31 H :    0.036094
  32 H :    0.038300
  33 H :    0.034304

  Mayer bond orders larger than 0.100000
B(  0-S ,  1-C ) :   1.1392 B(  0-S ,  4-C ) :   1.1486 B(  1-C ,  2-C ) :   1.6170
B(  1-C , 32-H ) :   0.9705 B(  2-C ,  3-C ) :   1.2223 B(  2-C ,  6-C ) :   0.9924
B(  3-C ,  4-C ) :   1.5881 B(  3-C ,  5-H ) :   0.9982 B(  4-C , 20-C ) :   1.0446
B(  6-C ,  7-H ) :   0.9501 B(  6-C ,  8-H ) :   0.9440 B(  6-C ,  9-C ) :   1.0738
B(  9-C , 10-H ) :   0.9566 B(  9-C , 11-H ) :   0.9517 B(  9-C , 12-C ) :   1.0736
B( 12-C , 13-H ) :   0.9751 B( 12-C , 14-H ) :   0.9761 B( 12-C , 15-H ) :   0.9765
B( 16-S , 17-C ) :   1.1427 B( 16-S , 20-C ) :   1.1396 B( 17-C , 18-C ) :   1.6183
B( 17-C , 20-C ) :   0.1137 B( 17-C , 33-H ) :   0.9629 B( 18-C , 19-C ) :   1.2541
B( 18-C , 21-H ) :   0.9804 B( 19-C , 20-C ) :   1.5367 B( 19-C , 22-C ) :   1.0394
B( 22-C , 23-H ) :   0.9313 B( 22-C , 24-H ) :   0.9273 B( 22-C , 25-C ) :   1.0429
B( 25-C , 26-H ) :   0.9535 B( 25-C , 27-H ) :   0.9601 B( 25-C , 28-C ) :   1.0882
B( 28-C , 29-H ) :   0.9743 B( 28-C , 30-H ) :   0.9749 B( 28-C , 31-H ) :   0.9699

Dispersion correction           -0.013434362
FINAL SINGLE POINT ENERGY     -1339.862926583095

DIPOLE MOMENT
-------------
                                X             Y             Z
Electronic contribution:      9.47491      -4.34896     -16.56033
Nuclear contribution   :     -9.81351       4.41710      16.80466
                        -----------------------------------------
Total Dipole Moment    :     -0.33860       0.06814       0.24433
                        -----------------------------------------
Magnitude (a.u.)       :      0.42307
Magnitude (Debye)      :      1.07536

Rotational constants in cm-1:     0.018600     0.007436     0.006405
Rotational constants in MHz :   557.606144   222.936272   192.023921

                             ****ORCA TERMINATED NORMALLY****
TOTAL RUN TIME: 0 days 0 hours 0 minutes 30 seconds 399 msec
