                         Program Version 4.2.1 -  RELEASE  -
|  1> ! wB97X-D3 SP def2-SVP
|  2> %pal
|  3> nprocs 16
|  4> end
|  5>
|  6> * xyz 0 1
|  7> S 	 -118.058 	 49.0908 	 135.855
|  8> C 	 -118.533 	 48.4116 	 134.287
|  9> C 	 -117.471 	 48.1367 	 133.481
| 10> C 	 -116.241 	 48.0967 	 134.252
| 11> C 	 -116.433 	 48.4766 	 135.572
| 12> H 	 -115.311 	 47.6849 	 133.83
| 13> C 	 -117.478 	 47.6188 	 132.069
| 14> H 	 -118.343 	 47.0085 	 132.076
| 15> H 	 -116.689 	 46.9934 	 131.848
| 16> C 	 -117.485 	 48.6683 	 130.964
| 17> H 	 -117.728 	 48.1387 	 130.014
| 18> H 	 -118.342 	 49.3103 	 131.099
| 19> C 	 -116.231 	 49.586 	 130.887
| 20> H 	 -115.246 	 48.9491 	 130.784
| 21> H 	 -116.256 	 50.3622 	 130.109
| 22> H 	 -116.139 	 50.1418 	 131.828
| 23> S 	 -115.511 	 50.2108 	 137.49
| 24> C 	 -114 	 49.8842 	 138.255
| 25> C 	 -113.412 	 48.6961 	 137.8
| 26> C 	 -114.192 	 47.9941 	 136.83
| 27> C 	 -115.394 	 48.686 	 136.578
| 28> H 	 -112.366 	 48.432 	 138.072
| 29> C 	 -113.748 	 46.6699 	 136.208
| 30> H 	 -114.446 	 46.5905 	 135.394
| 31> H 	 -113.944 	 45.857 	 136.973
| 32> C 	 -112.217 	 46.5489 	 135.714
| 33> H 	 -111.52 	 46.5847 	 136.539
| 34> H 	 -111.924 	 47.428 	 135.155
| 35> C 	 -112.052 	 45.2364 	 134.825
| 36> H 	 -111.004 	 45.2718 	 134.505
| 37> H 	 -112.766 	 45.1502 	 133.987
| 38> H 	 -112.069 	 44.2313 	 135.288
| 39> H 	 -119.529 	 48.5805 	 133.791
| 40> H 	 -113.513 	 50.59 	 138.859
| 41> *
| 42>
| 43>                          ****END OF INPUT****

CARTESIAN COORDINATES (ANGSTROEM)
---------------------------------
  S    -118.058000   49.090800  135.855000
  C    -118.533000   48.411600  134.287000
  C    -117.471000   48.136700  133.481000
  C    -116.241000   48.096700  134.252000
  C    -116.433000   48.476600  135.572000
  H    -115.311000   47.684900  133.830000
  C    -117.478000   47.618800  132.069000
  H    -118.343000   47.008500  132.076000
  H    -116.689000   46.993400  131.848000
  C    -117.485000   48.668300  130.964000
  H    -117.728000   48.138700  130.014000
  H    -118.342000   49.310300  131.099000
  C    -116.231000   49.586000  130.887000
  H    -115.246000   48.949100  130.784000
  H    -116.256000   50.362200  130.109000
  H    -116.139000   50.141800  131.828000
  S    -115.511000   50.210800  137.490000
  C    -114.000000   49.884200  138.255000
  C    -113.412000   48.696100  137.800000
  C    -114.192000   47.994100  136.830000
  C    -115.394000   48.686000  136.578000
  H    -112.366000   48.432000  138.072000
  C    -113.748000   46.669900  136.208000
  H    -114.446000   46.590500  135.394000
  H    -113.944000   45.857000  136.973000
  C    -112.217000   46.548900  135.714000
  H    -111.520000   46.584700  136.539000
  H    -111.924000   47.428000  135.155000
  C    -112.052000   45.236400  134.825000
  H    -111.004000   45.271800  134.505000
  H    -112.766000   45.150200  133.987000
  H    -112.069000   44.231300  135.288000
  H    -119.529000   48.580500  133.791000
  H    -113.513000   50.590000  138.859000

 Total Charge           Charge          ....    0
 Multiplicity           Mult            ....    1
 Number of Electrons    NEL             ....  134
 Basis Dimension        Dim             ....  322

ORBITAL ENERGIES
----------------

  NO   OCC          E(Eh)            E(eV)
   0   2.0000     -88.967880     -2420.9391
   1   2.0000     -88.967820     -2420.9374
   2   2.0000     -10.331920      -281.1458
   3   2.0000     -10.329164      -281.0708
   4   2.0000     -10.314694      -280.6771
   5   2.0000     -10.313906      -280.6556
   6   2.0000     -10.305915      -280.4382
   7   2.0000     -10.301890      -280.3287
   8   2.0000     -10.300822      -280.2996
   9   2.0000     -10.299246      -280.2567
  10   2.0000     -10.296974      -280.1949
  11   2.0000     -10.295949      -280.1670
  12   2.0000     -10.290158      -280.0094
  13   2.0000     -10.290100      -280.0078
  14   2.0000     -10.289858      -280.0013
  15   2.0000     -10.283402      -279.8256
  16   2.0000      -8.082554      -219.9375
  17   2.0000      -8.082103      -219.9252
  18   2.0000      -6.040964      -164.3830
  19   2.0000      -6.040766      -164.3776
  20   2.0000      -6.037134      -164.2788
  21   2.0000      -6.036995      -164.2750
  22   2.0000      -6.033373      -164.1764
  23   2.0000      -6.032414      -164.1503
  24   2.0000      -1.004011       -27.3205
  25   2.0000      -0.980434       -26.6790
  26   2.0000      -0.914824       -24.8936
  27   2.0000      -0.897736       -24.4286
  28   2.0000      -0.864704       -23.5298
  29   2.0000      -0.850758       -23.1503
  30   2.0000      -0.840374       -22.8677
  31   2.0000      -0.808942       -22.0124
  32   2.0000      -0.784244       -21.3404
  33   2.0000      -0.771694       -20.9989
  34   2.0000      -0.714705       -19.4481
  35   2.0000      -0.703767       -19.1505
  36   2.0000      -0.696777       -18.9603
  37   2.0000      -0.657390       -17.8885
  38   2.0000      -0.628887       -17.1129
  39   2.0000      -0.616328       -16.7711
  40   2.0000      -0.592765       -16.1299
  41   2.0000      -0.575058       -15.6481
  42   2.0000      -0.557929       -15.1820
  43   2.0000      -0.551510       -15.0073
  44   2.0000      -0.533549       -14.5186
  45   2.0000      -0.526080       -14.3154
  46   2.0000      -0.507416       -13.8075
  47   2.0000      -0.502985       -13.6869
  48   2.0000      -0.500985       -13.6325
  49   2.0000      -0.492358       -13.3977
  50   2.0000      -0.484943       -13.1960
  51   2.0000      -0.483280       -13.1507
  52   2.0000      -0.472263       -12.8509
  53   2.0000      -0.468147       -12.7389
  54   2.0000      -0.457359       -12.4454
  55   2.0000      -0.454959       -12.3801
  56   2.0000      -0.444873       -12.1056
  57   2.0000      -0.441048       -12.0015
  58   2.0000      -0.435165       -11.8415
  59   2.0000      -0.428151       -11.6506
  60   2.0000      -0.420746       -11.4491
  61   2.0000      -0.415980       -11.3194
  62   2.0000      -0.414292       -11.2734
  63   2.0000      -0.353041        -9.6067
  64   2.0000      -0.333580        -9.0772
  65   2.0000      -0.329030        -8.9534
  66   2.0000      -0.282188        -7.6787
  67   0.0000       0.023112         0.6289
  68   0.0000       0.067377         1.8334
  69   0.0000       0.095424         2.5966
  70   0.0000       0.117748         3.2041
  71   0.0000       0.127857         3.4792

MULLIKEN ATOMIC CHARGES
-----------------------
   0 S :    0.096033
   1 C :   -0.112160
   2 C :   -0.117209
   3 C :    0.007919
   4 C :   -0.138841
   5 H :    0.027440
   6 C :    0.107516
   7 H :    0.020255
   8 H :   -0.000194
   9 C :   -0.061093
  10 H :    0.032187
  11 H :    0.016457
  12 C :   -0.091444
  13 H :    0.039234
  14 H :    0.044963
  15 H :    0.047296
  16 S :    0.101341
  17 C :   -0.072868
  18 C :   -0.050110
  19 C :   -0.057629
  20 C :   -0.138570
  21 H :    0.029745
  22 C :    0.076425
  23 H :    0.001455
  24 H :    0.059734
  25 C :   -0.077094
  26 H :    0.032706
  27 H :    0.035478
  28 C :   -0.074785
  29 H :    0.034238
  30 H :    0.042659
  31 H :    0.038022
  32 H :    0.059465
  33 H :    0.041429
Sum of atomic charges:    0.0000000

LOEWDIN ATOMIC CHARGES
----------------------
   0 S :    0.384132
   1 C :   -0.202314
   2 C :   -0.057943
   3 C :   -0.067637
   4 C :   -0.182588
   5 H :    0.032324
   6 C :   -0.024537
   7 H :    0.033482
   8 H :    0.019193
   9 C :   -0.040634
  10 H :    0.026978
  11 H :    0.019409
  12 C :   -0.075560
  13 H :    0.032197
  14 H :    0.028351
  15 H :    0.029306
  16 S :    0.404786
  17 C :   -0.187236
  18 C :   -0.074596
  19 C :   -0.058906
  20 C :   -0.190262
  21 H :    0.035126
  22 C :   -0.031233
  23 H :    0.022270
  24 H :    0.045218
  25 C :   -0.032470
  26 H :    0.021723
  27 H :    0.025545
  28 C :   -0.074779
  29 H :    0.029222
  30 H :    0.027549
  31 H :    0.029385
  32 H :    0.036691
  33 H :    0.017808

  Mayer bond orders larger than 0.100000
B(  0-S ,  1-C ) :   1.1059 B(  0-S ,  4-C ) :   1.1402 B(  1-C ,  2-C ) :   1.6780
B(  1-C , 32-H ) :   0.9492 B(  2-C ,  3-C ) :   1.2124 B(  2-C ,  6-C ) :   1.0100
B(  3-C ,  4-C ) :   1.5764 B(  3-C ,  5-H ) :   0.9803 B(  4-C , 20-C ) :   1.0573
B(  6-C ,  7-H ) :   0.9375 B(  6-C ,  8-H ) :   0.9437 B(  6-C ,  9-C ) :   1.0731
B(  9-C , 10-H ) :   0.9561 B(  9-C , 11-H ) :   0.9554 B(  9-C , 12-C ) :   1.0641
B( 12-C , 13-H ) :   0.9753 B( 12-C , 14-H ) :   0.9758 B( 12-C , 15-H ) :   0.9729
B( 16-S , 17-C ) :   1.1620 B( 16-S , 20-C ) :   1.1429 B( 17-C , 18-C ) :   1.5931
B( 17-C , 20-C ) :   0.1005 B( 17-C , 33-H ) :   0.9743 B( 18-C , 19-C ) :   1.2541
B( 18-C , 21-H ) :   0.9828 B( 19-C , 20-C ) :   1.5831 B( 19-C , 22-C ) :   1.0311
B( 22-C , 23-H ) :   0.9367 B( 22-C , 24-H ) :   0.9333 B( 22-C , 25-C ) :   1.0502
B( 25-C , 26-H ) :   0.9535 B( 25-C , 27-H ) :   0.9627 B( 25-C , 28-C ) :   1.0702
B( 28-C , 29-H ) :   0.9749 B( 28-C , 30-H ) :   0.9787 B( 28-C , 31-H ) :   0.9776

Dispersion correction           -0.013995953
FINAL SINGLE POINT ENERGY     -1339.864689719663

DIPOLE MOMENT
-------------
                                X             Y             Z
Electronic contribution:    -13.72448      13.35999      22.19863
Nuclear contribution   :     14.23159     -13.61015     -22.74237
                        -----------------------------------------
Total Dipole Moment    :      0.50711      -0.25016      -0.54374
                        -----------------------------------------
Magnitude (a.u.)       :      0.78447
Magnitude (Debye)      :      1.99396

Rotational constants in cm-1:     0.015831     0.009388     0.006782
Rotational constants in MHz :   474.598295   281.448497   203.305853

                             ****ORCA TERMINATED NORMALLY****
TOTAL RUN TIME: 0 days 0 hours 0 minutes 33 seconds 226 msec
