                         Program Version 4.2.1 -  RELEASE  -
|  1> ! wB97X-D3 SP def2-SVP
|  2> %pal
|  3> nprocs 16
|  4> end
|  5>
|  6> * xyz 0 1
|  7> S 	 -40.001 	 18.086 	 84.4729
|  8> C 	 -40.5947 	 16.7917 	 83.5896
|  9> C 	 -41.4728 	 17.0454 	 82.5732
| 10> C 	 -41.8205 	 18.403 	 82.6227
| 11> C 	 -41.0587 	 19.1455 	 83.4831
| 12> H 	 -42.5201 	 18.9916 	 82.1758
| 13> C 	 -42.0216 	 15.9898 	 81.6634
| 14> H 	 -41.1872 	 15.3792 	 81.2766
| 15> H 	 -42.2875 	 16.5382 	 80.7201
| 16> C 	 -43.1417 	 15.1655 	 82.1863
| 17> H 	 -43.3881 	 14.3836 	 81.498
| 18> H 	 -42.8248 	 14.6812 	 83.0565
| 19> C 	 -44.4117 	 15.9341 	 82.4817
| 20> H 	 -44.3434 	 16.6377 	 83.2854
| 21> H 	 -44.6947 	 16.464 	 81.5927
| 22> H 	 -45.2715 	 15.3317 	 82.7092
| 23> S 	 -39.4735 	 21.2161 	 83.3921
| 24> C 	 -39.9987 	 22.8226 	 83.8362
| 25> C 	 -41.3519 	 22.8295 	 84.1073
| 26> C 	 -41.9704 	 21.5513 	 84.0504
| 27> C 	 -41.042 	 20.5697 	 83.7678
| 28> H 	 -41.7456 	 23.7597 	 84.4838
| 29> C 	 -43.4099 	 21.3228 	 84.4375
| 30> H 	 -43.9953 	 20.8891 	 83.6513
| 31> H 	 -43.8828 	 22.2851 	 84.5108
| 32> C 	 -43.5232 	 20.4479 	 85.6883
| 33> H 	 -42.8125 	 19.6274 	 85.7618
| 34> H 	 -44.5454 	 20.0719 	 85.7223
| 35> C 	 -43.3844 	 21.3306 	 86.9267
| 36> H 	 -43.6148 	 20.7548 	 87.8622
| 37> H 	 -44.2705 	 22.0909 	 86.8629
| 38> H 	 -42.4586 	 21.9515 	 87.0618
| 39> H 	 -40.1427 	 15.8391 	 83.5315
| 40> H 	 -39.2514 	 23.6664 	 83.8147
| 41> *
| 42>
| 43>                          ****END OF INPUT****

CARTESIAN COORDINATES (ANGSTROEM)
---------------------------------
  S    -40.001000   18.086000   84.472900
  C    -40.594700   16.791700   83.589600
  C    -41.472800   17.045400   82.573200
  C    -41.820500   18.403000   82.622700
  C    -41.058700   19.145500   83.483100
  H    -42.520100   18.991600   82.175800
  C    -42.021600   15.989800   81.663400
  H    -41.187200   15.379200   81.276600
  H    -42.287500   16.538200   80.720100
  C    -43.141700   15.165500   82.186300
  H    -43.388100   14.383600   81.498000
  H    -42.824800   14.681200   83.056500
  C    -44.411700   15.934100   82.481700
  H    -44.343400   16.637700   83.285400
  H    -44.694700   16.464000   81.592700
  H    -45.271500   15.331700   82.709200
  S    -39.473500   21.216100   83.392100
  C    -39.998700   22.822600   83.836200
  C    -41.351900   22.829500   84.107300
  C    -41.970400   21.551300   84.050400
  C    -41.042000   20.569700   83.767800
  H    -41.745600   23.759700   84.483800
  C    -43.409900   21.322800   84.437500
  H    -43.995300   20.889100   83.651300
  H    -43.882800   22.285100   84.510800
  C    -43.523200   20.447900   85.688300
  H    -42.812500   19.627400   85.761800
  H    -44.545400   20.071900   85.722300
  C    -43.384400   21.330600   86.926700
  H    -43.614800   20.754800   87.862200
  H    -44.270500   22.090900   86.862900
  H    -42.458600   21.951500   87.061800
  H    -40.142700   15.839100   83.531500
  H    -39.251400   23.666400   83.814700

 Total Charge           Charge          ....    0
 Multiplicity           Mult            ....    1
 Number of Electrons    NEL             ....  134
 Basis Dimension        Dim             ....  322

ORBITAL ENERGIES
----------------

  NO   OCC          E(Eh)            E(eV)
   0   2.0000     -88.965793     -2420.8823
   1   2.0000     -88.960377     -2420.7349
   2   2.0000     -10.324016      -280.9308
   3   2.0000     -10.320528      -280.8358
   4   2.0000     -10.318817      -280.7893
   5   2.0000     -10.302805      -280.3536
   6   2.0000     -10.299214      -280.2559
   7   2.0000     -10.293628      -280.1039
   8   2.0000     -10.292918      -280.0845
   9   2.0000     -10.292185      -280.0646
  10   2.0000     -10.287395      -279.9343
  11   2.0000     -10.285211      -279.8748
  12   2.0000     -10.284446      -279.8540
  13   2.0000     -10.284061      -279.8435
  14   2.0000     -10.276727      -279.6440
  15   2.0000     -10.268542      -279.4212
  16   2.0000      -8.081247      -219.9019
  17   2.0000      -8.075831      -219.7545
  18   2.0000      -6.039478      -164.3426
  19   2.0000      -6.035772      -164.2417
  20   2.0000      -6.034220      -164.1995
  21   2.0000      -6.032125      -164.1425
  22   2.0000      -6.030110      -164.0876
  23   2.0000      -6.026797      -163.9975
  24   2.0000      -1.012996       -27.5650
  25   2.0000      -0.989986       -26.9389
  26   2.0000      -0.920381       -25.0449
  27   2.0000      -0.912066       -24.8186
  28   2.0000      -0.872443       -23.7404
  29   2.0000      -0.857368       -23.3302
  30   2.0000      -0.845254       -23.0005
  31   2.0000      -0.817929       -22.2570
  32   2.0000      -0.783716       -21.3260
  33   2.0000      -0.770733       -20.9727
  34   2.0000      -0.709892       -19.3172
  35   2.0000      -0.703840       -19.1525
  36   2.0000      -0.688521       -18.7356
  37   2.0000      -0.665557       -18.1107
  38   2.0000      -0.649279       -17.6678
  39   2.0000      -0.614357       -16.7175
  40   2.0000      -0.600117       -16.3300
  41   2.0000      -0.578704       -15.7473
  42   2.0000      -0.554293       -15.0831
  43   2.0000      -0.548944       -14.9375
  44   2.0000      -0.547329       -14.8936
  45   2.0000      -0.539586       -14.6829
  46   2.0000      -0.518042       -14.0966
  47   2.0000      -0.508801       -13.8452
  48   2.0000      -0.497305       -13.5324
  49   2.0000      -0.495792       -13.4912
  50   2.0000      -0.485224       -13.2036
  51   2.0000      -0.481010       -13.0889
  52   2.0000      -0.474115       -12.9013
  53   2.0000      -0.465784       -12.6746
  54   2.0000      -0.458866       -12.4864
  55   2.0000      -0.443005       -12.0548
  56   2.0000      -0.442255       -12.0344
  57   2.0000      -0.431833       -11.7508
  58   2.0000      -0.430019       -11.7014
  59   2.0000      -0.427261       -11.6264
  60   2.0000      -0.423354       -11.5201
  61   2.0000      -0.417983       -11.3739
  62   2.0000      -0.416634       -11.3372
  63   2.0000      -0.346278        -9.4227
  64   2.0000      -0.331555        -9.0221
  65   2.0000      -0.328110        -8.9283
  66   2.0000      -0.293756        -7.9935
  67   0.0000       0.034606         0.9417
  68   0.0000       0.066322         1.8047
  69   0.0000       0.115481         3.1424
  70   0.0000       0.119176         3.2429
  71   0.0000       0.130979         3.5641

MULLIKEN ATOMIC CHARGES
-----------------------
   0 S :    0.125792
   1 C :   -0.066664
   2 C :   -0.105495
   3 C :    0.093092
   4 C :   -0.206395
   5 H :   -0.041700
   6 C :    0.043488
   7 H :    0.029226
   8 H :    0.021573
   9 C :    0.012179
  10 H :    0.021627
  11 H :    0.007799
  12 C :   -0.040099
  13 H :    0.033071
  14 H :    0.011722
  15 H :    0.024267
  16 S :    0.100300
  17 C :   -0.119056
  18 C :   -0.042970
  19 C :   -0.016001
  20 C :   -0.174151
  21 H :    0.017569
  22 C :    0.106662
  23 H :    0.019410
  24 H :    0.003303
  25 C :   -0.039074
  26 H :    0.050444
  27 H :    0.024831
  28 C :   -0.115154
  29 H :    0.041240
  30 H :    0.022943
  31 H :    0.054500
  32 H :    0.023883
  33 H :    0.077835
Sum of atomic charges:   -0.0000000

LOEWDIN ATOMIC CHARGES
----------------------
   0 S :    0.416862
   1 C :   -0.209328
   2 C :   -0.067324
   3 C :   -0.045031
   4 C :   -0.186549
   5 H :    0.017662
   6 C :   -0.036417
   7 H :    0.035939
   8 H :    0.033743
   9 C :   -0.033791
  10 H :    0.025557
  11 H :    0.017414
  12 C :   -0.059712
  13 H :    0.022624
  14 H :    0.020814
  15 H :    0.025456
  16 S :    0.415631
  17 C :   -0.192723
  18 C :   -0.075934
  19 C :   -0.056809
  20 C :   -0.204476
  21 H :    0.030979
  22 C :   -0.028131
  23 H :    0.027656
  24 H :    0.028167
  25 C :   -0.035336
  26 H :    0.026687
  27 H :    0.026298
  28 C :   -0.078696
  29 H :    0.027098
  30 H :    0.026867
  31 H :    0.028672
  32 H :    0.017758
  33 H :    0.038373

  Mayer bond orders larger than 0.100000
B(  0-S ,  1-C ) :   1.1619 B(  0-S ,  4-C ) :   1.1300 B(  1-C ,  2-C ) :   1.6325
B(  1-C , 32-H ) :   0.9517 B(  2-C ,  3-C ) :   1.2026 B(  2-C ,  6-C ) :   1.0217
B(  3-C ,  4-C ) :   1.6165 B(  3-C ,  5-H ) :   1.0160 B(  4-C , 20-C ) :   0.9981
B(  6-C ,  7-H ) :   0.9313 B(  6-C ,  8-H ) :   0.9365 B(  6-C ,  9-C ) :   1.0848
B(  9-C , 10-H ) :   0.9479 B(  9-C , 11-H ) :   0.9479 B(  9-C , 12-C ) :   1.0832
B( 12-C , 13-H ) :   0.9747 B( 12-C , 14-H ) :   0.9728 B( 12-C , 15-H ) :   0.9713
B( 16-S , 17-C ) :   1.1583 B( 16-S , 20-C ) :   1.1709 B( 17-C , 18-C ) :   1.5992
B( 17-C , 20-C ) :   0.1074 B( 17-C , 33-H ) :   0.9629 B( 18-C , 19-C ) :   1.2285
B( 18-C , 21-H ) :   0.9930 B( 19-C , 20-C ) :   1.5894 B( 19-C , 22-C ) :   1.0501
B( 22-C , 23-H ) :   0.9260 B( 22-C , 24-H ) :   0.9281 B( 22-C , 25-C ) :   1.0670
B( 25-C , 26-H ) :   0.9598 B( 25-C , 27-H ) :   0.9511 B( 25-C , 28-C ) :   1.0672
B( 28-C , 29-H ) :   0.9739 B( 28-C , 30-H ) :   0.9752 B( 28-C , 31-H ) :   0.9774

Dispersion correction           -0.015203064
FINAL SINGLE POINT ENERGY     -1339.869341246630

DIPOLE MOMENT
-------------
                                X             Y             Z
Electronic contribution:     23.41409       7.77206      -2.05074
Nuclear contribution   :    -23.91475      -7.85946       1.88770
                        -----------------------------------------
Total Dipole Moment    :     -0.50067      -0.08740      -0.16304
                        -----------------------------------------
Magnitude (a.u.)       :      0.53375
Magnitude (Debye)      :      1.35668

Rotational constants in cm-1:     0.020677     0.009039     0.007458
Rotational constants in MHz :   619.886840   270.982243   223.579732

                             ****ORCA TERMINATED NORMALLY****
TOTAL RUN TIME: 0 days 0 hours 0 minutes 31 seconds 845 msec
