                         Program Version 4.2.1 -  RELEASE  -
|  1> ! wB97X-D3 SP def2-SVP
|  2> %pal
|  3> nprocs 16
|  4> end
|  5>
|  6> * xyz 0 1
|  7> S 	 -71.4161 	 49.3342 	 134.542
|  8> C 	 -69.9882 	 48.8909 	 135.479
|  9> C 	 -70.2474 	 49.0274 	 136.825
| 10> C 	 -71.6085 	 49.4134 	 137.105
| 11> C 	 -72.3661 	 49.7004 	 135.967
| 12> H 	 -72.0522 	 49.5041 	 138.077
| 13> C 	 -69.222 	 48.6906 	 137.956
| 14> H 	 -69.425 	 49.1539 	 138.884
| 15> H 	 -68.352 	 49.2285 	 137.494
| 16> C 	 -68.8384 	 47.217 	 138.253
| 17> H 	 -69.7695 	 46.7367 	 138.669
| 18> H 	 -68.6534 	 46.6859 	 137.319
| 19> C 	 -67.6925 	 47.137 	 139.269
| 20> H 	 -68.0679 	 47.3769 	 140.307
| 21> H 	 -67.1297 	 46.2102 	 139.342
| 22> H 	 -67.0229 	 47.9427 	 139.036
| 23> S 	 -75.0702 	 49.0074 	 136.135
| 24> C 	 -76.2855 	 50.3547 	 136.187
| 25> C 	 -75.6895 	 51.5982 	 135.986
| 26> C 	 -74.2673 	 51.4896 	 135.873
| 27> C 	 -73.7214 	 50.173 	 135.978
| 28> H 	 -76.4177 	 52.4097 	 135.866
| 29> C 	 -73.4285 	 52.693 	 135.542
| 30> H 	 -73.9169 	 53.3461 	 134.925
| 31> H 	 -72.7034 	 52.2016 	 134.855
| 32> C 	 -72.6215 	 53.3501 	 136.683
| 33> H 	 -71.9682 	 52.5622 	 137.039
| 34> H 	 -73.2586 	 53.7112 	 137.497
| 35> C 	 -71.6835 	 54.502 	 136.213
| 36> H 	 -71.0377 	 54.2947 	 135.391
| 37> H 	 -71.0731 	 54.8776 	 137.024
| 38> H 	 -72.2774 	 55.2986 	 135.715
| 39> H 	 -69.0484 	 48.6905 	 135.024
| 40> H 	 -77.3146 	 50.026 	 136.09
| 41> *
| 42>
| 43>                          ****END OF INPUT****

CARTESIAN COORDINATES (ANGSTROEM)
---------------------------------
  S    -71.416100   49.334200  134.542000
  C    -69.988200   48.890900  135.479000
  C    -70.247400   49.027400  136.825000
  C    -71.608500   49.413400  137.105000
  C    -72.366100   49.700400  135.967000
  H    -72.052200   49.504100  138.077000
  C    -69.222000   48.690600  137.956000
  H    -69.425000   49.153900  138.884000
  H    -68.352000   49.228500  137.494000
  C    -68.838400   47.217000  138.253000
  H    -69.769500   46.736700  138.669000
  H    -68.653400   46.685900  137.319000
  C    -67.692500   47.137000  139.269000
  H    -68.067900   47.376900  140.307000
  H    -67.129700   46.210200  139.342000
  H    -67.022900   47.942700  139.036000
  S    -75.070200   49.007400  136.135000
  C    -76.285500   50.354700  136.187000
  C    -75.689500   51.598200  135.986000
  C    -74.267300   51.489600  135.873000
  C    -73.721400   50.173000  135.978000
  H    -76.417700   52.409700  135.866000
  C    -73.428500   52.693000  135.542000
  H    -73.916900   53.346100  134.925000
  H    -72.703400   52.201600  134.855000
  C    -72.621500   53.350100  136.683000
  H    -71.968200   52.562200  137.039000
  H    -73.258600   53.711200  137.497000
  C    -71.683500   54.502000  136.213000
  H    -71.037700   54.294700  135.391000
  H    -71.073100   54.877600  137.024000
  H    -72.277400   55.298600  135.715000
  H    -69.048400   48.690500  135.024000
  H    -77.314600   50.026000  136.090000

 Total Charge           Charge          ....    0
 Multiplicity           Mult            ....    1
 Number of Electrons    NEL             ....  134
 Basis Dimension        Dim             ....  322

ORBITAL ENERGIES
----------------

  NO   OCC          E(Eh)            E(eV)
   0   2.0000     -88.969158     -2420.9739
   1   2.0000     -88.962867     -2420.8027
   2   2.0000     -10.331339      -281.1300
   3   2.0000     -10.331040      -281.1219
   4   2.0000     -10.325171      -280.9622
   5   2.0000     -10.318075      -280.7691
   6   2.0000     -10.311224      -280.5827
   7   2.0000     -10.308763      -280.5157
   8   2.0000     -10.302369      -280.3417
   9   2.0000     -10.297220      -280.2016
  10   2.0000     -10.296784      -280.1897
  11   2.0000     -10.292856      -280.0828
  12   2.0000     -10.284683      -279.8605
  13   2.0000     -10.282842      -279.8104
  14   2.0000     -10.280655      -279.7508
  15   2.0000     -10.273755      -279.5631
  16   2.0000      -8.083287      -219.9574
  17   2.0000      -8.076284      -219.7669
  18   2.0000      -6.041841      -164.4069
  19   2.0000      -6.037732      -164.2950
  20   2.0000      -6.034785      -164.2149
  21   2.0000      -6.034168      -164.1981
  22   2.0000      -6.030915      -164.1095
  23   2.0000      -6.027199      -164.0084
  24   2.0000      -1.000482       -27.2245
  25   2.0000      -0.974861       -26.5273
  26   2.0000      -0.907299       -24.6889
  27   2.0000      -0.901226       -24.5236
  28   2.0000      -0.871909       -23.7259
  29   2.0000      -0.846716       -23.0403
  30   2.0000      -0.843043       -22.9404
  31   2.0000      -0.814592       -22.1662
  32   2.0000      -0.780190       -21.2301
  33   2.0000      -0.767198       -20.8765
  34   2.0000      -0.710352       -19.3296
  35   2.0000      -0.701698       -19.0942
  36   2.0000      -0.694612       -18.9014
  37   2.0000      -0.659981       -17.9590
  38   2.0000      -0.648371       -17.6431
  39   2.0000      -0.613762       -16.7013
  40   2.0000      -0.589147       -16.0315
  41   2.0000      -0.576811       -15.6958
  42   2.0000      -0.564217       -15.3531
  43   2.0000      -0.553093       -15.0504
  44   2.0000      -0.527662       -14.3584
  45   2.0000      -0.523106       -14.2344
  46   2.0000      -0.518390       -14.1061
  47   2.0000      -0.510986       -13.9046
  48   2.0000      -0.506245       -13.7756
  49   2.0000      -0.504061       -13.7162
  50   2.0000      -0.488793       -13.3007
  51   2.0000      -0.483205       -13.1487
  52   2.0000      -0.468237       -12.7414
  53   2.0000      -0.462275       -12.5791
  54   2.0000      -0.453306       -12.3351
  55   2.0000      -0.445260       -12.1161
  56   2.0000      -0.436892       -11.8884
  57   2.0000      -0.436446       -11.8763
  58   2.0000      -0.431078       -11.7302
  59   2.0000      -0.423774       -11.5315
  60   2.0000      -0.418320       -11.3831
  61   2.0000      -0.413617       -11.2551
  62   2.0000      -0.412126       -11.2145
  63   2.0000      -0.335572        -9.1314
  64   2.0000      -0.331028        -9.0077
  65   2.0000      -0.321021        -8.7354
  66   2.0000      -0.306970        -8.3531
  67   0.0000       0.036370         0.9897
  68   0.0000       0.043075         1.1721
  69   0.0000       0.108459         2.9513
  70   0.0000       0.118289         3.2188
  71   0.0000       0.126779         3.4498

MULLIKEN ATOMIC CHARGES
-----------------------
   0 S :    0.118693
   1 C :   -0.123954
   2 C :   -0.072306
   3 C :    0.063530
   4 C :   -0.185229
   5 H :    0.011919
   6 C :    0.029916
   7 H :    0.014837
   8 H :    0.033133
   9 C :   -0.058794
  10 H :    0.036636
  11 H :    0.027543
  12 C :   -0.047109
  13 H :    0.035526
  14 H :    0.045021
  15 H :    0.020945
  16 S :    0.084025
  17 C :   -0.120666
  18 C :   -0.026771
  19 C :   -0.020630
  20 C :   -0.164627
  21 H :    0.037956
  22 C :    0.084847
  23 H :   -0.006563
  24 H :    0.016503
  25 C :   -0.049626
  26 H :    0.031898
  27 H :    0.035316
  28 C :   -0.044676
  29 H :    0.016580
  30 H :    0.040829
  31 H :    0.020069
  32 H :    0.044804
  33 H :    0.070425
Sum of atomic charges:   -0.0000000

LOEWDIN ATOMIC CHARGES
----------------------
   0 S :    0.408221
   1 C :   -0.186490
   2 C :   -0.061727
   3 C :   -0.050324
   4 C :   -0.207762
   5 H :    0.030787
   6 C :   -0.032044
   7 H :    0.021045
   8 H :    0.035840
   9 C :   -0.043060
  10 H :    0.029197
  11 H :    0.021533
  12 C :   -0.068888
  13 H :    0.032522
  14 H :    0.028596
  15 H :    0.021463
  16 S :    0.365766
  17 C :   -0.159577
  18 C :   -0.074506
  19 C :   -0.042025
  20 C :   -0.199270
  21 H :    0.042926
  22 C :   -0.032964
  23 H :    0.012672
  24 H :    0.035756
  25 C :   -0.032522
  26 H :    0.025856
  27 H :    0.024477
  28 C :   -0.069606
  29 H :    0.020482
  30 H :    0.026947
  31 H :    0.025824
  32 H :    0.024377
  33 H :    0.026479

  Mayer bond orders larger than 0.100000
B(  0-S ,  1-C ) :   1.1423 B(  0-S ,  4-C ) :   1.1479 B(  1-C ,  2-C ) :   1.5983
B(  1-C , 32-H ) :   0.9766 B(  2-C ,  3-C ) :   1.2461 B(  2-C ,  6-C ) :   1.0021
B(  3-C ,  4-C ) :   1.5625 B(  3-C ,  5-H ) :   0.9970 B(  4-C , 20-C ) :   1.0537
B(  6-C ,  7-H ) :   0.9523 B(  6-C ,  8-H ) :   0.9389 B(  6-C ,  9-C ) :   1.0602
B(  9-C , 10-H ) :   0.9570 B(  9-C , 11-H ) :   0.9580 B(  9-C , 12-C ) :   1.0649
B( 12-C , 13-H ) :   0.9743 B( 12-C , 14-H ) :   0.9757 B( 12-C , 15-H ) :   0.9761
B( 16-S , 17-C ) :   1.1615 B( 16-S , 20-C ) :   1.1331 B( 17-C , 18-C ) :   1.5917
B( 17-C , 20-C ) :   0.1113 B( 17-C , 33-H ) :   0.9652 B( 18-C , 19-C ) :   1.2324
B( 18-C , 21-H ) :   0.9933 B( 19-C , 20-C ) :   1.5776 B( 19-C , 22-C ) :   1.0373
B( 22-C , 23-H ) :   0.9412 B( 22-C , 24-H ) :   0.9256 B( 22-C , 25-C ) :   1.0566
B( 25-C , 26-H ) :   0.9539 B( 25-C , 27-H ) :   0.9589 B( 25-C , 28-C ) :   1.0810
B( 28-C , 29-H ) :   0.9739 B( 28-C , 30-H ) :   0.9759 B( 28-C , 31-H ) :   0.9733

Dispersion correction           -0.014097035
FINAL SINGLE POINT ENERGY     -1339.868130461763

DIPOLE MOMENT
-------------
                                X             Y             Z
Electronic contribution:    -19.26328      -8.88572     -13.05148
Nuclear contribution   :     19.52680       9.12897      13.25988
                        -----------------------------------------
Total Dipole Moment    :      0.26352       0.24325       0.20840
                        -----------------------------------------
Magnitude (a.u.)       :      0.41478
Magnitude (Debye)      :      1.05428

Rotational constants in cm-1:     0.018668     0.007634     0.006476
Rotational constants in MHz :   559.666033   228.863339   194.144713

                             ****ORCA TERMINATED NORMALLY****
TOTAL RUN TIME: 0 days 0 hours 0 minutes 34 seconds 262 msec
