                         Program Version 4.2.1 -  RELEASE  -
|  1> ! wB97X-D3 SP def2-SVP
|  2> %pal
|  3> nprocs 16
|  4> end
|  5>
|  6> * xyz 0 1
|  7> S 	 -81.5214 	 44.4452 	 129.57
|  8> C 	 -83.1825 	 44.5238 	 129.356
|  9> C 	 -83.8941 	 45.0156 	 130.502
| 10> C 	 -82.9474 	 45.3546 	 131.534
| 11> C 	 -81.6419 	 45.1424 	 131.238
| 12> H 	 -83.1071 	 45.8841 	 132.407
| 13> C 	 -85.3752 	 45.3021 	 130.498
| 14> H 	 -85.8951 	 44.78 	 131.313
| 15> H 	 -85.7615 	 44.8259 	 129.683
| 16> C 	 -85.7632 	 46.7604 	 130.461
| 17> H 	 -86.8233 	 46.9 	 130.34
| 18> H 	 -85.4436 	 47.3643 	 131.242
| 19> C 	 -85.3775 	 47.3603 	 129.11
| 20> H 	 -84.2844 	 47.6052 	 128.912
| 21> H 	 -85.6014 	 46.6821 	 128.202
| 22> H 	 -85.926 	 48.2797 	 129.042
| 23> S 	 -79.5713 	 46.933 	 131.183
| 24> C 	 -78.3635 	 46.8495 	 132.502
| 25> C 	 -78.6805 	 45.9311 	 133.48
| 26> C 	 -79.9206 	 45.2712 	 133.106
| 27> C 	 -80.4657 	 45.661 	 131.918
| 28> H 	 -78.1533 	 45.8928 	 134.456
| 29> C 	 -80.4089 	 44.1359 	 133.885
| 30> H 	 -79.4399 	 43.5975 	 134.132
| 31> H 	 -81.1195 	 43.5864 	 133.254
| 32> C 	 -80.9902 	 44.4025 	 135.275
| 33> H 	 -81.8745 	 45.0445 	 135.098
| 34> H 	 -80.2029 	 44.8966 	 135.831
| 35> C 	 -81.4173 	 43.0256 	 135.938
| 36> H 	 -82.1351 	 43.1884 	 136.72
| 37> H 	 -80.5309 	 42.4773 	 136.264
| 38> H 	 -81.9552 	 42.2863 	 135.388
| 39> H 	 -83.7658 	 44.2338 	 128.49
| 40> H 	 -77.5116 	 47.4296 	 132.658
| 41> *
| 42>
| 43>                          ****END OF INPUT****

CARTESIAN COORDINATES (ANGSTROEM)
---------------------------------
  S    -81.521400   44.445200  129.570000
  C    -83.182500   44.523800  129.356000
  C    -83.894100   45.015600  130.502000
  C    -82.947400   45.354600  131.534000
  C    -81.641900   45.142400  131.238000
  H    -83.107100   45.884100  132.407000
  C    -85.375200   45.302100  130.498000
  H    -85.895100   44.780000  131.313000
  H    -85.761500   44.825900  129.683000
  C    -85.763200   46.760400  130.461000
  H    -86.823300   46.900000  130.340000
  H    -85.443600   47.364300  131.242000
  C    -85.377500   47.360300  129.110000
  H    -84.284400   47.605200  128.912000
  H    -85.601400   46.682100  128.202000
  H    -85.926000   48.279700  129.042000
  S    -79.571300   46.933000  131.183000
  C    -78.363500   46.849500  132.502000
  C    -78.680500   45.931100  133.480000
  C    -79.920600   45.271200  133.106000
  C    -80.465700   45.661000  131.918000
  H    -78.153300   45.892800  134.456000
  C    -80.408900   44.135900  133.885000
  H    -79.439900   43.597500  134.132000
  H    -81.119500   43.586400  133.254000
  C    -80.990200   44.402500  135.275000
  H    -81.874500   45.044500  135.098000
  H    -80.202900   44.896600  135.831000
  C    -81.417300   43.025600  135.938000
  H    -82.135100   43.188400  136.720000
  H    -80.530900   42.477300  136.264000
  H    -81.955200   42.286300  135.388000
  H    -83.765800   44.233800  128.490000
  H    -77.511600   47.429600  132.658000

 Total Charge           Charge          ....    0
 Multiplicity           Mult            ....    1
 Number of Electrons    NEL             ....  134
 Basis Dimension        Dim             ....  322

ORBITAL ENERGIES
----------------

  NO   OCC          E(Eh)            E(eV)
   0   2.0000     -88.966599     -2420.9042
   1   2.0000     -88.965959     -2420.8868
   2   2.0000     -10.327139      -281.0157
   3   2.0000     -10.318399      -280.7779
   4   2.0000     -10.316819      -280.7349
   5   2.0000     -10.316253      -280.7195
   6   2.0000     -10.304703      -280.4052
   7   2.0000     -10.297920      -280.2206
   8   2.0000     -10.295016      -280.1416
   9   2.0000     -10.291934      -280.0578
  10   2.0000     -10.290883      -280.0292
  11   2.0000     -10.285001      -279.8691
  12   2.0000     -10.283253      -279.8215
  13   2.0000     -10.280397      -279.7438
  14   2.0000     -10.279954      -279.7318
  15   2.0000     -10.276274      -279.6316
  16   2.0000      -8.081675      -219.9136
  17   2.0000      -8.080519      -219.8821
  18   2.0000      -6.040020      -164.3573
  19   2.0000      -6.039217      -164.3354
  20   2.0000      -6.036072      -164.2499
  21   2.0000      -6.035075      -164.2227
  22   2.0000      -6.032634      -164.1563
  23   2.0000      -6.031051      -164.1132
  24   2.0000      -1.007649       -27.4195
  25   2.0000      -0.984009       -26.7762
  26   2.0000      -0.918262       -24.9872
  27   2.0000      -0.908659       -24.7259
  28   2.0000      -0.874627       -23.7998
  29   2.0000      -0.851398       -23.1677
  30   2.0000      -0.845382       -23.0040
  31   2.0000      -0.821634       -22.3578
  32   2.0000      -0.779435       -21.2095
  33   2.0000      -0.766912       -20.8687
  34   2.0000      -0.710779       -19.3413
  35   2.0000      -0.698300       -19.0017
  36   2.0000      -0.691869       -18.8267
  37   2.0000      -0.662975       -18.0405
  38   2.0000      -0.652660       -17.7598
  39   2.0000      -0.622458       -16.9380
  40   2.0000      -0.588009       -16.0005
  41   2.0000      -0.574073       -15.6213
  42   2.0000      -0.568041       -15.4572
  43   2.0000      -0.555399       -15.1132
  44   2.0000      -0.549169       -14.9436
  45   2.0000      -0.525428       -14.2976
  46   2.0000      -0.519344       -14.1321
  47   2.0000      -0.506602       -13.7853
  48   2.0000      -0.503792       -13.7089
  49   2.0000      -0.491144       -13.3647
  50   2.0000      -0.486279       -13.2323
  51   2.0000      -0.480283       -13.0692
  52   2.0000      -0.472728       -12.8636
  53   2.0000      -0.465089       -12.6557
  54   2.0000      -0.458477       -12.4758
  55   2.0000      -0.448668       -12.2089
  56   2.0000      -0.443984       -12.0814
  57   2.0000      -0.433271       -11.7899
  58   2.0000      -0.430171       -11.7056
  59   2.0000      -0.426542       -11.6068
  60   2.0000      -0.424728       -11.5574
  61   2.0000      -0.412408       -11.2222
  62   2.0000      -0.410441       -11.1687
  63   2.0000      -0.350551        -9.5390
  64   2.0000      -0.329713        -8.9720
  65   2.0000      -0.320157        -8.7119
  66   2.0000      -0.297063        -8.0835
  67   0.0000       0.038472         1.0469
  68   0.0000       0.062711         1.7064
  69   0.0000       0.112539         3.0623
  70   0.0000       0.117523         3.1980
  71   0.0000       0.123972         3.3735

MULLIKEN ATOMIC CHARGES
-----------------------
   0 S :    0.124663
   1 C :   -0.099308
   2 C :   -0.128798
   3 C :    0.090948
   4 C :   -0.209715
   5 H :   -0.015975
   6 C :    0.133205
   7 H :    0.028442
   8 H :   -0.023191
   9 C :   -0.018181
  10 H :    0.025936
  11 H :    0.024883
  12 C :   -0.118405
  13 H :    0.047433
  14 H :    0.031307
  15 H :    0.029089
  16 S :    0.118001
  17 C :   -0.059128
  18 C :   -0.050866
  19 C :   -0.008029
  20 C :   -0.153775
  21 H :    0.044150
  22 C :   -0.001388
  23 H :    0.031278
  24 H :    0.036399
  25 C :   -0.063249
  26 H :    0.031447
  27 H :    0.029123
  28 C :   -0.028854
  29 H :    0.027201
  30 H :    0.030316
  31 H :    0.018566
  32 H :    0.048335
  33 H :    0.028142
Sum of atomic charges:   -0.0000000

LOEWDIN ATOMIC CHARGES
----------------------
   0 S :    0.413833
   1 C :   -0.213181
   2 C :   -0.061843
   3 C :   -0.043341
   4 C :   -0.183217
   5 H :    0.021378
   6 C :   -0.028921
   7 H :    0.033350
   8 H :    0.016771
   9 C :   -0.033185
  10 H :    0.030362
  11 H :    0.017530
  12 C :   -0.074253
  13 H :    0.027475
  14 H :    0.029188
  15 H :    0.019815
  16 S :    0.401095
  17 C :   -0.158027
  18 C :   -0.072104
  19 C :   -0.058296
  20 C :   -0.220456
  21 H :    0.041826
  22 C :   -0.043044
  23 H :    0.038373
  24 H :    0.030155
  25 C :   -0.030649
  26 H :    0.023444
  27 H :    0.022070
  28 C :   -0.068312
  29 H :    0.024624
  30 H :    0.027404
  31 H :    0.023512
  32 H :    0.029316
  33 H :    0.017310

  Mayer bond orders larger than 0.100000
B(  0-S ,  1-C ) :   1.1778 B(  0-S ,  4-C ) :   1.1209 B(  1-C ,  2-C ) :   1.5825
B(  1-C , 32-H ) :   0.9607 B(  2-C ,  3-C ) :   1.2303 B(  2-C ,  6-C ) :   1.0396
B(  3-C ,  4-C ) :   1.6090 B(  3-C ,  5-H ) :   0.9978 B(  4-C , 20-C ) :   1.0239
B(  6-C ,  7-H ) :   0.9322 B(  6-C ,  8-H ) :   0.9246 B(  6-C ,  9-C ) :   1.0824
B(  9-C , 10-H ) :   0.9550 B(  9-C , 11-H ) :   0.9579 B(  9-C , 12-C ) :   1.0554
B( 12-C , 13-H ) :   0.9739 B( 12-C , 14-H ) :   0.9751 B( 12-C , 15-H ) :   0.9788
B( 16-S , 17-C ) :   1.1382 B( 16-S , 20-C ) :   1.1137 B( 17-C , 18-C ) :   1.6602
B( 17-C , 33-H ) :   0.9672 B( 18-C , 19-C ) :   1.2005 B( 18-C , 21-H ) :   0.9773
B( 19-C , 20-C ) :   1.6359 B( 19-C , 22-C ) :   1.0622 B( 22-C , 23-H ) :   0.9346
B( 22-C , 24-H ) :   0.9313 B( 22-C , 25-C ) :   1.0618 B( 25-C , 26-H ) :   0.9563
B( 25-C , 27-H ) :   0.9574 B( 25-C , 28-C ) :   1.0699 B( 28-C , 29-H ) :   0.9762
B( 28-C , 30-H ) :   0.9753 B( 28-C , 31-H ) :   0.9761

Dispersion correction           -0.014436614
FINAL SINGLE POINT ENERGY     -1339.852093525286

DIPOLE MOMENT
-------------
                                X             Y             Z
Electronic contribution:     17.39571       2.58383     -12.49341
Nuclear contribution   :    -17.78023      -2.51966      12.91082
                        -----------------------------------------
Total Dipole Moment    :     -0.38452       0.06417       0.41741
                        -----------------------------------------
Magnitude (a.u.)       :      0.57114
Magnitude (Debye)      :      1.45173

Rotational constants in cm-1:     0.018328     0.008583     0.007069
Rotational constants in MHz :   549.469351   257.302912   211.927834

                             ****ORCA TERMINATED NORMALLY****
TOTAL RUN TIME: 0 days 0 hours 0 minutes 34 seconds 228 msec
