                         Program Version 4.2.1 -  RELEASE  -
|  1> ! wB97X-D3 SP def2-SVP
|  2> %pal
|  3> nprocs 16
|  4> end
|  5>
|  6> * xyz 0 1
|  7> S 	 -49.3052 	 64.5197 	 135.186
|  8> C 	 -49.8332 	 62.92 	 135.476
|  9> C 	 -49.0663 	 62.0147 	 134.707
| 10> C 	 -48.2451 	 62.66 	 133.715
| 11> C 	 -48.3033 	 64.0245 	 133.833
| 12> H 	 -47.7444 	 62.1714 	 132.919
| 13> C 	 -49.3058 	 60.5931 	 134.891
| 14> H 	 -49.4815 	 60.1362 	 133.927
| 15> H 	 -50.2836 	 60.5542 	 135.456
| 16> C 	 -48.1679 	 59.8304 	 135.472
| 17> H 	 -48.6183 	 58.8591 	 135.509
| 18> H 	 -47.3006 	 59.7857 	 134.768
| 19> C 	 -47.6738 	 60.2147 	 136.881
| 20> H 	 -47.0949 	 61.1012 	 136.946
| 21> H 	 -48.5114 	 60.5582 	 137.498
| 22> H 	 -47.0471 	 59.4321 	 137.37
| 23> S 	 -47.6751 	 65.398 	 131.494
| 24> C 	 -46.2332 	 66.3304 	 131.45
| 25> C 	 -45.6879 	 66.5714 	 132.708
| 26> C 	 -46.4412 	 65.8732 	 133.695
| 27> C 	 -47.4144 	 65.0121 	 133.217
| 28> H 	 -44.8047 	 67.2213 	 132.788
| 29> C 	 -46.1 	 65.9566 	 135.161
| 30> H 	 -47.0418 	 66.0362 	 135.673
| 31> H 	 -45.5806 	 66.9442 	 135.403
| 32> C 	 -45.4163 	 64.7007 	 135.718
| 33> H 	 -44.4683 	 64.5836 	 135.151
| 34> H 	 -45.9701 	 63.7725 	 135.557
| 35> C 	 -45.3752 	 64.9578 	 137.235
| 36> H 	 -46.4199 	 64.8942 	 137.593
| 37> H 	 -44.9535 	 65.8944 	 137.638
| 38> H 	 -44.7917 	 64.1612 	 137.798
| 39> H 	 -50.5273 	 62.6452 	 136.262
| 40> H 	 -45.6718 	 66.6786 	 130.535
| 41> *
| 42>
| 43>                          ****END OF INPUT****

CARTESIAN COORDINATES (ANGSTROEM)
---------------------------------
  S    -49.305200   64.519700  135.186000
  C    -49.833200   62.920000  135.476000
  C    -49.066300   62.014700  134.707000
  C    -48.245100   62.660000  133.715000
  C    -48.303300   64.024500  133.833000
  H    -47.744400   62.171400  132.919000
  C    -49.305800   60.593100  134.891000
  H    -49.481500   60.136200  133.927000
  H    -50.283600   60.554200  135.456000
  C    -48.167900   59.830400  135.472000
  H    -48.618300   58.859100  135.509000
  H    -47.300600   59.785700  134.768000
  C    -47.673800   60.214700  136.881000
  H    -47.094900   61.101200  136.946000
  H    -48.511400   60.558200  137.498000
  H    -47.047100   59.432100  137.370000
  S    -47.675100   65.398000  131.494000
  C    -46.233200   66.330400  131.450000
  C    -45.687900   66.571400  132.708000
  C    -46.441200   65.873200  133.695000
  C    -47.414400   65.012100  133.217000
  H    -44.804700   67.221300  132.788000
  C    -46.100000   65.956600  135.161000
  H    -47.041800   66.036200  135.673000
  H    -45.580600   66.944200  135.403000
  C    -45.416300   64.700700  135.718000
  H    -44.468300   64.583600  135.151000
  H    -45.970100   63.772500  135.557000
  C    -45.375200   64.957800  137.235000
  H    -46.419900   64.894200  137.593000
  H    -44.953500   65.894400  137.638000
  H    -44.791700   64.161200  137.798000
  H    -50.527300   62.645200  136.262000
  H    -45.671800   66.678600  130.535000

 Total Charge           Charge          ....    0
 Multiplicity           Mult            ....    1
 Number of Electrons    NEL             ....  134
 Basis Dimension        Dim             ....  322

ORBITAL ENERGIES
----------------

  NO   OCC          E(Eh)            E(eV)
   0   2.0000     -88.967094     -2420.9177
   1   2.0000     -88.962532     -2420.7936
   2   2.0000     -10.331352      -281.1304
   3   2.0000     -10.323700      -280.9221
   4   2.0000     -10.317016      -280.7403
   5   2.0000     -10.315666      -280.7035
   6   2.0000     -10.300365      -280.2872
   7   2.0000     -10.300310      -280.2857
   8   2.0000     -10.298542      -280.2376
   9   2.0000     -10.293364      -280.0967
  10   2.0000     -10.287998      -279.9506
  11   2.0000     -10.287431      -279.9352
  12   2.0000     -10.286284      -279.9040
  13   2.0000     -10.285901      -279.8936
  14   2.0000     -10.281483      -279.7734
  15   2.0000     -10.276939      -279.6497
  16   2.0000      -8.082132      -219.9260
  17   2.0000      -8.077340      -219.7956
  18   2.0000      -6.040421      -164.3682
  19   2.0000      -6.036493      -164.2613
  20   2.0000      -6.035802      -164.2425
  21   2.0000      -6.033210      -164.1720
  22   2.0000      -6.031870      -164.1355
  23   2.0000      -6.028114      -164.0333
  24   2.0000      -1.008546       -27.4439
  25   2.0000      -0.986397       -26.8412
  26   2.0000      -0.923083       -25.1184
  27   2.0000      -0.907203       -24.6862
  28   2.0000      -0.868248       -23.6262
  29   2.0000      -0.851141       -23.1607
  30   2.0000      -0.844639       -22.9838
  31   2.0000      -0.817515       -22.2457
  32   2.0000      -0.782382       -21.2897
  33   2.0000      -0.763201       -20.7678
  34   2.0000      -0.711783       -19.3686
  35   2.0000      -0.698616       -19.0103
  36   2.0000      -0.686323       -18.6758
  37   2.0000      -0.658535       -17.9196
  38   2.0000      -0.644560       -17.5394
  39   2.0000      -0.621421       -16.9097
  40   2.0000      -0.590327       -16.0636
  41   2.0000      -0.570199       -15.5159
  42   2.0000      -0.562344       -15.3022
  43   2.0000      -0.554375       -15.0853
  44   2.0000      -0.547938       -14.9102
  45   2.0000      -0.522885       -14.2284
  46   2.0000      -0.515342       -14.0232
  47   2.0000      -0.509927       -13.8758
  48   2.0000      -0.503433       -13.6991
  49   2.0000      -0.496183       -13.5018
  50   2.0000      -0.492283       -13.3957
  51   2.0000      -0.474253       -12.9051
  52   2.0000      -0.467784       -12.7291
  53   2.0000      -0.464432       -12.6378
  54   2.0000      -0.457142       -12.4395
  55   2.0000      -0.452882       -12.3236
  56   2.0000      -0.445921       -12.1341
  57   2.0000      -0.445371       -12.1192
  58   2.0000      -0.427096       -11.6219
  59   2.0000      -0.422062       -11.4849
  60   2.0000      -0.415692       -11.3116
  61   2.0000      -0.411452       -11.1962
  62   2.0000      -0.407866       -11.0986
  63   2.0000      -0.341414        -9.2904
  64   2.0000      -0.328733        -8.9453
  65   2.0000      -0.322396        -8.7728
  66   2.0000      -0.296889        -8.0788
  67   0.0000       0.030796         0.8380
  68   0.0000       0.063598         1.7306
  69   0.0000       0.106869         2.9081
  70   0.0000       0.116436         3.1684
  71   0.0000       0.128017         3.4835

MULLIKEN ATOMIC CHARGES
-----------------------
   0 S :    0.114397
   1 C :   -0.120412
   2 C :   -0.111489
   3 C :    0.072509
   4 C :   -0.151470
   5 H :    0.007380
   6 C :    0.050261
   7 H :    0.022513
   8 H :    0.027962
   9 C :   -0.058700
  10 H :    0.026654
  11 H :    0.037750
  12 C :   -0.047664
  13 H :    0.022745
  14 H :    0.016458
  15 H :    0.046756
  16 S :    0.107732
  17 C :   -0.107517
  18 C :   -0.056074
  19 C :   -0.011434
  20 C :   -0.175432
  21 H :    0.028827
  22 C :    0.030427
  23 H :    0.006142
  24 H :    0.034020
  25 C :   -0.048781
  26 H :    0.033238
  27 H :    0.046494
  28 C :   -0.073523
  29 H :    0.034811
  30 H :    0.033020
  31 H :    0.034134
  32 H :    0.055873
  33 H :    0.072393
Sum of atomic charges:   -0.0000000

LOEWDIN ATOMIC CHARGES
----------------------
   0 S :    0.430379
   1 C :   -0.213158
   2 C :   -0.062632
   3 C :   -0.047182
   4 C :   -0.193952
   5 H :    0.030976
   6 C :   -0.041679
   7 H :    0.033090
   8 H :    0.038190
   9 C :   -0.041821
  10 H :    0.026182
  11 H :    0.029438
  12 C :   -0.073910
  13 H :    0.020763
  14 H :    0.025739
  15 H :    0.034132
  16 S :    0.403405
  17 C :   -0.202272
  18 C :   -0.082183
  19 C :   -0.055658
  20 C :   -0.199949
  21 H :    0.038820
  22 C :   -0.040853
  23 H :    0.014056
  24 H :    0.037082
  25 C :   -0.037384
  26 H :    0.025377
  27 H :    0.030300
  28 C :   -0.074328
  29 H :    0.028854
  30 H :    0.023871
  31 H :    0.026645
  32 H :    0.028348
  33 H :    0.041315

  Mayer bond orders larger than 0.100000
B(  0-S ,  1-C ) :   1.1546 B(  0-S ,  4-C ) :   1.1672 B(  1-C ,  2-C ) :   1.5691
B(  1-C , 32-H ) :   0.9699 B(  2-C ,  3-C ) :   1.2424 B(  2-C ,  6-C ) :   1.0475
B(  3-C ,  4-C ) :   1.5622 B(  3-C ,  5-H ) :   1.0014 B(  4-C , 20-C ) :   1.0118
B(  6-C ,  7-H ) :   0.9285 B(  6-C ,  8-H ) :   0.9394 B(  6-C ,  9-C ) :   1.0796
B(  9-C , 10-H ) :   0.9522 B(  9-C , 11-H ) :   0.9529 B(  9-C , 12-C ) :   1.0690
B( 12-C , 13-H ) :   0.9707 B( 12-C , 14-H ) :   0.9716 B( 12-C , 15-H ) :   0.9748
B( 16-S , 17-C ) :   1.1751 B( 16-S , 20-C ) :   1.1261 B( 17-C , 18-C ) :   1.6027
B( 17-C , 20-C ) :   0.1015 B( 17-C , 33-H ) :   0.9553 B( 18-C , 19-C ) :   1.2371
B( 18-C , 21-H ) :   0.9940 B( 19-C , 20-C ) :   1.5948 B( 19-C , 22-C ) :   1.0397
B( 22-C , 23-H ) :   0.9282 B( 22-C , 24-H ) :   0.9405 B( 22-C , 25-C ) :   1.0568
B( 25-C , 26-H ) :   0.9567 B( 25-C , 27-H ) :   0.9536 B( 25-C , 28-C ) :   1.0642
B( 28-C , 29-H ) :   0.9732 B( 28-C , 30-H ) :   0.9759 B( 28-C , 31-H ) :   0.9738

Dispersion correction           -0.015833134
FINAL SINGLE POINT ENERGY     -1339.870247962044

DIPOLE MOMENT
-------------
                                X             Y             Z
Electronic contribution:    -10.23469      14.71529     -19.34958
Nuclear contribution   :     10.48520     -15.10733      19.61615
                        -----------------------------------------
Total Dipole Moment    :      0.25052      -0.39204       0.26657
                        -----------------------------------------
Magnitude (a.u.)       :      0.53620
Magnitude (Debye)      :      1.36292

Rotational constants in cm-1:     0.019951     0.009458     0.007823
Rotational constants in MHz :   598.108322   283.532168   234.523800

                             ****ORCA TERMINATED NORMALLY****
TOTAL RUN TIME: 0 days 0 hours 0 minutes 37 seconds 617 msec
