                         Program Version 4.2.1 -  RELEASE  -
|  1> ! wB97X-D3 SP def2-SVP
|  2> %pal
|  3> nprocs 16
|  4> end
|  5>
|  6> * xyz 0 1
|  7> S 	 -15.9172 	 36.4874 	 39.4244
|  8> C 	 -15.1767 	 37.9869 	 39.9609
|  9> C 	 -13.9645 	 38.1768 	 39.2944
| 10> C 	 -13.737 	 37.1717 	 38.3077
| 11> C 	 -14.8384 	 36.3395 	 38.1092
| 12> H 	 -12.8779 	 37.05 	 37.6049
| 13> C 	 -12.8938 	 39.1802 	 39.6921
| 14> H 	 -13.3458 	 40.0882 	 39.8719
| 15> H 	 -12.4533 	 39.3867 	 38.6911
| 16> C 	 -11.7865 	 38.816 	 40.7143
| 17> H 	 -12.2901 	 38.5129 	 41.702
| 18> H 	 -11.1878 	 37.9718 	 40.2736
| 19> C 	 -11.0345 	 40.1088 	 40.9052
| 20> H 	 -10.2719 	 40.3922 	 40.1149
| 21> H 	 -11.614 	 41.0016 	 41.1382
| 22> H 	 -10.4287 	 39.8608 	 41.7979
| 23> S 	 -15.4762 	 33.6955 	 37.6061
| 24> C 	 -15.2614 	 33.0323 	 36.0143
| 25> C 	 -14.9154 	 34.0341 	 35.0892
| 26> C 	 -14.7598 	 35.3134 	 35.7268
| 27> C 	 -15.0206 	 35.2859 	 37.0673
| 28> H 	 -15.009 	 33.9403 	 34.0944
| 29> C 	 -14.6773 	 36.5344 	 34.92
| 30> H 	 -14.0345 	 36.3942 	 34.0151
| 31> H 	 -14.2254 	 37.2866 	 35.5673
| 32> C 	 -16.0949 	 37.0772 	 34.4523
| 33> H 	 -16.7013 	 37.2872 	 35.3474
| 34> H 	 -16.668 	 36.4894 	 33.8077
| 35> C 	 -15.9945 	 38.4078 	 33.6517
| 36> H 	 -15.6416 	 39.2279 	 34.3647
| 37> H 	 -16.9774 	 38.6206 	 33.2586
| 38> H 	 -15.3146 	 38.2711 	 32.8025
| 39> H 	 -15.471 	 38.6748 	 40.7752
| 40> H 	 -15.322 	 31.9311 	 35.7851
| 41> *
| 42>
| 43>                          ****END OF INPUT****

CARTESIAN COORDINATES (ANGSTROEM)
---------------------------------
  S    -15.917200   36.487400   39.424400
  C    -15.176700   37.986900   39.960900
  C    -13.964500   38.176800   39.294400
  C    -13.737000   37.171700   38.307700
  C    -14.838400   36.339500   38.109200
  H    -12.877900   37.050000   37.604900
  C    -12.893800   39.180200   39.692100
  H    -13.345800   40.088200   39.871900
  H    -12.453300   39.386700   38.691100
  C    -11.786500   38.816000   40.714300
  H    -12.290100   38.512900   41.702000
  H    -11.187800   37.971800   40.273600
  C    -11.034500   40.108800   40.905200
  H    -10.271900   40.392200   40.114900
  H    -11.614000   41.001600   41.138200
  H    -10.428700   39.860800   41.797900
  S    -15.476200   33.695500   37.606100
  C    -15.261400   33.032300   36.014300
  C    -14.915400   34.034100   35.089200
  C    -14.759800   35.313400   35.726800
  C    -15.020600   35.285900   37.067300
  H    -15.009000   33.940300   34.094400
  C    -14.677300   36.534400   34.920000
  H    -14.034500   36.394200   34.015100
  H    -14.225400   37.286600   35.567300
  C    -16.094900   37.077200   34.452300
  H    -16.701300   37.287200   35.347400
  H    -16.668000   36.489400   33.807700
  C    -15.994500   38.407800   33.651700
  H    -15.641600   39.227900   34.364700
  H    -16.977400   38.620600   33.258600
  H    -15.314600   38.271100   32.802500
  H    -15.471000   38.674800   40.775200
  H    -15.322000   31.931100   35.785100

 Total Charge           Charge          ....    0
 Multiplicity           Mult            ....    1
 Number of Electrons    NEL             ....  134
 Basis Dimension        Dim             ....  322

ORBITAL ENERGIES
----------------

  NO   OCC          E(Eh)            E(eV)
   0   2.0000     -88.966771     -2420.9089
   1   2.0000     -88.966530     -2420.9024
   2   2.0000     -10.329525      -281.0807
   3   2.0000     -10.325540      -280.9722
   4   2.0000     -10.325192      -280.9628
   5   2.0000     -10.314865      -280.6817
   6   2.0000     -10.300908      -280.3020
   7   2.0000     -10.299564      -280.2654
   8   2.0000     -10.296229      -280.1746
   9   2.0000     -10.295365      -280.1511
  10   2.0000     -10.292137      -280.0633
  11   2.0000     -10.288192      -279.9559
  12   2.0000     -10.284617      -279.8587
  13   2.0000     -10.284358      -279.8516
  14   2.0000     -10.282830      -279.8100
  15   2.0000     -10.280115      -279.7362
  16   2.0000      -8.081979      -219.9218
  17   2.0000      -8.081725      -219.9149
  18   2.0000      -6.040484      -164.3699
  19   2.0000      -6.040190      -164.3619
  20   2.0000      -6.036342      -164.2572
  21   2.0000      -6.036227      -164.2541
  22   2.0000      -6.032819      -164.1613
  23   2.0000      -6.032464      -164.1517
  24   2.0000      -1.009632       -27.4735
  25   2.0000      -0.986670       -26.8487
  26   2.0000      -0.913375       -24.8542
  27   2.0000      -0.905525       -24.6406
  28   2.0000      -0.867090       -23.5947
  29   2.0000      -0.853658       -23.2292
  30   2.0000      -0.845878       -23.0175
  31   2.0000      -0.812072       -22.0976
  32   2.0000      -0.778250       -21.1772
  33   2.0000      -0.766631       -20.8611
  34   2.0000      -0.701078       -19.0773
  35   2.0000      -0.696415       -18.9504
  36   2.0000      -0.689646       -18.7662
  37   2.0000      -0.671609       -18.2754
  38   2.0000      -0.636754       -17.3270
  39   2.0000      -0.615972       -16.7615
  40   2.0000      -0.593913       -16.1612
  41   2.0000      -0.570279       -15.5181
  42   2.0000      -0.562499       -15.3064
  43   2.0000      -0.557853       -15.1800
  44   2.0000      -0.527398       -14.3512
  45   2.0000      -0.523223       -14.2376
  46   2.0000      -0.516894       -14.0654
  47   2.0000      -0.514522       -14.0009
  48   2.0000      -0.499845       -13.6015
  49   2.0000      -0.498497       -13.5648
  50   2.0000      -0.493615       -13.4319
  51   2.0000      -0.481783       -13.1100
  52   2.0000      -0.471053       -12.8180
  53   2.0000      -0.459919       -12.5150
  54   2.0000      -0.451899       -12.2968
  55   2.0000      -0.447152       -12.1676
  56   2.0000      -0.444927       -12.1071
  57   2.0000      -0.442520       -12.0416
  58   2.0000      -0.431366       -11.7381
  59   2.0000      -0.424192       -11.5429
  60   2.0000      -0.419079       -11.4037
  61   2.0000      -0.416528       -11.3343
  62   2.0000      -0.409398       -11.1403
  63   2.0000      -0.347488        -9.4556
  64   2.0000      -0.330040        -8.9808
  65   2.0000      -0.326105        -8.8738
  66   2.0000      -0.287642        -7.8271
  67   0.0000       0.028590         0.7780
  68   0.0000       0.067473         1.8360
  69   0.0000       0.104013         2.8303
  70   0.0000       0.116913         3.1814
  71   0.0000       0.136915         3.7256

MULLIKEN ATOMIC CHARGES
-----------------------
   0 S :    0.107761
   1 C :   -0.112483
   2 C :   -0.108110
   3 C :    0.016877
   4 C :   -0.162985
   5 H :    0.033237
   6 C :    0.061301
   7 H :   -0.006848
   8 H :    0.013526
   9 C :   -0.060736
  10 H :    0.047489
  11 H :    0.050905
  12 C :   -0.070133
  13 H :    0.046582
  14 H :    0.040157
  15 H :    0.032527
  16 S :    0.108304
  17 C :   -0.115830
  18 C :    0.023117
  19 C :   -0.057514
  20 C :   -0.129204
  21 H :   -0.020818
  22 C :    0.054908
  23 H :    0.027320
  24 H :    0.014599
  25 C :   -0.065693
  26 H :    0.037596
  27 H :    0.013976
  28 C :   -0.066057
  29 H :    0.046440
  30 H :    0.032776
  31 H :    0.030468
  32 H :    0.053274
  33 H :    0.083272
Sum of atomic charges:   -0.0000000

LOEWDIN ATOMIC CHARGES
----------------------
   0 S :    0.419211
   1 C :   -0.208466
   2 C :   -0.066854
   3 C :   -0.076545
   4 C :   -0.203680
   5 H :    0.037520
   6 C :   -0.039572
   7 H :    0.015292
   8 H :    0.033680
   9 C :   -0.038244
  10 H :    0.034838
  11 H :    0.036682
  12 C :   -0.075732
  13 H :    0.033710
  14 H :    0.026317
  15 H :    0.029890
  16 S :    0.414728
  17 C :   -0.190517
  18 C :   -0.054733
  19 C :   -0.063534
  20 C :   -0.201968
  21 H :    0.010604
  22 C :   -0.033933
  23 H :    0.031902
  24 H :    0.029718
  25 C :   -0.031281
  26 H :    0.029109
  27 H :    0.012677
  28 C :   -0.066284
  29 H :    0.031999
  30 H :    0.023251
  31 H :    0.021587
  32 H :    0.036639
  33 H :    0.041989

  Mayer bond orders larger than 0.100000
B(  0-S ,  1-C ) :   1.1331 B(  0-S ,  4-C ) :   1.1767 B(  1-C ,  2-C ) :   1.5964
B(  1-C ,  4-C ) :   0.1017 B(  1-C , 32-H ) :   0.9689 B(  2-C ,  3-C ) :   1.2561
B(  2-C ,  6-C ) :   1.0150 B(  3-C ,  4-C ) :   1.5502 B(  3-C ,  5-H ) :   0.9819
B(  4-C , 20-C ) :   0.9996 B(  6-C ,  7-H ) :   0.9390 B(  6-C ,  8-H ) :   0.9362
B(  6-C ,  9-C ) :   1.0548 B(  9-C , 10-H ) :   0.9567 B(  9-C , 11-H ) :   0.9504
B(  9-C , 12-C ) :   1.0698 B( 12-C , 13-H ) :   0.9738 B( 12-C , 14-H ) :   0.9745
B( 12-C , 15-H ) :   0.9733 B( 16-S , 17-C ) :   1.1721 B( 16-S , 20-C ) :   1.1372
B( 17-C , 18-C ) :   1.5797 B( 17-C , 33-H ) :   0.9610 B( 18-C , 19-C ) :   1.2489
B( 18-C , 21-H ) :   1.0035 B( 19-C , 20-C ) :   1.6078 B( 19-C , 22-C ) :   1.0830
B( 22-C , 23-H ) :   0.9303 B( 22-C , 24-H ) :   0.9234 B( 22-C , 25-C ) :   1.0523
B( 25-C , 26-H ) :   0.9570 B( 25-C , 27-H ) :   0.9622 B( 25-C , 28-C ) :   1.0816
B( 28-C , 29-H ) :   0.9774 B( 28-C , 30-H ) :   0.9760 B( 28-C , 31-H ) :   0.9754

Dispersion correction           -0.013780465
FINAL SINGLE POINT ENERGY     -1339.856828574280

DIPOLE MOMENT
-------------
                                X             Y             Z
Electronic contribution:    -12.32329     -22.68458       6.77716
Nuclear contribution   :     12.64884      23.03077      -7.02096
                        -----------------------------------------
Total Dipole Moment    :      0.32555       0.34618      -0.24380
                        -----------------------------------------
Magnitude (a.u.)       :      0.53410
Magnitude (Debye)      :      1.35758

Rotational constants in cm-1:     0.019053     0.007746     0.006533
Rotational constants in MHz :   571.196623   232.211736   195.865520

                             ****ORCA TERMINATED NORMALLY****
TOTAL RUN TIME: 0 days 0 hours 0 minutes 34 seconds 179 msec
