                         Program Version 4.2.1 -  RELEASE  -
|  1> ! wB97X-D3 SP def2-SVP
|  2> %pal
|  3> nprocs 16
|  4> end
|  5>
|  6> * xyz 0 1
|  7> S 	 -29.707 	 31.2907 	 45.2731
|  8> C 	 -28.8395 	 30.1183 	 46.182
|  9> C 	 -29.2993 	 30.0627 	 47.5189
| 10> C 	 -30.4829 	 30.8476 	 47.6653
| 11> C 	 -30.8521 	 31.5136 	 46.5154
| 12> H 	 -31.0487 	 30.9339 	 48.6211
| 13> C 	 -28.5921 	 29.2829 	 48.5867
| 14> H 	 -27.5129 	 29.3321 	 48.3833
| 15> H 	 -28.9053 	 28.3329 	 48.4342
| 16> C 	 -28.8609 	 29.6295 	 49.9786
| 17> H 	 -29.9534 	 29.6139 	 49.9939
| 18> H 	 -28.5391 	 28.865 	 50.6739
| 19> C 	 -28.4103 	 31.0612 	 50.326
| 20> H 	 -27.3987 	 31.0606 	 50.6102
| 21> H 	 -28.6479 	 31.6609 	 49.5157
| 22> H 	 -28.9243 	 31.4269 	 51.2629
| 23> S 	 -31.5785 	 34.1429 	 45.9027
| 24> C 	 -33.2788 	 34.574 	 45.6767
| 25> C 	 -34.0198 	 33.4781 	 46.0925
| 26> C 	 -33.3304 	 32.3216 	 46.5488
| 27> C 	 -31.9712 	 32.4796 	 46.3955
| 28> H 	 -35.0357 	 33.4869 	 46.0564
| 29> C 	 -34.0093 	 31.0525 	 47.1324
| 30> H 	 -35.0775 	 31.1966 	 47.1276
| 31> H 	 -33.7006 	 30.8616 	 48.1593
| 32> C 	 -33.7533 	 29.7897 	 46.2901
| 33> H 	 -32.753 	 29.5592 	 46.4558
| 34> H 	 -33.8421 	 30.0898 	 45.2001
| 35> C 	 -34.6923 	 28.6845 	 46.6299
| 36> H 	 -34.7241 	 27.8018 	 45.9393
| 37> H 	 -35.6295 	 29.1197 	 46.4369
| 38> H 	 -34.6425 	 28.3595 	 47.6053
| 39> H 	 -27.9463 	 29.6433 	 45.8083
| 40> H 	 -33.6113 	 35.4019 	 45.2215
| 41> *
| 42>
| 43>                          ****END OF INPUT****

CARTESIAN COORDINATES (ANGSTROEM)
---------------------------------
  S    -29.707000   31.290700   45.273100
  C    -28.839500   30.118300   46.182000
  C    -29.299300   30.062700   47.518900
  C    -30.482900   30.847600   47.665300
  C    -30.852100   31.513600   46.515400
  H    -31.048700   30.933900   48.621100
  C    -28.592100   29.282900   48.586700
  H    -27.512900   29.332100   48.383300
  H    -28.905300   28.332900   48.434200
  C    -28.860900   29.629500   49.978600
  H    -29.953400   29.613900   49.993900
  H    -28.539100   28.865000   50.673900
  C    -28.410300   31.061200   50.326000
  H    -27.398700   31.060600   50.610200
  H    -28.647900   31.660900   49.515700
  H    -28.924300   31.426900   51.262900
  S    -31.578500   34.142900   45.902700
  C    -33.278800   34.574000   45.676700
  C    -34.019800   33.478100   46.092500
  C    -33.330400   32.321600   46.548800
  C    -31.971200   32.479600   46.395500
  H    -35.035700   33.486900   46.056400
  C    -34.009300   31.052500   47.132400
  H    -35.077500   31.196600   47.127600
  H    -33.700600   30.861600   48.159300
  C    -33.753300   29.789700   46.290100
  H    -32.753000   29.559200   46.455800
  H    -33.842100   30.089800   45.200100
  C    -34.692300   28.684500   46.629900
  H    -34.724100   27.801800   45.939300
  H    -35.629500   29.119700   46.436900
  H    -34.642500   28.359500   47.605300
  H    -27.946300   29.643300   45.808300
  H    -33.611300   35.401900   45.221500

 Total Charge           Charge          ....    0
 Multiplicity           Mult            ....    1
 Number of Electrons    NEL             ....  134
 Basis Dimension        Dim             ....  322

ORBITAL ENERGIES
----------------

  NO   OCC          E(Eh)            E(eV)
   0   2.0000     -88.969637     -2420.9869
   1   2.0000     -88.962412     -2420.7903
   2   2.0000     -10.328548      -281.0541
   3   2.0000     -10.328007      -281.0394
   4   2.0000     -10.312791      -280.6253
   5   2.0000     -10.311807      -280.5985
   6   2.0000     -10.304195      -280.3914
   7   2.0000     -10.302473      -280.3445
   8   2.0000     -10.298065      -280.2246
   9   2.0000     -10.292573      -280.0751
  10   2.0000     -10.287592      -279.9396
  11   2.0000     -10.280911      -279.7578
  12   2.0000     -10.279008      -279.7060
  13   2.0000     -10.275341      -279.6062
  14   2.0000     -10.269428      -279.4453
  15   2.0000     -10.266198      -279.3574
  16   2.0000      -8.085340      -220.0133
  17   2.0000      -8.076502      -219.7728
  18   2.0000      -6.043601      -164.4547
  19   2.0000      -6.039585      -164.3455
  20   2.0000      -6.036433      -164.2597
  21   2.0000      -6.035105      -164.2236
  22   2.0000      -6.031005      -164.1120
  23   2.0000      -6.027298      -164.0111
  24   2.0000      -1.010487       -27.4968
  25   2.0000      -0.984914       -26.8009
  26   2.0000      -0.929223       -25.2854
  27   2.0000      -0.911822       -24.8119
  28   2.0000      -0.867731       -23.6122
  29   2.0000      -0.852115       -23.1872
  30   2.0000      -0.845724       -23.0133
  31   2.0000      -0.818134       -22.2626
  32   2.0000      -0.788400       -21.4534
  33   2.0000      -0.777478       -21.1563
  34   2.0000      -0.712788       -19.3960
  35   2.0000      -0.699316       -19.0293
  36   2.0000      -0.690253       -18.7828
  37   2.0000      -0.666896       -18.1472
  38   2.0000      -0.640206       -17.4209
  39   2.0000      -0.628692       -17.1076
  40   2.0000      -0.600107       -16.3297
  41   2.0000      -0.576269       -15.6811
  42   2.0000      -0.570594       -15.5267
  43   2.0000      -0.567833       -15.4515
  44   2.0000      -0.548016       -14.9123
  45   2.0000      -0.530607       -14.4386
  46   2.0000      -0.518786       -14.1169
  47   2.0000      -0.513285       -13.9672
  48   2.0000      -0.503116       -13.6905
  49   2.0000      -0.498255       -13.5582
  50   2.0000      -0.494451       -13.4547
  51   2.0000      -0.484563       -13.1856
  52   2.0000      -0.471301       -12.8248
  53   2.0000      -0.468963       -12.7611
  54   2.0000      -0.462287       -12.5795
  55   2.0000      -0.456884       -12.4325
  56   2.0000      -0.446509       -12.1501
  57   2.0000      -0.435953       -11.8629
  58   2.0000      -0.429769       -11.6946
  59   2.0000      -0.425082       -11.5671
  60   2.0000      -0.418753       -11.3948
  61   2.0000      -0.415883       -11.3168
  62   2.0000      -0.410530       -11.1711
  63   2.0000      -0.342568        -9.3217
  64   2.0000      -0.331053        -9.0084
  65   2.0000      -0.328515        -8.9393
  66   2.0000      -0.294581        -8.0160
  67   0.0000       0.029744         0.8094
  68   0.0000       0.065414         1.7800
  69   0.0000       0.116960         3.1826
  70   0.0000       0.125089         3.4038
  71   0.0000       0.130831         3.5601

MULLIKEN ATOMIC CHARGES
-----------------------
   0 S :    0.141222
   1 C :   -0.132674
   2 C :   -0.138067
   3 C :    0.003928
   4 C :   -0.159166
   5 H :    0.033033
   6 C :    0.150754
   7 H :    0.021869
   8 H :    0.011564
   9 C :   -0.088419
  10 H :    0.010571
  11 H :    0.028544
  12 C :   -0.019435
  13 H :    0.021578
  14 H :    0.035714
  15 H :    0.032143
  16 S :    0.089998
  17 C :   -0.040734
  18 C :    0.001625
  19 C :   -0.023365
  20 C :   -0.174611
  21 H :   -0.025687
  22 C :    0.080121
  23 H :    0.000215
  24 H :    0.033645
  25 C :   -0.089736
  26 H :    0.029400
  27 H :    0.038479
  28 C :    0.014208
  29 H :    0.036230
  30 H :    0.002540
  31 H :    0.014227
  32 H :    0.046240
  33 H :    0.014047
Sum of atomic charges:    0.0000000

LOEWDIN ATOMIC CHARGES
----------------------
   0 S :    0.454751
   1 C :   -0.211945
   2 C :   -0.056509
   3 C :   -0.074512
   4 C :   -0.215566
   5 H :    0.037837
   6 C :   -0.030299
   7 H :    0.031696
   8 H :    0.024768
   9 C :   -0.041355
  10 H :    0.020586
  11 H :    0.026123
  12 C :   -0.053793
  13 H :    0.019407
  14 H :    0.018334
  15 H :    0.033228
  16 S :    0.383096
  17 C :   -0.160749
  18 C :   -0.054577
  19 C :   -0.057360
  20 C :   -0.182548
  21 H :    0.011429
  22 C :   -0.020876
  23 H :    0.022129
  24 H :    0.029430
  25 C :   -0.038329
  26 H :    0.011676
  27 H :    0.033195
  28 C :   -0.058518
  29 H :    0.034702
  30 H :    0.019518
  31 H :    0.013949
  32 H :    0.025031
  33 H :    0.006052

  Mayer bond orders larger than 0.100000
B(  0-S ,  1-C ) :   1.1712 B(  0-S ,  4-C ) :   1.1886 B(  1-C ,  2-C ) :   1.5610
B(  1-C ,  4-C ) :   0.1022 B(  1-C , 32-H ) :   0.9745 B(  2-C ,  3-C ) :   1.2843
B(  2-C ,  6-C ) :   0.9963 B(  3-C ,  4-C ) :   1.5268 B(  3-C ,  5-H ) :   0.9838
B(  4-C , 20-C ) :   1.0148 B(  6-C ,  7-H ) :   0.9354 B(  6-C ,  8-H ) :   0.9137
B(  6-C ,  9-C ) :   1.1009 B(  9-C , 10-H ) :   0.9445 B(  9-C , 11-H ) :   0.9498
B(  9-C , 12-C ) :   1.0771 B( 12-C , 13-H ) :   0.9743 B( 12-C , 14-H ) :   0.9759
B( 12-C , 15-H ) :   0.9743 B( 16-S , 17-C ) :   1.1366 B( 16-S , 20-C ) :   1.1548
B( 17-C , 18-C ) :   1.5845 B( 17-C , 20-C ) :   0.1040 B( 17-C , 33-H ) :   0.9895
B( 18-C , 19-C ) :   1.2654 B( 18-C , 21-H ) :   0.9976 B( 19-C , 20-C ) :   1.5923
B( 19-C , 22-C ) :   1.0341 B( 22-C , 23-H ) :   0.9355 B( 22-C , 24-H ) :   0.9345
B( 22-C , 25-C ) :   1.0537 B( 25-C , 26-H ) :   0.9533 B( 25-C , 27-H ) :   0.9579
B( 25-C , 28-C ) :   1.0872 B( 28-C , 29-H ) :   0.9707 B( 28-C , 30-H ) :   0.9699
B( 28-C , 31-H ) :   0.9711

Dispersion correction           -0.014828956
FINAL SINGLE POINT ENERGY     -1339.857544276168

DIPOLE MOMENT
-------------
                                X             Y             Z
Electronic contribution:      4.88024      17.55004     -16.44736
Nuclear contribution   :     -5.01149     -18.01590      16.80692
                        -----------------------------------------
Total Dipole Moment    :     -0.13126      -0.46585       0.35956
                        -----------------------------------------
Magnitude (a.u.)       :      0.60294
Magnitude (Debye)      :      1.53254

Rotational constants in cm-1:     0.017228     0.009484     0.007896
Rotational constants in MHz :   516.484234   284.317129   236.701670

                             ****ORCA TERMINATED NORMALLY****
TOTAL RUN TIME: 0 days 0 hours 0 minutes 33 seconds 82 msec
