                         Program Version 4.2.1 -  RELEASE  -
|  1> ! wB97X-D3 SP def2-SVP
|  2> %pal
|  3> nprocs 16
|  4> end
|  5>
|  6> * xyz 0 1
|  7> S 	 -41.3378 	 52.5021 	 107.688
|  8> C 	 -40.0637 	 53.7143 	 107.928
|  9> C 	 -38.9648 	 53.087 	 108.443
| 10> C 	 -39.1358 	 51.6687 	 108.434
| 11> C 	 -40.3198 	 51.154 	 107.955
| 12> H 	 -38.4419 	 50.8623 	 108.741
| 13> C 	 -37.5149 	 53.6603 	 108.637
| 14> H 	 -37.558 	 54.6932 	 108.488
| 15> H 	 -36.9321 	 53.304 	 107.795
| 16> C 	 -36.8279 	 53.5068 	 109.963
| 17> H 	 -36.6172 	 52.4752 	 110.23
| 18> H 	 -35.8187 	 53.9325 	 109.699
| 19> C 	 -37.4991 	 54.3704 	 111.067
| 20> H 	 -37.6745 	 55.4393 	 110.918
| 21> H 	 -38.5003 	 54.0038 	 111.3
| 22> H 	 -36.9202 	 54.3668 	 112.04
| 23> S 	 -41.931 	 49.1696 	 108.98
| 24> C 	 -41.6024 	 47.4952 	 108.634
| 25> C 	 -40.6205 	 47.3462 	 107.701
| 26> C 	 -40.0734 	 48.5938 	 107.339
| 27> C 	 -40.7027 	 49.728 	 107.899
| 28> H 	 -40.2927 	 46.3968 	 107.286
| 29> C 	 -38.8724 	 48.6793 	 106.453
| 30> H 	 -38.7202 	 49.6999 	 106.09
| 31> H 	 -39.1269 	 47.9405 	 105.679
| 32> C 	 -37.5202 	 48.1304 	 107.024
| 33> H 	 -37.6201 	 47.161 	 107.57
| 34> H 	 -37.1342 	 48.8458 	 107.735
| 35> C 	 -36.3133 	 47.9765 	 105.997
| 36> H 	 -36.0067 	 48.9418 	 105.704
| 37> H 	 -36.6194 	 47.4032 	 105.068
| 38> H 	 -35.4707 	 47.4531 	 106.339
| 39> H 	 -40.151 	 54.7644 	 107.657
| 40> H 	 -41.8962 	 46.5726 	 109.073
| 41> *
| 42>
| 43>                          ****END OF INPUT****

CARTESIAN COORDINATES (ANGSTROEM)
---------------------------------
  S    -41.337800   52.502100  107.688000
  C    -40.063700   53.714300  107.928000
  C    -38.964800   53.087000  108.443000
  C    -39.135800   51.668700  108.434000
  C    -40.319800   51.154000  107.955000
  H    -38.441900   50.862300  108.741000
  C    -37.514900   53.660300  108.637000
  H    -37.558000   54.693200  108.488000
  H    -36.932100   53.304000  107.795000
  C    -36.827900   53.506800  109.963000
  H    -36.617200   52.475200  110.230000
  H    -35.818700   53.932500  109.699000
  C    -37.499100   54.370400  111.067000
  H    -37.674500   55.439300  110.918000
  H    -38.500300   54.003800  111.300000
  H    -36.920200   54.366800  112.040000
  S    -41.931000   49.169600  108.980000
  C    -41.602400   47.495200  108.634000
  C    -40.620500   47.346200  107.701000
  C    -40.073400   48.593800  107.339000
  C    -40.702700   49.728000  107.899000
  H    -40.292700   46.396800  107.286000
  C    -38.872400   48.679300  106.453000
  H    -38.720200   49.699900  106.090000
  H    -39.126900   47.940500  105.679000
  C    -37.520200   48.130400  107.024000
  H    -37.620100   47.161000  107.570000
  H    -37.134200   48.845800  107.735000
  C    -36.313300   47.976500  105.997000
  H    -36.006700   48.941800  105.704000
  H    -36.619400   47.403200  105.068000
  H    -35.470700   47.453100  106.339000
  H    -40.151000   54.764400  107.657000
  H    -41.896200   46.572600  109.073000

 Total Charge           Charge          ....    0
 Multiplicity           Mult            ....    1
 Number of Electrons    NEL             ....  134
 Basis Dimension        Dim             ....  322

ORBITAL ENERGIES
----------------

  NO   OCC          E(Eh)            E(eV)
   0   2.0000     -88.968836     -2420.9651
   1   2.0000     -88.962449     -2420.7913
   2   2.0000     -10.329328      -281.0753
   3   2.0000     -10.329094      -281.0689
   4   2.0000     -10.319554      -280.8093
   5   2.0000     -10.315072      -280.6874
   6   2.0000     -10.304433      -280.3979
   7   2.0000     -10.303170      -280.3635
   8   2.0000     -10.294523      -280.1282
   9   2.0000     -10.294121      -280.1173
  10   2.0000     -10.292476      -280.0725
  11   2.0000     -10.291885      -280.0564
  12   2.0000     -10.291425      -280.0439
  13   2.0000     -10.290580      -280.0209
  14   2.0000     -10.283591      -279.8307
  15   2.0000     -10.278554      -279.6937
  16   2.0000      -8.083782      -219.9709
  17   2.0000      -8.077688      -219.8051
  18   2.0000      -6.042411      -164.4224
  19   2.0000      -6.038105      -164.3052
  20   2.0000      -6.036299      -164.2560
  21   2.0000      -6.034534      -164.2080
  22   2.0000      -6.032004      -164.1392
  23   2.0000      -6.028391      -164.0409
  24   2.0000      -1.011900       -27.5352
  25   2.0000      -0.991481       -26.9796
  26   2.0000      -0.913514       -24.8580
  27   2.0000      -0.903387       -24.5824
  28   2.0000      -0.874679       -23.8012
  29   2.0000      -0.848871       -23.0990
  30   2.0000      -0.839732       -22.8503
  31   2.0000      -0.818838       -22.2817
  32   2.0000      -0.785591       -21.3770
  33   2.0000      -0.773411       -21.0456
  34   2.0000      -0.710996       -19.3472
  35   2.0000      -0.700580       -19.0638
  36   2.0000      -0.695597       -18.9282
  37   2.0000      -0.662658       -18.0318
  38   2.0000      -0.646360       -17.5883
  39   2.0000      -0.617771       -16.8104
  40   2.0000      -0.591850       -16.1051
  41   2.0000      -0.575075       -15.6486
  42   2.0000      -0.561726       -15.2853
  43   2.0000      -0.556169       -15.1341
  44   2.0000      -0.531027       -14.4500
  45   2.0000      -0.524086       -14.2611
  46   2.0000      -0.518370       -14.1056
  47   2.0000      -0.514151       -13.9908
  48   2.0000      -0.511414       -13.9163
  49   2.0000      -0.501609       -13.6495
  50   2.0000      -0.488726       -13.2989
  51   2.0000      -0.475754       -12.9459
  52   2.0000      -0.470225       -12.7955
  53   2.0000      -0.468417       -12.7463
  54   2.0000      -0.459609       -12.5066
  55   2.0000      -0.455608       -12.3977
  56   2.0000      -0.439908       -11.9705
  57   2.0000      -0.437210       -11.8971
  58   2.0000      -0.432725       -11.7751
  59   2.0000      -0.428334       -11.6556
  60   2.0000      -0.424057       -11.5392
  61   2.0000      -0.412582       -11.2269
  62   2.0000      -0.403665       -10.9843
  63   2.0000      -0.350632        -9.5412
  64   2.0000      -0.330352        -8.9893
  65   2.0000      -0.325318        -8.8524
  66   2.0000      -0.298656        -8.1269
  67   0.0000       0.037412         1.0180
  68   0.0000       0.061509         1.6737
  69   0.0000       0.116562         3.1718
  70   0.0000       0.120335         3.2745
  71   0.0000       0.128299         3.4912

MULLIKEN ATOMIC CHARGES
-----------------------
   0 S :    0.095952
   1 C :   -0.138915
   2 C :   -0.044302
   3 C :    0.005410
   4 C :   -0.164774
   5 H :    0.017039
   6 C :    0.068382
   7 H :   -0.007777
   8 H :    0.040924
   9 C :   -0.047897
  10 H :    0.036171
  11 H :    0.032111
  12 C :   -0.083506
  13 H :    0.029971
  14 H :    0.040696
  15 H :    0.041106
  16 S :    0.121361
  17 C :   -0.052155
  18 C :   -0.049528
  19 C :   -0.054165
  20 C :   -0.135279
  21 H :    0.022008
  22 C :    0.070661
  23 H :    0.037343
  24 H :    0.024426
  25 C :   -0.102066
  26 H :    0.033921
  27 H :    0.024143
  28 C :   -0.038092
  29 H :    0.021468
  30 H :    0.029269
  31 H :    0.027208
  32 H :    0.057692
  33 H :    0.041196
Sum of atomic charges:    0.0000000

LOEWDIN ATOMIC CHARGES
----------------------
   0 S :    0.405648
   1 C :   -0.183962
   2 C :   -0.069976
   3 C :   -0.072575
   4 C :   -0.213147
   5 H :    0.032069
   6 C :   -0.025464
   7 H :    0.019476
   8 H :    0.034287
   9 C :   -0.039977
  10 H :    0.023591
  11 H :    0.034050
  12 C :   -0.076246
  13 H :    0.026533
  14 H :    0.027777
  15 H :    0.033166
  16 S :    0.429757
  17 C :   -0.183853
  18 C :   -0.072210
  19 C :   -0.055013
  20 C :   -0.213638
  21 H :    0.034835
  22 C :   -0.033263
  23 H :    0.033021
  24 H :    0.034807
  25 C :   -0.040502
  26 H :    0.024704
  27 H :    0.017314
  28 C :   -0.062217
  29 H :    0.017249
  30 H :    0.028564
  31 H :    0.019866
  32 H :    0.034079
  33 H :    0.031251

  Mayer bond orders larger than 0.100000
B(  0-S ,  1-C ) :   1.1429 B(  0-S ,  4-C ) :   1.1482 B(  1-C ,  2-C ) :   1.6013
B(  1-C , 32-H ) :   0.9723 B(  2-C ,  3-C ) :   1.2189 B(  2-C ,  6-C ) :   1.0065
B(  3-C ,  4-C ) :   1.5947 B(  3-C ,  5-H ) :   0.9911 B(  4-C , 20-C ) :   1.0088
B(  6-C ,  7-H ) :   0.9371 B(  6-C ,  8-H ) :   0.9482 B(  6-C ,  9-C ) :   1.0756
B(  9-C , 10-H ) :   0.9596 B(  9-C , 11-H ) :   0.9504 B(  9-C , 12-C ) :   1.0601
B( 12-C , 13-H ) :   0.9758 B( 12-C , 14-H ) :   0.9771 B( 12-C , 15-H ) :   0.9761
B( 16-S , 17-C ) :   1.1674 B( 16-S , 20-C ) :   1.1416 B( 17-C , 18-C ) :   1.5966
B( 17-C , 33-H ) :   0.9624 B( 18-C , 19-C ) :   1.2694 B( 18-C , 21-H ) :   0.9871
B( 19-C , 20-C ) :   1.5774 B( 19-C , 22-C ) :   1.0602 B( 22-C , 23-H ) :   0.9360
B( 22-C , 24-H ) :   0.9284 B( 22-C , 25-C ) :   1.0546 B( 25-C , 26-H ) :   0.9597
B( 25-C , 27-H ) :   0.9559 B( 25-C , 28-C ) :   1.0727 B( 28-C , 29-H ) :   0.9786
B( 28-C , 30-H ) :   0.9773 B( 28-C , 31-H ) :   0.9769

Dispersion correction           -0.014058887
FINAL SINGLE POINT ENERGY     -1339.859998453877

DIPOLE MOMENT
-------------
                                X             Y             Z
Electronic contribution:    -28.54749      -1.53523      -0.33793
Nuclear contribution   :     29.37257       1.40459       0.32151
                        -----------------------------------------
Total Dipole Moment    :      0.82508      -0.13064      -0.01641
                        -----------------------------------------
Magnitude (a.u.)       :      0.83552
Magnitude (Debye)      :      2.12372

Rotational constants in cm-1:     0.016410     0.008943     0.006877
Rotational constants in MHz :   491.947360   268.100083   206.164218

                             ****ORCA TERMINATED NORMALLY****
TOTAL RUN TIME: 0 days 0 hours 0 minutes 29 seconds 667 msec
