                         Program Version 4.2.1 -  RELEASE  -
|  1> ! wB97X-D3 SP def2-SVP
|  2> %pal
|  3> nprocs 16
|  4> end
|  5>
|  6> * xyz 0 1
|  7> S 	 -93.5609 	 41.3776 	 115.637
|  8> C 	 -92.6827 	 41.9746 	 117.025
|  9> C 	 -93.1221 	 43.252 	 117.282
| 10> C 	 -94.2597 	 43.6737 	 116.503
| 11> C 	 -94.7384 	 42.7388 	 115.641
| 12> H 	 -94.7893 	 44.6234 	 116.634
| 13> C 	 -92.4467 	 44.2243 	 118.221
| 14> H 	 -92.7009 	 45.2448 	 117.908
| 15> H 	 -91.471 	 44.1758 	 117.931
| 16> C 	 -92.5158 	 43.8577 	 119.644
| 17> H 	 -92.0053 	 42.9171 	 119.875
| 18> H 	 -91.9768 	 44.612 	 120.197
| 19> C 	 -94.0089 	 43.7307 	 120.284
| 20> H 	 -94.7248 	 43.31 	 119.589
| 21> H 	 -93.9712 	 43.1249 	 121.177
| 22> H 	 -94.3523 	 44.7237 	 120.565
| 23> S 	 -95.3472 	 43.4364 	 113.129
| 24> C 	 -97.0239 	 43.5672 	 112.647
| 25> C 	 -97.8908 	 43.2913 	 113.654
| 26> C 	 -97.2238 	 42.8002 	 114.794
| 27> C 	 -95.8566 	 42.8042 	 114.709
| 28> H 	 -98.8962 	 43.4336 	 113.422
| 29> C 	 -98.1115 	 42.5369 	 116.046
| 30> H 	 -97.5098 	 41.7191 	 116.581
| 31> H 	 -99.0071 	 41.9531 	 115.742
| 32> C 	 -98.3211 	 43.7204 	 117.005
| 33> H 	 -99.0053 	 44.4915 	 116.567
| 34> H 	 -97.3872 	 44.2769 	 117.12
| 35> C 	 -98.7766 	 43.3232 	 118.428
| 36> H 	 -99.6364 	 42.6919 	 118.452
| 37> H 	 -99.0227 	 44.2614 	 118.927
| 38> H 	 -97.9314 	 42.9376 	 119.059
| 39> H 	 -91.9758 	 41.4282 	 117.665
| 40> H 	 -97.2777 	 44.0529 	 111.626
| 41> *
| 42>
| 43>                          ****END OF INPUT****

CARTESIAN COORDINATES (ANGSTROEM)
---------------------------------
  S    -93.560900   41.377600  115.637000
  C    -92.682700   41.974600  117.025000
  C    -93.122100   43.252000  117.282000
  C    -94.259700   43.673700  116.503000
  C    -94.738400   42.738800  115.641000
  H    -94.789300   44.623400  116.634000
  C    -92.446700   44.224300  118.221000
  H    -92.700900   45.244800  117.908000
  H    -91.471000   44.175800  117.931000
  C    -92.515800   43.857700  119.644000
  H    -92.005300   42.917100  119.875000
  H    -91.976800   44.612000  120.197000
  C    -94.008900   43.730700  120.284000
  H    -94.724800   43.310000  119.589000
  H    -93.971200   43.124900  121.177000
  H    -94.352300   44.723700  120.565000
  S    -95.347200   43.436400  113.129000
  C    -97.023900   43.567200  112.647000
  C    -97.890800   43.291300  113.654000
  C    -97.223800   42.800200  114.794000
  C    -95.856600   42.804200  114.709000
  H    -98.896200   43.433600  113.422000
  C    -98.111500   42.536900  116.046000
  H    -97.509800   41.719100  116.581000
  H    -99.007100   41.953100  115.742000
  C    -98.321100   43.720400  117.005000
  H    -99.005300   44.491500  116.567000
  H    -97.387200   44.276900  117.120000
  C    -98.776600   43.323200  118.428000
  H    -99.636400   42.691900  118.452000
  H    -99.022700   44.261400  118.927000
  H    -97.931400   42.937600  119.059000
  H    -91.975800   41.428200  117.665000
  H    -97.277700   44.052900  111.626000

 Total Charge           Charge          ....    0
 Multiplicity           Mult            ....    1
 Number of Electrons    NEL             ....  134
 Basis Dimension        Dim             ....  322

ORBITAL ENERGIES
----------------

  NO   OCC          E(Eh)            E(eV)
   0   2.0000     -88.961248     -2420.7586
   1   2.0000     -88.959424     -2420.7090
   2   2.0000     -10.331029      -281.1216
   3   2.0000     -10.327314      -281.0205
   4   2.0000     -10.321105      -280.8515
   5   2.0000     -10.315341      -280.6947
   6   2.0000     -10.306952      -280.4664
   7   2.0000     -10.299515      -280.2640
   8   2.0000     -10.297253      -280.2025
   9   2.0000     -10.294337      -280.1232
  10   2.0000     -10.293106      -280.0896
  11   2.0000     -10.289002      -279.9780
  12   2.0000     -10.285915      -279.8940
  13   2.0000     -10.280096      -279.7356
  14   2.0000     -10.279977      -279.7324
  15   2.0000     -10.277697      -279.6704
  16   2.0000      -8.076238      -219.7656
  17   2.0000      -8.073745      -219.6978
  18   2.0000      -6.034682      -164.2120
  19   2.0000      -6.032438      -164.1510
  20   2.0000      -6.030763      -164.1054
  21   2.0000      -6.028228      -164.0364
  22   2.0000      -6.026974      -164.0023
  23   2.0000      -6.024386      -163.9319
  24   2.0000      -1.006165       -27.3792
  25   2.0000      -0.984844       -26.7990
  26   2.0000      -0.914490       -24.8845
  27   2.0000      -0.900445       -24.5024
  28   2.0000      -0.871030       -23.7019
  29   2.0000      -0.848924       -23.1004
  30   2.0000      -0.836846       -22.7718
  31   2.0000      -0.816645       -22.2220
  32   2.0000      -0.783958       -21.3326
  33   2.0000      -0.771815       -21.0022
  34   2.0000      -0.706736       -19.2313
  35   2.0000      -0.705200       -19.1895
  36   2.0000      -0.691416       -18.8144
  37   2.0000      -0.660627       -17.9766
  38   2.0000      -0.639342       -17.3974
  39   2.0000      -0.614715       -16.7272
  40   2.0000      -0.591061       -16.0836
  41   2.0000      -0.576804       -15.6956
  42   2.0000      -0.556264       -15.1367
  43   2.0000      -0.552954       -15.0466
  44   2.0000      -0.541987       -14.7482
  45   2.0000      -0.525563       -14.3013
  46   2.0000      -0.522053       -14.2058
  47   2.0000      -0.509680       -13.8691
  48   2.0000      -0.500219       -13.6117
  49   2.0000      -0.495963       -13.4958
  50   2.0000      -0.489163       -13.3108
  51   2.0000      -0.478588       -13.0230
  52   2.0000      -0.470583       -12.8052
  53   2.0000      -0.465542       -12.6680
  54   2.0000      -0.462890       -12.5959
  55   2.0000      -0.445510       -12.1230
  56   2.0000      -0.442072       -12.0294
  57   2.0000      -0.440764       -11.9938
  58   2.0000      -0.434713       -11.8291
  59   2.0000      -0.414882       -11.2895
  60   2.0000      -0.412554       -11.2262
  61   2.0000      -0.410868       -11.1803
  62   2.0000      -0.407203       -11.0805
  63   2.0000      -0.341069        -9.2809
  64   2.0000      -0.327822        -8.9205
  65   2.0000      -0.322902        -8.7866
  66   2.0000      -0.307119        -8.3571
  67   0.0000       0.043346         1.1795
  68   0.0000       0.047832         1.3016
  69   0.0000       0.115632         3.1465
  70   0.0000       0.115759         3.1500
  71   0.0000       0.126812         3.4507

MULLIKEN ATOMIC CHARGES
-----------------------
   0 S :    0.093656
   1 C :   -0.119971
   2 C :   -0.139834
   3 C :    0.052486
   4 C :   -0.166463
   5 H :    0.022561
   6 C :    0.142548
   7 H :    0.016132
   8 H :    0.003237
   9 C :   -0.078852
  10 H :    0.027388
  11 H :    0.026075
  12 C :   -0.061097
  13 H :    0.042953
  14 H :    0.032660
  15 H :    0.026888
  16 S :    0.096318
  17 C :   -0.123227
  18 C :   -0.015663
  19 C :   -0.012182
  20 C :   -0.169266
  21 H :    0.000257
  22 C :    0.034696
  23 H :    0.033823
  24 H :    0.034056
  25 C :   -0.057660
  26 H :    0.031784
  27 H :    0.021491
  28 C :   -0.052758
  29 H :    0.035671
  30 H :    0.027054
  31 H :    0.047598
  32 H :    0.061857
  33 H :    0.085781
Sum of atomic charges:   -0.0000000

LOEWDIN ATOMIC CHARGES
----------------------
   0 S :    0.380252
   1 C :   -0.198628
   2 C :   -0.064602
   3 C :   -0.063907
   4 C :   -0.186443
   5 H :    0.034182
   6 C :   -0.033425
   7 H :    0.032993
   8 H :    0.025030
   9 C :   -0.034135
  10 H :    0.023459
  11 H :    0.023662
  12 C :   -0.063943
  13 H :    0.023403
  14 H :    0.023993
  15 H :    0.022091
  16 S :    0.395904
  17 C :   -0.183681
  18 C :   -0.074964
  19 C :   -0.049524
  20 C :   -0.195883
  21 H :    0.026887
  22 C :   -0.039866
  23 H :    0.038481
  24 H :    0.032443
  25 C :   -0.044552
  26 H :    0.026424
  27 H :    0.026230
  28 C :   -0.065750
  29 H :    0.020106
  30 H :    0.028100
  31 H :    0.033419
  32 H :    0.037791
  33 H :    0.044456

  Mayer bond orders larger than 0.100000
B(  0-S ,  1-C ) :   1.1325 B(  0-S ,  4-C ) :   1.1357 B(  1-C ,  2-C ) :   1.6245
B(  1-C ,  4-C ) :   0.1007 B(  1-C , 32-H ) :   0.9674 B(  2-C ,  3-C ) :   1.2187
B(  2-C ,  6-C ) :   1.0000 B(  3-C ,  4-C ) :   1.6081 B(  3-C ,  5-H ) :   0.9921
B(  4-C , 20-C ) :   0.9982 B(  6-C ,  7-H ) :   0.9427 B(  6-C ,  8-H ) :   0.9214
B(  6-C ,  9-C ) :   1.0865 B(  9-C , 10-H ) :   0.9588 B(  9-C , 11-H ) :   0.9551
B(  9-C , 12-C ) :   1.0578 B( 12-C , 13-H ) :   0.9802 B( 12-C , 14-H ) :   0.9793
B( 12-C , 15-H ) :   0.9796 B( 16-S , 17-C ) :   1.1612 B( 16-S , 20-C ) :   1.1432
B( 17-C , 18-C ) :   1.6242 B( 17-C , 33-H ) :   0.9518 B( 18-C , 19-C ) :   1.2098
B( 18-C , 21-H ) :   1.0096 B( 19-C , 20-C ) :   1.6408 B( 19-C , 22-C ) :   1.0344
B( 22-C , 23-H ) :   0.9402 B( 22-C , 24-H ) :   0.9380 B( 22-C , 25-C ) :   1.0519
B( 25-C , 26-H ) :   0.9553 B( 25-C , 27-H ) :   0.9519 B( 25-C , 28-C ) :   1.0844
B( 28-C , 29-H ) :   0.9778 B( 28-C , 30-H ) :   0.9718 B( 28-C , 31-H ) :   0.9746

Dispersion correction           -0.014850579
FINAL SINGLE POINT ENERGY     -1339.860380410274

DIPOLE MOMENT
-------------
                                X             Y             Z
Electronic contribution:      8.38209      -7.92743     -27.21753
Nuclear contribution   :     -8.62487       8.45346      27.71408
                        -----------------------------------------
Total Dipole Moment    :     -0.24277       0.52603       0.49655
                        -----------------------------------------
Magnitude (a.u.)       :      0.76303
Magnitude (Debye)      :      1.93946

Rotational constants in cm-1:     0.017581     0.009676     0.007110
Rotational constants in MHz :   527.052368   290.090803   213.166783

                             ****ORCA TERMINATED NORMALLY****
TOTAL RUN TIME: 0 days 0 hours 0 minutes 34 seconds 970 msec
