                         Program Version 4.2.1 -  RELEASE  -
|  1> ! wB97X-D3 SP def2-SVP
|  2> %pal
|  3> nprocs 16
|  4> end
|  5>
|  6> * xyz 0 1
|  7> S 	 -69.7988 	 38.3619 	 120.727
|  8> C 	 -69.7408 	 40.0804 	 121.031
|  9> C 	 -68.5224 	 40.4331 	 121.63
| 10> C 	 -67.602 	 39.3626 	 121.728
| 11> C 	 -68.1362 	 38.1301 	 121.307
| 12> H 	 -66.6376 	 39.4785 	 122.18
| 13> C 	 -68.0556 	 41.7702 	 122.03
| 14> H 	 -68.829 	 42.4673 	 121.692
| 15> H 	 -67.1733 	 42.0071 	 121.487
| 16> C 	 -67.868 	 42.1218 	 123.527
| 17> H 	 -68.7949 	 42.4269 	 124.021
| 18> H 	 -67.392 	 41.3069 	 124.055
| 19> C 	 -66.9543 	 43.4197 	 123.705
| 20> H 	 -66.8192 	 43.7817 	 124.71
| 21> H 	 -65.9592 	 43.3074 	 123.216
| 22> H 	 -67.2228 	 44.2594 	 123.135
| 23> S 	 -67.4696 	 36.1645 	 119.663
| 24> C 	 -66.5219 	 34.7902 	 120.17
| 25> C 	 -65.9315 	 35.1262 	 121.389
| 26> C 	 -66.5751 	 36.2453 	 122.08
| 27> C 	 -67.4573 	 36.8887 	 121.224
| 28> H 	 -65.2133 	 34.3913 	 121.853
| 29> C 	 -66.272 	 36.745 	 123.506
| 30> H 	 -66.7142 	 35.8593 	 124.168
| 31> H 	 -66.9822 	 37.5131 	 123.61
| 32> C 	 -64.8233 	 37.1482 	 123.823
| 33> H 	 -64.2054 	 36.2658 	 123.63
| 34> H 	 -64.6688 	 37.3357 	 124.913
| 35> C 	 -64.2585 	 38.4094 	 123.072
| 36> H 	 -64.6933 	 39.3663 	 123.532
| 37> H 	 -64.6741 	 38.3232 	 122.081
| 38> H 	 -63.1716 	 38.4714 	 123.003
| 39> H 	 -70.3736 	 40.9722 	 120.686
| 40> H 	 -66.308 	 33.9041 	 119.56
| 41> *
| 42>
| 43>                          ****END OF INPUT****

CARTESIAN COORDINATES (ANGSTROEM)
---------------------------------
  S    -69.798800   38.361900  120.727000
  C    -69.740800   40.080400  121.031000
  C    -68.522400   40.433100  121.630000
  C    -67.602000   39.362600  121.728000
  C    -68.136200   38.130100  121.307000
  H    -66.637600   39.478500  122.180000
  C    -68.055600   41.770200  122.030000
  H    -68.829000   42.467300  121.692000
  H    -67.173300   42.007100  121.487000
  C    -67.868000   42.121800  123.527000
  H    -68.794900   42.426900  124.021000
  H    -67.392000   41.306900  124.055000
  C    -66.954300   43.419700  123.705000
  H    -66.819200   43.781700  124.710000
  H    -65.959200   43.307400  123.216000
  H    -67.222800   44.259400  123.135000
  S    -67.469600   36.164500  119.663000
  C    -66.521900   34.790200  120.170000
  C    -65.931500   35.126200  121.389000
  C    -66.575100   36.245300  122.080000
  C    -67.457300   36.888700  121.224000
  H    -65.213300   34.391300  121.853000
  C    -66.272000   36.745000  123.506000
  H    -66.714200   35.859300  124.168000
  H    -66.982200   37.513100  123.610000
  C    -64.823300   37.148200  123.823000
  H    -64.205400   36.265800  123.630000
  H    -64.668800   37.335700  124.913000
  C    -64.258500   38.409400  123.072000
  H    -64.693300   39.366300  123.532000
  H    -64.674100   38.323200  122.081000
  H    -63.171600   38.471400  123.003000
  H    -70.373600   40.972200  120.686000
  H    -66.308000   33.904100  119.560000

 Total Charge           Charge          ....    0
 Multiplicity           Mult            ....    1
 Number of Electrons    NEL             ....  134
 Basis Dimension        Dim             ....  322

ORBITAL ENERGIES
----------------

  NO   OCC          E(Eh)            E(eV)
   0   2.0000     -88.972599     -2421.0675
   1   2.0000     -88.961657     -2420.7698
   2   2.0000     -10.331559      -281.1360
   3   2.0000     -10.322133      -280.8795
   4   2.0000     -10.321679      -280.8672
   5   2.0000     -10.321410      -280.8598
   6   2.0000     -10.309029      -280.5230
   7   2.0000     -10.303716      -280.3784
   8   2.0000     -10.301496      -280.3179
   9   2.0000     -10.297287      -280.2034
  10   2.0000     -10.296804      -280.1903
  11   2.0000     -10.295714      -280.1606
  12   2.0000     -10.292901      -280.0841
  13   2.0000     -10.288856      -279.9740
  14   2.0000     -10.288244      -279.9574
  15   2.0000     -10.278530      -279.6930
  16   2.0000      -8.086316      -220.0398
  17   2.0000      -8.077368      -219.7964
  18   2.0000      -6.044928      -164.4908
  19   2.0000      -6.040872      -164.3805
  20   2.0000      -6.037089      -164.2776
  21   2.0000      -6.035854      -164.2439
  22   2.0000      -6.031738      -164.1319
  23   2.0000      -6.028043      -164.0314
  24   2.0000      -1.009813       -27.4784
  25   2.0000      -0.982865       -26.7451
  26   2.0000      -0.911834       -24.8123
  27   2.0000      -0.904822       -24.6215
  28   2.0000      -0.871304       -23.7094
  29   2.0000      -0.850681       -23.1482
  30   2.0000      -0.842485       -22.9252
  31   2.0000      -0.812437       -22.1075
  32   2.0000      -0.781217       -21.2580
  33   2.0000      -0.771783       -21.0013
  34   2.0000      -0.715212       -19.4619
  35   2.0000      -0.705372       -19.1942
  36   2.0000      -0.700008       -19.0482
  37   2.0000      -0.654370       -17.8063
  38   2.0000      -0.632609       -17.2142
  39   2.0000      -0.623983       -16.9794
  40   2.0000      -0.590247       -16.0614
  41   2.0000      -0.569446       -15.4954
  42   2.0000      -0.555841       -15.1252
  43   2.0000      -0.550852       -14.9894
  44   2.0000      -0.538816       -14.6619
  45   2.0000      -0.526886       -14.3373
  46   2.0000      -0.524450       -14.2710
  47   2.0000      -0.509647       -13.8682
  48   2.0000      -0.504852       -13.7377
  49   2.0000      -0.497061       -13.5257
  50   2.0000      -0.490444       -13.3457
  51   2.0000      -0.476495       -12.9661
  52   2.0000      -0.469106       -12.7650
  53   2.0000      -0.465472       -12.6661
  54   2.0000      -0.457277       -12.4431
  55   2.0000      -0.452665       -12.3176
  56   2.0000      -0.447169       -12.1681
  57   2.0000      -0.438390       -11.9292
  58   2.0000      -0.432107       -11.7582
  59   2.0000      -0.427419       -11.6307
  60   2.0000      -0.421662       -11.4740
  61   2.0000      -0.417039       -11.3482
  62   2.0000      -0.410943       -11.1823
  63   2.0000      -0.345595        -9.4041
  64   2.0000      -0.330682        -8.9983
  65   2.0000      -0.325437        -8.8556
  66   2.0000      -0.292301        -7.9539
  67   0.0000       0.020800         0.5660
  68   0.0000       0.072736         1.9792
  69   0.0000       0.107650         2.9293
  70   0.0000       0.116469         3.1693
  71   0.0000       0.121413         3.3038

MULLIKEN ATOMIC CHARGES
-----------------------
   0 S :    0.130909
   1 C :   -0.124428
   2 C :   -0.115212
   3 C :    0.067346
   4 C :   -0.166564
   5 H :   -0.029974
   6 C :    0.061091
   7 H :    0.006922
   8 H :    0.029128
   9 C :   -0.049392
  10 H :    0.041545
  11 H :    0.034233
  12 C :   -0.067734
  13 H :    0.038527
  14 H :    0.019060
  15 H :    0.010571
  16 S :    0.105470
  17 C :   -0.108720
  18 C :   -0.055483
  19 C :   -0.087721
  20 C :   -0.132279
  21 H :    0.042193
  22 C :    0.059757
  23 H :    0.058585
  24 H :    0.012181
  25 C :   -0.067999
  26 H :    0.030620
  27 H :    0.040241
  28 C :   -0.077974
  29 H :    0.052444
  30 H :    0.047379
  31 H :    0.048327
  32 H :    0.073976
  33 H :    0.072976
Sum of atomic charges:   -0.0000000

LOEWDIN ATOMIC CHARGES
----------------------
   0 S :    0.412157
   1 C :   -0.222434
   2 C :   -0.070573
   3 C :   -0.051620
   4 C :   -0.193129
   5 H :    0.025290
   6 C :   -0.036638
   7 H :    0.030857
   8 H :    0.029622
   9 C :   -0.026640
  10 H :    0.028739
  11 H :    0.019959
  12 C :   -0.074072
  13 H :    0.024894
  14 H :    0.026458
  15 H :    0.017068
  16 S :    0.419372
  17 C :   -0.191070
  18 C :   -0.079484
  19 C :   -0.060636
  20 C :   -0.214905
  21 H :    0.036722
  22 C :   -0.036143
  23 H :    0.052598
  24 H :    0.019554
  25 C :   -0.044390
  26 H :    0.024184
  27 H :    0.029714
  28 C :   -0.070123
  29 H :    0.031839
  30 H :    0.023246
  31 H :    0.030440
  32 H :    0.052539
  33 H :    0.036602

  Mayer bond orders larger than 0.100000
B(  0-S ,  1-C ) :   1.1373 B(  0-S ,  4-C ) :   1.1501 B(  1-C ,  2-C ) :   1.5983
B(  1-C ,  4-C ) :   0.1003 B(  1-C , 32-H ) :   0.9461 B(  2-C ,  3-C ) :   1.2732
B(  2-C ,  6-C ) :   1.0424 B(  3-C ,  4-C ) :   1.5165 B(  3-C ,  5-H ) :   0.9859
B(  4-C , 20-C ) :   1.0665 B(  6-C ,  7-H ) :   0.9275 B(  6-C ,  8-H ) :   0.9460
B(  6-C ,  9-C ) :   1.0513 B(  9-C , 10-H ) :   0.9598 B(  9-C , 11-H ) :   0.9635
B(  9-C , 12-C ) :   1.0629 B( 12-C , 13-H ) :   0.9783 B( 12-C , 14-H ) :   0.9736
B( 12-C , 15-H ) :   0.9746 B( 16-S , 17-C ) :   1.1524 B( 16-S , 20-C ) :   1.1579
B( 17-C , 18-C ) :   1.6051 B( 17-C , 33-H ) :   0.9700 B( 18-C , 19-C ) :   1.2292
B( 18-C , 21-H ) :   0.9767 B( 19-C , 20-C ) :   1.5722 B( 19-C , 22-C ) :   1.0322
B( 22-C , 23-H ) :   0.9322 B( 22-C , 24-H ) :   0.9356 B( 22-C , 25-C ) :   1.0590
B( 25-C , 26-H ) :   0.9582 B( 25-C , 27-H ) :   0.9569 B( 25-C , 28-C ) :   1.0648
B( 28-C , 29-H ) :   0.9664 B( 28-C , 30-H ) :   0.9705 B( 28-C , 31-H ) :   0.9706

Dispersion correction           -0.015003522
FINAL SINGLE POINT ENERGY     -1339.857869808310

DIPOLE MOMENT
-------------
                                X             Y             Z
Electronic contribution:    -16.04887     -19.79653     -19.27511
Nuclear contribution   :     16.56709      20.10116      19.60855
                        -----------------------------------------
Total Dipole Moment    :      0.51822       0.30463       0.33344
                        -----------------------------------------
Magnitude (a.u.)       :      0.68741
Magnitude (Debye)      :      1.74725

Rotational constants in cm-1:     0.018632     0.009595     0.006833
Rotational constants in MHz :   558.585574   287.656076   204.843561

                             ****ORCA TERMINATED NORMALLY****
TOTAL RUN TIME: 0 days 0 hours 0 minutes 34 seconds 991 msec
