                         Program Version 4.2.1 -  RELEASE  -
|  1> ! wB97X-D3 SP def2-SVP
|  2> %pal
|  3> nprocs 16
|  4> end
|  5>
|  6> * xyz 0 1
|  7> S 	 39.3342 	 13.6105 	 81.9383
|  8> C 	 40.4217 	 14.6114 	 80.9547
|  9> C 	 41.6372 	 13.9783 	 80.8737
| 10> C 	 41.8278 	 12.7978 	 81.7171
| 11> C 	 40.6925 	 12.6108 	 82.4441
| 12> H 	 42.6852 	 12.197 	 81.7515
| 13> C 	 42.7837 	 14.5154 	 80.0075
| 14> H 	 43.7321 	 14.3527 	 80.6588
| 15> H 	 42.6223 	 15.5718 	 79.7827
| 16> C 	 42.9063 	 13.7902 	 78.6426
| 17> H 	 41.891 	 13.4027 	 78.5557
| 18> H 	 43.1356 	 14.5511 	 77.8422
| 19> C 	 43.86 	 12.6384 	 78.6158
| 20> H 	 43.8332 	 12.0382 	 77.6986
| 21> H 	 44.7994 	 13.1467 	 78.5285
| 22> H 	 43.7772 	 11.8806 	 79.441
| 23> S 	 41.3862 	 11.9216 	 84.9708
| 24> C 	 40.782 	 10.3706 	 85.6194
| 25> C 	 40.0043 	 9.67656 	 84.7039
| 26> C 	 39.8827 	 10.3458 	 83.4518
| 27> C 	 40.5137 	 11.5875 	 83.4298
| 28> H 	 39.551 	 8.7279 	 84.9834
| 29> C 	 39.0588 	 9.77337 	 82.3164
| 30> H 	 39.7114 	 9.5527 	 81.4511
| 31> H 	 38.3033 	 10.5048 	 81.8852
| 32> C 	 38.3142 	 8.48987 	 82.5589
| 33> H 	 37.5671 	 8.76089 	 83.3448
| 34> H 	 39.0186 	 7.7784 	 82.9072
| 35> C 	 37.4572 	 7.94674 	 81.3945
| 36> H 	 37.1754 	 6.92726 	 81.67
| 37> H 	 38.0478 	 7.86977 	 80.4925
| 38> H 	 36.6926 	 8.61184 	 81.1893
| 39> H 	 40.0177 	 15.5016 	 80.4624
| 40> H 	 40.8936 	 9.9006 	 86.6143
| 41> *
| 42>
| 43>                          ****END OF INPUT****

CARTESIAN COORDINATES (ANGSTROEM)
---------------------------------
  S     39.334200   13.610500   81.938300
  C     40.421700   14.611400   80.954700
  C     41.637200   13.978300   80.873700
  C     41.827800   12.797800   81.717100
  C     40.692500   12.610800   82.444100
  H     42.685200   12.197000   81.751500
  C     42.783700   14.515400   80.007500
  H     43.732100   14.352700   80.658800
  H     42.622300   15.571800   79.782700
  C     42.906300   13.790200   78.642600
  H     41.891000   13.402700   78.555700
  H     43.135600   14.551100   77.842200
  C     43.860000   12.638400   78.615800
  H     43.833200   12.038200   77.698600
  H     44.799400   13.146700   78.528500
  H     43.777200   11.880600   79.441000
  S     41.386200   11.921600   84.970800
  C     40.782000   10.370600   85.619400
  C     40.004300    9.676560   84.703900
  C     39.882700   10.345800   83.451800
  C     40.513700   11.587500   83.429800
  H     39.551000    8.727900   84.983400
  C     39.058800    9.773370   82.316400
  H     39.711400    9.552700   81.451100
  H     38.303300   10.504800   81.885200
  C     38.314200    8.489870   82.558900
  H     37.567100    8.760890   83.344800
  H     39.018600    7.778400   82.907200
  C     37.457200    7.946740   81.394500
  H     37.175400    6.927260   81.670000
  H     38.047800    7.869770   80.492500
  H     36.692600    8.611840   81.189300
  H     40.017700   15.501600   80.462400
  H     40.893600    9.900600   86.614300

 Total Charge           Charge          ....    0
 Multiplicity           Mult            ....    1
 Number of Electrons    NEL             ....  134
 Basis Dimension        Dim             ....  322

ORBITAL ENERGIES
----------------

  NO   OCC          E(Eh)            E(eV)
   0   2.0000     -88.968214     -2420.9482
   1   2.0000     -88.962294     -2420.7871
   2   2.0000     -10.327642      -281.0294
   3   2.0000     -10.325381      -280.9679
   4   2.0000     -10.320550      -280.8364
   5   2.0000     -10.317251      -280.7467
   6   2.0000     -10.306097      -280.4432
   7   2.0000     -10.304464      -280.3987
   8   2.0000     -10.295857      -280.1645
   9   2.0000     -10.295527      -280.1555
  10   2.0000     -10.293430      -280.0985
  11   2.0000     -10.292026      -280.0603
  12   2.0000     -10.285823      -279.8915
  13   2.0000     -10.282672      -279.8057
  14   2.0000     -10.277864      -279.6749
  15   2.0000     -10.274529      -279.5841
  16   2.0000      -8.081270      -219.9025
  17   2.0000      -8.076864      -219.7826
  18   2.0000      -6.039946      -164.3553
  19   2.0000      -6.036018      -164.2484
  20   2.0000      -6.035414      -164.2320
  21   2.0000      -6.031940      -164.1374
  22   2.0000      -6.031567      -164.1273
  23   2.0000      -6.027417      -164.0144
  24   2.0000      -1.003107       -27.2959
  25   2.0000      -0.976686       -26.5770
  26   2.0000      -0.911885       -24.8136
  27   2.0000      -0.909300       -24.7433
  28   2.0000      -0.871356       -23.7108
  29   2.0000      -0.849534       -23.1170
  30   2.0000      -0.845365       -23.0036
  31   2.0000      -0.815336       -22.1864
  32   2.0000      -0.783475       -21.3194
  33   2.0000      -0.767930       -20.8964
  34   2.0000      -0.705214       -19.1899
  35   2.0000      -0.694895       -18.9091
  36   2.0000      -0.689629       -18.7658
  37   2.0000      -0.651661       -17.7326
  38   2.0000      -0.647279       -17.6134
  39   2.0000      -0.614633       -16.7250
  40   2.0000      -0.596262       -16.2251
  41   2.0000      -0.578270       -15.7355
  42   2.0000      -0.569262       -15.4904
  43   2.0000      -0.551189       -14.9986
  44   2.0000      -0.541922       -14.7465
  45   2.0000      -0.524649       -14.2764
  46   2.0000      -0.518613       -14.1122
  47   2.0000      -0.513791       -13.9810
  48   2.0000      -0.505585       -13.7577
  49   2.0000      -0.490754       -13.3541
  50   2.0000      -0.488176       -13.2839
  51   2.0000      -0.483618       -13.1599
  52   2.0000      -0.473964       -12.8972
  53   2.0000      -0.459379       -12.5003
  54   2.0000      -0.455831       -12.4038
  55   2.0000      -0.453511       -12.3407
  56   2.0000      -0.446333       -12.1453
  57   2.0000      -0.434499       -11.8233
  58   2.0000      -0.428823       -11.6689
  59   2.0000      -0.424532       -11.5521
  60   2.0000      -0.413763       -11.2591
  61   2.0000      -0.410608       -11.1732
  62   2.0000      -0.403031       -10.9670
  63   2.0000      -0.335985        -9.1426
  64   2.0000      -0.334029        -9.0894
  65   2.0000      -0.323663        -8.8073
  66   2.0000      -0.300537        -8.1780
  67   0.0000       0.037961         1.0330
  68   0.0000       0.053077         1.4443
  69   0.0000       0.104869         2.8536
  70   0.0000       0.109960         2.9922
  71   0.0000       0.128503         3.4967

MULLIKEN ATOMIC CHARGES
-----------------------
   0 S :    0.096990
   1 C :   -0.138931
   2 C :   -0.083391
   3 C :    0.068079
   4 C :   -0.150000
   5 H :    0.002294
   6 C :    0.025044
   7 H :    0.041446
   8 H :    0.024838
   9 C :   -0.070356
  10 H :    0.030357
  11 H :    0.041196
  12 C :   -0.052092
  13 H :    0.030259
  14 H :    0.025189
  15 H :    0.042328
  16 S :    0.110436
  17 C :   -0.080053
  18 C :   -0.072446
  19 C :    0.024064
  20 C :   -0.191399
  21 H :    0.026137
  22 C :    0.040272
  23 H :    0.027400
  24 H :    0.033880
  25 C :   -0.138650
  26 H :    0.036042
  27 H :    0.030280
  28 C :    0.021899
  29 H :    0.037585
  30 H :    0.017049
  31 H :    0.022474
  32 H :    0.062410
  33 H :    0.059370
Sum of atomic charges:    0.0000000

LOEWDIN ATOMIC CHARGES
----------------------
   0 S :    0.382559
   1 C :   -0.190627
   2 C :   -0.060139
   3 C :   -0.049090
   4 C :   -0.187745
   5 H :    0.026877
   6 C :   -0.036065
   7 H :    0.035286
   8 H :    0.029347
   9 C :   -0.048395
  10 H :    0.023083
  11 H :    0.031537
  12 C :   -0.073107
  13 H :    0.027880
  14 H :    0.024651
  15 H :    0.029988
  16 S :    0.382613
  17 C :   -0.183608
  18 C :   -0.075835
  19 C :   -0.053286
  20 C :   -0.184154
  21 H :    0.034056
  22 C :   -0.044497
  23 H :    0.033001
  24 H :    0.034489
  25 C :   -0.046731
  26 H :    0.028424
  27 H :    0.015566
  28 C :   -0.049011
  29 H :    0.032802
  30 H :    0.021873
  31 H :    0.016770
  32 H :    0.033083
  33 H :    0.038403

  Mayer bond orders larger than 0.100000
B(  0-S ,  1-C ) :   1.1087 B(  0-S ,  4-C ) :   1.1435 B(  1-C ,  2-C ) :   1.6340
B(  1-C , 32-H ) :   0.9751 B(  2-C ,  3-C ) :   1.1818 B(  2-C ,  6-C ) :   1.0388
B(  3-C ,  4-C ) :   1.5985 B(  3-C ,  5-H ) :   1.0068 B(  4-C , 20-C ) :   1.0325
B(  6-C ,  7-H ) :   0.9489 B(  6-C ,  8-H ) :   0.9435 B(  6-C ,  9-C ) :   1.0301
B(  9-C , 10-H ) :   0.9582 B(  9-C , 11-H ) :   0.9597 B(  9-C , 12-C ) :   1.0803
B( 12-C , 13-H ) :   0.9700 B( 12-C , 14-H ) :   0.9747 B( 12-C , 15-H ) :   0.9726
B( 16-S , 17-C ) :   1.1395 B( 16-S , 20-C ) :   1.1261 B( 17-C , 18-C ) :   1.6355
B( 17-C , 20-C ) :   0.1051 B( 17-C , 33-H ) :   0.9535 B( 18-C , 19-C ) :   1.2359
B( 18-C , 21-H ) :   0.9778 B( 19-C , 20-C ) :   1.6153 B( 19-C , 22-C ) :   1.0308
B( 22-C , 23-H ) :   0.9179 B( 22-C , 24-H ) :   0.9363 B( 22-C , 25-C ) :   1.0936
B( 25-C , 26-H ) :   0.9514 B( 25-C , 27-H ) :   0.9463 B( 25-C , 28-C ) :   1.0833
B( 28-C , 29-H ) :   0.9711 B( 28-C , 30-H ) :   0.9729 B( 28-C , 31-H ) :   0.9743

Dispersion correction           -0.013927702
FINAL SINGLE POINT ENERGY     -1339.863570289086

DIPOLE MOMENT
-------------
                                X             Y             Z
Electronic contribution:     -1.88891      11.90992      19.43846
Nuclear contribution   :      1.95157     -12.23234     -19.89890
                        -----------------------------------------
Total Dipole Moment    :      0.06266      -0.32242      -0.46044
                        -----------------------------------------
Magnitude (a.u.)       :      0.56558
Magnitude (Debye)      :      1.43759

Rotational constants in cm-1:     0.017616     0.007991     0.006910
Rotational constants in MHz :   528.116435   239.571558   207.143369

                             ****ORCA TERMINATED NORMALLY****
TOTAL RUN TIME: 0 days 0 hours 0 minutes 27 seconds 384 msec
