                         Program Version 4.2.1 -  RELEASE  -
|  1> ! wB97X-D3 SP def2-SVP
|  2> %pal
|  3> nprocs 16
|  4> end
|  5>
|  6> * xyz 0 1
|  7> S 	 -34.799 	 56.0611 	 108.315
|  8> C 	 -33.2893 	 55.327 	 107.971
|  9> C 	 -32.3792 	 55.4491 	 109.063
| 10> C 	 -33.0192 	 56.1642 	 110.134
| 11> C 	 -34.3365 	 56.4919 	 109.908
| 12> H 	 -32.647 	 56.4357 	 111.134
| 13> C 	 -30.9276 	 55.0123 	 109.122
| 14> H 	 -30.8207 	 54.1994 	 108.364
| 15> H 	 -30.8324 	 54.6026 	 110.099
| 16> C 	 -29.8907 	 56.0666 	 108.804
| 17> H 	 -30.2894 	 56.6653 	 107.953
| 18> H 	 -29.9113 	 56.6736 	 109.675
| 19> C 	 -28.4444 	 55.6129 	 108.724
| 20> H 	 -28.1526 	 54.888 	 109.604
| 21> H 	 -28.3674 	 54.9517 	 107.819
| 22> H 	 -27.7356 	 56.4514 	 108.736
| 23> S 	 -36.3198 	 58.45 	 109.962
| 24> C 	 -37.087 	 58.9341 	 111.463
| 25> C 	 -36.6254 	 58.1666 	 112.496
| 26> C 	 -35.623 	 57.2162 	 112.09
| 27> C 	 -35.3239 	 57.1822 	 110.728
| 28> H 	 -37.0305 	 58.3337 	 113.481
| 29> C 	 -34.9403 	 56.4255 	 113.224
| 30> H 	 -34.5039 	 57.162 	 113.945
| 31> H 	 -34.1971 	 55.7597 	 112.788
| 32> C 	 -35.912 	 55.4611 	 114.008
| 33> H 	 -36.1174 	 54.528 	 113.54
| 34> H 	 -36.8695 	 55.9924 	 113.989
| 35> C 	 -35.4442 	 55.2867 	 115.443
| 36> H 	 -34.4007 	 54.8829 	 115.544
| 37> H 	 -36.1465 	 54.623 	 115.999
| 38> H 	 -35.4758 	 56.2796 	 115.906
| 39> H 	 -33.1012 	 54.6815 	 107.087
| 40> H 	 -37.8476 	 59.6573 	 111.598
| 41> *
| 42>
| 43>                          ****END OF INPUT****

CARTESIAN COORDINATES (ANGSTROEM)
---------------------------------
  S    -34.799000   56.061100  108.315000
  C    -33.289300   55.327000  107.971000
  C    -32.379200   55.449100  109.063000
  C    -33.019200   56.164200  110.134000
  C    -34.336500   56.491900  109.908000
  H    -32.647000   56.435700  111.134000
  C    -30.927600   55.012300  109.122000
  H    -30.820700   54.199400  108.364000
  H    -30.832400   54.602600  110.099000
  C    -29.890700   56.066600  108.804000
  H    -30.289400   56.665300  107.953000
  H    -29.911300   56.673600  109.675000
  C    -28.444400   55.612900  108.724000
  H    -28.152600   54.888000  109.604000
  H    -28.367400   54.951700  107.819000
  H    -27.735600   56.451400  108.736000
  S    -36.319800   58.450000  109.962000
  C    -37.087000   58.934100  111.463000
  C    -36.625400   58.166600  112.496000
  C    -35.623000   57.216200  112.090000
  C    -35.323900   57.182200  110.728000
  H    -37.030500   58.333700  113.481000
  C    -34.940300   56.425500  113.224000
  H    -34.503900   57.162000  113.945000
  H    -34.197100   55.759700  112.788000
  C    -35.912000   55.461100  114.008000
  H    -36.117400   54.528000  113.540000
  H    -36.869500   55.992400  113.989000
  C    -35.444200   55.286700  115.443000
  H    -34.400700   54.882900  115.544000
  H    -36.146500   54.623000  115.999000
  H    -35.475800   56.279600  115.906000
  H    -33.101200   54.681500  107.087000
  H    -37.847600   59.657300  111.598000

 Total Charge           Charge          ....    0
 Multiplicity           Mult            ....    1
 Number of Electrons    NEL             ....  134
 Basis Dimension        Dim             ....  322

ORBITAL ENERGIES
----------------

  NO   OCC          E(Eh)            E(eV)
   0   2.0000     -88.967743     -2420.9354
   1   2.0000     -88.963452     -2420.8186
   2   2.0000     -10.333952      -281.2011
   3   2.0000     -10.328839      -281.0620
   4   2.0000     -10.319848      -280.8173
   5   2.0000     -10.316669      -280.7308
   6   2.0000     -10.309262      -280.5293
   7   2.0000     -10.307420      -280.4791
   8   2.0000     -10.297358      -280.2053
   9   2.0000     -10.296514      -280.1824
  10   2.0000     -10.293329      -280.0957
  11   2.0000     -10.293131      -280.0903
  12   2.0000     -10.292247      -280.0663
  13   2.0000     -10.283821      -279.8370
  14   2.0000     -10.283556      -279.8298
  15   2.0000     -10.283219      -279.8206
  16   2.0000      -8.083674      -219.9679
  17   2.0000      -8.077737      -219.8064
  18   2.0000      -6.041969      -164.4103
  19   2.0000      -6.037863      -164.2986
  20   2.0000      -6.036462      -164.2605
  21   2.0000      -6.034736      -164.2135
  22   2.0000      -6.032209      -164.1448
  23   2.0000      -6.028375      -164.0404
  24   2.0000      -1.010437       -27.4954
  25   2.0000      -0.984706       -26.7952
  26   2.0000      -0.917321       -24.9616
  27   2.0000      -0.904199       -24.6045
  28   2.0000      -0.872322       -23.7371
  29   2.0000      -0.853331       -23.2203
  30   2.0000      -0.843299       -22.9473
  31   2.0000      -0.817545       -22.2465
  32   2.0000      -0.780538       -21.2395
  33   2.0000      -0.766816       -20.8661
  34   2.0000      -0.704907       -19.1815
  35   2.0000      -0.695117       -18.9151
  36   2.0000      -0.694840       -18.9075
  37   2.0000      -0.662272       -18.0213
  38   2.0000      -0.644517       -17.5382
  39   2.0000      -0.619692       -16.8627
  40   2.0000      -0.594496       -16.1771
  41   2.0000      -0.573819       -15.6144
  42   2.0000      -0.567459       -15.4413
  43   2.0000      -0.561746       -15.2859
  44   2.0000      -0.527479       -14.3534
  45   2.0000      -0.522484       -14.2175
  46   2.0000      -0.518470       -14.1083
  47   2.0000      -0.509784       -13.8719
  48   2.0000      -0.507090       -13.7986
  49   2.0000      -0.502611       -13.6767
  50   2.0000      -0.496892       -13.5211
  51   2.0000      -0.478552       -13.0221
  52   2.0000      -0.468355       -12.7446
  53   2.0000      -0.462599       -12.5879
  54   2.0000      -0.460085       -12.5195
  55   2.0000      -0.452978       -12.3262
  56   2.0000      -0.449099       -12.2206
  57   2.0000      -0.440076       -11.9751
  58   2.0000      -0.431675       -11.7465
  59   2.0000      -0.426614       -11.6088
  60   2.0000      -0.412775       -11.2322
  61   2.0000      -0.409746       -11.1498
  62   2.0000      -0.407882       -11.0990
  63   2.0000      -0.356967        -9.7136
  64   2.0000      -0.333340        -9.0706
  65   2.0000      -0.327611        -8.9147
  66   2.0000      -0.289329        -7.8730
  67   0.0000       0.028096         0.7645
  68   0.0000       0.071426         1.9436
  69   0.0000       0.113022         3.0755
  70   0.0000       0.113480         3.0879
  71   0.0000       0.134220         3.6523

MULLIKEN ATOMIC CHARGES
-----------------------
   0 S :    0.121955
   1 C :   -0.126433
   2 C :   -0.121634
   3 C :    0.024251
   4 C :   -0.167639
   5 H :    0.017660
   6 C :    0.075777
   7 H :    0.015246
   8 H :    0.019858
   9 C :   -0.052014
  10 H :    0.044481
  11 H :    0.012861
  12 C :   -0.076266
  13 H :    0.039795
  14 H :    0.036977
  15 H :    0.052667
  16 S :    0.081955
  17 C :   -0.063106
  18 C :   -0.041388
  19 C :   -0.055645
  20 C :   -0.111792
  21 H :    0.022382
  22 C :    0.042490
  23 H :    0.045502
  24 H :    0.025522
  25 C :   -0.063710
  26 H :    0.029350
  27 H :    0.019814
  28 C :   -0.074617
  29 H :    0.043370
  30 H :    0.040888
  31 H :    0.029895
  32 H :    0.067318
  33 H :    0.044230
Sum of atomic charges:    0.0000000

LOEWDIN ATOMIC CHARGES
----------------------
   0 S :    0.443577
   1 C :   -0.219010
   2 C :   -0.058802
   3 C :   -0.068957
   4 C :   -0.205785
   5 H :    0.034457
   6 C :   -0.030295
   7 H :    0.028758
   8 H :    0.026323
   9 C :   -0.049112
  10 H :    0.033153
  11 H :    0.019423
  12 C :   -0.072846
  13 H :    0.036753
  14 H :    0.026650
  15 H :    0.030297
  16 S :    0.382499
  17 C :   -0.171233
  18 C :   -0.074658
  19 C :   -0.060407
  20 C :   -0.190888
  21 H :    0.031592
  22 C :   -0.030822
  23 H :    0.036867
  24 H :    0.026202
  25 C :   -0.039504
  26 H :    0.020529
  27 H :    0.021630
  28 C :   -0.070761
  29 H :    0.028939
  30 H :    0.029271
  31 H :    0.023621
  32 H :    0.036647
  33 H :    0.025892

  Mayer bond orders larger than 0.100000
B(  0-S ,  1-C ) :   1.1684 B(  0-S ,  4-C ) :   1.1717 B(  1-C ,  2-C ) :   1.5689
B(  1-C ,  4-C ) :   0.1039 B(  1-C , 32-H ) :   0.9642 B(  2-C ,  3-C ) :   1.2497
B(  2-C ,  6-C ) :   1.0317 B(  3-C ,  4-C ) :   1.5722 B(  3-C ,  5-H ) :   0.9864
B(  4-C , 20-C ) :   1.0290 B(  6-C ,  7-H ) :   0.9383 B(  6-C ,  8-H ) :   0.9321
B(  6-C ,  9-C ) :   1.0672 B(  9-C , 10-H ) :   0.9539 B(  9-C , 11-H ) :   0.9493
B(  9-C , 12-C ) :   1.0784 B( 12-C , 13-H ) :   0.9704 B( 12-C , 14-H ) :   0.9749
B( 12-C , 15-H ) :   0.9735 B( 16-S , 17-C ) :   1.1460 B( 16-S , 20-C ) :   1.1156
B( 17-C , 18-C ) :   1.6299 B( 17-C , 33-H ) :   0.9697 B( 18-C , 19-C ) :   1.2167
B( 18-C , 21-H ) :   0.9902 B( 19-C , 20-C ) :   1.6230 B( 19-C , 22-C ) :   1.0411
B( 22-C , 23-H ) :   0.9485 B( 22-C , 24-H ) :   0.9324 B( 22-C , 25-C ) :   1.0447
B( 25-C , 26-H ) :   0.9565 B( 25-C , 27-H ) :   0.9636 B( 25-C , 28-C ) :   1.0759
B( 28-C , 29-H ) :   0.9745 B( 28-C , 30-H ) :   0.9728 B( 28-C , 31-H ) :   0.9762

Dispersion correction           -0.013139403
FINAL SINGLE POINT ENERGY     -1339.880624101304

DIPOLE MOMENT
-------------
                                X             Y             Z
Electronic contribution:    -19.54357      10.27539     -16.33825
Nuclear contribution   :     19.86340     -10.42725      16.85390
                        -----------------------------------------
Total Dipole Moment    :      0.31983      -0.15186       0.51565
                        -----------------------------------------
Magnitude (a.u.)       :      0.62550
Magnitude (Debye)      :      1.58988

Rotational constants in cm-1:     0.018184     0.007509     0.005979
Rotational constants in MHz :   545.141858   225.103429   179.259759

                             ****ORCA TERMINATED NORMALLY****
TOTAL RUN TIME: 0 days 0 hours 0 minutes 29 seconds 99 msec
