                         Program Version 4.2.1 -  RELEASE  -
|  1> ! wB97X-D3 SP def2-SVP
|  2> %pal
|  3> nprocs 16
|  4> end
|  5>
|  6> * xyz 0 1
|  7> S 	 -58.707 	 19.9494 	 84.6774
|  8> C 	 -59.0126 	 18.5131 	 85.5041
|  9> C 	 -58.231 	 18.3809 	 86.6316
| 10> C 	 -57.4854 	 19.601 	 86.8553
| 11> C 	 -57.7254 	 20.5919 	 85.9127
| 12> H 	 -56.8536 	 19.9208 	 87.6955
| 13> C 	 -58.1542 	 17.195 	 87.5498
| 14> H 	 -57.1474 	 16.8213 	 87.5982
| 15> H 	 -58.7824 	 16.4325 	 87.0422
| 16> C 	 -58.5422 	 17.4358 	 88.9589
| 17> H 	 -58.1395 	 16.6163 	 89.5511
| 18> H 	 -58.1002 	 18.3438 	 89.3128
| 19> C 	 -60.0854 	 17.4175 	 89.2303
| 20> H 	 -60.471 	 16.4896 	 88.873
| 21> H 	 -60.4249 	 17.5297 	 90.2097
| 22> H 	 -60.5005 	 18.1787 	 88.5887
| 23> S 	 -55.9605 	 22.1949 	 84.5896
| 24> C 	 -55.5031 	 23.7298 	 85.3466
| 25> C 	 -56.206 	 23.9714 	 86.5116
| 26> C 	 -57.0364 	 22.857 	 86.8576
| 27> C 	 -57.1051 	 21.8849 	 85.8594
| 28> H 	 -56.0683 	 24.8277 	 87.1292
| 29> C 	 -57.743 	 22.9248 	 88.1555
| 30> H 	 -57.1887 	 23.0836 	 89.0006
| 31> H 	 -58.0915 	 21.9298 	 88.3538
| 32> C 	 -59.0339 	 23.8085 	 88.2659
| 33> H 	 -58.7918 	 24.8699 	 88.5425
| 34> H 	 -59.6302 	 23.3681 	 89.1385
| 35> C 	 -59.9659 	 23.8864 	 87.0713
| 36> H 	 -59.5753 	 24.2061 	 86.1371
| 37> H 	 -60.7587 	 24.6062 	 87.3587
| 38> H 	 -60.4123 	 22.8908 	 86.9372
| 39> H 	 -59.728 	 17.7913 	 85.1302
| 40> H 	 -54.9168 	 24.5094 	 84.8787
| 41> *
| 42>
| 43>                          ****END OF INPUT****

CARTESIAN COORDINATES (ANGSTROEM)
---------------------------------
  S    -58.707000   19.949400   84.677400
  C    -59.012600   18.513100   85.504100
  C    -58.231000   18.380900   86.631600
  C    -57.485400   19.601000   86.855300
  C    -57.725400   20.591900   85.912700
  H    -56.853600   19.920800   87.695500
  C    -58.154200   17.195000   87.549800
  H    -57.147400   16.821300   87.598200
  H    -58.782400   16.432500   87.042200
  C    -58.542200   17.435800   88.958900
  H    -58.139500   16.616300   89.551100
  H    -58.100200   18.343800   89.312800
  C    -60.085400   17.417500   89.230300
  H    -60.471000   16.489600   88.873000
  H    -60.424900   17.529700   90.209700
  H    -60.500500   18.178700   88.588700
  S    -55.960500   22.194900   84.589600
  C    -55.503100   23.729800   85.346600
  C    -56.206000   23.971400   86.511600
  C    -57.036400   22.857000   86.857600
  C    -57.105100   21.884900   85.859400
  H    -56.068300   24.827700   87.129200
  C    -57.743000   22.924800   88.155500
  H    -57.188700   23.083600   89.000600
  H    -58.091500   21.929800   88.353800
  C    -59.033900   23.808500   88.265900
  H    -58.791800   24.869900   88.542500
  H    -59.630200   23.368100   89.138500
  C    -59.965900   23.886400   87.071300
  H    -59.575300   24.206100   86.137100
  H    -60.758700   24.606200   87.358700
  H    -60.412300   22.890800   86.937200
  H    -59.728000   17.791300   85.130200
  H    -54.916800   24.509400   84.878700

 Total Charge           Charge          ....    0
 Multiplicity           Mult            ....    1
 Number of Electrons    NEL             ....  134
 Basis Dimension        Dim             ....  322

ORBITAL ENERGIES
----------------

  NO   OCC          E(Eh)            E(eV)
   0   2.0000     -88.967498     -2420.9287
   1   2.0000     -88.964404     -2420.8445
   2   2.0000     -10.325251      -280.9644
   3   2.0000     -10.321706      -280.8679
   4   2.0000     -10.318112      -280.7701
   5   2.0000     -10.310928      -280.5746
   6   2.0000     -10.302372      -280.3418
   7   2.0000     -10.300724      -280.2969
   8   2.0000     -10.294927      -280.1392
   9   2.0000     -10.292754      -280.0801
  10   2.0000     -10.291086      -280.0347
  11   2.0000     -10.289382      -279.9883
  12   2.0000     -10.282280      -279.7951
  13   2.0000     -10.278613      -279.6953
  14   2.0000     -10.269932      -279.4591
  15   2.0000     -10.268200      -279.4119
  16   2.0000      -8.082101      -219.9251
  17   2.0000      -8.081303      -219.9034
  18   2.0000      -6.040661      -164.3747
  19   2.0000      -6.039540      -164.3442
  20   2.0000      -6.036655      -164.2657
  21   2.0000      -6.035414      -164.2320
  22   2.0000      -6.032785      -164.1604
  23   2.0000      -6.032314      -164.1476
  24   2.0000      -1.015709       -27.6388
  25   2.0000      -0.988695       -26.9038
  26   2.0000      -0.920324       -25.0433
  27   2.0000      -0.906223       -24.6596
  28   2.0000      -0.875085       -23.8123
  29   2.0000      -0.849972       -23.1289
  30   2.0000      -0.845697       -23.0126
  31   2.0000      -0.815198       -22.1827
  32   2.0000      -0.789328       -21.4787
  33   2.0000      -0.778395       -21.1812
  34   2.0000      -0.712471       -19.3873
  35   2.0000      -0.695657       -18.9298
  36   2.0000      -0.686214       -18.6728
  37   2.0000      -0.662566       -18.0293
  38   2.0000      -0.647750       -17.6262
  39   2.0000      -0.619483       -16.8570
  40   2.0000      -0.598115       -16.2755
  41   2.0000      -0.575360       -15.6563
  42   2.0000      -0.558158       -15.1883
  43   2.0000      -0.552200       -15.0261
  44   2.0000      -0.540516       -14.7082
  45   2.0000      -0.537178       -14.6173
  46   2.0000      -0.520234       -14.1563
  47   2.0000      -0.513977       -13.9860
  48   2.0000      -0.508419       -13.8348
  49   2.0000      -0.501296       -13.6410
  50   2.0000      -0.488999       -13.3063
  51   2.0000      -0.481271       -13.0961
  52   2.0000      -0.473275       -12.8785
  53   2.0000      -0.464934       -12.6515
  54   2.0000      -0.455118       -12.3844
  55   2.0000      -0.449331       -12.2269
  56   2.0000      -0.447621       -12.1804
  57   2.0000      -0.437595       -11.9076
  58   2.0000      -0.435079       -11.8391
  59   2.0000      -0.425958       -11.5909
  60   2.0000      -0.422285       -11.4910
  61   2.0000      -0.411380       -11.1942
  62   2.0000      -0.402102       -10.9417
  63   2.0000      -0.347086        -9.4447
  64   2.0000      -0.329296        -8.9606
  65   2.0000      -0.328559        -8.9406
  66   2.0000      -0.296916        -8.0795
  67   0.0000       0.036408         0.9907
  68   0.0000       0.068022         1.8510
  69   0.0000       0.114411         3.1133
  70   0.0000       0.119628         3.2552
  71   0.0000       0.126397         3.4394

MULLIKEN ATOMIC CHARGES
-----------------------
   0 S :    0.126238
   1 C :   -0.122097
   2 C :   -0.099187
   3 C :    0.033599
   4 C :   -0.201911
   5 H :    0.023556
   6 C :    0.095640
   7 H :    0.033545
   8 H :    0.014374
   9 C :   -0.073041
  10 H :    0.024155
  11 H :    0.024042
  12 C :   -0.010936
  13 H :    0.008944
  14 H :    0.026389
  15 H :    0.024158
  16 S :    0.111978
  17 C :   -0.087581
  18 C :   -0.012281
  19 C :   -0.071956
  20 C :   -0.128940
  21 H :    0.012909
  22 C :    0.147130
  23 H :    0.005246
  24 H :   -0.010733
  25 C :   -0.138266
  26 H :    0.028609
  27 H :    0.039649
  28 C :   -0.030890
  29 H :    0.036376
  30 H :    0.033725
  31 H :    0.030845
  32 H :    0.049078
  33 H :    0.057635
Sum of atomic charges:    0.0000000

LOEWDIN ATOMIC CHARGES
----------------------
   0 S :    0.451747
   1 C :   -0.215999
   2 C :   -0.065815
   3 C :   -0.063295
   4 C :   -0.220347
   5 H :    0.033313
   6 C :   -0.031365
   7 H :    0.036710
   8 H :    0.032140
   9 C :   -0.035764
  10 H :    0.023599
  11 H :    0.019046
  12 C :   -0.055035
  13 H :    0.019241
  14 H :    0.017054
  15 H :    0.024245
  16 S :    0.406921
  17 C :   -0.177973
  18 C :   -0.059774
  19 C :   -0.052883
  20 C :   -0.207125
  21 H :    0.029485
  22 C :   -0.036700
  23 H :    0.022193
  24 H :    0.026536
  25 C :   -0.042229
  26 H :    0.018860
  27 H :    0.033949
  28 C :   -0.066819
  29 H :    0.019973
  30 H :    0.032127
  31 H :    0.026837
  32 H :    0.028712
  33 H :    0.028435

  Mayer bond orders larger than 0.100000
B(  0-S ,  1-C ) :   1.1666 B(  0-S ,  4-C ) :   1.1714 B(  1-C ,  2-C ) :   1.5833
B(  1-C , 32-H ) :   0.9703 B(  2-C ,  3-C ) :   1.2365 B(  2-C ,  6-C ) :   1.0336
B(  3-C ,  4-C ) :   1.5668 B(  3-C ,  5-H ) :   0.9882 B(  4-C , 20-C ) :   1.0225
B(  6-C ,  7-H ) :   0.9293 B(  6-C ,  8-H ) :   0.9377 B(  6-C ,  9-C ) :   1.0762
B(  9-C , 10-H ) :   0.9546 B(  9-C , 11-H ) :   0.9570 B(  9-C , 12-C ) :   1.0699
B( 12-C , 13-H ) :   0.9731 B( 12-C , 14-H ) :   0.9779 B( 12-C , 15-H ) :   0.9789
B( 16-S , 17-C ) :   1.1481 B( 16-S , 20-C ) :   1.1468 B( 17-C , 18-C ) :   1.6129
B( 17-C , 33-H ) :   0.9636 B( 18-C , 19-C ) :   1.2329 B( 18-C , 21-H ) :   0.9951
B( 19-C , 20-C ) :   1.5884 B( 19-C , 22-C ) :   1.0708 B( 22-C , 23-H ) :   0.9280
B( 22-C , 24-H ) :   0.9117 B( 22-C , 25-C ) :   1.0547 B( 25-C , 26-H ) :   0.9588
B( 25-C , 27-H ) :   0.9579 B( 25-C , 28-C ) :   1.0868 B( 28-C , 29-H ) :   0.9703
B( 28-C , 30-H ) :   0.9713 B( 28-C , 31-H ) :   0.9759

Dispersion correction           -0.015033766
FINAL SINGLE POINT ENERGY     -1339.878122858822

DIPOLE MOMENT
-------------
                                X             Y             Z
Electronic contribution:     13.08286       3.64721     -22.64083
Nuclear contribution   :    -13.12769      -3.72137      23.23339
                        -----------------------------------------
Total Dipole Moment    :     -0.04483      -0.07416       0.59256
                        -----------------------------------------
Magnitude (a.u.)       :      0.59886
Magnitude (Debye)      :      1.52218

Rotational constants in cm-1:     0.019662     0.009030     0.007542
Rotational constants in MHz :   589.466532   270.703946   226.091115

                             ****ORCA TERMINATED NORMALLY****
TOTAL RUN TIME: 0 days 0 hours 0 minutes 31 seconds 904 msec
