                         Program Version 4.2.1 -  RELEASE  -
|  1> ! wB97X-D3 SP def2-SVP
|  2> %pal
|  3> nprocs 16
|  4> end
|  5>
|  6> * xyz 0 1
|  7> S 	 31.3713 	 2.30547 	 68.9974
|  8> C 	 30.311 	 2.92071 	 70.1603
|  9> C 	 30.0553 	 2.04757 	 71.152
| 10> C 	 30.5899 	 0.745413 	 70.8898
| 11> C 	 31.3546 	 0.712624 	 69.7482
| 12> H 	 30.4597 	 -0.102285 	 71.5465
| 13> C 	 29.2453 	 2.36082 	 72.3743
| 14> H 	 29.6389 	 3.18987 	 72.9066
| 15> H 	 29.4499 	 1.48406 	 73.0167
| 16> C 	 27.6578 	 2.35578 	 72.2566
| 17> H 	 27.3618 	 1.39191 	 71.7575
| 18> H 	 27.2954 	 2.28977 	 73.2465
| 19> C 	 27.0484 	 3.57764 	 71.5544
| 20> H 	 27.05 	 4.54329 	 72.1358
| 21> H 	 27.4057 	 3.8574 	 70.5284
| 22> H 	 25.968 	 3.44489 	 71.4196
| 23> S 	 31.5721 	 -0.960351 	 67.6062
| 24> C 	 32.6712 	 -2.33849 	 67.6859
| 25> C 	 33.3228 	 -2.38628 	 68.9072
| 26> C 	 32.9404 	 -1.28946 	 69.7789
| 27> C 	 32.099 	 -0.381378 	 69.1728
| 28> H 	 34.1929 	 -3.01911 	 69.028
| 29> C 	 33.4075 	 -1.16064 	 71.2111
| 30> H 	 32.591 	 -1.3677 	 71.8923
| 31> H 	 33.7276 	 -0.126319 	 71.4746
| 32> C 	 34.6991 	 -1.82278 	 71.5535
| 33> H 	 35.4503 	 -1.44134 	 70.8946
| 34> H 	 34.5568 	 -2.87677 	 71.3146
| 35> C 	 35.1089 	 -1.6885 	 72.9679
| 36> H 	 35.9447 	 -2.23179 	 73.2597
| 37> H 	 34.2832 	 -1.9053 	 73.6802
| 38> H 	 35.4014 	 -0.641626 	 73.2216
| 39> H 	 30.0086 	 3.99686 	 70.348
| 40> H 	 32.7542 	 -3.14827 	 67.0363
| 41> *
| 42>
| 43>                          ****END OF INPUT****

CARTESIAN COORDINATES (ANGSTROEM)
---------------------------------
  S     31.371300    2.305470   68.997400
  C     30.311000    2.920710   70.160300
  C     30.055300    2.047570   71.152000
  C     30.589900    0.745413   70.889800
  C     31.354600    0.712624   69.748200
  H     30.459700   -0.102285   71.546500
  C     29.245300    2.360820   72.374300
  H     29.638900    3.189870   72.906600
  H     29.449900    1.484060   73.016700
  C     27.657800    2.355780   72.256600
  H     27.361800    1.391910   71.757500
  H     27.295400    2.289770   73.246500
  C     27.048400    3.577640   71.554400
  H     27.050000    4.543290   72.135800
  H     27.405700    3.857400   70.528400
  H     25.968000    3.444890   71.419600
  S     31.572100   -0.960351   67.606200
  C     32.671200   -2.338490   67.685900
  C     33.322800   -2.386280   68.907200
  C     32.940400   -1.289460   69.778900
  C     32.099000   -0.381378   69.172800
  H     34.192900   -3.019110   69.028000
  C     33.407500   -1.160640   71.211100
  H     32.591000   -1.367700   71.892300
  H     33.727600   -0.126319   71.474600
  C     34.699100   -1.822780   71.553500
  H     35.450300   -1.441340   70.894600
  H     34.556800   -2.876770   71.314600
  C     35.108900   -1.688500   72.967900
  H     35.944700   -2.231790   73.259700
  H     34.283200   -1.905300   73.680200
  H     35.401400   -0.641626   73.221600
  H     30.008600    3.996860   70.348000
  H     32.754200   -3.148270   67.036300

 Total Charge           Charge          ....    0
 Multiplicity           Mult            ....    1
 Number of Electrons    NEL             ....  134
 Basis Dimension        Dim             ....  322

ORBITAL ENERGIES
----------------

  NO   OCC          E(Eh)            E(eV)
   0   2.0000     -88.965348     -2420.8702
   1   2.0000     -88.964146     -2420.8375
   2   2.0000     -10.326251      -280.9916
   3   2.0000     -10.322538      -280.8905
   4   2.0000     -10.315953      -280.7114
   5   2.0000     -10.306303      -280.4488
   6   2.0000     -10.304639      -280.4035
   7   2.0000     -10.295777      -280.1623
   8   2.0000     -10.294748      -280.1343
   9   2.0000     -10.293005      -280.0869
  10   2.0000     -10.290396      -280.0159
  11   2.0000     -10.290038      -280.0062
  12   2.0000     -10.287207      -279.9291
  13   2.0000     -10.284650      -279.8595
  14   2.0000     -10.278035      -279.6796
  15   2.0000     -10.275220      -279.6030
  16   2.0000      -8.079891      -219.8650
  17   2.0000      -8.079800      -219.8625
  18   2.0000      -6.038390      -164.3129
  19   2.0000      -6.038354      -164.3120
  20   2.0000      -6.034248      -164.2002
  21   2.0000      -6.034237      -164.1999
  22   2.0000      -6.030636      -164.1020
  23   2.0000      -6.030582      -164.1005
  24   2.0000      -1.010983       -27.5102
  25   2.0000      -0.986706       -26.8496
  26   2.0000      -0.921319       -25.0704
  27   2.0000      -0.905196       -24.6316
  28   2.0000      -0.872080       -23.7305
  29   2.0000      -0.852902       -23.2086
  30   2.0000      -0.846910       -23.0456
  31   2.0000      -0.816617       -22.2213
  32   2.0000      -0.783783       -21.3278
  33   2.0000      -0.774509       -21.0755
  34   2.0000      -0.710258       -19.3271
  35   2.0000      -0.703012       -19.1299
  36   2.0000      -0.697969       -18.9927
  37   2.0000      -0.654538       -17.8109
  38   2.0000      -0.636237       -17.3129
  39   2.0000      -0.620978       -16.8977
  40   2.0000      -0.602781       -16.4025
  41   2.0000      -0.577827       -15.7235
  42   2.0000      -0.569242       -15.4899
  43   2.0000      -0.542513       -14.7625
  44   2.0000      -0.534078       -14.5330
  45   2.0000      -0.527659       -14.3583
  46   2.0000      -0.524167       -14.2633
  47   2.0000      -0.509353       -13.8602
  48   2.0000      -0.503541       -13.7020
  49   2.0000      -0.499172       -13.5832
  50   2.0000      -0.487392       -13.2626
  51   2.0000      -0.484219       -13.1763
  52   2.0000      -0.473112       -12.8740
  53   2.0000      -0.464437       -12.6380
  54   2.0000      -0.463944       -12.6246
  55   2.0000      -0.452499       -12.3131
  56   2.0000      -0.446056       -12.1378
  57   2.0000      -0.433722       -11.8022
  58   2.0000      -0.428963       -11.6727
  59   2.0000      -0.425072       -11.5668
  60   2.0000      -0.423713       -11.5298
  61   2.0000      -0.415472       -11.3056
  62   2.0000      -0.403113       -10.9693
  63   2.0000      -0.348586        -9.4855
  64   2.0000      -0.329042        -8.9537
  65   2.0000      -0.327617        -8.9149
  66   2.0000      -0.296658        -8.0725
  67   0.0000       0.034473         0.9381
  68   0.0000       0.067678         1.8416
  69   0.0000       0.115601         3.1457
  70   0.0000       0.120276         3.2729
  71   0.0000       0.132073         3.5939

MULLIKEN ATOMIC CHARGES
-----------------------
   0 S :    0.123198
   1 C :   -0.115305
   2 C :   -0.123890
   3 C :    0.043680
   4 C :   -0.169174
   5 H :    0.009673
   6 C :    0.051967
   7 H :    0.027091
   8 H :    0.011224
   9 C :   -0.023707
  10 H :    0.036517
  11 H :    0.025051
  12 C :   -0.094404
  13 H :    0.032433
  14 H :    0.042755
  15 H :    0.031191
  16 S :    0.108266
  17 C :   -0.055835
  18 C :   -0.057691
  19 C :   -0.033570
  20 C :   -0.133230
  21 H :    0.035972
  22 C :    0.036543
  23 H :    0.031050
  24 H :    0.029620
  25 C :   -0.081010
  26 H :    0.029732
  27 H :    0.023998
  28 C :   -0.009661
  29 H :    0.019654
  30 H :    0.026808
  31 H :    0.020606
  32 H :    0.065290
  33 H :    0.035158
Sum of atomic charges:   -0.0000000

LOEWDIN ATOMIC CHARGES
----------------------
   0 S :    0.425762
   1 C :   -0.224625
   2 C :   -0.077150
   3 C :   -0.054812
   4 C :   -0.192981
   5 H :    0.029915
   6 C :   -0.032704
   7 H :    0.024715
   8 H :    0.032717
   9 C :   -0.030669
  10 H :    0.033179
  11 H :    0.020889
  12 C :   -0.086378
  13 H :    0.028896
  14 H :    0.028834
  15 H :    0.028106
  16 S :    0.405209
  17 C :   -0.169409
  18 C :   -0.073429
  19 C :   -0.050482
  20 C :   -0.205475
  21 H :    0.033863
  22 C :   -0.037887
  23 H :    0.027787
  24 H :    0.038754
  25 C :   -0.046250
  26 H :    0.025269
  27 H :    0.018549
  28 C :   -0.060714
  29 H :    0.018578
  30 H :    0.029550
  31 H :    0.027911
  32 H :    0.044785
  33 H :    0.019698

  Mayer bond orders larger than 0.100000
B(  0-S ,  1-C ) :   1.1413 B(  0-S ,  4-C ) :   1.1565 B(  1-C ,  2-C ) :   1.6386
B(  1-C , 32-H ) :   0.9490 B(  2-C ,  3-C ) :   1.2508 B(  2-C ,  6-C ) :   1.0243
B(  3-C ,  4-C ) :   1.5747 B(  3-C ,  5-H ) :   0.9943 B(  4-C , 20-C ) :   1.0193
B(  6-C ,  7-H ) :   0.9419 B(  6-C ,  8-H ) :   0.9361 B(  6-C ,  9-C ) :   1.0666
B(  9-C , 10-H ) :   0.9555 B(  9-C , 11-H ) :   0.9544 B(  9-C , 12-C ) :   1.0761
B( 12-C , 13-H ) :   0.9748 B( 12-C , 14-H ) :   0.9738 B( 12-C , 15-H ) :   0.9723
B( 16-S , 17-C ) :   1.1534 B( 16-S , 20-C ) :   1.1348 B( 17-C , 18-C ) :   1.6260
B( 17-C , 33-H ) :   0.9667 B( 18-C , 19-C ) :   1.2306 B( 18-C , 21-H ) :   0.9793
B( 19-C , 20-C ) :   1.6245 B( 19-C , 22-C ) :   1.0360 B( 22-C , 23-H ) :   0.9270
B( 22-C , 24-H ) :   0.9400 B( 22-C , 25-C ) :   1.0691 B( 25-C , 26-H ) :   0.9565
B( 25-C , 27-H ) :   0.9388 B( 25-C , 28-C ) :   1.1021 B( 28-C , 29-H ) :   0.9687
B( 28-C , 30-H ) :   0.9697 B( 28-C , 31-H ) :   0.9662

Dispersion correction           -0.013836427
FINAL SINGLE POINT ENERGY     -1339.874292290792

DIPOLE MOMENT
-------------
                                X             Y             Z
Electronic contribution:      2.52743      -0.68731     -24.07959
Nuclear contribution   :     -2.49347       0.50102      24.80608
                        -----------------------------------------
Total Dipole Moment    :      0.03396      -0.18628       0.72649
                        -----------------------------------------
Magnitude (a.u.)       :      0.75077
Magnitude (Debye)      :      1.90829

Rotational constants in cm-1:     0.019644     0.007778     0.006294
Rotational constants in MHz :   588.925657   233.168337   188.683342

                             ****ORCA TERMINATED NORMALLY****
TOTAL RUN TIME: 0 days 0 hours 0 minutes 29 seconds 292 msec
