                         Program Version 4.2.1 -  RELEASE  -
|  1> ! wB97X-D3 SP def2-SVP
|  2> %pal
|  3> nprocs 16
|  4> end
|  5>
|  6> * xyz 0 1
|  7> S 	 -107.815 	 42.7981 	 127.964
|  8> C 	 -107.345 	 42.9891 	 129.656
|  9> C 	 -106.427 	 44.0299 	 129.711
| 10> C 	 -106.373 	 44.7883 	 128.492
| 11> C 	 -107.157 	 44.3249 	 127.405
| 12> H 	 -105.73 	 45.6687 	 128.279
| 13> C 	 -105.437 	 44.1983 	 130.866
| 14> H 	 -105.799 	 43.649 	 131.711
| 15> H 	 -105.537 	 45.1936 	 131.241
| 16> C 	 -103.995 	 43.8542 	 130.493
| 17> H 	 -104.024 	 43.3892 	 129.495
| 18> H 	 -103.319 	 44.7253 	 130.421
| 19> C 	 -103.304 	 42.8995 	 131.47
| 20> H 	 -103.926 	 42.027 	 131.723
| 21> H 	 -102.407 	 42.3524 	 131.176
| 22> H 	 -102.998 	 43.4335 	 132.415
| 23> S 	 -106.167 	 44.0388 	 124.881
| 24> C 	 -106.5 	 45.2064 	 123.742
| 25> C 	 -107.411 	 46.1264 	 124.199
| 26> C 	 -107.925 	 45.8655 	 125.466
| 27> C 	 -107.289 	 44.7866 	 126.024
| 28> H 	 -107.586 	 47.0188 	 123.571
| 29> C 	 -108.677 	 46.9227 	 126.246
| 30> H 	 -108.299 	 47.8596 	 125.835
| 31> H 	 -108.46 	 46.9001 	 127.354
| 32> C 	 -110.196 	 46.8706 	 126.071
| 33> H 	 -110.586 	 45.9069 	 126.549
| 34> H 	 -110.331 	 46.5775 	 125.009
| 35> C 	 -110.929 	 48.1185 	 126.58
| 36> H 	 -110.717 	 48.3574 	 127.594
| 37> H 	 -112.005 	 48.0125 	 126.524
| 38> H 	 -110.513 	 49.0286 	 126.107
| 39> H 	 -107.381 	 42.3094 	 130.407
| 40> H 	 -105.91 	 45.3459 	 122.83
| 41> *
| 42>
| 43>                          ****END OF INPUT****

CARTESIAN COORDINATES (ANGSTROEM)
---------------------------------
  S    -107.815000   42.798100  127.964000
  C    -107.345000   42.989100  129.656000
  C    -106.427000   44.029900  129.711000
  C    -106.373000   44.788300  128.492000
  C    -107.157000   44.324900  127.405000
  H    -105.730000   45.668700  128.279000
  C    -105.437000   44.198300  130.866000
  H    -105.799000   43.649000  131.711000
  H    -105.537000   45.193600  131.241000
  C    -103.995000   43.854200  130.493000
  H    -104.024000   43.389200  129.495000
  H    -103.319000   44.725300  130.421000
  C    -103.304000   42.899500  131.470000
  H    -103.926000   42.027000  131.723000
  H    -102.407000   42.352400  131.176000
  H    -102.998000   43.433500  132.415000
  S    -106.167000   44.038800  124.881000
  C    -106.500000   45.206400  123.742000
  C    -107.411000   46.126400  124.199000
  C    -107.925000   45.865500  125.466000
  C    -107.289000   44.786600  126.024000
  H    -107.586000   47.018800  123.571000
  C    -108.677000   46.922700  126.246000
  H    -108.299000   47.859600  125.835000
  H    -108.460000   46.900100  127.354000
  C    -110.196000   46.870600  126.071000
  H    -110.586000   45.906900  126.549000
  H    -110.331000   46.577500  125.009000
  C    -110.929000   48.118500  126.580000
  H    -110.717000   48.357400  127.594000
  H    -112.005000   48.012500  126.524000
  H    -110.513000   49.028600  126.107000
  H    -107.381000   42.309400  130.407000
  H    -105.910000   45.345900  122.830000

 Total Charge           Charge          ....    0
 Multiplicity           Mult            ....    1
 Number of Electrons    NEL             ....  134
 Basis Dimension        Dim             ....  322

ORBITAL ENERGIES
----------------

  NO   OCC          E(Eh)            E(eV)
   0   2.0000     -88.966340     -2420.8972
   1   2.0000     -88.961290     -2420.7598
   2   2.0000     -10.334570      -281.2180
   3   2.0000     -10.327303      -281.0202
   4   2.0000     -10.313735      -280.6510
   5   2.0000     -10.309306      -280.5305
   6   2.0000     -10.303435      -280.3707
   7   2.0000     -10.302842      -280.3546
   8   2.0000     -10.300146      -280.2812
   9   2.0000     -10.293457      -280.0992
  10   2.0000     -10.291638      -280.0497
  11   2.0000     -10.289999      -280.0051
  12   2.0000     -10.289373      -279.9881
  13   2.0000     -10.288984      -279.9775
  14   2.0000     -10.281810      -279.7823
  15   2.0000     -10.277638      -279.6688
  16   2.0000      -8.082844      -219.9454
  17   2.0000      -8.075607      -219.7485
  18   2.0000      -6.041030      -164.3848
  19   2.0000      -6.037050      -164.2765
  20   2.0000      -6.034175      -164.1983
  21   2.0000      -6.033862      -164.1897
  22   2.0000      -6.030062      -164.0863
  23   2.0000      -6.026404      -163.9868
  24   2.0000      -1.015397       -27.6304
  25   2.0000      -0.986533       -26.8449
  26   2.0000      -0.911665       -24.8077
  27   2.0000      -0.910547       -24.7772
  28   2.0000      -0.870358       -23.6836
  29   2.0000      -0.857276       -23.3277
  30   2.0000      -0.837982       -22.8027
  31   2.0000      -0.812750       -22.1160
  32   2.0000      -0.785838       -21.3837
  33   2.0000      -0.775448       -21.1010
  34   2.0000      -0.711319       -19.3560
  35   2.0000      -0.698470       -19.0063
  36   2.0000      -0.693973       -18.8840
  37   2.0000      -0.662849       -18.0371
  38   2.0000      -0.644276       -17.5316
  39   2.0000      -0.614458       -16.7202
  40   2.0000      -0.600618       -16.3437
  41   2.0000      -0.575285       -15.6543
  42   2.0000      -0.558673       -15.2023
  43   2.0000      -0.551689       -15.0122
  44   2.0000      -0.528609       -14.3842
  45   2.0000      -0.522158       -14.2087
  46   2.0000      -0.516424       -14.0526
  47   2.0000      -0.513697       -13.9784
  48   2.0000      -0.508174       -13.8281
  49   2.0000      -0.506173       -13.7737
  50   2.0000      -0.498572       -13.5668
  51   2.0000      -0.482865       -13.1394
  52   2.0000      -0.466368       -12.6905
  53   2.0000      -0.463723       -12.6185
  54   2.0000      -0.456523       -12.4226
  55   2.0000      -0.449405       -12.2289
  56   2.0000      -0.442961       -12.0536
  57   2.0000      -0.439615       -11.9625
  58   2.0000      -0.428523       -11.6607
  59   2.0000      -0.426226       -11.5982
  60   2.0000      -0.423361       -11.5202
  61   2.0000      -0.408569       -11.1177
  62   2.0000      -0.402292       -10.9469
  63   2.0000      -0.338856        -9.2207
  64   2.0000      -0.330235        -8.9861
  65   2.0000      -0.322079        -8.7642
  66   2.0000      -0.307072        -8.3559
  67   0.0000       0.040966         1.1147
  68   0.0000       0.047845         1.3019
  69   0.0000       0.112509         3.0615
  70   0.0000       0.118217         3.2168
  71   0.0000       0.135355         3.6832

MULLIKEN ATOMIC CHARGES
-----------------------
   0 S :    0.092990
   1 C :   -0.043610
   2 C :   -0.164625
   3 C :    0.046069
   4 C :   -0.174838
   5 H :    0.021558
   6 C :    0.121522
   7 H :    0.004666
   8 H :    0.020963
   9 C :   -0.058595
  10 H :    0.048668
  11 H :    0.038088
  12 C :   -0.094312
  13 H :    0.026930
  14 H :    0.030455
  15 H :    0.039100
  16 S :    0.132047
  17 C :   -0.088899
  18 C :   -0.079385
  19 C :    0.034917
  20 C :   -0.200714
  21 H :    0.029090
  22 C :    0.042110
  23 H :    0.018287
  24 H :    0.045255
  25 C :   -0.107677
  26 H :    0.036660
  27 H :    0.026456
  28 C :   -0.001018
  29 H :    0.014972
  30 H :    0.043724
  31 H :    0.024106
  32 H :    0.009935
  33 H :    0.065104
Sum of atomic charges:   -0.0000000

LOEWDIN ATOMIC CHARGES
----------------------
   0 S :    0.399846
   1 C :   -0.180118
   2 C :   -0.063094
   3 C :   -0.069970
   4 C :   -0.201591
   5 H :    0.034160
   6 C :   -0.027411
   7 H :    0.026575
   8 H :    0.029915
   9 C :   -0.043546
  10 H :    0.031363
  11 H :    0.030035
  12 C :   -0.078066
  13 H :    0.023505
  14 H :    0.026524
  15 H :    0.029110
  16 S :    0.444229
  17 C :   -0.210210
  18 C :   -0.082446
  19 C :   -0.051898
  20 C :   -0.202225
  21 H :    0.036260
  22 C :   -0.028753
  23 H :    0.027765
  24 H :    0.036523
  25 C :   -0.051299
  26 H :    0.031969
  27 H :    0.023797
  28 C :   -0.066208
  29 H :    0.022653
  30 H :    0.029877
  31 H :    0.029055
  32 H :    0.008272
  33 H :    0.035402

  Mayer bond orders larger than 0.100000
B(  0-S ,  1-C ) :   1.1458 B(  0-S ,  4-C ) :   1.1620 B(  1-C ,  2-C ) :   1.5936
B(  1-C ,  4-C ) :   0.1110 B(  1-C , 32-H ) :   0.9756 B(  2-C ,  3-C ) :   1.2492
B(  2-C ,  6-C ) :   1.0429 B(  3-C ,  4-C ) :   1.5575 B(  3-C ,  5-H ) :   0.9920
B(  4-C , 20-C ) :   1.0122 B(  6-C ,  7-H ) :   0.9437 B(  6-C ,  8-H ) :   0.9306
B(  6-C ,  9-C ) :   1.0281 B(  9-C , 10-H ) :   0.9660 B(  9-C , 11-H ) :   0.9548
B(  9-C , 12-C ) :   1.0820 B( 12-C , 13-H ) :   0.9751 B( 12-C , 14-H ) :   0.9751
B( 12-C , 15-H ) :   0.9768 B( 16-S , 17-C ) :   1.1873 B( 16-S , 20-C ) :   1.1678
B( 17-C , 18-C ) :   1.5965 B( 17-C , 33-H ) :   0.9621 B( 18-C , 19-C ) :   1.2538
B( 18-C , 21-H ) :   0.9847 B( 19-C , 20-C ) :   1.5832 B( 19-C , 22-C ) :   1.0331
B( 22-C , 23-H ) :   0.9432 B( 22-C , 24-H ) :   0.9384 B( 22-C , 25-C ) :   1.0498
B( 25-C , 26-H ) :   0.9505 B( 25-C , 27-H ) :   0.9609 B( 25-C , 28-C ) :   1.0715
B( 28-C , 29-H ) :   0.9691 B( 28-C , 30-H ) :   0.9743 B( 28-C , 31-H ) :   0.9716

Dispersion correction           -0.013744670
FINAL SINGLE POINT ENERGY     -1339.859870483983

DIPOLE MOMENT
-------------
                                X             Y             Z
Electronic contribution:     -0.72291     -12.34094     -14.90754
Nuclear contribution   :      1.15049      12.86552      15.08391
                        -----------------------------------------
Total Dipole Moment    :      0.42757       0.52458       0.17636
                        -----------------------------------------
Magnitude (a.u.)       :      0.69936
Magnitude (Debye)      :      1.77762

Rotational constants in cm-1:     0.019742     0.007513     0.006447
Rotational constants in MHz :   591.839356   225.224984   193.277803

                             ****ORCA TERMINATED NORMALLY****
TOTAL RUN TIME: 0 days 0 hours 0 minutes 32 seconds 180 msec
