                         Program Version 4.2.1 -  RELEASE  -
|  1> ! wB97X-D3 SP def2-SVP
|  2> %pal
|  3> nprocs 16
|  4> end
|  5>
|  6> * xyz 0 1
|  7> S 	 -40.1455 	 37.0266 	 76.1163
|  8> C 	 -40.039 	 37.3934 	 77.8437
|  9> C 	 -38.8618 	 36.9431 	 78.4368
| 10> C 	 -37.9591 	 36.3908 	 77.483
| 11> C 	 -38.5129 	 36.3209 	 76.2024
| 12> H 	 -36.9536 	 36.0608 	 77.6952
| 13> C 	 -38.6719 	 37.0205 	 79.8965
| 14> H 	 -37.6474 	 37.5149 	 80.0017
| 15> H 	 -38.507 	 36.0778 	 80.377
| 16> C 	 -39.5961 	 37.931 	 80.737
| 17> H 	 -40.6895 	 37.6868 	 80.5559
| 18> H 	 -39.5865 	 37.7213 	 81.8285
| 19> C 	 -39.428 	 39.4315 	 80.3822
| 20> H 	 -38.4376 	 39.7621 	 80.7577
| 21> H 	 -39.5568 	 39.6702 	 79.3405
| 22> H 	 -40.1212 	 40.0058 	 80.9704
| 23> S 	 -37.499 	 37.3572 	 73.8509
| 24> C 	 -36.4248 	 36.3505 	 72.9015
| 25> C 	 -36.4097 	 35.0749 	 73.3996
| 26> C 	 -37.1077 	 34.8686 	 74.6471
| 27> C 	 -37.7105 	 36.0418 	 75.0061
| 28> H 	 -35.8764 	 34.3226 	 72.8238
| 29> C 	 -37.2465 	 33.5641 	 75.3739
| 30> H 	 -37.1564 	 33.7572 	 76.4686
| 31> H 	 -36.3391 	 32.9909 	 75.1756
| 32> C 	 -38.5757 	 32.9207 	 74.9712
| 33> H 	 -39.3681 	 33.5946 	 75.3012
| 34> H 	 -38.8338 	 32.0647 	 75.5884
| 35> C 	 -38.6804 	 32.5395 	 73.4461
| 36> H 	 -38.6398 	 33.4114 	 72.6935
| 37> H 	 -39.7287 	 32.1625 	 73.2191
| 38> H 	 -37.9288 	 31.7504 	 73.2457
| 39> H 	 -40.8261 	 37.9476 	 78.3459
| 40> H 	 -35.8886 	 36.5841 	 71.9279
| 41> *
| 42>
| 43>                          ****END OF INPUT****

CARTESIAN COORDINATES (ANGSTROEM)
---------------------------------
  S    -40.145500   37.026600   76.116300
  C    -40.039000   37.393400   77.843700
  C    -38.861800   36.943100   78.436800
  C    -37.959100   36.390800   77.483000
  C    -38.512900   36.320900   76.202400
  H    -36.953600   36.060800   77.695200
  C    -38.671900   37.020500   79.896500
  H    -37.647400   37.514900   80.001700
  H    -38.507000   36.077800   80.377000
  C    -39.596100   37.931000   80.737000
  H    -40.689500   37.686800   80.555900
  H    -39.586500   37.721300   81.828500
  C    -39.428000   39.431500   80.382200
  H    -38.437600   39.762100   80.757700
  H    -39.556800   39.670200   79.340500
  H    -40.121200   40.005800   80.970400
  S    -37.499000   37.357200   73.850900
  C    -36.424800   36.350500   72.901500
  C    -36.409700   35.074900   73.399600
  C    -37.107700   34.868600   74.647100
  C    -37.710500   36.041800   75.006100
  H    -35.876400   34.322600   72.823800
  C    -37.246500   33.564100   75.373900
  H    -37.156400   33.757200   76.468600
  H    -36.339100   32.990900   75.175600
  C    -38.575700   32.920700   74.971200
  H    -39.368100   33.594600   75.301200
  H    -38.833800   32.064700   75.588400
  C    -38.680400   32.539500   73.446100
  H    -38.639800   33.411400   72.693500
  H    -39.728700   32.162500   73.219100
  H    -37.928800   31.750400   73.245700
  H    -40.826100   37.947600   78.345900
  H    -35.888600   36.584100   71.927900

 Total Charge           Charge          ....    0
 Multiplicity           Mult            ....    1
 Number of Electrons    NEL             ....  134
 Basis Dimension        Dim             ....  322

ORBITAL ENERGIES
----------------

  NO   OCC          E(Eh)            E(eV)
   0   2.0000     -88.968955     -2420.9683
   1   2.0000     -88.962762     -2420.7998
   2   2.0000     -10.331104      -281.1236
   3   2.0000     -10.320671      -280.8397
   4   2.0000     -10.317345      -280.7492
   5   2.0000     -10.314348      -280.6677
   6   2.0000     -10.302722      -280.3513
   7   2.0000     -10.298209      -280.2285
   8   2.0000     -10.297911      -280.2204
   9   2.0000     -10.297729      -280.2155
  10   2.0000     -10.295627      -280.1583
  11   2.0000     -10.293056      -280.0883
  12   2.0000     -10.290359      -280.0149
  13   2.0000     -10.290311      -280.0136
  14   2.0000     -10.287379      -279.9338
  15   2.0000     -10.278630      -279.6957
  16   2.0000      -8.082711      -219.9417
  17   2.0000      -8.077289      -219.7942
  18   2.0000      -6.041172      -164.3886
  19   2.0000      -6.037465      -164.2878
  20   2.0000      -6.035881      -164.2447
  21   2.0000      -6.033486      -164.1795
  22   2.0000      -6.031914      -164.1367
  23   2.0000      -6.027876      -164.0268
  24   2.0000      -1.002890       -27.2900
  25   2.0000      -0.980213       -26.6729
  26   2.0000      -0.911824       -24.8120
  27   2.0000      -0.906443       -24.6656
  28   2.0000      -0.861339       -23.4382
  29   2.0000      -0.851445       -23.1690
  30   2.0000      -0.837667       -22.7941
  31   2.0000      -0.809618       -22.0308
  32   2.0000      -0.782368       -21.2893
  33   2.0000      -0.770083       -20.9550
  34   2.0000      -0.708322       -19.2744
  35   2.0000      -0.705076       -19.1861
  36   2.0000      -0.687589       -18.7102
  37   2.0000      -0.655541       -17.8382
  38   2.0000      -0.638388       -17.3714
  39   2.0000      -0.609409       -16.5829
  40   2.0000      -0.589190       -16.0327
  41   2.0000      -0.573363       -15.6020
  42   2.0000      -0.556455       -15.1419
  43   2.0000      -0.546821       -14.8798
  44   2.0000      -0.540685       -14.7128
  45   2.0000      -0.528095       -14.3702
  46   2.0000      -0.515869       -14.0375
  47   2.0000      -0.508048       -13.8247
  48   2.0000      -0.500096       -13.6083
  49   2.0000      -0.488066       -13.2809
  50   2.0000      -0.482451       -13.1282
  51   2.0000      -0.477421       -12.9913
  52   2.0000      -0.470289       -12.7972
  53   2.0000      -0.462213       -12.5774
  54   2.0000      -0.456615       -12.4251
  55   2.0000      -0.442570       -12.0429
  56   2.0000      -0.440019       -11.9735
  57   2.0000      -0.437020       -11.8919
  58   2.0000      -0.434451       -11.8220
  59   2.0000      -0.430548       -11.7158
  60   2.0000      -0.424124       -11.5410
  61   2.0000      -0.413259       -11.2454
  62   2.0000      -0.408571       -11.1178
  63   2.0000      -0.342168        -9.3109
  64   2.0000      -0.328625        -8.9423
  65   2.0000      -0.325127        -8.8472
  66   2.0000      -0.294141        -8.0040
  67   0.0000       0.034181         0.9301
  68   0.0000       0.065966         1.7950
  69   0.0000       0.109915         2.9909
  70   0.0000       0.122167         3.3243
  71   0.0000       0.129521         3.5244

MULLIKEN ATOMIC CHARGES
-----------------------
   0 S :    0.110660
   1 C :   -0.142913
   2 C :   -0.066006
   3 C :    0.041086
   4 C :   -0.170264
   5 H :    0.018209
   6 C :    0.071286
   7 H :    0.027861
   8 H :    0.037707
   9 C :   -0.118174
  10 H :    0.026541
  11 H :    0.035799
  12 C :   -0.045078
  13 H :    0.030097
  14 H :    0.047695
  15 H :    0.026105
  16 S :    0.113009
  17 C :   -0.114457
  18 C :   -0.049061
  19 C :   -0.050167
  20 C :   -0.173363
  21 H :    0.013619
  22 C :    0.103770
  23 H :    0.025616
  24 H :    0.019224
  25 C :   -0.045452
  26 H :    0.027533
  27 H :    0.024988
  28 C :   -0.105728
  29 H :    0.063114
  30 H :    0.040994
  31 H :    0.044735
  32 H :    0.054995
  33 H :    0.076022
Sum of atomic charges:   -0.0000000

LOEWDIN ATOMIC CHARGES
----------------------
   0 S :    0.384827
   1 C :   -0.192254
   2 C :   -0.063207
   3 C :   -0.050488
   4 C :   -0.184490
   5 H :    0.032723
   6 C :   -0.039292
   7 H :    0.041183
   8 H :    0.031316
   9 C :   -0.050844
  10 H :    0.022772
  11 H :    0.031743
  12 C :   -0.063889
  13 H :    0.027366
  14 H :    0.024622
  15 H :    0.023840
  16 S :    0.393441
  17 C :   -0.202773
  18 C :   -0.074270
  19 C :   -0.056137
  20 C :   -0.194058
  21 H :    0.028388
  22 C :   -0.034873
  23 H :    0.036834
  24 H :    0.027954
  25 C :   -0.040365
  26 H :    0.026641
  27 H :    0.023527
  28 C :   -0.079942
  29 H :    0.037830
  30 H :    0.033018
  31 H :    0.026774
  32 H :    0.024545
  33 H :    0.047539

  Mayer bond orders larger than 0.100000
B(  0-S ,  1-C ) :   1.1260 B(  0-S ,  4-C ) :   1.1414 B(  1-C ,  2-C ) :   1.6164
B(  1-C , 32-H ) :   0.9554 B(  2-C ,  3-C ) :   1.2423 B(  2-C ,  6-C ) :   1.0113
B(  3-C ,  4-C ) :   1.5814 B(  3-C ,  5-H ) :   0.9891 B(  4-C , 20-C ) :   1.0237
B(  6-C ,  7-H ) :   0.9319 B(  6-C ,  8-H ) :   0.9377 B(  6-C ,  9-C ) :   1.0750
B(  9-C , 10-H ) :   0.9488 B(  9-C , 11-H ) :   0.9549 B(  9-C , 12-C ) :   1.0697
B( 12-C , 13-H ) :   0.9737 B( 12-C , 14-H ) :   0.9767 B( 12-C , 15-H ) :   0.9734
B( 16-S , 17-C ) :   1.1296 B( 16-S , 20-C ) :   1.1367 B( 17-C , 18-C ) :   1.6533
B( 17-C , 33-H ) :   0.9565 B( 18-C , 19-C ) :   1.2138 B( 18-C , 21-H ) :   0.9841
B( 19-C , 20-C ) :   1.6249 B( 19-C , 22-C ) :   1.0421 B( 22-C , 23-H ) :   0.9222
B( 22-C , 24-H ) :   0.9330 B( 22-C , 25-C ) :   1.0677 B( 25-C , 26-H ) :   0.9538
B( 25-C , 27-H ) :   0.9552 B( 25-C , 28-C ) :   1.0630 B( 28-C , 29-H ) :   0.9710
B( 28-C , 30-H ) :   0.9728 B( 28-C , 31-H ) :   0.9761

Dispersion correction           -0.015155826
FINAL SINGLE POINT ENERGY     -1339.882677764064

DIPOLE MOMENT
-------------
                                X             Y             Z
Electronic contribution:      1.01386       8.20651     -14.50000
Nuclear contribution   :     -0.84451      -8.50702      14.95199
                        -----------------------------------------
Total Dipole Moment    :      0.16935      -0.30051       0.45199
                        -----------------------------------------
Magnitude (a.u.)       :      0.56858
Magnitude (Debye)      :      1.44521

Rotational constants in cm-1:     0.025288     0.007579     0.006818
Rotational constants in MHz :   758.116880   227.212654   204.384779

                             ****ORCA TERMINATED NORMALLY****
TOTAL RUN TIME: 0 days 0 hours 0 minutes 30 seconds 501 msec
