                         Program Version 4.2.1 -  RELEASE  -
|  1> ! wB97X-D3 SP def2-SVP
|  2> %pal
|  3> nprocs 16
|  4> end
|  5>
|  6> * xyz 0 1
|  7> S 	 -31.4593 	 55.914 	 107.33
|  8> C 	 -30.565 	 56.4651 	 105.916
|  9> C 	 -30.538 	 57.8743 	 105.829
| 10> C 	 -31.1943 	 58.4788 	 106.984
| 11> C 	 -31.7941 	 57.5566 	 107.846
| 12> H 	 -31.2231 	 59.5156 	 107.251
| 13> C 	 -29.9867 	 58.7253 	 104.689
| 14> H 	 -30.8151 	 59.2568 	 104.23
| 15> H 	 -29.5653 	 58.0311 	 104.02
| 16> C 	 -28.8492 	 59.6848 	 105.162
| 17> H 	 -29.2693 	 60.381 	 105.827
| 18> H 	 -28.037 	 59.0786 	 105.592
| 19> C 	 -28.2235 	 60.4376 	 104
| 20> H 	 -28.962 	 61.1334 	 103.538
| 21> H 	 -27.2672 	 61.0127 	 104.193
| 22> H 	 -27.877 	 59.7384 	 103.237
| 23> S 	 -32.5871 	 56.9422 	 110.368
| 24> C 	 -33.8334 	 57.9023 	 111.115
| 25> C 	 -34.3901 	 58.7705 	 110.227
| 26> C 	 -33.7269 	 58.7963 	 108.973
| 27> C 	 -32.6656 	 57.9138 	 108.964
| 28> H 	 -35.2195 	 59.4466 	 110.556
| 29> C 	 -34.2839 	 59.6444 	 107.782
| 30> H 	 -35.352 	 59.5742 	 107.699
| 31> H 	 -33.9853 	 59.1598 	 106.895
| 32> C 	 -33.8213 	 61.0828 	 107.771
| 33> H 	 -32.7436 	 61.1137 	 107.953
| 34> H 	 -34.1348 	 61.5759 	 108.657
| 35> C 	 -34.1918 	 61.8165 	 106.479
| 36> H 	 -33.9234 	 61.2149 	 105.521
| 37> H 	 -33.7837 	 62.8325 	 106.45
| 38> H 	 -35.2503 	 61.9444 	 106.478
| 39> H 	 -30.3632 	 55.728 	 105.141
| 40> H 	 -34.2538 	 57.7858 	 112.099
| 41> *
| 42>
| 43>                          ****END OF INPUT****

CARTESIAN COORDINATES (ANGSTROEM)
---------------------------------
  S    -31.459300   55.914000  107.330000
  C    -30.565000   56.465100  105.916000
  C    -30.538000   57.874300  105.829000
  C    -31.194300   58.478800  106.984000
  C    -31.794100   57.556600  107.846000
  H    -31.223100   59.515600  107.251000
  C    -29.986700   58.725300  104.689000
  H    -30.815100   59.256800  104.230000
  H    -29.565300   58.031100  104.020000
  C    -28.849200   59.684800  105.162000
  H    -29.269300   60.381000  105.827000
  H    -28.037000   59.078600  105.592000
  C    -28.223500   60.437600  104.000000
  H    -28.962000   61.133400  103.538000
  H    -27.267200   61.012700  104.193000
  H    -27.877000   59.738400  103.237000
  S    -32.587100   56.942200  110.368000
  C    -33.833400   57.902300  111.115000
  C    -34.390100   58.770500  110.227000
  C    -33.726900   58.796300  108.973000
  C    -32.665600   57.913800  108.964000
  H    -35.219500   59.446600  110.556000
  C    -34.283900   59.644400  107.782000
  H    -35.352000   59.574200  107.699000
  H    -33.985300   59.159800  106.895000
  C    -33.821300   61.082800  107.771000
  H    -32.743600   61.113700  107.953000
  H    -34.134800   61.575900  108.657000
  C    -34.191800   61.816500  106.479000
  H    -33.923400   61.214900  105.521000
  H    -33.783700   62.832500  106.450000
  H    -35.250300   61.944400  106.478000
  H    -30.363200   55.728000  105.141000
  H    -34.253800   57.785800  112.099000

 Total Charge           Charge          ....    0
 Multiplicity           Mult            ....    1
 Number of Electrons    NEL             ....  134
 Basis Dimension        Dim             ....  322

ORBITAL ENERGIES
----------------

  NO   OCC          E(Eh)            E(eV)
   0   2.0000     -88.967250     -2420.9220
   1   2.0000     -88.965834     -2420.8834
   2   2.0000     -10.330084      -281.0959
   3   2.0000     -10.324320      -280.9390
   4   2.0000     -10.318166      -280.7716
   5   2.0000     -10.312281      -280.6114
   6   2.0000     -10.309440      -280.5341
   7   2.0000     -10.303338      -280.3681
   8   2.0000     -10.293754      -280.1073
   9   2.0000     -10.292994      -280.0866
  10   2.0000     -10.291776      -280.0535
  11   2.0000     -10.286807      -279.9183
  12   2.0000     -10.285947      -279.8948
  13   2.0000     -10.285495      -279.8825
  14   2.0000     -10.282807      -279.8094
  15   2.0000     -10.282291      -279.7954
  16   2.0000      -8.082916      -219.9473
  17   2.0000      -8.080295      -219.8760
  18   2.0000      -6.041332      -164.3930
  19   2.0000      -6.038834      -164.3250
  20   2.0000      -6.037392      -164.2858
  21   2.0000      -6.034807      -164.2154
  22   2.0000      -6.033627      -164.1833
  23   2.0000      -6.031090      -164.1143
  24   2.0000      -1.011021       -27.5113
  25   2.0000      -0.980633       -26.6844
  26   2.0000      -0.911904       -24.8142
  27   2.0000      -0.910985       -24.7892
  28   2.0000      -0.869626       -23.6637
  29   2.0000      -0.852409       -23.1952
  30   2.0000      -0.844304       -22.9747
  31   2.0000      -0.813342       -22.1322
  32   2.0000      -0.781873       -21.2759
  33   2.0000      -0.770045       -20.9540
  34   2.0000      -0.707422       -19.2499
  35   2.0000      -0.703013       -19.1300
  36   2.0000      -0.692643       -18.8478
  37   2.0000      -0.661248       -17.9935
  38   2.0000      -0.641247       -17.4492
  39   2.0000      -0.618968       -16.8430
  40   2.0000      -0.598281       -16.2801
  41   2.0000      -0.578619       -15.7450
  42   2.0000      -0.561567       -15.2810
  43   2.0000      -0.555561       -15.1176
  44   2.0000      -0.528253       -14.3745
  45   2.0000      -0.519966       -14.1490
  46   2.0000      -0.513839       -13.9823
  47   2.0000      -0.510222       -13.8838
  48   2.0000      -0.504211       -13.7203
  49   2.0000      -0.502146       -13.6641
  50   2.0000      -0.494395       -13.4532
  51   2.0000      -0.479192       -13.0395
  52   2.0000      -0.474317       -12.9068
  53   2.0000      -0.464810       -12.6481
  54   2.0000      -0.455603       -12.3976
  55   2.0000      -0.450503       -12.2588
  56   2.0000      -0.447142       -12.1674
  57   2.0000      -0.440862       -11.9965
  58   2.0000      -0.434579       -11.8255
  59   2.0000      -0.427217       -11.6252
  60   2.0000      -0.421623       -11.4729
  61   2.0000      -0.419279       -11.4092
  62   2.0000      -0.414006       -11.2657
  63   2.0000      -0.351924        -9.5763
  64   2.0000      -0.334486        -9.1018
  65   2.0000      -0.327815        -8.9203
  66   2.0000      -0.289324        -7.8729
  67   0.0000       0.030041         0.8174
  68   0.0000       0.073885         2.0105
  69   0.0000       0.106389         2.8950
  70   0.0000       0.118217         3.2168
  71   0.0000       0.128522         3.4973

MULLIKEN ATOMIC CHARGES
-----------------------
   0 S :    0.100098
   1 C :   -0.138305
   2 C :   -0.093150
   3 C :    0.007556
   4 C :   -0.122249
   5 H :    0.005121
   6 C :    0.099754
   7 H :    0.040543
   8 H :   -0.000340
   9 C :   -0.066093
  10 H :    0.028768
  11 H :    0.041606
  12 C :   -0.076160
  13 H :    0.033398
  14 H :    0.044196
  15 H :    0.023194
  16 S :    0.114080
  17 C :   -0.082871
  18 C :   -0.049332
  19 C :   -0.045898
  20 C :   -0.165691
  21 H :    0.035168
  22 C :    0.099831
  23 H :    0.017119
  24 H :    0.006215
  25 C :   -0.053015
  26 H :    0.015217
  27 H :    0.009138
  28 C :   -0.047742
  29 H :    0.046214
  30 H :    0.040009
  31 H :    0.024204
  32 H :    0.061025
  33 H :    0.048392
Sum of atomic charges:   -0.0000000

LOEWDIN ATOMIC CHARGES
----------------------
   0 S :    0.393898
   1 C :   -0.204741
   2 C :   -0.052635
   3 C :   -0.065898
   4 C :   -0.187650
   5 H :    0.025629
   6 C :   -0.021771
   7 H :    0.033142
   8 H :    0.021548
   9 C :   -0.033238
  10 H :    0.016031
  11 H :    0.032687
  12 C :   -0.076788
  13 H :    0.025851
  14 H :    0.032749
  15 H :    0.022154
  16 S :    0.425415
  17 C :   -0.189533
  18 C :   -0.075039
  19 C :   -0.052570
  20 C :   -0.209371
  21 H :    0.040247
  22 C :   -0.021595
  23 H :    0.027887
  24 H :    0.022313
  25 C :   -0.043810
  26 H :    0.019916
  27 H :    0.019205
  28 C :   -0.067461
  29 H :    0.036773
  30 H :    0.028924
  31 H :    0.020374
  32 H :    0.028322
  33 H :    0.029035

  Mayer bond orders larger than 0.100000
B(  0-S ,  1-C ) :   1.1318 B(  0-S ,  4-C ) :   1.1521 B(  1-C ,  2-C ) :   1.6092
B(  1-C , 32-H ) :   0.9663 B(  2-C ,  3-C ) :   1.2174 B(  2-C ,  6-C ) :   1.0310
B(  3-C ,  4-C ) :   1.5771 B(  3-C ,  5-H ) :   0.9980 B(  4-C , 20-C ) :   1.0443
B(  6-C ,  7-H ) :   0.9383 B(  6-C ,  8-H ) :   0.9350 B(  6-C ,  9-C ) :   1.0626
B(  9-C , 10-H ) :   0.9585 B(  9-C , 11-H ) :   0.9556 B(  9-C , 12-C ) :   1.0894
B( 12-C , 13-H ) :   0.9736 B( 12-C , 14-H ) :   0.9746 B( 12-C , 15-H ) :   0.9729
B( 16-S , 17-C ) :   1.1473 B( 16-S , 20-C ) :   1.1492 B( 17-C , 18-C ) :   1.6268
B( 17-C , 33-H ) :   0.9676 B( 18-C , 19-C ) :   1.2513 B( 18-C , 21-H ) :   0.9808
B( 19-C , 20-C ) :   1.5916 B( 19-C , 22-C ) :   1.0276 B( 22-C , 23-H ) :   0.9404
B( 22-C , 24-H ) :   0.9258 B( 22-C , 25-C ) :   1.0602 B( 25-C , 26-H ) :   0.9504
B( 25-C , 27-H ) :   0.9470 B( 25-C , 28-C ) :   1.0784 B( 28-C , 29-H ) :   0.9735
B( 28-C , 30-H ) :   0.9727 B( 28-C , 31-H ) :   0.9735

Dispersion correction           -0.014237917
FINAL SINGLE POINT ENERGY     -1339.886622422393

DIPOLE MOMENT
-------------
                                X             Y             Z
Electronic contribution:     -3.85984     -25.72517      20.01378
Nuclear contribution   :      3.61227      26.30103     -20.37264
                        -----------------------------------------
Total Dipole Moment    :     -0.24757       0.57587      -0.35885
                        -----------------------------------------
Magnitude (a.u.)       :      0.72228
Magnitude (Debye)      :      1.83589

Rotational constants in cm-1:     0.017390     0.009175     0.006631
Rotational constants in MHz :   521.350741   275.067917   198.790591

                             ****ORCA TERMINATED NORMALLY****
TOTAL RUN TIME: 0 days 0 hours 0 minutes 28 seconds 967 msec
