                         Program Version 4.2.1 -  RELEASE  -
|  1> ! wB97X-D3 SP def2-SVP
|  2> %pal
|  3> nprocs 16
|  4> end
|  5>
|  6> * xyz 0 1
|  7> S 	 -0.501269 	 -25.6182 	 60.1168
|  8> C 	 -1.51251 	 -25.5236 	 61.597
|  9> C 	 -2.65809 	 -26.3134 	 61.4242
| 10> C 	 -2.73153 	 -26.9346 	 60.1623
| 11> C 	 -1.68193 	 -26.6038 	 59.2783
| 12> H 	 -3.4574 	 -27.5808 	 59.739
| 13> C 	 -3.6173 	 -26.5203 	 62.5027
| 14> H 	 -3.26151 	 -25.9078 	 63.3367
| 15> H 	 -3.41192 	 -27.5279 	 62.8712
| 16> C 	 -5.14192 	 -26.3209 	 62.0545
| 17> H 	 -5.29766 	 -25.3077 	 61.6852
| 18> H 	 -5.34402 	 -27.1387 	 61.2946
| 19> C 	 -6.15925 	 -26.4396 	 63.253
| 20> H 	 -6.14471 	 -27.3405 	 63.918
| 21> H 	 -5.96535 	 -25.6941 	 63.9507
| 22> H 	 -7.20686 	 -26.381 	 62.8608
| 23> S 	 0.141317 	 -27.6976 	 57.7106
| 24> C 	 -0.231367 	 -27.8602 	 55.9799
| 25> C 	 -1.60502 	 -27.6964 	 55.7317
| 26> C 	 -2.31423 	 -27.2601 	 56.8807
| 27> C 	 -1.49676 	 -27.1071 	 57.973
| 28> H 	 -1.91472 	 -27.7747 	 54.7117
| 29> C 	 -3.76702 	 -26.8374 	 56.9037
| 30> H 	 -4.14169 	 -26.7461 	 57.8954
| 31> H 	 -4.25795 	 -27.6276 	 56.3481
| 32> C 	 -4.08901 	 -25.5137 	 56.1653
| 33> H 	 -5.14789 	 -25.376 	 55.9626
| 34> H 	 -3.6985 	 -25.5003 	 55.1558
| 35> C 	 -3.57679 	 -24.2473 	 56.958
| 36> H 	 -3.74369 	 -23.3562 	 56.446
| 37> H 	 -2.54861 	 -24.2762 	 57.2389
| 38> H 	 -4.19596 	 -24.2281 	 57.8801
| 39> H 	 -1.22125 	 -24.9863 	 62.4985
| 40> H 	 0.469882 	 -28.1031 	 55.235
| 41> *
| 42>
| 43>                          ****END OF INPUT****

CARTESIAN COORDINATES (ANGSTROEM)
---------------------------------
  S     -0.501269  -25.618200   60.116800
  C     -1.512510  -25.523600   61.597000
  C     -2.658090  -26.313400   61.424200
  C     -2.731530  -26.934600   60.162300
  C     -1.681930  -26.603800   59.278300
  H     -3.457400  -27.580800   59.739000
  C     -3.617300  -26.520300   62.502700
  H     -3.261510  -25.907800   63.336700
  H     -3.411920  -27.527900   62.871200
  C     -5.141920  -26.320900   62.054500
  H     -5.297660  -25.307700   61.685200
  H     -5.344020  -27.138700   61.294600
  C     -6.159250  -26.439600   63.253000
  H     -6.144710  -27.340500   63.918000
  H     -5.965350  -25.694100   63.950700
  H     -7.206860  -26.381000   62.860800
  S      0.141317  -27.697600   57.710600
  C     -0.231367  -27.860200   55.979900
  C     -1.605020  -27.696400   55.731700
  C     -2.314230  -27.260100   56.880700
  C     -1.496760  -27.107100   57.973000
  H     -1.914720  -27.774700   54.711700
  C     -3.767020  -26.837400   56.903700
  H     -4.141690  -26.746100   57.895400
  H     -4.257950  -27.627600   56.348100
  C     -4.089010  -25.513700   56.165300
  H     -5.147890  -25.376000   55.962600
  H     -3.698500  -25.500300   55.155800
  C     -3.576790  -24.247300   56.958000
  H     -3.743690  -23.356200   56.446000
  H     -2.548610  -24.276200   57.238900
  H     -4.195960  -24.228100   57.880100
  H     -1.221250  -24.986300   62.498500
  H      0.469882  -28.103100   55.235000

 Total Charge           Charge          ....    0
 Multiplicity           Mult            ....    1
 Number of Electrons    NEL             ....  134
 Basis Dimension        Dim             ....  322

ORBITAL ENERGIES
----------------

  NO   OCC          E(Eh)            E(eV)
   0   2.0000     -88.966579     -2420.9037
   1   2.0000     -88.964635     -2420.8508
   2   2.0000     -10.327922      -281.0370
   3   2.0000     -10.321456      -280.8611
   4   2.0000     -10.317925      -280.7650
   5   2.0000     -10.317659      -280.7578
   6   2.0000     -10.304050      -280.3874
   7   2.0000     -10.303812      -280.3810
   8   2.0000     -10.300064      -280.2790
   9   2.0000     -10.297045      -280.1968
  10   2.0000     -10.292283      -280.0672
  11   2.0000     -10.290094      -280.0077
  12   2.0000     -10.289971      -280.0043
  13   2.0000     -10.285642      -279.8866
  14   2.0000     -10.282167      -279.7920
  15   2.0000     -10.266905      -279.3767
  16   2.0000      -8.080244      -219.8746
  17   2.0000      -8.079002      -219.8408
  18   2.0000      -6.038724      -164.3220
  19   2.0000      -6.037447      -164.2873
  20   2.0000      -6.034811      -164.2156
  21   2.0000      -6.033697      -164.1852
  22   2.0000      -6.031168      -164.1164
  23   2.0000      -6.029697      -164.0764
  24   2.0000      -1.007200       -27.4073
  25   2.0000      -0.978958       -26.6388
  26   2.0000      -0.909856       -24.7584
  27   2.0000      -0.904073       -24.6011
  28   2.0000      -0.868853       -23.6427
  29   2.0000      -0.848010       -23.0755
  30   2.0000      -0.842489       -22.9253
  31   2.0000      -0.814124       -22.1534
  32   2.0000      -0.783141       -21.3103
  33   2.0000      -0.769610       -20.9421
  34   2.0000      -0.716051       -19.4847
  35   2.0000      -0.701177       -19.0800
  36   2.0000      -0.697700       -18.9854
  37   2.0000      -0.664382       -18.0787
  38   2.0000      -0.643729       -17.5168
  39   2.0000      -0.617763       -16.8102
  40   2.0000      -0.594845       -16.1866
  41   2.0000      -0.565837       -15.3972
  42   2.0000      -0.559985       -15.2380
  43   2.0000      -0.552221       -15.0267
  44   2.0000      -0.539398       -14.6778
  45   2.0000      -0.527169       -14.3450
  46   2.0000      -0.519017       -14.1232
  47   2.0000      -0.506778       -13.7901
  48   2.0000      -0.501445       -13.6450
  49   2.0000      -0.498804       -13.5732
  50   2.0000      -0.495370       -13.4797
  51   2.0000      -0.478176       -13.0118
  52   2.0000      -0.470504       -12.8031
  53   2.0000      -0.467076       -12.7098
  54   2.0000      -0.455489       -12.3945
  55   2.0000      -0.445590       -12.1251
  56   2.0000      -0.444966       -12.1082
  57   2.0000      -0.435903       -11.8615
  58   2.0000      -0.432543       -11.7701
  59   2.0000      -0.429413       -11.6849
  60   2.0000      -0.421383       -11.4664
  61   2.0000      -0.417055       -11.3486
  62   2.0000      -0.411720       -11.2035
  63   2.0000      -0.345643        -9.4054
  64   2.0000      -0.333469        -9.0741
  65   2.0000      -0.328224        -8.9314
  66   2.0000      -0.283401        -7.7117
  67   0.0000       0.020051         0.5456
  68   0.0000       0.072220         1.9652
  69   0.0000       0.102138         2.7793
  70   0.0000       0.122281         3.3274
  71   0.0000       0.130286         3.5452

MULLIKEN ATOMIC CHARGES
-----------------------
   0 S :    0.107757
   1 C :   -0.140589
   2 C :   -0.069262
   3 C :    0.030944
   4 C :   -0.157502
   5 H :    0.005508
   6 C :    0.080443
   7 H :    0.005382
   8 H :    0.039647
   9 C :   -0.101186
  10 H :    0.047997
  11 H :    0.053684
  12 C :   -0.054020
  13 H :    0.028937
  14 H :    0.018444
  15 H :    0.044472
  16 S :    0.100080
  17 C :   -0.083776
  18 C :   -0.040897
  19 C :   -0.018210
  20 C :   -0.168868
  21 H :    0.015637
  22 C :    0.111278
  23 H :    0.006187
  24 H :    0.024703
  25 C :   -0.078445
  26 H :    0.025928
  27 H :    0.016918
  28 C :   -0.033922
  29 H :    0.019506
  30 H :    0.038927
  31 H :    0.027571
  32 H :    0.055573
  33 H :    0.041152
Sum of atomic charges:   -0.0000000

LOEWDIN ATOMIC CHARGES
----------------------
   0 S :    0.391864
   1 C :   -0.195736
   2 C :   -0.062727
   3 C :   -0.064429
   4 C :   -0.193205
   5 H :    0.023551
   6 C :   -0.037627
   7 H :    0.027999
   8 H :    0.038148
   9 C :   -0.032662
  10 H :    0.030115
  11 H :    0.031901
  12 C :   -0.073610
  13 H :    0.027684
  14 H :    0.014386
  15 H :    0.032373
  16 S :    0.389072
  17 C :   -0.165377
  18 C :   -0.062444
  19 C :   -0.054709
  20 C :   -0.191436
  21 H :    0.030464
  22 C :   -0.023130
  23 H :    0.022919
  24 H :    0.034537
  25 C :   -0.036126
  26 H :    0.023038
  27 H :    0.017371
  28 C :   -0.057778
  29 H :    0.015577
  30 H :    0.022871
  31 H :    0.028632
  32 H :    0.030668
  33 H :    0.017824

  Mayer bond orders larger than 0.100000
B(  0-S ,  1-C ) :   1.1247 B(  0-S ,  4-C ) :   1.1538 B(  1-C ,  2-C ) :   1.5713
B(  1-C ,  4-C ) :   0.1073 B(  1-C , 32-H ) :   0.9700 B(  2-C ,  3-C ) :   1.2435
B(  2-C ,  6-C ) :   1.0453 B(  3-C ,  4-C ) :   1.5346 B(  3-C ,  5-H ) :   0.9938
B(  4-C , 20-C ) :   1.0867 B(  6-C ,  7-H ) :   0.9355 B(  6-C ,  8-H ) :   0.9285
B(  6-C ,  9-C ) :   1.0406 B(  9-C , 10-H ) :   0.9607 B(  9-C , 11-H ) :   0.9563
B(  9-C , 12-C ) :   1.0731 B( 12-C , 13-H ) :   0.9766 B( 12-C , 14-H ) :   0.9763
B( 12-C , 15-H ) :   0.9770 B( 16-S , 17-C ) :   1.1401 B( 16-S , 20-C ) :   1.1313
B( 17-C , 18-C ) :   1.6241 B( 17-C , 20-C ) :   0.1043 B( 17-C , 33-H ) :   0.9746
B( 18-C , 19-C ) :   1.2088 B( 18-C , 21-H ) :   0.9952 B( 19-C , 20-C ) :   1.5982
B( 19-C , 22-C ) :   1.0502 B( 22-C , 23-H ) :   0.9337 B( 22-C , 24-H ) :   0.9196
B( 22-C , 25-C ) :   1.0785 B( 25-C , 26-H ) :   0.9565 B( 25-C , 27-H ) :   0.9567
B( 25-C , 28-C ) :   1.0671 B( 28-C , 29-H ) :   0.9754 B( 28-C , 30-H ) :   0.9797
B( 28-C , 31-H ) :   0.9761

Dispersion correction           -0.014963047
FINAL SINGLE POINT ENERGY     -1339.871182579978

DIPOLE MOMENT
-------------
                                X             Y             Z
Electronic contribution:     27.19267      -6.20282      -5.79607
Nuclear contribution   :    -27.81254       6.18403       5.79689
                        -----------------------------------------
Total Dipole Moment    :     -0.61987      -0.01878       0.00082
                        -----------------------------------------
Magnitude (a.u.)       :      0.62016
Magnitude (Debye)      :      1.57631

Rotational constants in cm-1:     0.019821     0.008841     0.007188
Rotational constants in MHz :   594.230003   265.059794   215.476706

                             ****ORCA TERMINATED NORMALLY****
TOTAL RUN TIME: 0 days 0 hours 0 minutes 34 seconds 577 msec
