                         Program Version 4.2.1 -  RELEASE  -
|  1> ! wB97X-D3 SP def2-SVP
|  2> %pal
|  3> nprocs 16
|  4> end
|  5>
|  6> * xyz 0 1
|  7> S 	 -106.36 	 57.5921 	 121.561
|  8> C 	 -105.33 	 58.8533 	 120.935
|  9> C 	 -105.314 	 58.8157 	 119.529
| 10> C 	 -106.133 	 57.7674 	 118.991
| 11> C 	 -106.79 	 57.0612 	 119.931
| 12> H 	 -106.227 	 57.62 	 117.906
| 13> C 	 -104.325 	 59.5693 	 118.612
| 14> H 	 -104.173 	 58.9726 	 117.743
| 15> H 	 -103.352 	 59.571 	 118.913
| 16> C 	 -104.841 	 60.8966 	 118.142
| 17> H 	 -104.005 	 61.3532 	 117.63
| 18> H 	 -105.56 	 60.7654 	 117.38
| 19> C 	 -105.172 	 61.7943 	 119.391
| 20> H 	 -104.286 	 61.9371 	 119.967
| 21> H 	 -105.609 	 62.7267 	 118.977
| 22> H 	 -105.838 	 61.3979 	 120.156
| 23> S 	 -107.265 	 54.5277 	 120.8
| 24> C 	 -107.989 	 53.357 	 119.835
| 25> C 	 -108.331 	 53.8619 	 118.609
| 26> C 	 -108.178 	 55.2713 	 118.547
| 27> C 	 -107.503 	 55.8324 	 119.653
| 28> H 	 -108.724 	 53.2466 	 117.803
| 29> C 	 -108.385 	 55.9309 	 117.159
| 30> H 	 -108.497 	 57.0667 	 117.187
| 31> H 	 -109.292 	 55.5227 	 116.839
| 32> C 	 -107.251 	 55.5248 	 116.228
| 33> H 	 -107.209 	 54.4502 	 116.092
| 34> H 	 -106.268 	 55.8991 	 116.521
| 35> C 	 -107.405 	 56.258 	 114.94
| 36> H 	 -106.579 	 55.9989 	 114.224
| 37> H 	 -107.276 	 57.3535 	 115.073
| 38> H 	 -108.406 	 56.1166 	 114.516
| 39> H 	 -104.758 	 59.5231 	 121.459
| 40> H 	 -108.068 	 52.2891 	 120.164
| 41> *
| 42>
| 43>                          ****END OF INPUT****

CARTESIAN COORDINATES (ANGSTROEM)
---------------------------------
  S    -106.360000   57.592100  121.561000
  C    -105.330000   58.853300  120.935000
  C    -105.314000   58.815700  119.529000
  C    -106.133000   57.767400  118.991000
  C    -106.790000   57.061200  119.931000
  H    -106.227000   57.620000  117.906000
  C    -104.325000   59.569300  118.612000
  H    -104.173000   58.972600  117.743000
  H    -103.352000   59.571000  118.913000
  C    -104.841000   60.896600  118.142000
  H    -104.005000   61.353200  117.630000
  H    -105.560000   60.765400  117.380000
  C    -105.172000   61.794300  119.391000
  H    -104.286000   61.937100  119.967000
  H    -105.609000   62.726700  118.977000
  H    -105.838000   61.397900  120.156000
  S    -107.265000   54.527700  120.800000
  C    -107.989000   53.357000  119.835000
  C    -108.331000   53.861900  118.609000
  C    -108.178000   55.271300  118.547000
  C    -107.503000   55.832400  119.653000
  H    -108.724000   53.246600  117.803000
  C    -108.385000   55.930900  117.159000
  H    -108.497000   57.066700  117.187000
  H    -109.292000   55.522700  116.839000
  C    -107.251000   55.524800  116.228000
  H    -107.209000   54.450200  116.092000
  H    -106.268000   55.899100  116.521000
  C    -107.405000   56.258000  114.940000
  H    -106.579000   55.998900  114.224000
  H    -107.276000   57.353500  115.073000
  H    -108.406000   56.116600  114.516000
  H    -104.758000   59.523100  121.459000
  H    -108.068000   52.289100  120.164000

 Total Charge           Charge          ....    0
 Multiplicity           Mult            ....    1
 Number of Electrons    NEL             ....  134
 Basis Dimension        Dim             ....  322

ORBITAL ENERGIES
----------------

  NO   OCC          E(Eh)            E(eV)
   0   2.0000     -88.969723     -2420.9893
   1   2.0000     -88.960959     -2420.7508
   2   2.0000     -10.329582      -281.0822
   3   2.0000     -10.327617      -281.0287
   4   2.0000     -10.315331      -280.6944
   5   2.0000     -10.312182      -280.6087
   6   2.0000     -10.304260      -280.3932
   7   2.0000     -10.302376      -280.3419
   8   2.0000     -10.294653      -280.1318
   9   2.0000     -10.292244      -280.0662
  10   2.0000     -10.291471      -280.0452
  11   2.0000     -10.284732      -279.8618
  12   2.0000     -10.282312      -279.7959
  13   2.0000     -10.281629      -279.7773
  14   2.0000     -10.279422      -279.7173
  15   2.0000     -10.276400      -279.6351
  16   2.0000      -8.083993      -219.9766
  17   2.0000      -8.077298      -219.7944
  18   2.0000      -6.042660      -164.4291
  19   2.0000      -6.038590      -164.3184
  20   2.0000      -6.035708      -164.2400
  21   2.0000      -6.034595      -164.2097
  22   2.0000      -6.031354      -164.1215
  23   2.0000      -6.028284      -164.0379
  24   2.0000      -1.011722       -27.5304
  25   2.0000      -0.988081       -26.8871
  26   2.0000      -0.919912       -25.0321
  27   2.0000      -0.915746       -24.9187
  28   2.0000      -0.872009       -23.7286
  29   2.0000      -0.855625       -23.2827
  30   2.0000      -0.844128       -22.9699
  31   2.0000      -0.811003       -22.0685
  32   2.0000      -0.786542       -21.4029
  33   2.0000      -0.773970       -21.0608
  34   2.0000      -0.708044       -19.2668
  35   2.0000      -0.702580       -19.1182
  36   2.0000      -0.695256       -18.9189
  37   2.0000      -0.665170       -18.1002
  38   2.0000      -0.640535       -17.4298
  39   2.0000      -0.626675       -17.0527
  40   2.0000      -0.599731       -16.3195
  41   2.0000      -0.574232       -15.6256
  42   2.0000      -0.572286       -15.5727
  43   2.0000      -0.550698       -14.9853
  44   2.0000      -0.541909       -14.7461
  45   2.0000      -0.531934       -14.4747
  46   2.0000      -0.519168       -14.1273
  47   2.0000      -0.515043       -14.0150
  48   2.0000      -0.506518       -13.7831
  49   2.0000      -0.501642       -13.6504
  50   2.0000      -0.491391       -13.3714
  51   2.0000      -0.484704       -13.1895
  52   2.0000      -0.470017       -12.7898
  53   2.0000      -0.466701       -12.6996
  54   2.0000      -0.457289       -12.4435
  55   2.0000      -0.454032       -12.3548
  56   2.0000      -0.444169       -12.0864
  57   2.0000      -0.439324       -11.9546
  58   2.0000      -0.438267       -11.9259
  59   2.0000      -0.428280       -11.6541
  60   2.0000      -0.415050       -11.2941
  61   2.0000      -0.412784       -11.2324
  62   2.0000      -0.404456       -11.0058
  63   2.0000      -0.360352        -9.8057
  64   2.0000      -0.333358        -9.0711
  65   2.0000      -0.327617        -8.9149
  66   2.0000      -0.283785        -7.7222
  67   0.0000       0.025009         0.6805
  68   0.0000       0.080688         2.1956
  69   0.0000       0.105672         2.8755
  70   0.0000       0.121169         3.2972
  71   0.0000       0.124827         3.3967

MULLIKEN ATOMIC CHARGES
-----------------------
   0 S :    0.112364
   1 C :   -0.081428
   2 C :   -0.095855
   3 C :   -0.007502
   4 C :   -0.079708
   5 H :    0.005795
   6 C :    0.086174
   7 H :   -0.004937
   8 H :    0.004304
   9 C :   -0.029654
  10 H :    0.019767
  11 H :    0.018908
  12 C :   -0.064026
  13 H :    0.018476
  14 H :    0.043186
  15 H :    0.044209
  16 S :    0.093389
  17 C :   -0.095994
  18 C :   -0.057722
  19 C :   -0.041818
  20 C :   -0.128013
  21 H :    0.024737
  22 C :    0.035882
  23 H :    0.041622
  24 H :    0.010085
  25 C :   -0.052304
  26 H :    0.030055
  27 H :    0.026409
  28 C :   -0.061455
  29 H :    0.040625
  30 H :    0.025770
  31 H :    0.028020
  32 H :    0.013057
  33 H :    0.077579
Sum of atomic charges:   -0.0000000

LOEWDIN ATOMIC CHARGES
----------------------
   0 S :    0.401419
   1 C :   -0.185981
   2 C :   -0.049940
   3 C :   -0.062300
   4 C :   -0.186743
   5 H :    0.033984
   6 C :   -0.029637
   7 H :    0.027612
   8 H :    0.017480
   9 C :   -0.030319
  10 H :    0.025617
  11 H :    0.016540
  12 C :   -0.066730
  13 H :    0.020422
  14 H :    0.030329
  15 H :    0.024956
  16 S :    0.431457
  17 C :   -0.209767
  18 C :   -0.082423
  19 C :   -0.056767
  20 C :   -0.195181
  21 H :    0.032715
  22 C :   -0.027943
  23 H :    0.036081
  24 H :    0.021304
  25 C :   -0.042325
  26 H :    0.024572
  27 H :    0.024866
  28 C :   -0.069710
  29 H :    0.030519
  30 H :    0.023740
  31 H :    0.020706
  32 H :    0.010137
  33 H :    0.041308

  Mayer bond orders larger than 0.100000
B(  0-S ,  1-C ) :   1.1318 B(  0-S ,  4-C ) :   1.1335 B(  1-C ,  2-C ) :   1.5993
B(  1-C , 32-H ) :   0.9796 B(  2-C ,  3-C ) :   1.2625 B(  2-C ,  6-C ) :   1.0073
B(  3-C ,  4-C ) :   1.5692 B(  3-C ,  5-H ) :   0.9835 B(  4-C , 20-C ) :   1.0654
B(  6-C ,  7-H ) :   0.9345 B(  6-C ,  8-H ) :   0.9456 B(  6-C ,  9-C ) :   1.0846
B(  9-C , 10-H ) :   0.9508 B(  9-C , 11-H ) :   0.9596 B(  9-C , 12-C ) :   1.0656
B( 12-C , 13-H ) :   0.9738 B( 12-C , 14-H ) :   0.9762 B( 12-C , 15-H ) :   0.9736
B( 16-S , 17-C ) :   1.1931 B( 16-S , 20-C ) :   1.1464 B( 17-C , 18-C ) :   1.5560
B( 17-C , 33-H ) :   0.9632 B( 18-C , 19-C ) :   1.2740 B( 18-C , 21-H ) :   0.9927
B( 19-C , 20-C ) :   1.5547 B( 19-C , 22-C ) :   1.0441 B( 22-C , 23-H ) :   0.9478
B( 22-C , 24-H ) :   0.9235 B( 22-C , 25-C ) :   1.0686 B( 25-C , 26-H ) :   0.9477
B( 25-C , 27-H ) :   0.9526 B( 25-C , 28-C ) :   1.0851 B( 28-C , 29-H ) :   0.9705
B( 28-C , 30-H ) :   0.9732 B( 28-C , 31-H ) :   0.9703

Dispersion correction           -0.014623215
FINAL SINGLE POINT ENERGY     -1339.859394349820

DIPOLE MOMENT
-------------
                                X             Y             Z
Electronic contribution:     -5.10892     -15.59612      24.75223
Nuclear contribution   :      5.43708      15.61200     -25.49610
                        -----------------------------------------
Total Dipole Moment    :      0.32816       0.01588      -0.74387
                        -----------------------------------------
Magnitude (a.u.)       :      0.81319
Magnitude (Debye)      :      2.06697

Rotational constants in cm-1:     0.018931     0.009511     0.006658
Rotational constants in MHz :   567.524094   285.126153   199.593848

                             ****ORCA TERMINATED NORMALLY****
TOTAL RUN TIME: 0 days 0 hours 0 minutes 35 seconds 904 msec
