                         Program Version 4.2.1 -  RELEASE  -
|  1> ! wB97X-D3 SP def2-SVP
|  2> %pal
|  3> nprocs 16
|  4> end
|  5>
|  6> * xyz 0 1
|  7> S 	 51.3259 	 5.73042 	 83.1547
|  8> C 	 52.6955 	 6.60619 	 83.6642
|  9> C 	 52.297 	 7.81609 	 84.1458
| 10> C 	 50.9007 	 7.86922 	 84.3355
| 11> C 	 50.164 	 6.72614 	 83.9811
| 12> H 	 50.5235 	 8.75202 	 84.7564
| 13> C 	 53.3432 	 8.77216 	 84.6375
| 14> H 	 53.6458 	 9.38535 	 83.7443
| 15> H 	 54.21 	 8.13232 	 84.859
| 16> C 	 53.0002 	 9.74448 	 85.7291
| 17> H 	 52.3022 	 10.4838 	 85.3486
| 18> H 	 52.4467 	 9.20788 	 86.4844
| 19> C 	 54.2715 	 10.4369 	 86.1916
| 20> H 	 53.9808 	 11.315 	 86.6815
| 21> H 	 54.9285 	 9.90746 	 86.8734
| 22> H 	 54.7974 	 10.7942 	 85.2939
| 23> S 	 47.9344 	 6.89034 	 82.5106
| 24> C 	 46.3145 	 6.59909 	 83.2168
| 25> C 	 46.4037 	 6.13141 	 84.4992
| 26> C 	 47.7641 	 5.97402 	 84.9004
| 27> C 	 48.713 	 6.48305 	 83.9824
| 28> H 	 45.5456 	 5.99076 	 85.1364
| 29> C 	 48.0785 	 5.46692 	 86.2301
| 30> H 	 49.1675 	 5.20562 	 86.2382
| 31> H 	 47.5855 	 4.49848 	 86.2953
| 32> C 	 47.763 	 6.45614 	 87.4264
| 33> H 	 46.744 	 6.75485 	 87.5838
| 34> H 	 48.225 	 7.39526 	 87.2933
| 35> C 	 48.3512 	 5.96609 	 88.7775
| 36> H 	 49.4568 	 5.77818 	 88.7366
| 37> H 	 47.8579 	 5.03427 	 89.0248
| 38> H 	 48.2482 	 6.76448 	 89.5709
| 39> H 	 53.7557 	 6.36725 	 83.4142
| 40> H 	 45.4439 	 6.86627 	 82.7109
| 41> *
| 42>
| 43>                          ****END OF INPUT****

CARTESIAN COORDINATES (ANGSTROEM)
---------------------------------
  S     51.325900    5.730420   83.154700
  C     52.695500    6.606190   83.664200
  C     52.297000    7.816090   84.145800
  C     50.900700    7.869220   84.335500
  C     50.164000    6.726140   83.981100
  H     50.523500    8.752020   84.756400
  C     53.343200    8.772160   84.637500
  H     53.645800    9.385350   83.744300
  H     54.210000    8.132320   84.859000
  C     53.000200    9.744480   85.729100
  H     52.302200   10.483800   85.348600
  H     52.446700    9.207880   86.484400
  C     54.271500   10.436900   86.191600
  H     53.980800   11.315000   86.681500
  H     54.928500    9.907460   86.873400
  H     54.797400   10.794200   85.293900
  S     47.934400    6.890340   82.510600
  C     46.314500    6.599090   83.216800
  C     46.403700    6.131410   84.499200
  C     47.764100    5.974020   84.900400
  C     48.713000    6.483050   83.982400
  H     45.545600    5.990760   85.136400
  C     48.078500    5.466920   86.230100
  H     49.167500    5.205620   86.238200
  H     47.585500    4.498480   86.295300
  C     47.763000    6.456140   87.426400
  H     46.744000    6.754850   87.583800
  H     48.225000    7.395260   87.293300
  C     48.351200    5.966090   88.777500
  H     49.456800    5.778180   88.736600
  H     47.857900    5.034270   89.024800
  H     48.248200    6.764480   89.570900
  H     53.755700    6.367250   83.414200
  H     45.443900    6.866270   82.710900

 Total Charge           Charge          ....    0
 Multiplicity           Mult            ....    1
 Number of Electrons    NEL             ....  134
 Basis Dimension        Dim             ....  322

ORBITAL ENERGIES
----------------

  NO   OCC          E(Eh)            E(eV)
   0   2.0000     -88.961744     -2420.7721
   1   2.0000     -88.961257     -2420.7589
   2   2.0000     -10.332575      -281.1637
   3   2.0000     -10.327145      -281.0159
   4   2.0000     -10.315246      -280.6921
   5   2.0000     -10.308569      -280.5104
   6   2.0000     -10.301654      -280.3222
   7   2.0000     -10.293387      -280.0973
   8   2.0000     -10.290840      -280.0280
   9   2.0000     -10.290381      -280.0155
  10   2.0000     -10.290209      -280.0108
  11   2.0000     -10.289996      -280.0050
  12   2.0000     -10.284246      -279.8486
  13   2.0000     -10.283883      -279.8387
  14   2.0000     -10.282615      -279.8042
  15   2.0000     -10.275405      -279.6080
  16   2.0000      -8.076996      -219.7862
  17   2.0000      -8.076724      -219.7788
  18   2.0000      -6.035383      -164.2311
  19   2.0000      -6.035267      -164.2280
  20   2.0000      -6.031170      -164.1165
  21   2.0000      -6.031072      -164.1138
  22   2.0000      -6.027992      -164.0300
  23   2.0000      -6.027561      -164.0183
  24   2.0000      -1.010590       -27.4995
  25   2.0000      -0.989189       -26.9172
  26   2.0000      -0.919720       -25.0269
  27   2.0000      -0.904040       -24.6002
  28   2.0000      -0.875457       -23.8224
  29   2.0000      -0.849803       -23.1243
  30   2.0000      -0.846687       -23.0395
  31   2.0000      -0.820724       -22.3330
  32   2.0000      -0.779560       -21.2129
  33   2.0000      -0.762933       -20.7605
  34   2.0000      -0.717440       -19.5225
  35   2.0000      -0.703325       -19.1384
  36   2.0000      -0.687660       -18.7122
  37   2.0000      -0.664812       -18.0905
  38   2.0000      -0.637551       -17.3487
  39   2.0000      -0.625902       -17.0317
  40   2.0000      -0.596007       -16.2182
  41   2.0000      -0.579781       -15.7766
  42   2.0000      -0.570304       -15.5188
  43   2.0000      -0.556669       -15.1477
  44   2.0000      -0.531811       -14.4713
  45   2.0000      -0.522728       -14.2241
  46   2.0000      -0.519901       -14.1472
  47   2.0000      -0.511662       -13.9230
  48   2.0000      -0.507546       -13.8110
  49   2.0000      -0.498772       -13.5723
  50   2.0000      -0.492032       -13.3889
  51   2.0000      -0.478882       -13.0310
  52   2.0000      -0.471751       -12.8370
  53   2.0000      -0.467591       -12.7238
  54   2.0000      -0.456884       -12.4324
  55   2.0000      -0.446973       -12.1627
  56   2.0000      -0.438494       -11.9320
  57   2.0000      -0.436791       -11.8857
  58   2.0000      -0.433637       -11.7999
  59   2.0000      -0.428387       -11.6570
  60   2.0000      -0.426349       -11.6015
  61   2.0000      -0.414117       -11.2687
  62   2.0000      -0.409891       -11.1537
  63   2.0000      -0.339395        -9.2354
  64   2.0000      -0.325265        -8.8509
  65   2.0000      -0.316867        -8.6224
  66   2.0000      -0.305493        -8.3129
  67   0.0000       0.045063         1.2262
  68   0.0000       0.048177         1.3110
  69   0.0000       0.119745         3.2584
  70   0.0000       0.124546         3.3891
  71   0.0000       0.132059         3.5935

MULLIKEN ATOMIC CHARGES
-----------------------
   0 S :    0.118954
   1 C :   -0.142370
   2 C :   -0.098710
   3 C :    0.064483
   4 C :   -0.149056
   5 H :   -0.019854
   6 C :    0.032299
   7 H :    0.038041
   8 H :    0.027603
   9 C :   -0.079736
  10 H :    0.030882
  11 H :    0.027408
  12 C :   -0.003658
  13 H :    0.011271
  14 H :    0.042019
  15 H :    0.023592
  16 S :    0.103506
  17 C :   -0.069539
  18 C :   -0.017216
  19 C :   -0.039994
  20 C :   -0.167155
  21 H :    0.022429
  22 C :    0.057537
  23 H :    0.030210
  24 H :    0.030473
  25 C :   -0.038585
  26 H :    0.021827
  27 H :    0.013009
  28 C :   -0.084164
  29 H :    0.038073
  30 H :    0.032497
  31 H :    0.042029
  32 H :    0.065305
  33 H :    0.036589
Sum of atomic charges:   -0.0000000

LOEWDIN ATOMIC CHARGES
----------------------
   0 S :    0.433505
   1 C :   -0.213338
   2 C :   -0.078684
   3 C :   -0.055701
   4 C :   -0.213034
   5 H :    0.018696
   6 C :   -0.038962
   7 H :    0.037350
   8 H :    0.032810
   9 C :   -0.043416
  10 H :    0.025990
  11 H :    0.021600
  12 C :   -0.056235
  13 H :    0.019401
  14 H :    0.027369
  15 H :    0.029762
  16 S :    0.409496
  17 C :   -0.156572
  18 C :   -0.065155
  19 C :   -0.055601
  20 C :   -0.217121
  21 H :    0.034801
  22 C :   -0.037200
  23 H :    0.038501
  24 H :    0.033840
  25 C :   -0.035673
  26 H :    0.020496
  27 H :    0.019895
  28 C :   -0.070214
  29 H :    0.028029
  30 H :    0.020150
  31 H :    0.031098
  32 H :    0.039322
  33 H :    0.014792

  Mayer bond orders larger than 0.100000
B(  0-S ,  1-C ) :   1.1744 B(  0-S ,  4-C ) :   1.1730 B(  1-C ,  2-C ) :   1.5627
B(  1-C ,  4-C ) :   0.1123 B(  1-C , 32-H ) :   0.9622 B(  2-C ,  3-C ) :   1.3173
B(  2-C ,  6-C ) :   1.0104 B(  3-C ,  4-C ) :   1.5031 B(  3-C ,  5-H ) :   1.0043
B(  4-C , 20-C ) :   1.0084 B(  6-C ,  7-H ) :   0.9144 B(  6-C ,  8-H ) :   0.9530
B(  6-C ,  9-C ) :   1.0878 B(  9-C , 10-H ) :   0.9418 B(  9-C , 11-H ) :   0.9568
B(  9-C , 12-C ) :   1.0883 B( 12-C , 13-H ) :   0.9697 B( 12-C , 14-H ) :   0.9761
B( 12-C , 15-H ) :   0.9686 B( 16-S , 17-C ) :   1.1548 B( 16-S , 20-C ) :   1.1613
B( 17-C , 18-C ) :   1.6004 B( 17-C , 20-C ) :   0.1011 B( 17-C , 33-H ) :   0.9770
B( 18-C , 19-C ) :   1.2360 B( 18-C , 21-H ) :   0.9953 B( 19-C , 20-C ) :   1.5837
B( 19-C , 22-C ) :   1.0794 B( 22-C , 23-H ) :   0.9325 B( 22-C , 24-H ) :   0.9245
B( 22-C , 25-C ) :   1.0435 B( 25-C , 26-H ) :   0.9570 B( 25-C , 27-H ) :   0.9545
B( 25-C , 28-C ) :   1.0843 B( 28-C , 29-H ) :   0.9762 B( 28-C , 30-H ) :   0.9774
B( 28-C , 31-H ) :   0.9753

Dispersion correction           -0.013420806
FINAL SINGLE POINT ENERGY     -1339.865436233314

DIPOLE MOMENT
-------------
                                X             Y             Z
Electronic contribution:     -9.21248     -11.10118     -25.01754
Nuclear contribution   :      9.28304      11.54795      25.52716
                        -----------------------------------------
Total Dipole Moment    :      0.07056       0.44677       0.50961
                        -----------------------------------------
Magnitude (a.u.)       :      0.68138
Magnitude (Debye)      :      1.73194

Rotational constants in cm-1:     0.017122     0.008295     0.006625
Rotational constants in MHz :   513.313576   248.664459   198.597887

                             ****ORCA TERMINATED NORMALLY****
TOTAL RUN TIME: 0 days 0 hours 0 minutes 37 seconds 125 msec
