                         Program Version 4.2.1 -  RELEASE  -
|  1> ! wB97X-D3 SP def2-SVP
|  2> %pal
|  3> nprocs 16
|  4> end
|  5>
|  6> * xyz 0 1
|  7> S 	 5.33796 	 -11.8535 	 70.6094
|  8> C 	 3.72537 	 -11.5333 	 70.087
|  9> C 	 3.61547 	 -11.7026 	 68.7056
| 10> C 	 4.84921 	 -12.1196 	 68.1177
| 11> C 	 5.79976 	 -12.3324 	 69.0602
| 12> H 	 5.0069 	 -12.4624 	 67.1147
| 13> C 	 2.31648 	 -11.5245 	 67.8672
| 14> H 	 1.44238 	 -11.7357 	 68.5003
| 15> H 	 2.34884 	 -12.3976 	 67.1976
| 16> C 	 2.08756 	 -10.2417 	 67.1304
| 17> H 	 2.98681 	 -10.0005 	 66.5041
| 18> H 	 1.19721 	 -10.1601 	 66.4764
| 19> C 	 1.88262 	 -9.09188 	 68.0638
| 20> H 	 2.82398 	 -8.89925 	 68.6102
| 21> H 	 1.63722 	 -8.18104 	 67.5145
| 22> H 	 1.13735 	 -9.37492 	 68.8107
| 23> S 	 8.34961 	 -11.9095 	 68.1161
| 24> C 	 9.38403 	 -13.2006 	 67.8616
| 25> C 	 8.78736 	 -14.4148 	 68.3061
| 26> C 	 7.39707 	 -14.3029 	 68.7442
| 27> C 	 7.06997 	 -12.9521 	 68.8011
| 28> H 	 9.3688 	 -15.3107 	 68.2747
| 29> C 	 6.59668 	 -15.4422 	 69.1713
| 30> H 	 6.03552 	 -15.0991 	 70.0655
| 31> H 	 7.26978 	 -16.2175 	 69.4171
| 32> C 	 5.62311 	 -15.9463 	 68.0204
| 33> H 	 5.01498 	 -15.1271 	 67.7051
| 34> H 	 4.95371 	 -16.7974 	 68.3004
| 35> C 	 6.40298 	 -16.5839 	 66.9255
| 36> H 	 6.99059 	 -15.8897 	 66.3764
| 37> H 	 5.72286 	 -17.0138 	 66.2053
| 38> H 	 7.02671 	 -17.4277 	 67.2752
| 39> H 	 2.93754 	 -11.0609 	 70.6421
| 40> H 	 10.296 	 -13.155 	 67.3754
| 41> *
| 42>
| 43>                          ****END OF INPUT****

CARTESIAN COORDINATES (ANGSTROEM)
---------------------------------
  S      5.337960  -11.853500   70.609400
  C      3.725370  -11.533300   70.087000
  C      3.615470  -11.702600   68.705600
  C      4.849210  -12.119600   68.117700
  C      5.799760  -12.332400   69.060200
  H      5.006900  -12.462400   67.114700
  C      2.316480  -11.524500   67.867200
  H      1.442380  -11.735700   68.500300
  H      2.348840  -12.397600   67.197600
  C      2.087560  -10.241700   67.130400
  H      2.986810  -10.000500   66.504100
  H      1.197210  -10.160100   66.476400
  C      1.882620   -9.091880   68.063800
  H      2.823980   -8.899250   68.610200
  H      1.637220   -8.181040   67.514500
  H      1.137350   -9.374920   68.810700
  S      8.349610  -11.909500   68.116100
  C      9.384030  -13.200600   67.861600
  C      8.787360  -14.414800   68.306100
  C      7.397070  -14.302900   68.744200
  C      7.069970  -12.952100   68.801100
  H      9.368800  -15.310700   68.274700
  C      6.596680  -15.442200   69.171300
  H      6.035520  -15.099100   70.065500
  H      7.269780  -16.217500   69.417100
  C      5.623110  -15.946300   68.020400
  H      5.014980  -15.127100   67.705100
  H      4.953710  -16.797400   68.300400
  C      6.402980  -16.583900   66.925500
  H      6.990590  -15.889700   66.376400
  H      5.722860  -17.013800   66.205300
  H      7.026710  -17.427700   67.275200
  H      2.937540  -11.060900   70.642100
  H     10.296000  -13.155000   67.375400

 Total Charge           Charge          ....    0
 Multiplicity           Mult            ....    1
 Number of Electrons    NEL             ....  134
 Basis Dimension        Dim             ....  322

ORBITAL ENERGIES
----------------

  NO   OCC          E(Eh)            E(eV)
   0   2.0000     -88.968039     -2420.9434
   1   2.0000     -88.964198     -2420.8389
   2   2.0000     -10.321063      -280.8504
   3   2.0000     -10.317848      -280.7629
   4   2.0000     -10.311809      -280.5986
   5   2.0000     -10.311259      -280.5836
   6   2.0000     -10.304792      -280.4076
   7   2.0000     -10.304202      -280.3916
   8   2.0000     -10.295032      -280.1421
   9   2.0000     -10.294101      -280.1167
  10   2.0000     -10.289133      -279.9815
  11   2.0000     -10.288999      -279.9779
  12   2.0000     -10.286177      -279.9011
  13   2.0000     -10.285515      -279.8831
  14   2.0000     -10.272367      -279.5253
  15   2.0000     -10.269163      -279.4381
  16   2.0000      -8.084170      -219.9815
  17   2.0000      -8.079747      -219.8611
  18   2.0000      -6.042413      -164.4224
  19   2.0000      -6.038391      -164.3130
  20   2.0000      -6.038058      -164.3039
  21   2.0000      -6.035213      -164.2265
  22   2.0000      -6.033996      -164.1934
  23   2.0000      -6.030823      -164.1070
  24   2.0000      -1.015708       -27.6388
  25   2.0000      -0.987223       -26.8637
  26   2.0000      -0.917260       -24.9599
  27   2.0000      -0.916090       -24.9281
  28   2.0000      -0.872167       -23.7329
  29   2.0000      -0.854435       -23.2504
  30   2.0000      -0.854068       -23.2404
  31   2.0000      -0.807656       -21.9774
  32   2.0000      -0.786063       -21.3899
  33   2.0000      -0.774636       -21.0789
  34   2.0000      -0.707259       -19.2455
  35   2.0000      -0.694008       -18.8849
  36   2.0000      -0.687647       -18.7118
  37   2.0000      -0.664878       -18.0922
  38   2.0000      -0.646562       -17.5939
  39   2.0000      -0.618661       -16.8346
  40   2.0000      -0.591143       -16.0858
  41   2.0000      -0.570138       -15.5142
  42   2.0000      -0.560648       -15.2560
  43   2.0000      -0.557021       -15.1573
  44   2.0000      -0.553356       -15.0576
  45   2.0000      -0.548356       -14.9215
  46   2.0000      -0.521062       -14.1788
  47   2.0000      -0.513353       -13.9691
  48   2.0000      -0.504900       -13.7390
  49   2.0000      -0.493685       -13.4339
  50   2.0000      -0.485183       -13.2025
  51   2.0000      -0.482068       -13.1177
  52   2.0000      -0.470860       -12.8128
  53   2.0000      -0.466690       -12.6993
  54   2.0000      -0.458696       -12.4817
  55   2.0000      -0.447669       -12.1817
  56   2.0000      -0.445523       -12.1233
  57   2.0000      -0.442056       -12.0290
  58   2.0000      -0.427970       -11.6457
  59   2.0000      -0.427523       -11.6335
  60   2.0000      -0.419508       -11.4154
  61   2.0000      -0.416529       -11.3343
  62   2.0000      -0.409735       -11.1494
  63   2.0000      -0.338957        -9.2235
  64   2.0000      -0.326891        -8.8952
  65   2.0000      -0.317737        -8.6461
  66   2.0000      -0.310616        -8.4523
  67   0.0000       0.047121         1.2822
  68   0.0000       0.055489         1.5099
  69   0.0000       0.113971         3.1013
  70   0.0000       0.118380         3.2213
  71   0.0000       0.128554         3.4981

MULLIKEN ATOMIC CHARGES
-----------------------
   0 S :    0.138086
   1 C :   -0.104818
   2 C :   -0.128995
   3 C :    0.070875
   4 C :   -0.192438
   5 H :    0.011643
   6 C :    0.065337
   7 H :    0.020719
   8 H :    0.027603
   9 C :   -0.061897
  10 H :    0.031730
  11 H :    0.036299
  12 C :   -0.065295
  13 H :    0.035768
  14 H :    0.036803
  15 H :    0.020772
  16 S :    0.126366
  17 C :   -0.068583
  18 C :   -0.046238
  19 C :   -0.019924
  20 C :   -0.205018
  21 H :    0.006867
  22 C :    0.108531
  23 H :    0.040421
  24 H :    0.007400
  25 C :   -0.064829
  26 H :    0.027526
  27 H :    0.035355
  28 C :   -0.048243
  29 H :    0.029902
  30 H :    0.023430
  31 H :    0.028374
  32 H :    0.041003
  33 H :    0.035468
Sum of atomic charges:   -0.0000000

LOEWDIN ATOMIC CHARGES
----------------------
   0 S :    0.451503
   1 C :   -0.210244
   2 C :   -0.058593
   3 C :   -0.058957
   4 C :   -0.223963
   5 H :    0.030609
   6 C :   -0.034438
   7 H :    0.029431
   8 H :    0.032804
   9 C :   -0.052138
  10 H :    0.028554
  11 H :    0.029592
  12 C :   -0.067349
  13 H :    0.025447
  14 H :    0.026314
  15 H :    0.020072
  16 S :    0.430193
  17 C :   -0.201958
  18 C :   -0.072270
  19 C :   -0.044749
  20 C :   -0.202818
  21 H :    0.021554
  22 C :   -0.027060
  23 H :    0.038668
  24 H :    0.025280
  25 C :   -0.032397
  26 H :    0.019580
  27 H :    0.030734
  28 C :   -0.066012
  29 H :    0.017667
  30 H :    0.024908
  31 H :    0.027216
  32 H :    0.026027
  33 H :    0.016790

  Mayer bond orders larger than 0.100000
B(  0-S ,  1-C ) :   1.1481 B(  0-S ,  4-C ) :   1.1846 B(  1-C ,  2-C ) :   1.6035
B(  1-C , 32-H ) :   0.9701 B(  2-C ,  3-C ) :   1.2509 B(  2-C ,  6-C ) :   1.0050
B(  3-C ,  4-C ) :   1.5753 B(  3-C ,  5-H ) :   0.9937 B(  4-C , 20-C ) :   0.9941
B(  6-C ,  7-H ) :   0.9451 B(  6-C ,  8-H ) :   0.9396 B(  6-C ,  9-C ) :   1.0754
B(  9-C , 10-H ) :   0.9516 B(  9-C , 11-H ) :   0.9558 B(  9-C , 12-C ) :   1.0797
B( 12-C , 13-H ) :   0.9740 B( 12-C , 14-H ) :   0.9730 B( 12-C , 15-H ) :   0.9733
B( 16-S , 17-C ) :   1.1854 B( 16-S , 20-C ) :   1.1533 B( 17-C , 18-C ) :   1.5760
B( 17-C , 20-C ) :   0.1012 B( 17-C , 33-H ) :   0.9767 B( 18-C , 19-C ) :   1.2368
B( 18-C , 21-H ) :   0.9897 B( 19-C , 20-C ) :   1.5864 B( 19-C , 22-C ) :   1.0483
B( 22-C , 23-H ) :   0.9281 B( 22-C , 24-H ) :   0.9311 B( 22-C , 25-C ) :   1.0609
B( 25-C , 26-H ) :   0.9566 B( 25-C , 27-H ) :   0.9596 B( 25-C , 28-C ) :   1.0810
B( 28-C , 29-H ) :   0.9723 B( 28-C , 30-H ) :   0.9699 B( 28-C , 31-H ) :   0.9723

Dispersion correction           -0.015465398
FINAL SINGLE POINT ENERGY     -1339.878837236865

DIPOLE MOMENT
-------------
                                X             Y             Z
Electronic contribution:     17.27580       7.06582      10.94141
Nuclear contribution   :    -17.57289      -7.38900     -11.29844
                        -----------------------------------------
Total Dipole Moment    :     -0.29709      -0.32318      -0.35703
                        -----------------------------------------
Magnitude (a.u.)       :      0.56585
Magnitude (Debye)      :      1.43827

Rotational constants in cm-1:     0.021210     0.008288     0.007386
Rotational constants in MHz :   635.845511   248.471927   221.431383

                             ****ORCA TERMINATED NORMALLY****
TOTAL RUN TIME: 0 days 0 hours 0 minutes 32 seconds 528 msec
