                         Program Version 4.2.1 -  RELEASE  -
|  1> ! wB97X-D3 SP def2-SVP
|  2> %pal
|  3> nprocs 16
|  4> end
|  5>
|  6> * xyz 0 1
|  7> S 	 -100.095 	 39.4595 	 121.212
|  8> C 	 -99.6177 	 38.1626 	 122.335
|  9> C 	 -99.4838 	 38.6579 	 123.586
| 10> C 	 -99.7796 	 40.0417 	 123.692
| 11> C 	 -100.229 	 40.6409 	 122.521
| 12> H 	 -99.7276 	 40.6148 	 124.602
| 13> C 	 -98.9685 	 37.9246 	 124.818
| 14> H 	 -99.4292 	 36.9147 	 124.83
| 15> H 	 -99.2985 	 38.3503 	 125.756
| 16> C 	 -97.4321 	 37.9128 	 124.809
| 17> H 	 -97.1346 	 37.596 	 123.788
| 18> H 	 -97.064 	 38.9395 	 124.892
| 19> C 	 -96.8016 	 37.0638 	 125.909
| 20> H 	 -97.1771 	 36.0161 	 125.779
| 21> H 	 -95.7438 	 37.0193 	 125.883
| 22> H 	 -97.0613 	 37.3726 	 126.927
| 23> S 	 -99.5449 	 43.3044 	 122.889
| 24> C 	 -100.585 	 44.4906 	 122.156
| 25> C 	 -101.761 	 43.9544 	 121.685
| 26> C 	 -101.79 	 42.5209 	 121.799
| 27> C 	 -100.627 	 42.0292 	 122.412
| 28> H 	 -102.591 	 44.636 	 121.288
| 29> C 	 -103.006 	 41.7251 	 121.49
| 30> H 	 -103.676 	 42.0017 	 122.377
| 31> H 	 -102.887 	 40.6328 	 121.688
| 32> C 	 -103.784 	 41.8784 	 120.251
| 33> H 	 -103.145 	 41.8623 	 119.436
| 34> H 	 -104.362 	 42.7967 	 120.227
| 35> C 	 -104.899 	 40.8839 	 120.095
| 36> H 	 -104.592 	 39.8536 	 120.07
| 37> H 	 -105.333 	 41.0422 	 119.156
| 38> H 	 -105.736 	 41.2333 	 120.72
| 39> H 	 -99.4943 	 37.1209 	 122.084
| 40> H 	 -100.373 	 45.5568 	 122.16
| 41> *
| 42>
| 43>                          ****END OF INPUT****

CARTESIAN COORDINATES (ANGSTROEM)
---------------------------------
  S    -100.095000   39.459500  121.212000
  C    -99.617700   38.162600  122.335000
  C    -99.483800   38.657900  123.586000
  C    -99.779600   40.041700  123.692000
  C    -100.229000   40.640900  122.521000
  H    -99.727600   40.614800  124.602000
  C    -98.968500   37.924600  124.818000
  H    -99.429200   36.914700  124.830000
  H    -99.298500   38.350300  125.756000
  C    -97.432100   37.912800  124.809000
  H    -97.134600   37.596000  123.788000
  H    -97.064000   38.939500  124.892000
  C    -96.801600   37.063800  125.909000
  H    -97.177100   36.016100  125.779000
  H    -95.743800   37.019300  125.883000
  H    -97.061300   37.372600  126.927000
  S    -99.544900   43.304400  122.889000
  C    -100.585000   44.490600  122.156000
  C    -101.761000   43.954400  121.685000
  C    -101.790000   42.520900  121.799000
  C    -100.627000   42.029200  122.412000
  H    -102.591000   44.636000  121.288000
  C    -103.006000   41.725100  121.490000
  H    -103.676000   42.001700  122.377000
  H    -102.887000   40.632800  121.688000
  C    -103.784000   41.878400  120.251000
  H    -103.145000   41.862300  119.436000
  H    -104.362000   42.796700  120.227000
  C    -104.899000   40.883900  120.095000
  H    -104.592000   39.853600  120.070000
  H    -105.333000   41.042200  119.156000
  H    -105.736000   41.233300  120.720000
  H    -99.494300   37.120900  122.084000
  H    -100.373000   45.556800  122.160000

 Total Charge           Charge          ....    0
 Multiplicity           Mult            ....    1
 Number of Electrons    NEL             ....  134
 Basis Dimension        Dim             ....  322

ORBITAL ENERGIES
----------------

  NO   OCC          E(Eh)            E(eV)
   0   2.0000     -88.967867     -2420.9387
   1   2.0000     -88.965492     -2420.8741
   2   2.0000     -10.328195      -281.0445
   3   2.0000     -10.323101      -280.9059
   4   2.0000     -10.317911      -280.7646
   5   2.0000     -10.312232      -280.6101
   6   2.0000     -10.305121      -280.4166
   7   2.0000     -10.299961      -280.2762
   8   2.0000     -10.295442      -280.1532
   9   2.0000     -10.291494      -280.0458
  10   2.0000     -10.288472      -279.9636
  11   2.0000     -10.287268      -279.9308
  12   2.0000     -10.286753      -279.9168
  13   2.0000     -10.277866      -279.6750
  14   2.0000     -10.272327      -279.5242
  15   2.0000     -10.269445      -279.4458
  16   2.0000      -8.082853      -219.9456
  17   2.0000      -8.079063      -219.8425
  18   2.0000      -6.041389      -164.3946
  19   2.0000      -6.037817      -164.2973
  20   2.0000      -6.037339      -164.2843
  21   2.0000      -6.033695      -164.1852
  22   2.0000      -6.033564      -164.1816
  23   2.0000      -6.029660      -164.0754
  24   2.0000      -1.005312       -27.3559
  25   2.0000      -0.983477       -26.7618
  26   2.0000      -0.920848       -25.0576
  27   2.0000      -0.909391       -24.7458
  28   2.0000      -0.869474       -23.6596
  29   2.0000      -0.858497       -23.3609
  30   2.0000      -0.843456       -22.9516
  31   2.0000      -0.812115       -22.0988
  32   2.0000      -0.784143       -21.3376
  33   2.0000      -0.772074       -21.0092
  34   2.0000      -0.706746       -19.2315
  35   2.0000      -0.698063       -18.9953
  36   2.0000      -0.696019       -18.9396
  37   2.0000      -0.657072       -17.8798
  38   2.0000      -0.634385       -17.2625
  39   2.0000      -0.615637       -16.7523
  40   2.0000      -0.601096       -16.3566
  41   2.0000      -0.581723       -15.8295
  42   2.0000      -0.571060       -15.5393
  43   2.0000      -0.554748       -15.0955
  44   2.0000      -0.526049       -14.3145
  45   2.0000      -0.521488       -14.1904
  46   2.0000      -0.519876       -14.1466
  47   2.0000      -0.510458       -13.8903
  48   2.0000      -0.505858       -13.7651
  49   2.0000      -0.499091       -13.5809
  50   2.0000      -0.491611       -13.3774
  51   2.0000      -0.480441       -13.0735
  52   2.0000      -0.469113       -12.7652
  53   2.0000      -0.466411       -12.6917
  54   2.0000      -0.457098       -12.4383
  55   2.0000      -0.453847       -12.3498
  56   2.0000      -0.442770       -12.0484
  57   2.0000      -0.435315       -11.8455
  58   2.0000      -0.429761       -11.6944
  59   2.0000      -0.422882       -11.5072
  60   2.0000      -0.420848       -11.4519
  61   2.0000      -0.412687       -11.2298
  62   2.0000      -0.411613       -11.2006
  63   2.0000      -0.344966        -9.3870
  64   2.0000      -0.329556        -8.9677
  65   2.0000      -0.327878        -8.9220
  66   2.0000      -0.291692        -7.9373
  67   0.0000       0.031117         0.8467
  68   0.0000       0.070281         1.9125
  69   0.0000       0.107666         2.9297
  70   0.0000       0.116449         3.1688
  71   0.0000       0.132653         3.6097

MULLIKEN ATOMIC CHARGES
-----------------------
   0 S :    0.106189
   1 C :   -0.138267
   2 C :   -0.059255
   3 C :    0.002568
   4 C :   -0.128802
   5 H :    0.005390
   6 C :    0.062632
   7 H :    0.024105
   8 H :    0.013717
   9 C :   -0.073583
  10 H :    0.026825
  11 H :    0.026238
  12 C :   -0.022421
  13 H :    0.026915
  14 H :    0.030199
  15 H :    0.027573
  16 S :    0.123122
  17 C :   -0.100846
  18 C :   -0.052441
  19 C :   -0.003511
  20 C :   -0.166792
  21 H :    0.050720
  22 C :    0.003151
  23 H :    0.040518
  24 H :    0.027957
  25 C :   -0.035402
  26 H :    0.011938
  27 H :    0.013436
  28 C :   -0.017436
  29 H :    0.038013
  30 H :    0.004801
  31 H :    0.029298
  32 H :    0.044340
  33 H :    0.059112
Sum of atomic charges:   -0.0000000

LOEWDIN ATOMIC CHARGES
----------------------
   0 S :    0.387265
   1 C :   -0.188596
   2 C :   -0.064123
   3 C :   -0.066491
   4 C :   -0.183552
   5 H :    0.026688
   6 C :   -0.029181
   7 H :    0.030055
   8 H :    0.024703
   9 C :   -0.040782
  10 H :    0.025596
  11 H :    0.024805
  12 C :   -0.066322
  13 H :    0.028732
  14 H :    0.021360
  15 H :    0.024861
  16 S :    0.418587
  17 C :   -0.186647
  18 C :   -0.079938
  19 C :   -0.050375
  20 C :   -0.212628
  21 H :    0.046841
  22 C :   -0.049073
  23 H :    0.047134
  24 H :    0.031680
  25 C :   -0.040639
  26 H :    0.014454
  27 H :    0.024788
  28 C :   -0.057788
  29 H :    0.024531
  30 H :    0.021643
  31 H :    0.032343
  32 H :    0.029736
  33 H :    0.030333

  Mayer bond orders larger than 0.100000
B(  0-S ,  1-C ) :   1.1204 B(  0-S ,  4-C ) :   1.1302 B(  1-C ,  2-C ) :   1.6242
B(  1-C , 32-H ) :   0.9697 B(  2-C ,  3-C ) :   1.2435 B(  2-C ,  6-C ) :   1.0251
B(  3-C ,  4-C ) :   1.5560 B(  3-C ,  5-H ) :   0.9990 B(  4-C , 20-C ) :   1.0721
B(  6-C ,  7-H ) :   0.9409 B(  6-C ,  8-H ) :   0.9419 B(  6-C ,  9-C ) :   1.0555
B(  9-C , 10-H ) :   0.9578 B(  9-C , 11-H ) :   0.9532 B(  9-C , 12-C ) :   1.0815
B( 12-C , 13-H ) :   0.9739 B( 12-C , 14-H ) :   0.9741 B( 12-C , 15-H ) :   0.9726
B( 16-S , 17-C ) :   1.1611 B( 16-S , 20-C ) :   1.1323 B( 17-C , 18-C ) :   1.6120
B( 17-C , 33-H ) :   0.9659 B( 18-C , 19-C ) :   1.2321 B( 18-C , 21-H ) :   0.9781
B( 19-C , 20-C ) :   1.5635 B( 19-C , 22-C ) :   1.0576 B( 22-C , 23-H ) :   0.9222
B( 22-C , 24-H ) :   0.9326 B( 22-C , 25-C ) :   1.0696 B( 25-C , 26-H ) :   0.9555
B( 25-C , 27-H ) :   0.9426 B( 25-C , 28-C ) :   1.1071 B( 28-C , 29-H ) :   0.9707
B( 28-C , 30-H ) :   0.9648 B( 28-C , 31-H ) :   0.9729

Dispersion correction           -0.013778317
FINAL SINGLE POINT ENERGY     -1339.879861296748

DIPOLE MOMENT
-------------
                                X             Y             Z
Electronic contribution:      6.32175      12.78636      -5.51761
Nuclear contribution   :     -6.61631     -12.78460       5.69789
                        -----------------------------------------
Total Dipole Moment    :     -0.29457       0.00176       0.18028
                        -----------------------------------------
Magnitude (a.u.)       :      0.34536
Magnitude (Debye)      :      0.87784

Rotational constants in cm-1:     0.021679     0.007462     0.005986
Rotational constants in MHz :   649.930888   223.693527   179.443038

                             ****ORCA TERMINATED NORMALLY****
TOTAL RUN TIME: 0 days 0 hours 0 minutes 34 seconds 175 msec
