                         Program Version 4.2.1 -  RELEASE  -
|  1> ! wB97X-D3 SP def2-SVP
|  2> %pal
|  3> nprocs 16
|  4> end
|  5>
|  6> * xyz 0 1
|  7> S 	 17.6716 	 12.1544 	 88.5757
|  8> C 	 19.2013 	 12.5302 	 87.6467
|  9> C 	 18.9175 	 12.858 	 86.3198
| 10> C 	 17.5084 	 12.7256 	 86.0566
| 11> C 	 16.6819 	 12.3988 	 87.1503
| 12> H 	 17.0118 	 12.9616 	 85.1042
| 13> C 	 19.8923 	 13.2859 	 85.2033
| 14> H 	 19.4042 	 13.1585 	 84.2543
| 15> H 	 20.8446 	 12.6376 	 85.2896
| 16> C 	 20.2863 	 14.7691 	 85.3895
| 17> H 	 20.4996 	 15.0726 	 86.4036
| 18> H 	 21.093 	 15.0581 	 84.7652
| 19> C 	 19.0917 	 15.6413 	 84.8532
| 20> H 	 18.1329 	 15.5269 	 85.3734
| 21> H 	 19.3589 	 16.7124 	 84.9436
| 22> H 	 18.9235 	 15.5923 	 83.7733
| 23> S 	 14.209 	 13.7786 	 87.4869
| 24> C 	 12.7754 	 13.0216 	 87.0508
| 25> C 	 12.9608 	 11.7541 	 86.6137
| 26> C 	 14.3661 	 11.4547 	 86.4321
| 27> C 	 15.2014 	 12.3619 	 87.0732
| 28> H 	 12.075 	 11.1303 	 86.4464
| 29> C 	 14.785 	 10.0691 	 85.8058
| 30> H 	 15.4494 	 10.1219 	 84.9956
| 31> H 	 13.8784 	 9.81811 	 85.3077
| 32> C 	 15.287 	 9.01283 	 86.6641
| 33> H 	 16.343 	 8.88882 	 86.733
| 34> H 	 14.9415 	 8.05754 	 86.2324
| 35> C 	 14.6276 	 9.09206 	 88.0783
| 36> H 	 14.9142 	 8.19546 	 88.7019
| 37> H 	 13.6414 	 8.98895 	 87.9846
| 38> H 	 14.8695 	 9.99431 	 88.6116
| 39> H 	 20.2152 	 12.4303 	 88.0927
| 40> H 	 11.8589 	 13.6036 	 87.0642
| 41> *
| 42>
| 43>                          ****END OF INPUT****

CARTESIAN COORDINATES (ANGSTROEM)
---------------------------------
  S     17.671600   12.154400   88.575700
  C     19.201300   12.530200   87.646700
  C     18.917500   12.858000   86.319800
  C     17.508400   12.725600   86.056600
  C     16.681900   12.398800   87.150300
  H     17.011800   12.961600   85.104200
  C     19.892300   13.285900   85.203300
  H     19.404200   13.158500   84.254300
  H     20.844600   12.637600   85.289600
  C     20.286300   14.769100   85.389500
  H     20.499600   15.072600   86.403600
  H     21.093000   15.058100   84.765200
  C     19.091700   15.641300   84.853200
  H     18.132900   15.526900   85.373400
  H     19.358900   16.712400   84.943600
  H     18.923500   15.592300   83.773300
  S     14.209000   13.778600   87.486900
  C     12.775400   13.021600   87.050800
  C     12.960800   11.754100   86.613700
  C     14.366100   11.454700   86.432100
  C     15.201400   12.361900   87.073200
  H     12.075000   11.130300   86.446400
  C     14.785000   10.069100   85.805800
  H     15.449400   10.121900   84.995600
  H     13.878400    9.818110   85.307700
  C     15.287000    9.012830   86.664100
  H     16.343000    8.888820   86.733000
  H     14.941500    8.057540   86.232400
  C     14.627600    9.092060   88.078300
  H     14.914200    8.195460   88.701900
  H     13.641400    8.988950   87.984600
  H     14.869500    9.994310   88.611600
  H     20.215200   12.430300   88.092700
  H     11.858900   13.603600   87.064200

 Total Charge           Charge          ....    0
 Multiplicity           Mult            ....    1
 Number of Electrons    NEL             ....  134
 Basis Dimension        Dim             ....  322

ORBITAL ENERGIES
----------------

  NO   OCC          E(Eh)            E(eV)
   0   2.0000     -88.970098     -2420.9994
   1   2.0000     -88.960928     -2420.7499
   2   2.0000     -10.334186      -281.2075
   3   2.0000     -10.328682      -281.0577
   4   2.0000     -10.326576      -281.0004
   5   2.0000     -10.311585      -280.5925
   6   2.0000     -10.309211      -280.5279
   7   2.0000     -10.309125      -280.5255
   8   2.0000     -10.303579      -280.3746
   9   2.0000     -10.297815      -280.2178
  10   2.0000     -10.293232      -280.0931
  11   2.0000     -10.287935      -279.9489
  12   2.0000     -10.279135      -279.7095
  13   2.0000     -10.277380      -279.6617
  14   2.0000     -10.274740      -279.5899
  15   2.0000     -10.259817      -279.1838
  16   2.0000      -8.083106      -219.9525
  17   2.0000      -8.077027      -219.7871
  18   2.0000      -6.041755      -164.4045
  19   2.0000      -6.037808      -164.2971
  20   2.0000      -6.035371      -164.2308
  21   2.0000      -6.033865      -164.1898
  22   2.0000      -6.031287      -164.1197
  23   2.0000      -6.027924      -164.0281
  24   2.0000      -1.004170       -27.3249
  25   2.0000      -0.978826       -26.6352
  26   2.0000      -0.914596       -24.8874
  27   2.0000      -0.908339       -24.7172
  28   2.0000      -0.863569       -23.4989
  29   2.0000      -0.841695       -22.9037
  30   2.0000      -0.838585       -22.8191
  31   2.0000      -0.806184       -21.9374
  32   2.0000      -0.787810       -21.4374
  33   2.0000      -0.774052       -21.0630
  34   2.0000      -0.708083       -19.2679
  35   2.0000      -0.703786       -19.1510
  36   2.0000      -0.686225       -18.6731
  37   2.0000      -0.655930       -17.8488
  38   2.0000      -0.636765       -17.3273
  39   2.0000      -0.609240       -16.5783
  40   2.0000      -0.591225       -16.0880
  41   2.0000      -0.575061       -15.6482
  42   2.0000      -0.560252       -15.2452
  43   2.0000      -0.548284       -14.9196
  44   2.0000      -0.544844       -14.8260
  45   2.0000      -0.540520       -14.7083
  46   2.0000      -0.512710       -13.9516
  47   2.0000      -0.506380       -13.7793
  48   2.0000      -0.499012       -13.5788
  49   2.0000      -0.489594       -13.3225
  50   2.0000      -0.482784       -13.1372
  51   2.0000      -0.478524       -13.0213
  52   2.0000      -0.471829       -12.8391
  53   2.0000      -0.467701       -12.7268
  54   2.0000      -0.455804       -12.4031
  55   2.0000      -0.444144       -12.0858
  56   2.0000      -0.438744       -11.9388
  57   2.0000      -0.437803       -11.9132
  58   2.0000      -0.434703       -11.8289
  59   2.0000      -0.422139       -11.4870
  60   2.0000      -0.417845       -11.3702
  61   2.0000      -0.414301       -11.2737
  62   2.0000      -0.398740       -10.8503
  63   2.0000      -0.333578        -9.0771
  64   2.0000      -0.329915        -8.9775
  65   2.0000      -0.327657        -8.9160
  66   2.0000      -0.305401        -8.3104
  67   0.0000       0.039111         1.0643
  68   0.0000       0.054092         1.4719
  69   0.0000       0.107222         2.9177
  70   0.0000       0.118826         3.2334
  71   0.0000       0.126406         3.4397

MULLIKEN ATOMIC CHARGES
-----------------------
   0 S :    0.106004
   1 C :   -0.154543
   2 C :   -0.076614
   3 C :    0.032531
   4 C :   -0.169926
   5 H :    0.022412
   6 C :    0.062302
   7 H :    0.025298
   8 H :    0.048773
   9 C :   -0.026538
  10 H :    0.037631
  11 H :    0.025030
  12 C :   -0.114004
  13 H :    0.052323
  14 H :    0.027224
  15 H :    0.028246
  16 S :    0.105466
  17 C :   -0.093507
  18 C :   -0.037499
  19 C :   -0.089926
  20 C :   -0.158646
  21 H :    0.032323
  22 C :    0.153214
  23 H :    0.007998
  24 H :   -0.001370
  25 C :   -0.072004
  26 H :    0.030594
  27 H :    0.019495
  28 C :   -0.007727
  29 H :    0.026557
  30 H :   -0.010769
  31 H :    0.038392
  32 H :    0.066862
  33 H :    0.064396
Sum of atomic charges:    0.0000000

LOEWDIN ATOMIC CHARGES
----------------------
   0 S :    0.382570
   1 C :   -0.182703
   2 C :   -0.060578
   3 C :   -0.062711
   4 C :   -0.202531
   5 H :    0.033034
   6 C :   -0.026197
   7 H :    0.027989
   8 H :    0.039866
   9 C :   -0.029722
  10 H :    0.025521
  11 H :    0.020139
  12 C :   -0.076653
  13 H :    0.026653
  14 H :    0.026581
  15 H :    0.022415
  16 S :    0.421020
  17 C :   -0.197935
  18 C :   -0.086524
  19 C :   -0.040730
  20 C :   -0.204287
  21 H :    0.036654
  22 C :   -0.029320
  23 H :    0.027860
  24 H :    0.026803
  25 C :   -0.037754
  26 H :    0.020530
  27 H :    0.030657
  28 C :   -0.053400
  29 H :    0.029878
  30 H :    0.002580
  31 H :    0.022402
  32 H :    0.036286
  33 H :    0.031608

  Mayer bond orders larger than 0.100000
B(  0-S ,  1-C ) :   1.1321 B(  0-S ,  4-C ) :   1.1471 B(  1-C ,  2-C ) :   1.6059
B(  1-C ,  4-C ) :   0.1022 B(  1-C , 32-H ) :   0.9651 B(  2-C ,  3-C ) :   1.2467
B(  2-C ,  6-C ) :   1.0121 B(  3-C ,  4-C ) :   1.5851 B(  3-C ,  5-H ) :   0.9829
B(  4-C , 20-C ) :   1.0290 B(  6-C ,  7-H ) :   0.9460 B(  6-C ,  8-H ) :   0.9435
B(  6-C ,  9-C ) :   1.0635 B(  9-C , 10-H ) :   0.9619 B(  9-C , 11-H ) :   0.9568
B(  9-C , 12-C ) :   1.0677 B( 12-C , 13-H ) :   0.9772 B( 12-C , 14-H ) :   0.9737
B( 12-C , 15-H ) :   0.9763 B( 16-S , 17-C ) :   1.1905 B( 16-S , 20-C ) :   1.1305
B( 17-C , 18-C ) :   1.5996 B( 17-C , 33-H ) :   0.9650 B( 18-C , 19-C ) :   1.2303
B( 18-C , 21-H ) :   0.9879 B( 19-C , 20-C ) :   1.6094 B( 19-C , 22-C ) :   1.0316
B( 22-C , 23-H ) :   0.9259 B( 22-C , 24-H ) :   0.9232 B( 22-C , 25-C ) :   1.0870
B( 25-C , 26-H ) :   0.9555 B( 25-C , 27-H ) :   0.9482 B( 25-C , 28-C ) :   1.0976
B( 28-C , 29-H ) :   0.9722 B( 28-C , 30-H ) :   0.9732 B( 28-C , 31-H ) :   0.9650

Dispersion correction           -0.015640111
FINAL SINGLE POINT ENERGY     -1339.855653060404

DIPOLE MOMENT
-------------
                                X             Y             Z
Electronic contribution:     -7.49027       4.85033      11.59284
Nuclear contribution   :      7.59255      -4.92560     -12.17819
                        -----------------------------------------
Total Dipole Moment    :      0.10227      -0.07527      -0.58535
                        -----------------------------------------
Magnitude (a.u.)       :      0.59897
Magnitude (Debye)      :      1.52246

Rotational constants in cm-1:     0.020890     0.008651     0.007518
Rotational constants in MHz :   626.254676   259.349272   225.395414

                             ****ORCA TERMINATED NORMALLY****
TOTAL RUN TIME: 0 days 0 hours 0 minutes 35 seconds 695 msec
