                         Program Version 4.2.1 -  RELEASE  -
|  1> ! wB97X-D3 SP def2-SVP
|  2> %pal
|  3> nprocs 16
|  4> end
|  5>
|  6> * xyz 0 1
|  7> S 	 -23.4306 	 46.1743 	 62.1993
|  8> C 	 -23.3443 	 47.7839 	 62.9409
|  9> C 	 -22.8843 	 48.6967 	 61.9722
| 10> C 	 -22.9355 	 48.2012 	 60.6333
| 11> C 	 -23.1699 	 46.8263 	 60.6043
| 12> H 	 -22.7125 	 48.6977 	 59.7594
| 13> C 	 -22.3659 	 50.0946 	 62.2997
| 14> H 	 -21.2632 	 49.9801 	 62.4456
| 15> H 	 -22.7917 	 50.4182 	 63.208
| 16> C 	 -22.5566 	 51.1475 	 61.2
| 17> H 	 -22.0402 	 52.0139 	 61.4277
| 18> H 	 -22.0628 	 50.795 	 60.2664
| 19> C 	 -24.0521 	 51.4375 	 60.8623
| 20> H 	 -24.5875 	 51.8031 	 61.6541
| 21> H 	 -24.1988 	 52.1242 	 60.0296
| 22> H 	 -24.6124 	 50.5954 	 60.4513
| 23> S 	 -22.2734 	 44.3507 	 59.537
| 24> C 	 -22.5644 	 43.9984 	 57.9062
| 25> C 	 -23.3602 	 44.9493 	 57.3352
| 26> C 	 -23.639 	 46.0738 	 58.196
| 27> C 	 -23.1173 	 45.9756 	 59.4581
| 28> H 	 -23.68 	 44.8166 	 56.3918
| 29> C 	 -24.5055 	 47.2742 	 57.6945
| 30> H 	 -24.5833 	 47.1503 	 56.6303
| 31> H 	 -23.9537 	 48.1548 	 57.8749
| 32> C 	 -25.9266 	 47.2668 	 58.3292
| 33> H 	 -26.3479 	 48.2235 	 58.2733
| 34> H 	 -25.7967 	 47.0535 	 59.3645
| 35> C 	 -26.9688 	 46.248 	 57.7857
| 36> H 	 -26.519 	 45.2483 	 57.8499
| 37> H 	 -27.2599 	 46.4142 	 56.8452
| 38> H 	 -27.8466 	 46.1965 	 58.4081
| 39> H 	 -23.3556 	 48.1326 	 63.98
| 40> H 	 -22.1755 	 43.1097 	 57.3836
| 41> *
| 42>
| 43>                          ****END OF INPUT****

CARTESIAN COORDINATES (ANGSTROEM)
---------------------------------
  S    -23.430600   46.174300   62.199300
  C    -23.344300   47.783900   62.940900
  C    -22.884300   48.696700   61.972200
  C    -22.935500   48.201200   60.633300
  C    -23.169900   46.826300   60.604300
  H    -22.712500   48.697700   59.759400
  C    -22.365900   50.094600   62.299700
  H    -21.263200   49.980100   62.445600
  H    -22.791700   50.418200   63.208000
  C    -22.556600   51.147500   61.200000
  H    -22.040200   52.013900   61.427700
  H    -22.062800   50.795000   60.266400
  C    -24.052100   51.437500   60.862300
  H    -24.587500   51.803100   61.654100
  H    -24.198800   52.124200   60.029600
  H    -24.612400   50.595400   60.451300
  S    -22.273400   44.350700   59.537000
  C    -22.564400   43.998400   57.906200
  C    -23.360200   44.949300   57.335200
  C    -23.639000   46.073800   58.196000
  C    -23.117300   45.975600   59.458100
  H    -23.680000   44.816600   56.391800
  C    -24.505500   47.274200   57.694500
  H    -24.583300   47.150300   56.630300
  H    -23.953700   48.154800   57.874900
  C    -25.926600   47.266800   58.329200
  H    -26.347900   48.223500   58.273300
  H    -25.796700   47.053500   59.364500
  C    -26.968800   46.248000   57.785700
  H    -26.519000   45.248300   57.849900
  H    -27.259900   46.414200   56.845200
  H    -27.846600   46.196500   58.408100
  H    -23.355600   48.132600   63.980000
  H    -22.175500   43.109700   57.383600

 Total Charge           Charge          ....    0
 Multiplicity           Mult            ....    1
 Number of Electrons    NEL             ....  134
 Basis Dimension        Dim             ....  322

ORBITAL ENERGIES
----------------

  NO   OCC          E(Eh)            E(eV)
   0   2.0000     -88.970913     -2421.0216
   1   2.0000     -88.960923     -2420.7498
   2   2.0000     -10.332023      -281.1486
   3   2.0000     -10.328048      -281.0405
   4   2.0000     -10.316414      -280.7239
   5   2.0000     -10.316012      -280.7129
   6   2.0000     -10.304460      -280.3986
   7   2.0000     -10.304422      -280.3976
   8   2.0000     -10.293539      -280.1014
   9   2.0000     -10.290940      -280.0307
  10   2.0000     -10.290567      -280.0206
  11   2.0000     -10.288473      -279.9636
  12   2.0000     -10.284140      -279.8457
  13   2.0000     -10.276664      -279.6423
  14   2.0000     -10.271021      -279.4887
  15   2.0000     -10.264436      -279.3095
  16   2.0000      -8.084773      -219.9978
  17   2.0000      -8.075922      -219.7570
  18   2.0000      -6.043443      -164.4504
  19   2.0000      -6.039407      -164.3406
  20   2.0000      -6.035394      -164.2314
  21   2.0000      -6.034500      -164.2071
  22   2.0000      -6.030359      -164.0944
  23   2.0000      -6.026613      -163.9925
  24   2.0000      -1.005787       -27.3689
  25   2.0000      -0.982812       -26.7437
  26   2.0000      -0.912531       -24.8312
  27   2.0000      -0.903773       -24.5929
  28   2.0000      -0.871466       -23.7138
  29   2.0000      -0.848497       -23.0888
  30   2.0000      -0.840653       -22.8753
  31   2.0000      -0.816724       -22.2242
  32   2.0000      -0.790030       -21.4978
  33   2.0000      -0.778338       -21.1797
  34   2.0000      -0.719834       -19.5877
  35   2.0000      -0.704864       -19.1803
  36   2.0000      -0.693732       -18.8774
  37   2.0000      -0.663851       -18.0643
  38   2.0000      -0.638851       -17.3840
  39   2.0000      -0.626413       -17.0456
  40   2.0000      -0.594260       -16.1706
  41   2.0000      -0.570375       -15.5207
  42   2.0000      -0.554915       -15.1000
  43   2.0000      -0.548940       -14.9374
  44   2.0000      -0.546914       -14.8823
  45   2.0000      -0.535706       -14.5773
  46   2.0000      -0.522940       -14.2299
  47   2.0000      -0.514325       -13.9955
  48   2.0000      -0.509123       -13.8539
  49   2.0000      -0.498631       -13.5684
  50   2.0000      -0.489420       -13.3178
  51   2.0000      -0.481323       -13.0975
  52   2.0000      -0.472583       -12.8597
  53   2.0000      -0.469776       -12.7833
  54   2.0000      -0.457906       -12.4603
  55   2.0000      -0.450469       -12.2579
  56   2.0000      -0.447074       -12.1655
  57   2.0000      -0.435362       -11.8468
  58   2.0000      -0.433665       -11.8006
  59   2.0000      -0.430057       -11.7025
  60   2.0000      -0.421540       -11.4707
  61   2.0000      -0.418159       -11.3787
  62   2.0000      -0.407561       -11.0903
  63   2.0000      -0.354713        -9.6522
  64   2.0000      -0.330693        -8.9986
  65   2.0000      -0.328915        -8.9502
  66   2.0000      -0.285410        -7.7664
  67   0.0000       0.024345         0.6625
  68   0.0000       0.067692         1.8420
  69   0.0000       0.113680         3.0934
  70   0.0000       0.118572         3.2265
  71   0.0000       0.127678         3.4743

MULLIKEN ATOMIC CHARGES
-----------------------
   0 S :    0.119202
   1 C :   -0.109255
   2 C :   -0.129509
   3 C :    0.050385
   4 C :   -0.141212
   5 H :   -0.024706
   6 C :    0.090715
   7 H :    0.053572
   8 H :    0.007897
   9 C :   -0.053151
  10 H :    0.013370
  11 H :    0.025164
  12 C :   -0.033323
  13 H :    0.016229
  14 H :    0.022120
  15 H :    0.027896
  16 S :    0.089740
  17 C :   -0.089231
  18 C :    0.009211
  19 C :   -0.071829
  20 C :   -0.150032
  21 H :   -0.033260
  22 C :    0.116600
  23 H :    0.007623
  24 H :    0.017369
  25 C :   -0.050208
  26 H :    0.014260
  27 H :    0.032253
  28 C :   -0.010544
  29 H :    0.027944
  30 H :    0.003178
  31 H :    0.029005
  32 H :    0.051075
  33 H :    0.071454
Sum of atomic charges:    0.0000000

LOEWDIN ATOMIC CHARGES
----------------------
   0 S :    0.409773
   1 C :   -0.211968
   2 C :   -0.052013
   3 C :   -0.056850
   4 C :   -0.186000
   5 H :    0.015499
   6 C :   -0.026946
   7 H :    0.044368
   8 H :    0.020490
   9 C :   -0.034059
  10 H :    0.016079
  11 H :    0.026341
  12 C :   -0.063786
  13 H :    0.012018
  14 H :    0.027446
  15 H :    0.028407
  16 S :    0.386049
  17 C :   -0.192993
  18 C :   -0.070103
  19 C :   -0.048612
  20 C :   -0.180647
  21 H :    0.009841
  22 C :   -0.016855
  23 H :    0.024685
  24 H :    0.022802
  25 C :   -0.027996
  26 H :    0.014571
  27 H :    0.024457
  28 C :   -0.051185
  29 H :    0.029527
  30 H :    0.002862
  31 H :    0.028839
  32 H :    0.035735
  33 H :    0.040223

  Mayer bond orders larger than 0.100000
B(  0-S ,  1-C ) :   1.1163 B(  0-S ,  4-C ) :   1.1512 B(  1-C ,  2-C ) :   1.6169
B(  1-C ,  4-C ) :   0.1027 B(  1-C , 32-H ) :   0.9638 B(  2-C ,  3-C ) :   1.2391
B(  2-C ,  6-C ) :   1.0144 B(  3-C ,  4-C ) :   1.5409 B(  3-C ,  5-H ) :   1.0041
B(  4-C , 20-C ) :   1.0905 B(  6-C ,  7-H ) :   0.9314 B(  6-C ,  8-H ) :   0.9396
B(  6-C ,  9-C ) :   1.0887 B(  9-C , 10-H ) :   0.9533 B(  9-C , 11-H ) :   0.9482
B(  9-C , 12-C ) :   1.0713 B( 12-C , 13-H ) :   0.9782 B( 12-C , 14-H ) :   0.9733
B( 12-C , 15-H ) :   0.9724 B( 16-S , 17-C ) :   1.1696 B( 16-S , 20-C ) :   1.1032
B( 17-C , 18-C ) :   1.5991 B( 17-C , 33-H ) :   0.9618 B( 18-C , 19-C ) :   1.2315
B( 18-C , 21-H ) :   1.0118 B( 19-C , 20-C ) :   1.6123 B( 19-C , 22-C ) :   1.0293
B( 22-C , 23-H ) :   0.9350 B( 22-C , 24-H ) :   0.9372 B( 22-C , 25-C ) :   1.0606
B( 25-C , 26-H ) :   0.9570 B( 25-C , 27-H ) :   0.9615 B( 25-C , 28-C ) :   1.0795
B( 28-C , 29-H ) :   0.9758 B( 28-C , 30-H ) :   0.9768 B( 28-C , 31-H ) :   0.9724

Dispersion correction           -0.015298082
FINAL SINGLE POINT ENERGY     -1339.861261459106

DIPOLE MOMENT
-------------
                                X             Y             Z
Electronic contribution:     11.99335     -22.26456       7.95471
Nuclear contribution   :    -12.03084      22.84919      -8.29667
                        -----------------------------------------
Total Dipole Moment    :     -0.03748       0.58462      -0.34197
                        -----------------------------------------
Magnitude (a.u.)       :      0.67833
Magnitude (Debye)      :      1.72418

Rotational constants in cm-1:     0.018751     0.009458     0.007587
Rotational constants in MHz :   562.131341   283.545640   227.467111

                             ****ORCA TERMINATED NORMALLY****
TOTAL RUN TIME: 0 days 0 hours 0 minutes 34 seconds 844 msec
