                         Program Version 4.2.1 -  RELEASE  -
|  1> ! wB97X-D3 SP def2-SVP
|  2> %pal
|  3> nprocs 16
|  4> end
|  5>
|  6> * xyz 0 1
|  7> S 	 6.74421 	 -9.6178 	 61.2995
|  8> C 	 7.9486 	 -10.5904 	 61.9753
|  9> C 	 7.39368 	 -11.3971 	 62.9765
| 10> C 	 5.99748 	 -11.2554 	 63.0715
| 11> C 	 5.40804 	 -10.3612 	 62.2065
| 12> H 	 5.35297 	 -11.568 	 63.8179
| 13> C 	 8.10776 	 -12.3978 	 63.8394
| 14> H 	 7.48893 	 -13.0997 	 64.4005
| 15> H 	 8.52122 	 -11.8494 	 64.7521
| 16> C 	 9.15483 	 -13.305 	 63.0909
| 17> H 	 8.50987 	 -13.9196 	 62.4487
| 18> H 	 9.79297 	 -12.6422 	 62.4859
| 19> C 	 10.0109 	 -14.2075 	 64.0717
| 20> H 	 9.40252 	 -14.8548 	 64.6839
| 21> H 	 10.5398 	 -14.7905 	 63.3427
| 22> H 	 10.6278 	 -13.6349 	 64.7495
| 23> S 	 3.67798 	 -8.31176 	 62.3784
| 24> C 	 2.00169 	 -8.52338 	 61.9914
| 25> C 	 1.76099 	 -9.83408 	 61.7078
| 26> C 	 2.84195 	 -10.7426 	 61.7266
| 27> C 	 3.99772 	 -10.0071 	 62.0171
| 28> H 	 0.756949 	 -10.1502 	 61.4566
| 29> C 	 2.77366 	 -12.1554 	 61.3038
| 30> H 	 3.80748 	 -12.1934 	 60.9277
| 31> H 	 2.03999 	 -12.2068 	 60.4613
| 32> C 	 2.68725 	 -13.2116 	 62.3859
| 33> H 	 1.809 	 -13.0945 	 63.0621
| 34> H 	 3.53727 	 -13.0953 	 63.0518
| 35> C 	 2.73202 	 -14.5875 	 61.7649
| 36> H 	 2.48192 	 -15.3728 	 62.4978
| 37> H 	 3.70482 	 -14.7363 	 61.2817
| 38> H 	 2.056 	 -14.7261 	 60.9513
| 39> H 	 8.9458 	 -10.5993 	 61.6811
| 40> H 	 1.14446 	 -7.88827 	 62.1092
| 41> *
| 42>
| 43>                          ****END OF INPUT****

CARTESIAN COORDINATES (ANGSTROEM)
---------------------------------
  S      6.744210   -9.617800   61.299500
  C      7.948600  -10.590400   61.975300
  C      7.393680  -11.397100   62.976500
  C      5.997480  -11.255400   63.071500
  C      5.408040  -10.361200   62.206500
  H      5.352970  -11.568000   63.817900
  C      8.107760  -12.397800   63.839400
  H      7.488930  -13.099700   64.400500
  H      8.521220  -11.849400   64.752100
  C      9.154830  -13.305000   63.090900
  H      8.509870  -13.919600   62.448700
  H      9.792970  -12.642200   62.485900
  C     10.010900  -14.207500   64.071700
  H      9.402520  -14.854800   64.683900
  H     10.539800  -14.790500   63.342700
  H     10.627800  -13.634900   64.749500
  S      3.677980   -8.311760   62.378400
  C      2.001690   -8.523380   61.991400
  C      1.760990   -9.834080   61.707800
  C      2.841950  -10.742600   61.726600
  C      3.997720  -10.007100   62.017100
  H      0.756949  -10.150200   61.456600
  C      2.773660  -12.155400   61.303800
  H      3.807480  -12.193400   60.927700
  H      2.039990  -12.206800   60.461300
  C      2.687250  -13.211600   62.385900
  H      1.809000  -13.094500   63.062100
  H      3.537270  -13.095300   63.051800
  C      2.732020  -14.587500   61.764900
  H      2.481920  -15.372800   62.497800
  H      3.704820  -14.736300   61.281700
  H      2.056000  -14.726100   60.951300
  H      8.945800  -10.599300   61.681100
  H      1.144460   -7.888270   62.109200

 Total Charge           Charge          ....    0
 Multiplicity           Mult            ....    1
 Number of Electrons    NEL             ....  134
 Basis Dimension        Dim             ....  322

ORBITAL ENERGIES
----------------

  NO   OCC          E(Eh)            E(eV)
   0   2.0000     -88.966008     -2420.8881
   1   2.0000     -88.963971     -2420.8327
   2   2.0000     -10.328813      -281.0613
   3   2.0000     -10.328644      -281.0567
   4   2.0000     -10.310830      -280.5719
   5   2.0000     -10.310598      -280.5656
   6   2.0000     -10.301646      -280.3220
   7   2.0000     -10.300413      -280.2885
   8   2.0000     -10.296219      -280.1743
   9   2.0000     -10.293712      -280.1061
  10   2.0000     -10.292342      -280.0689
  11   2.0000     -10.287859      -279.9469
  12   2.0000     -10.285695      -279.8880
  13   2.0000     -10.285545      -279.8839
  14   2.0000     -10.281386      -279.7707
  15   2.0000     -10.275356      -279.6067
  16   2.0000      -8.080705      -219.8872
  17   2.0000      -8.079344      -219.8501
  18   2.0000      -6.039243      -164.3362
  19   2.0000      -6.037758      -164.2957
  20   2.0000      -6.035191      -164.2259
  21   2.0000      -6.033509      -164.1801
  22   2.0000      -6.031444      -164.1239
  23   2.0000      -6.030405      -164.0957
  24   2.0000      -1.010067       -27.4853
  25   2.0000      -0.990020       -26.9398
  26   2.0000      -0.918526       -24.9944
  27   2.0000      -0.903562       -24.5872
  28   2.0000      -0.871131       -23.7047
  29   2.0000      -0.858099       -23.3501
  30   2.0000      -0.850734       -23.1496
  31   2.0000      -0.817492       -22.2451
  32   2.0000      -0.781274       -21.2596
  33   2.0000      -0.769107       -20.9285
  34   2.0000      -0.711585       -19.3632
  35   2.0000      -0.703634       -19.1468
  36   2.0000      -0.694948       -18.9105
  37   2.0000      -0.663620       -18.0580
  38   2.0000      -0.654295       -17.8043
  39   2.0000      -0.612859       -16.6767
  40   2.0000      -0.593285       -16.1441
  41   2.0000      -0.575040       -15.6476
  42   2.0000      -0.566964       -15.4279
  43   2.0000      -0.555876       -15.1262
  44   2.0000      -0.533091       -14.5061
  45   2.0000      -0.527859       -14.3638
  46   2.0000      -0.522238       -14.2108
  47   2.0000      -0.515609       -14.0304
  48   2.0000      -0.511109       -13.9080
  49   2.0000      -0.503391       -13.6980
  50   2.0000      -0.494954       -13.4684
  51   2.0000      -0.478451       -13.0193
  52   2.0000      -0.471434       -12.8284
  53   2.0000      -0.466008       -12.6807
  54   2.0000      -0.455580       -12.3970
  55   2.0000      -0.446724       -12.1560
  56   2.0000      -0.444099       -12.0845
  57   2.0000      -0.443323       -12.0634
  58   2.0000      -0.432138       -11.7591
  59   2.0000      -0.426415       -11.6034
  60   2.0000      -0.419483       -11.4147
  61   2.0000      -0.413636       -11.2556
  62   2.0000      -0.409460       -11.1420
  63   2.0000      -0.347290        -9.4503
  64   2.0000      -0.330969        -9.0061
  65   2.0000      -0.325473        -8.8566
  66   2.0000      -0.293926        -7.9981
  67   0.0000       0.032780         0.8920
  68   0.0000       0.062577         1.7028
  69   0.0000       0.118791         3.2325
  70   0.0000       0.129661         3.5283
  71   0.0000       0.132876         3.6157

MULLIKEN ATOMIC CHARGES
-----------------------
   0 S :    0.117350
   1 C :   -0.099375
   2 C :   -0.053130
   3 C :    0.051829
   4 C :   -0.182322
   5 H :   -0.003472
   6 C :    0.031272
   7 H :    0.010977
   8 H :    0.037918
   9 C :   -0.118472
  10 H :    0.041481
  11 H :    0.034984
  12 C :   -0.021021
  13 H :    0.027087
  14 H :    0.037184
  15 H :    0.036900
  16 S :    0.113683
  17 C :   -0.054793
  18 C :   -0.068606
  19 C :    0.012292
  20 C :   -0.195912
  21 H :    0.003672
  22 C :    0.029485
  23 H :    0.036953
  24 H :    0.039256
  25 C :   -0.048988
  26 H :    0.029673
  27 H :    0.017194
  28 C :   -0.019717
  29 H :    0.038838
  30 H :    0.027113
  31 H :    0.014365
  32 H :    0.029232
  33 H :    0.047069
Sum of atomic charges:   -0.0000000

LOEWDIN ATOMIC CHARGES
----------------------
   0 S :    0.426160
   1 C :   -0.202868
   2 C :   -0.068740
   3 C :   -0.059647
   4 C :   -0.198964
   5 H :    0.021068
   6 C :   -0.047931
   7 H :    0.025081
   8 H :    0.035950
   9 C :   -0.033310
  10 H :    0.028064
  11 H :    0.019919
  12 C :   -0.057437
  13 H :    0.022457
  14 H :    0.028262
  15 H :    0.025008
  16 S :    0.414558
  17 C :   -0.196645
  18 C :   -0.073452
  19 C :   -0.054336
  20 C :   -0.195248
  21 H :    0.025668
  22 C :   -0.037792
  23 H :    0.044350
  24 H :    0.038180
  25 C :   -0.039777
  26 H :    0.024587
  27 H :    0.023991
  28 C :   -0.064417
  29 H :    0.029700
  30 H :    0.028533
  31 H :    0.018788
  32 H :    0.017425
  33 H :    0.032815

  Mayer bond orders larger than 0.100000
B(  0-S ,  1-C ) :   1.1747 B(  0-S ,  4-C ) :   1.1558 B(  1-C ,  2-C ) :   1.5435
B(  1-C ,  4-C ) :   0.1057 B(  1-C , 32-H ) :   0.9826 B(  2-C ,  3-C ) :   1.2731
B(  2-C ,  6-C ) :   1.0212 B(  3-C ,  4-C ) :   1.5587 B(  3-C ,  5-H ) :   1.0017
B(  4-C , 20-C ) :   1.0100 B(  6-C ,  7-H ) :   0.9510 B(  6-C ,  8-H ) :   0.9332
B(  6-C ,  9-C ) :   1.0432 B(  9-C , 10-H ) :   0.9616 B(  9-C , 11-H ) :   0.9614
B(  9-C , 12-C ) :   1.0709 B( 12-C , 13-H ) :   0.9763 B( 12-C , 14-H ) :   0.9768
B( 12-C , 15-H ) :   0.9783 B( 16-S , 17-C ) :   1.1349 B( 16-S , 20-C ) :   1.1649
B( 17-C , 18-C ) :   1.6239 B( 17-C , 20-C ) :   0.1002 B( 17-C , 33-H ) :   0.9649
B( 18-C , 19-C ) :   1.2489 B( 18-C , 21-H ) :   0.9834 B( 19-C , 20-C ) :   1.5709
B( 19-C , 22-C ) :   1.0227 B( 22-C , 23-H ) :   0.9267 B( 22-C , 24-H ) :   0.9405
B( 22-C , 25-C ) :   1.0683 B( 25-C , 26-H ) :   0.9552 B( 25-C , 27-H ) :   0.9455
B( 25-C , 28-C ) :   1.0868 B( 28-C , 29-H ) :   0.9726 B( 28-C , 30-H ) :   0.9710
B( 28-C , 31-H ) :   0.9723

Dispersion correction           -0.013831991
FINAL SINGLE POINT ENERGY     -1339.868284566884

DIPOLE MOMENT
-------------
                                X             Y             Z
Electronic contribution:     -6.04486      29.54399      -6.11990
Nuclear contribution   :      5.96137     -30.18665       6.34181
                        -----------------------------------------
Total Dipole Moment    :     -0.08348      -0.64266       0.22191
                        -----------------------------------------
Magnitude (a.u.)       :      0.68500
Magnitude (Debye)      :      1.74114

Rotational constants in cm-1:     0.018915     0.008288     0.006232
Rotational constants in MHz :   567.051389   248.454530   186.819205

                             ****ORCA TERMINATED NORMALLY****
TOTAL RUN TIME: 0 days 0 hours 0 minutes 29 seconds 548 msec
