                         Program Version 4.2.1 -  RELEASE  -
|  1> ! wB97X-D3 SP def2-SVP
|  2> %pal
|  3> nprocs 16
|  4> end
|  5>
|  6> * xyz 0 1
|  7> S 	 -19.3645 	 53.0228 	 66.1489
|  8> C 	 -19.5937 	 51.2719 	 66.3872
|  9> C 	 -20.6482 	 50.7177 	 65.7531
| 10> C 	 -21.4099 	 51.762 	 65.1693
| 11> C 	 -20.9291 	 53.0584 	 65.3343
| 12> H 	 -22.273 	 51.5868 	 64.6759
| 13> C 	 -20.9644 	 49.2274 	 65.6464
| 14> H 	 -22.041 	 49.04 	 65.5969
| 15> H 	 -20.8612 	 48.7656 	 66.6515
| 16> C 	 -20.328 	 48.4911 	 64.4611
| 17> H 	 -19.224 	 48.5843 	 64.4759
| 18> H 	 -20.4828 	 47.4332 	 64.6119
| 19> C 	 -20.8319 	 48.9734 	 63.133
| 20> H 	 -20.4503 	 48.2627 	 62.297
| 21> H 	 -21.9187 	 48.871 	 63.1099
| 22> H 	 -20.5417 	 50.0443 	 62.7492
| 23> S 	 -22.0774 	 54.2157 	 63.3002
| 24> C 	 -22.9139 	 55.7161 	 63.4422
| 25> C 	 -22.8701 	 56.134 	 64.7532
| 26> C 	 -22.0248 	 55.3599 	 65.5928
| 27> C 	 -21.4632 	 54.3202 	 64.8907
| 28> H 	 -23.527 	 56.9353 	 65.0406
| 29> C 	 -21.9127 	 55.6403 	 67.0973
| 30> H 	 -22.0496 	 56.7074 	 67.2498
| 31> H 	 -20.8929 	 55.4512 	 67.4445
| 32> C 	 -22.8941 	 54.7952 	 68.0071
| 33> H 	 -22.8163 	 53.7072 	 67.8594
| 34> H 	 -23.9678 	 54.9603 	 67.8355
| 35> C 	 -22.6943 	 55.2325 	 69.4874
| 36> H 	 -22.8112 	 56.3714 	 69.5624
| 37> H 	 -21.6457 	 55.1487 	 69.8221
| 38> H 	 -23.3138 	 54.8265 	 70.2101
| 39> H 	 -18.8374 	 50.691 	 66.8155
| 40> H 	 -23.5304 	 56.3279 	 62.7352
| 41> *
| 42>
| 43>                          ****END OF INPUT****

CARTESIAN COORDINATES (ANGSTROEM)
---------------------------------
  S    -19.364500   53.022800   66.148900
  C    -19.593700   51.271900   66.387200
  C    -20.648200   50.717700   65.753100
  C    -21.409900   51.762000   65.169300
  C    -20.929100   53.058400   65.334300
  H    -22.273000   51.586800   64.675900
  C    -20.964400   49.227400   65.646400
  H    -22.041000   49.040000   65.596900
  H    -20.861200   48.765600   66.651500
  C    -20.328000   48.491100   64.461100
  H    -19.224000   48.584300   64.475900
  H    -20.482800   47.433200   64.611900
  C    -20.831900   48.973400   63.133000
  H    -20.450300   48.262700   62.297000
  H    -21.918700   48.871000   63.109900
  H    -20.541700   50.044300   62.749200
  S    -22.077400   54.215700   63.300200
  C    -22.913900   55.716100   63.442200
  C    -22.870100   56.134000   64.753200
  C    -22.024800   55.359900   65.592800
  C    -21.463200   54.320200   64.890700
  H    -23.527000   56.935300   65.040600
  C    -21.912700   55.640300   67.097300
  H    -22.049600   56.707400   67.249800
  H    -20.892900   55.451200   67.444500
  C    -22.894100   54.795200   68.007100
  H    -22.816300   53.707200   67.859400
  H    -23.967800   54.960300   67.835500
  C    -22.694300   55.232500   69.487400
  H    -22.811200   56.371400   69.562400
  H    -21.645700   55.148700   69.822100
  H    -23.313800   54.826500   70.210100
  H    -18.837400   50.691000   66.815500
  H    -23.530400   56.327900   62.735200

 Total Charge           Charge          ....    0
 Multiplicity           Mult            ....    1
 Number of Electrons    NEL             ....  134
 Basis Dimension        Dim             ....  322

ORBITAL ENERGIES
----------------

  NO   OCC          E(Eh)            E(eV)
   0   2.0000     -88.965850     -2420.8839
   1   2.0000     -88.964184     -2420.8385
   2   2.0000     -10.328486      -281.0524
   3   2.0000     -10.318446      -280.7792
   4   2.0000     -10.316121      -280.7159
   5   2.0000     -10.305560      -280.4285
   6   2.0000     -10.302839      -280.3545
   7   2.0000     -10.297855      -280.2189
   8   2.0000     -10.296992      -280.1954
   9   2.0000     -10.296500      -280.1820
  10   2.0000     -10.291574      -280.0480
  11   2.0000     -10.290809      -280.0272
  12   2.0000     -10.289909      -280.0026
  13   2.0000     -10.288765      -279.9715
  14   2.0000     -10.284741      -279.8620
  15   2.0000     -10.277064      -279.6531
  16   2.0000      -8.081515      -219.9092
  17   2.0000      -8.078322      -219.8223
  18   2.0000      -6.039985      -164.3563
  19   2.0000      -6.036764      -164.2687
  20   2.0000      -6.035845      -164.2437
  21   2.0000      -6.033125      -164.1697
  22   2.0000      -6.032278      -164.1466
  23   2.0000      -6.028984      -164.0570
  24   2.0000      -1.014353       -27.6020
  25   2.0000      -0.985593       -26.8193
  26   2.0000      -0.913304       -24.8523
  27   2.0000      -0.899652       -24.4808
  28   2.0000      -0.873800       -23.7773
  29   2.0000      -0.851237       -23.1633
  30   2.0000      -0.843206       -22.9448
  31   2.0000      -0.812280       -22.1033
  32   2.0000      -0.782926       -21.3045
  33   2.0000      -0.770140       -20.9566
  34   2.0000      -0.708073       -19.2676
  35   2.0000      -0.699812       -19.0428
  36   2.0000      -0.696113       -18.9422
  37   2.0000      -0.664949       -18.0942
  38   2.0000      -0.642245       -17.4764
  39   2.0000      -0.619722       -16.8635
  40   2.0000      -0.595307       -16.1991
  41   2.0000      -0.575392       -15.6572
  42   2.0000      -0.551839       -15.0163
  43   2.0000      -0.548795       -14.9335
  44   2.0000      -0.540401       -14.7051
  45   2.0000      -0.525863       -14.3095
  46   2.0000      -0.514184       -13.9917
  47   2.0000      -0.508226       -13.8295
  48   2.0000      -0.505305       -13.7501
  49   2.0000      -0.494005       -13.4426
  50   2.0000      -0.486810       -13.2468
  51   2.0000      -0.476093       -12.9552
  52   2.0000      -0.465567       -12.6687
  53   2.0000      -0.461266       -12.5517
  54   2.0000      -0.456740       -12.4285
  55   2.0000      -0.446090       -12.1387
  56   2.0000      -0.442056       -12.0289
  57   2.0000      -0.438168       -11.9232
  58   2.0000      -0.435884       -11.8610
  59   2.0000      -0.423542       -11.5252
  60   2.0000      -0.421782       -11.4773
  61   2.0000      -0.414000       -11.2655
  62   2.0000      -0.411540       -11.1986
  63   2.0000      -0.345021        -9.3885
  64   2.0000      -0.334507        -9.1024
  65   2.0000      -0.331056        -9.0085
  66   2.0000      -0.292028        -7.9465
  67   0.0000       0.032699         0.8898
  68   0.0000       0.070444         1.9169
  69   0.0000       0.109203         2.9716
  70   0.0000       0.115727         3.1491
  71   0.0000       0.132805         3.6138

MULLIKEN ATOMIC CHARGES
-----------------------
   0 S :    0.099091
   1 C :   -0.104598
   2 C :   -0.059046
   3 C :    0.064639
   4 C :   -0.168168
   5 H :   -0.043458
   6 C :    0.041036
   7 H :    0.015737
   8 H :    0.030466
   9 C :   -0.025354
  10 H :    0.030666
  11 H :    0.029896
  12 C :   -0.113477
  13 H :    0.043973
  14 H :    0.027930
  15 H :    0.070643
  16 S :    0.111951
  17 C :   -0.097225
  18 C :   -0.053447
  19 C :   -0.016744
  20 C :   -0.131564
  21 H :    0.013583
  22 C :    0.071688
  23 H :    0.021174
  24 H :    0.024215
  25 C :   -0.068900
  26 H :    0.046860
  27 H :    0.027650
  28 C :   -0.048915
  29 H :    0.022180
  30 H :    0.026344
  31 H :    0.025873
  32 H :    0.017575
  33 H :    0.067725
Sum of atomic charges:   -0.0000000

LOEWDIN ATOMIC CHARGES
----------------------
   0 S :    0.384404
   1 C :   -0.169209
   2 C :   -0.061357
   3 C :   -0.055960
   4 C :   -0.186136
   5 H :    0.005528
   6 C :   -0.038626
   7 H :    0.030281
   8 H :    0.037512
   9 C :   -0.044335
  10 H :    0.027013
  11 H :    0.027069
  12 C :   -0.082396
  13 H :    0.036575
  14 H :    0.020230
  15 H :    0.042517
  16 S :    0.449789
  17 C :   -0.208145
  18 C :   -0.073482
  19 C :   -0.052792
  20 C :   -0.220234
  21 H :    0.028633
  22 C :   -0.026041
  23 H :    0.029844
  24 H :    0.028427
  25 C :   -0.037810
  26 H :    0.029115
  27 H :    0.024815
  28 C :   -0.069146
  29 H :    0.030571
  30 H :    0.024554
  31 H :    0.013104
  32 H :    0.011147
  33 H :    0.044541

  Mayer bond orders larger than 0.100000
B(  0-S ,  1-C ) :   1.1336 B(  0-S ,  4-C ) :   1.1362 B(  1-C ,  2-C ) :   1.6553
B(  1-C , 32-H ) :   0.9662 B(  2-C ,  3-C ) :   1.2304 B(  2-C ,  6-C ) :   1.0112
B(  3-C ,  4-C ) :   1.5857 B(  3-C ,  5-H ) :   1.0084 B(  4-C , 20-C ) :   1.0225
B(  6-C ,  7-H ) :   0.9398 B(  6-C ,  8-H ) :   0.9395 B(  6-C ,  9-C ) :   1.0672
B(  9-C , 10-H ) :   0.9540 B(  9-C , 11-H ) :   0.9507 B(  9-C , 12-C ) :   1.0781
B( 12-C , 13-H ) :   0.9700 B( 12-C , 14-H ) :   0.9731 B( 12-C , 15-H ) :   0.9690
B( 16-S , 17-C ) :   1.1623 B( 16-S , 20-C ) :   1.1570 B( 17-C , 18-C ) :   1.6014
B( 17-C , 33-H ) :   0.9601 B( 18-C , 19-C ) :   1.2760 B( 18-C , 21-H ) :   0.9910
B( 19-C , 20-C ) :   1.5606 B( 19-C , 22-C ) :   1.0369 B( 22-C , 23-H ) :   0.9375
B( 22-C , 24-H ) :   0.9395 B( 22-C , 25-C ) :   1.0437 B( 25-C , 26-H ) :   0.9594
B( 25-C , 27-H ) :   0.9584 B( 25-C , 28-C ) :   1.0708 B( 28-C , 29-H ) :   0.9727
B( 28-C , 30-H ) :   0.9758 B( 28-C , 31-H ) :   0.9770

Dispersion correction           -0.014824735
FINAL SINGLE POINT ENERGY     -1339.866145993647

DIPOLE MOMENT
-------------
                                X             Y             Z
Electronic contribution:      6.22281      10.32543      -9.95150
Nuclear contribution   :     -6.65867     -10.60762      10.12775
                        -----------------------------------------
Total Dipole Moment    :     -0.43586      -0.28219       0.17626
                        -----------------------------------------
Magnitude (a.u.)       :      0.54833
Magnitude (Debye)      :      1.39376

Rotational constants in cm-1:     0.019193     0.009019     0.007121
Rotational constants in MHz :   575.404225   270.376463   213.472826

                             ****ORCA TERMINATED NORMALLY****
TOTAL RUN TIME: 0 days 0 hours 0 minutes 35 seconds 307 msec
