                         Program Version 4.2.1 -  RELEASE  -
|  1> ! wB97X-D3 SP def2-SVP
|  2> %pal
|  3> nprocs 16
|  4> end
|  5>
|  6> * xyz 0 1
|  7> S 	 2.11507 	 75.0974 	 46.93
|  8> C 	 1.72192 	 76.5512 	 47.7823
|  9> C 	 0.381701 	 76.6302 	 48.1527
| 10> C 	 -0.313067 	 75.4919 	 47.6965
| 11> C 	 0.440138 	 74.6218 	 46.8749
| 12> H 	 -1.33859 	 75.2403 	 47.8452
| 13> C 	 -0.241781 	 77.5184 	 49.141
| 14> H 	 -1.2563 	 77.7271 	 48.7814
| 15> H 	 0.191472 	 78.5378 	 49.0087
| 16> C 	 -0.259414 	 76.8897 	 50.5663
| 17> H 	 -0.904 	 77.4416 	 51.2218
| 18> H 	 -0.590297 	 75.8549 	 50.5066
| 19> C 	 1.16602 	 76.8933 	 51.2936
| 20> H 	 1.93447 	 76.4219 	 50.6832
| 21> H 	 1.54196 	 77.8354 	 51.6901
| 22> H 	 1.01819 	 76.2905 	 52.1539
| 23> S 	 -1.46825 	 73.2774 	 45.2288
| 24> C 	 -1.32497 	 71.501 	 45.0431
| 25> C 	 -0.272445 	 71.066 	 45.823
| 26> C 	 0.410941 	 72.1184 	 46.5296
| 27> C 	 -0.0773213 	 73.3989 	 46.32
| 28> H 	 0.154357 	 70.048 	 45.6035
| 29> C 	 1.58974 	 71.7979 	 47.4485
| 30> H 	 1.39971 	 70.8469 	 48.0701
| 31> H 	 1.6218 	 72.4694 	 48.3201
| 32> C 	 2.9934 	 71.6657 	 46.7748
| 33> H 	 3.65345 	 71.8643 	 47.6571
| 34> H 	 3.10194 	 72.5381 	 46.0875
| 35> C 	 3.14856 	 70.3274 	 46.1301
| 36> H 	 4.13584 	 70.2733 	 45.6909
| 37> H 	 2.49467 	 70.3355 	 45.3547
| 38> H 	 3.0026 	 69.4713 	 46.777
| 39> H 	 2.51122 	 77.0533 	 48.2418
| 40> H 	 -1.74498 	 70.87 	 44.2629
| 41> *
| 42>
| 43>                          ****END OF INPUT****

CARTESIAN COORDINATES (ANGSTROEM)
---------------------------------
  S      2.115070   75.097400   46.930000
  C      1.721920   76.551200   47.782300
  C      0.381701   76.630200   48.152700
  C     -0.313067   75.491900   47.696500
  C      0.440138   74.621800   46.874900
  H     -1.338590   75.240300   47.845200
  C     -0.241781   77.518400   49.141000
  H     -1.256300   77.727100   48.781400
  H      0.191472   78.537800   49.008700
  C     -0.259414   76.889700   50.566300
  H     -0.904000   77.441600   51.221800
  H     -0.590297   75.854900   50.506600
  C      1.166020   76.893300   51.293600
  H      1.934470   76.421900   50.683200
  H      1.541960   77.835400   51.690100
  H      1.018190   76.290500   52.153900
  S     -1.468250   73.277400   45.228800
  C     -1.324970   71.501000   45.043100
  C     -0.272445   71.066000   45.823000
  C      0.410941   72.118400   46.529600
  C     -0.077321   73.398900   46.320000
  H      0.154357   70.048000   45.603500
  C      1.589740   71.797900   47.448500
  H      1.399710   70.846900   48.070100
  H      1.621800   72.469400   48.320100
  C      2.993400   71.665700   46.774800
  H      3.653450   71.864300   47.657100
  H      3.101940   72.538100   46.087500
  C      3.148560   70.327400   46.130100
  H      4.135840   70.273300   45.690900
  H      2.494670   70.335500   45.354700
  H      3.002600   69.471300   46.777000
  H      2.511220   77.053300   48.241800
  H     -1.744980   70.870000   44.262900

 Total Charge           Charge          ....    0
 Multiplicity           Mult            ....    1
 Number of Electrons    NEL             ....  134
 Basis Dimension        Dim             ....  322

ORBITAL ENERGIES
----------------

  NO   OCC          E(Eh)            E(eV)
   0   2.0000     -88.971372     -2421.0341
   1   2.0000     -88.966752     -2420.9084
   2   2.0000     -10.329524      -281.0806
   3   2.0000     -10.328924      -281.0643
   4   2.0000     -10.322961      -280.9020
   5   2.0000     -10.310271      -280.5567
   6   2.0000     -10.302722      -280.3513
   7   2.0000     -10.299226      -280.2562
   8   2.0000     -10.298746      -280.2431
   9   2.0000     -10.295476      -280.1541
  10   2.0000     -10.293731      -280.1066
  11   2.0000     -10.291958      -280.0584
  12   2.0000     -10.291594      -280.0485
  13   2.0000     -10.288160      -279.9551
  14   2.0000     -10.277444      -279.6635
  15   2.0000     -10.266434      -279.3639
  16   2.0000      -8.085738      -220.0241
  17   2.0000      -8.080232      -219.8743
  18   2.0000      -6.044146      -164.4696
  19   2.0000      -6.040249      -164.3635
  20   2.0000      -6.038966      -164.3286
  21   2.0000      -6.036697      -164.2669
  22   2.0000      -6.034831      -164.2161
  23   2.0000      -6.030871      -164.1083
  24   2.0000      -1.006745       -27.3949
  25   2.0000      -0.982565       -26.7370
  26   2.0000      -0.912501       -24.8304
  27   2.0000      -0.905666       -24.6444
  28   2.0000      -0.870696       -23.6928
  29   2.0000      -0.850255       -23.1366
  30   2.0000      -0.843308       -22.9476
  31   2.0000      -0.813505       -22.1366
  32   2.0000      -0.784594       -21.3499
  33   2.0000      -0.774103       -21.0644
  34   2.0000      -0.713434       -19.4135
  35   2.0000      -0.702575       -19.1180
  36   2.0000      -0.687473       -18.7071
  37   2.0000      -0.662018       -18.0144
  38   2.0000      -0.644087       -17.5265
  39   2.0000      -0.613829       -16.7031
  40   2.0000      -0.597114       -16.2483
  41   2.0000      -0.575039       -15.6476
  42   2.0000      -0.546306       -14.8657
  43   2.0000      -0.545723       -14.8499
  44   2.0000      -0.542382       -14.7590
  45   2.0000      -0.533814       -14.5258
  46   2.0000      -0.523627       -14.2486
  47   2.0000      -0.515547       -14.0287
  48   2.0000      -0.502294       -13.6681
  49   2.0000      -0.496793       -13.5184
  50   2.0000      -0.486155       -13.2290
  51   2.0000      -0.481894       -13.1130
  52   2.0000      -0.476593       -12.9687
  53   2.0000      -0.470086       -12.7917
  54   2.0000      -0.464576       -12.6418
  55   2.0000      -0.447280       -12.1711
  56   2.0000      -0.438927       -11.9438
  57   2.0000      -0.435544       -11.8517
  58   2.0000      -0.428540       -11.6612
  59   2.0000      -0.425294       -11.5728
  60   2.0000      -0.416408       -11.3310
  61   2.0000      -0.411279       -11.1915
  62   2.0000      -0.408706       -11.1215
  63   2.0000      -0.346009        -9.4154
  64   2.0000      -0.333149        -9.0655
  65   2.0000      -0.327842        -8.9210
  66   2.0000      -0.293025        -7.9736
  67   0.0000       0.025143         0.6842
  68   0.0000       0.062255         1.6940
  69   0.0000       0.103868         2.8264
  70   0.0000       0.117550         3.1987
  71   0.0000       0.129707         3.5295

MULLIKEN ATOMIC CHARGES
-----------------------
   0 S :    0.111065
   1 C :   -0.096335
   2 C :   -0.075963
   3 C :    0.007245
   4 C :   -0.172965
   5 H :    0.006946
   6 C :    0.064271
   7 H :    0.023957
   8 H :    0.028735
   9 C :   -0.046783
  10 H :    0.031900
  11 H :    0.037769
  12 C :   -0.057499
  13 H :    0.033454
  14 H :    0.032662
  15 H :    0.022466
  16 S :    0.097867
  17 C :   -0.104480
  18 C :   -0.042422
  19 C :   -0.044517
  20 C :   -0.120631
  21 H :    0.049078
  22 C :   -0.033287
  23 H :    0.029487
  24 H :    0.031229
  25 C :   -0.077126
  26 H :    0.032430
  27 H :    0.035781
  28 C :    0.030598
  29 H :    0.027123
  30 H :    0.003372
  31 H :    0.029430
  32 H :    0.035982
  33 H :    0.069162
Sum of atomic charges:   -0.0000000

LOEWDIN ATOMIC CHARGES
----------------------
   0 S :    0.440728
   1 C :   -0.194637
   2 C :   -0.065210
   3 C :   -0.051798
   4 C :   -0.197300
   5 H :    0.025762
   6 C :   -0.041613
   7 H :    0.033102
   8 H :    0.036091
   9 C :   -0.022481
  10 H :    0.022293
  11 H :    0.028545
  12 C :   -0.064829
  13 H :    0.022318
  14 H :    0.023711
  15 H :    0.022222
  16 S :    0.380811
  17 C :   -0.178598
  18 C :   -0.079992
  19 C :   -0.063385
  20 C :   -0.193875
  21 H :    0.041747
  22 C :   -0.053368
  23 H :    0.036125
  24 H :    0.025550
  25 C :   -0.041511
  26 H :    0.027214
  27 H :    0.019758
  28 C :   -0.055547
  29 H :    0.028923
  30 H :    0.012245
  31 H :    0.026900
  32 H :    0.012344
  33 H :    0.037753

  Mayer bond orders larger than 0.100000
B(  0-S ,  1-C ) :   1.1627 B(  0-S ,  4-C ) :   1.1625 B(  1-C ,  2-C ) :   1.5601
B(  1-C , 32-H ) :   0.9701 B(  2-C ,  3-C ) :   1.2755 B(  2-C ,  6-C ) :   1.0467
B(  3-C ,  4-C ) :   1.5306 B(  3-C ,  5-H ) :   0.9960 B(  4-C , 20-C ) :   1.0660
B(  6-C ,  7-H ) :   0.9314 B(  6-C ,  8-H ) :   0.9384 B(  6-C ,  9-C ) :   1.0536
B(  9-C , 10-H ) :   0.9583 B(  9-C , 11-H ) :   0.9585 B(  9-C , 12-C ) :   1.0710
B( 12-C , 13-H ) :   0.9765 B( 12-C , 14-H ) :   0.9786 B( 12-C , 15-H ) :   0.9738
B( 16-S , 17-C ) :   1.1424 B( 16-S , 20-C ) :   1.1162 B( 17-C , 18-C ) :   1.6306
B( 17-C , 33-H ) :   0.9617 B( 18-C , 19-C ) :   1.2451 B( 18-C , 21-H ) :   0.9685
B( 19-C , 20-C ) :   1.5946 B( 19-C , 22-C ) :   1.0443 B( 22-C , 23-H ) :   0.9411
B( 22-C , 24-H ) :   0.9357 B( 22-C , 25-C ) :   1.0521 B( 25-C , 26-H ) :   0.9555
B( 25-C , 27-H ) :   0.9514 B( 25-C , 28-C ) :   1.0789 B( 28-C , 29-H ) :   0.9655
B( 28-C , 30-H ) :   0.9679 B( 28-C , 31-H ) :   0.9736

Dispersion correction           -0.015351939
FINAL SINGLE POINT ENERGY     -1339.864781847831

DIPOLE MOMENT
-------------
                                X             Y             Z
Electronic contribution:     -9.07988       1.81531     -16.54934
Nuclear contribution   :      9.24555      -1.96555      17.01637
                        -----------------------------------------
Total Dipole Moment    :      0.16567      -0.15024       0.46703
                        -----------------------------------------
Magnitude (a.u.)       :      0.51782
Magnitude (Debye)      :      1.31618

Rotational constants in cm-1:     0.021353     0.008522     0.007060
Rotational constants in MHz :   640.144437   255.489397   211.643179

                             ****ORCA TERMINATED NORMALLY****
TOTAL RUN TIME: 0 days 0 hours 0 minutes 34 seconds 667 msec
