                         Program Version 4.2.1 -  RELEASE  -
|  1> ! wB97X-D3 SP def2-SVP
|  2> %pal
|  3> nprocs 16
|  4> end
|  5>
|  6> * xyz 0 1
|  7> S 	 -65.1097 	 35.0683 	 142.913
|  8> C 	 -66.1417 	 33.6592 	 142.993
|  9> C 	 -66.7278 	 33.4614 	 141.747
| 10> C 	 -66.4667 	 34.465 	 140.775
| 11> C 	 -65.7024 	 35.4651 	 141.302
| 12> H 	 -66.7059 	 34.5151 	 139.758
| 13> C 	 -67.5181 	 32.1788 	 141.342
| 14> H 	 -67.3201 	 31.483 	 142.163
| 15> H 	 -67.026 	 31.7309 	 140.523
| 16> C 	 -69.0675 	 32.3544 	 141.155
| 17> H 	 -69.2681 	 32.917 	 140.29
| 18> H 	 -69.5657 	 31.4079 	 140.968
| 19> C 	 -69.8442 	 33.1033 	 142.29
| 20> H 	 -70.8736 	 33.2284 	 142.06
| 21> H 	 -69.7443 	 32.6031 	 143.314
| 22> H 	 -69.5295 	 34.1258 	 142.466
| 23> S 	 -63.4518 	 37.0865 	 140.614
| 24> C 	 -63.7229 	 38.4357 	 139.516
| 25> C 	 -65.0661 	 38.6844 	 139.367
| 26> C 	 -65.8818 	 37.665 	 139.909
| 27> C 	 -65.1992 	 36.6925 	 140.594
| 28> H 	 -65.4655 	 39.5022 	 138.746
| 29> C 	 -67.3708 	 37.6942 	 139.784
| 30> H 	 -67.7352 	 36.6854 	 140.126
| 31> H 	 -67.6298 	 37.7488 	 138.763
| 32> C 	 -68.0983 	 38.725 	 140.65
| 33> H 	 -69.1657 	 38.5594 	 140.6
| 34> H 	 -67.9598 	 39.7074 	 140.343
| 35> C 	 -67.7423 	 38.6608 	 142.125
| 36> H 	 -68.3375 	 39.406 	 142.631
| 37> H 	 -66.7344 	 38.7956 	 142.287
| 38> H 	 -68.0142 	 37.6904 	 142.549
| 39> H 	 -66.0824 	 32.7757 	 143.552
| 40> H 	 -63.0293 	 39.2127 	 139.211
| 41> *
| 42>
| 43>                          ****END OF INPUT****

CARTESIAN COORDINATES (ANGSTROEM)
---------------------------------
  S    -65.109700   35.068300  142.913000
  C    -66.141700   33.659200  142.993000
  C    -66.727800   33.461400  141.747000
  C    -66.466700   34.465000  140.775000
  C    -65.702400   35.465100  141.302000
  H    -66.705900   34.515100  139.758000
  C    -67.518100   32.178800  141.342000
  H    -67.320100   31.483000  142.163000
  H    -67.026000   31.730900  140.523000
  C    -69.067500   32.354400  141.155000
  H    -69.268100   32.917000  140.290000
  H    -69.565700   31.407900  140.968000
  C    -69.844200   33.103300  142.290000
  H    -70.873600   33.228400  142.060000
  H    -69.744300   32.603100  143.314000
  H    -69.529500   34.125800  142.466000
  S    -63.451800   37.086500  140.614000
  C    -63.722900   38.435700  139.516000
  C    -65.066100   38.684400  139.367000
  C    -65.881800   37.665000  139.909000
  C    -65.199200   36.692500  140.594000
  H    -65.465500   39.502200  138.746000
  C    -67.370800   37.694200  139.784000
  H    -67.735200   36.685400  140.126000
  H    -67.629800   37.748800  138.763000
  C    -68.098300   38.725000  140.650000
  H    -69.165700   38.559400  140.600000
  H    -67.959800   39.707400  140.343000
  C    -67.742300   38.660800  142.125000
  H    -68.337500   39.406000  142.631000
  H    -66.734400   38.795600  142.287000
  H    -68.014200   37.690400  142.549000
  H    -66.082400   32.775700  143.552000
  H    -63.029300   39.212700  139.211000

 Total Charge           Charge          ....    0
 Multiplicity           Mult            ....    1
 Number of Electrons    NEL             ....  134
 Basis Dimension        Dim             ....  322

ORBITAL ENERGIES
----------------

  NO   OCC          E(Eh)            E(eV)
   0   2.0000     -88.969724     -2420.9893
   1   2.0000     -88.968146     -2420.9463
   2   2.0000     -10.335087      -281.2320
   3   2.0000     -10.331302      -281.1290
   4   2.0000     -10.320667      -280.8396
   5   2.0000     -10.310084      -280.5516
   6   2.0000     -10.303961      -280.3850
   7   2.0000     -10.298864      -280.2463
   8   2.0000     -10.294937      -280.1395
   9   2.0000     -10.294530      -280.1284
  10   2.0000     -10.290249      -280.0119
  11   2.0000     -10.289307      -279.9863
  12   2.0000     -10.285579      -279.8848
  13   2.0000     -10.278307      -279.6870
  14   2.0000     -10.275334      -279.6060
  15   2.0000     -10.260720      -279.2084
  16   2.0000      -8.083914      -219.9745
  17   2.0000      -8.082006      -219.9226
  18   2.0000      -6.042513      -164.4251
  19   2.0000      -6.040650      -164.3745
  20   2.0000      -6.038541      -164.3170
  21   2.0000      -6.036707      -164.2672
  22   2.0000      -6.034561      -164.2088
  23   2.0000      -6.032589      -164.1551
  24   2.0000      -1.006637       -27.3920
  25   2.0000      -0.986558       -26.8456
  26   2.0000      -0.911717       -24.8091
  27   2.0000      -0.901379       -24.5278
  28   2.0000      -0.866976       -23.5916
  29   2.0000      -0.851970       -23.1833
  30   2.0000      -0.845086       -22.9960
  31   2.0000      -0.819375       -22.2963
  32   2.0000      -0.784243       -21.3403
  33   2.0000      -0.775194       -21.0941
  34   2.0000      -0.709879       -19.3168
  35   2.0000      -0.701109       -19.0781
  36   2.0000      -0.697741       -18.9865
  37   2.0000      -0.659948       -17.9581
  38   2.0000      -0.645379       -17.5617
  39   2.0000      -0.618684       -16.8352
  40   2.0000      -0.594026       -16.1643
  41   2.0000      -0.564627       -15.3643
  42   2.0000      -0.558021       -15.1845
  43   2.0000      -0.552199       -15.0261
  44   2.0000      -0.547494       -14.8981
  45   2.0000      -0.538932       -14.6651
  46   2.0000      -0.514559       -14.0019
  47   2.0000      -0.504856       -13.7378
  48   2.0000      -0.504292       -13.7225
  49   2.0000      -0.496041       -13.4980
  50   2.0000      -0.490346       -13.3430
  51   2.0000      -0.476815       -12.9748
  52   2.0000      -0.467956       -12.7337
  53   2.0000      -0.458620       -12.4797
  54   2.0000      -0.454669       -12.3722
  55   2.0000      -0.450622       -12.2621
  56   2.0000      -0.447808       -12.1855
  57   2.0000      -0.443733       -12.0746
  58   2.0000      -0.435826       -11.8594
  59   2.0000      -0.421894       -11.4803
  60   2.0000      -0.418793       -11.3959
  61   2.0000      -0.417109       -11.3501
  62   2.0000      -0.414256       -11.2725
  63   2.0000      -0.349433        -9.5085
  64   2.0000      -0.334208        -9.0943
  65   2.0000      -0.332287        -9.0420
  66   2.0000      -0.297875        -8.1056
  67   0.0000       0.026484         0.7207
  68   0.0000       0.065848         1.7918
  69   0.0000       0.107200         2.9171
  70   0.0000       0.121083         3.2948
  71   0.0000       0.127381         3.4662

MULLIKEN ATOMIC CHARGES
-----------------------
   0 S :    0.106135
   1 C :   -0.058539
   2 C :   -0.160767
   3 C :    0.068108
   4 C :   -0.157443
   5 H :    0.002969
   6 C :    0.091493
   7 H :    0.006715
   8 H :    0.028153
   9 C :   -0.040831
  10 H :    0.015088
  11 H :    0.031666
  12 C :   -0.076810
  13 H :    0.026998
  14 H :    0.037350
  15 H :    0.035263
  16 S :    0.099474
  17 C :   -0.077462
  18 C :   -0.048253
  19 C :   -0.065134
  20 C :   -0.153333
  21 H :    0.030382
  22 C :    0.094096
  23 H :    0.012812
  24 H :    0.017893
  25 C :   -0.045714
  26 H :    0.022759
  27 H :    0.007634
  28 C :   -0.026037
  29 H :    0.025653
  30 H :    0.028487
  31 H :    0.025058
  32 H :    0.033988
  33 H :    0.062151
Sum of atomic charges:   -0.0000000

LOEWDIN ATOMIC CHARGES
----------------------
   0 S :    0.403585
   1 C :   -0.208029
   2 C :   -0.051301
   3 C :   -0.061909
   4 C :   -0.173722
   5 H :    0.027479
   6 C :   -0.024838
   7 H :    0.025832
   8 H :    0.026841
   9 C :   -0.034864
  10 H :    0.016359
  11 H :    0.026376
  12 C :   -0.070671
  13 H :    0.021550
  14 H :    0.030583
  15 H :    0.024536
  16 S :    0.381904
  17 C :   -0.178767
  18 C :   -0.073610
  19 C :   -0.060305
  20 C :   -0.188114
  21 H :    0.037005
  22 C :   -0.030715
  23 H :    0.034187
  24 H :    0.023566
  25 C :   -0.031782
  26 H :    0.025876
  27 H :    0.010424
  28 C :   -0.051060
  29 H :    0.026067
  30 H :    0.013647
  31 H :    0.025623
  32 H :    0.023379
  33 H :    0.034870

  Mayer bond orders larger than 0.100000
B(  0-S ,  1-C ) :   1.1219 B(  0-S ,  4-C ) :   1.1556 B(  1-C ,  2-C ) :   1.6348
B(  1-C , 32-H ) :   0.9585 B(  2-C ,  3-C ) :   1.2198 B(  2-C ,  6-C ) :   1.0185
B(  3-C ,  4-C ) :   1.5828 B(  3-C ,  5-H ) :   1.0027 B(  4-C , 20-C ) :   1.0131
B(  6-C ,  7-H ) :   0.9398 B(  6-C ,  8-H ) :   0.9478 B(  6-C ,  9-C ) :   1.0562
B(  9-C , 10-H ) :   0.9575 B(  9-C , 11-H ) :   0.9589 B(  9-C , 12-C ) :   1.0754
B( 12-C , 13-H ) :   0.9746 B( 12-C , 14-H ) :   0.9781 B( 12-C , 15-H ) :   0.9723
B( 16-S , 17-C ) :   1.1486 B( 16-S , 20-C ) :   1.1193 B( 17-C , 18-C ) :   1.6231
B( 17-C , 33-H ) :   0.9607 B( 18-C , 19-C ) :   1.2426 B( 18-C , 21-H ) :   0.9824
B( 19-C , 20-C ) :   1.6164 B( 19-C , 22-C ) :   1.0461 B( 22-C , 23-H ) :   0.9269
B( 22-C , 24-H ) :   0.9295 B( 22-C , 25-C ) :   1.0765 B( 25-C , 26-H ) :   0.9547
B( 25-C , 27-H ) :   0.9559 B( 25-C , 28-C ) :   1.0817 B( 28-C , 29-H ) :   0.9718
B( 28-C , 30-H ) :   0.9748 B( 28-C , 31-H ) :   0.9749

Dispersion correction           -0.015558619
FINAL SINGLE POINT ENERGY     -1339.872124927468

DIPOLE MOMENT
-------------
                                X             Y             Z
Electronic contribution:     26.51459       3.23804       0.46546
Nuclear contribution   :    -27.00898      -3.25411      -0.92469
                        -----------------------------------------
Total Dipole Moment    :     -0.49439      -0.01607      -0.45923
                        -----------------------------------------
Magnitude (a.u.)       :      0.67497
Magnitude (Debye)      :      1.71563

Rotational constants in cm-1:     0.020614     0.009104     0.007526
Rotational constants in MHz :   617.995112   272.916587   225.632032

                             ****ORCA TERMINATED NORMALLY****
TOTAL RUN TIME: 0 days 0 hours 0 minutes 37 seconds 491 msec
