                         Program Version 4.2.1 -  RELEASE  -
|  1> ! wB97X-D3 SP def2-SVP
|  2> %pal
|  3> nprocs 16
|  4> end
|  5>
|  6> * xyz 0 1
|  7> S 	 -43.203 	 24.5508 	 87.5512
|  8> C 	 -44.8579 	 24.5995 	 88.2599
|  9> C 	 -45.3978 	 23.2879 	 88.3584
| 10> C 	 -44.5354 	 22.3057 	 87.8629
| 11> C 	 -43.3269 	 22.7873 	 87.308
| 12> H 	 -44.7391 	 21.2527 	 87.7609
| 13> C 	 -46.6577 	 22.9982 	 89.0999
| 14> H 	 -47.4232 	 22.4909 	 88.5236
| 15> H 	 -47.077 	 23.9882 	 89.3231
| 16> C 	 -46.4551 	 22.3607 	 90.5548
| 17> H 	 -47.4152 	 21.9634 	 90.897
| 18> H 	 -45.704 	 21.5856 	 90.5779
| 19> C 	 -46.1233 	 23.4356 	 91.6435
| 20> H 	 -46.235 	 23.1053 	 92.6759
| 21> H 	 -45.1321 	 23.935 	 91.5105
| 22> H 	 -46.985 	 24.1797 	 91.5312
| 23> S 	 -41.4352 	 23.0709 	 85.3347
| 24> C 	 -40.2883 	 21.7513 	 85.0201
| 25> C 	 -40.5105 	 20.6969 	 85.8156
| 26> C 	 -41.4843 	 20.9807 	 86.8012
| 27> C 	 -42.2412 	 22.124 	 86.5446
| 28> H 	 -39.9198 	 19.7702 	 85.7645
| 29> C 	 -41.7616 	 19.9825 	 87.9441
| 30> H 	 -42.2484 	 20.5695 	 88.727
| 31> H 	 -40.8013 	 19.7125 	 88.3576
| 32> C 	 -42.4558 	 18.6585 	 87.5435
| 33> H 	 -41.718 	 18.2804 	 86.8483
| 34> H 	 -43.2693 	 18.9593 	 86.9003
| 35> C 	 -42.8614 	 17.7933 	 88.7174
| 36> H 	 -43.082 	 18.3803 	 89.5671
| 37> H 	 -42.0688 	 17.1663 	 89.0693
| 38> H 	 -43.7136 	 17.2294 	 88.2597
| 39> H 	 -45.3147 	 25.499 	 88.4693
| 40> H 	 -39.6393 	 21.7585 	 84.1472
| 41> *
| 42>
| 43>                          ****END OF INPUT****

CARTESIAN COORDINATES (ANGSTROEM)
---------------------------------
  S    -43.203000   24.550800   87.551200
  C    -44.857900   24.599500   88.259900
  C    -45.397800   23.287900   88.358400
  C    -44.535400   22.305700   87.862900
  C    -43.326900   22.787300   87.308000
  H    -44.739100   21.252700   87.760900
  C    -46.657700   22.998200   89.099900
  H    -47.423200   22.490900   88.523600
  H    -47.077000   23.988200   89.323100
  C    -46.455100   22.360700   90.554800
  H    -47.415200   21.963400   90.897000
  H    -45.704000   21.585600   90.577900
  C    -46.123300   23.435600   91.643500
  H    -46.235000   23.105300   92.675900
  H    -45.132100   23.935000   91.510500
  H    -46.985000   24.179700   91.531200
  S    -41.435200   23.070900   85.334700
  C    -40.288300   21.751300   85.020100
  C    -40.510500   20.696900   85.815600
  C    -41.484300   20.980700   86.801200
  C    -42.241200   22.124000   86.544600
  H    -39.919800   19.770200   85.764500
  C    -41.761600   19.982500   87.944100
  H    -42.248400   20.569500   88.727000
  H    -40.801300   19.712500   88.357600
  C    -42.455800   18.658500   87.543500
  H    -41.718000   18.280400   86.848300
  H    -43.269300   18.959300   86.900300
  C    -42.861400   17.793300   88.717400
  H    -43.082000   18.380300   89.567100
  H    -42.068800   17.166300   89.069300
  H    -43.713600   17.229400   88.259700
  H    -45.314700   25.499000   88.469300
  H    -39.639300   21.758500   84.147200

 Total Charge           Charge          ....    0
 Multiplicity           Mult            ....    1
 Number of Electrons    NEL             ....  134
 Basis Dimension        Dim             ....  322

ORBITAL ENERGIES
----------------

  NO   OCC          E(Eh)            E(eV)
   0   2.0000     -88.967286     -2420.9229
   1   2.0000     -88.964098     -2420.8362
   2   2.0000     -10.338799      -281.3330
   3   2.0000     -10.329365      -281.0763
   4   2.0000     -10.317413      -280.7511
   5   2.0000     -10.317316      -280.7485
   6   2.0000     -10.305247      -280.4200
   7   2.0000     -10.302587      -280.3476
   8   2.0000     -10.296083      -280.1707
   9   2.0000     -10.295622      -280.1581
  10   2.0000     -10.294072      -280.1159
  11   2.0000     -10.293406      -280.0978
  12   2.0000     -10.286480      -279.9093
  13   2.0000     -10.285857      -279.8924
  14   2.0000     -10.283962      -279.8408
  15   2.0000     -10.279041      -279.7069
  16   2.0000      -8.080617      -219.8848
  17   2.0000      -8.078988      -219.8404
  18   2.0000      -6.039096      -164.3322
  19   2.0000      -6.037519      -164.2892
  20   2.0000      -6.035296      -164.2288
  21   2.0000      -6.033536      -164.1809
  22   2.0000      -6.031512      -164.1258
  23   2.0000      -6.029625      -164.0744
  24   2.0000      -1.005777       -27.3686
  25   2.0000      -0.979087       -26.6423
  26   2.0000      -0.910065       -24.7641
  27   2.0000      -0.905028       -24.6271
  28   2.0000      -0.866916       -23.5900
  29   2.0000      -0.851289       -23.1648
  30   2.0000      -0.842971       -22.9384
  31   2.0000      -0.817045       -22.2329
  32   2.0000      -0.780123       -21.2282
  33   2.0000      -0.768326       -20.9072
  34   2.0000      -0.708592       -19.2818
  35   2.0000      -0.700587       -19.0640
  36   2.0000      -0.694780       -18.9059
  37   2.0000      -0.660500       -17.9731
  38   2.0000      -0.646348       -17.5880
  39   2.0000      -0.620679       -16.8895
  40   2.0000      -0.595873       -16.2145
  41   2.0000      -0.569827       -15.5058
  42   2.0000      -0.565767       -15.3953
  43   2.0000      -0.547608       -14.9012
  44   2.0000      -0.539431       -14.6787
  45   2.0000      -0.534968       -14.5572
  46   2.0000      -0.517199       -14.0737
  47   2.0000      -0.509108       -13.8535
  48   2.0000      -0.506793       -13.7905
  49   2.0000      -0.496427       -13.5085
  50   2.0000      -0.490519       -13.3477
  51   2.0000      -0.478454       -13.0194
  52   2.0000      -0.470169       -12.7939
  53   2.0000      -0.459609       -12.5066
  54   2.0000      -0.453338       -12.3359
  55   2.0000      -0.452519       -12.3137
  56   2.0000      -0.440128       -11.9765
  57   2.0000      -0.437857       -11.9147
  58   2.0000      -0.431907       -11.7528
  59   2.0000      -0.427704       -11.6384
  60   2.0000      -0.418923       -11.3995
  61   2.0000      -0.415841       -11.3156
  62   2.0000      -0.411251       -11.1907
  63   2.0000      -0.351774        -9.5723
  64   2.0000      -0.334129        -9.0921
  65   2.0000      -0.330072        -8.9817
  66   2.0000      -0.286109        -7.7854
  67   0.0000       0.019963         0.5432
  68   0.0000       0.071563         1.9473
  69   0.0000       0.100119         2.7244
  70   0.0000       0.119924         3.2633
  71   0.0000       0.128222         3.4891

MULLIKEN ATOMIC CHARGES
-----------------------
   0 S :    0.089767
   1 C :   -0.099981
   2 C :   -0.070127
   3 C :    0.034456
   4 C :   -0.152181
   5 H :    0.009146
   6 C :    0.064693
   7 H :    0.039849
   8 H :    0.007191
   9 C :   -0.062218
  10 H :    0.030190
  11 H :    0.034593
  12 C :   -0.102510
  13 H :    0.039961
  14 H :    0.058477
  15 H :    0.026700
  16 S :    0.084867
  17 C :   -0.083302
  18 C :   -0.020093
  19 C :   -0.083546
  20 C :   -0.122058
  21 H :    0.034024
  22 C :    0.042850
  23 H :    0.022525
  24 H :    0.013056
  25 C :   -0.075145
  26 H :    0.016185
  27 H :    0.023141
  28 C :    0.006192
  29 H :    0.023828
  30 H :    0.029692
  31 H :    0.052352
  32 H :    0.026926
  33 H :    0.060498
Sum of atomic charges:   -0.0000000

LOEWDIN ATOMIC CHARGES
----------------------
   0 S :    0.375200
   1 C :   -0.170251
   2 C :   -0.060823
   3 C :   -0.066235
   4 C :   -0.172024
   5 H :    0.031202
   6 C :   -0.031083
   7 H :    0.030578
   8 H :    0.030220
   9 C :   -0.031889
  10 H :    0.025829
  11 H :    0.017588
  12 C :   -0.075524
  13 H :    0.024713
  14 H :    0.030066
  15 H :    0.028028
  16 S :    0.394728
  17 C :   -0.168282
  18 C :   -0.074646
  19 C :   -0.054497
  20 C :   -0.206260
  21 H :    0.039044
  22 C :   -0.034554
  23 H :    0.023609
  24 H :    0.023970
  25 C :   -0.042092
  26 H :    0.022661
  27 H :    0.019118
  28 C :   -0.059642
  29 H :    0.022618
  30 H :    0.026240
  31 H :    0.042283
  32 H :    0.009646
  33 H :    0.030460

  Mayer bond orders larger than 0.100000
B(  0-S ,  1-C ) :   1.1367 B(  0-S ,  4-C ) :   1.1561 B(  1-C ,  2-C ) :   1.5643
B(  1-C ,  4-C ) :   0.1124 B(  1-C , 32-H ) :   0.9807 B(  2-C ,  3-C ) :   1.2606
B(  2-C ,  6-C ) :   1.0436 B(  3-C ,  4-C ) :   1.5506 B(  3-C ,  5-H ) :   0.9968
B(  4-C , 20-C ) :   1.0473 B(  6-C ,  7-H ) :   0.9405 B(  6-C ,  8-H ) :   0.9408
B(  6-C ,  9-C ) :   1.0459 B(  9-C , 10-H ) :   0.9581 B(  9-C , 11-H ) :   0.9643
B(  9-C , 12-C ) :   1.0680 B( 12-C , 13-H ) :   0.9772 B( 12-C , 14-H ) :   0.9774
B( 12-C , 15-H ) :   0.9742 B( 16-S , 17-C ) :   1.1438 B( 16-S , 20-C ) :   1.1344
B( 17-C , 18-C ) :   1.6274 B( 17-C , 33-H ) :   0.9635 B( 18-C , 19-C ) :   1.2314
B( 18-C , 21-H ) :   0.9841 B( 19-C , 20-C ) :   1.5818 B( 19-C , 22-C ) :   1.0538
B( 22-C , 23-H ) :   0.9325 B( 22-C , 24-H ) :   0.9331 B( 22-C , 25-C ) :   1.0491
B( 25-C , 26-H ) :   0.9514 B( 25-C , 27-H ) :   0.9640 B( 25-C , 28-C ) :   1.0615
B( 28-C , 29-H ) :   0.9755 B( 28-C , 30-H ) :   0.9723 B( 28-C , 31-H ) :   0.9761

Dispersion correction           -0.014174993
FINAL SINGLE POINT ENERGY     -1339.867358794207

DIPOLE MOMENT
-------------
                                X             Y             Z
Electronic contribution:     13.27135      17.95722     -19.91635
Nuclear contribution   :    -13.44838     -18.56551      20.20293
                        -----------------------------------------
Total Dipole Moment    :     -0.17703      -0.60829       0.28658
                        -----------------------------------------
Magnitude (a.u.)       :      0.69533
Magnitude (Debye)      :      1.76739

Rotational constants in cm-1:     0.017641     0.009309     0.006481
Rotational constants in MHz :   528.866151   279.081664   194.303396

                             ****ORCA TERMINATED NORMALLY****
TOTAL RUN TIME: 0 days 0 hours 0 minutes 30 seconds 234 msec
