                         Program Version 4.2.1 -  RELEASE  -
|  1> ! wB97X-D3 SP def2-SVP
|  2> %pal
|  3> nprocs 16
|  4> end
|  5>
|  6> * xyz 0 1
|  7> S 	 -45.0622 	 38.8344 	 85.4404
|  8> C 	 -46.4055 	 39.1414 	 86.5769
|  9> C 	 -47.6399 	 39.2075 	 85.8437
| 10> C 	 -47.4624 	 39.0167 	 84.43
| 11> C 	 -46.1414 	 38.7633 	 84.0842
| 12> H 	 -48.2453 	 39.0077 	 83.6984
| 13> C 	 -49.0048 	 39.3957 	 86.4184
| 14> H 	 -49.0066 	 38.6712 	 87.1949
| 15> H 	 -49.7928 	 39.0773 	 85.7285
| 16> C 	 -49.0815 	 40.8247 	 86.9896
| 17> H 	 -49.7165 	 40.9047 	 87.8727
| 18> H 	 -48.0408 	 41.0677 	 87.3374
| 19> C 	 -49.6298 	 41.8862 	 85.954
| 20> H 	 -49.7428 	 42.8414 	 86.3677
| 21> H 	 -48.9492 	 41.937 	 85.0822
| 22> H 	 -50.5664 	 41.6235 	 85.5457
| 23> S 	 -44.612 	 37.2009 	 82.5112
| 24> C 	 -44.3821 	 37.5454 	 80.8706
| 25> C 	 -45.0776 	 38.6675 	 80.4593
| 26> C 	 -45.782 	 39.3162 	 81.5499
| 27> C 	 -45.6594 	 38.5991 	 82.7233
| 28> H 	 -44.9465 	 38.9593 	 79.4723
| 29> C 	 -46.5191 	 40.5382 	 81.3699
| 30> H 	 -47.3017 	 40.7036 	 82.1577
| 31> H 	 -46.9812 	 40.3786 	 80.3677
| 32> C 	 -45.7288 	 41.8131 	 81.2948
| 33> H 	 -45.1421 	 41.7912 	 82.2643
| 34> H 	 -46.4512 	 42.6603 	 81.3832
| 35> C 	 -44.7725 	 42.0303 	 80.0949
| 36> H 	 -44.0836 	 42.9404 	 80.1569
| 37> H 	 -45.4934 	 42.1809 	 79.3395
| 38> H 	 -44.1162 	 41.1372 	 79.8802
| 39> H 	 -46.3975 	 39.2457 	 87.6905
| 40> H 	 -43.7839 	 37.0209 	 80.1638
| 41> *
| 42>
| 43>                          ****END OF INPUT****

CARTESIAN COORDINATES (ANGSTROEM)
---------------------------------
  S    -45.062200   38.834400   85.440400
  C    -46.405500   39.141400   86.576900
  C    -47.639900   39.207500   85.843700
  C    -47.462400   39.016700   84.430000
  C    -46.141400   38.763300   84.084200
  H    -48.245300   39.007700   83.698400
  C    -49.004800   39.395700   86.418400
  H    -49.006600   38.671200   87.194900
  H    -49.792800   39.077300   85.728500
  C    -49.081500   40.824700   86.989600
  H    -49.716500   40.904700   87.872700
  H    -48.040800   41.067700   87.337400
  C    -49.629800   41.886200   85.954000
  H    -49.742800   42.841400   86.367700
  H    -48.949200   41.937000   85.082200
  H    -50.566400   41.623500   85.545700
  S    -44.612000   37.200900   82.511200
  C    -44.382100   37.545400   80.870600
  C    -45.077600   38.667500   80.459300
  C    -45.782000   39.316200   81.549900
  C    -45.659400   38.599100   82.723300
  H    -44.946500   38.959300   79.472300
  C    -46.519100   40.538200   81.369900
  H    -47.301700   40.703600   82.157700
  H    -46.981200   40.378600   80.367700
  C    -45.728800   41.813100   81.294800
  H    -45.142100   41.791200   82.264300
  H    -46.451200   42.660300   81.383200
  C    -44.772500   42.030300   80.094900
  H    -44.083600   42.940400   80.156900
  H    -45.493400   42.180900   79.339500
  H    -44.116200   41.137200   79.880200
  H    -46.397500   39.245700   87.690500
  H    -43.783900   37.020900   80.163800

 Total Charge           Charge          ....    0
 Multiplicity           Mult            ....    1
 Number of Electrons    NEL             ....  134
 Basis Dimension        Dim             ....  322

ORBITAL ENERGIES
----------------

  NO   OCC          E(Eh)            E(eV)
   0   2.0000     -88.972563     -2421.0665
   1   2.0000     -88.962767     -2420.8000
   2   2.0000     -10.328619      -281.0560
   3   2.0000     -10.323396      -280.9139
   4   2.0000     -10.322619      -280.8927
   5   2.0000     -10.310937      -280.5749
   6   2.0000     -10.305354      -280.4229
   7   2.0000     -10.301995      -280.3315
   8   2.0000     -10.293372      -280.0969
   9   2.0000     -10.292085      -280.0619
  10   2.0000     -10.289538      -279.9926
  11   2.0000     -10.289432      -279.9897
  12   2.0000     -10.288930      -279.9760
  13   2.0000     -10.288914      -279.9756
  14   2.0000     -10.283825      -279.8371
  15   2.0000     -10.273971      -279.5690
  16   2.0000      -8.086158      -220.0355
  17   2.0000      -8.078636      -219.8309
  18   2.0000      -6.044812      -164.4877
  19   2.0000      -6.040695      -164.3757
  20   2.0000      -6.037007      -164.2753
  21   2.0000      -6.036963      -164.2741
  22   2.0000      -6.032909      -164.1638
  23   2.0000      -6.029551      -164.0724
  24   2.0000      -1.008979       -27.4557
  25   2.0000      -0.981902       -26.7189
  26   2.0000      -0.919434       -25.0191
  27   2.0000      -0.913286       -24.8518
  28   2.0000      -0.864898       -23.5351
  29   2.0000      -0.850251       -23.1365
  30   2.0000      -0.843153       -22.9434
  31   2.0000      -0.814851       -22.1732
  32   2.0000      -0.786907       -21.4128
  33   2.0000      -0.771932       -21.0053
  34   2.0000      -0.709678       -19.3113
  35   2.0000      -0.704587       -19.1728
  36   2.0000      -0.684936       -18.6381
  37   2.0000      -0.667604       -18.1664
  38   2.0000      -0.636358       -17.3162
  39   2.0000      -0.616354       -16.7718
  40   2.0000      -0.592531       -16.1236
  41   2.0000      -0.574595       -15.6355
  42   2.0000      -0.557625       -15.1737
  43   2.0000      -0.553972       -15.0744
  44   2.0000      -0.546621       -14.8743
  45   2.0000      -0.528161       -14.3720
  46   2.0000      -0.518902       -14.1200
  47   2.0000      -0.512632       -13.9494
  48   2.0000      -0.505028       -13.7425
  49   2.0000      -0.491215       -13.3666
  50   2.0000      -0.487848       -13.2750
  51   2.0000      -0.482137       -13.1196
  52   2.0000      -0.474817       -12.9204
  53   2.0000      -0.469203       -12.7677
  54   2.0000      -0.462018       -12.5721
  55   2.0000      -0.447149       -12.1675
  56   2.0000      -0.441714       -12.0196
  57   2.0000      -0.438772       -11.9396
  58   2.0000      -0.432969       -11.7817
  59   2.0000      -0.427641       -11.6367
  60   2.0000      -0.423912       -11.5352
  61   2.0000      -0.412201       -11.2166
  62   2.0000      -0.404651       -11.0111
  63   2.0000      -0.342958        -9.3324
  64   2.0000      -0.330852        -9.0029
  65   2.0000      -0.327358        -8.9079
  66   2.0000      -0.289814        -7.8862
  67   0.0000       0.029960         0.8153
  68   0.0000       0.068750         1.8708
  69   0.0000       0.111742         3.0407
  70   0.0000       0.113060         3.0765
  71   0.0000       0.129593         3.5264

MULLIKEN ATOMIC CHARGES
-----------------------
   0 S :    0.131980
   1 C :   -0.138235
   2 C :   -0.138541
   3 C :    0.034047
   4 C :   -0.130797
   5 H :    0.009362
   6 C :    0.097794
   7 H :    0.023113
   8 H :    0.027562
   9 C :   -0.091098
  10 H :    0.027504
  11 H :    0.037270
  12 C :   -0.015075
  13 H :    0.026719
  14 H :    0.027835
  15 H :    0.014449
  16 S :    0.110057
  17 C :   -0.063378
  18 C :   -0.043722
  19 C :    0.003069
  20 C :   -0.188705
  21 H :   -0.005685
  22 C :    0.046692
  23 H :    0.033638
  24 H :    0.022506
  25 C :   -0.089424
  26 H :    0.031508
  27 H :    0.036687
  28 C :   -0.069756
  29 H :    0.053791
  30 H :    0.020933
  31 H :    0.050691
  32 H :    0.065364
  33 H :    0.041848
Sum of atomic charges:   -0.0000000

LOEWDIN ATOMIC CHARGES
----------------------
   0 S :    0.414234
   1 C :   -0.219162
   2 C :   -0.049577
   3 C :   -0.067475
   4 C :   -0.202989
   5 H :    0.028046
   6 C :   -0.033930
   7 H :    0.032061
   8 H :    0.031716
   9 C :   -0.034871
  10 H :    0.019086
  11 H :    0.029964
  12 C :   -0.057364
  13 H :    0.018948
  14 H :    0.027440
  15 H :    0.017255
  16 S :    0.423108
  17 C :   -0.193589
  18 C :   -0.068121
  19 C :   -0.052879
  20 C :   -0.197304
  21 H :    0.018440
  22 C :   -0.044532
  23 H :    0.039646
  24 H :    0.034437
  25 C :   -0.044241
  26 H :    0.026979
  27 H :    0.027698
  28 C :   -0.075545
  29 H :    0.038145
  30 H :    0.017628
  31 H :    0.032012
  32 H :    0.038822
  33 H :    0.025916

  Mayer bond orders larger than 0.100000
B(  0-S ,  1-C ) :   1.1278 B(  0-S ,  4-C ) :   1.1688 B(  1-C ,  2-C ) :   1.5809
B(  1-C ,  4-C ) :   0.1075 B(  1-C , 32-H ) :   0.9595 B(  2-C ,  3-C ) :   1.2591
B(  2-C ,  6-C ) :   1.0207 B(  3-C ,  4-C ) :   1.5443 B(  3-C ,  5-H ) :   0.9970
B(  4-C , 20-C ) :   1.0290 B(  6-C ,  7-H ) :   0.9290 B(  6-C ,  8-H ) :   0.9517
B(  6-C ,  9-C ) :   1.0507 B(  9-C , 10-H ) :   0.9579 B(  9-C , 11-H ) :   0.9605
B(  9-C , 12-C ) :   1.0706 B( 12-C , 13-H ) :   0.9766 B( 12-C , 14-H ) :   0.9765
B( 12-C , 15-H ) :   0.9761 B( 16-S , 17-C ) :   1.1668 B( 16-S , 20-C ) :   1.1358
B( 17-C , 18-C ) :   1.6202 B( 17-C , 33-H ) :   0.9663 B( 18-C , 19-C ) :   1.2051
B( 18-C , 21-H ) :   0.9978 B( 19-C , 20-C ) :   1.6037 B( 19-C , 22-C ) :   1.0597
B( 22-C , 23-H ) :   0.9267 B( 22-C , 24-H ) :   0.9211 B( 22-C , 25-C ) :   1.0755
B( 25-C , 26-H ) :   0.9497 B( 25-C , 27-H ) :   0.9593 B( 25-C , 28-C ) :   1.0615
B( 28-C , 29-H ) :   0.9730 B( 28-C , 30-H ) :   0.9771 B( 28-C , 31-H ) :   0.9694

Dispersion correction           -0.014671352
FINAL SINGLE POINT ENERGY     -1339.869879053904

DIPOLE MOMENT
-------------
                                X             Y             Z
Electronic contribution:     15.19110     -21.51362       2.76446
Nuclear contribution   :    -15.65040      21.85879      -2.93143
                        -----------------------------------------
Total Dipole Moment    :     -0.45930       0.34517      -0.16697
                        -----------------------------------------
Magnitude (a.u.)       :      0.59831
Magnitude (Debye)      :      1.52079

Rotational constants in cm-1:     0.019841     0.008832     0.006894
Rotational constants in MHz :   594.817260   264.764824   206.664622

                             ****ORCA TERMINATED NORMALLY****
TOTAL RUN TIME: 0 days 0 hours 0 minutes 29 seconds 7 msec
