                         Program Version 4.2.1 -  RELEASE  -
|  1> ! wB97X-D3 SP def2-SVP
|  2> %pal
|  3> nprocs 16
|  4> end
|  5>
|  6> * xyz 0 1
|  7> S 	 29.8231 	 32.4796 	 54.3517
|  8> C 	 30.1059 	 31.4255 	 52.9877
|  9> C 	 30.417 	 30.0997 	 53.3931
| 10> C 	 30.4459 	 29.9788 	 54.7889
| 11> C 	 30.1452 	 31.1247 	 55.4775
| 12> H 	 30.7379 	 29.0709 	 55.3127
| 13> C 	 30.6806 	 28.9599 	 52.4358
| 14> H 	 30.4815 	 29.2727 	 51.4187
| 15> H 	 29.9345 	 28.1379 	 52.4565
| 16> C 	 32.1455 	 28.5072 	 52.7289
| 17> H 	 32.8033 	 29.3401 	 52.8231
| 18> H 	 32.1909 	 28.0615 	 53.6934
| 19> C 	 32.6287 	 27.3793 	 51.759
| 20> H 	 33.5888 	 27.0684 	 52.0769
| 21> H 	 31.9067 	 26.5837 	 51.7894
| 22> H 	 32.6351 	 27.6937 	 50.7086
| 23> S 	 28.8669 	 32.2177 	 57.6762
| 24> C 	 29.4651 	 31.8239 	 59.2661
| 25> C 	 30.7304 	 31.2745 	 59.1976
| 26> C 	 31.1348 	 30.9977 	 57.8611
| 27> C 	 30.1418 	 31.3091 	 56.9346
| 28> H 	 31.2425 	 31.0016 	 60.1121
| 29> C 	 32.474 	 30.5096 	 57.5692
| 30> H 	 32.2823 	 29.5175 	 57.1622
| 31> H 	 33.024 	 30.3009 	 58.4979
| 32> C 	 33.3963 	 31.3204 	 56.5491
| 33> H 	 33.4437 	 32.3453 	 56.7913
| 34> H 	 32.9631 	 31.2012 	 55.56
| 35> C 	 34.8552 	 30.6648 	 56.484
| 36> H 	 34.8508 	 29.8577 	 55.7945
| 37> H 	 35.1862 	 30.2901 	 57.5015
| 38> H 	 35.6176 	 31.3666 	 56.1312
| 39> H 	 30.0833 	 31.698 	 51.9552
| 40> H 	 28.9735 	 32.2743 	 60.0761
| 41> *
| 42>
| 43>                          ****END OF INPUT****

CARTESIAN COORDINATES (ANGSTROEM)
---------------------------------
  S     29.823100   32.479600   54.351700
  C     30.105900   31.425500   52.987700
  C     30.417000   30.099700   53.393100
  C     30.445900   29.978800   54.788900
  C     30.145200   31.124700   55.477500
  H     30.737900   29.070900   55.312700
  C     30.680600   28.959900   52.435800
  H     30.481500   29.272700   51.418700
  H     29.934500   28.137900   52.456500
  C     32.145500   28.507200   52.728900
  H     32.803300   29.340100   52.823100
  H     32.190900   28.061500   53.693400
  C     32.628700   27.379300   51.759000
  H     33.588800   27.068400   52.076900
  H     31.906700   26.583700   51.789400
  H     32.635100   27.693700   50.708600
  S     28.866900   32.217700   57.676200
  C     29.465100   31.823900   59.266100
  C     30.730400   31.274500   59.197600
  C     31.134800   30.997700   57.861100
  C     30.141800   31.309100   56.934600
  H     31.242500   31.001600   60.112100
  C     32.474000   30.509600   57.569200
  H     32.282300   29.517500   57.162200
  H     33.024000   30.300900   58.497900
  C     33.396300   31.320400   56.549100
  H     33.443700   32.345300   56.791300
  H     32.963100   31.201200   55.560000
  C     34.855200   30.664800   56.484000
  H     34.850800   29.857700   55.794500
  H     35.186200   30.290100   57.501500
  H     35.617600   31.366600   56.131200
  H     30.083300   31.698000   51.955200
  H     28.973500   32.274300   60.076100

 Total Charge           Charge          ....    0
 Multiplicity           Mult            ....    1
 Number of Electrons    NEL             ....  134
 Basis Dimension        Dim             ....  322

ORBITAL ENERGIES
----------------

  NO   OCC          E(Eh)            E(eV)
   0   2.0000     -88.969106     -2420.9725
   1   2.0000     -88.962832     -2420.8017
   2   2.0000     -10.331050      -281.1222
   3   2.0000     -10.323146      -280.9071
   4   2.0000     -10.314308      -280.6666
   5   2.0000     -10.312615      -280.6205
   6   2.0000     -10.301220      -280.3104
   7   2.0000     -10.299356      -280.2597
   8   2.0000     -10.296095      -280.1710
   9   2.0000     -10.294093      -280.1165
  10   2.0000     -10.291559      -280.0475
  11   2.0000     -10.289782      -279.9992
  12   2.0000     -10.287540      -279.9382
  13   2.0000     -10.286638      -279.9136
  14   2.0000     -10.282346      -279.7969
  15   2.0000     -10.276878      -279.6481
  16   2.0000      -8.082908      -219.9471
  17   2.0000      -8.078269      -219.8209
  18   2.0000      -6.041448      -164.3962
  19   2.0000      -6.037568      -164.2906
  20   2.0000      -6.036622      -164.2648
  21   2.0000      -6.033679      -164.1848
  22   2.0000      -6.032739      -164.1592
  23   2.0000      -6.029123      -164.0608
  24   2.0000      -1.006841       -27.3975
  25   2.0000      -0.983822       -26.7712
  26   2.0000      -0.909854       -24.7584
  27   2.0000      -0.903506       -24.5856
  28   2.0000      -0.865884       -23.5619
  29   2.0000      -0.850320       -23.1384
  30   2.0000      -0.846247       -23.0275
  31   2.0000      -0.816062       -22.2062
  32   2.0000      -0.779711       -21.2170
  33   2.0000      -0.766387       -20.8544
  34   2.0000      -0.715291       -19.4641
  35   2.0000      -0.707170       -19.2431
  36   2.0000      -0.692424       -18.8418
  37   2.0000      -0.665722       -18.1152
  38   2.0000      -0.642386       -17.4802
  39   2.0000      -0.623241       -16.9593
  40   2.0000      -0.595740       -16.2109
  41   2.0000      -0.567923       -15.4540
  42   2.0000      -0.563328       -15.3289
  43   2.0000      -0.550979       -14.9929
  44   2.0000      -0.535790       -14.5796
  45   2.0000      -0.519683       -14.1413
  46   2.0000      -0.517950       -14.0941
  47   2.0000      -0.512052       -13.9336
  48   2.0000      -0.501072       -13.6349
  49   2.0000      -0.495374       -13.4798
  50   2.0000      -0.489069       -13.3082
  51   2.0000      -0.483750       -13.1635
  52   2.0000      -0.468409       -12.7460
  53   2.0000      -0.466715       -12.7000
  54   2.0000      -0.458226       -12.4690
  55   2.0000      -0.454599       -12.3703
  56   2.0000      -0.444685       -12.1005
  57   2.0000      -0.443054       -12.0561
  58   2.0000      -0.435652       -11.8547
  59   2.0000      -0.425649       -11.5825
  60   2.0000      -0.420836       -11.4515
  61   2.0000      -0.418995       -11.4014
  62   2.0000      -0.418376       -11.3846
  63   2.0000      -0.347680        -9.4609
  64   2.0000      -0.333533        -9.0759
  65   2.0000      -0.325441        -8.8557
  66   2.0000      -0.285185        -7.7603
  67   0.0000       0.027135         0.7384
  68   0.0000       0.066657         1.8138
  69   0.0000       0.108392         2.9495
  70   0.0000       0.121098         3.2952
  71   0.0000       0.128195         3.4884

MULLIKEN ATOMIC CHARGES
-----------------------
   0 S :    0.113210
   1 C :   -0.107740
   2 C :   -0.098865
   3 C :    0.011992
   4 C :   -0.141746
   5 H :    0.015831
   6 C :    0.085177
   7 H :    0.004102
   8 H :    0.035544
   9 C :   -0.103887
  10 H :    0.033741
  11 H :    0.022615
  12 C :   -0.003216
  13 H :    0.028598
  14 H :    0.020126
  15 H :    0.030141
  16 S :    0.097628
  17 C :   -0.078892
  18 C :   -0.031998
  19 C :   -0.028887
  20 C :   -0.157889
  21 H :    0.023285
  22 C :    0.052148
  23 H :    0.020734
  24 H :    0.011610
  25 C :   -0.048128
  26 H :    0.032989
  27 H :    0.046666
  28 C :   -0.065651
  29 H :    0.025079
  30 H :    0.034471
  31 H :    0.038504
  32 H :    0.037231
  33 H :    0.045475
Sum of atomic charges:   -0.0000000

LOEWDIN ATOMIC CHARGES
----------------------
   0 S :    0.392288
   1 C :   -0.200239
   2 C :   -0.059507
   3 C :   -0.065809
   4 C :   -0.176997
   5 H :    0.032948
   6 C :   -0.031983
   7 H :    0.025241
   8 H :    0.035026
   9 C :   -0.031673
  10 H :    0.021523
  11 H :    0.019526
  12 C :   -0.056450
  13 H :    0.020463
  14 H :    0.022332
  15 H :    0.024707
  16 S :    0.413564
  17 C :   -0.175290
  18 C :   -0.066988
  19 C :   -0.059392
  20 C :   -0.208529
  21 H :    0.033569
  22 C :   -0.038512
  23 H :    0.033688
  24 H :    0.028852
  25 C :   -0.023080
  26 H :    0.017957
  27 H :    0.027235
  28 C :   -0.066498
  29 H :    0.017492
  30 H :    0.027529
  31 H :    0.027533
  32 H :    0.022876
  33 H :    0.016596

  Mayer bond orders larger than 0.100000
B(  0-S ,  1-C ) :   1.1408 B(  0-S ,  4-C ) :   1.1405 B(  1-C ,  2-C ) :   1.5914
B(  1-C ,  4-C ) :   0.1048 B(  1-C , 32-H ) :   0.9690 B(  2-C ,  3-C ) :   1.2502
B(  2-C ,  6-C ) :   1.0348 B(  3-C ,  4-C ) :   1.5810 B(  3-C ,  5-H ) :   0.9943
B(  4-C , 20-C ) :   1.0486 B(  6-C ,  7-H ) :   0.9410 B(  6-C ,  8-H ) :   0.9384
B(  6-C ,  9-C ) :   1.0388 B(  9-C , 10-H ) :   0.9620 B(  9-C , 11-H ) :   0.9553
B(  9-C , 12-C ) :   1.0795 B( 12-C , 13-H ) :   0.9749 B( 12-C , 14-H ) :   0.9725
B( 12-C , 15-H ) :   0.9784 B( 16-S , 17-C ) :   1.1714 B( 16-S , 20-C ) :   1.1470
B( 17-C , 18-C ) :   1.5747 B( 17-C , 20-C ) :   0.1016 B( 17-C , 33-H ) :   0.9757
B( 18-C , 19-C ) :   1.2601 B( 18-C , 21-H ) :   0.9939 B( 19-C , 20-C ) :   1.5478
B( 19-C , 22-C ) :   1.0593 B( 22-C , 23-H ) :   0.9187 B( 22-C , 24-H ) :   0.9329
B( 22-C , 25-C ) :   1.0468 B( 25-C , 26-H ) :   0.9668 B( 25-C , 27-H ) :   0.9545
B( 25-C , 28-C ) :   1.0686 B( 28-C , 29-H ) :   0.9801 B( 28-C , 30-H ) :   0.9778
B( 28-C , 31-H ) :   0.9777

Dispersion correction           -0.015084825
FINAL SINGLE POINT ENERGY     -1339.879141678430

DIPOLE MOMENT
-------------
                                X             Y             Z
Electronic contribution:    -23.70739      18.44023      10.47562
Nuclear contribution   :     24.22323     -18.87618     -10.54828
                        -----------------------------------------
Total Dipole Moment    :      0.51583      -0.43595      -0.07266
                        -----------------------------------------
Magnitude (a.u.)       :      0.67928
Magnitude (Debye)      :      1.72658

Rotational constants in cm-1:     0.018891     0.009181     0.007160
Rotational constants in MHz :   566.326519   275.248161   214.658351

                             ****ORCA TERMINATED NORMALLY****
TOTAL RUN TIME: 0 days 0 hours 0 minutes 34 seconds 417 msec
