                         Program Version 4.2.1 -  RELEASE  -
|  1> ! wB97X-D3 SP def2-SVP
|  2> %pal
|  3> nprocs 16
|  4> end
|  5>
|  6> * xyz 0 1
|  7> S 	 -11.5873 	 74.709 	 48.6289
|  8> C 	 -13.2491 	 75.1004 	 48.2886
|  9> C 	 -14.0792 	 74.1918 	 48.9347
| 10> C 	 -13.3939 	 73.0177 	 49.4056
| 11> C 	 -12.0039 	 73.1041 	 49.2758
| 12> H 	 -13.803 	 72.1357 	 49.8279
| 13> C 	 -15.5889 	 74.3182 	 49.0086
| 14> H 	 -15.7231 	 75.3677 	 49.0992
| 15> H 	 -15.9044 	 73.7404 	 49.9349
| 16> C 	 -16.391 	 73.8302 	 47.7517
| 17> H 	 -16.1628 	 74.2844 	 46.7646
| 18> H 	 -16.2082 	 72.77 	 47.6451
| 19> C 	 -17.8943 	 73.9667 	 47.8735
| 20> H 	 -18.5171 	 73.5263 	 47.1421
| 21> H 	 -18.1647 	 73.385 	 48.7581
| 22> H 	 -18.2324 	 74.9831 	 48.1582
| 23> S 	 -9.66916 	 72.3043 	 50.497
| 24> C 	 -8.96184 	 70.7862 	 49.9936
| 25> C 	 -9.75992 	 70.0662 	 49.1566
| 26> C 	 -11.0133 	 70.7258 	 48.907
| 27> C 	 -11.0883 	 72.0046 	 49.4657
| 28> H 	 -9.44255 	 69.057 	 48.8342
| 29> C 	 -11.9957 	 70.1138 	 47.9517
| 30> H 	 -11.5393 	 69.779 	 47.0067
| 31> H 	 -12.7005 	 70.8521 	 47.8728
| 32> C 	 -12.8486 	 69.0266 	 48.6533
| 33> H 	 -13.2076 	 69.4569 	 49.6054
| 34> H 	 -12.1581 	 68.2811 	 48.8843
| 35> C 	 -13.9921 	 68.3146 	 48.0185
| 36> H 	 -13.5926 	 67.7123 	 47.1963
| 37> H 	 -14.8601 	 68.9561 	 47.7742
| 38> H 	 -14.3564 	 67.6474 	 48.8362
| 39> H 	 -13.6165 	 76.0756 	 47.9563
| 40> H 	 -8.02957 	 70.3374 	 50.1727
| 41> *
| 42>
| 43>                          ****END OF INPUT****

CARTESIAN COORDINATES (ANGSTROEM)
---------------------------------
  S    -11.587300   74.709000   48.628900
  C    -13.249100   75.100400   48.288600
  C    -14.079200   74.191800   48.934700
  C    -13.393900   73.017700   49.405600
  C    -12.003900   73.104100   49.275800
  H    -13.803000   72.135700   49.827900
  C    -15.588900   74.318200   49.008600
  H    -15.723100   75.367700   49.099200
  H    -15.904400   73.740400   49.934900
  C    -16.391000   73.830200   47.751700
  H    -16.162800   74.284400   46.764600
  H    -16.208200   72.770000   47.645100
  C    -17.894300   73.966700   47.873500
  H    -18.517100   73.526300   47.142100
  H    -18.164700   73.385000   48.758100
  H    -18.232400   74.983100   48.158200
  S     -9.669160   72.304300   50.497000
  C     -8.961840   70.786200   49.993600
  C     -9.759920   70.066200   49.156600
  C    -11.013300   70.725800   48.907000
  C    -11.088300   72.004600   49.465700
  H     -9.442550   69.057000   48.834200
  C    -11.995700   70.113800   47.951700
  H    -11.539300   69.779000   47.006700
  H    -12.700500   70.852100   47.872800
  C    -12.848600   69.026600   48.653300
  H    -13.207600   69.456900   49.605400
  H    -12.158100   68.281100   48.884300
  C    -13.992100   68.314600   48.018500
  H    -13.592600   67.712300   47.196300
  H    -14.860100   68.956100   47.774200
  H    -14.356400   67.647400   48.836200
  H    -13.616500   76.075600   47.956300
  H     -8.029570   70.337400   50.172700

 Total Charge           Charge          ....    0
 Multiplicity           Mult            ....    1
 Number of Electrons    NEL             ....  134
 Basis Dimension        Dim             ....  322

ORBITAL ENERGIES
----------------

  NO   OCC          E(Eh)            E(eV)
   0   2.0000     -88.967423     -2420.9267
   1   2.0000     -88.966667     -2420.9061
   2   2.0000     -10.332918      -281.1730
   3   2.0000     -10.329798      -281.0881
   4   2.0000     -10.317614      -280.7565
   5   2.0000     -10.312201      -280.6093
   6   2.0000     -10.305867      -280.4369
   7   2.0000     -10.304048      -280.3874
   8   2.0000     -10.299382      -280.2604
   9   2.0000     -10.296216      -280.1743
  10   2.0000     -10.292740      -280.0797
  11   2.0000     -10.290225      -280.0112
  12   2.0000     -10.281885      -279.7843
  13   2.0000     -10.281043      -279.7614
  14   2.0000     -10.277783      -279.6727
  15   2.0000     -10.274783      -279.5911
  16   2.0000      -8.081681      -219.9137
  17   2.0000      -8.080942      -219.8936
  18   2.0000      -6.040323      -164.3655
  19   2.0000      -6.039617      -164.3463
  20   2.0000      -6.036213      -164.2537
  21   2.0000      -6.035509      -164.2346
  22   2.0000      -6.032342      -164.1484
  23   2.0000      -6.031558      -164.1270
  24   2.0000      -1.004307       -27.3286
  25   2.0000      -0.982886       -26.7457
  26   2.0000      -0.914747       -24.8915
  27   2.0000      -0.909303       -24.7434
  28   2.0000      -0.874175       -23.7875
  29   2.0000      -0.855861       -23.2892
  30   2.0000      -0.849792       -23.1240
  31   2.0000      -0.820126       -22.3168
  32   2.0000      -0.783881       -21.3305
  33   2.0000      -0.769414       -20.9368
  34   2.0000      -0.708744       -19.2859
  35   2.0000      -0.701070       -19.0771
  36   2.0000      -0.689313       -18.7572
  37   2.0000      -0.659725       -17.9520
  38   2.0000      -0.643665       -17.5150
  39   2.0000      -0.618743       -16.8368
  40   2.0000      -0.590107       -16.0576
  41   2.0000      -0.580034       -15.7835
  42   2.0000      -0.570479       -15.5235
  43   2.0000      -0.561085       -15.2679
  44   2.0000      -0.531096       -14.4519
  45   2.0000      -0.523008       -14.2318
  46   2.0000      -0.519357       -14.1324
  47   2.0000      -0.511500       -13.9186
  48   2.0000      -0.507691       -13.8150
  49   2.0000      -0.506932       -13.7943
  50   2.0000      -0.498583       -13.5671
  51   2.0000      -0.481554       -13.1037
  52   2.0000      -0.476167       -12.9572
  53   2.0000      -0.467032       -12.7086
  54   2.0000      -0.459956       -12.5160
  55   2.0000      -0.449357       -12.2276
  56   2.0000      -0.442514       -12.0414
  57   2.0000      -0.433836       -11.8053
  58   2.0000      -0.429422       -11.6852
  59   2.0000      -0.422757       -11.5038
  60   2.0000      -0.420511       -11.4427
  61   2.0000      -0.415453       -11.3051
  62   2.0000      -0.406095       -11.0504
  63   2.0000      -0.345090        -9.3904
  64   2.0000      -0.331809        -9.0290
  65   2.0000      -0.329616        -8.9693
  66   2.0000      -0.293622        -7.9899
  67   0.0000       0.026476         0.7204
  68   0.0000       0.062496         1.7006
  69   0.0000       0.109080         2.9682
  70   0.0000       0.120635         3.2826
  71   0.0000       0.121542         3.3073

MULLIKEN ATOMIC CHARGES
-----------------------
   0 S :    0.119079
   1 C :   -0.113227
   2 C :   -0.102585
   3 C :    0.034313
   4 C :   -0.135693
   5 H :    0.000551
   6 C :    0.063739
   7 H :    0.016588
   8 H :    0.041399
   9 C :   -0.061052
  10 H :    0.035904
  11 H :    0.019409
  12 C :   -0.035637
  13 H :    0.032554
  14 H :    0.005313
  15 H :    0.027720
  16 S :    0.105869
  17 C :   -0.042055
  18 C :   -0.063564
  19 C :   -0.057716
  20 C :   -0.180818
  21 H :    0.030313
  22 C :    0.162305
  23 H :    0.038411
  24 H :   -0.019831
  25 C :   -0.122973
  26 H :    0.022016
  27 H :    0.003565
  28 C :   -0.020620
  29 H :    0.036439
  30 H :    0.036448
  31 H :    0.038104
  32 H :    0.056431
  33 H :    0.029298
Sum of atomic charges:    0.0000000

LOEWDIN ATOMIC CHARGES
----------------------
   0 S :    0.402861
   1 C :   -0.200731
   2 C :   -0.064298
   3 C :   -0.057074
   4 C :   -0.189483
   5 H :    0.025066
   6 C :   -0.028785
   7 H :    0.024819
   8 H :    0.041385
   9 C :   -0.041499
  10 H :    0.027757
  11 H :    0.021760
  12 C :   -0.071329
  13 H :    0.022580
  14 H :    0.022464
  15 H :    0.025350
  16 S :    0.391949
  17 C :   -0.175879
  18 C :   -0.074850
  19 C :   -0.042327
  20 C :   -0.193647
  21 H :    0.037465
  22 C :   -0.024970
  23 H :    0.034336
  24 H :    0.015280
  25 C :   -0.043657
  26 H :    0.023503
  27 H :    0.011414
  28 C :   -0.065093
  29 H :    0.026808
  30 H :    0.024887
  31 H :    0.036982
  32 H :    0.033103
  33 H :    0.023852

  Mayer bond orders larger than 0.100000
B(  0-S ,  1-C ) :   1.1410 B(  0-S ,  4-C ) :   1.1418 B(  1-C ,  2-C ) :   1.6027
B(  1-C , 32-H ) :   0.9635 B(  2-C ,  3-C ) :   1.2281 B(  2-C ,  6-C ) :   1.0314
B(  3-C ,  4-C ) :   1.5527 B(  3-C ,  5-H ) :   1.0040 B(  4-C , 20-C ) :   1.0623
B(  6-C ,  7-H ) :   0.9326 B(  6-C ,  8-H ) :   0.9421 B(  6-C ,  9-C ) :   1.0613
B(  9-C , 10-H ) :   0.9588 B(  9-C , 11-H ) :   0.9551 B(  9-C , 12-C ) :   1.0827
B( 12-C , 13-H ) :   0.9738 B( 12-C , 14-H ) :   0.9690 B( 12-C , 15-H ) :   0.9745
B( 16-S , 17-C ) :   1.1373 B( 16-S , 20-C ) :   1.1159 B( 17-C , 18-C ) :   1.6599
B( 17-C , 33-H ) :   0.9627 B( 18-C , 19-C ) :   1.2123 B( 18-C , 21-H ) :   0.9819
B( 19-C , 20-C ) :   1.6060 B( 19-C , 22-C ) :   1.0563 B( 22-C , 23-H ) :   0.9395
B( 22-C , 24-H ) :   0.9065 B( 22-C , 25-C ) :   1.0486 B( 25-C , 26-H ) :   0.9523
B( 25-C , 27-H ) :   0.9571 B( 25-C , 28-C ) :   1.0961 B( 28-C , 29-H ) :   0.9702
B( 28-C , 30-H ) :   0.9727 B( 28-C , 31-H ) :   0.9689

Dispersion correction           -0.013936557
FINAL SINGLE POINT ENERGY     -1339.856948651302

DIPOLE MOMENT
-------------
                                X             Y             Z
Electronic contribution:     28.98021      13.23276       8.76923
Nuclear contribution   :    -29.48786     -13.69824      -8.94887
                        -----------------------------------------
Total Dipole Moment    :     -0.50765      -0.46547      -0.17964
                        -----------------------------------------
Magnitude (a.u.)       :      0.71179
Magnitude (Debye)      :      1.80922

Rotational constants in cm-1:     0.017596     0.008911     0.006289
Rotational constants in MHz :   527.523834   267.156196   188.533286

                             ****ORCA TERMINATED NORMALLY****
TOTAL RUN TIME: 0 days 0 hours 0 minutes 33 seconds 907 msec
