                         Program Version 4.2.1 -  RELEASE  -
|  1> ! wB97X-D3 SP def2-SVP
|  2> %pal
|  3> nprocs 16
|  4> end
|  5>
|  6> * xyz 0 1
|  7> S 	 -18.3321 	 -9.11163 	 83.3932
|  8> C 	 -17.5214 	 -9.73908 	 81.9769
|  9> C 	 -16.1116 	 -9.60364 	 82.0545
| 10> C 	 -15.7086 	 -9.29821 	 83.3811
| 11> C 	 -16.8133 	 -8.99889 	 84.1985
| 12> H 	 -14.6941 	 -9.07894 	 83.7048
| 13> C 	 -15.2273 	 -10.12 	 80.9345
| 14> H 	 -15.7952 	 -9.982 	 79.9524
| 15> H 	 -15.1071 	 -11.1652 	 81.1293
| 16> C 	 -13.8802 	 -9.41758 	 80.9199
| 17> H 	 -14.1662 	 -8.33787 	 80.9456
| 18> H 	 -13.3724 	 -9.39661 	 81.9186
| 19> C 	 -13.0185 	 -9.80537 	 79.7581
| 20> H 	 -12.1711 	 -9.11761 	 79.5905
| 21> H 	 -12.6119 	 -10.8011 	 79.9678
| 22> H 	 -13.5321 	 -9.80889 	 78.8537
| 23> S 	 -17.9589 	 -9.08202 	 86.7816
| 24> C 	 -16.9677 	 -8.46295 	 88.0846
| 25> C 	 -15.8759 	 -7.74212 	 87.5761
| 26> C 	 -15.7182 	 -7.85812 	 86.2121
| 27> C 	 -16.7278 	 -8.59425 	 85.5696
| 28> H 	 -15.2274 	 -7.23896 	 88.2363
| 29> C 	 -14.6237 	 -7.14181 	 85.5711
| 30> H 	 -14.6687 	 -6.09668 	 85.7971
| 31> H 	 -14.7644 	 -7.0778 	 84.5269
| 32> C 	 -13.1609 	 -7.69517 	 85.6806
| 33> H 	 -13.1996 	 -8.75101 	 85.2625
| 34> H 	 -12.9788 	 -7.79355 	 86.7652
| 35> C 	 -12.0412 	 -6.83469 	 85.0923
| 36> H 	 -11.9697 	 -6.88134 	 84.055
| 37> H 	 -11.1736 	 -7.18621 	 85.6381
| 38> H 	 -12.2065 	 -5.79103 	 85.3391
| 39> H 	 -18.0715 	 -10.0647 	 81.1012
| 40> H 	 -17.1401 	 -8.6015 	 89.1358
| 41> *
| 42>
| 43>                          ****END OF INPUT****

CARTESIAN COORDINATES (ANGSTROEM)
---------------------------------
  S    -18.332100   -9.111630   83.393200
  C    -17.521400   -9.739080   81.976900
  C    -16.111600   -9.603640   82.054500
  C    -15.708600   -9.298210   83.381100
  C    -16.813300   -8.998890   84.198500
  H    -14.694100   -9.078940   83.704800
  C    -15.227300  -10.120000   80.934500
  H    -15.795200   -9.982000   79.952400
  H    -15.107100  -11.165200   81.129300
  C    -13.880200   -9.417580   80.919900
  H    -14.166200   -8.337870   80.945600
  H    -13.372400   -9.396610   81.918600
  C    -13.018500   -9.805370   79.758100
  H    -12.171100   -9.117610   79.590500
  H    -12.611900  -10.801100   79.967800
  H    -13.532100   -9.808890   78.853700
  S    -17.958900   -9.082020   86.781600
  C    -16.967700   -8.462950   88.084600
  C    -15.875900   -7.742120   87.576100
  C    -15.718200   -7.858120   86.212100
  C    -16.727800   -8.594250   85.569600
  H    -15.227400   -7.238960   88.236300
  C    -14.623700   -7.141810   85.571100
  H    -14.668700   -6.096680   85.797100
  H    -14.764400   -7.077800   84.526900
  C    -13.160900   -7.695170   85.680600
  H    -13.199600   -8.751010   85.262500
  H    -12.978800   -7.793550   86.765200
  C    -12.041200   -6.834690   85.092300
  H    -11.969700   -6.881340   84.055000
  H    -11.173600   -7.186210   85.638100
  H    -12.206500   -5.791030   85.339100
  H    -18.071500  -10.064700   81.101200
  H    -17.140100   -8.601500   89.135800

 Total Charge           Charge          ....    0
 Multiplicity           Mult            ....    1
 Number of Electrons    NEL             ....  134
 Basis Dimension        Dim             ....  322

ORBITAL ENERGIES
----------------

  NO   OCC          E(Eh)            E(eV)
   0   2.0000     -88.969179     -2420.9745
   1   2.0000     -88.968978     -2420.9690
   2   2.0000     -10.327971      -281.0384
   3   2.0000     -10.327742      -281.0322
   4   2.0000     -10.318974      -280.7936
   5   2.0000     -10.311752      -280.5970
   6   2.0000     -10.302862      -280.3551
   7   2.0000     -10.295835      -280.1639
   8   2.0000     -10.294992      -280.1410
   9   2.0000     -10.294975      -280.1405
  10   2.0000     -10.294467      -280.1267
  11   2.0000     -10.288842      -279.9736
  12   2.0000     -10.287334      -279.9326
  13   2.0000     -10.278613      -279.6953
  14   2.0000     -10.277215      -279.6572
  15   2.0000     -10.275988      -279.6239
  16   2.0000      -8.084252      -219.9837
  17   2.0000      -8.082769      -219.9433
  18   2.0000      -6.042531      -164.4256
  19   2.0000      -6.041302      -164.3922
  20   2.0000      -6.038842      -164.3252
  21   2.0000      -6.037393      -164.2858
  22   2.0000      -6.035129      -164.2242
  23   2.0000      -6.033586      -164.1822
  24   2.0000      -1.006881       -27.3986
  25   2.0000      -0.982954       -26.7475
  26   2.0000      -0.917508       -24.9667
  27   2.0000      -0.911101       -24.7923
  28   2.0000      -0.869235       -23.6531
  29   2.0000      -0.860281       -23.4094
  30   2.0000      -0.850334       -23.1388
  31   2.0000      -0.812145       -22.0996
  32   2.0000      -0.788097       -21.4452
  33   2.0000      -0.770544       -20.9676
  34   2.0000      -0.713359       -19.4115
  35   2.0000      -0.699530       -19.0352
  36   2.0000      -0.692089       -18.8327
  37   2.0000      -0.662150       -18.0180
  38   2.0000      -0.638673       -17.3792
  39   2.0000      -0.622644       -16.9430
  40   2.0000      -0.602786       -16.4026
  41   2.0000      -0.571229       -15.5439
  42   2.0000      -0.565859       -15.3978
  43   2.0000      -0.562848       -15.3159
  44   2.0000      -0.534768       -14.5518
  45   2.0000      -0.526665       -14.3313
  46   2.0000      -0.514806       -14.0086
  47   2.0000      -0.510565       -13.8932
  48   2.0000      -0.510065       -13.8796
  49   2.0000      -0.496155       -13.5011
  50   2.0000      -0.494253       -13.4493
  51   2.0000      -0.486486       -13.2380
  52   2.0000      -0.479510       -13.0481
  53   2.0000      -0.469795       -12.7838
  54   2.0000      -0.462038       -12.5727
  55   2.0000      -0.454904       -12.3786
  56   2.0000      -0.447220       -12.1695
  57   2.0000      -0.439329       -11.9548
  58   2.0000      -0.430712       -11.7203
  59   2.0000      -0.428412       -11.6577
  60   2.0000      -0.421184       -11.4610
  61   2.0000      -0.410914       -11.1815
  62   2.0000      -0.408206       -11.1079
  63   2.0000      -0.349083        -9.4990
  64   2.0000      -0.335417        -9.1272
  65   2.0000      -0.332761        -9.0549
  66   2.0000      -0.274847        -7.4790
  67   0.0000       0.017317         0.4712
  68   0.0000       0.072509         1.9731
  69   0.0000       0.101090         2.7508
  70   0.0000       0.118924         3.2361
  71   0.0000       0.126067         3.4305

MULLIKEN ATOMIC CHARGES
-----------------------
   0 S :    0.124672
   1 C :   -0.131778
   2 C :   -0.090962
   3 C :    0.023835
   4 C :   -0.147097
   5 H :   -0.008745
   6 C :    0.061494
   7 H :    0.037550
   8 H :    0.043480
   9 C :   -0.149883
  10 H :    0.022588
  11 H :    0.036615
  12 C :    0.024024
  13 H :    0.032789
  14 H :    0.032172
  15 H :    0.014873
  16 S :    0.108236
  17 C :   -0.093703
  18 C :   -0.016162
  19 C :   -0.002225
  20 C :   -0.128399
  21 H :    0.000837
  22 C :    0.051230
  23 H :    0.014894
  24 H :   -0.004094
  25 C :   -0.126563
  26 H :    0.042032
  27 H :    0.022953
  28 C :    0.011881
  29 H :    0.026167
  30 H :    0.040184
  31 H :    0.024232
  32 H :    0.047077
  33 H :    0.055794
Sum of atomic charges:    0.0000000

LOEWDIN ATOMIC CHARGES
----------------------
   0 S :    0.423290
   1 C :   -0.206780
   2 C :   -0.056820
   3 C :   -0.068245
   4 C :   -0.193398
   5 H :    0.027664
   6 C :   -0.030141
   7 H :    0.038962
   8 H :    0.030202
   9 C :   -0.059325
  10 H :    0.025801
  11 H :    0.027237
  12 C :   -0.058496
  13 H :    0.031442
  14 H :    0.030033
  15 H :    0.017411
  16 S :    0.392515
  17 C :   -0.178871
  18 C :   -0.061406
  19 C :   -0.057950
  20 C :   -0.186048
  21 H :    0.024776
  22 C :   -0.043175
  23 H :    0.030079
  24 H :    0.019965
  25 C :   -0.039803
  26 H :    0.026427
  27 H :    0.020335
  28 C :   -0.055442
  29 H :    0.016492
  30 H :    0.034430
  31 H :    0.027386
  32 H :    0.023316
  33 H :    0.028137

  Mayer bond orders larger than 0.100000
B(  0-S ,  1-C ) :   1.1436 B(  0-S ,  4-C ) :   1.1718 B(  1-C ,  2-C ) :   1.5644
B(  1-C ,  4-C ) :   0.1025 B(  1-C , 32-H ) :   0.9708 B(  2-C ,  3-C ) :   1.2678
B(  2-C ,  6-C ) :   1.0268 B(  3-C ,  4-C ) :   1.5263 B(  3-C ,  5-H ) :   0.9781
B(  4-C , 20-C ) :   1.0999 B(  6-C ,  7-H ) :   0.9404 B(  6-C ,  8-H ) :   0.9399
B(  6-C ,  9-C ) :   1.0579 B(  9-C , 10-H ) :   0.9576 B(  9-C , 11-H ) :   0.9473
B(  9-C , 12-C ) :   1.0849 B( 12-C , 13-H ) :   0.9705 B( 12-C , 14-H ) :   0.9700
B( 12-C , 15-H ) :   0.9710 B( 16-S , 17-C ) :   1.1682 B( 16-S , 20-C ) :   1.1239
B( 17-C , 18-C ) :   1.5577 B( 17-C , 20-C ) :   0.1112 B( 17-C , 33-H ) :   0.9702
B( 18-C , 19-C ) :   1.2822 B( 18-C , 21-H ) :   0.9994 B( 19-C , 20-C ) :   1.5307
B( 19-C , 22-C ) :   1.0635 B( 22-C , 23-H ) :   0.9236 B( 22-C , 24-H ) :   0.9209
B( 22-C , 25-C ) :   1.0497 B( 25-C , 26-H ) :   0.9468 B( 25-C , 27-H ) :   0.9599
B( 25-C , 28-C ) :   1.0731 B( 28-C , 29-H ) :   0.9758 B( 28-C , 30-H ) :   0.9744
B( 28-C , 31-H ) :   0.9708

Dispersion correction           -0.014322562
FINAL SINGLE POINT ENERGY     -1339.869720973380

DIPOLE MOMENT
-------------
                                X             Y             Z
Electronic contribution:    -30.72076      -4.13651      14.19090
Nuclear contribution   :     31.40568       4.32367     -14.33800
                        -----------------------------------------
Total Dipole Moment    :      0.68492       0.18716      -0.14710
                        -----------------------------------------
Magnitude (a.u.)       :      0.72511
Magnitude (Debye)      :      1.84308

Rotational constants in cm-1:     0.016985     0.009817     0.006481
Rotational constants in MHz :   509.201292   294.315409   194.284312

                             ****ORCA TERMINATED NORMALLY****
TOTAL RUN TIME: 0 days 0 hours 0 minutes 32 seconds 394 msec
