                         Program Version 4.2.1 -  RELEASE  -
|  1> ! wB97X-D3 SP def2-SVP
|  2> %pal
|  3> nprocs 16
|  4> end
|  5>
|  6> * xyz 0 1
|  7> S 	 23.4433 	 -0.924878 	 82.0959
|  8> C 	 24.5964 	 0.299603 	 81.9878
|  9> C 	 24.2211 	 1.39128 	 81.1982
| 10> C 	 22.8063 	 1.27142 	 80.9565
| 11> C 	 22.2896 	 0.12129 	 81.4723
| 12> H 	 22.2168 	 1.98695 	 80.4556
| 13> C 	 25.03 	 2.67476 	 80.9172
| 14> H 	 25.7671 	 2.79565 	 81.7851
| 15> H 	 24.4289 	 3.61492 	 80.807
| 16> C 	 25.7229 	 2.50862 	 79.5342
| 17> H 	 26.2574 	 1.59756 	 79.3787
| 18> H 	 24.9064 	 2.57069 	 78.7725
| 19> C 	 26.7219 	 3.57057 	 79.2324
| 20> H 	 27.5892 	 3.64236 	 79.8786
| 21> H 	 27.1717 	 3.32175 	 78.2454
| 22> H 	 26.2369 	 4.49073 	 78.9875
| 23> S 	 20.2077 	 -0.624647 	 83.2076
| 24> C 	 18.5475 	 -0.366413 	 82.5933
| 25> C 	 18.5408 	 -0.121673 	 81.2292
| 26> C 	 19.8813 	 -0.086165 	 80.6187
| 27> C 	 20.8698 	 -0.24957 	 81.5311
| 28> H 	 17.5957 	 0.0509546 	 80.6575
| 29> C 	 20.0764 	 0.168523 	 79.1665
| 30> H 	 19.7161 	 -0.711752 	 78.6889
| 31> H 	 21.1575 	 0.18679 	 78.9777
| 32> C 	 19.4488 	 1.47657 	 78.6435
| 33> H 	 19.8206 	 2.37774 	 79.1203
| 34> H 	 18.3796 	 1.47846 	 78.7858
| 35> C 	 19.4219 	 1.75939 	 77.0953
| 36> H 	 20.4035 	 1.99253 	 76.7713
| 37> H 	 18.7887 	 2.6349 	 76.8763
| 38> H 	 19.1205 	 1.03167 	 76.3483
| 39> H 	 25.598 	 0.201898 	 82.231
| 40> H 	 17.6435 	 -0.536074 	 83.167
| 41> *
| 42>
| 43>                          ****END OF INPUT****

CARTESIAN COORDINATES (ANGSTROEM)
---------------------------------
  S     23.443300   -0.924878   82.095900
  C     24.596400    0.299603   81.987800
  C     24.221100    1.391280   81.198200
  C     22.806300    1.271420   80.956500
  C     22.289600    0.121290   81.472300
  H     22.216800    1.986950   80.455600
  C     25.030000    2.674760   80.917200
  H     25.767100    2.795650   81.785100
  H     24.428900    3.614920   80.807000
  C     25.722900    2.508620   79.534200
  H     26.257400    1.597560   79.378700
  H     24.906400    2.570690   78.772500
  C     26.721900    3.570570   79.232400
  H     27.589200    3.642360   79.878600
  H     27.171700    3.321750   78.245400
  H     26.236900    4.490730   78.987500
  S     20.207700   -0.624647   83.207600
  C     18.547500   -0.366413   82.593300
  C     18.540800   -0.121673   81.229200
  C     19.881300   -0.086165   80.618700
  C     20.869800   -0.249570   81.531100
  H     17.595700    0.050955   80.657500
  C     20.076400    0.168523   79.166500
  H     19.716100   -0.711752   78.688900
  H     21.157500    0.186790   78.977700
  C     19.448800    1.476570   78.643500
  H     19.820600    2.377740   79.120300
  H     18.379600    1.478460   78.785800
  C     19.421900    1.759390   77.095300
  H     20.403500    1.992530   76.771300
  H     18.788700    2.634900   76.876300
  H     19.120500    1.031670   76.348300
  H     25.598000    0.201898   82.231000
  H     17.643500   -0.536074   83.167000

 Total Charge           Charge          ....    0
 Multiplicity           Mult            ....    1
 Number of Electrons    NEL             ....  134
 Basis Dimension        Dim             ....  322

ORBITAL ENERGIES
----------------

  NO   OCC          E(Eh)            E(eV)
   0   2.0000     -88.966550     -2420.9029
   1   2.0000     -88.960178     -2420.7295
   2   2.0000     -10.326226      -280.9909
   3   2.0000     -10.322287      -280.8837
   4   2.0000     -10.318552      -280.7821
   5   2.0000     -10.306248      -280.4473
   6   2.0000     -10.302645      -280.3492
   7   2.0000     -10.302276      -280.3392
   8   2.0000     -10.302186      -280.3367
   9   2.0000     -10.300719      -280.2968
  10   2.0000     -10.292860      -280.0830
  11   2.0000     -10.291029      -280.0331
  12   2.0000     -10.287718      -279.9430
  13   2.0000     -10.285625      -279.8861
  14   2.0000     -10.278561      -279.6939
  15   2.0000     -10.273598      -279.5588
  16   2.0000      -8.083879      -219.9735
  17   2.0000      -8.073348      -219.6870
  18   2.0000      -6.042024      -164.4118
  19   2.0000      -6.038154      -164.3065
  20   2.0000      -6.034750      -164.2139
  21   2.0000      -6.032188      -164.1442
  22   2.0000      -6.028257      -164.0372
  23   2.0000      -6.023668      -163.9123
  24   2.0000      -1.015648       -27.6372
  25   2.0000      -0.976785       -26.5797
  26   2.0000      -0.912903       -24.8413
  27   2.0000      -0.905672       -24.6446
  28   2.0000      -0.868166       -23.6240
  29   2.0000      -0.858295       -23.3554
  30   2.0000      -0.844625       -22.9834
  31   2.0000      -0.811780       -22.0896
  32   2.0000      -0.784237       -21.3402
  33   2.0000      -0.774037       -21.0626
  34   2.0000      -0.709742       -19.3131
  35   2.0000      -0.695299       -18.9201
  36   2.0000      -0.692859       -18.8536
  37   2.0000      -0.660595       -17.9757
  38   2.0000      -0.644917       -17.5491
  39   2.0000      -0.618772       -16.8376
  40   2.0000      -0.592365       -16.1191
  41   2.0000      -0.578738       -15.7483
  42   2.0000      -0.564478       -15.3602
  43   2.0000      -0.556738       -15.1496
  44   2.0000      -0.531679       -14.4677
  45   2.0000      -0.520600       -14.1663
  46   2.0000      -0.519441       -14.1347
  47   2.0000      -0.513611       -13.9761
  48   2.0000      -0.509517       -13.8647
  49   2.0000      -0.499567       -13.5939
  50   2.0000      -0.487355       -13.2616
  51   2.0000      -0.476950       -12.9785
  52   2.0000      -0.472277       -12.8513
  53   2.0000      -0.466115       -12.6836
  54   2.0000      -0.455760       -12.4019
  55   2.0000      -0.449683       -12.2365
  56   2.0000      -0.448065       -12.1925
  57   2.0000      -0.440024       -11.9737
  58   2.0000      -0.432133       -11.7589
  59   2.0000      -0.424881       -11.5616
  60   2.0000      -0.421704       -11.4752
  61   2.0000      -0.416252       -11.3268
  62   2.0000      -0.408954       -11.1282
  63   2.0000      -0.345489        -9.4012
  64   2.0000      -0.330686        -8.9984
  65   2.0000      -0.326166        -8.8754
  66   2.0000      -0.293140        -7.9767
  67   0.0000       0.034034         0.9261
  68   0.0000       0.070832         1.9274
  69   0.0000       0.108384         2.9493
  70   0.0000       0.121473         3.3055
  71   0.0000       0.126611         3.4453

MULLIKEN ATOMIC CHARGES
-----------------------
   0 S :    0.145200
   1 C :   -0.076417
   2 C :   -0.084416
   3 C :    0.045718
   4 C :   -0.168859
   5 H :   -0.018052
   6 C :    0.019682
   7 H :    0.045813
   8 H :    0.040455
   9 C :   -0.099381
  10 H :    0.027985
  11 H :    0.029843
  12 C :   -0.015163
  13 H :    0.036741
  14 H :    0.019137
  15 H :    0.017610
  16 S :    0.072361
  17 C :   -0.087277
  18 C :   -0.047513
  19 C :   -0.052046
  20 C :   -0.125737
  21 H :    0.038237
  22 C :    0.116397
  23 H :    0.028108
  24 H :    0.025589
  25 C :   -0.088170
  26 H :    0.035999
  27 H :    0.026193
  28 C :   -0.057224
  29 H :    0.012508
  30 H :    0.033111
  31 H :    0.029779
  32 H :    0.011160
  33 H :    0.062630
Sum of atomic charges:    0.0000000

LOEWDIN ATOMIC CHARGES
----------------------
   0 S :    0.465593
   1 C :   -0.209149
   2 C :   -0.054322
   3 C :   -0.055295
   4 C :   -0.218811
   5 H :    0.021628
   6 C :   -0.033627
   7 H :    0.037824
   8 H :    0.036401
   9 C :   -0.044555
  10 H :    0.019961
  11 H :    0.029502
  12 C :   -0.068946
  13 H :    0.024382
  14 H :    0.030912
  15 H :    0.019553
  16 S :    0.337120
  17 C :   -0.167428
  18 C :   -0.073862
  19 C :   -0.053885
  20 C :   -0.170619
  21 H :    0.037084
  22 C :   -0.029279
  23 H :    0.034644
  24 H :    0.032552
  25 C :   -0.036550
  26 H :    0.027168
  27 H :    0.022170
  28 C :   -0.070425
  29 H :    0.014160
  30 H :    0.030376
  31 H :    0.025221
  32 H :    0.009115
  33 H :    0.031387

  Mayer bond orders larger than 0.100000
B(  0-S ,  1-C ) :   1.1615 B(  0-S ,  4-C ) :   1.1813 B(  1-C ,  2-C ) :   1.6020
B(  1-C , 32-H ) :   0.9683 B(  2-C ,  3-C ) :   1.2490 B(  2-C ,  6-C ) :   1.0161
B(  3-C ,  4-C ) :   1.5667 B(  3-C ,  5-H ) :   1.0056 B(  4-C , 20-C ) :   1.0019
B(  6-C ,  7-H ) :   0.9526 B(  6-C ,  8-H ) :   0.9502 B(  6-C ,  9-C ) :   1.0422
B(  9-C , 10-H ) :   0.9645 B(  9-C , 11-H ) :   0.9535 B(  9-C , 12-C ) :   1.1016
B( 12-C , 13-H ) :   0.9731 B( 12-C , 14-H ) :   0.9674 B( 12-C , 15-H ) :   0.9679
B( 16-S , 17-C ) :   1.1252 B( 16-S , 20-C ) :   1.0859 B( 17-C , 18-C ) :   1.6650
B( 17-C , 33-H ) :   0.9653 B( 18-C , 19-C ) :   1.1702 B( 18-C , 21-H ) :   0.9796
B( 19-C , 20-C ) :   1.6790 B( 19-C , 22-C ) :   1.0487 B( 22-C , 23-H ) :   0.9235
B( 22-C , 24-H ) :   0.9323 B( 22-C , 25-C ) :   1.0546 B( 25-C , 26-H ) :   0.9566
B( 25-C , 27-H ) :   0.9603 B( 25-C , 28-C ) :   1.0715 B( 28-C , 29-H ) :   0.9761
B( 28-C , 30-H ) :   0.9771 B( 28-C , 31-H ) :   0.9769

Dispersion correction           -0.013772400
FINAL SINGLE POINT ENERGY     -1339.861297835753

DIPOLE MOMENT
-------------
                                X             Y             Z
Electronic contribution:     -6.53681     -19.77666      24.65841
Nuclear contribution   :      6.53833      20.23245     -25.32713
                        -----------------------------------------
Total Dipole Moment    :      0.00153       0.45578      -0.66872
                        -----------------------------------------
Magnitude (a.u.)       :      0.80928
Magnitude (Debye)      :      2.05701

Rotational constants in cm-1:     0.017082     0.008753     0.006223
Rotational constants in MHz :   512.093349   262.399261   186.547138

                             ****ORCA TERMINATED NORMALLY****
TOTAL RUN TIME: 0 days 0 hours 0 minutes 33 seconds 855 msec
