                         Program Version 4.2.1 -  RELEASE  -
|  1> ! wB97X-D3 SP def2-SVP
|  2> %pal
|  3> nprocs 16
|  4> end
|  5>
|  6> * xyz 0 1
|  7> S 	 48.1733 	 4.29944 	 87.5263
|  8> C 	 48.387 	 3.26376 	 86.2154
|  9> C 	 48.9963 	 2.02349 	 86.5731
| 10> C 	 49.609 	 2.16024 	 87.8402
| 11> C 	 49.3688 	 3.35813 	 88.5036
| 12> H 	 50.1896 	 1.39789 	 88.4033
| 13> C 	 48.9563 	 0.761843 	 85.8391
| 14> H 	 47.8719 	 0.78465 	 85.6748
| 15> H 	 49.2179 	 -0.137455 	 86.5027
| 16> C 	 49.5687 	 0.911993 	 84.4256
| 17> H 	 49.2222 	 1.82181 	 83.9193
| 18> H 	 50.6862 	 1.05916 	 84.393
| 19> C 	 49.1823 	 -0.217098 	 83.3826
| 20> H 	 49.8463 	 -1.09327 	 83.5081
| 21> H 	 48.0932 	 -0.54924 	 83.5042
| 22> H 	 49.2505 	 0.142784 	 82.2654
| 23> S 	 49.0797 	 4.80557 	 90.8454
| 24> C 	 50.5677 	 5.35961 	 91.6276
| 25> C 	 51.6758 	 4.74227 	 91.1085
| 26> C 	 51.3621 	 3.94177 	 89.965
| 27> C 	 50.0189 	 3.90527 	 89.6667
| 28> H 	 52.6578 	 5.00292 	 91.5804
| 29> C 	 52.493 	 3.29043 	 89.2514
| 30> H 	 52.0696 	 2.35435 	 88.7332
| 31> H 	 53.2273 	 2.93164 	 90.0007
| 32> C 	 53.264 	 4.03072 	 88.1223
| 33> H 	 52.5092 	 4.39661 	 87.4939
| 34> H 	 53.8085 	 3.32086 	 87.4951
| 35> C 	 54.3303 	 5.14243 	 88.402
| 36> H 	 55.3181 	 4.6774 	 88.417
| 37> H 	 54.321 	 5.59867 	 89.3472
| 38> H 	 54.3106 	 6.02097 	 87.6724
| 39> H 	 47.7703 	 3.39747 	 85.3144
| 40> H 	 50.5866 	 6.04386 	 92.4699
| 41> *
| 42>
| 43>                          ****END OF INPUT****

CARTESIAN COORDINATES (ANGSTROEM)
---------------------------------
  S     48.173300    4.299440   87.526300
  C     48.387000    3.263760   86.215400
  C     48.996300    2.023490   86.573100
  C     49.609000    2.160240   87.840200
  C     49.368800    3.358130   88.503600
  H     50.189600    1.397890   88.403300
  C     48.956300    0.761843   85.839100
  H     47.871900    0.784650   85.674800
  H     49.217900   -0.137455   86.502700
  C     49.568700    0.911993   84.425600
  H     49.222200    1.821810   83.919300
  H     50.686200    1.059160   84.393000
  C     49.182300   -0.217098   83.382600
  H     49.846300   -1.093270   83.508100
  H     48.093200   -0.549240   83.504200
  H     49.250500    0.142784   82.265400
  S     49.079700    4.805570   90.845400
  C     50.567700    5.359610   91.627600
  C     51.675800    4.742270   91.108500
  C     51.362100    3.941770   89.965000
  C     50.018900    3.905270   89.666700
  H     52.657800    5.002920   91.580400
  C     52.493000    3.290430   89.251400
  H     52.069600    2.354350   88.733200
  H     53.227300    2.931640   90.000700
  C     53.264000    4.030720   88.122300
  H     52.509200    4.396610   87.493900
  H     53.808500    3.320860   87.495100
  C     54.330300    5.142430   88.402000
  H     55.318100    4.677400   88.417000
  H     54.321000    5.598670   89.347200
  H     54.310600    6.020970   87.672400
  H     47.770300    3.397470   85.314400
  H     50.586600    6.043860   92.469900

 Total Charge           Charge          ....    0
 Multiplicity           Mult            ....    1
 Number of Electrons    NEL             ....  134
 Basis Dimension        Dim             ....  322

ORBITAL ENERGIES
----------------

  NO   OCC          E(Eh)            E(eV)
   0   2.0000     -88.966979     -2420.9146
   1   2.0000     -88.964370     -2420.8436
   2   2.0000     -10.329722      -281.0860
   3   2.0000     -10.325977      -280.9841
   4   2.0000     -10.317276      -280.7474
   5   2.0000     -10.314691      -280.6770
   6   2.0000     -10.304057      -280.3876
   7   2.0000     -10.301917      -280.3294
   8   2.0000     -10.301086      -280.3068
   9   2.0000     -10.299911      -280.2748
  10   2.0000     -10.296801      -280.1902
  11   2.0000     -10.296393      -280.1791
  12   2.0000     -10.295917      -280.1661
  13   2.0000     -10.295827      -280.1637
  14   2.0000     -10.281948      -279.7860
  15   2.0000     -10.277098      -279.6540
  16   2.0000      -8.081932      -219.9205
  17   2.0000      -8.078969      -219.8399
  18   2.0000      -6.040330      -164.3657
  19   2.0000      -6.037541      -164.2898
  20   2.0000      -6.036459      -164.2604
  21   2.0000      -6.033575      -164.1819
  22   2.0000      -6.032739      -164.1592
  23   2.0000      -6.029610      -164.0740
  24   2.0000      -1.006839       -27.3975
  25   2.0000      -0.985817       -26.8254
  26   2.0000      -0.913272       -24.8514
  27   2.0000      -0.900453       -24.5026
  28   2.0000      -0.869783       -23.6680
  29   2.0000      -0.850973       -23.1562
  30   2.0000      -0.844650       -22.9841
  31   2.0000      -0.814144       -22.1540
  32   2.0000      -0.781169       -21.2567
  33   2.0000      -0.764176       -20.7943
  34   2.0000      -0.709460       -19.3054
  35   2.0000      -0.701388       -19.0857
  36   2.0000      -0.688952       -18.7473
  37   2.0000      -0.662185       -18.0190
  38   2.0000      -0.640079       -17.4174
  39   2.0000      -0.617199       -16.7949
  40   2.0000      -0.587607       -15.9896
  41   2.0000      -0.569422       -15.4948
  42   2.0000      -0.553710       -15.0672
  43   2.0000      -0.546964       -14.8836
  44   2.0000      -0.533613       -14.5203
  45   2.0000      -0.522636       -14.2217
  46   2.0000      -0.514343       -13.9960
  47   2.0000      -0.512743       -13.9524
  48   2.0000      -0.501845       -13.6559
  49   2.0000      -0.497313       -13.5326
  50   2.0000      -0.481396       -13.0995
  51   2.0000      -0.479696       -13.0532
  52   2.0000      -0.474280       -12.9058
  53   2.0000      -0.469983       -12.7889
  54   2.0000      -0.458837       -12.4856
  55   2.0000      -0.441429       -12.0119
  56   2.0000      -0.437518       -11.9055
  57   2.0000      -0.434175       -11.8145
  58   2.0000      -0.428640       -11.6639
  59   2.0000      -0.425648       -11.5825
  60   2.0000      -0.420869       -11.4524
  61   2.0000      -0.416288       -11.3278
  62   2.0000      -0.410497       -11.1702
  63   2.0000      -0.353016        -9.6060
  64   2.0000      -0.333357        -9.0711
  65   2.0000      -0.324993        -8.8435
  66   2.0000      -0.278998        -7.5919
  67   0.0000       0.021190         0.5766
  68   0.0000       0.062142         1.6910
  69   0.0000       0.102928         2.8008
  70   0.0000       0.126399         3.4395
  71   0.0000       0.128393         3.4938

MULLIKEN ATOMIC CHARGES
-----------------------
   0 S :    0.127393
   1 C :   -0.134466
   2 C :   -0.096917
   3 C :   -0.011522
   4 C :   -0.154112
   5 H :    0.037684
   6 C :    0.080731
   7 H :    0.038146
   8 H :    0.055292
   9 C :   -0.101437
  10 H :    0.032690
  11 H :    0.042487
  12 C :   -0.116876
  13 H :    0.046246
  14 H :    0.042129
  15 H :    0.052179
  16 S :    0.094706
  17 C :   -0.100220
  18 C :   -0.042881
  19 C :   -0.023876
  20 C :   -0.140238
  21 H :    0.040835
  22 C :    0.024485
  23 H :    0.023123
  24 H :    0.029296
  25 C :   -0.033288
  26 H :    0.020525
  27 H :    0.027920
  28 C :   -0.058399
  29 H :    0.026025
  30 H :    0.009318
  31 H :    0.048323
  32 H :    0.058880
  33 H :    0.055820
Sum of atomic charges:    0.0000000

LOEWDIN ATOMIC CHARGES
----------------------
   0 S :    0.418343
   1 C :   -0.226617
   2 C :   -0.064220
   3 C :   -0.068288
   4 C :   -0.183588
   5 H :    0.038007
   6 C :   -0.042852
   7 H :    0.044710
   8 H :    0.045833
   9 C :   -0.046763
  10 H :    0.027349
  11 H :    0.030341
  12 C :   -0.086648
  13 H :    0.023860
  14 H :    0.029095
  15 H :    0.037238
  16 S :    0.385367
  17 C :   -0.173891
  18 C :   -0.073426
  19 C :   -0.060982
  20 C :   -0.197326
  21 H :    0.043161
  22 C :   -0.038741
  23 H :    0.039413
  24 H :    0.031958
  25 C :   -0.038224
  26 H :    0.020570
  27 H :    0.028484
  28 C :   -0.075119
  29 H :    0.025654
  30 H :    0.013162
  31 H :    0.038691
  32 H :    0.026959
  33 H :    0.028490

  Mayer bond orders larger than 0.100000
B(  0-S ,  1-C ) :   1.1818 B(  0-S ,  4-C ) :   1.1416 B(  1-C ,  2-C ) :   1.5407
B(  1-C ,  4-C ) :   0.1159 B(  1-C , 32-H ) :   0.9593 B(  2-C ,  3-C ) :   1.2785
B(  2-C ,  6-C ) :   1.0083 B(  3-C ,  4-C ) :   1.5475 B(  3-C ,  5-H ) :   0.9801
B(  4-C , 20-C ) :   1.0725 B(  6-C ,  7-H ) :   0.9243 B(  6-C ,  8-H ) :   0.9497
B(  6-C ,  9-C ) :   1.0488 B(  9-C , 10-H ) :   0.9606 B(  9-C , 11-H ) :   0.9576
B(  9-C , 12-C ) :   1.0588 B( 12-C , 13-H ) :   0.9782 B( 12-C , 14-H ) :   0.9756
B( 12-C , 15-H ) :   0.9779 B( 16-S , 17-C ) :   1.1399 B( 16-S , 20-C ) :   1.1201
B( 17-C , 18-C ) :   1.6371 B( 17-C , 33-H ) :   0.9659 B( 18-C , 19-C ) :   1.2151
B( 18-C , 21-H ) :   0.9835 B( 19-C , 20-C ) :   1.6064 B( 19-C , 22-C ) :   1.0510
B( 22-C , 23-H ) :   0.9272 B( 22-C , 24-H ) :   0.9359 B( 22-C , 25-C ) :   1.0708
B( 25-C , 26-H ) :   0.9573 B( 25-C , 27-H ) :   0.9617 B( 25-C , 28-C ) :   1.0550
B( 28-C , 29-H ) :   0.9780 B( 28-C , 30-H ) :   0.9795 B( 28-C , 31-H ) :   0.9774

Dispersion correction           -0.014012961
FINAL SINGLE POINT ENERGY     -1339.850014957681

DIPOLE MOMENT
-------------
                                X             Y             Z
Electronic contribution:    -17.59358      12.93140      19.13888
Nuclear contribution   :     17.95953     -13.26876     -19.37228
                        -----------------------------------------
Total Dipole Moment    :      0.36595      -0.33736      -0.23340
                        -----------------------------------------
Magnitude (a.u.)       :      0.54973
Magnitude (Debye)      :      1.39731

Rotational constants in cm-1:     0.020257     0.007964     0.006327
Rotational constants in MHz :   607.295271   238.765412   189.671472

                             ****ORCA TERMINATED NORMALLY****
TOTAL RUN TIME: 0 days 0 hours 0 minutes 30 seconds 365 msec
