                         Program Version 4.2.1 -  RELEASE  -
|  1> ! wB97X-D3 SP def2-SVP
|  2> %pal
|  3> nprocs 16
|  4> end
|  5>
|  6> * xyz 0 1
|  7> S 	 -28.0694 	 55.5309 	 112.183
|  8> C 	 -28.4209 	 54.1747 	 113.175
|  9> C 	 -29.2278 	 54.5135 	 114.26
| 10> C 	 -29.2943 	 55.9496 	 114.415
| 11> C 	 -28.6901 	 56.6057 	 113.416
| 12> H 	 -29.698 	 56.5406 	 115.257
| 13> C 	 -29.8304 	 53.5578 	 115.22
| 14> H 	 -30.14 	 52.7534 	 114.659
| 15> H 	 -30.7738 	 53.8448 	 115.594
| 16> C 	 -28.8997 	 53.1651 	 116.369
| 17> H 	 -29.318 	 52.3056 	 116.837
| 18> H 	 -27.9232 	 52.9176 	 116.08
| 19> C 	 -28.6551 	 54.2989 	 117.364
| 20> H 	 -29.5998 	 54.7675 	 117.595
| 21> H 	 -28.1525 	 53.9716 	 118.319
| 22> H 	 -28.0413 	 54.9932 	 116.887
| 23> S 	 -29.2606 	 58.5044 	 111.609
| 24> C 	 -29.576 	 60.1491 	 112.147
| 25> C 	 -29.0064 	 60.3801 	 113.354
| 26> C 	 -28.6409 	 59.1531 	 114.052
| 27> C 	 -28.707 	 58.0229 	 113.176
| 28> H 	 -29.0483 	 61.3413 	 113.79
| 29> C 	 -28.3858 	 59.1856 	 115.545
| 30> H 	 -27.822 	 58.3445 	 115.817
| 31> H 	 -29.4131 	 59.0914 	 115.832
| 32> C 	 -27.5699 	 60.3284 	 116.091
| 33> H 	 -27.5862 	 60.4902 	 117.152
| 34> H 	 -28.0123 	 61.2112 	 115.701
| 35> C 	 -26.0809 	 60.1859 	 115.703
| 36> H 	 -25.609 	 59.3645 	 116.283
| 37> H 	 -25.4709 	 61.1252 	 115.905
| 38> H 	 -25.9947 	 59.9989 	 114.632
| 39> H 	 -28.1963 	 53.1841 	 112.817
| 40> H 	 -29.9796 	 60.8429 	 111.445
| 41> *
| 42>
| 43>                          ****END OF INPUT****

CARTESIAN COORDINATES (ANGSTROEM)
---------------------------------
  S    -28.069400   55.530900  112.183000
  C    -28.420900   54.174700  113.175000
  C    -29.227800   54.513500  114.260000
  C    -29.294300   55.949600  114.415000
  C    -28.690100   56.605700  113.416000
  H    -29.698000   56.540600  115.257000
  C    -29.830400   53.557800  115.220000
  H    -30.140000   52.753400  114.659000
  H    -30.773800   53.844800  115.594000
  C    -28.899700   53.165100  116.369000
  H    -29.318000   52.305600  116.837000
  H    -27.923200   52.917600  116.080000
  C    -28.655100   54.298900  117.364000
  H    -29.599800   54.767500  117.595000
  H    -28.152500   53.971600  118.319000
  H    -28.041300   54.993200  116.887000
  S    -29.260600   58.504400  111.609000
  C    -29.576000   60.149100  112.147000
  C    -29.006400   60.380100  113.354000
  C    -28.640900   59.153100  114.052000
  C    -28.707000   58.022900  113.176000
  H    -29.048300   61.341300  113.790000
  C    -28.385800   59.185600  115.545000
  H    -27.822000   58.344500  115.817000
  H    -29.413100   59.091400  115.832000
  C    -27.569900   60.328400  116.091000
  H    -27.586200   60.490200  117.152000
  H    -28.012300   61.211200  115.701000
  C    -26.080900   60.185900  115.703000
  H    -25.609000   59.364500  116.283000
  H    -25.470900   61.125200  115.905000
  H    -25.994700   59.998900  114.632000
  H    -28.196300   53.184100  112.817000
  H    -29.979600   60.842900  111.445000

 Total Charge           Charge          ....    0
 Multiplicity           Mult            ....    1
 Number of Electrons    NEL             ....  134
 Basis Dimension        Dim             ....  322

ORBITAL ENERGIES
----------------

  NO   OCC          E(Eh)            E(eV)
   0   2.0000     -88.962267     -2420.7863
   1   2.0000     -88.959483     -2420.7106
   2   2.0000     -10.324778      -280.9515
   3   2.0000     -10.320930      -280.8468
   4   2.0000     -10.314534      -280.6727
   5   2.0000     -10.310883      -280.5734
   6   2.0000     -10.310035      -280.5503
   7   2.0000     -10.301549      -280.3194
   8   2.0000     -10.292344      -280.0689
   9   2.0000     -10.290756      -280.0257
  10   2.0000     -10.286491      -279.9097
  11   2.0000     -10.283506      -279.8284
  12   2.0000     -10.283336      -279.8238
  13   2.0000     -10.278584      -279.6945
  14   2.0000     -10.275968      -279.6233
  15   2.0000     -10.271587      -279.5041
  16   2.0000      -8.078078      -219.8157
  17   2.0000      -8.075028      -219.7327
  18   2.0000      -6.036578      -164.2636
  19   2.0000      -6.033528      -164.1806
  20   2.0000      -6.032595      -164.1553
  21   2.0000      -6.029476      -164.0704
  22   2.0000      -6.028643      -164.0477
  23   2.0000      -6.025693      -163.9674
  24   2.0000      -1.011241       -27.5173
  25   2.0000      -0.985128       -26.8067
  26   2.0000      -0.920152       -25.0386
  27   2.0000      -0.916529       -24.9400
  28   2.0000      -0.874372       -23.7929
  29   2.0000      -0.851738       -23.1770
  30   2.0000      -0.842527       -22.9263
  31   2.0000      -0.820911       -22.3381
  32   2.0000      -0.785671       -21.3792
  33   2.0000      -0.770380       -20.9631
  34   2.0000      -0.711117       -19.3505
  35   2.0000      -0.705567       -19.1995
  36   2.0000      -0.695484       -18.9251
  37   2.0000      -0.661873       -18.0105
  38   2.0000      -0.644919       -17.5491
  39   2.0000      -0.618995       -16.8437
  40   2.0000      -0.605131       -16.4664
  41   2.0000      -0.578096       -15.7308
  42   2.0000      -0.569411       -15.4945
  43   2.0000      -0.551685       -15.0121
  44   2.0000      -0.547436       -14.8965
  45   2.0000      -0.536600       -14.6016
  46   2.0000      -0.521163       -14.1816
  47   2.0000      -0.509395       -13.8613
  48   2.0000      -0.502318       -13.6688
  49   2.0000      -0.497327       -13.5330
  50   2.0000      -0.491699       -13.3798
  51   2.0000      -0.477149       -12.9839
  52   2.0000      -0.467108       -12.7106
  53   2.0000      -0.464093       -12.6286
  54   2.0000      -0.463575       -12.6145
  55   2.0000      -0.450827       -12.2676
  56   2.0000      -0.447541       -12.1782
  57   2.0000      -0.440773       -11.9940
  58   2.0000      -0.436842       -11.8871
  59   2.0000      -0.424606       -11.5541
  60   2.0000      -0.421326       -11.4649
  61   2.0000      -0.418550       -11.3893
  62   2.0000      -0.410662       -11.1747
  63   2.0000      -0.358255        -9.7486
  64   2.0000      -0.331658        -9.0249
  65   2.0000      -0.320659        -8.7256
  66   2.0000      -0.283940        -7.7264
  67   0.0000       0.033174         0.9027
  68   0.0000       0.068461         1.8629
  69   0.0000       0.110354         3.0029
  70   0.0000       0.120358         3.2751
  71   0.0000       0.137606         3.7445

MULLIKEN ATOMIC CHARGES
-----------------------
   0 S :    0.100687
   1 C :   -0.106764
   2 C :   -0.114868
   3 C :   -0.001531
   4 C :   -0.129517
   5 H :    0.019890
   6 C :    0.132266
   7 H :   -0.006995
   8 H :    0.004838
   9 C :   -0.020979
  10 H :    0.017706
  11 H :    0.009843
  12 C :   -0.055138
  13 H :    0.016790
  14 H :    0.042958
  15 H :    0.029100
  16 S :    0.084293
  17 C :   -0.093196
  18 C :   -0.006145
  19 C :   -0.119363
  20 C :   -0.117408
  21 H :    0.013004
  22 C :    0.099694
  23 H :    0.011600
  24 H :    0.049162
  25 C :   -0.023292
  26 H :    0.025600
  27 H :    0.005884
  28 C :   -0.098372
  29 H :    0.041543
  30 H :    0.044313
  31 H :    0.046380
  32 H :    0.043778
  33 H :    0.054239
Sum of atomic charges:   -0.0000000

LOEWDIN ATOMIC CHARGES
----------------------
   0 S :    0.406944
   1 C :   -0.199856
   2 C :   -0.053955
   3 C :   -0.068584
   4 C :   -0.191805
   5 H :    0.038176
   6 C :   -0.028155
   7 H :    0.023614
   8 H :    0.027797
   9 C :   -0.025317
  10 H :    0.018043
  11 H :    0.017681
  12 C :   -0.059456
  13 H :    0.017034
  14 H :    0.033688
  15 H :    0.016172
  16 S :    0.400172
  17 C :   -0.169224
  18 C :   -0.069973
  19 C :   -0.048531
  20 C :   -0.208829
  21 H :    0.025204
  22 C :   -0.030291
  23 H :    0.023709
  24 H :    0.037009
  25 C :   -0.037465
  26 H :    0.025797
  27 H :    0.013879
  28 C :   -0.068047
  29 H :    0.028630
  30 H :    0.033337
  31 H :    0.026655
  32 H :    0.023201
  33 H :    0.022745

  Mayer bond orders larger than 0.100000
B(  0-S ,  1-C ) :   1.1412 B(  0-S ,  4-C ) :   1.1360 B(  1-C ,  2-C ) :   1.6169
B(  1-C , 32-H ) :   0.9724 B(  2-C ,  3-C ) :   1.2034 B(  2-C ,  6-C ) :   1.0364
B(  3-C ,  4-C ) :   1.6176 B(  3-C ,  5-H ) :   0.9889 B(  4-C , 20-C ) :   1.0328
B(  6-C ,  7-H ) :   0.9186 B(  6-C ,  8-H ) :   0.9329 B(  6-C ,  9-C ) :   1.0737
B(  9-C , 10-H ) :   0.9556 B(  9-C , 11-H ) :   0.9572 B(  9-C , 12-C ) :   1.0760
B( 12-C , 13-H ) :   0.9755 B( 12-C , 14-H ) :   0.9724 B( 12-C , 15-H ) :   0.9755
B( 16-S , 17-C ) :   1.1569 B( 16-S , 20-C ) :   1.1400 B( 17-C , 18-C ) :   1.6160
B( 17-C , 33-H ) :   0.9708 B( 18-C , 19-C ) :   1.2195 B( 18-C , 21-H ) :   0.9946
B( 19-C , 20-C ) :   1.5924 B( 19-C , 22-C ) :   1.0227 B( 22-C , 23-H ) :   0.9345
B( 22-C , 24-H ) :   0.9259 B( 22-C , 25-C ) :   1.0658 B( 25-C , 26-H ) :   0.9522
B( 25-C , 27-H ) :   0.9521 B( 25-C , 28-C ) :   1.0744 B( 28-C , 29-H ) :   0.9730
B( 28-C , 30-H ) :   0.9745 B( 28-C , 31-H ) :   0.9775

Dispersion correction           -0.014618533
FINAL SINGLE POINT ENERGY     -1339.862555340636

DIPOLE MOMENT
-------------
                                X             Y             Z
Electronic contribution:     -4.47953       0.54617     -26.76039
Nuclear contribution   :      4.25625      -0.47795      27.39523
                        -----------------------------------------
Total Dipole Moment    :     -0.22329       0.06821       0.63483
                        -----------------------------------------
Magnitude (a.u.)       :      0.67640
Magnitude (Debye)      :      1.71928

Rotational constants in cm-1:     0.018343     0.009410     0.007002
Rotational constants in MHz :   549.919076   282.098273   209.929007

                             ****ORCA TERMINATED NORMALLY****
TOTAL RUN TIME: 0 days 0 hours 0 minutes 31 seconds 179 msec
