                         Program Version 4.2.1 -  RELEASE  -
|  1> ! wB97X-D3 SP def2-SVP
|  2> %pal
|  3> nprocs 16
|  4> end
|  5>
|  6> * xyz 0 1
|  7> S 	 -41.231 	 -5.35268 	 95.4599
|  8> C 	 -40.3305 	 -5.11832 	 93.93
|  9> C 	 -40.2096 	 -3.76438 	 93.5881
| 10> C 	 -40.785 	 -2.94505 	 94.5939
| 11> C 	 -41.3515 	 -3.55742 	 95.6951
| 12> H 	 -40.8539 	 -1.83246 	 94.4925
| 13> C 	 -39.8449 	 -3.21472 	 92.1946
| 14> H 	 -39.0908 	 -4.00617 	 91.796
| 15> H 	 -39.1971 	 -2.34438 	 92.2401
| 16> C 	 -40.9248 	 -3.11314 	 91.1588
| 17> H 	 -40.6252 	 -2.59981 	 90.2702
| 18> H 	 -41.1978 	 -4.14988 	 90.7537
| 19> C 	 -42.1886 	 -2.31996 	 91.6324
| 20> H 	 -41.9161 	 -1.26765 	 91.95
| 21> H 	 -42.8461 	 -2.29904 	 90.7727
| 22> H 	 -42.736 	 -2.83391 	 92.4336
| 23> S 	 -41.8602 	 -1.22821 	 96.864
| 24> C 	 -43.072 	 -1.01438 	 97.9997
| 25> C 	 -43.6673 	 -2.16232 	 98.3928
| 26> C 	 -43.1214 	 -3.25015 	 97.5953
| 27> C 	 -42.1166 	 -2.87676 	 96.6895
| 28> H 	 -44.4318 	 -2.26011 	 99.2118
| 29> C 	 -43.7261 	 -4.6173 	 97.8324
| 30> H 	 -43.7145 	 -5.12645 	 96.8818
| 31> H 	 -44.7902 	 -4.45711 	 98.1267
| 32> C 	 -43.0062 	 -5.51869 	 98.8332
| 33> H 	 -43.2971 	 -5.1645 	 99.7886
| 34> H 	 -41.9221 	 -5.2883 	 98.8762
| 35> C 	 -43.2395 	 -6.99133 	 98.7497
| 36> H 	 -44.2764 	 -7.24839 	 98.5553
| 37> H 	 -42.9382 	 -7.35809 	 99.7083
| 38> H 	 -42.5849 	 -7.36165 	 97.9298
| 39> H 	 -40.2746 	 -5.81505 	 93.1682
| 40> H 	 -43.3765 	 -0.0244656 	 98.424
| 41> *
| 42>
| 43>                          ****END OF INPUT****

CARTESIAN COORDINATES (ANGSTROEM)
---------------------------------
  S    -41.231000   -5.352680   95.459900
  C    -40.330500   -5.118320   93.930000
  C    -40.209600   -3.764380   93.588100
  C    -40.785000   -2.945050   94.593900
  C    -41.351500   -3.557420   95.695100
  H    -40.853900   -1.832460   94.492500
  C    -39.844900   -3.214720   92.194600
  H    -39.090800   -4.006170   91.796000
  H    -39.197100   -2.344380   92.240100
  C    -40.924800   -3.113140   91.158800
  H    -40.625200   -2.599810   90.270200
  H    -41.197800   -4.149880   90.753700
  C    -42.188600   -2.319960   91.632400
  H    -41.916100   -1.267650   91.950000
  H    -42.846100   -2.299040   90.772700
  H    -42.736000   -2.833910   92.433600
  S    -41.860200   -1.228210   96.864000
  C    -43.072000   -1.014380   97.999700
  C    -43.667300   -2.162320   98.392800
  C    -43.121400   -3.250150   97.595300
  C    -42.116600   -2.876760   96.689500
  H    -44.431800   -2.260110   99.211800
  C    -43.726100   -4.617300   97.832400
  H    -43.714500   -5.126450   96.881800
  H    -44.790200   -4.457110   98.126700
  C    -43.006200   -5.518690   98.833200
  H    -43.297100   -5.164500   99.788600
  H    -41.922100   -5.288300   98.876200
  C    -43.239500   -6.991330   98.749700
  H    -44.276400   -7.248390   98.555300
  H    -42.938200   -7.358090   99.708300
  H    -42.584900   -7.361650   97.929800
  H    -40.274600   -5.815050   93.168200
  H    -43.376500   -0.024466   98.424000

 Total Charge           Charge          ....    0
 Multiplicity           Mult            ....    1
 Number of Electrons    NEL             ....  134
 Basis Dimension        Dim             ....  322

ORBITAL ENERGIES
----------------

  NO   OCC          E(Eh)            E(eV)
   0   2.0000     -88.973167     -2421.0830
   1   2.0000     -88.964371     -2420.8436
   2   2.0000     -10.337781      -281.3053
   3   2.0000     -10.324031      -280.9312
   4   2.0000     -10.315038      -280.6865
   5   2.0000     -10.313748      -280.6513
   6   2.0000     -10.307078      -280.4698
   7   2.0000     -10.304201      -280.3916
   8   2.0000     -10.301293      -280.3124
   9   2.0000     -10.296114      -280.1715
  10   2.0000     -10.295979      -280.1678
  11   2.0000     -10.292742      -280.0797
  12   2.0000     -10.285890      -279.8933
  13   2.0000     -10.281100      -279.7630
  14   2.0000     -10.274506      -279.5835
  15   2.0000     -10.272320      -279.5241
  16   2.0000      -8.085347      -220.0135
  17   2.0000      -8.082015      -219.9228
  18   2.0000      -6.044114      -164.4687
  19   2.0000      -6.040385      -164.3672
  20   2.0000      -6.040328      -164.3657
  21   2.0000      -6.036030      -164.2487
  22   2.0000      -6.035880      -164.2446
  23   2.0000      -6.032821      -164.1614
  24   2.0000      -1.020698       -27.7746
  25   2.0000      -0.982990       -26.7485
  26   2.0000      -0.912035       -24.8177
  27   2.0000      -0.909804       -24.7570
  28   2.0000      -0.878524       -23.9058
  29   2.0000      -0.855470       -23.2785
  30   2.0000      -0.840629       -22.8747
  31   2.0000      -0.815701       -22.1964
  32   2.0000      -0.784385       -21.3442
  33   2.0000      -0.771695       -20.9989
  34   2.0000      -0.709777       -19.3140
  35   2.0000      -0.698116       -18.9967
  36   2.0000      -0.689952       -18.7745
  37   2.0000      -0.668240       -18.1837
  38   2.0000      -0.626262       -17.0415
  39   2.0000      -0.616784       -16.7835
  40   2.0000      -0.597317       -16.2538
  41   2.0000      -0.573483       -15.6053
  42   2.0000      -0.562458       -15.3053
  43   2.0000      -0.550276       -14.9738
  44   2.0000      -0.545110       -14.8332
  45   2.0000      -0.528710       -14.3869
  46   2.0000      -0.519799       -14.1445
  47   2.0000      -0.508959       -13.8495
  48   2.0000      -0.504602       -13.7309
  49   2.0000      -0.499356       -13.5882
  50   2.0000      -0.490516       -13.3476
  51   2.0000      -0.481083       -13.0909
  52   2.0000      -0.472554       -12.8589
  53   2.0000      -0.465551       -12.6683
  54   2.0000      -0.461802       -12.5663
  55   2.0000      -0.451380       -12.2827
  56   2.0000      -0.443909       -12.0794
  57   2.0000      -0.436814       -11.8863
  58   2.0000      -0.428632       -11.6637
  59   2.0000      -0.418204       -11.3799
  60   2.0000      -0.415994       -11.3198
  61   2.0000      -0.409303       -11.1377
  62   2.0000      -0.403105       -10.9690
  63   2.0000      -0.367768       -10.0075
  64   2.0000      -0.334570        -9.1041
  65   2.0000      -0.329032        -8.9534
  66   2.0000      -0.282118        -7.6768
  67   0.0000       0.016377         0.4456
  68   0.0000       0.083603         2.2750
  69   0.0000       0.101054         2.7498
  70   0.0000       0.121058         3.2941
  71   0.0000       0.128051         3.4845

MULLIKEN ATOMIC CHARGES
-----------------------
   0 S :    0.092090
   1 C :   -0.073747
   2 C :   -0.087544
   3 C :   -0.053572
   4 C :   -0.084610
   5 H :    0.036332
   6 C :    0.025644
   7 H :    0.033091
   8 H :    0.034241
   9 C :   -0.053352
  10 H :    0.024949
  11 H :    0.031154
  12 C :   -0.085053
  13 H :    0.042045
  14 H :    0.032298
  15 H :    0.057453
  16 S :    0.106371
  17 C :   -0.084256
  18 C :   -0.044052
  19 C :   -0.120910
  20 C :   -0.102702
  21 H :    0.042201
  22 C :    0.054600
  23 H :    0.009627
  24 H :    0.028586
  25 C :   -0.071609
  26 H :   -0.003897
  27 H :    0.029637
  28 C :   -0.010263
  29 H :    0.029687
  30 H :    0.029375
  31 H :    0.040412
  32 H :    0.027754
  33 H :    0.068019
Sum of atomic charges:   -0.0000000

LOEWDIN ATOMIC CHARGES
----------------------
   0 S :    0.373303
   1 C :   -0.177782
   2 C :   -0.056395
   3 C :   -0.078207
   4 C :   -0.168436
   5 H :    0.028780
   6 C :   -0.042453
   7 H :    0.042364
   8 H :    0.030265
   9 C :   -0.044560
  10 H :    0.023408
  11 H :    0.029875
  12 C :   -0.070090
  13 H :    0.030033
  14 H :    0.024301
  15 H :    0.028515
  16 S :    0.474566
  17 C :   -0.211940
  18 C :   -0.081196
  19 C :   -0.053880
  20 C :   -0.222794
  21 H :    0.044123
  22 C :   -0.039585
  23 H :    0.016459
  24 H :    0.033918
  25 C :   -0.049679
  26 H :    0.012938
  27 H :    0.027941
  28 C :   -0.058204
  29 H :    0.023911
  30 H :    0.027029
  31 H :    0.030395
  32 H :    0.013384
  33 H :    0.039692

  Mayer bond orders larger than 0.100000
B(  0-S ,  1-C ) :   1.1256 B(  0-S ,  4-C ) :   1.1102 B(  1-C ,  2-C ) :   1.6201
B(  1-C , 32-H ) :   0.9632 B(  2-C ,  3-C ) :   1.2670 B(  2-C ,  6-C ) :   1.0226
B(  3-C ,  4-C ) :   1.5576 B(  3-C ,  5-H ) :   0.9693 B(  4-C , 20-C ) :   1.1161
B(  6-C ,  7-H ) :   0.9379 B(  6-C ,  8-H ) :   0.9438 B(  6-C ,  9-C ) :   1.0779
B(  9-C , 10-H ) :   0.9525 B(  9-C , 11-H ) :   0.9535 B(  9-C , 12-C ) :   1.0766
B( 12-C , 13-H ) :   0.9735 B( 12-C , 14-H ) :   0.9745 B( 12-C , 15-H ) :   0.9727
B( 16-S , 17-C ) :   1.1879 B( 16-S , 20-C ) :   1.1515 B( 17-C , 18-C ) :   1.5849
B( 17-C , 33-H ) :   0.9573 B( 18-C , 19-C ) :   1.2714 B( 18-C , 21-H ) :   0.9851
B( 19-C , 20-C ) :   1.5298 B( 19-C , 22-C ) :   1.0534 B( 22-C , 23-H ) :   0.9349
B( 22-C , 24-H ) :   0.9301 B( 22-C , 25-C ) :   1.0531 B( 25-C , 26-H ) :   0.9481
B( 25-C , 27-H ) :   0.9559 B( 25-C , 28-C ) :   1.0860 B( 28-C , 29-H ) :   0.9738
B( 28-C , 30-H ) :   0.9711 B( 28-C , 31-H ) :   0.9733

Dispersion correction           -0.014894498
FINAL SINGLE POINT ENERGY     -1339.867823718756

DIPOLE MOMENT
-------------
                                X             Y             Z
Electronic contribution:      5.51990       7.25345       7.34384
Nuclear contribution   :     -5.86225      -7.07768      -7.56415
                        -----------------------------------------
Total Dipole Moment    :     -0.34235       0.17577      -0.22031
                        -----------------------------------------
Magnitude (a.u.)       :      0.44344
Magnitude (Debye)      :      1.12713

Rotational constants in cm-1:     0.019838     0.009231     0.006979
Rotational constants in MHz :   594.727019   276.726089   209.220092

                             ****ORCA TERMINATED NORMALLY****
TOTAL RUN TIME: 0 days 0 hours 0 minutes 33 seconds 424 msec
