                         Program Version 4.2.1 -  RELEASE  -
|  1> ! wB97X-D3 SP def2-SVP
|  2> %pal
|  3> nprocs 16
|  4> end
|  5>
|  6> * xyz 0 1
|  7> S 	 -15.6904 	 38.5212 	 57.0058
|  8> C 	 -15.5087 	 38.304 	 55.3053
|  9> C 	 -16.5074 	 38.9237 	 54.5146
| 10> C 	 -17.3264 	 39.7016 	 55.3436
| 11> C 	 -17.0742 	 39.574 	 56.6986
| 12> H 	 -18.183 	 40.2352 	 55.0125
| 13> C 	 -16.6055 	 38.9773 	 52.9857
| 14> H 	 -17.5804 	 38.6734 	 52.731
| 15> H 	 -15.9943 	 38.121 	 52.6142
| 16> C 	 -16.1575 	 40.3219 	 52.4068
| 17> H 	 -16.4679 	 40.3426 	 51.3688
| 18> H 	 -16.6927 	 41.0941 	 52.8071
| 19> C 	 -14.6584 	 40.4677 	 52.5095
| 20> H 	 -14.1233 	 39.6368 	 51.9721
| 21> H 	 -14.3201 	 41.4006 	 51.9922
| 22> H 	 -14.3964 	 40.4941 	 53.5763
| 23> S 	 -16.6926 	 41.3188 	 58.747
| 24> C 	 -18.024 	 42.0009 	 59.615
| 25> C 	 -19.2205 	 41.5018 	 59.157
| 26> C 	 -19.1066 	 40.5581 	 58.109
| 27> C 	 -17.77 	 40.2964 	 57.7691
| 28> H 	 -20.1253 	 41.8511 	 59.5574
| 29> C 	 -20.2134 	 39.8146 	 57.3358
| 30> H 	 -19.7461 	 39.0693 	 56.6531
| 31> H 	 -20.8758 	 40.5762 	 56.8839
| 32> C 	 -21.193 	 39.0548 	 58.3243
| 33> H 	 -21.5884 	 39.7843 	 59.0309
| 34> H 	 -20.5986 	 38.3899 	 58.9642
| 35> C 	 -22.3304 	 38.3223 	 57.5727
| 36> H 	 -22.0381 	 37.6537 	 56.7817
| 37> H 	 -23.1605 	 38.9544 	 57.0877
| 38> H 	 -22.8662 	 37.6549 	 58.2645
| 39> H 	 -14.6259 	 37.8541 	 54.8582
| 40> H 	 -18.0488 	 42.9508 	 60.1505
| 41> *
| 42>
| 43>                          ****END OF INPUT****

CARTESIAN COORDINATES (ANGSTROEM)
---------------------------------
  S    -15.690400   38.521200   57.005800
  C    -15.508700   38.304000   55.305300
  C    -16.507400   38.923700   54.514600
  C    -17.326400   39.701600   55.343600
  C    -17.074200   39.574000   56.698600
  H    -18.183000   40.235200   55.012500
  C    -16.605500   38.977300   52.985700
  H    -17.580400   38.673400   52.731000
  H    -15.994300   38.121000   52.614200
  C    -16.157500   40.321900   52.406800
  H    -16.467900   40.342600   51.368800
  H    -16.692700   41.094100   52.807100
  C    -14.658400   40.467700   52.509500
  H    -14.123300   39.636800   51.972100
  H    -14.320100   41.400600   51.992200
  H    -14.396400   40.494100   53.576300
  S    -16.692600   41.318800   58.747000
  C    -18.024000   42.000900   59.615000
  C    -19.220500   41.501800   59.157000
  C    -19.106600   40.558100   58.109000
  C    -17.770000   40.296400   57.769100
  H    -20.125300   41.851100   59.557400
  C    -20.213400   39.814600   57.335800
  H    -19.746100   39.069300   56.653100
  H    -20.875800   40.576200   56.883900
  C    -21.193000   39.054800   58.324300
  H    -21.588400   39.784300   59.030900
  H    -20.598600   38.389900   58.964200
  C    -22.330400   38.322300   57.572700
  H    -22.038100   37.653700   56.781700
  H    -23.160500   38.954400   57.087700
  H    -22.866200   37.654900   58.264500
  H    -14.625900   37.854100   54.858200
  H    -18.048800   42.950800   60.150500

 Total Charge           Charge          ....    0
 Multiplicity           Mult            ....    1
 Number of Electrons    NEL             ....  134
 Basis Dimension        Dim             ....  322

ORBITAL ENERGIES
----------------

  NO   OCC          E(Eh)            E(eV)
   0   2.0000     -88.971244     -2421.0306
   1   2.0000     -88.962755     -2420.7996
   2   2.0000     -10.329681      -281.0849
   3   2.0000     -10.327619      -281.0288
   4   2.0000     -10.314481      -280.6713
   5   2.0000     -10.314303      -280.6665
   6   2.0000     -10.305752      -280.4338
   7   2.0000     -10.300524      -280.2915
   8   2.0000     -10.299252      -280.2569
   9   2.0000     -10.292188      -280.0647
  10   2.0000     -10.291631      -280.0495
  11   2.0000     -10.290357      -280.0148
  12   2.0000     -10.288639      -279.9681
  13   2.0000     -10.284491      -279.8552
  14   2.0000     -10.281140      -279.7640
  15   2.0000     -10.278598      -279.6949
  16   2.0000      -8.085867      -220.0276
  17   2.0000      -8.077527      -219.8007
  18   2.0000      -6.044172      -164.4703
  19   2.0000      -6.040464      -164.3694
  20   2.0000      -6.036780      -164.2691
  21   2.0000      -6.035939      -164.2463
  22   2.0000      -6.031915      -164.1367
  23   2.0000      -6.028472      -164.0431
  24   2.0000      -1.005516       -27.3615
  25   2.0000      -0.984171       -26.7806
  26   2.0000      -0.915916       -24.9233
  27   2.0000      -0.899819       -24.4853
  28   2.0000      -0.867287       -23.6001
  29   2.0000      -0.853981       -23.2380
  30   2.0000      -0.844475       -22.9793
  31   2.0000      -0.811168       -22.0730
  32   2.0000      -0.780842       -21.2478
  33   2.0000      -0.768109       -20.9013
  34   2.0000      -0.710074       -19.3221
  35   2.0000      -0.699438       -19.0327
  36   2.0000      -0.694358       -18.8944
  37   2.0000      -0.658048       -17.9064
  38   2.0000      -0.641779       -17.4637
  39   2.0000      -0.624421       -16.9914
  40   2.0000      -0.590191       -16.0599
  41   2.0000      -0.571617       -15.5545
  42   2.0000      -0.562228       -15.2990
  43   2.0000      -0.553534       -15.0624
  44   2.0000      -0.542124       -14.7520
  45   2.0000      -0.519100       -14.1254
  46   2.0000      -0.511733       -13.9250
  47   2.0000      -0.508434       -13.8352
  48   2.0000      -0.497256       -13.5310
  49   2.0000      -0.494915       -13.4673
  50   2.0000      -0.485061       -13.1992
  51   2.0000      -0.477605       -12.9963
  52   2.0000      -0.471394       -12.8273
  53   2.0000      -0.464925       -12.6513
  54   2.0000      -0.460445       -12.5293
  55   2.0000      -0.450879       -12.2691
  56   2.0000      -0.447924       -12.1886
  57   2.0000      -0.436584       -11.8800
  58   2.0000      -0.433707       -11.8018
  59   2.0000      -0.428486       -11.6597
  60   2.0000      -0.422616       -11.5000
  61   2.0000      -0.418540       -11.3890
  62   2.0000      -0.412371       -11.2212
  63   2.0000      -0.346426        -9.4267
  64   2.0000      -0.333048        -9.0627
  65   2.0000      -0.329294        -8.9605
  66   2.0000      -0.288533        -7.8514
  67   0.0000       0.030234         0.8227
  68   0.0000       0.063526         1.7286
  69   0.0000       0.114501         3.1157
  70   0.0000       0.121450         3.3048
  71   0.0000       0.135785         3.6949

MULLIKEN ATOMIC CHARGES
-----------------------
   0 S :    0.133410
   1 C :   -0.125012
   2 C :   -0.121907
   3 C :    0.045567
   4 C :   -0.170658
   5 H :    0.004165
   6 C :    0.079347
   7 H :    0.015633
   8 H :    0.017400
   9 C :   -0.004176
  10 H :    0.018591
  11 H :    0.008575
  12 C :   -0.078151
  13 H :    0.034326
  14 H :    0.039044
  15 H :    0.052711
  16 S :    0.095787
  17 C :   -0.077236
  18 C :   -0.045709
  19 C :   -0.015913
  20 C :   -0.173000
  21 H :   -0.002743
  22 C :    0.056075
  23 H :    0.051809
  24 H :    0.035277
  25 C :   -0.091604
  26 H :    0.028748
  27 H :    0.035556
  28 C :   -0.061760
  29 H :    0.027571
  30 H :    0.039662
  31 H :    0.031954
  32 H :    0.048471
  33 H :    0.068189
Sum of atomic charges:    0.0000000

LOEWDIN ATOMIC CHARGES
----------------------
   0 S :    0.418791
   1 C :   -0.210432
   2 C :   -0.063089
   3 C :   -0.057487
   4 C :   -0.199252
   5 H :    0.026771
   6 C :   -0.024771
   7 H :    0.023612
   8 H :    0.032918
   9 C :   -0.033425
  10 H :    0.024831
  11 H :    0.012581
  12 C :   -0.066898
  13 H :    0.029096
  14 H :    0.029750
  15 H :    0.029640
  16 S :    0.404120
  17 C :   -0.197383
  18 C :   -0.070140
  19 C :   -0.056091
  20 C :   -0.190720
  21 H :    0.021593
  22 C :   -0.029642
  23 H :    0.036589
  24 H :    0.033659
  25 C :   -0.040646
  26 H :    0.021664
  27 H :    0.026296
  28 C :   -0.079154
  29 H :    0.021833
  30 H :    0.033619
  31 H :    0.028590
  32 H :    0.025121
  33 H :    0.038055

  Mayer bond orders larger than 0.100000
B(  0-S ,  1-C ) :   1.1586 B(  0-S ,  4-C ) :   1.1563 B(  1-C ,  2-C ) :   1.5768
B(  1-C ,  4-C ) :   0.1006 B(  1-C , 32-H ) :   0.9624 B(  2-C ,  3-C ) :   1.2710
B(  2-C ,  6-C ) :   1.0228 B(  3-C ,  4-C ) :   1.5541 B(  3-C ,  5-H ) :   0.9941
B(  4-C , 20-C ) :   1.0263 B(  6-C ,  7-H ) :   0.9332 B(  6-C ,  8-H ) :   0.9409
B(  6-C ,  9-C ) :   1.0693 B(  9-C , 10-H ) :   0.9493 B(  9-C , 11-H ) :   0.9547
B(  9-C , 12-C ) :   1.0723 B( 12-C , 13-H ) :   0.9743 B( 12-C , 14-H ) :   0.9721
B( 12-C , 15-H ) :   0.9766 B( 16-S , 17-C ) :   1.1638 B( 16-S , 20-C ) :   1.1482
B( 17-C , 18-C ) :   1.6009 B( 17-C , 20-C ) :   0.1008 B( 17-C , 33-H ) :   0.9586
B( 18-C , 19-C ) :   1.2539 B( 18-C , 21-H ) :   0.9972 B( 19-C , 20-C ) :   1.5792
B( 19-C , 22-C ) :   1.0350 B( 22-C , 23-H ) :   0.9401 B( 22-C , 24-H ) :   0.9325
B( 22-C , 25-C ) :   1.0549 B( 25-C , 26-H ) :   0.9575 B( 25-C , 27-H ) :   0.9585
B( 25-C , 28-C ) :   1.0758 B( 28-C , 29-H ) :   0.9758 B( 28-C , 30-H ) :   0.9743
B( 28-C , 31-H ) :   0.9740

Dispersion correction           -0.014123503
FINAL SINGLE POINT ENERGY     -1339.880251431784

DIPOLE MOMENT
-------------
                                X             Y             Z
Electronic contribution:     14.11337       2.64158      17.32099
Nuclear contribution   :    -14.61212      -2.47175     -17.83507
                        -----------------------------------------
Total Dipole Moment    :     -0.49875       0.16983      -0.51407
                        -----------------------------------------
Magnitude (a.u.)       :      0.73611
Magnitude (Debye)      :      1.87104

Rotational constants in cm-1:     0.018237     0.008242     0.006843
Rotational constants in MHz :   546.716801   247.103762   205.133023

                             ****ORCA TERMINATED NORMALLY****
TOTAL RUN TIME: 0 days 0 hours 0 minutes 34 seconds 606 msec
