                         Program Version 4.2.1 -  RELEASE  -
|  1> ! wB97X-D3 SP def2-SVP
|  2> %pal
|  3> nprocs 16
|  4> end
|  5>
|  6> * xyz 0 1
|  7> S 	 -26.2449 	 44.0507 	 58.6135
|  8> C 	 -26.1887 	 45.8218 	 58.7732
|  9> C 	 -25.2187 	 46.3745 	 57.9824
| 10> C 	 -24.512 	 45.3913 	 57.2289
| 11> C 	 -25.0248 	 44.123 	 57.4735
| 12> H 	 -23.6368 	 45.5899 	 56.5887
| 13> C 	 -25.0292 	 47.8765 	 57.7995
| 14> H 	 -25.0012 	 48.0097 	 56.7314
| 15> H 	 -24.0216 	 48.1362 	 58.0425
| 16> C 	 -26.1302 	 48.7873 	 58.335
| 17> H 	 -26.1208 	 49.5907 	 57.6172
| 18> H 	 -27.0784 	 48.336 	 58.0997
| 19> C 	 -25.8438 	 49.2661 	 59.7618
| 20> H 	 -24.8261 	 49.6443 	 59.8947
| 21> H 	 -26.5019 	 50.035 	 60.0192
| 22> H 	 -25.9307 	 48.4283 	 60.3983
| 23> S 	 -23.5896 	 41.9493 	 57.989
| 24> C 	 -23.1679 	 40.8037 	 56.6941
| 25> C 	 -23.2754 	 41.4545 	 55.4255
| 26> C 	 -24.0797 	 42.6772 	 55.5206
| 27> C 	 -24.446 	 42.9583 	 56.8629
| 28> H 	 -22.9039 	 41.0834 	 54.5199
| 29> C 	 -24.3768 	 43.5289 	 54.2739
| 30> H 	 -23.4164 	 43.886 	 53.8613
| 31> H 	 -24.9591 	 44.356 	 54.5359
| 32> C 	 -25.2775 	 42.9627 	 53.1641
| 33> H 	 -25.5194 	 43.7444 	 52.4434
| 34> H 	 -26.1908 	 42.6795 	 53.699
| 35> C 	 -24.7763 	 41.7634 	 52.3934
| 36> H 	 -25.5387 	 41.5347 	 51.6131
| 37> H 	 -24.7028 	 40.8468 	 53.034
| 38> H 	 -23.7673 	 41.8827 	 51.8909
| 39> H 	 -26.9061 	 46.3901 	 59.3154
| 40> H 	 -22.618 	 39.8722 	 56.827
| 41> *
| 42>
| 43>                          ****END OF INPUT****

CARTESIAN COORDINATES (ANGSTROEM)
---------------------------------
  S    -26.244900   44.050700   58.613500
  C    -26.188700   45.821800   58.773200
  C    -25.218700   46.374500   57.982400
  C    -24.512000   45.391300   57.228900
  C    -25.024800   44.123000   57.473500
  H    -23.636800   45.589900   56.588700
  C    -25.029200   47.876500   57.799500
  H    -25.001200   48.009700   56.731400
  H    -24.021600   48.136200   58.042500
  C    -26.130200   48.787300   58.335000
  H    -26.120800   49.590700   57.617200
  H    -27.078400   48.336000   58.099700
  C    -25.843800   49.266100   59.761800
  H    -24.826100   49.644300   59.894700
  H    -26.501900   50.035000   60.019200
  H    -25.930700   48.428300   60.398300
  S    -23.589600   41.949300   57.989000
  C    -23.167900   40.803700   56.694100
  C    -23.275400   41.454500   55.425500
  C    -24.079700   42.677200   55.520600
  C    -24.446000   42.958300   56.862900
  H    -22.903900   41.083400   54.519900
  C    -24.376800   43.528900   54.273900
  H    -23.416400   43.886000   53.861300
  H    -24.959100   44.356000   54.535900
  C    -25.277500   42.962700   53.164100
  H    -25.519400   43.744400   52.443400
  H    -26.190800   42.679500   53.699000
  C    -24.776300   41.763400   52.393400
  H    -25.538700   41.534700   51.613100
  H    -24.702800   40.846800   53.034000
  H    -23.767300   41.882700   51.890900
  H    -26.906100   46.390100   59.315400
  H    -22.618000   39.872200   56.827000

 Total Charge           Charge          ....    0
 Multiplicity           Mult            ....    1
 Number of Electrons    NEL             ....  134
 Basis Dimension        Dim             ....  322

ORBITAL ENERGIES
----------------

  NO   OCC          E(Eh)            E(eV)
   0   2.0000     -88.967187     -2420.9202
   1   2.0000     -88.964117     -2420.8367
   2   2.0000     -10.323841      -280.9260
   3   2.0000     -10.322419      -280.8873
   4   2.0000     -10.320954      -280.8474
   5   2.0000     -10.309473      -280.5350
   6   2.0000     -10.307557      -280.4829
   7   2.0000     -10.298521      -280.2370
   8   2.0000     -10.298020      -280.2234
   9   2.0000     -10.292468      -280.0723
  10   2.0000     -10.287917      -279.9484
  11   2.0000     -10.287076      -279.9256
  12   2.0000     -10.285034      -279.8700
  13   2.0000     -10.284502      -279.8555
  14   2.0000     -10.282730      -279.8073
  15   2.0000     -10.273047      -279.5438
  16   2.0000      -8.082944      -219.9481
  17   2.0000      -8.078632      -219.8308
  18   2.0000      -6.041241      -164.3905
  19   2.0000      -6.037360      -164.2849
  20   2.0000      -6.037145      -164.2791
  21   2.0000      -6.033815      -164.1884
  22   2.0000      -6.033337      -164.1754
  23   2.0000      -6.029215      -164.0633
  24   2.0000      -1.011036       -27.5117
  25   2.0000      -0.977034       -26.5864
  26   2.0000      -0.918189       -24.9852
  27   2.0000      -0.906509       -24.6674
  28   2.0000      -0.867381       -23.6026
  29   2.0000      -0.852240       -23.1906
  30   2.0000      -0.841617       -22.9016
  31   2.0000      -0.807557       -21.9747
  32   2.0000      -0.790726       -21.5168
  33   2.0000      -0.774170       -21.0663
  34   2.0000      -0.716293       -19.4913
  35   2.0000      -0.700563       -19.0633
  36   2.0000      -0.681992       -18.5580
  37   2.0000      -0.664723       -18.0880
  38   2.0000      -0.639052       -17.3895
  39   2.0000      -0.609222       -16.5778
  40   2.0000      -0.589931       -16.0528
  41   2.0000      -0.575789       -15.6680
  42   2.0000      -0.555805       -15.1242
  43   2.0000      -0.553576       -15.0636
  44   2.0000      -0.542649       -14.7662
  45   2.0000      -0.530756       -14.4426
  46   2.0000      -0.519095       -14.1253
  47   2.0000      -0.515929       -14.0391
  48   2.0000      -0.507847       -13.8192
  49   2.0000      -0.497058       -13.5256
  50   2.0000      -0.486231       -13.2310
  51   2.0000      -0.479762       -13.0550
  52   2.0000      -0.472149       -12.8478
  53   2.0000      -0.469633       -12.7794
  54   2.0000      -0.461352       -12.5540
  55   2.0000      -0.449411       -12.2291
  56   2.0000      -0.443563       -12.0700
  57   2.0000      -0.437054       -11.8928
  58   2.0000      -0.430614       -11.7176
  59   2.0000      -0.425632       -11.5820
  60   2.0000      -0.421477       -11.4690
  61   2.0000      -0.415782       -11.3140
  62   2.0000      -0.412928       -11.2364
  63   2.0000      -0.335742        -9.1360
  64   2.0000      -0.331548        -9.0219
  65   2.0000      -0.321570        -8.7504
  66   2.0000      -0.292947        -7.9715
  67   0.0000       0.030031         0.8172
  68   0.0000       0.068099         1.8531
  69   0.0000       0.098175         2.6715
  70   0.0000       0.118067         3.2128
  71   0.0000       0.133588         3.6351

MULLIKEN ATOMIC CHARGES
-----------------------
   0 S :    0.130402
   1 C :   -0.137195
   2 C :   -0.078011
   3 C :    0.015367
   4 C :   -0.167006
   5 H :    0.027141
   6 C :    0.071963
   7 H :    0.015912
   8 H :    0.018202
   9 C :   -0.068139
  10 H :    0.012527
  11 H :    0.022922
  12 C :    0.021021
  13 H :    0.027211
  14 H :    0.026750
  15 H :    0.017977
  16 S :    0.106020
  17 C :   -0.094736
  18 C :   -0.017923
  19 C :   -0.055151
  20 C :   -0.148943
  21 H :    0.004384
  22 C :    0.083848
  23 H :    0.033548
  24 H :    0.008840
  25 C :   -0.068582
  26 H :    0.033199
  27 H :    0.033295
  28 C :   -0.097499
  29 H :    0.039740
  30 H :    0.043106
  31 H :    0.037103
  32 H :    0.038631
  33 H :    0.064077
Sum of atomic charges:    0.0000000

LOEWDIN ATOMIC CHARGES
----------------------
   0 S :    0.433006
   1 C :   -0.197889
   2 C :   -0.055629
   3 C :   -0.064061
   4 C :   -0.228132
   5 H :    0.037518
   6 C :   -0.028658
   7 H :    0.031889
   8 H :    0.028305
   9 C :   -0.040517
  10 H :    0.024235
  11 H :    0.024758
  12 C :   -0.050489
  13 H :    0.030385
  14 H :    0.019381
  15 H :    0.020090
  16 S :    0.405637
  17 C :   -0.185224
  18 C :   -0.054623
  19 C :   -0.052617
  20 C :   -0.203316
  21 H :    0.018906
  22 C :   -0.032684
  23 H :    0.031809
  24 H :    0.023995
  25 C :   -0.041907
  26 H :    0.026466
  27 H :    0.030657
  28 C :   -0.082750
  29 H :    0.030883
  30 H :    0.027163
  31 H :    0.026336
  32 H :    0.018150
  33 H :    0.028926

  Mayer bond orders larger than 0.100000
B(  0-S ,  1-C ) :   1.1148 B(  0-S ,  4-C ) :   1.1853 B(  1-C ,  2-C ) :   1.6360
B(  1-C , 32-H ) :   0.9608 B(  2-C ,  3-C ) :   1.2446 B(  2-C ,  6-C ) :   1.0028
B(  3-C ,  4-C ) :   1.5432 B(  3-C ,  5-H ) :   0.9959 B(  4-C , 20-C ) :   1.0183
B(  6-C ,  7-H ) :   0.9387 B(  6-C ,  8-H ) :   0.9279 B(  6-C ,  9-C ) :   1.0841
B(  9-C , 10-H ) :   0.9519 B(  9-C , 11-H ) :   0.9508 B(  9-C , 12-C ) :   1.0677
B( 12-C , 13-H ) :   0.9726 B( 12-C , 14-H ) :   0.9740 B( 12-C , 15-H ) :   0.9773
B( 16-S , 17-C ) :   1.1461 B( 16-S , 20-C ) :   1.1666 B( 17-C , 18-C ) :   1.5871
B( 17-C , 20-C ) :   0.1062 B( 17-C , 33-H ) :   0.9697 B( 18-C , 19-C ) :   1.2401
B( 18-C , 21-H ) :   0.9915 B( 19-C , 20-C ) :   1.5831 B( 19-C , 22-C ) :   1.0417
B( 22-C , 23-H ) :   0.9370 B( 22-C , 24-H ) :   0.9275 B( 22-C , 25-C ) :   1.0750
B( 25-C , 26-H ) :   0.9555 B( 25-C , 27-H ) :   0.9485 B( 25-C , 28-C ) :   1.0914
B( 28-C , 29-H ) :   0.9706 B( 28-C , 30-H ) :   0.9675 B( 28-C , 31-H ) :   0.9729

Dispersion correction           -0.014148619
FINAL SINGLE POINT ENERGY     -1339.862105679757

DIPOLE MOMENT
-------------
                                X             Y             Z
Electronic contribution:      2.33003     -16.64710      14.77935
Nuclear contribution   :     -2.18951      17.26916     -15.27110
                        -----------------------------------------
Total Dipole Moment    :      0.14052       0.62206      -0.49175
                        -----------------------------------------
Magnitude (a.u.)       :      0.80531
Magnitude (Debye)      :      2.04693

Rotational constants in cm-1:     0.023207     0.007294     0.006134
Rotational constants in MHz :   695.732938   218.675236   183.905512

                             ****ORCA TERMINATED NORMALLY****
TOTAL RUN TIME: 0 days 0 hours 0 minutes 35 seconds 30 msec
