                         Program Version 4.2.1 -  RELEASE  -
|  1> ! wB97X-D3 SP def2-SVP
|  2> %pal
|  3> nprocs 16
|  4> end
|  5>
|  6> * xyz 0 1
|  7> S 	 40.4891 	 10.8999 	 80.1401
|  8> C 	 41.3538 	 11.6901 	 81.5302
|  9> C 	 42.1828 	 12.69 	 81.0133
| 10> C 	 42.311 	 12.5659 	 79.5423
| 11> C 	 41.4136 	 11.7396 	 78.8497
| 12> H 	 43.078 	 13.0548 	 78.9877
| 13> C 	 43.1005 	 13.5628 	 81.7943
| 14> H 	 44.0099 	 13.595 	 81.1945
| 15> H 	 43.4274 	 13.0924 	 82.7291
| 16> C 	 42.6767 	 15.0036 	 82.0236
| 17> H 	 41.7373 	 15.0499 	 82.4925
| 18> H 	 43.4197 	 15.5695 	 82.5739
| 19> C 	 42.3954 	 15.6788 	 80.6949
| 20> H 	 41.6492 	 15.1119 	 80.2076
| 21> H 	 41.9364 	 16.6474 	 80.7529
| 22> H 	 43.2789 	 15.8745 	 80.0103
| 23> S 	 42.3712 	 10.4197 	 76.709
| 24> C 	 41.4299 	 10.3482 	 75.2018
| 25> C 	 40.1618 	 10.9632 	 75.4147
| 26> C 	 40.1033 	 11.6127 	 76.6247
| 27> C 	 41.2239 	 11.5832 	 77.4083
| 28> H 	 39.4154 	 10.7634 	 74.607
| 29> C 	 38.8644 	 12.3111 	 76.9853
| 30> H 	 38.7651 	 12.0392 	 78.0448
| 31> H 	 38.1028 	 11.8829 	 76.3728
| 32> C 	 39.0024 	 13.8025 	 76.9084
| 33> H 	 39.9298 	 14.1104 	 77.4456
| 34> H 	 38.1232 	 14.2762 	 77.363
| 35> C 	 39.2039 	 14.2606 	 75.4564
| 36> H 	 40.0556 	 13.8057 	 74.9431
| 37> H 	 39.3168 	 15.3226 	 75.5193
| 38> H 	 38.4077 	 13.9555 	 74.7573
| 39> H 	 41.2015 	 11.5741 	 82.6103
| 40> H 	 41.5057 	 9.58269 	 74.4226
| 41> *
| 42>
| 43>                          ****END OF INPUT****

CARTESIAN COORDINATES (ANGSTROEM)
---------------------------------
  S     40.489100   10.899900   80.140100
  C     41.353800   11.690100   81.530200
  C     42.182800   12.690000   81.013300
  C     42.311000   12.565900   79.542300
  C     41.413600   11.739600   78.849700
  H     43.078000   13.054800   78.987700
  C     43.100500   13.562800   81.794300
  H     44.009900   13.595000   81.194500
  H     43.427400   13.092400   82.729100
  C     42.676700   15.003600   82.023600
  H     41.737300   15.049900   82.492500
  H     43.419700   15.569500   82.573900
  C     42.395400   15.678800   80.694900
  H     41.649200   15.111900   80.207600
  H     41.936400   16.647400   80.752900
  H     43.278900   15.874500   80.010300
  S     42.371200   10.419700   76.709000
  C     41.429900   10.348200   75.201800
  C     40.161800   10.963200   75.414700
  C     40.103300   11.612700   76.624700
  C     41.223900   11.583200   77.408300
  H     39.415400   10.763400   74.607000
  C     38.864400   12.311100   76.985300
  H     38.765100   12.039200   78.044800
  H     38.102800   11.882900   76.372800
  C     39.002400   13.802500   76.908400
  H     39.929800   14.110400   77.445600
  H     38.123200   14.276200   77.363000
  C     39.203900   14.260600   75.456400
  H     40.055600   13.805700   74.943100
  H     39.316800   15.322600   75.519300
  H     38.407700   13.955500   74.757300
  H     41.201500   11.574100   82.610300
  H     41.505700    9.582690   74.422600

 Total Charge           Charge          ....    0
 Multiplicity           Mult            ....    1
 Number of Electrons    NEL             ....  134
 Basis Dimension        Dim             ....  322

ORBITAL ENERGIES
----------------

  NO   OCC          E(Eh)            E(eV)
   0   2.0000     -88.968944     -2420.9680
   1   2.0000     -88.966065     -2420.8897
   2   2.0000     -10.339374      -281.3487
   3   2.0000     -10.327320      -281.0207
   4   2.0000     -10.327272      -281.0194
   5   2.0000     -10.325926      -280.9827
   6   2.0000     -10.309284      -280.5299
   7   2.0000     -10.299768      -280.2709
   8   2.0000     -10.299287      -280.2578
   9   2.0000     -10.298177      -280.2276
  10   2.0000     -10.290897      -280.0295
  11   2.0000     -10.284393      -279.8526
  12   2.0000     -10.281596      -279.7765
  13   2.0000     -10.278046      -279.6799
  14   2.0000     -10.270521      -279.4751
  15   2.0000     -10.270155      -279.4651
  16   2.0000      -8.082611      -219.9390
  17   2.0000      -8.078557      -219.8287
  18   2.0000      -6.041079      -164.3861
  19   2.0000      -6.037512      -164.2891
  20   2.0000      -6.037258      -164.2821
  21   2.0000      -6.033443      -164.1783
  22   2.0000      -6.033227      -164.1725
  23   2.0000      -6.029078      -164.0595
  24   2.0000      -1.005947       -27.3732
  25   2.0000      -0.976066       -26.5601
  26   2.0000      -0.919021       -25.0078
  27   2.0000      -0.916879       -24.9495
  28   2.0000      -0.870596       -23.6901
  29   2.0000      -0.848701       -23.0943
  30   2.0000      -0.837331       -22.7849
  31   2.0000      -0.813921       -22.1479
  32   2.0000      -0.782357       -21.2890
  33   2.0000      -0.773482       -21.0475
  34   2.0000      -0.711640       -19.3647
  35   2.0000      -0.704460       -19.1693
  36   2.0000      -0.689660       -18.7666
  37   2.0000      -0.668408       -18.1883
  38   2.0000      -0.636496       -17.3199
  39   2.0000      -0.612278       -16.6609
  40   2.0000      -0.586834       -15.9686
  41   2.0000      -0.581026       -15.8105
  42   2.0000      -0.557166       -15.1613
  43   2.0000      -0.555267       -15.1096
  44   2.0000      -0.550361       -14.9761
  45   2.0000      -0.542602       -14.7649
  46   2.0000      -0.522052       -14.2057
  47   2.0000      -0.509316       -13.8592
  48   2.0000      -0.500421       -13.6171
  49   2.0000      -0.495626       -13.4867
  50   2.0000      -0.493790       -13.4367
  51   2.0000      -0.479023       -13.0349
  52   2.0000      -0.469279       -12.7697
  53   2.0000      -0.466882       -12.7045
  54   2.0000      -0.452545       -12.3144
  55   2.0000      -0.440971       -11.9994
  56   2.0000      -0.436623       -11.8811
  57   2.0000      -0.434469       -11.8225
  58   2.0000      -0.431233       -11.7345
  59   2.0000      -0.422625       -11.5002
  60   2.0000      -0.419730       -11.4214
  61   2.0000      -0.411980       -11.2105
  62   2.0000      -0.408748       -11.1226
  63   2.0000      -0.337704        -9.1894
  64   2.0000      -0.329486        -8.9658
  65   2.0000      -0.323736        -8.8093
  66   2.0000      -0.303219        -8.2510
  67   0.0000       0.023893         0.6502
  68   0.0000       0.042849         1.1660
  69   0.0000       0.101422         2.7598
  70   0.0000       0.109899         2.9905
  71   0.0000       0.117691         3.2025

MULLIKEN ATOMIC CHARGES
-----------------------
   0 S :    0.090348
   1 C :   -0.114323
   2 C :   -0.107947
   3 C :    0.028689
   4 C :   -0.143923
   5 H :    0.006060
   6 C :    0.051415
   7 H :    0.022077
   8 H :    0.026813
   9 C :   -0.000438
  10 H :    0.016906
  11 H :    0.033350
  12 C :   -0.089864
  13 H :    0.034597
  14 H :    0.020551
  15 H :    0.033876
  16 S :    0.105076
  17 C :   -0.096977
  18 C :   -0.083730
  19 C :   -0.082838
  20 C :   -0.129871
  21 H :    0.043137
  22 C :    0.125496
  23 H :    0.019255
  24 H :    0.009937
  25 C :   -0.061147
  26 H :    0.044465
  27 H :    0.036859
  28 C :   -0.065330
  29 H :    0.039657
  30 H :    0.034234
  31 H :    0.021474
  32 H :    0.063542
  33 H :    0.068572
Sum of atomic charges:   -0.0000000

LOEWDIN ATOMIC CHARGES
----------------------
   0 S :    0.359196
   1 C :   -0.175137
   2 C :   -0.065087
   3 C :   -0.054414
   4 C :   -0.191864
   5 H :    0.022780
   6 C :   -0.036898
   7 H :    0.033971
   8 H :    0.031689
   9 C :   -0.031030
  10 H :    0.020995
  11 H :    0.025425
  12 C :   -0.070322
  13 H :    0.020960
  14 H :    0.022156
  15 H :    0.027745
  16 S :    0.408363
  17 C :   -0.180516
  18 C :   -0.078215
  19 C :   -0.054889
  20 C :   -0.203251
  21 H :    0.043783
  22 C :   -0.030541
  23 H :    0.028896
  24 H :    0.024791
  25 C :   -0.034128
  26 H :    0.033253
  27 H :    0.026063
  28 C :   -0.070124
  29 H :    0.027452
  30 H :    0.023626
  31 H :    0.022865
  32 H :    0.038731
  33 H :    0.033677

  Mayer bond orders larger than 0.100000
B(  0-S ,  1-C ) :   1.1245 B(  0-S ,  4-C ) :   1.0997 B(  1-C ,  2-C ) :   1.6320
B(  1-C , 32-H ) :   0.9651 B(  2-C ,  3-C ) :   1.2063 B(  2-C ,  6-C ) :   1.0238
B(  3-C ,  4-C ) :   1.6010 B(  3-C ,  5-H ) :   0.9900 B(  4-C , 20-C ) :   1.0442
B(  6-C ,  7-H ) :   0.9418 B(  6-C ,  8-H ) :   0.9462 B(  6-C ,  9-C ) :   1.0711
B(  9-C , 10-H ) :   0.9509 B(  9-C , 11-H ) :   0.9563 B(  9-C , 12-C ) :   1.0810
B( 12-C , 13-H ) :   0.9698 B( 12-C , 14-H ) :   0.9695 B( 12-C , 15-H ) :   0.9743
B( 16-S , 17-C ) :   1.1926 B( 16-S , 20-C ) :   1.1343 B( 17-C , 18-C ) :   1.5598
B( 17-C , 20-C ) :   0.1129 B( 17-C , 33-H ) :   0.9587 B( 18-C , 19-C ) :   1.2855
B( 18-C , 21-H ) :   0.9880 B( 19-C , 20-C ) :   1.5564 B( 19-C , 22-C ) :   1.0351
B( 22-C , 23-H ) :   0.9092 B( 22-C , 24-H ) :   0.9338 B( 22-C , 25-C ) :   1.0882
B( 25-C , 26-H ) :   0.9522 B( 25-C , 27-H ) :   0.9554 B( 25-C , 28-C ) :   1.0678
B( 28-C , 29-H ) :   0.9717 B( 28-C , 30-H ) :   0.9744 B( 28-C , 31-H ) :   0.9742

Dispersion correction           -0.015328526
FINAL SINGLE POINT ENERGY     -1339.845296448889

DIPOLE MOMENT
-------------
                                X             Y             Z
Electronic contribution:      3.45638     -23.17387      -1.68182
Nuclear contribution   :     -3.58419      23.44305       1.73868
                        -----------------------------------------
Total Dipole Moment    :     -0.12780       0.26918       0.05685
                        -----------------------------------------
Magnitude (a.u.)       :      0.30335
Magnitude (Debye)      :      0.77106

Rotational constants in cm-1:     0.020214     0.008840     0.007611
Rotational constants in MHz :   606.000810   265.024914   228.158197

                             ****ORCA TERMINATED NORMALLY****
TOTAL RUN TIME: 0 days 0 hours 0 minutes 29 seconds 643 msec
