                         Program Version 4.2.1 -  RELEASE  -
|  1> ! wB97X-D3 SP def2-SVP
|  2> %pal
|  3> nprocs 16
|  4> end
|  5>
|  6> * xyz 0 1
|  7> S 	 -43.5097 	 63.6278 	 141.289
|  8> C 	 -42.9271 	 61.9758 	 141.299
|  9> C 	 -43.8806 	 61.0387 	 140.98
| 10> C 	 -45.1615 	 61.699 	 140.918
| 11> C 	 -45.0768 	 63.0639 	 140.848
| 12> H 	 -46.1179 	 61.232 	 140.767
| 13> C 	 -43.6381 	 59.5401 	 140.744
| 14> H 	 -43.4807 	 59.0064 	 141.753
| 15> H 	 -42.6969 	 59.4488 	 140.179
| 16> C 	 -44.7194 	 58.7746 	 140.038
| 17> H 	 -45.5871 	 58.9639 	 140.636
| 18> H 	 -44.8646 	 59.2328 	 139.043
| 19> C 	 -44.5119 	 57.2281 	 139.965
| 20> H 	 -45.2338 	 56.6975 	 139.282
| 21> H 	 -43.5541 	 57.0672 	 139.578
| 22> H 	 -44.7257 	 56.7242 	 140.904
| 23> S 	 -46.5168 	 65.1551 	 141.788
| 24> C 	 -47.6863 	 65.9501 	 140.797
| 25> C 	 -47.8088 	 65.382 	 139.582
| 26> C 	 -46.974 	 64.2322 	 139.502
| 27> C 	 -46.1337 	 64.0177 	 140.579
| 28> H 	 -48.4785 	 65.7656 	 138.837
| 29> C 	 -46.8577 	 63.3284 	 138.282
| 30> H 	 -47.2787 	 62.4123 	 138.675
| 31> H 	 -45.8108 	 63.4197 	 138.093
| 32> C 	 -47.653 	 63.8288 	 137.089
| 33> H 	 -47.4436 	 64.8819 	 136.772
| 34> H 	 -48.7152 	 63.6609 	 137.455
| 35> C 	 -47.2136 	 63.059 	 135.807
| 36> H 	 -47.7587 	 63.4503 	 134.946
| 37> H 	 -47.5209 	 61.9978 	 135.874
| 38> H 	 -46.16 	 62.99 	 135.611
| 39> H 	 -41.9037 	 61.7847 	 141.305
| 40> H 	 -48.28 	 66.758 	 141.104
| 41> *
| 42>
| 43>                          ****END OF INPUT****

CARTESIAN COORDINATES (ANGSTROEM)
---------------------------------
  S    -43.509700   63.627800  141.289000
  C    -42.927100   61.975800  141.299000
  C    -43.880600   61.038700  140.980000
  C    -45.161500   61.699000  140.918000
  C    -45.076800   63.063900  140.848000
  H    -46.117900   61.232000  140.767000
  C    -43.638100   59.540100  140.744000
  H    -43.480700   59.006400  141.753000
  H    -42.696900   59.448800  140.179000
  C    -44.719400   58.774600  140.038000
  H    -45.587100   58.963900  140.636000
  H    -44.864600   59.232800  139.043000
  C    -44.511900   57.228100  139.965000
  H    -45.233800   56.697500  139.282000
  H    -43.554100   57.067200  139.578000
  H    -44.725700   56.724200  140.904000
  S    -46.516800   65.155100  141.788000
  C    -47.686300   65.950100  140.797000
  C    -47.808800   65.382000  139.582000
  C    -46.974000   64.232200  139.502000
  C    -46.133700   64.017700  140.579000
  H    -48.478500   65.765600  138.837000
  C    -46.857700   63.328400  138.282000
  H    -47.278700   62.412300  138.675000
  H    -45.810800   63.419700  138.093000
  C    -47.653000   63.828800  137.089000
  H    -47.443600   64.881900  136.772000
  H    -48.715200   63.660900  137.455000
  C    -47.213600   63.059000  135.807000
  H    -47.758700   63.450300  134.946000
  H    -47.520900   61.997800  135.874000
  H    -46.160000   62.990000  135.611000
  H    -41.903700   61.784700  141.305000
  H    -48.280000   66.758000  141.104000

 Total Charge           Charge          ....    0
 Multiplicity           Mult            ....    1
 Number of Electrons    NEL             ....  134
 Basis Dimension        Dim             ....  322

ORBITAL ENERGIES
----------------

  NO   OCC          E(Eh)            E(eV)
   0   2.0000     -88.965086     -2420.8631
   1   2.0000     -88.958806     -2420.6922
   2   2.0000     -10.324627      -280.9474
   3   2.0000     -10.313831      -280.6536
   4   2.0000     -10.306940      -280.4661
   5   2.0000     -10.305900      -280.4378
   6   2.0000     -10.305057      -280.4149
   7   2.0000     -10.300967      -280.3036
   8   2.0000     -10.295360      -280.1510
   9   2.0000     -10.294238      -280.1205
  10   2.0000     -10.292255      -280.0665
  11   2.0000     -10.287912      -279.9483
  12   2.0000     -10.286361      -279.9061
  13   2.0000     -10.283111      -279.8177
  14   2.0000     -10.281903      -279.7848
  15   2.0000     -10.277761      -279.6721
  16   2.0000      -8.080502      -219.8816
  17   2.0000      -8.075060      -219.7336
  18   2.0000      -6.038886      -164.3264
  19   2.0000      -6.035018      -164.2212
  20   2.0000      -6.033411      -164.1775
  21   2.0000      -6.031252      -164.1187
  22   2.0000      -6.029247      -164.0642
  23   2.0000      -6.026011      -163.9761
  24   2.0000      -1.014965       -27.6186
  25   2.0000      -0.990659       -26.9572
  26   2.0000      -0.914752       -24.8917
  27   2.0000      -0.910734       -24.7823
  28   2.0000      -0.875480       -23.8230
  29   2.0000      -0.848906       -23.0999
  30   2.0000      -0.843804       -22.9611
  31   2.0000      -0.820094       -22.3159
  32   2.0000      -0.785105       -21.3638
  33   2.0000      -0.770421       -20.9642
  34   2.0000      -0.711531       -19.3617
  35   2.0000      -0.702066       -19.1042
  36   2.0000      -0.688864       -18.7449
  37   2.0000      -0.649404       -17.6712
  38   2.0000      -0.644955       -17.5501
  39   2.0000      -0.621922       -16.9234
  40   2.0000      -0.592349       -16.1186
  41   2.0000      -0.583864       -15.8877
  42   2.0000      -0.576362       -15.6836
  43   2.0000      -0.571374       -15.5479
  44   2.0000      -0.529924       -14.4200
  45   2.0000      -0.522883       -14.2284
  46   2.0000      -0.518843       -14.1184
  47   2.0000      -0.507852       -13.8194
  48   2.0000      -0.501952       -13.6588
  49   2.0000      -0.498912       -13.5761
  50   2.0000      -0.494030       -13.4432
  51   2.0000      -0.481694       -13.1076
  52   2.0000      -0.471592       -12.8327
  53   2.0000      -0.467896       -12.7321
  54   2.0000      -0.463178       -12.6037
  55   2.0000      -0.454897       -12.3784
  56   2.0000      -0.448880       -12.2146
  57   2.0000      -0.433439       -11.7945
  58   2.0000      -0.428558       -11.6617
  59   2.0000      -0.427284       -11.6270
  60   2.0000      -0.422009       -11.4835
  61   2.0000      -0.419109       -11.4045
  62   2.0000      -0.399083       -10.8596
  63   2.0000      -0.344854        -9.3840
  64   2.0000      -0.330866        -9.0033
  65   2.0000      -0.325573        -8.8593
  66   2.0000      -0.294783        -8.0215
  67   0.0000       0.038647         1.0516
  68   0.0000       0.069393         1.8883
  69   0.0000       0.120298         3.2735
  70   0.0000       0.126847         3.4517
  71   0.0000       0.136208         3.7064

MULLIKEN ATOMIC CHARGES
-----------------------
   0 S :    0.118878
   1 C :   -0.098508
   2 C :   -0.077792
   3 C :    0.040921
   4 C :   -0.176244
   5 H :    0.008350
   6 C :    0.038461
   7 H :    0.050360
   8 H :    0.030072
   9 C :   -0.106937
  10 H :    0.030450
  11 H :    0.038829
  12 C :   -0.025352
  13 H :    0.035821
  14 H :    0.023913
  15 H :    0.035175
  16 S :    0.108487
  17 C :   -0.049036
  18 C :   -0.038288
  19 C :   -0.102564
  20 C :   -0.160773
  21 H :    0.015113
  22 C :    0.123088
  23 H :    0.037398
  24 H :    0.038625
  25 C :   -0.144153
  26 H :    0.045024
  27 H :    0.046350
  28 C :   -0.025243
  29 H :    0.032494
  30 H :    0.018668
  31 H :    0.034587
  32 H :    0.023921
  33 H :    0.029901
Sum of atomic charges:   -0.0000000

LOEWDIN ATOMIC CHARGES
----------------------
   0 S :    0.415841
   1 C :   -0.185191
   2 C :   -0.056429
   3 C :   -0.060587
   4 C :   -0.201373
   5 H :    0.026827
   6 C :   -0.038335
   7 H :    0.042376
   8 H :    0.030117
   9 C :   -0.046512
  10 H :    0.019713
  11 H :    0.027309
  12 C :   -0.059914
  13 H :    0.034825
  14 H :    0.016405
  15 H :    0.027433
  16 S :    0.430995
  17 C :   -0.178210
  18 C :   -0.078422
  19 C :   -0.055565
  20 C :   -0.230822
  21 H :    0.033081
  22 C :   -0.031899
  23 H :    0.035436
  24 H :    0.033897
  25 C :   -0.050554
  26 H :    0.029085
  27 H :    0.033827
  28 C :   -0.067709
  29 H :    0.025039
  30 H :    0.024443
  31 H :    0.024226
  32 H :    0.011651
  33 H :    0.018998

  Mayer bond orders larger than 0.100000
B(  0-S ,  1-C ) :   1.1368 B(  0-S ,  4-C ) :   1.1579 B(  1-C ,  2-C ) :   1.6401
B(  1-C , 32-H ) :   0.9733 B(  2-C ,  3-C ) :   1.2188 B(  2-C ,  6-C ) :   1.0094
B(  3-C ,  4-C ) :   1.6032 B(  3-C ,  5-H ) :   0.9852 B(  4-C , 20-C ) :   1.0162
B(  6-C ,  7-H ) :   0.9373 B(  6-C ,  8-H ) :   0.9394 B(  6-C ,  9-C ) :   1.0775
B(  9-C , 10-H ) :   0.9476 B(  9-C , 11-H ) :   0.9573 B(  9-C , 12-C ) :   1.0817
B( 12-C , 13-H ) :   0.9740 B( 12-C , 14-H ) :   0.9773 B( 12-C , 15-H ) :   0.9740
B( 16-S , 17-C ) :   1.1762 B( 16-S , 20-C ) :   1.1513 B( 17-C , 18-C ) :   1.5778
B( 17-C , 33-H ) :   0.9659 B( 18-C , 19-C ) :   1.2599 B( 18-C , 21-H ) :   0.9990
B( 19-C , 20-C ) :   1.6082 B( 19-C , 22-C ) :   0.9955 B( 22-C , 23-H ) :   0.9257
B( 22-C , 24-H ) :   0.9320 B( 22-C , 25-C ) :   1.1048 B( 25-C , 26-H ) :   0.9550
B( 25-C , 27-H ) :   0.9480 B( 25-C , 28-C ) :   1.0726 B( 28-C , 29-H ) :   0.9754
B( 28-C , 30-H ) :   0.9710 B( 28-C , 31-H ) :   0.9765

Dispersion correction           -0.013596315
FINAL SINGLE POINT ENERGY     -1339.867273803579

DIPOLE MOMENT
-------------
                                X             Y             Z
Electronic contribution:      5.06897      23.22131      20.02996
Nuclear contribution   :     -5.26269     -23.71995     -20.53719
                        -----------------------------------------
Total Dipole Moment    :     -0.19371      -0.49864      -0.50722
                        -----------------------------------------
Magnitude (a.u.)       :      0.73719
Magnitude (Debye)      :      1.87379

Rotational constants in cm-1:     0.016450     0.008898     0.006515
Rotational constants in MHz :   493.166085   266.740394   195.326345

                             ****ORCA TERMINATED NORMALLY****
TOTAL RUN TIME: 0 days 0 hours 0 minutes 35 seconds 24 msec
