                         Program Version 4.2.1 -  RELEASE  -
|  1> ! wB97X-D3 SP def2-SVP
|  2> %pal
|  3> nprocs 16
|  4> end
|  5>
|  6> * xyz 0 1
|  7> S 	 -60.6616 	 35.3732 	 133.397
|  8> C 	 -58.9299 	 35.351 	 133.802
|  9> C 	 -58.6678 	 36.5246 	 134.519
| 10> C 	 -59.7409 	 37.4416 	 134.604
| 11> C 	 -60.8946 	 37.0335 	 134.012
| 12> H 	 -59.6831 	 38.4204 	 135.044
| 13> C 	 -57.259 	 36.853 	 135.002
| 14> H 	 -56.9604 	 37.8875 	 134.878
| 15> H 	 -56.55 	 36.4127 	 134.318
| 16> C 	 -57.0314 	 36.502 	 136.487
| 17> H 	 -57.8272 	 36.8564 	 137.194
| 18> H 	 -57.1267 	 35.4672 	 136.639
| 19> C 	 -55.806 	 37.1948 	 137.172
| 20> H 	 -54.9015 	 36.6294 	 136.822
| 21> H 	 -55.7328 	 38.2891 	 136.829
| 22> H 	 -55.9279 	 37.1265 	 138.204
| 23> S 	 -63.5305 	 37.1948 	 134.496
| 24> C 	 -64.3666 	 38.7531 	 134.246
| 25> C 	 -63.5638 	 39.6727 	 133.523
| 26> C 	 -62.2217 	 39.1922 	 133.358
| 27> C 	 -62.0642 	 37.8584 	 133.85
| 28> H 	 -64.0104 	 40.6052 	 133.244
| 29> C 	 -61.0884 	 39.9726 	 132.728
| 30> H 	 -60.2104 	 39.3568 	 132.536
| 31> H 	 -60.8508 	 40.8078 	 133.411
| 32> C 	 -61.4557 	 40.7306 	 131.424
| 33> H 	 -62.3097 	 41.3752 	 131.581
| 34> H 	 -61.7726 	 39.9139 	 130.765
| 35> C 	 -60.267 	 41.4409 	 130.687
| 36> H 	 -59.5435 	 40.6942 	 130.47
| 37> H 	 -59.8338 	 42.1865 	 131.186
| 38> H 	 -60.6803 	 41.7537 	 129.743
| 39> H 	 -58.3037 	 34.5181 	 133.73
| 40> H 	 -65.3565 	 39.0403 	 134.574
| 41> *
| 42>
| 43>                          ****END OF INPUT****

CARTESIAN COORDINATES (ANGSTROEM)
---------------------------------
  S    -60.661600   35.373200  133.397000
  C    -58.929900   35.351000  133.802000
  C    -58.667800   36.524600  134.519000
  C    -59.740900   37.441600  134.604000
  C    -60.894600   37.033500  134.012000
  H    -59.683100   38.420400  135.044000
  C    -57.259000   36.853000  135.002000
  H    -56.960400   37.887500  134.878000
  H    -56.550000   36.412700  134.318000
  C    -57.031400   36.502000  136.487000
  H    -57.827200   36.856400  137.194000
  H    -57.126700   35.467200  136.639000
  C    -55.806000   37.194800  137.172000
  H    -54.901500   36.629400  136.822000
  H    -55.732800   38.289100  136.829000
  H    -55.927900   37.126500  138.204000
  S    -63.530500   37.194800  134.496000
  C    -64.366600   38.753100  134.246000
  C    -63.563800   39.672700  133.523000
  C    -62.221700   39.192200  133.358000
  C    -62.064200   37.858400  133.850000
  H    -64.010400   40.605200  133.244000
  C    -61.088400   39.972600  132.728000
  H    -60.210400   39.356800  132.536000
  H    -60.850800   40.807800  133.411000
  C    -61.455700   40.730600  131.424000
  H    -62.309700   41.375200  131.581000
  H    -61.772600   39.913900  130.765000
  C    -60.267000   41.440900  130.687000
  H    -59.543500   40.694200  130.470000
  H    -59.833800   42.186500  131.186000
  H    -60.680300   41.753700  129.743000
  H    -58.303700   34.518100  133.730000
  H    -65.356500   39.040300  134.574000

 Total Charge           Charge          ....    0
 Multiplicity           Mult            ....    1
 Number of Electrons    NEL             ....  134
 Basis Dimension        Dim             ....  322

ORBITAL ENERGIES
----------------

  NO   OCC          E(Eh)            E(eV)
   0   2.0000     -88.970375     -2421.0070
   1   2.0000     -88.964150     -2420.8376
   2   2.0000     -10.328753      -281.0596
   3   2.0000     -10.328545      -281.0540
   4   2.0000     -10.324511      -280.9442
   5   2.0000     -10.315660      -280.7034
   6   2.0000     -10.313369      -280.6410
   7   2.0000     -10.302721      -280.3513
   8   2.0000     -10.301674      -280.3228
   9   2.0000     -10.292041      -280.0607
  10   2.0000     -10.290103      -280.0080
  11   2.0000     -10.288568      -279.9662
  12   2.0000     -10.286429      -279.9080
  13   2.0000     -10.284545      -279.8567
  14   2.0000     -10.284181      -279.8468
  15   2.0000     -10.268311      -279.4149
  16   2.0000      -8.084537      -219.9914
  17   2.0000      -8.077887      -219.8105
  18   2.0000      -6.043010      -164.4387
  19   2.0000      -6.039091      -164.3320
  20   2.0000      -6.036551      -164.2629
  21   2.0000      -6.035401      -164.2316
  22   2.0000      -6.032514      -164.1530
  23   2.0000      -6.028547      -164.0451
  24   2.0000      -1.003013       -27.2934
  25   2.0000      -0.977835       -26.6082
  26   2.0000      -0.906984       -24.6803
  27   2.0000      -0.904288       -24.6069
  28   2.0000      -0.870109       -23.6769
  29   2.0000      -0.851801       -23.1787
  30   2.0000      -0.842753       -22.9325
  31   2.0000      -0.817382       -22.2421
  32   2.0000      -0.782750       -21.2997
  33   2.0000      -0.768687       -20.9170
  34   2.0000      -0.708407       -19.2767
  35   2.0000      -0.699944       -19.0464
  36   2.0000      -0.698364       -19.0035
  37   2.0000      -0.657557       -17.8930
  38   2.0000      -0.646673       -17.5969
  39   2.0000      -0.620824       -16.8935
  40   2.0000      -0.592837       -16.1319
  41   2.0000      -0.573027       -15.5929
  42   2.0000      -0.568635       -15.4733
  43   2.0000      -0.551510       -15.0073
  44   2.0000      -0.534419       -14.5423
  45   2.0000      -0.524907       -14.2834
  46   2.0000      -0.520864       -14.1734
  47   2.0000      -0.515637       -14.0312
  48   2.0000      -0.510461       -13.8904
  49   2.0000      -0.497802       -13.5459
  50   2.0000      -0.492983       -13.4147
  51   2.0000      -0.477408       -12.9909
  52   2.0000      -0.471213       -12.8223
  53   2.0000      -0.464124       -12.6295
  54   2.0000      -0.457899       -12.4601
  55   2.0000      -0.451214       -12.2782
  56   2.0000      -0.447256       -12.1705
  57   2.0000      -0.441505       -12.0140
  58   2.0000      -0.434797       -11.8314
  59   2.0000      -0.424660       -11.5556
  60   2.0000      -0.417668       -11.3653
  61   2.0000      -0.414111       -11.2685
  62   2.0000      -0.398554       -10.8452
  63   2.0000      -0.347632        -9.4595
  64   2.0000      -0.331120        -9.0102
  65   2.0000      -0.326495        -8.8844
  66   2.0000      -0.289766        -7.8849
  67   0.0000       0.027751         0.7551
  68   0.0000       0.060183         1.6377
  69   0.0000       0.108324         2.9477
  70   0.0000       0.119677         3.2566
  71   0.0000       0.126320         3.4374

MULLIKEN ATOMIC CHARGES
-----------------------
   0 S :    0.092823
   1 C :   -0.095448
   2 C :   -0.089123
   3 C :    0.039279
   4 C :   -0.132050
   5 H :    0.010941
   6 C :    0.085253
   7 H :    0.005640
   8 H :    0.017973
   9 C :   -0.093246
  10 H :    0.026878
  11 H :    0.014039
  12 C :   -0.054061
  13 H :    0.038934
  14 H :    0.044833
  15 H :    0.032891
  16 S :    0.119308
  17 C :   -0.097004
  18 C :   -0.046734
  19 C :   -0.003727
  20 C :   -0.176758
  21 H :    0.020027
  22 C :    0.065406
  23 H :    0.037700
  24 H :    0.032727
  25 C :   -0.144561
  26 H :    0.030791
  27 H :    0.032815
  28 C :    0.033719
  29 H :    0.019231
  30 H :    0.008643
  31 H :    0.030424
  32 H :    0.037034
  33 H :    0.055405
Sum of atomic charges:    0.0000000

LOEWDIN ATOMIC CHARGES
----------------------
   0 S :    0.374381
   1 C :   -0.179774
   2 C :   -0.057894
   3 C :   -0.060738
   4 C :   -0.187149
   5 H :    0.033070
   6 C :   -0.032934
   7 H :    0.025684
   8 H :    0.028793
   9 C :   -0.046662
  10 H :    0.030042
  11 H :    0.014393
  12 C :   -0.063783
  13 H :    0.027250
  14 H :    0.034240
  15 H :    0.016416
  16 S :    0.412692
  17 C :   -0.176409
  18 C :   -0.065895
  19 C :   -0.046536
  20 C :   -0.206545
  21 H :    0.030262
  22 C :   -0.037327
  23 H :    0.031350
  24 H :    0.033197
  25 C :   -0.038008
  26 H :    0.016294
  27 H :    0.025904
  28 C :   -0.043101
  29 H :    0.024948
  30 H :    0.004455
  31 H :    0.031032
  32 H :    0.020024
  33 H :    0.028332

  Mayer bond orders larger than 0.100000
B(  0-S ,  1-C ) :   1.1260 B(  0-S ,  4-C ) :   1.1333 B(  1-C ,  2-C ) :   1.5970
B(  1-C ,  4-C ) :   0.1018 B(  1-C , 32-H ) :   0.9789 B(  2-C ,  3-C ) :   1.2417
B(  2-C ,  6-C ) :   1.0261 B(  3-C ,  4-C ) :   1.5692 B(  3-C ,  5-H ) :   1.0037
B(  4-C , 20-C ) :   1.0486 B(  6-C ,  7-H ) :   0.9459 B(  6-C ,  8-H ) :   0.9442
B(  6-C ,  9-C ) :   1.0407 B(  9-C , 10-H ) :   0.9649 B(  9-C , 11-H ) :   0.9571
B(  9-C , 12-C ) :   1.0670 B( 12-C , 13-H ) :   0.9774 B( 12-C , 14-H ) :   0.9738
B( 12-C , 15-H ) :   0.9801 B( 16-S , 17-C ) :   1.1595 B( 16-S , 20-C ) :   1.1503
B( 17-C , 18-C ) :   1.6031 B( 17-C , 20-C ) :   0.1086 B( 17-C , 33-H ) :   0.9669
B( 18-C , 19-C ) :   1.2358 B( 18-C , 21-H ) :   0.9919 B( 19-C , 20-C ) :   1.5574
B( 19-C , 22-C ) :   1.0522 B( 22-C , 23-H ) :   0.9393 B( 22-C , 24-H ) :   0.9248
B( 22-C , 25-C ) :   1.0569 B( 25-C , 26-H ) :   0.9556 B( 25-C , 27-H ) :   0.9608
B( 25-C , 28-C ) :   1.0826 B( 28-C , 29-H ) :   0.9720 B( 28-C , 30-H ) :   0.9783
B( 28-C , 31-H ) :   0.9730

Dispersion correction           -0.013516219
FINAL SINGLE POINT ENERGY     -1339.857863921357

DIPOLE MOMENT
-------------
                                X             Y             Z
Electronic contribution:    -22.30236     -16.45624       0.07886
Nuclear contribution   :     22.67301      17.07132      -0.01755
                        -----------------------------------------
Total Dipole Moment    :      0.37064       0.61508       0.06131
                        -----------------------------------------
Magnitude (a.u.)       :      0.72074
Magnitude (Debye)      :      1.83197

Rotational constants in cm-1:     0.016655     0.007923     0.006494
Rotational constants in MHz :   499.291505   237.510939   194.689119

                             ****ORCA TERMINATED NORMALLY****
TOTAL RUN TIME: 0 days 0 hours 0 minutes 32 seconds 401 msec
