                         Program Version 4.2.1 -  RELEASE  -
|  1> ! wB97X-D3 SP def2-SVP
|  2> %pal
|  3> nprocs 16
|  4> end
|  5>
|  6> * xyz 0 1
|  7> S 	 8.07238 	 -8.58308 	 63.3005
|  8> C 	 6.65276 	 -8.21828 	 64.4696
|  9> C 	 6.61303 	 -9.02792 	 65.5778
| 10> C 	 7.68464 	 -10.0223 	 65.5883
| 11> C 	 8.50098 	 -9.84794 	 64.4456
| 12> H 	 7.84042 	 -10.7163 	 66.3395
| 13> C 	 5.50545 	 -8.97965 	 66.6157
| 14> H 	 4.95225 	 -9.85933 	 66.2853
| 15> H 	 4.91955 	 -8.13792 	 66.2895
| 16> C 	 5.86203 	 -9.02341 	 68.0675
| 17> H 	 4.94164 	 -9.2074 	 68.5199
| 18> H 	 6.44819 	 -9.95337 	 68.3371
| 19> C 	 6.48193 	 -7.78222 	 68.5501
| 20> H 	 6.69995 	 -7.78043 	 69.6404
| 21> H 	 7.40061 	 -7.43456 	 68.0124
| 22> H 	 5.81049 	 -6.96226 	 68.3813
| 23> S 	 11.2875 	 -9.86106 	 64.4518
| 24> C 	 12.1895 	 -11.2741 	 64.0077
| 25> C 	 11.324 	 -12.3516 	 63.9394
| 26> C 	 9.9172 	 -12.0456 	 64.0499
| 27> C 	 9.71797 	 -10.6998 	 64.3343
| 28> H 	 11.726 	 -13.2756 	 63.7285
| 29> C 	 8.84508 	 -13.0443 	 63.9118
| 30> H 	 7.91073 	 -12.5587 	 64.3952
| 31> H 	 9.07964 	 -13.8872 	 64.6116
| 32> C 	 8.71295 	 -13.5016 	 62.4607
| 33> H 	 7.87505 	 -14.2006 	 62.3058
| 34> H 	 9.66348 	 -13.9872 	 62.1951
| 35> C 	 8.40243 	 -12.336 	 61.4476
| 36> H 	 7.51522 	 -11.7368 	 61.7586
| 37> H 	 8.34479 	 -12.7635 	 60.4043
| 38> H 	 9.21086 	 -11.603 	 61.3507
| 39> H 	 5.82471 	 -7.59258 	 64.2237
| 40> H 	 13.2903 	 -11.2652 	 63.9088
| 41> *
| 42>
| 43>                          ****END OF INPUT****

CARTESIAN COORDINATES (ANGSTROEM)
---------------------------------
  S      8.072380   -8.583080   63.300500
  C      6.652760   -8.218280   64.469600
  C      6.613030   -9.027920   65.577800
  C      7.684640  -10.022300   65.588300
  C      8.500980   -9.847940   64.445600
  H      7.840420  -10.716300   66.339500
  C      5.505450   -8.979650   66.615700
  H      4.952250   -9.859330   66.285300
  H      4.919550   -8.137920   66.289500
  C      5.862030   -9.023410   68.067500
  H      4.941640   -9.207400   68.519900
  H      6.448190   -9.953370   68.337100
  C      6.481930   -7.782220   68.550100
  H      6.699950   -7.780430   69.640400
  H      7.400610   -7.434560   68.012400
  H      5.810490   -6.962260   68.381300
  S     11.287500   -9.861060   64.451800
  C     12.189500  -11.274100   64.007700
  C     11.324000  -12.351600   63.939400
  C      9.917200  -12.045600   64.049900
  C      9.717970  -10.699800   64.334300
  H     11.726000  -13.275600   63.728500
  C      8.845080  -13.044300   63.911800
  H      7.910730  -12.558700   64.395200
  H      9.079640  -13.887200   64.611600
  C      8.712950  -13.501600   62.460700
  H      7.875050  -14.200600   62.305800
  H      9.663480  -13.987200   62.195100
  C      8.402430  -12.336000   61.447600
  H      7.515220  -11.736800   61.758600
  H      8.344790  -12.763500   60.404300
  H      9.210860  -11.603000   61.350700
  H      5.824710   -7.592580   64.223700
  H     13.290300  -11.265200   63.908800

 Total Charge           Charge          ....    0
 Multiplicity           Mult            ....    1
 Number of Electrons    NEL             ....  134
 Basis Dimension        Dim             ....  322

ORBITAL ENERGIES
----------------

  NO   OCC          E(Eh)            E(eV)
   0   2.0000     -88.974176     -2421.1104
   1   2.0000     -88.956914     -2420.6407
   2   2.0000     -10.338306      -281.3196
   3   2.0000     -10.324653      -280.9481
   4   2.0000     -10.317549      -280.7548
   5   2.0000     -10.317453      -280.7522
   6   2.0000     -10.304506      -280.3999
   7   2.0000     -10.299914      -280.2749
   8   2.0000     -10.297086      -280.1979
   9   2.0000     -10.294646      -280.1315
  10   2.0000     -10.292532      -280.0740
  11   2.0000     -10.290069      -280.0070
  12   2.0000     -10.286920      -279.9213
  13   2.0000     -10.286681      -279.9148
  14   2.0000     -10.278498      -279.6921
  15   2.0000     -10.277346      -279.6608
  16   2.0000      -8.086550      -220.0462
  17   2.0000      -8.071819      -219.6454
  18   2.0000      -6.045208      -164.4985
  19   2.0000      -6.041723      -164.4036
  20   2.0000      -6.036939      -164.2735
  21   2.0000      -6.030362      -164.0945
  22   2.0000      -6.026206      -163.9814
  23   2.0000      -6.022633      -163.8842
  24   2.0000      -0.996268       -27.1098
  25   2.0000      -0.973557       -26.4918
  26   2.0000      -0.923665       -25.1342
  27   2.0000      -0.906703       -24.6726
  28   2.0000      -0.867511       -23.6062
  29   2.0000      -0.846404       -23.0318
  30   2.0000      -0.836452       -22.7610
  31   2.0000      -0.811034       -22.0694
  32   2.0000      -0.784531       -21.3482
  33   2.0000      -0.770010       -20.9530
  34   2.0000      -0.710972       -19.3465
  35   2.0000      -0.698882       -19.0175
  36   2.0000      -0.690897       -18.8003
  37   2.0000      -0.655276       -17.8310
  38   2.0000      -0.636895       -17.3308
  39   2.0000      -0.617782       -16.8107
  40   2.0000      -0.591233       -16.0883
  41   2.0000      -0.564971       -15.3737
  42   2.0000      -0.562769       -15.3137
  43   2.0000      -0.547337       -14.8938
  44   2.0000      -0.544820       -14.8253
  45   2.0000      -0.539805       -14.6888
  46   2.0000      -0.519817       -14.1449
  47   2.0000      -0.512611       -13.9489
  48   2.0000      -0.498489       -13.5646
  49   2.0000      -0.491544       -13.3756
  50   2.0000      -0.487537       -13.2666
  51   2.0000      -0.471420       -12.8280
  52   2.0000      -0.466659       -12.6984
  53   2.0000      -0.460530       -12.5316
  54   2.0000      -0.456078       -12.4105
  55   2.0000      -0.447437       -12.1754
  56   2.0000      -0.437831       -11.9140
  57   2.0000      -0.436417       -11.8755
  58   2.0000      -0.433808       -11.8045
  59   2.0000      -0.429725       -11.6934
  60   2.0000      -0.415915       -11.3176
  61   2.0000      -0.412303       -11.2193
  62   2.0000      -0.409003       -11.1295
  63   2.0000      -0.335204        -9.1214
  64   2.0000      -0.330330        -8.9887
  65   2.0000      -0.323148        -8.7933
  66   2.0000      -0.298281        -8.1166
  67   0.0000       0.034858         0.9485
  68   0.0000       0.062485         1.7003
  69   0.0000       0.093015         2.5311
  70   0.0000       0.119760         3.2588
  71   0.0000       0.124022         3.3748

MULLIKEN ATOMIC CHARGES
-----------------------
   0 S :    0.113718
   1 C :   -0.129722
   2 C :   -0.097955
   3 C :    0.050913
   4 C :   -0.135162
   5 H :   -0.003370
   6 C :    0.060992
   7 H :    0.042322
   8 H :    0.006340
   9 C :   -0.010141
  10 H :    0.013281
  11 H :    0.032000
  12 C :   -0.048303
  13 H :    0.040376
  14 H :    0.047483
  15 H :    0.013934
  16 S :    0.088272
  17 C :   -0.108092
  18 C :   -0.007215
  19 C :   -0.032048
  20 C :   -0.195293
  21 H :   -0.015240
  22 C :    0.048131
  23 H :    0.033592
  24 H :    0.040126
  25 C :   -0.064887
  26 H :    0.038888
  27 H :    0.033235
  28 C :   -0.090838
  29 H :    0.045807
  30 H :    0.041218
  31 H :    0.037615
  32 H :    0.036507
  33 H :    0.073517
Sum of atomic charges:   -0.0000000

LOEWDIN ATOMIC CHARGES
----------------------
   0 S :    0.360005
   1 C :   -0.172521
   2 C :   -0.049683
   3 C :   -0.047529
   4 C :   -0.180570
   5 H :    0.018912
   6 C :   -0.029131
   7 H :    0.040855
   8 H :    0.027587
   9 C :   -0.044959
  10 H :    0.023106
  11 H :    0.031520
  12 C :   -0.068641
  13 H :    0.031526
  14 H :    0.035205
  15 H :    0.022724
  16 S :    0.388624
  17 C :   -0.189051
  18 C :   -0.068764
  19 C :   -0.058707
  20 C :   -0.191680
  21 H :    0.014089
  22 C :   -0.046245
  23 H :    0.038139
  24 H :    0.037565
  25 C :   -0.039784
  26 H :    0.026615
  27 H :    0.025400
  28 C :   -0.075453
  29 H :    0.029110
  30 H :    0.031920
  31 H :    0.022440
  32 H :    0.019852
  33 H :    0.037528

  Mayer bond orders larger than 0.100000
B(  0-S ,  1-C ) :   1.0767 B(  0-S ,  4-C ) :   1.1479 B(  1-C ,  2-C ) :   1.6811
B(  1-C , 32-H ) :   0.9620 B(  2-C ,  3-C ) :   1.1817 B(  2-C ,  6-C ) :   1.0062
B(  3-C ,  4-C ) :   1.5916 B(  3-C ,  5-H ) :   0.9993 B(  4-C , 20-C ) :   1.0178
B(  6-C ,  7-H ) :   0.9289 B(  6-C ,  8-H ) :   0.9358 B(  6-C ,  9-C ) :   1.0808
B(  9-C , 10-H ) :   0.9406 B(  9-C , 11-H ) :   0.9457 B(  9-C , 12-C ) :   1.0818
B( 12-C , 13-H ) :   0.9710 B( 12-C , 14-H ) :   0.9747 B( 12-C , 15-H ) :   0.9679
B( 16-S , 17-C ) :   1.1582 B( 16-S , 20-C ) :   1.1411 B( 17-C , 18-C ) :   1.5997
B( 17-C , 33-H ) :   0.9661 B( 18-C , 19-C ) :   1.2210 B( 18-C , 21-H ) :   1.0022
B( 19-C , 20-C ) :   1.6015 B( 19-C , 22-C ) :   1.0410 B( 22-C , 23-H ) :   0.9324
B( 22-C , 24-H ) :   0.9347 B( 22-C , 25-C ) :   1.0583 B( 25-C , 26-H ) :   0.9597
B( 25-C , 27-H ) :   0.9564 B( 25-C , 28-C ) :   1.0662 B( 28-C , 29-H ) :   0.9751
B( 28-C , 30-H ) :   0.9748 B( 28-C , 31-H ) :   0.9735

Dispersion correction           -0.015422506
FINAL SINGLE POINT ENERGY     -1339.867412959522

DIPOLE MOMENT
-------------
                                X             Y             Z
Electronic contribution:     14.39075       7.68215      -7.20542
Nuclear contribution   :    -14.85320      -8.06252       7.55196
                        -----------------------------------------
Total Dipole Moment    :     -0.46245      -0.38037       0.34654
                        -----------------------------------------
Magnitude (a.u.)       :      0.69184
Magnitude (Debye)      :      1.75851

Rotational constants in cm-1:     0.020759     0.008195     0.007624
Rotational constants in MHz :   622.328313   245.666466   228.548469

                             ****ORCA TERMINATED NORMALLY****
TOTAL RUN TIME: 0 days 0 hours 0 minutes 36 seconds 867 msec
