                         Program Version 4.2.1 -  RELEASE  -
|  1> ! wB97X-D3 SP def2-SVP
|  2> %pal
|  3> nprocs 16
|  4> end
|  5>
|  6> * xyz 0 1
|  7> S 	 -37.5029 	 25.7902 	 76.6679
|  8> C 	 -37.4268 	 26.6648 	 78.1475
|  9> C 	 -38.5294 	 26.3437 	 78.9682
| 10> C 	 -39.5466 	 25.6494 	 78.2526
| 11> C 	 -39.0863 	 25.2824 	 76.9962
| 12> H 	 -40.3788 	 25.161 	 78.7092
| 13> C 	 -38.765 	 26.8635 	 80.3578
| 14> H 	 -39.6835 	 27.4688 	 80.233
| 15> H 	 -37.8834 	 27.4849 	 80.5492
| 16> C 	 -38.9403 	 25.8477 	 81.4622
| 17> H 	 -39.5499 	 25.053 	 81.098
| 18> H 	 -38.0241 	 25.383 	 81.6283
| 19> C 	 -39.4594 	 26.4685 	 82.7889
| 20> H 	 -40.5455 	 26.4292 	 82.8329
| 21> H 	 -39.0509 	 25.9331 	 83.6992
| 22> H 	 -39.1362 	 27.4356 	 82.9691
| 23> S 	 -38.8949 	 23.3098 	 75.1206
| 24> C 	 -40.2216 	 22.7795 	 74.168
| 25> C 	 -41.3926 	 23.5048 	 74.5053
| 26> C 	 -41.1691 	 24.5607 	 75.4443
| 27> C 	 -39.8492 	 24.5565 	 75.9376
| 28> H 	 -42.2917 	 23.3223 	 74.0469
| 29> C 	 -42.2604 	 25.5264 	 75.8567
| 30> H 	 -42.3728 	 26.2135 	 74.9715
| 31> H 	 -41.9487 	 26.0777 	 76.755
| 32> C 	 -43.5247 	 24.8896 	 76.1348
| 33> H 	 -43.9552 	 24.3763 	 75.2613
| 34> H 	 -44.2738 	 25.6319 	 76.3367
| 35> C 	 -43.459 	 23.9449 	 77.3331
| 36> H 	 -42.6018 	 23.238 	 77.2889
| 37> H 	 -44.4252 	 23.4187 	 77.4366
| 38> H 	 -43.1954 	 24.5537 	 78.1396
| 39> H 	 -36.6033 	 27.1938 	 78.4857
| 40> H 	 -40.0532 	 21.9317 	 73.4722
| 41> *
| 42>
| 43>                          ****END OF INPUT****

CARTESIAN COORDINATES (ANGSTROEM)
---------------------------------
  S    -37.502900   25.790200   76.667900
  C    -37.426800   26.664800   78.147500
  C    -38.529400   26.343700   78.968200
  C    -39.546600   25.649400   78.252600
  C    -39.086300   25.282400   76.996200
  H    -40.378800   25.161000   78.709200
  C    -38.765000   26.863500   80.357800
  H    -39.683500   27.468800   80.233000
  H    -37.883400   27.484900   80.549200
  C    -38.940300   25.847700   81.462200
  H    -39.549900   25.053000   81.098000
  H    -38.024100   25.383000   81.628300
  C    -39.459400   26.468500   82.788900
  H    -40.545500   26.429200   82.832900
  H    -39.050900   25.933100   83.699200
  H    -39.136200   27.435600   82.969100
  S    -38.894900   23.309800   75.120600
  C    -40.221600   22.779500   74.168000
  C    -41.392600   23.504800   74.505300
  C    -41.169100   24.560700   75.444300
  C    -39.849200   24.556500   75.937600
  H    -42.291700   23.322300   74.046900
  C    -42.260400   25.526400   75.856700
  H    -42.372800   26.213500   74.971500
  H    -41.948700   26.077700   76.755000
  C    -43.524700   24.889600   76.134800
  H    -43.955200   24.376300   75.261300
  H    -44.273800   25.631900   76.336700
  C    -43.459000   23.944900   77.333100
  H    -42.601800   23.238000   77.288900
  H    -44.425200   23.418700   77.436600
  H    -43.195400   24.553700   78.139600
  H    -36.603300   27.193800   78.485700
  H    -40.053200   21.931700   73.472200

 Total Charge           Charge          ....    0
 Multiplicity           Mult            ....    1
 Number of Electrons    NEL             ....  134
 Basis Dimension        Dim             ....  322

ORBITAL ENERGIES
----------------

  NO   OCC          E(Eh)            E(eV)
   0   2.0000     -88.968072     -2420.9443
   1   2.0000     -88.962898     -2420.8035
   2   2.0000     -10.329702      -281.0855
   3   2.0000     -10.329375      -281.0766
   4   2.0000     -10.322811      -280.8980
   5   2.0000     -10.306889      -280.4647
   6   2.0000     -10.306176      -280.4453
   7   2.0000     -10.300126      -280.2807
   8   2.0000     -10.293228      -280.0930
   9   2.0000     -10.289810      -280.0000
  10   2.0000     -10.289686      -279.9966
  11   2.0000     -10.289126      -279.9814
  12   2.0000     -10.279799      -279.7276
  13   2.0000     -10.278683      -279.6972
  14   2.0000     -10.277760      -279.6721
  15   2.0000     -10.273287      -279.5503
  16   2.0000      -8.084196      -219.9822
  17   2.0000      -8.078124      -219.8169
  18   2.0000      -6.042521      -164.4254
  19   2.0000      -6.038463      -164.3149
  20   2.0000      -6.036456      -164.2603
  21   2.0000      -6.035111      -164.2237
  22   2.0000      -6.032377      -164.1493
  23   2.0000      -6.029248      -164.0642
  24   2.0000      -1.010638       -27.5009
  25   2.0000      -0.985248       -26.8100
  26   2.0000      -0.925845       -25.1935
  27   2.0000      -0.915982       -24.9252
  28   2.0000      -0.864477       -23.5236
  29   2.0000      -0.854207       -23.2442
  30   2.0000      -0.846033       -23.0217
  31   2.0000      -0.812388       -22.1062
  32   2.0000      -0.785570       -21.3764
  33   2.0000      -0.773933       -21.0598
  34   2.0000      -0.714033       -19.4298
  35   2.0000      -0.701961       -19.1013
  36   2.0000      -0.691222       -18.8091
  37   2.0000      -0.659506       -17.9461
  38   2.0000      -0.643540       -17.5116
  39   2.0000      -0.623293       -16.9607
  40   2.0000      -0.602620       -16.3981
  41   2.0000      -0.570931       -15.5358
  42   2.0000      -0.563449       -15.3322
  43   2.0000      -0.562342       -15.3021
  44   2.0000      -0.542211       -14.7543
  45   2.0000      -0.525001       -14.2860
  46   2.0000      -0.518121       -14.0988
  47   2.0000      -0.514437       -13.9985
  48   2.0000      -0.506355       -13.7786
  49   2.0000      -0.497729       -13.5439
  50   2.0000      -0.493681       -13.4337
  51   2.0000      -0.480538       -13.0761
  52   2.0000      -0.473526       -12.8853
  53   2.0000      -0.471892       -12.8408
  54   2.0000      -0.458771       -12.4838
  55   2.0000      -0.455994       -12.4082
  56   2.0000      -0.446647       -12.1539
  57   2.0000      -0.437644       -11.9089
  58   2.0000      -0.433433       -11.7943
  59   2.0000      -0.424155       -11.5419
  60   2.0000      -0.421213       -11.4618
  61   2.0000      -0.420908       -11.4535
  62   2.0000      -0.409016       -11.1299
  63   2.0000      -0.347108        -9.4453
  64   2.0000      -0.331335        -9.0161
  65   2.0000      -0.329225        -8.9587
  66   2.0000      -0.285363        -7.7651
  67   0.0000       0.029890         0.8133
  68   0.0000       0.071290         1.9399
  69   0.0000       0.106504         2.8981
  70   0.0000       0.118122         3.2143
  71   0.0000       0.131101         3.5674

MULLIKEN ATOMIC CHARGES
-----------------------
   0 S :    0.131507
   1 C :   -0.096948
   2 C :   -0.118707
   3 C :    0.016161
   4 C :   -0.124339
   5 H :    0.015591
   6 C :    0.055667
   7 H :    0.041519
   8 H :    0.014789
   9 C :   -0.029423
  10 H :    0.015821
  11 H :    0.009319
  12 C :   -0.035254
  13 H :    0.037390
  14 H :    0.033127
  15 H :    0.015259
  16 S :    0.087562
  17 C :   -0.103636
  18 C :   -0.007978
  19 C :   -0.071517
  20 C :   -0.156164
  21 H :   -0.014157
  22 C :    0.093243
  23 H :    0.048793
  24 H :    0.022758
  25 C :   -0.079942
  26 H :    0.020546
  27 H :    0.019882
  28 C :   -0.038803
  29 H :    0.045855
  30 H :    0.044976
  31 H :    0.008009
  32 H :    0.019726
  33 H :    0.079367
Sum of atomic charges:    0.0000000

LOEWDIN ATOMIC CHARGES
----------------------
   0 S :    0.448393
   1 C :   -0.209936
   2 C :   -0.053641
   3 C :   -0.077003
   4 C :   -0.202840
   5 H :    0.028194
   6 C :   -0.034086
   7 H :    0.037157
   8 H :    0.029136
   9 C :   -0.034597
  10 H :    0.020334
  11 H :    0.018427
  12 C :   -0.060122
  13 H :    0.026783
  14 H :    0.034977
  15 H :    0.014472
  16 S :    0.408504
  17 C :   -0.196031
  18 C :   -0.063709
  19 C :   -0.054991
  20 C :   -0.196173
  21 H :    0.014396
  22 C :   -0.033180
  23 H :    0.044902
  24 H :    0.032042
  25 C :   -0.049223
  26 H :    0.019978
  27 H :    0.024341
  28 C :   -0.060836
  29 H :    0.030766
  30 H :    0.031721
  31 H :    0.013928
  32 H :    0.011640
  33 H :    0.036275

  Mayer bond orders larger than 0.100000
B(  0-S ,  1-C ) :   1.1447 B(  0-S ,  4-C ) :   1.1979 B(  1-C ,  2-C ) :   1.5798
B(  1-C , 32-H ) :   0.9752 B(  2-C ,  3-C ) :   1.2627 B(  2-C ,  6-C ) :   1.0281
B(  3-C ,  4-C ) :   1.5550 B(  3-C ,  5-H ) :   0.9886 B(  4-C , 20-C ) :   1.0010
B(  6-C ,  7-H ) :   0.9438 B(  6-C ,  8-H ) :   0.9341 B(  6-C ,  9-C ) :   1.0665
B(  9-C , 10-H ) :   0.9609 B(  9-C , 11-H ) :   0.9502 B(  9-C , 12-C ) :   1.0717
B( 12-C , 13-H ) :   0.9783 B( 12-C , 14-H ) :   0.9768 B( 12-C , 15-H ) :   0.9761
B( 16-S , 17-C ) :   1.1844 B( 16-S , 20-C ) :   1.1547 B( 17-C , 18-C ) :   1.5459
B( 17-C , 20-C ) :   0.1073 B( 17-C , 33-H ) :   0.9677 B( 18-C , 19-C ) :   1.2598
B( 18-C , 21-H ) :   1.0079 B( 19-C , 20-C ) :   1.5732 B( 19-C , 22-C ) :   1.0328
B( 22-C , 23-H ) :   0.9200 B( 22-C , 24-H ) :   0.9387 B( 22-C , 25-C ) :   1.0981
B( 25-C , 26-H ) :   0.9440 B( 25-C , 27-H ) :   0.9462 B( 25-C , 28-C ) :   1.0683
B( 28-C , 29-H ) :   0.9742 B( 28-C , 30-H ) :   0.9724 B( 28-C , 31-H ) :   0.9710

Dispersion correction           -0.014253294
FINAL SINGLE POINT ENERGY     -1339.871763201874

DIPOLE MOMENT
-------------
                                X             Y             Z
Electronic contribution:     18.41685      -5.06539     -22.02734
Nuclear contribution   :    -18.83887       5.12765      22.38290
                        -----------------------------------------
Total Dipole Moment    :     -0.42202       0.06226       0.35556
                        -----------------------------------------
Magnitude (a.u.)       :      0.55534
Magnitude (Debye)      :      1.41156

Rotational constants in cm-1:     0.018811     0.008676     0.006575
Rotational constants in MHz :   563.925442   260.093563   197.126784

                             ****ORCA TERMINATED NORMALLY****
TOTAL RUN TIME: 0 days 0 hours 0 minutes 30 seconds 599 msec
