                         Program Version 4.2.1 -  RELEASE  -
|  1> ! wB97X-D3 SP def2-SVP
|  2> %pal
|  3> nprocs 16
|  4> end
|  5>
|  6> * xyz 0 1
|  7> S 	 -40.1991 	 17.9848 	 79.5511
|  8> C 	 -40.7966 	 18.8434 	 78.1695
|  9> C 	 -40 	 18.5386 	 77.0739
| 10> C 	 -38.9206 	 17.6981 	 77.3813
| 11> C 	 -38.997 	 17.1686 	 78.6825
| 12> H 	 -38.1287 	 17.3421 	 76.7359
| 13> C 	 -40.1444 	 19.1981 	 75.6906
| 14> H 	 -39.5651 	 20.0955 	 75.6714
| 15> H 	 -41.1856 	 19.6564 	 75.608
| 16> C 	 -39.8453 	 18.3133 	 74.4974
| 17> H 	 -39.7844 	 18.8762 	 73.5647
| 18> H 	 -38.8043 	 18.0102 	 74.6655
| 19> C 	 -40.8339 	 17.0356 	 74.4528
| 20> H 	 -41.7781 	 17.5091 	 74.2558
| 21> H 	 -40.6727 	 16.2799 	 73.6992
| 22> H 	 -40.8578 	 16.4786 	 75.4375
| 23> S 	 -37.2992 	 16.2388 	 80.7758
| 24> C 	 -36.4177 	 14.7584 	 80.539
| 25> C 	 -36.843 	 14.0984 	 79.389
| 26> C 	 -37.7413 	 14.8611 	 78.6222
| 27> C 	 -38.178 	 16.0937 	 79.2004
| 28> H 	 -36.3944 	 13.197 	 79.113
| 29> C 	 -38.1865 	 14.3521 	 77.2591
| 30> H 	 -37.4496 	 13.611 	 76.9202
| 31> H 	 -38.0302 	 15.0472 	 76.5164
| 32> C 	 -39.6394 	 13.752 	 77.3006
| 33> H 	 -40.3941 	 14.4688 	 77.384
| 34> H 	 -39.6678 	 13.1913 	 78.275
| 35> C 	 -39.8505 	 12.8419 	 76.1028
| 36> H 	 -39.1378 	 12.0196 	 75.9562
| 37> H 	 -39.9218 	 13.3733 	 75.2214
| 38> H 	 -40.781 	 12.3774 	 76.3929
| 39> H 	 -41.5561 	 19.6293 	 78.0616
| 40> H 	 -35.5817 	 14.4223 	 81.1571
| 41> *
| 42>
| 43>                          ****END OF INPUT****

CARTESIAN COORDINATES (ANGSTROEM)
---------------------------------
  S    -40.199100   17.984800   79.551100
  C    -40.796600   18.843400   78.169500
  C    -40.000000   18.538600   77.073900
  C    -38.920600   17.698100   77.381300
  C    -38.997000   17.168600   78.682500
  H    -38.128700   17.342100   76.735900
  C    -40.144400   19.198100   75.690600
  H    -39.565100   20.095500   75.671400
  H    -41.185600   19.656400   75.608000
  C    -39.845300   18.313300   74.497400
  H    -39.784400   18.876200   73.564700
  H    -38.804300   18.010200   74.665500
  C    -40.833900   17.035600   74.452800
  H    -41.778100   17.509100   74.255800
  H    -40.672700   16.279900   73.699200
  H    -40.857800   16.478600   75.437500
  S    -37.299200   16.238800   80.775800
  C    -36.417700   14.758400   80.539000
  C    -36.843000   14.098400   79.389000
  C    -37.741300   14.861100   78.622200
  C    -38.178000   16.093700   79.200400
  H    -36.394400   13.197000   79.113000
  C    -38.186500   14.352100   77.259100
  H    -37.449600   13.611000   76.920200
  H    -38.030200   15.047200   76.516400
  C    -39.639400   13.752000   77.300600
  H    -40.394100   14.468800   77.384000
  H    -39.667800   13.191300   78.275000
  C    -39.850500   12.841900   76.102800
  H    -39.137800   12.019600   75.956200
  H    -39.921800   13.373300   75.221400
  H    -40.781000   12.377400   76.392900
  H    -41.556100   19.629300   78.061600
  H    -35.581700   14.422300   81.157100

 Total Charge           Charge          ....    0
 Multiplicity           Mult            ....    1
 Number of Electrons    NEL             ....  134
 Basis Dimension        Dim             ....  322

ORBITAL ENERGIES
----------------

  NO   OCC          E(Eh)            E(eV)
   0   2.0000     -88.969366     -2420.9795
   1   2.0000     -88.966581     -2420.9037
   2   2.0000     -10.333439      -281.1872
   3   2.0000     -10.328648      -281.0568
   4   2.0000     -10.322143      -280.8798
   5   2.0000     -10.313251      -280.6378
   6   2.0000     -10.306920      -280.4655
   7   2.0000     -10.299897      -280.2745
   8   2.0000     -10.294916      -280.1389
   9   2.0000     -10.293967      -280.1131
  10   2.0000     -10.290966      -280.0314
  11   2.0000     -10.290287      -280.0130
  12   2.0000     -10.284326      -279.8507
  13   2.0000     -10.283808      -279.8366
  14   2.0000     -10.283546      -279.8295
  15   2.0000     -10.269498      -279.4472
  16   2.0000      -8.084904      -220.0014
  17   2.0000      -8.080492      -219.8814
  18   2.0000      -6.043297      -164.4465
  19   2.0000      -6.039085      -164.3318
  20   2.0000      -6.038929      -164.3276
  21   2.0000      -6.035942      -164.2463
  22   2.0000      -6.034997      -164.2206
  23   2.0000      -6.031494      -164.1253
  24   2.0000      -1.009977       -27.4829
  25   2.0000      -0.983762       -26.7695
  26   2.0000      -0.910037       -24.7634
  27   2.0000      -0.906519       -24.6676
  28   2.0000      -0.868213       -23.6253
  29   2.0000      -0.853060       -23.2129
  30   2.0000      -0.841088       -22.8872
  31   2.0000      -0.811814       -22.0906
  32   2.0000      -0.784078       -21.3358
  33   2.0000      -0.772103       -21.0100
  34   2.0000      -0.713927       -19.4269
  35   2.0000      -0.702810       -19.1244
  36   2.0000      -0.693836       -18.8802
  37   2.0000      -0.660233       -17.9658
  38   2.0000      -0.636974       -17.3329
  39   2.0000      -0.624090       -16.9824
  40   2.0000      -0.596924       -16.2431
  41   2.0000      -0.572494       -15.5784
  42   2.0000      -0.560448       -15.2506
  43   2.0000      -0.553472       -15.0607
  44   2.0000      -0.535955       -14.5841
  45   2.0000      -0.532621       -14.4934
  46   2.0000      -0.518929       -14.1208
  47   2.0000      -0.511249       -13.9118
  48   2.0000      -0.505761       -13.7625
  49   2.0000      -0.496720       -13.5164
  50   2.0000      -0.491323       -13.3696
  51   2.0000      -0.476721       -12.9723
  52   2.0000      -0.471990       -12.8435
  53   2.0000      -0.461515       -12.5585
  54   2.0000      -0.458728       -12.4826
  55   2.0000      -0.456199       -12.4138
  56   2.0000      -0.448652       -12.2084
  57   2.0000      -0.442200       -12.0329
  58   2.0000      -0.430222       -11.7069
  59   2.0000      -0.422216       -11.4891
  60   2.0000      -0.420176       -11.4336
  61   2.0000      -0.412428       -11.2227
  62   2.0000      -0.406166       -11.0523
  63   2.0000      -0.346721        -9.4348
  64   2.0000      -0.332968        -9.0605
  65   2.0000      -0.330998        -9.0069
  66   2.0000      -0.285557        -7.7704
  67   0.0000       0.023154         0.6300
  68   0.0000       0.067104         1.8260
  69   0.0000       0.117262         3.1909
  70   0.0000       0.123893         3.3713
  71   0.0000       0.129350         3.5198

MULLIKEN ATOMIC CHARGES
-----------------------
   0 S :    0.133027
   1 C :   -0.110264
   2 C :   -0.105829
   3 C :    0.016884
   4 C :   -0.160243
   5 H :    0.016939
   6 C :    0.052609
   7 H :    0.037377
   8 H :    0.015744
   9 C :   -0.076518
  10 H :    0.033938
  11 H :    0.022402
  12 C :   -0.067861
  13 H :    0.029010
  14 H :    0.036713
  15 H :    0.058476
  16 S :    0.097910
  17 C :   -0.099207
  18 C :   -0.006626
  19 C :   -0.062826
  20 C :   -0.137891
  21 H :   -0.002273
  22 C :    0.104471
  23 H :    0.002581
  24 H :   -0.009654
  25 C :   -0.071874
  26 H :    0.030705
  27 H :    0.034704
  28 C :   -0.010240
  29 H :    0.029890
  30 H :    0.020105
  31 H :    0.028041
  32 H :    0.050319
  33 H :    0.069459
Sum of atomic charges:    0.0000000

LOEWDIN ATOMIC CHARGES
----------------------
   0 S :    0.449013
   1 C :   -0.217695
   2 C :   -0.065482
   3 C :   -0.066918
   4 C :   -0.214593
   5 H :    0.029390
   6 C :   -0.035297
   7 H :    0.030930
   8 H :    0.029458
   9 C :   -0.041992
  10 H :    0.026915
  11 H :    0.018826
  12 C :   -0.067266
  13 H :    0.023454
  14 H :    0.021501
  15 H :    0.035922
  16 S :    0.391497
  17 C :   -0.181550
  18 C :   -0.072099
  19 C :   -0.044497
  20 C :   -0.194352
  21 H :    0.023358
  22 C :   -0.029574
  23 H :    0.030110
  24 H :    0.012088
  25 C :   -0.024974
  26 H :    0.017495
  27 H :    0.031155
  28 C :   -0.058054
  29 H :    0.026340
  30 H :    0.014141
  31 H :    0.029873
  32 H :    0.037243
  33 H :    0.035636

  Mayer bond orders larger than 0.100000
B(  0-S ,  1-C ) :   1.1462 B(  0-S ,  4-C ) :   1.1888 B(  1-C ,  2-C ) :   1.5797
B(  1-C ,  4-C ) :   0.1055 B(  1-C , 32-H ) :   0.9655 B(  2-C ,  3-C ) :   1.2797
B(  2-C ,  6-C ) :   1.0084 B(  3-C ,  4-C ) :   1.5095 B(  3-C ,  5-H ) :   0.9943
B(  4-C , 20-C ) :   1.0692 B(  6-C ,  7-H ) :   0.9385 B(  6-C ,  8-H ) :   0.9420
B(  6-C ,  9-C ) :   1.0748 B(  9-C , 10-H ) :   0.9571 B(  9-C , 11-H ) :   0.9534
B(  9-C , 12-C ) :   1.0473 B( 12-C , 13-H ) :   0.9772 B( 12-C , 14-H ) :   0.9799
B( 12-C , 15-H ) :   0.9749 B( 16-S , 17-C ) :   1.1864 B( 16-S , 20-C ) :   1.1238
B( 17-C , 18-C ) :   1.5563 B( 17-C , 20-C ) :   0.1119 B( 17-C , 33-H ) :   0.9644
B( 18-C , 19-C ) :   1.2875 B( 18-C , 21-H ) :   1.0005 B( 19-C , 20-C ) :   1.5382
B( 19-C , 22-C ) :   1.0479 B( 22-C , 23-H ) :   0.9349 B( 22-C , 24-H ) :   0.9261
B( 22-C , 25-C ) :   1.0411 B( 25-C , 26-H ) :   0.9548 B( 25-C , 27-H ) :   0.9594
B( 25-C , 28-C ) :   1.0814 B( 28-C , 29-H ) :   0.9755 B( 28-C , 30-H ) :   0.9743
B( 28-C , 31-H ) :   0.9726

Dispersion correction           -0.015726539
FINAL SINGLE POINT ENERGY     -1339.864833057743

DIPOLE MOMENT
-------------
                                X             Y             Z
Electronic contribution:      7.62052       9.63535      28.14988
Nuclear contribution   :     -7.47196      -9.82544     -28.84144
                        -----------------------------------------
Total Dipole Moment    :      0.14855      -0.19009      -0.69155
                        -----------------------------------------
Magnitude (a.u.)       :      0.73243
Magnitude (Debye)      :      1.86168

Rotational constants in cm-1:     0.017419     0.010516     0.007487
Rotational constants in MHz :   522.203519   315.260268   224.469315

                             ****ORCA TERMINATED NORMALLY****
TOTAL RUN TIME: 0 days 0 hours 0 minutes 32 seconds 52 msec
