                         Program Version 4.2.1 -  RELEASE  -
|  1> ! wB97X-D3 SP def2-SVP
|  2> %pal
|  3> nprocs 16
|  4> end
|  5>
|  6> * xyz 0 1
|  7> S 	 38.5334 	 28.5074 	 57.6721
|  8> C 	 37.8384 	 29.0756 	 56.1816
|  9> C 	 37.2215 	 30.2879 	 56.3302
| 10> C 	 37.4162 	 30.7771 	 57.6926
| 11> C 	 38.0602 	 29.9335 	 58.5708
| 12> H 	 37.1916 	 31.7789 	 57.8836
| 13> C 	 36.7677 	 31.2036 	 55.2517
| 14> H 	 37.0784 	 30.6402 	 54.3748
| 15> H 	 37.4826 	 32.0286 	 55.2953
| 16> C 	 35.2472 	 31.3995 	 55.2533
| 17> H 	 34.6634 	 30.498 	 55.1232
| 18> H 	 34.8816 	 31.7707 	 56.2173
| 19> C 	 34.7324 	 32.346 	 54.1818
| 20> H 	 35.255 	 33.2785 	 54.2702
| 21> H 	 34.903 	 31.8505 	 53.2646
| 22> H 	 33.6457 	 32.6038 	 54.1795
| 23> S 	 40.0438 	 30.126 	 60.4511
| 24> C 	 39.5471 	 30.7171 	 62.0166
| 25> C 	 38.2252 	 30.9316 	 62.1664
| 26> C 	 37.5046 	 30.5448 	 60.9959
| 27> C 	 38.349 	 30.2063 	 59.9346
| 28> H 	 37.8384 	 31.2722 	 63.0764
| 29> C 	 35.9923 	 30.8018 	 61.0598
| 30> H 	 35.739 	 30.6362 	 62.0683
| 31> H 	 35.5106 	 30.152 	 60.452
| 32> C 	 35.6606 	 32.2599 	 60.6723
| 33> H 	 36.2744 	 32.6455 	 59.8778
| 34> H 	 35.7815 	 32.9045 	 61.4564
| 35> C 	 34.1996 	 32.515 	 60.0477
| 36> H 	 33.9407 	 31.8935 	 59.2183
| 37> H 	 34.089 	 33.5614 	 59.7935
| 38> H 	 33.4321 	 32.2857 	 60.8677
| 39> H 	 37.9439 	 28.5456 	 55.2917
| 40> H 	 40.3663 	 31.0017 	 62.6571
| 41> *
| 42>
| 43>                          ****END OF INPUT****

CARTESIAN COORDINATES (ANGSTROEM)
---------------------------------
  S     38.533400   28.507400   57.672100
  C     37.838400   29.075600   56.181600
  C     37.221500   30.287900   56.330200
  C     37.416200   30.777100   57.692600
  C     38.060200   29.933500   58.570800
  H     37.191600   31.778900   57.883600
  C     36.767700   31.203600   55.251700
  H     37.078400   30.640200   54.374800
  H     37.482600   32.028600   55.295300
  C     35.247200   31.399500   55.253300
  H     34.663400   30.498000   55.123200
  H     34.881600   31.770700   56.217300
  C     34.732400   32.346000   54.181800
  H     35.255000   33.278500   54.270200
  H     34.903000   31.850500   53.264600
  H     33.645700   32.603800   54.179500
  S     40.043800   30.126000   60.451100
  C     39.547100   30.717100   62.016600
  C     38.225200   30.931600   62.166400
  C     37.504600   30.544800   60.995900
  C     38.349000   30.206300   59.934600
  H     37.838400   31.272200   63.076400
  C     35.992300   30.801800   61.059800
  H     35.739000   30.636200   62.068300
  H     35.510600   30.152000   60.452000
  C     35.660600   32.259900   60.672300
  H     36.274400   32.645500   59.877800
  H     35.781500   32.904500   61.456400
  C     34.199600   32.515000   60.047700
  H     33.940700   31.893500   59.218300
  H     34.089000   33.561400   59.793500
  H     33.432100   32.285700   60.867700
  H     37.943900   28.545600   55.291700
  H     40.366300   31.001700   62.657100

 Total Charge           Charge          ....    0
 Multiplicity           Mult            ....    1
 Number of Electrons    NEL             ....  134
 Basis Dimension        Dim             ....  322

ORBITAL ENERGIES
----------------

  NO   OCC          E(Eh)            E(eV)
   0   2.0000     -88.962695     -2420.7980
   1   2.0000     -88.960405     -2420.7357
   2   2.0000     -10.325119      -280.9608
   3   2.0000     -10.324250      -280.9371
   4   2.0000     -10.313858      -280.6543
   5   2.0000     -10.307934      -280.4931
   6   2.0000     -10.305431      -280.4250
   7   2.0000     -10.295580      -280.1570
   8   2.0000     -10.293684      -280.1054
   9   2.0000     -10.287574      -279.9391
  10   2.0000     -10.287535      -279.9381
  11   2.0000     -10.286165      -279.9008
  12   2.0000     -10.283598      -279.8309
  13   2.0000     -10.283427      -279.8263
  14   2.0000     -10.282390      -279.7981
  15   2.0000     -10.273116      -279.5457
  16   2.0000      -8.077847      -219.8094
  17   2.0000      -8.075614      -219.7486
  18   2.0000      -6.036242      -164.2545
  19   2.0000      -6.034254      -164.2004
  20   2.0000      -6.032447      -164.1512
  21   2.0000      -6.029976      -164.0840
  22   2.0000      -6.028561      -164.0455
  23   2.0000      -6.026292      -163.9837
  24   2.0000      -1.006547       -27.3895
  25   2.0000      -0.984962       -26.8022
  26   2.0000      -0.917048       -24.9542
  27   2.0000      -0.906634       -24.6708
  28   2.0000      -0.875925       -23.8351
  29   2.0000      -0.849659       -23.1204
  30   2.0000      -0.847222       -23.0541
  31   2.0000      -0.815619       -22.1941
  32   2.0000      -0.784803       -21.3556
  33   2.0000      -0.772410       -21.0183
  34   2.0000      -0.712558       -19.3897
  35   2.0000      -0.705195       -19.1893
  36   2.0000      -0.698734       -19.0135
  37   2.0000      -0.667459       -18.1625
  38   2.0000      -0.644800       -17.5459
  39   2.0000      -0.624142       -16.9838
  40   2.0000      -0.600897       -16.3513
  41   2.0000      -0.570838       -15.5333
  42   2.0000      -0.569640       -15.5007
  43   2.0000      -0.559239       -15.2177
  44   2.0000      -0.533790       -14.5252
  45   2.0000      -0.527399       -14.3513
  46   2.0000      -0.525330       -14.2950
  47   2.0000      -0.512597       -13.9485
  48   2.0000      -0.506864       -13.7925
  49   2.0000      -0.497841       -13.5469
  50   2.0000      -0.494264       -13.4496
  51   2.0000      -0.483404       -13.1541
  52   2.0000      -0.472818       -12.8660
  53   2.0000      -0.464074       -12.6281
  54   2.0000      -0.456609       -12.4250
  55   2.0000      -0.450951       -12.2710
  56   2.0000      -0.446967       -12.1626
  57   2.0000      -0.437260       -11.8984
  58   2.0000      -0.434665       -11.8278
  59   2.0000      -0.433954       -11.8085
  60   2.0000      -0.416851       -11.3431
  61   2.0000      -0.416228       -11.3261
  62   2.0000      -0.407566       -11.0904
  63   2.0000      -0.346673        -9.4334
  64   2.0000      -0.331671        -9.0252
  65   2.0000      -0.324669        -8.8347
  66   2.0000      -0.293771        -7.9939
  67   0.0000       0.033080         0.9002
  68   0.0000       0.072208         1.9649
  69   0.0000       0.111781         3.0417
  70   0.0000       0.122591         3.3359
  71   0.0000       0.129366         3.5202

MULLIKEN ATOMIC CHARGES
-----------------------
   0 S :    0.100959
   1 C :   -0.107110
   2 C :   -0.105757
   3 C :    0.038068
   4 C :   -0.125562
   5 H :   -0.015584
   6 C :    0.080681
   7 H :    0.004899
   8 H :    0.044298
   9 C :   -0.068552
  10 H :    0.027639
  11 H :    0.022172
  12 C :   -0.029960
  13 H :    0.024852
  14 H :    0.019490
  15 H :    0.037904
  16 S :    0.098180
  17 C :   -0.083678
  18 C :   -0.007862
  19 C :   -0.059999
  20 C :   -0.179712
  21 H :    0.000672
  22 C :    0.198118
  23 H :    0.009160
  24 H :   -0.004900
  25 C :   -0.052807
  26 H :    0.025189
  27 H :    0.006697
  28 C :   -0.088920
  29 H :    0.041194
  30 H :    0.036499
  31 H :    0.032491
  32 H :    0.025261
  33 H :    0.055980
Sum of atomic charges:    0.0000000

LOEWDIN ATOMIC CHARGES
----------------------
   0 S :    0.398630
   1 C :   -0.186655
   2 C :   -0.063781
   3 C :   -0.055022
   4 C :   -0.199835
   5 H :    0.015614
   6 C :   -0.031002
   7 H :    0.031084
   8 H :    0.040083
   9 C :   -0.039849
  10 H :    0.028346
  11 H :    0.020789
  12 C :   -0.064433
  13 H :    0.020567
  14 H :    0.017901
  15 H :    0.031367
  16 S :    0.391930
  17 C :   -0.167352
  18 C :   -0.067802
  19 C :   -0.035561
  20 C :   -0.197329
  21 H :    0.025754
  22 C :   -0.006404
  23 H :    0.027605
  24 H :    0.016103
  25 C :   -0.024694
  26 H :    0.020889
  27 H :    0.010566
  28 C :   -0.066305
  29 H :    0.018714
  30 H :    0.024351
  31 H :    0.028301
  32 H :    0.014669
  33 H :    0.022765

  Mayer bond orders larger than 0.100000
B(  0-S ,  1-C ) :   1.1385 B(  0-S ,  4-C ) :   1.1307 B(  1-C ,  2-C ) :   1.6168
B(  1-C , 32-H ) :   0.9745 B(  2-C ,  3-C ) :   1.2346 B(  2-C ,  6-C ) :   1.0239
B(  3-C ,  4-C ) :   1.5813 B(  3-C ,  5-H ) :   0.9985 B(  4-C , 20-C ) :   1.0684
B(  6-C ,  7-H ) :   0.9362 B(  6-C ,  8-H ) :   0.9432 B(  6-C ,  9-C ) :   1.0423
B(  9-C , 10-H ) :   0.9549 B(  9-C , 11-H ) :   0.9615 B(  9-C , 12-C ) :   1.0840
B( 12-C , 13-H ) :   0.9752 B( 12-C , 14-H ) :   0.9754 B( 12-C , 15-H ) :   0.9743
B( 16-S , 17-C ) :   1.1564 B( 16-S , 20-C ) :   1.1301 B( 17-C , 18-C ) :   1.6225
B( 17-C , 33-H ) :   0.9661 B( 18-C , 19-C ) :   1.2038 B( 18-C , 21-H ) :   1.0028
B( 19-C , 20-C ) :   1.6071 B( 19-C , 22-C ) :   1.0552 B( 22-C , 23-H ) :   0.9270
B( 22-C , 24-H ) :   0.9256 B( 22-C , 25-C ) :   1.0517 B( 25-C , 26-H ) :   0.9636
B( 25-C , 27-H ) :   0.9531 B( 25-C , 28-C ) :   1.0771 B( 28-C , 29-H ) :   0.9790
B( 28-C , 30-H ) :   0.9772 B( 28-C , 31-H ) :   0.9768

Dispersion correction           -0.014435161
FINAL SINGLE POINT ENERGY     -1339.860628660025

DIPOLE MOMENT
-------------
                                X             Y             Z
Electronic contribution:     25.98194     -17.46253      10.14061
Nuclear contribution   :    -26.38887      18.03577     -10.18995
                        -----------------------------------------
Total Dipole Moment    :     -0.40692       0.57324      -0.04934
                        -----------------------------------------
Magnitude (a.u.)       :      0.70472
Magnitude (Debye)      :      1.79125

Rotational constants in cm-1:     0.017978     0.009314     0.006651
Rotational constants in MHz :   538.966621   279.226304   199.405118

                             ****ORCA TERMINATED NORMALLY****
TOTAL RUN TIME: 0 days 0 hours 0 minutes 35 seconds 469 msec
