                         Program Version 4.2.1 -  RELEASE  -
|  1> ! wB97X-D3 SP def2-SVP
|  2> %pal
|  3> nprocs 16
|  4> end
|  5>
|  6> * xyz 0 1
|  7> S 	 45.7044 	 19.268 	 102.547
|  8> C 	 45.5862 	 19.75 	 100.833
|  9> C 	 44.5588 	 19.0718 	 100.161
| 10> C 	 43.8969 	 18.1275 	 100.973
| 11> C 	 44.3278 	 18.2102 	 102.291
| 12> H 	 43.051 	 17.3665 	 100.85
| 13> C 	 44.1206 	 19.3507 	 98.7234
| 14> H 	 44.2989 	 20.394 	 98.5144
| 15> H 	 43.1019 	 19.1915 	 98.6078
| 16> C 	 44.9888 	 18.5937 	 97.6777
| 17> H 	 46.0457 	 18.89 	 97.8254
| 18> H 	 45.0561 	 17.5443 	 97.7492
| 19> C 	 44.4085 	 18.8876 	 96.3088
| 20> H 	 44.9687 	 18.4535 	 95.4918
| 21> H 	 43.38 	 18.6086 	 96.1757
| 22> H 	 44.3486 	 19.9488 	 96.0787
| 23> S 	 42.0971 	 17.0797 	 103.575
| 24> C 	 42.2904 	 15.6454 	 104.514
| 25> C 	 43.6084 	 15.4091 	 104.709
| 26> C 	 44.5372 	 16.1907 	 103.963
| 27> C 	 43.8458 	 17.2106 	 103.28
| 28> H 	 43.7903 	 14.7494 	 105.453
| 29> C 	 45.9964 	 16.0645 	 104.063
| 30> H 	 46.3051 	 15.4423 	 105.019
| 31> H 	 46.3972 	 17.0302 	 104.112
| 32> C 	 46.6541 	 15.468 	 102.769
| 33> H 	 47.7081 	 15.7794 	 102.627
| 34> H 	 46.0738 	 15.8723 	 101.891
| 35> C 	 46.4693 	 13.9305 	 102.685
| 36> H 	 47.0296 	 13.287 	 103.345
| 37> H 	 46.7062 	 13.6324 	 101.69
| 38> H 	 45.4544 	 13.6797 	 102.863
| 39> H 	 46.2002 	 20.4951 	 100.367
| 40> H 	 41.4247 	 15.0755 	 104.913
| 41> *
| 42>
| 43>                          ****END OF INPUT****

CARTESIAN COORDINATES (ANGSTROEM)
---------------------------------
  S     45.704400   19.268000  102.547000
  C     45.586200   19.750000  100.833000
  C     44.558800   19.071800  100.161000
  C     43.896900   18.127500  100.973000
  C     44.327800   18.210200  102.291000
  H     43.051000   17.366500  100.850000
  C     44.120600   19.350700   98.723400
  H     44.298900   20.394000   98.514400
  H     43.101900   19.191500   98.607800
  C     44.988800   18.593700   97.677700
  H     46.045700   18.890000   97.825400
  H     45.056100   17.544300   97.749200
  C     44.408500   18.887600   96.308800
  H     44.968700   18.453500   95.491800
  H     43.380000   18.608600   96.175700
  H     44.348600   19.948800   96.078700
  S     42.097100   17.079700  103.575000
  C     42.290400   15.645400  104.514000
  C     43.608400   15.409100  104.709000
  C     44.537200   16.190700  103.963000
  C     43.845800   17.210600  103.280000
  H     43.790300   14.749400  105.453000
  C     45.996400   16.064500  104.063000
  H     46.305100   15.442300  105.019000
  H     46.397200   17.030200  104.112000
  C     46.654100   15.468000  102.769000
  H     47.708100   15.779400  102.627000
  H     46.073800   15.872300  101.891000
  C     46.469300   13.930500  102.685000
  H     47.029600   13.287000  103.345000
  H     46.706200   13.632400  101.690000
  H     45.454400   13.679700  102.863000
  H     46.200200   20.495100  100.367000
  H     41.424700   15.075500  104.913000

 Total Charge           Charge          ....    0
 Multiplicity           Mult            ....    1
 Number of Electrons    NEL             ....  134
 Basis Dimension        Dim             ....  322

ORBITAL ENERGIES
----------------

  NO   OCC          E(Eh)            E(eV)
   0   2.0000     -88.974996     -2421.1327
   1   2.0000     -88.963304     -2420.8146
   2   2.0000     -10.330189      -281.0987
   3   2.0000     -10.328324      -281.0480
   4   2.0000     -10.319122      -280.7976
   5   2.0000     -10.313160      -280.6353
   6   2.0000     -10.306650      -280.4582
   7   2.0000     -10.301232      -280.3108
   8   2.0000     -10.299583      -280.2659
   9   2.0000     -10.291481      -280.0454
  10   2.0000     -10.289230      -279.9842
  11   2.0000     -10.289180      -279.9828
  12   2.0000     -10.285857      -279.8924
  13   2.0000     -10.280978      -279.7596
  14   2.0000     -10.273009      -279.5428
  15   2.0000     -10.264291      -279.3056
  16   2.0000      -8.088296      -220.0937
  17   2.0000      -8.077978      -219.8130
  18   2.0000      -6.046747      -164.5403
  19   2.0000      -6.043107      -164.4413
  20   2.0000      -6.039126      -164.3330
  21   2.0000      -6.036383      -164.2583
  22   2.0000      -6.032469      -164.1518
  23   2.0000      -6.028891      -164.0545
  24   2.0000      -1.004422       -27.3317
  25   2.0000      -0.983639       -26.7662
  26   2.0000      -0.913653       -24.8618
  27   2.0000      -0.905690       -24.6451
  28   2.0000      -0.866743       -23.5853
  29   2.0000      -0.853789       -23.2328
  30   2.0000      -0.844404       -22.9774
  31   2.0000      -0.813484       -22.1360
  32   2.0000      -0.782908       -21.3040
  33   2.0000      -0.770938       -20.9783
  34   2.0000      -0.711342       -19.3566
  35   2.0000      -0.705503       -19.1977
  36   2.0000      -0.685272       -18.6472
  37   2.0000      -0.663749       -18.0615
  38   2.0000      -0.638484       -17.3740
  39   2.0000      -0.615332       -16.7440
  40   2.0000      -0.593233       -16.1427
  41   2.0000      -0.571508       -15.5515
  42   2.0000      -0.560954       -15.2643
  43   2.0000      -0.549107       -14.9420
  44   2.0000      -0.542775       -14.7697
  45   2.0000      -0.526144       -14.3171
  46   2.0000      -0.514842       -14.0096
  47   2.0000      -0.510927       -13.9030
  48   2.0000      -0.499465       -13.5911
  49   2.0000      -0.493914       -13.4401
  50   2.0000      -0.484868       -13.1939
  51   2.0000      -0.482925       -13.1411
  52   2.0000      -0.471828       -12.8391
  53   2.0000      -0.465703       -12.6724
  54   2.0000      -0.461217       -12.5503
  55   2.0000      -0.451779       -12.2935
  56   2.0000      -0.446608       -12.1528
  57   2.0000      -0.435390       -11.8476
  58   2.0000      -0.430426       -11.7125
  59   2.0000      -0.427807       -11.6412
  60   2.0000      -0.420034       -11.4297
  61   2.0000      -0.417716       -11.3666
  62   2.0000      -0.413172       -11.2430
  63   2.0000      -0.341508        -9.2929
  64   2.0000      -0.331534        -9.0215
  65   2.0000      -0.327957        -8.9242
  66   2.0000      -0.292853        -7.9689
  67   0.0000       0.028308         0.7703
  68   0.0000       0.067886         1.8473
  69   0.0000       0.105930         2.8825
  70   0.0000       0.113475         3.0878
  71   0.0000       0.123846         3.3700

MULLIKEN ATOMIC CHARGES
-----------------------
   0 S :    0.114262
   1 C :   -0.115266
   2 C :   -0.064834
   3 C :   -0.005180
   4 C :   -0.154588
   5 H :    0.053253
   6 C :    0.092898
   7 H :    0.019481
   8 H :    0.012220
   9 C :   -0.055991
  10 H :    0.026298
  11 H :    0.021314
  12 C :   -0.027727
  13 H :    0.030282
  14 H :    0.020985
  15 H :    0.012405
  16 S :    0.096229
  17 C :   -0.121501
  18 C :    0.003108
  19 C :   -0.004119
  20 C :   -0.189210
  21 H :   -0.025006
  22 C :    0.069687
  23 H :    0.046297
  24 H :    0.008339
  25 C :   -0.104857
  26 H :    0.037481
  27 H :    0.046970
  28 C :   -0.014636
  29 H :    0.020957
  30 H :    0.019463
  31 H :    0.015785
  32 H :    0.040646
  33 H :    0.074551
Sum of atomic charges:   -0.0000000

LOEWDIN ATOMIC CHARGES
----------------------
   0 S :    0.401379
   1 C :   -0.188245
   2 C :   -0.055400
   3 C :   -0.068956
   4 C :   -0.196301
   5 H :    0.048595
   6 C :   -0.017138
   7 H :    0.031875
   8 H :    0.020664
   9 C :   -0.034036
  10 H :    0.027646
  11 H :    0.018240
  12 C :   -0.067708
  13 H :    0.024792
  14 H :    0.023845
  15 H :    0.021890
  16 S :    0.403067
  17 C :   -0.197263
  18 C :   -0.067832
  19 C :   -0.057944
  20 C :   -0.188592
  21 H :    0.013570
  22 C :   -0.038553
  23 H :    0.043845
  24 H :    0.014740
  25 C :   -0.036178
  26 H :    0.024636
  27 H :    0.034557
  28 C :   -0.063634
  29 H :    0.019400
  30 H :    0.021318
  31 H :    0.020254
  32 H :    0.023341
  33 H :    0.040124

  Mayer bond orders larger than 0.100000
B(  0-S ,  1-C ) :   1.1277 B(  0-S ,  4-C ) :   1.1539 B(  1-C ,  2-C ) :   1.6091
B(  1-C , 32-H ) :   0.9706 B(  2-C ,  3-C ) :   1.2313 B(  2-C ,  6-C ) :   1.0184
B(  3-C ,  4-C ) :   1.5844 B(  3-C ,  5-H ) :   0.9755 B(  4-C , 20-C ) :   1.0096
B(  6-C ,  7-H ) :   0.9402 B(  6-C ,  8-H ) :   0.9506 B(  6-C ,  9-C ) :   1.0510
B(  9-C , 10-H ) :   0.9549 B(  9-C , 11-H ) :   0.9594 B(  9-C , 12-C ) :   1.0816
B( 12-C , 13-H ) :   0.9724 B( 12-C , 14-H ) :   0.9718 B( 12-C , 15-H ) :   0.9714
B( 16-S , 17-C ) :   1.1545 B( 16-S , 20-C ) :   1.1540 B( 17-C , 18-C ) :   1.6007
B( 17-C , 33-H ) :   0.9622 B( 18-C , 19-C ) :   1.2298 B( 18-C , 21-H ) :   1.0079
B( 19-C , 20-C ) :   1.5600 B( 19-C , 22-C ) :   1.0513 B( 22-C , 23-H ) :   0.9427
B( 22-C , 24-H ) :   0.9250 B( 22-C , 25-C ) :   1.0508 B( 25-C , 26-H ) :   0.9592
B( 25-C , 27-H ) :   0.9581 B( 25-C , 28-C ) :   1.0687 B( 28-C , 29-H ) :   0.9769
B( 28-C , 30-H ) :   0.9745 B( 28-C , 31-H ) :   0.9748

Dispersion correction           -0.014750143
FINAL SINGLE POINT ENERGY     -1339.863182569084

DIPOLE MOMENT
-------------
                                X             Y             Z
Electronic contribution:     -9.66641       8.58392      19.70318
Nuclear contribution   :      9.76985      -8.76967     -20.07907
                        -----------------------------------------
Total Dipole Moment    :      0.10345      -0.18575      -0.37589
                        -----------------------------------------
Magnitude (a.u.)       :      0.43185
Magnitude (Debye)      :      1.09768

Rotational constants in cm-1:     0.019501     0.007932     0.007297
Rotational constants in MHz :   584.624867   237.786574   218.770605

                             ****ORCA TERMINATED NORMALLY****
TOTAL RUN TIME: 0 days 0 hours 0 minutes 28 seconds 999 msec
