                         Program Version 4.2.1 -  RELEASE  -
|  1> ! wB97X-D3 SP def2-SVP
|  2> %pal
|  3> nprocs 16
|  4> end
|  5>
|  6> * xyz 0 1
|  7> S 	 -38.1468 	 28.4569 	 83.3972
|  8> C 	 -38.8315 	 28.4393 	 81.765
|  9> C 	 -38.9233 	 27.1466 	 81.2882
| 10> C 	 -38.5367 	 26.1865 	 82.2873
| 11> C 	 -38.0265 	 26.7301 	 83.4517
| 12> H 	 -38.5816 	 25.0859 	 82.2566
| 13> C 	 -39.4564 	 26.7998 	 79.9387
| 14> H 	 -38.6219 	 26.2969 	 79.4426
| 15> H 	 -39.5138 	 27.7399 	 79.4228
| 16> C 	 -40.7371 	 25.9275 	 79.8239
| 17> H 	 -41.3041 	 26.0265 	 78.9036
| 18> H 	 -40.4435 	 24.9364 	 79.8242
| 19> C 	 -41.7121 	 26.2235 	 80.9371
| 20> H 	 -41.2796 	 26.0787 	 82.0062
| 21> H 	 -42.0901 	 27.2651 	 80.8318
| 22> H 	 -42.5557 	 25.4884 	 80.8252
| 23> S 	 -38.5092 	 25.9731 	 86.0483
| 24> C 	 -37.3812 	 24.8459 	 86.8052
| 25> C 	 -36.2901 	 24.6667 	 85.9942
| 26> C 	 -36.4524 	 25.2218 	 84.7366
| 27> C 	 -37.508 	 26.0661 	 84.6534
| 28> H 	 -35.4753 	 24.0653 	 86.2614
| 29> C 	 -35.3836 	 25.0022 	 83.6447
| 30> H 	 -35.8729 	 24.8511 	 82.613
| 31> H 	 -34.864 	 24.135 	 83.9238
| 32> C 	 -34.3014 	 26.1046 	 83.4129
| 33> H 	 -34.7374 	 27.0065 	 82.9223
| 34> H 	 -33.5628 	 25.7757 	 82.6654
| 35> C 	 -33.6815 	 26.4856 	 84.7536
| 36> H 	 -34.3339 	 26.7201 	 85.6406
| 37> H 	 -33.0771 	 27.4078 	 84.7412
| 38> H 	 -32.9495 	 25.7969 	 85.1753
| 39> H 	 -39.0821 	 29.3128 	 81.24
| 40> H 	 -37.4812 	 24.4424 	 87.8042
| 41> *
| 42>
| 43>                          ****END OF INPUT****

CARTESIAN COORDINATES (ANGSTROEM)
---------------------------------
  S    -38.146800   28.456900   83.397200
  C    -38.831500   28.439300   81.765000
  C    -38.923300   27.146600   81.288200
  C    -38.536700   26.186500   82.287300
  C    -38.026500   26.730100   83.451700
  H    -38.581600   25.085900   82.256600
  C    -39.456400   26.799800   79.938700
  H    -38.621900   26.296900   79.442600
  H    -39.513800   27.739900   79.422800
  C    -40.737100   25.927500   79.823900
  H    -41.304100   26.026500   78.903600
  H    -40.443500   24.936400   79.824200
  C    -41.712100   26.223500   80.937100
  H    -41.279600   26.078700   82.006200
  H    -42.090100   27.265100   80.831800
  H    -42.555700   25.488400   80.825200
  S    -38.509200   25.973100   86.048300
  C    -37.381200   24.845900   86.805200
  C    -36.290100   24.666700   85.994200
  C    -36.452400   25.221800   84.736600
  C    -37.508000   26.066100   84.653400
  H    -35.475300   24.065300   86.261400
  C    -35.383600   25.002200   83.644700
  H    -35.872900   24.851100   82.613000
  H    -34.864000   24.135000   83.923800
  C    -34.301400   26.104600   83.412900
  H    -34.737400   27.006500   82.922300
  H    -33.562800   25.775700   82.665400
  C    -33.681500   26.485600   84.753600
  H    -34.333900   26.720100   85.640600
  H    -33.077100   27.407800   84.741200
  H    -32.949500   25.796900   85.175300
  H    -39.082100   29.312800   81.240000
  H    -37.481200   24.442400   87.804200

 Total Charge           Charge          ....    0
 Multiplicity           Mult            ....    1
 Number of Electrons    NEL             ....  134
 Basis Dimension        Dim             ....  322

ORBITAL ENERGIES
----------------

  NO   OCC          E(Eh)            E(eV)
   0   2.0000     -88.966966     -2420.9142
   1   2.0000     -88.961873     -2420.7756
   2   2.0000     -10.327047      -281.0132
   3   2.0000     -10.319506      -280.8080
   4   2.0000     -10.318636      -280.7844
   5   2.0000     -10.311242      -280.5832
   6   2.0000     -10.301939      -280.3300
   7   2.0000     -10.295379      -280.1515
   8   2.0000     -10.295109      -280.1442
   9   2.0000     -10.293190      -280.0919
  10   2.0000     -10.290972      -280.0316
  11   2.0000     -10.288224      -279.9568
  12   2.0000     -10.286528      -279.9107
  13   2.0000     -10.282505      -279.8012
  14   2.0000     -10.280787      -279.7544
  15   2.0000     -10.274740      -279.5899
  16   2.0000      -8.082057      -219.9240
  17   2.0000      -8.076794      -219.7807
  18   2.0000      -6.040488      -164.3700
  19   2.0000      -6.036467      -164.2606
  20   2.0000      -6.035246      -164.2274
  21   2.0000      -6.032920      -164.1641
  22   2.0000      -6.031211      -164.1176
  23   2.0000      -6.027676      -164.0214
  24   2.0000      -1.013084       -27.5674
  25   2.0000      -0.987622       -26.8746
  26   2.0000      -0.913789       -24.8655
  27   2.0000      -0.902230       -24.5509
  28   2.0000      -0.871146       -23.7051
  29   2.0000      -0.847407       -23.0591
  30   2.0000      -0.843146       -22.9432
  31   2.0000      -0.815981       -22.2040
  32   2.0000      -0.781072       -21.2541
  33   2.0000      -0.771914       -21.0049
  34   2.0000      -0.710138       -19.3238
  35   2.0000      -0.698815       -19.0157
  36   2.0000      -0.690515       -18.7899
  37   2.0000      -0.669038       -18.2055
  38   2.0000      -0.643470       -17.5097
  39   2.0000      -0.615541       -16.7497
  40   2.0000      -0.591106       -16.0848
  41   2.0000      -0.563555       -15.3351
  42   2.0000      -0.555572       -15.1179
  43   2.0000      -0.548383       -14.9223
  44   2.0000      -0.546183       -14.8624
  45   2.0000      -0.539307       -14.6753
  46   2.0000      -0.515945       -14.0396
  47   2.0000      -0.513616       -13.9762
  48   2.0000      -0.505057       -13.7433
  49   2.0000      -0.492665       -13.4061
  50   2.0000      -0.481631       -13.1058
  51   2.0000      -0.479627       -13.0513
  52   2.0000      -0.469352       -12.7717
  53   2.0000      -0.465323       -12.6621
  54   2.0000      -0.460365       -12.5272
  55   2.0000      -0.443812       -12.0767
  56   2.0000      -0.438439       -11.9305
  57   2.0000      -0.432591       -11.7714
  58   2.0000      -0.427613       -11.6360
  59   2.0000      -0.419877       -11.4254
  60   2.0000      -0.418360       -11.3841
  61   2.0000      -0.416562       -11.3352
  62   2.0000      -0.410708       -11.1759
  63   2.0000      -0.342748        -9.3266
  64   2.0000      -0.329587        -8.9685
  65   2.0000      -0.327267        -8.9054
  66   2.0000      -0.304292        -8.2802
  67   0.0000       0.040573         1.1041
  68   0.0000       0.062700         1.7062
  69   0.0000       0.121541         3.3073
  70   0.0000       0.122170         3.3244
  71   0.0000       0.127568         3.4713

MULLIKEN ATOMIC CHARGES
-----------------------
   0 S :    0.099232
   1 C :   -0.105262
   2 C :   -0.129608
   3 C :    0.044309
   4 C :   -0.190785
   5 H :    0.020880
   6 C :    0.107764
   7 H :    0.031598
   8 H :    0.004552
   9 C :   -0.027768
  10 H :    0.029425
  11 H :    0.009460
  12 C :   -0.099565
  13 H :    0.060282
  14 H :    0.039878
  15 H :    0.037976
  16 S :    0.120534
  17 C :   -0.094828
  18 C :   -0.005260
  19 C :   -0.049245
  20 C :   -0.146677
  21 H :   -0.002196
  22 C :    0.079412
  23 H :    0.039590
  24 H :    0.004449
  25 C :   -0.036259
  26 H :    0.039451
  27 H :    0.036412
  28 C :   -0.099827
  29 H :    0.050617
  30 H :    0.023336
  31 H :    0.020435
  32 H :    0.030215
  33 H :    0.057474
Sum of atomic charges:    0.0000000

LOEWDIN ATOMIC CHARGES
----------------------
   0 S :    0.401144
   1 C :   -0.183801
   2 C :   -0.061580
   3 C :   -0.069645
   4 C :   -0.196126
   5 H :    0.035157
   6 C :   -0.032804
   7 H :    0.036138
   8 H :    0.026541
   9 C :   -0.039812
  10 H :    0.030303
  11 H :    0.013643
  12 C :   -0.075433
  13 H :    0.037262
  14 H :    0.027440
  15 H :    0.028169
  16 S :    0.420904
  17 C :   -0.174286
  18 C :   -0.064391
  19 C :   -0.058702
  20 C :   -0.217072
  21 H :    0.024192
  22 C :   -0.026874
  23 H :    0.039272
  24 H :    0.018381
  25 C :   -0.039688
  26 H :    0.029472
  27 H :    0.029899
  28 C :   -0.088512
  29 H :    0.035575
  30 H :    0.026678
  31 H :    0.021231
  32 H :    0.017459
  33 H :    0.029865

  Mayer bond orders larger than 0.100000
B(  0-S ,  1-C ) :   1.1339 B(  0-S ,  4-C ) :   1.1610 B(  1-C ,  2-C ) :   1.6108
B(  1-C , 32-H ) :   0.9752 B(  2-C ,  3-C ) :   1.2060 B(  2-C ,  6-C ) :   1.0350
B(  3-C ,  4-C ) :   1.6109 B(  3-C ,  5-H ) :   0.9898 B(  4-C , 20-C ) :   0.9848
B(  6-C ,  7-H ) :   0.9340 B(  6-C ,  8-H ) :   0.9322 B(  6-C ,  9-C ) :   1.0497
B(  9-C , 10-H ) :   0.9561 B(  9-C , 11-H ) :   0.9487 B(  9-C , 12-C ) :   1.0981
B( 12-C , 13-H ) :   0.9625 B( 12-C , 14-H ) :   0.9764 B( 12-C , 15-H ) :   0.9727
B( 16-S , 17-C ) :   1.1622 B( 16-S , 20-C ) :   1.1591 B( 17-C , 18-C ) :   1.5848
B( 17-C , 20-C ) :   0.1022 B( 17-C , 33-H ) :   0.9687 B( 18-C , 19-C ) :   1.2628
B( 18-C , 21-H ) :   0.9957 B( 19-C , 20-C ) :   1.6023 B( 19-C , 22-C ) :   1.0467
B( 22-C , 23-H ) :   0.9320 B( 22-C , 24-H ) :   0.9320 B( 22-C , 25-C ) :   1.0719
B( 25-C , 26-H ) :   0.9565 B( 25-C , 27-H ) :   0.9553 B( 25-C , 28-C ) :   1.0640
B( 28-C , 29-H ) :   0.9721 B( 28-C , 30-H ) :   0.9725 B( 28-C , 31-H ) :   0.9761

Dispersion correction           -0.015579827
FINAL SINGLE POINT ENERGY     -1339.880167431314

DIPOLE MOMENT
-------------
                                X             Y             Z
Electronic contribution:     -4.49710       6.00964      14.88228
Nuclear contribution   :      4.68995      -6.42073     -15.25619
                        -----------------------------------------
Total Dipole Moment    :      0.19285      -0.41109      -0.37391
                        -----------------------------------------
Magnitude (a.u.)       :      0.58821
Magnitude (Debye)      :      1.49510

Rotational constants in cm-1:     0.021420     0.008555     0.007638
Rotational constants in MHz :   642.142670   256.480750   228.968917

                             ****ORCA TERMINATED NORMALLY****
TOTAL RUN TIME: 0 days 0 hours 0 minutes 31 seconds 453 msec
