                         Program Version 4.2.1 -  RELEASE  -
|  1> ! wB97X-D3 SP def2-SVP
|  2> %pal
|  3> nprocs 16
|  4> end
|  5>
|  6> * xyz 0 1
|  7> S 	 -5.17905 	 34.135 	 51.0125
|  8> C 	 -4.09842 	 33.6431 	 52.366
|  9> C 	 -2.84377 	 33.2768 	 51.8428
| 10> C 	 -2.73769 	 33.5695 	 50.4545
| 11> C 	 -3.93386 	 33.9076 	 49.8481
| 12> H 	 -1.88817 	 33.4583 	 49.837
| 13> C 	 -1.69967 	 32.7919 	 52.7022
| 14> H 	 -2.1941 	 32.4069 	 53.5379
| 15> H 	 -1.16303 	 33.7746 	 52.9145
| 16> C 	 -0.785306 	 31.7421 	 52.1052
| 17> H 	 -0.430003 	 32.1056 	 51.1326
| 18> H 	 0.163562 	 31.7113 	 52.6866
| 19> C 	 -1.3455 	 30.3989 	 52.0184
| 20> H 	 -1.34262 	 30.1139 	 53.0776
| 21> H 	 -2.39688 	 30.3898 	 51.6927
| 22> H 	 -0.681066 	 29.7381 	 51.5434
| 23> S 	 -5.55611 	 32.9582 	 47.7729
| 24> C 	 -5.14282 	 33.2458 	 46.119
| 25> C 	 -3.93714 	 33.9307 	 46.059
| 26> C 	 -3.39145 	 34.2893 	 47.3595
| 27> C 	 -4.18991 	 33.8942 	 48.4102
| 28> H 	 -3.43315 	 34.1501 	 45.0954
| 29> C 	 -2.09419 	 35.1236 	 47.4413
| 30> H 	 -1.97562 	 35.4573 	 48.4568
| 31> H 	 -2.25451 	 36.0241 	 46.845
| 32> C 	 -0.927864 	 34.3814 	 46.9146
| 33> H 	 -1.20063 	 34.072 	 45.9397
| 34> H 	 -0.720231 	 33.5168 	 47.4527
| 35> C 	 0.311249 	 35.2908 	 46.886
| 36> H 	 1.19275 	 34.8114 	 46.3641
| 37> H 	 0.709784 	 35.3015 	 47.902
| 38> H 	 0.111842 	 36.2851 	 46.4826
| 39> H 	 -4.37734 	 33.6961 	 53.3956
| 40> H 	 -5.64293 	 32.8003 	 45.2429
| 41> *
| 42>
| 43>                          ****END OF INPUT****

CARTESIAN COORDINATES (ANGSTROEM)
---------------------------------
  S     -5.179050   34.135000   51.012500
  C     -4.098420   33.643100   52.366000
  C     -2.843770   33.276800   51.842800
  C     -2.737690   33.569500   50.454500
  C     -3.933860   33.907600   49.848100
  H     -1.888170   33.458300   49.837000
  C     -1.699670   32.791900   52.702200
  H     -2.194100   32.406900   53.537900
  H     -1.163030   33.774600   52.914500
  C     -0.785306   31.742100   52.105200
  H     -0.430003   32.105600   51.132600
  H      0.163562   31.711300   52.686600
  C     -1.345500   30.398900   52.018400
  H     -1.342620   30.113900   53.077600
  H     -2.396880   30.389800   51.692700
  H     -0.681066   29.738100   51.543400
  S     -5.556110   32.958200   47.772900
  C     -5.142820   33.245800   46.119000
  C     -3.937140   33.930700   46.059000
  C     -3.391450   34.289300   47.359500
  C     -4.189910   33.894200   48.410200
  H     -3.433150   34.150100   45.095400
  C     -2.094190   35.123600   47.441300
  H     -1.975620   35.457300   48.456800
  H     -2.254510   36.024100   46.845000
  C     -0.927864   34.381400   46.914600
  H     -1.200630   34.072000   45.939700
  H     -0.720231   33.516800   47.452700
  C      0.311249   35.290800   46.886000
  H      1.192750   34.811400   46.364100
  H      0.709784   35.301500   47.902000
  H      0.111842   36.285100   46.482600
  H     -4.377340   33.696100   53.395600
  H     -5.642930   32.800300   45.242900

 Total Charge           Charge          ....    0
 Multiplicity           Mult            ....    1
 Number of Electrons    NEL             ....  134
 Basis Dimension        Dim             ....  322

ORBITAL ENERGIES
----------------

  NO   OCC          E(Eh)            E(eV)
   0   2.0000     -88.966651     -2420.9056
   1   2.0000     -88.963659     -2420.8242
   2   2.0000     -10.329881      -281.0904
   3   2.0000     -10.328686      -281.0578
   4   2.0000     -10.320195      -280.8268
   5   2.0000     -10.317380      -280.7502
   6   2.0000     -10.305570      -280.4288
   7   2.0000     -10.303457      -280.3713
   8   2.0000     -10.298254      -280.2297
   9   2.0000     -10.292042      -280.0607
  10   2.0000     -10.290236      -280.0116
  11   2.0000     -10.287310      -279.9319
  12   2.0000     -10.284141      -279.8457
  13   2.0000     -10.282697      -279.8064
  14   2.0000     -10.276019      -279.6247
  15   2.0000     -10.270573      -279.4765
  16   2.0000      -8.080986      -219.8948
  17   2.0000      -8.078440      -219.8255
  18   2.0000      -6.039527      -164.3439
  19   2.0000      -6.037087      -164.2775
  20   2.0000      -6.035442      -164.2327
  21   2.0000      -6.032856      -164.1624
  22   2.0000      -6.031844      -164.1348
  23   2.0000      -6.029117      -164.0606
  24   2.0000      -1.005721       -27.3671
  25   2.0000      -0.982131       -26.7251
  26   2.0000      -0.923903       -25.1407
  27   2.0000      -0.919551       -25.0223
  28   2.0000      -0.872756       -23.7489
  29   2.0000      -0.852976       -23.2107
  30   2.0000      -0.841695       -22.9037
  31   2.0000      -0.815573       -22.1929
  32   2.0000      -0.783632       -21.3237
  33   2.0000      -0.773815       -21.0566
  34   2.0000      -0.709895       -19.3172
  35   2.0000      -0.703268       -19.1369
  36   2.0000      -0.692213       -18.8361
  37   2.0000      -0.657114       -17.8810
  38   2.0000      -0.641026       -17.4432
  39   2.0000      -0.622942       -16.9511
  40   2.0000      -0.596678       -16.2364
  41   2.0000      -0.577441       -15.7130
  42   2.0000      -0.570508       -15.5243
  43   2.0000      -0.562637       -15.3101
  44   2.0000      -0.542288       -14.7564
  45   2.0000      -0.528234       -14.3740
  46   2.0000      -0.521212       -14.1829
  47   2.0000      -0.513306       -13.9678
  48   2.0000      -0.510500       -13.8914
  49   2.0000      -0.499742       -13.5987
  50   2.0000      -0.491844       -13.3838
  51   2.0000      -0.478380       -13.0174
  52   2.0000      -0.477703       -12.9989
  53   2.0000      -0.464164       -12.6305
  54   2.0000      -0.459535       -12.5046
  55   2.0000      -0.449448       -12.2301
  56   2.0000      -0.446435       -12.1481
  57   2.0000      -0.442238       -12.0339
  58   2.0000      -0.440367       -11.9830
  59   2.0000      -0.424291       -11.5456
  60   2.0000      -0.420829       -11.4513
  61   2.0000      -0.410728       -11.1765
  62   2.0000      -0.405187       -11.0257
  63   2.0000      -0.351109        -9.5541
  64   2.0000      -0.330305        -8.9881
  65   2.0000      -0.327357        -8.9078
  66   2.0000      -0.288979        -7.8635
  67   0.0000       0.027601         0.7510
  68   0.0000       0.072989         1.9861
  69   0.0000       0.117049         3.1851
  70   0.0000       0.118272         3.2183
  71   0.0000       0.125855         3.4247

MULLIKEN ATOMIC CHARGES
-----------------------
   0 S :    0.105253
   1 C :   -0.126316
   2 C :   -0.118103
   3 C :    0.047153
   4 C :   -0.159711
   5 H :   -0.016203
   6 C :    0.089044
   7 H :   -0.000955
   8 H :    0.060472
   9 C :   -0.083035
  10 H :    0.012215
  11 H :    0.025843
  12 C :   -0.005029
  13 H :    0.016190
  14 H :    0.049643
  15 H :    0.028673
  16 S :    0.100082
  17 C :   -0.098556
  18 C :   -0.049150
  19 C :   -0.065384
  20 C :   -0.117354
  21 H :    0.033540
  22 C :    0.068301
  23 H :    0.014113
  24 H :    0.029272
  25 C :   -0.030796
  26 H :    0.007646
  27 H :    0.011675
  28 C :   -0.051229
  29 H :    0.035893
  30 H :    0.026785
  31 H :    0.039852
  32 H :    0.045778
  33 H :    0.074397
Sum of atomic charges:   -0.0000000

LOEWDIN ATOMIC CHARGES
----------------------
   0 S :    0.402841
   1 C :   -0.190461
   2 C :   -0.055808
   3 C :   -0.064912
   4 C :   -0.195963
   5 H :    0.021188
   6 C :   -0.029126
   7 H :    0.019677
   8 H :    0.050050
   9 C :   -0.049255
  10 H :    0.015495
  11 H :    0.029066
  12 C :   -0.059478
  13 H :    0.029544
  14 H :    0.033228
  15 H :    0.023107
  16 S :    0.402385
  17 C :   -0.197497
  18 C :   -0.078526
  19 C :   -0.056535
  20 C :   -0.193213
  21 H :    0.033983
  22 C :   -0.025416
  23 H :    0.023121
  24 H :    0.033284
  25 C :   -0.034172
  26 H :    0.016820
  27 H :    0.016012
  28 C :   -0.066575
  29 H :    0.031596
  30 H :    0.026134
  31 H :    0.025158
  32 H :    0.023798
  33 H :    0.040451

  Mayer bond orders larger than 0.100000
B(  0-S ,  1-C ) :   1.1256 B(  0-S ,  4-C ) :   1.1670 B(  1-C ,  2-C ) :   1.5840
B(  1-C ,  4-C ) :   0.1024 B(  1-C , 32-H ) :   0.9777 B(  2-C ,  3-C ) :   1.2497
B(  2-C ,  6-C ) :   1.0131 B(  3-C ,  4-C ) :   1.5525 B(  3-C ,  5-H ) :   0.9948
B(  4-C , 20-C ) :   1.0370 B(  6-C ,  7-H ) :   0.9380 B(  6-C ,  8-H ) :   0.9312
B(  6-C ,  9-C ) :   1.0836 B(  9-C , 10-H ) :   0.9480 B(  9-C , 11-H ) :   0.9502
B(  9-C , 12-C ) :   1.0809 B( 12-C , 13-H ) :   0.9680 B( 12-C , 14-H ) :   0.9758
B( 12-C , 15-H ) :   0.9673 B( 16-S , 17-C ) :   1.1563 B( 16-S , 20-C ) :   1.1274
B( 17-C , 18-C ) :   1.6050 B( 17-C , 33-H ) :   0.9643 B( 18-C , 19-C ) :   1.2379
B( 18-C , 21-H ) :   0.9815 B( 19-C , 20-C ) :   1.6152 B( 19-C , 22-C ) :   1.0347
B( 22-C , 23-H ) :   0.9356 B( 22-C , 24-H ) :   0.9360 B( 22-C , 25-C ) :   1.0669
B( 25-C , 26-H ) :   0.9512 B( 25-C , 27-H ) :   0.9495 B( 25-C , 28-C ) :   1.0867
B( 28-C , 29-H ) :   0.9727 B( 28-C , 30-H ) :   0.9733 B( 28-C , 31-H ) :   0.9740

Dispersion correction           -0.014159916
FINAL SINGLE POINT ENERGY     -1339.876936809541

DIPOLE MOMENT
-------------
                                X             Y             Z
Electronic contribution:    -28.40628       3.24448      -1.27878
Nuclear contribution   :     29.20220      -3.36946       1.24555
                        -----------------------------------------
Total Dipole Moment    :      0.79593      -0.12498      -0.03323
                        -----------------------------------------
Magnitude (a.u.)       :      0.80636
Magnitude (Debye)      :      2.04961

Rotational constants in cm-1:     0.015765     0.009842     0.007328
Rotational constants in MHz :   472.611766   295.066307   219.674112

                             ****ORCA TERMINATED NORMALLY****
TOTAL RUN TIME: 0 days 0 hours 0 minutes 33 seconds 319 msec
