                         Program Version 4.2.1 -  RELEASE  -
|  1> ! wB97X-D3 SP def2-SVP
|  2> %pal
|  3> nprocs 16
|  4> end
|  5>
|  6> * xyz 0 1
|  7> S 	 -20.9444 	 0.42639 	 81.2288
|  8> C 	 -19.5499 	 1.45094 	 81.2121
|  9> C 	 -18.5499 	 0.849864 	 81.9625
| 10> C 	 -18.675 	 -0.584287 	 81.8802
| 11> C 	 -19.9534 	 -0.978015 	 81.3806
| 12> H 	 -17.9547 	 -1.24935 	 82.3767
| 13> C 	 -17.2125 	 1.46513 	 82.32
| 14> H 	 -17.4023 	 2.52054 	 82.4762
| 15> H 	 -16.5638 	 1.41397 	 81.4985
| 16> C 	 -16.5195 	 0.855317 	 83.5313
| 17> H 	 -17.1873 	 0.554975 	 84.2928
| 18> H 	 -15.9899 	 0.0023448 	 83.1963
| 19> C 	 -15.5222 	 1.81335 	 84.1159
| 20> H 	 -15.2439 	 1.54395 	 85.1043
| 21> H 	 -14.6116 	 1.96812 	 83.577
| 22> H 	 -16.0789 	 2.75162 	 84.1818
| 23> S 	 -21.9533 	 -2.54755 	 82.4845
| 24> C 	 -21.9903 	 -4.29409 	 82.3035
| 25> C 	 -20.9597 	 -4.59646 	 81.4987
| 26> C 	 -20.0834 	 -3.51382 	 81.0621
| 27> C 	 -20.5186 	 -2.31797 	 81.5073
| 28> H 	 -20.8663 	 -5.60079 	 81.1403
| 29> C 	 -18.923 	 -3.7444 	 80.06
| 30> H 	 -18.4665 	 -2.92223 	 79.6271
| 31> H 	 -19.341 	 -4.41895 	 79.192
| 32> C 	 -17.646 	 -4.32991 	 80.7228
| 33> H 	 -17.9246 	 -5.21112 	 81.3056
| 34> H 	 -17.2187 	 -3.63931 	 81.4501
| 35> C 	 -16.6381 	 -4.66269 	 79.6377
| 36> H 	 -15.6771 	 -5.20504 	 80.0005
| 37> H 	 -16.3611 	 -3.83538 	 79.0021
| 38> H 	 -17.0051 	 -5.39172 	 78.8848
| 39> H 	 -19.5145 	 2.51521 	 80.8949
| 40> H 	 -22.6557 	 -5.05959 	 82.75
| 41> *
| 42>
| 43>                          ****END OF INPUT****

CARTESIAN COORDINATES (ANGSTROEM)
---------------------------------
  S    -20.944400    0.426390   81.228800
  C    -19.549900    1.450940   81.212100
  C    -18.549900    0.849864   81.962500
  C    -18.675000   -0.584287   81.880200
  C    -19.953400   -0.978015   81.380600
  H    -17.954700   -1.249350   82.376700
  C    -17.212500    1.465130   82.320000
  H    -17.402300    2.520540   82.476200
  H    -16.563800    1.413970   81.498500
  C    -16.519500    0.855317   83.531300
  H    -17.187300    0.554975   84.292800
  H    -15.989900    0.002345   83.196300
  C    -15.522200    1.813350   84.115900
  H    -15.243900    1.543950   85.104300
  H    -14.611600    1.968120   83.577000
  H    -16.078900    2.751620   84.181800
  S    -21.953300   -2.547550   82.484500
  C    -21.990300   -4.294090   82.303500
  C    -20.959700   -4.596460   81.498700
  C    -20.083400   -3.513820   81.062100
  C    -20.518600   -2.317970   81.507300
  H    -20.866300   -5.600790   81.140300
  C    -18.923000   -3.744400   80.060000
  H    -18.466500   -2.922230   79.627100
  H    -19.341000   -4.418950   79.192000
  C    -17.646000   -4.329910   80.722800
  H    -17.924600   -5.211120   81.305600
  H    -17.218700   -3.639310   81.450100
  C    -16.638100   -4.662690   79.637700
  H    -15.677100   -5.205040   80.000500
  H    -16.361100   -3.835380   79.002100
  H    -17.005100   -5.391720   78.884800
  H    -19.514500    2.515210   80.894900
  H    -22.655700   -5.059590   82.750000

 Total Charge           Charge          ....    0
 Multiplicity           Mult            ....    1
 Number of Electrons    NEL             ....  134
 Basis Dimension        Dim             ....  322

ORBITAL ENERGIES
----------------

  NO   OCC          E(Eh)            E(eV)
   0   2.0000     -88.968171     -2420.9470
   1   2.0000     -88.957949     -2420.6689
   2   2.0000     -10.333120      -281.1785
   3   2.0000     -10.324316      -280.9389
   4   2.0000     -10.318131      -280.7706
   5   2.0000     -10.316227      -280.7188
   6   2.0000     -10.302820      -280.3540
   7   2.0000     -10.302044      -280.3329
   8   2.0000     -10.299951      -280.2759
   9   2.0000     -10.295218      -280.1471
  10   2.0000     -10.288438      -279.9626
  11   2.0000     -10.286747      -279.9166
  12   2.0000     -10.285866      -279.8926
  13   2.0000     -10.284004      -279.8420
  14   2.0000     -10.278745      -279.6989
  15   2.0000     -10.271872      -279.5119
  16   2.0000      -8.083586      -219.9656
  17   2.0000      -8.073018      -219.6780
  18   2.0000      -6.042067      -164.4130
  19   2.0000      -6.038303      -164.3106
  20   2.0000      -6.034008      -164.1937
  21   2.0000      -6.031823      -164.1342
  22   2.0000      -6.027455      -164.0154
  23   2.0000      -6.023429      -163.9058
  24   2.0000      -1.011309       -27.5191
  25   2.0000      -0.988980       -26.9115
  26   2.0000      -0.922577       -25.1046
  27   2.0000      -0.906561       -24.6688
  28   2.0000      -0.875755       -23.8305
  29   2.0000      -0.853027       -23.2121
  30   2.0000      -0.839530       -22.8448
  31   2.0000      -0.814402       -22.1610
  32   2.0000      -0.781659       -21.2700
  33   2.0000      -0.769730       -20.9454
  34   2.0000      -0.715468       -19.4689
  35   2.0000      -0.697579       -18.9821
  36   2.0000      -0.692938       -18.8558
  37   2.0000      -0.657697       -17.8969
  38   2.0000      -0.636025       -17.3071
  39   2.0000      -0.621949       -16.9241
  40   2.0000      -0.601352       -16.3636
  41   2.0000      -0.585517       -15.9327
  42   2.0000      -0.568346       -15.4655
  43   2.0000      -0.556373       -15.1397
  44   2.0000      -0.528545       -14.3825
  45   2.0000      -0.522752       -14.2248
  46   2.0000      -0.519042       -14.1238
  47   2.0000      -0.509844       -13.8736
  48   2.0000      -0.508213       -13.8292
  49   2.0000      -0.501367       -13.6429
  50   2.0000      -0.496593       -13.5130
  51   2.0000      -0.480115       -13.0646
  52   2.0000      -0.468364       -12.7448
  53   2.0000      -0.464789       -12.6475
  54   2.0000      -0.460070       -12.5191
  55   2.0000      -0.451867       -12.2959
  56   2.0000      -0.445890       -12.1333
  57   2.0000      -0.438959       -11.9447
  58   2.0000      -0.428461       -11.6590
  59   2.0000      -0.425911       -11.5896
  60   2.0000      -0.423045       -11.5116
  61   2.0000      -0.417668       -11.3653
  62   2.0000      -0.402300       -10.9471
  63   2.0000      -0.353182        -9.6106
  64   2.0000      -0.326744        -8.8911
  65   2.0000      -0.323839        -8.8121
  66   2.0000      -0.290776        -7.9124
  67   0.0000       0.024949         0.6789
  68   0.0000       0.066074         1.7980
  69   0.0000       0.098425         2.6783
  70   0.0000       0.123419         3.3584
  71   0.0000       0.132700         3.6109

MULLIKEN ATOMIC CHARGES
-----------------------
   0 S :    0.122533
   1 C :   -0.126773
   2 C :   -0.082503
   3 C :   -0.005260
   4 C :   -0.130186
   5 H :    0.036869
   6 C :    0.053720
   7 H :    0.010480
   8 H :    0.032718
   9 C :   -0.066340
  10 H :    0.028851
  11 H :    0.023593
  12 C :   -0.017033
  13 H :    0.020035
  14 H :    0.028583
  15 H :    0.019459
  16 S :    0.075547
  17 C :   -0.091713
  18 C :   -0.029382
  19 C :   -0.030721
  20 C :   -0.128282
  21 H :    0.008058
  22 C :    0.033273
  23 H :    0.004232
  24 H :    0.051006
  25 C :   -0.057003
  26 H :    0.024351
  27 H :    0.030697
  28 C :   -0.074309
  29 H :    0.045385
  30 H :    0.027421
  31 H :    0.024403
  32 H :    0.065302
  33 H :    0.072989
Sum of atomic charges:   -0.0000000

LOEWDIN ATOMIC CHARGES
----------------------
   0 S :    0.428338
   1 C :   -0.200112
   2 C :   -0.062073
   3 C :   -0.058102
   4 C :   -0.199856
   5 H :    0.032693
   6 C :   -0.027899
   7 H :    0.024005
   8 H :    0.029626
   9 C :   -0.035724
  10 H :    0.022976
  11 H :    0.019392
  12 C :   -0.054616
  13 H :    0.021812
  14 H :    0.022239
  15 H :    0.025768
  16 S :    0.382051
  17 C :   -0.191273
  18 C :   -0.071278
  19 C :   -0.069565
  20 C :   -0.188885
  21 H :    0.024577
  22 C :   -0.026782
  23 H :    0.017010
  24 H :    0.043589
  25 C :   -0.040334
  26 H :    0.020945
  27 H :    0.023539
  28 C :   -0.079546
  29 H :    0.035424
  30 H :    0.021492
  31 H :    0.026481
  32 H :    0.036666
  33 H :    0.047423

  Mayer bond orders larger than 0.100000
B(  0-S ,  1-C ) :   1.1539 B(  0-S ,  4-C ) :   1.1596 B(  1-C ,  2-C ) :   1.5726
B(  1-C ,  4-C ) :   0.1077 B(  1-C , 32-H ) :   0.9699 B(  2-C ,  3-C ) :   1.2562
B(  2-C ,  6-C ) :   1.0404 B(  3-C ,  4-C ) :   1.5204 B(  3-C ,  5-H ) :   0.9842
B(  4-C , 20-C ) :   1.0424 B(  6-C ,  7-H ) :   0.9447 B(  6-C ,  8-H ) :   0.9398
B(  6-C ,  9-C ) :   1.0631 B(  9-C , 10-H ) :   0.9628 B(  9-C , 11-H ) :   0.9434
B(  9-C , 12-C ) :   1.0968 B( 12-C , 13-H ) :   0.9713 B( 12-C , 14-H ) :   0.9737
B( 12-C , 15-H ) :   0.9756 B( 16-S , 17-C ) :   1.1166 B( 16-S , 20-C ) :   1.1219
B( 17-C , 18-C ) :   1.6569 B( 17-C , 33-H ) :   0.9646 B( 18-C , 19-C ) :   1.2056
B( 18-C , 21-H ) :   0.9873 B( 19-C , 20-C ) :   1.6595 B( 19-C , 22-C ) :   1.0371
B( 22-C , 23-H ) :   0.9413 B( 22-C , 24-H ) :   0.9492 B( 22-C , 25-C ) :   1.0408
B( 25-C , 26-H ) :   0.9574 B( 25-C , 27-H ) :   0.9531 B( 25-C , 28-C ) :   1.0807
B( 28-C , 29-H ) :   0.9727 B( 28-C , 30-H ) :   0.9716 B( 28-C , 31-H ) :   0.9722

Dispersion correction           -0.013594139
FINAL SINGLE POINT ENERGY     -1339.844342532148

DIPOLE MOMENT
-------------
                                X             Y             Z
Electronic contribution:    -29.91987       2.56158      -0.06505
Nuclear contribution   :     30.64049      -2.60750       0.11002
                        -----------------------------------------
Total Dipole Moment    :      0.72062      -0.04592       0.04496
                        -----------------------------------------
Magnitude (a.u.)       :      0.72348
Magnitude (Debye)      :      1.83894

Rotational constants in cm-1:     0.016247     0.008897     0.006741
Rotational constants in MHz :   487.071935   266.712164   202.091239

                             ****ORCA TERMINATED NORMALLY****
TOTAL RUN TIME: 0 days 0 hours 0 minutes 33 seconds 486 msec
