                         Program Version 4.2.1 -  RELEASE  -
|  1> ! wB97X-D3 SP def2-SVP
|  2> %pal
|  3> nprocs 16
|  4> end
|  5>
|  6> * xyz 0 1
|  7> S 	 -16.4266 	 43.6146 	 31.633
|  8> C 	 -14.9318 	 43.7586 	 32.5024
|  9> C 	 -13.9411 	 42.8496 	 32.1771
| 10> C 	 -14.5626 	 41.8352 	 31.3313
| 11> C 	 -15.8585 	 42.1215 	 30.8338
| 12> H 	 -14.0218 	 40.8766 	 30.9379
| 13> C 	 -12.5774 	 42.8493 	 32.7623
| 14> H 	 -12.5837 	 43.2425 	 33.8319
| 15> H 	 -12.0908 	 43.5627 	 32.1798
| 16> C 	 -11.7759 	 41.4999 	 32.5906
| 17> H 	 -11.6959 	 41.0311 	 31.6417
| 18> H 	 -10.7791 	 41.7946 	 32.8246
| 19> C 	 -12.178 	 40.4648 	 33.6612
| 20> H 	 -13.2597 	 40.3487 	 33.5304
| 21> H 	 -11.6518 	 39.5185 	 33.5105
| 22> H 	 -11.8434 	 40.8325 	 34.6433
| 23> S 	 -18.3501 	 40.8675 	 30.2755
| 24> C 	 -18.4785 	 39.9736 	 28.7512
| 25> C 	 -17.3096 	 39.9945 	 28.046
| 26> C 	 -16.2486 	 40.6917 	 28.7328
| 27> C 	 -16.677 	 41.3116 	 29.9184
| 28> H 	 -17.1883 	 39.5374 	 27.0853
| 29> C 	 -14.9623 	 40.9556 	 28.1108
| 30> H 	 -14.8376 	 40.217 	 27.3553
| 31> H 	 -14.1302 	 40.7211 	 28.8128
| 32> C 	 -14.7491 	 42.3778 	 27.6284
| 33> H 	 -14.4198 	 42.9459 	 28.5043
| 34> H 	 -15.5817 	 42.8127 	 27.1287
| 35> C 	 -13.4943 	 42.438 	 26.753
| 36> H 	 -13.257 	 43.474 	 26.4988
| 37> H 	 -13.4388 	 41.7691 	 25.8649
| 38> H 	 -12.5995 	 42.0745 	 27.3006
| 39> H 	 -14.6362 	 44.6294 	 33.0223
| 40> H 	 -19.3227 	 39.4774 	 28.3923
| 41> *
| 42>
| 43>                          ****END OF INPUT****

CARTESIAN COORDINATES (ANGSTROEM)
---------------------------------
  S    -16.426600   43.614600   31.633000
  C    -14.931800   43.758600   32.502400
  C    -13.941100   42.849600   32.177100
  C    -14.562600   41.835200   31.331300
  C    -15.858500   42.121500   30.833800
  H    -14.021800   40.876600   30.937900
  C    -12.577400   42.849300   32.762300
  H    -12.583700   43.242500   33.831900
  H    -12.090800   43.562700   32.179800
  C    -11.775900   41.499900   32.590600
  H    -11.695900   41.031100   31.641700
  H    -10.779100   41.794600   32.824600
  C    -12.178000   40.464800   33.661200
  H    -13.259700   40.348700   33.530400
  H    -11.651800   39.518500   33.510500
  H    -11.843400   40.832500   34.643300
  S    -18.350100   40.867500   30.275500
  C    -18.478500   39.973600   28.751200
  C    -17.309600   39.994500   28.046000
  C    -16.248600   40.691700   28.732800
  C    -16.677000   41.311600   29.918400
  H    -17.188300   39.537400   27.085300
  C    -14.962300   40.955600   28.110800
  H    -14.837600   40.217000   27.355300
  H    -14.130200   40.721100   28.812800
  C    -14.749100   42.377800   27.628400
  H    -14.419800   42.945900   28.504300
  H    -15.581700   42.812700   27.128700
  C    -13.494300   42.438000   26.753000
  H    -13.257000   43.474000   26.498800
  H    -13.438800   41.769100   25.864900
  H    -12.599500   42.074500   27.300600
  H    -14.636200   44.629400   33.022300
  H    -19.322700   39.477400   28.392300

 Total Charge           Charge          ....    0
 Multiplicity           Mult            ....    1
 Number of Electrons    NEL             ....  134
 Basis Dimension        Dim             ....  322

ORBITAL ENERGIES
----------------

  NO   OCC          E(Eh)            E(eV)
   0   2.0000     -88.968356     -2420.9520
   1   2.0000     -88.967128     -2420.9186
   2   2.0000     -10.337362      -281.2939
   3   2.0000     -10.329185      -281.0714
   4   2.0000     -10.315118      -280.6886
   5   2.0000     -10.309138      -280.5259
   6   2.0000     -10.308122      -280.4983
   7   2.0000     -10.304483      -280.3992
   8   2.0000     -10.299806      -280.2720
   9   2.0000     -10.298850      -280.2459
  10   2.0000     -10.292871      -280.0833
  11   2.0000     -10.287011      -279.9238
  12   2.0000     -10.281822      -279.7826
  13   2.0000     -10.279857      -279.7291
  14   2.0000     -10.278642      -279.6961
  15   2.0000     -10.277629      -279.6685
  16   2.0000      -8.082504      -219.9361
  17   2.0000      -8.081065      -219.8970
  18   2.0000      -6.041061      -164.3856
  19   2.0000      -6.039717      -164.3491
  20   2.0000      -6.037056      -164.2766
  21   2.0000      -6.035648      -164.2383
  22   2.0000      -6.033286      -164.1740
  23   2.0000      -6.031752      -164.1323
  24   2.0000      -0.999993       -27.2112
  25   2.0000      -0.980533       -26.6817
  26   2.0000      -0.915138       -24.9022
  27   2.0000      -0.913416       -24.8553
  28   2.0000      -0.869192       -23.6519
  29   2.0000      -0.850683       -23.1483
  30   2.0000      -0.844406       -22.9775
  31   2.0000      -0.814854       -22.1733
  32   2.0000      -0.783272       -21.3139
  33   2.0000      -0.767391       -20.8818
  34   2.0000      -0.713436       -19.4136
  35   2.0000      -0.701006       -19.0753
  36   2.0000      -0.691283       -18.8108
  37   2.0000      -0.662229       -18.0202
  38   2.0000      -0.635322       -17.2880
  39   2.0000      -0.617647       -16.8070
  40   2.0000      -0.599171       -16.3043
  41   2.0000      -0.572300       -15.5731
  42   2.0000      -0.566138       -15.4054
  43   2.0000      -0.557389       -15.1673
  44   2.0000      -0.536656       -14.6032
  45   2.0000      -0.528196       -14.3729
  46   2.0000      -0.518961       -14.1216
  47   2.0000      -0.516156       -14.0453
  48   2.0000      -0.501896       -13.6573
  49   2.0000      -0.494429       -13.4541
  50   2.0000      -0.487649       -13.2696
  51   2.0000      -0.480350       -13.0710
  52   2.0000      -0.466028       -12.6813
  53   2.0000      -0.462814       -12.5938
  54   2.0000      -0.453295       -12.3348
  55   2.0000      -0.448552       -12.2057
  56   2.0000      -0.442655       -12.0453
  57   2.0000      -0.438469       -11.9313
  58   2.0000      -0.432829       -11.7779
  59   2.0000      -0.430604       -11.7173
  60   2.0000      -0.423279       -11.5180
  61   2.0000      -0.417329       -11.3561
  62   2.0000      -0.410858       -11.1800
  63   2.0000      -0.349335        -9.5059
  64   2.0000      -0.330547        -8.9946
  65   2.0000      -0.327420        -8.9095
  66   2.0000      -0.286404        -7.7935
  67   0.0000       0.022994         0.6257
  68   0.0000       0.071346         1.9414
  69   0.0000       0.110921         3.0183
  70   0.0000       0.118111         3.2140
  71   0.0000       0.130432         3.5492

MULLIKEN ATOMIC CHARGES
-----------------------
   0 S :    0.116807
   1 C :   -0.095765
   2 C :   -0.118921
   3 C :   -0.015678
   4 C :   -0.172911
   5 H :    0.052594
   6 C :    0.066739
   7 H :    0.051780
   8 H :    0.027186
   9 C :   -0.070397
  10 H :    0.026491
  11 H :    0.013471
  12 C :   -0.051266
  13 H :    0.046821
  14 H :    0.034795
  15 H :    0.031436
  16 S :    0.108415
  17 C :   -0.062788
  18 C :   -0.015547
  19 C :   -0.052735
  20 C :   -0.136641
  21 H :    0.012955
  22 C :    0.071189
  23 H :   -0.002907
  24 H :    0.007250
  25 C :   -0.028033
  26 H :    0.045489
  27 H :    0.035584
  28 C :   -0.067479
  29 H :    0.034722
  30 H :    0.027957
  31 H :    0.013874
  32 H :    0.031032
  33 H :    0.034481
Sum of atomic charges:   -0.0000000

LOEWDIN ATOMIC CHARGES
----------------------
   0 S :    0.400053
   1 C :   -0.198733
   2 C :   -0.065279
   3 C :   -0.074754
   4 C :   -0.189535
   5 H :    0.042123
   6 C :   -0.029124
   7 H :    0.046888
   8 H :    0.030126
   9 C :   -0.037080
  10 H :    0.019605
  11 H :    0.020570
  12 C :   -0.062945
  13 H :    0.027993
  14 H :    0.025316
  15 H :    0.025635
  16 S :    0.391796
  17 C :   -0.166053
  18 C :   -0.064370
  19 C :   -0.053628
  20 C :   -0.198533
  21 H :    0.030250
  22 C :   -0.039438
  23 H :    0.021149
  24 H :    0.032761
  25 C :   -0.029399
  26 H :    0.035792
  27 H :    0.022147
  28 C :   -0.072218
  29 H :    0.025128
  30 H :    0.022284
  31 H :    0.023804
  32 H :    0.017970
  33 H :    0.019700

  Mayer bond orders larger than 0.100000
B(  0-S ,  1-C ) :   1.1456 B(  0-S ,  4-C ) :   1.1382 B(  1-C ,  2-C ) :   1.6270
B(  1-C , 32-H ) :   0.9620 B(  2-C ,  3-C ) :   1.2425 B(  2-C ,  6-C ) :   1.0097
B(  3-C ,  4-C ) :   1.5693 B(  3-C ,  5-H ) :   0.9595 B(  4-C , 20-C ) :   1.0714
B(  6-C ,  7-H ) :   0.9457 B(  6-C ,  8-H ) :   0.9179 B(  6-C ,  9-C ) :   1.0829
B(  9-C , 10-H ) :   0.9558 B(  9-C , 11-H ) :   0.9526 B(  9-C , 12-C ) :   1.0723
B( 12-C , 13-H ) :   0.9794 B( 12-C , 14-H ) :   0.9753 B( 12-C , 15-H ) :   0.9775
B( 16-S , 17-C ) :   1.1441 B( 16-S , 20-C ) :   1.1262 B( 17-C , 18-C ) :   1.6138
B( 17-C , 33-H ) :   0.9721 B( 18-C , 19-C ) :   1.2468 B( 18-C , 21-H ) :   0.9897
B( 19-C , 20-C ) :   1.5676 B( 19-C , 22-C ) :   1.0778 B( 22-C , 23-H ) :   0.9285
B( 22-C , 24-H ) :   0.9089 B( 22-C , 25-C ) :   1.0655 B( 25-C , 26-H ) :   0.9420
B( 25-C , 27-H ) :   0.9628 B( 25-C , 28-C ) :   1.0841 B( 28-C , 29-H ) :   0.9742
B( 28-C , 30-H ) :   0.9752 B( 28-C , 31-H ) :   0.9701

Dispersion correction           -0.014887245
FINAL SINGLE POINT ENERGY     -1339.868147085174

DIPOLE MOMENT
-------------
                                X             Y             Z
Electronic contribution:    -27.56058       3.24644       4.31278
Nuclear contribution   :     28.33539      -3.32487      -4.56583
                        -----------------------------------------
Total Dipole Moment    :      0.77481      -0.07843      -0.25305
                        -----------------------------------------
Magnitude (a.u.)       :      0.81885
Magnitude (Debye)      :      2.08136

Rotational constants in cm-1:     0.017315     0.009199     0.007754
Rotational constants in MHz :   519.088256   275.771632   232.457358

                             ****ORCA TERMINATED NORMALLY****
TOTAL RUN TIME: 0 days 0 hours 0 minutes 35 seconds 795 msec
