                         Program Version 4.2.1 -  RELEASE  -
|  1> ! wB97X-D3 SP def2-SVP
|  2> %pal
|  3> nprocs 16
|  4> end
|  5>
|  6> * xyz 0 1
|  7> S 	 45.0542 	 19.5417 	 48.6089
|  8> C 	 43.945 	 19.2586 	 47.2224
|  9> C 	 42.6779 	 19.7051 	 47.4245
| 10> C 	 42.5293 	 20.2652 	 48.707
| 11> C 	 43.7008 	 20.187 	 49.4605
| 12> H 	 41.6887 	 20.6606 	 49.1075
| 13> C 	 41.5837 	 19.8826 	 46.3789
| 14> H 	 42.083 	 19.9785 	 45.3994
| 15> H 	 41.1478 	 20.8516 	 46.3711
| 16> C 	 40.5752 	 18.7663 	 46.3272
| 17> H 	 39.8986 	 18.8036 	 47.2172
| 18> H 	 39.8155 	 18.9348 	 45.5525
| 19> C 	 41.191 	 17.3446 	 46.1561
| 20> H 	 40.3742 	 16.6018 	 46.2697
| 21> H 	 41.766 	 17.0539 	 45.2396
| 22> H 	 41.8094 	 17.0302 	 46.961
| 23> S 	 44.8878 	 22.0687 	 50.9516
| 24> C 	 44.4262 	 22.205 	 52.5724
| 25> C 	 43.5078 	 21.2565 	 52.952
| 26> C 	 43.1337 	 20.4 	 51.9354
| 27> C 	 43.8049 	 20.7002 	 50.7962
| 28> H 	 43.2277 	 21.2079 	 53.9868
| 29> C 	 42.2353 	 19.2045 	 52.1263
| 30> H 	 42.9164 	 18.4741 	 52.6711
| 31> H 	 42.2221 	 18.6583 	 51.1402
| 32> C 	 40.8713 	 19.4115 	 52.6853
| 33> H 	 41.0296 	 20.0601 	 53.5868
| 34> H 	 40.4604 	 18.4275 	 52.8924
| 35> C 	 39.9833 	 19.8994 	 51.5563
| 36> H 	 39.6375 	 19.1604 	 50.7906
| 37> H 	 40.3919 	 20.7126 	 50.9902
| 38> H 	 39.1329 	 20.347 	 52.0625
| 39> H 	 44.3995 	 18.8414 	 46.3249
| 40> H 	 44.7784 	 22.8933 	 53.327
| 41> *
| 42>
| 43>                          ****END OF INPUT****

CARTESIAN COORDINATES (ANGSTROEM)
---------------------------------
  S     45.054200   19.541700   48.608900
  C     43.945000   19.258600   47.222400
  C     42.677900   19.705100   47.424500
  C     42.529300   20.265200   48.707000
  C     43.700800   20.187000   49.460500
  H     41.688700   20.660600   49.107500
  C     41.583700   19.882600   46.378900
  H     42.083000   19.978500   45.399400
  H     41.147800   20.851600   46.371100
  C     40.575200   18.766300   46.327200
  H     39.898600   18.803600   47.217200
  H     39.815500   18.934800   45.552500
  C     41.191000   17.344600   46.156100
  H     40.374200   16.601800   46.269700
  H     41.766000   17.053900   45.239600
  H     41.809400   17.030200   46.961000
  S     44.887800   22.068700   50.951600
  C     44.426200   22.205000   52.572400
  C     43.507800   21.256500   52.952000
  C     43.133700   20.400000   51.935400
  C     43.804900   20.700200   50.796200
  H     43.227700   21.207900   53.986800
  C     42.235300   19.204500   52.126300
  H     42.916400   18.474100   52.671100
  H     42.222100   18.658300   51.140200
  C     40.871300   19.411500   52.685300
  H     41.029600   20.060100   53.586800
  H     40.460400   18.427500   52.892400
  C     39.983300   19.899400   51.556300
  H     39.637500   19.160400   50.790600
  H     40.391900   20.712600   50.990200
  H     39.132900   20.347000   52.062500
  H     44.399500   18.841400   46.324900
  H     44.778400   22.893300   53.327000

 Total Charge           Charge          ....    0
 Multiplicity           Mult            ....    1
 Number of Electrons    NEL             ....  134
 Basis Dimension        Dim             ....  322

ORBITAL ENERGIES
----------------

  NO   OCC          E(Eh)            E(eV)
   0   2.0000     -88.966362     -2420.8978
   1   2.0000     -88.963676     -2420.8247
   2   2.0000     -10.320485      -280.8347
   3   2.0000     -10.313449      -280.6432
   4   2.0000     -10.312476      -280.6167
   5   2.0000     -10.307030      -280.4686
   6   2.0000     -10.297525      -280.2099
   7   2.0000     -10.293558      -280.1020
   8   2.0000     -10.291630      -280.0495
   9   2.0000     -10.289420      -279.9893
  10   2.0000     -10.289386      -279.9884
  11   2.0000     -10.289140      -279.9817
  12   2.0000     -10.281432      -279.7720
  13   2.0000     -10.281255      -279.7672
  14   2.0000     -10.278734      -279.6986
  15   2.0000     -10.277269      -279.6587
  16   2.0000      -8.081067      -219.8970
  17   2.0000      -8.079642      -219.8582
  18   2.0000      -6.039412      -164.3408
  19   2.0000      -6.037848      -164.2982
  20   2.0000      -6.035756      -164.2413
  21   2.0000      -6.034081      -164.1957
  22   2.0000      -6.031844      -164.1348
  23   2.0000      -6.030547      -164.0995
  24   2.0000      -1.014911       -27.6171
  25   2.0000      -0.987885       -26.8817
  26   2.0000      -0.918992       -25.0070
  27   2.0000      -0.912098       -24.8194
  28   2.0000      -0.867121       -23.5956
  29   2.0000      -0.858160       -23.3517
  30   2.0000      -0.847016       -23.0485
  31   2.0000      -0.808109       -21.9898
  32   2.0000      -0.787507       -21.4291
  33   2.0000      -0.776060       -21.1177
  34   2.0000      -0.709904       -19.3175
  35   2.0000      -0.700480       -19.0610
  36   2.0000      -0.696000       -18.9391
  37   2.0000      -0.658782       -17.9264
  38   2.0000      -0.646815       -17.6007
  39   2.0000      -0.621901       -16.9228
  40   2.0000      -0.599355       -16.3093
  41   2.0000      -0.568152       -15.4602
  42   2.0000      -0.557226       -15.1629
  43   2.0000      -0.547113       -14.8877
  44   2.0000      -0.542004       -14.7487
  45   2.0000      -0.538569       -14.6552
  46   2.0000      -0.516624       -14.0580
  47   2.0000      -0.511351       -13.9146
  48   2.0000      -0.504571       -13.7301
  49   2.0000      -0.494102       -13.4452
  50   2.0000      -0.493112       -13.4183
  51   2.0000      -0.475664       -12.9435
  52   2.0000      -0.467634       -12.7250
  53   2.0000      -0.465178       -12.6581
  54   2.0000      -0.456408       -12.4195
  55   2.0000      -0.451591       -12.2884
  56   2.0000      -0.445348       -12.1185
  57   2.0000      -0.434869       -11.8334
  58   2.0000      -0.428523       -11.6607
  59   2.0000      -0.425918       -11.5898
  60   2.0000      -0.424312       -11.5461
  61   2.0000      -0.412314       -11.2196
  62   2.0000      -0.408695       -11.1212
  63   2.0000      -0.338598        -9.2137
  64   2.0000      -0.335329        -9.1248
  65   2.0000      -0.331321        -9.0157
  66   2.0000      -0.291913        -7.9434
  67   0.0000       0.038968         1.0604
  68   0.0000       0.069033         1.8785
  69   0.0000       0.109085         2.9684
  70   0.0000       0.128529         3.4974
  71   0.0000       0.130031         3.5383

MULLIKEN ATOMIC CHARGES
-----------------------
   0 S :    0.107628
   1 C :   -0.150337
   2 C :   -0.028072
   3 C :    0.088670
   4 C :   -0.171524
   5 H :   -0.060781
   6 C :    0.085818
   7 H :    0.014531
   8 H :    0.019132
   9 C :   -0.063224
  10 H :    0.025571
  11 H :    0.028685
  12 C :   -0.067675
  13 H :    0.024711
  14 H :    0.041619
  15 H :    0.031677
  16 S :    0.127483
  17 C :   -0.072069
  18 C :   -0.071081
  19 C :    0.014360
  20 C :   -0.195412
  21 H :    0.005812
  22 C :    0.006374
  23 H :    0.042039
  24 H :    0.023819
  25 C :   -0.014279
  26 H :    0.045031
  27 H :    0.031966
  28 C :   -0.065405
  29 H :    0.047860
  30 H :    0.029529
  31 H :    0.025893
  32 H :    0.047748
  33 H :    0.043904
Sum of atomic charges:   -0.0000000

LOEWDIN ATOMIC CHARGES
----------------------
   0 S :    0.394978
   1 C :   -0.177013
   2 C :   -0.058396
   3 C :   -0.043752
   4 C :   -0.200761
   5 H :    0.009473
   6 C :   -0.033119
   7 H :    0.033085
   8 H :    0.029382
   9 C :   -0.043330
  10 H :    0.027251
  11 H :    0.026366
  12 C :   -0.076882
  13 H :    0.030027
  14 H :    0.030623
  15 H :    0.021310
  16 S :    0.430550
  17 C :   -0.201414
  18 C :   -0.077399
  19 C :   -0.062256
  20 C :   -0.201992
  21 H :    0.026959
  22 C :   -0.044412
  23 H :    0.038688
  24 H :    0.033523
  25 C :   -0.041694
  26 H :    0.033224
  27 H :    0.032708
  28 C :   -0.066457
  29 H :    0.034760
  30 H :    0.016974
  31 H :    0.027161
  32 H :    0.023103
  33 H :    0.028731

  Mayer bond orders larger than 0.100000
B(  0-S ,  1-C ) :   1.1266 B(  0-S ,  4-C ) :   1.1625 B(  1-C ,  2-C ) :   1.6137
B(  1-C , 32-H ) :   0.9696 B(  2-C ,  3-C ) :   1.2292 B(  2-C ,  6-C ) :   1.0046
B(  3-C ,  4-C ) :   1.5654 B(  3-C ,  5-H ) :   1.0156 B(  4-C , 20-C ) :   1.0147
B(  6-C ,  7-H ) :   0.9408 B(  6-C ,  8-H ) :   0.9456 B(  6-C ,  9-C ) :   1.0749
B(  9-C , 10-H ) :   0.9539 B(  9-C , 11-H ) :   0.9546 B(  9-C , 12-C ) :   1.0697
B( 12-C , 13-H ) :   0.9716 B( 12-C , 14-H ) :   0.9775 B( 12-C , 15-H ) :   0.9713
B( 16-S , 17-C ) :   1.1640 B( 16-S , 20-C ) :   1.1534 B( 17-C , 18-C ) :   1.6160
B( 17-C , 20-C ) :   0.1003 B( 17-C , 33-H ) :   0.9628 B( 18-C , 19-C ) :   1.2360
B( 18-C , 21-H ) :   0.9919 B( 19-C , 20-C ) :   1.6073 B( 19-C , 22-C ) :   1.0365
B( 22-C , 23-H ) :   0.9321 B( 22-C , 24-H ) :   0.9254 B( 22-C , 25-C ) :   1.0645
B( 25-C , 26-H ) :   0.9581 B( 25-C , 27-H ) :   0.9440 B( 25-C , 28-C ) :   1.0709
B( 28-C , 29-H ) :   0.9726 B( 28-C , 30-H ) :   0.9750 B( 28-C , 31-H ) :   0.9659

Dispersion correction           -0.015449185
FINAL SINGLE POINT ENERGY     -1339.866572494505

DIPOLE MOMENT
-------------
                                X             Y             Z
Electronic contribution:     25.42178      12.01243       4.89128
Nuclear contribution   :    -25.97699     -12.13266      -4.85377
                        -----------------------------------------
Total Dipole Moment    :     -0.55521      -0.12024       0.03751
                        -----------------------------------------
Magnitude (a.u.)       :      0.56932
Magnitude (Debye)      :      1.44709

Rotational constants in cm-1:     0.019689     0.009672     0.007283
Rotational constants in MHz :   590.268972   289.972408   218.323940

                             ****ORCA TERMINATED NORMALLY****
TOTAL RUN TIME: 0 days 0 hours 0 minutes 37 seconds 210 msec
