                         Program Version 4.2.1 -  RELEASE  -
|  1> ! wB97X-D3 SP def2-SVP
|  2> %pal
|  3> nprocs 16
|  4> end
|  5>
|  6> * xyz 0 1
|  7> S 	 -39.9269 	 32.1849 	 89.4438
|  8> C 	 -41.3841 	 32.8118 	 90.1694
|  9> C 	 -42.4798 	 32.5925 	 89.311
| 10> C 	 -42.1106 	 31.7898 	 88.1894
| 11> C 	 -40.7917 	 31.3727 	 88.2423
| 12> H 	 -42.7722 	 31.2763 	 87.4888
| 13> C 	 -43.8326 	 33.1989 	 89.4183
| 14> H 	 -43.9874 	 33.6507 	 88.4365
| 15> H 	 -43.8918 	 33.9925 	 90.1344
| 16> C 	 -44.8792 	 32.1714 	 89.795
| 17> H 	 -45.8689 	 32.4362 	 89.3848
| 18> H 	 -44.6266 	 31.2438 	 89.3048
| 19> C 	 -45.0227 	 31.9979 	 91.2625
| 20> H 	 -45.9497 	 31.4748 	 91.5089
| 21> H 	 -44.2519 	 31.4186 	 91.72
| 22> H 	 -45.0899 	 33.0709 	 91.6284
| 23> S 	 -39.762 	 31.9602 	 85.8306
| 24> C 	 -39.4645 	 30.6967 	 84.6629
| 25> C 	 -39.5168 	 29.4521 	 85.2659
| 26> C 	 -39.7405 	 29.5603 	 86.6433
| 27> C 	 -40.0438 	 30.8285 	 87.0638
| 28> H 	 -39.2449 	 28.613 	 84.6514
| 29> C 	 -39.7184 	 28.3824 	 87.5782
| 30> H 	 -40.022 	 28.5825 	 88.6183
| 31> H 	 -38.7494 	 28.0661 	 87.6671
| 32> C 	 -40.4446 	 27.0631 	 87.1112
| 33> H 	 -40.1988 	 26.1955 	 87.7695
| 34> H 	 -40.1107 	 26.7545 	 86.1131
| 35> C 	 -42.0246 	 27.1636 	 87.0849
| 36> H 	 -42.2917 	 27.5952 	 86.0794
| 37> H 	 -42.2398 	 27.9728 	 87.8452
| 38> H 	 -42.4832 	 26.2699 	 87.3262
| 39> H 	 -41.4816 	 33.4002 	 91.1327
| 40> H 	 -39.1993 	 30.967 	 83.6047
| 41> *
| 42>
| 43>                          ****END OF INPUT****

CARTESIAN COORDINATES (ANGSTROEM)
---------------------------------
  S    -39.926900   32.184900   89.443800
  C    -41.384100   32.811800   90.169400
  C    -42.479800   32.592500   89.311000
  C    -42.110600   31.789800   88.189400
  C    -40.791700   31.372700   88.242300
  H    -42.772200   31.276300   87.488800
  C    -43.832600   33.198900   89.418300
  H    -43.987400   33.650700   88.436500
  H    -43.891800   33.992500   90.134400
  C    -44.879200   32.171400   89.795000
  H    -45.868900   32.436200   89.384800
  H    -44.626600   31.243800   89.304800
  C    -45.022700   31.997900   91.262500
  H    -45.949700   31.474800   91.508900
  H    -44.251900   31.418600   91.720000
  H    -45.089900   33.070900   91.628400
  S    -39.762000   31.960200   85.830600
  C    -39.464500   30.696700   84.662900
  C    -39.516800   29.452100   85.265900
  C    -39.740500   29.560300   86.643300
  C    -40.043800   30.828500   87.063800
  H    -39.244900   28.613000   84.651400
  C    -39.718400   28.382400   87.578200
  H    -40.022000   28.582500   88.618300
  H    -38.749400   28.066100   87.667100
  C    -40.444600   27.063100   87.111200
  H    -40.198800   26.195500   87.769500
  H    -40.110700   26.754500   86.113100
  C    -42.024600   27.163600   87.084900
  H    -42.291700   27.595200   86.079400
  H    -42.239800   27.972800   87.845200
  H    -42.483200   26.269900   87.326200
  H    -41.481600   33.400200   91.132700
  H    -39.199300   30.967000   83.604700

 Total Charge           Charge          ....    0
 Multiplicity           Mult            ....    1
 Number of Electrons    NEL             ....  134
 Basis Dimension        Dim             ....  322

ORBITAL ENERGIES
----------------

  NO   OCC          E(Eh)            E(eV)
   0   2.0000     -88.965859     -2420.8841
   1   2.0000     -88.960719     -2420.7442
   2   2.0000     -10.324858      -280.9537
   3   2.0000     -10.320995      -280.8485
   4   2.0000     -10.318953      -280.7930
   5   2.0000     -10.318613      -280.7837
   6   2.0000     -10.301484      -280.3176
   7   2.0000     -10.300413      -280.2885
   8   2.0000     -10.293025      -280.0875
   9   2.0000     -10.292766      -280.0804
  10   2.0000     -10.289880      -280.0019
  11   2.0000     -10.285480      -279.8821
  12   2.0000     -10.284601      -279.8582
  13   2.0000     -10.278849      -279.7017
  14   2.0000     -10.276009      -279.6244
  15   2.0000     -10.275789      -279.6184
  16   2.0000      -8.081637      -219.9125
  17   2.0000      -8.076929      -219.7844
  18   2.0000      -6.039958      -164.3556
  19   2.0000      -6.035882      -164.2447
  20   2.0000      -6.035224      -164.2268
  21   2.0000      -6.032646      -164.1566
  22   2.0000      -6.031111      -164.1149
  23   2.0000      -6.027924      -164.0282
  24   2.0000      -1.016037       -27.6478
  25   2.0000      -0.992161       -26.9981
  26   2.0000      -0.923438       -25.1280
  27   2.0000      -0.901760       -24.5381
  28   2.0000      -0.868427       -23.6311
  29   2.0000      -0.851423       -23.1684
  30   2.0000      -0.843337       -22.9484
  31   2.0000      -0.814151       -22.1542
  32   2.0000      -0.783744       -21.3268
  33   2.0000      -0.772927       -21.0324
  34   2.0000      -0.702204       -19.1079
  35   2.0000      -0.693073       -18.8595
  36   2.0000      -0.684782       -18.6339
  37   2.0000      -0.658140       -17.9089
  38   2.0000      -0.641667       -17.4606
  39   2.0000      -0.622090       -16.9279
  40   2.0000      -0.601940       -16.3796
  41   2.0000      -0.575204       -15.6521
  42   2.0000      -0.559663       -15.2292
  43   2.0000      -0.552916       -15.0456
  44   2.0000      -0.543187       -14.7809
  45   2.0000      -0.535999       -14.5853
  46   2.0000      -0.518903       -14.1201
  47   2.0000      -0.509525       -13.8649
  48   2.0000      -0.503132       -13.6909
  49   2.0000      -0.490601       -13.3499
  50   2.0000      -0.485904       -13.2221
  51   2.0000      -0.471753       -12.8370
  52   2.0000      -0.470329       -12.7983
  53   2.0000      -0.466019       -12.6810
  54   2.0000      -0.460184       -12.5222
  55   2.0000      -0.447437       -12.1754
  56   2.0000      -0.443534       -12.0692
  57   2.0000      -0.437091       -11.8938
  58   2.0000      -0.430431       -11.7126
  59   2.0000      -0.426603       -11.6085
  60   2.0000      -0.418119       -11.3776
  61   2.0000      -0.412498       -11.2246
  62   2.0000      -0.412282       -11.2188
  63   2.0000      -0.341055        -9.2806
  64   2.0000      -0.324694        -8.8354
  65   2.0000      -0.315432        -8.5833
  66   2.0000      -0.313060        -8.5188
  67   0.0000       0.045347         1.2339
  68   0.0000       0.055509         1.5105
  69   0.0000       0.107953         2.9375
  70   0.0000       0.124736         3.3942
  71   0.0000       0.136911         3.7255

MULLIKEN ATOMIC CHARGES
-----------------------
   0 S :    0.119105
   1 C :   -0.132282
   2 C :   -0.123338
   3 C :    0.020279
   4 C :   -0.144990
   5 H :    0.033737
   6 C :    0.092636
   7 H :    0.038269
   8 H :    0.002640
   9 C :   -0.067120
  10 H :    0.023299
  11 H :    0.018203
  12 C :   -0.039339
  13 H :    0.032752
  14 H :    0.035631
  15 H :    0.027365
  16 S :    0.123422
  17 C :   -0.133808
  18 C :   -0.030015
  19 C :   -0.004590
  20 C :   -0.188029
  21 H :    0.021697
  22 C :    0.109221
  23 H :    0.030818
  24 H :    0.011502
  25 C :   -0.140617
  26 H :    0.032262
  27 H :    0.024977
  28 C :   -0.048662
  29 H :    0.044139
  30 H :    0.033136
  31 H :    0.030905
  32 H :    0.068839
  33 H :    0.077957
Sum of atomic charges:    0.0000000

LOEWDIN ATOMIC CHARGES
----------------------
   0 S :    0.439862
   1 C :   -0.218747
   2 C :   -0.060679
   3 C :   -0.065924
   4 C :   -0.220824
   5 H :    0.036553
   6 C :   -0.029848
   7 H :    0.039418
   8 H :    0.021357
   9 C :   -0.044030
  10 H :    0.024511
  11 H :    0.019519
  12 C :   -0.062593
  13 H :    0.027986
  14 H :    0.022146
  15 H :    0.031020
  16 S :    0.434758
  17 C :   -0.187893
  18 C :   -0.076027
  19 C :   -0.057959
  20 C :   -0.225064
  21 H :    0.033752
  22 C :   -0.026524
  23 H :    0.034040
  24 H :    0.024639
  25 C :   -0.043002
  26 H :    0.025665
  27 H :    0.015902
  28 C :   -0.066913
  29 H :    0.031924
  30 H :    0.030573
  31 H :    0.012476
  32 H :    0.042371
  33 H :    0.037553

  Mayer bond orders larger than 0.100000
B(  0-S ,  1-C ) :   1.1508 B(  0-S ,  4-C ) :   1.1911 B(  1-C ,  2-C ) :   1.5795
B(  1-C , 32-H ) :   0.9622 B(  2-C ,  3-C ) :   1.2627 B(  2-C ,  6-C ) :   1.0303
B(  3-C ,  4-C ) :   1.5644 B(  3-C ,  5-H ) :   0.9905 B(  4-C , 20-C ) :   0.9592
B(  6-C ,  7-H ) :   0.9343 B(  6-C ,  8-H ) :   0.9443 B(  6-C ,  9-C ) :   1.0645
B(  9-C , 10-H ) :   0.9529 B(  9-C , 11-H ) :   0.9550 B(  9-C , 12-C ) :   1.0829
B( 12-C , 13-H ) :   0.9720 B( 12-C , 14-H ) :   0.9747 B( 12-C , 15-H ) :   0.9731
B( 16-S , 17-C ) :   1.1842 B( 16-S , 20-C ) :   1.1696 B( 17-C , 18-C ) :   1.5729
B( 17-C , 33-H ) :   0.9622 B( 18-C , 19-C ) :   1.2562 B( 18-C , 21-H ) :   1.0000
B( 19-C , 20-C ) :   1.5921 B( 19-C , 22-C ) :   1.0382 B( 22-C , 23-H ) :   0.9386
B( 22-C , 24-H ) :   0.9204 B( 22-C , 25-C ) :   1.0772 B( 25-C , 26-H ) :   0.9612
B( 25-C , 27-H ) :   0.9580 B( 25-C , 28-C ) :   1.0548 B( 28-C , 29-H ) :   0.9780
B( 28-C , 30-H ) :   0.9803 B( 28-C , 31-H ) :   0.9803

Dispersion correction           -0.014558852
FINAL SINGLE POINT ENERGY     -1339.861916718372

DIPOLE MOMENT
-------------
                                X             Y             Z
Electronic contribution:     19.98489      13.57001      -7.42816
Nuclear contribution   :    -20.32025     -13.78735       7.33048
                        -----------------------------------------
Total Dipole Moment    :     -0.33536      -0.21734      -0.09768
                        -----------------------------------------
Magnitude (a.u.)       :      0.41139
Magnitude (Debye)      :      1.04567

Rotational constants in cm-1:     0.019373     0.008611     0.007230
Rotational constants in MHz :   580.776772   258.137004   216.751276

                             ****ORCA TERMINATED NORMALLY****
TOTAL RUN TIME: 0 days 0 hours 0 minutes 30 seconds 402 msec
