                         Program Version 4.2.1 -  RELEASE  -
|  1> ! wB97X-D3 SP def2-SVP
|  2> %pal
|  3> nprocs 16
|  4> end
|  5>
|  6> * xyz 0 1
|  7> S 	 62.4695 	 24.6862 	 76.6678
|  8> C 	 63.2637 	 25.0737 	 75.1711
|  9> C 	 63.8994 	 24.0096 	 74.6299
| 10> C 	 63.5547 	 22.7946 	 75.2729
| 11> C 	 62.7539 	 22.9827 	 76.3841
| 12> H 	 63.9737 	 21.8603 	 75.1335
| 13> C 	 64.912 	 24.0796 	 73.4652
| 14> H 	 65.9569 	 23.9961 	 73.769
| 15> H 	 64.931 	 25.1035 	 73.2088
| 16> C 	 64.7029 	 23.1484 	 72.1815
| 17> H 	 65.1207 	 22.1231 	 72.2663
| 18> H 	 63.6551 	 23.0927 	 71.9454
| 19> C 	 65.27 	 23.8462 	 70.9221
| 20> H 	 65.1499 	 23.0736 	 70.2261
| 21> H 	 64.8442 	 24.7955 	 70.7122
| 22> H 	 66.3372 	 24.0963 	 71.043
| 23> S 	 63.0099 	 22.2615 	 78.9844
| 24> C 	 62.3317 	 20.7157 	 79.5966
| 25> C 	 61.7233 	 20.0859 	 78.5492
| 26> C 	 61.8266 	 20.7139 	 77.2651
| 27> C 	 62.4137 	 22.001 	 77.3846
| 28> H 	 61.1552 	 19.1899 	 78.6775
| 29> C 	 61.1509 	 20.141 	 76.0298
| 30> H 	 61.3808 	 19.0874 	 75.9079
| 31> H 	 61.5392 	 20.5414 	 75.1173
| 32> C 	 59.6025 	 20.1198 	 76.0528
| 33> H 	 59.2208 	 19.6284 	 76.989
| 34> H 	 59.2601 	 19.4108 	 75.2944
| 35> C 	 59.1276 	 21.5642 	 75.7794
| 36> H 	 58.0961 	 21.6223 	 75.4917
| 37> H 	 59.5495 	 21.8106 	 74.7876
| 38> H 	 59.4063 	 22.397 	 76.4546
| 39> H 	 63.4439 	 26.0928 	 74.8865
| 40> H 	 62.434 	 20.2351 	 80.5379
| 41> *
| 42>
| 43>                          ****END OF INPUT****

CARTESIAN COORDINATES (ANGSTROEM)
---------------------------------
  S     62.469500   24.686200   76.667800
  C     63.263700   25.073700   75.171100
  C     63.899400   24.009600   74.629900
  C     63.554700   22.794600   75.272900
  C     62.753900   22.982700   76.384100
  H     63.973700   21.860300   75.133500
  C     64.912000   24.079600   73.465200
  H     65.956900   23.996100   73.769000
  H     64.931000   25.103500   73.208800
  C     64.702900   23.148400   72.181500
  H     65.120700   22.123100   72.266300
  H     63.655100   23.092700   71.945400
  C     65.270000   23.846200   70.922100
  H     65.149900   23.073600   70.226100
  H     64.844200   24.795500   70.712200
  H     66.337200   24.096300   71.043000
  S     63.009900   22.261500   78.984400
  C     62.331700   20.715700   79.596600
  C     61.723300   20.085900   78.549200
  C     61.826600   20.713900   77.265100
  C     62.413700   22.001000   77.384600
  H     61.155200   19.189900   78.677500
  C     61.150900   20.141000   76.029800
  H     61.380800   19.087400   75.907900
  H     61.539200   20.541400   75.117300
  C     59.602500   20.119800   76.052800
  H     59.220800   19.628400   76.989000
  H     59.260100   19.410800   75.294400
  C     59.127600   21.564200   75.779400
  H     58.096100   21.622300   75.491700
  H     59.549500   21.810600   74.787600
  H     59.406300   22.397000   76.454600
  H     63.443900   26.092800   74.886500
  H     62.434000   20.235100   80.537900

 Total Charge           Charge          ....    0
 Multiplicity           Mult            ....    1
 Number of Electrons    NEL             ....  134
 Basis Dimension        Dim             ....  322

ORBITAL ENERGIES
----------------

  NO   OCC          E(Eh)            E(eV)
   0   2.0000     -88.965975     -2420.8873
   1   2.0000     -88.965463     -2420.8733
   2   2.0000     -10.327582      -281.0278
   3   2.0000     -10.327356      -281.0216
   4   2.0000     -10.315876      -280.7093
   5   2.0000     -10.309147      -280.5261
   6   2.0000     -10.304267      -280.3934
   7   2.0000     -10.300035      -280.2782
   8   2.0000     -10.293992      -280.1138
   9   2.0000     -10.293392      -280.0974
  10   2.0000     -10.291657      -280.0502
  11   2.0000     -10.290138      -280.0089
  12   2.0000     -10.286977      -279.9229
  13   2.0000     -10.286708      -279.9156
  14   2.0000     -10.274141      -279.5736
  15   2.0000     -10.271828      -279.5107
  16   2.0000      -8.081109      -219.8982
  17   2.0000      -8.079702      -219.8599
  18   2.0000      -6.039550      -164.3445
  19   2.0000      -6.038394      -164.3131
  20   2.0000      -6.035694      -164.2396
  21   2.0000      -6.034143      -164.1974
  22   2.0000      -6.031790      -164.1333
  23   2.0000      -6.030413      -164.0959
  24   2.0000      -1.009444       -27.4684
  25   2.0000      -0.983557       -26.7639
  26   2.0000      -0.905927       -24.6515
  27   2.0000      -0.903646       -24.5894
  28   2.0000      -0.874830       -23.8053
  29   2.0000      -0.852169       -23.1887
  30   2.0000      -0.839871       -22.8541
  31   2.0000      -0.817505       -22.2454
  32   2.0000      -0.781647       -21.2697
  33   2.0000      -0.770683       -20.9714
  34   2.0000      -0.712095       -19.3771
  35   2.0000      -0.698452       -19.0058
  36   2.0000      -0.695795       -18.9335
  37   2.0000      -0.659233       -17.9386
  38   2.0000      -0.648059       -17.6346
  39   2.0000      -0.621732       -16.9182
  40   2.0000      -0.598018       -16.2729
  41   2.0000      -0.570099       -15.5132
  42   2.0000      -0.560826       -15.2609
  43   2.0000      -0.548965       -14.9381
  44   2.0000      -0.536911       -14.6101
  45   2.0000      -0.529431       -14.4066
  46   2.0000      -0.513822       -13.9818
  47   2.0000      -0.510288       -13.8856
  48   2.0000      -0.502958       -13.6862
  49   2.0000      -0.495311       -13.4781
  50   2.0000      -0.491358       -13.3705
  51   2.0000      -0.482334       -13.1250
  52   2.0000      -0.469442       -12.7742
  53   2.0000      -0.467897       -12.7321
  54   2.0000      -0.455709       -12.4005
  55   2.0000      -0.447341       -12.1728
  56   2.0000      -0.442222       -12.0335
  57   2.0000      -0.439306       -11.9541
  58   2.0000      -0.425867       -11.5884
  59   2.0000      -0.423348       -11.5199
  60   2.0000      -0.419493       -11.4150
  61   2.0000      -0.417879       -11.3711
  62   2.0000      -0.412311       -11.2196
  63   2.0000      -0.351260        -9.5583
  64   2.0000      -0.331384        -9.0174
  65   2.0000      -0.326298        -8.8790
  66   2.0000      -0.290705        -7.9105
  67   0.0000       0.030629         0.8335
  68   0.0000       0.069785         1.8989
  69   0.0000       0.110179         2.9981
  70   0.0000       0.124371         3.3843
  71   0.0000       0.131169         3.5693

MULLIKEN ATOMIC CHARGES
-----------------------
   0 S :    0.105217
   1 C :   -0.112867
   2 C :   -0.081512
   3 C :    0.072747
   4 C :   -0.165584
   5 H :   -0.012570
   6 C :    0.090066
   7 H :    0.036449
   8 H :   -0.013432
   9 C :   -0.091226
  10 H :    0.045462
  11 H :    0.034012
  12 C :   -0.038789
  13 H :    0.028507
  14 H :    0.032205
  15 H :    0.023725
  16 S :    0.102400
  17 C :   -0.076208
  18 C :   -0.025541
  19 C :   -0.029929
  20 C :   -0.152736
  21 H :    0.010365
  22 C :    0.074507
  23 H :    0.011167
  24 H :    0.008265
  25 C :   -0.075012
  26 H :    0.031943
  27 H :    0.026039
  28 C :   -0.038525
  29 H :    0.019022
  30 H :    0.013161
  31 H :    0.059928
  32 H :    0.041253
  33 H :    0.047492
Sum of atomic charges:   -0.0000000

LOEWDIN ATOMIC CHARGES
----------------------
   0 S :    0.407804
   1 C :   -0.196530
   2 C :   -0.061582
   3 C :   -0.049565
   4 C :   -0.189830
   5 H :    0.020760
   6 C :   -0.032541
   7 H :    0.035329
   8 H :    0.021386
   9 C :   -0.035419
  10 H :    0.027983
  11 H :    0.023709
  12 C :   -0.056585
  13 H :    0.021683
  14 H :    0.020760
  15 H :    0.023608
  16 S :    0.400734
  17 C :   -0.177177
  18 C :   -0.061587
  19 C :   -0.058148
  20 C :   -0.205417
  21 H :    0.026274
  22 C :   -0.033318
  23 H :    0.029428
  24 H :    0.023932
  25 C :   -0.037997
  26 H :    0.024334
  27 H :    0.025515
  28 C :   -0.074239
  29 H :    0.020185
  30 H :    0.029241
  31 H :    0.034148
  32 H :    0.023611
  33 H :    0.029509

  Mayer bond orders larger than 0.100000
B(  0-S ,  1-C ) :   1.1321 B(  0-S ,  4-C ) :   1.1514 B(  1-C ,  2-C ) :   1.6381
B(  1-C , 32-H ) :   0.9633 B(  2-C ,  3-C ) :   1.2308 B(  2-C ,  6-C ) :   1.0215
B(  3-C ,  4-C ) :   1.5775 B(  3-C ,  5-H ) :   1.0061 B(  4-C , 20-C ) :   1.0381
B(  6-C ,  7-H ) :   0.9348 B(  6-C ,  8-H ) :   0.9371 B(  6-C ,  9-C ) :   1.0436
B(  9-C , 10-H ) :   0.9581 B(  9-C , 11-H ) :   0.9643 B(  9-C , 12-C ) :   1.0764
B( 12-C , 13-H ) :   0.9766 B( 12-C , 14-H ) :   0.9779 B( 12-C , 15-H ) :   0.9766
B( 16-S , 17-C ) :   1.1232 B( 16-S , 20-C ) :   1.1598 B( 17-C , 18-C ) :   1.6189
B( 17-C , 33-H ) :   0.9734 B( 18-C , 19-C ) :   1.2507 B( 18-C , 21-H ) :   0.9849
B( 19-C , 20-C ) :   1.5605 B( 19-C , 22-C ) :   1.0622 B( 22-C , 23-H ) :   0.9241
B( 22-C , 24-H ) :   0.9359 B( 22-C , 25-C ) :   1.0788 B( 25-C , 26-H ) :   0.9548
B( 25-C , 27-H ) :   0.9523 B( 25-C , 28-C ) :   1.0638 B( 28-C , 29-H ) :   0.9727
B( 28-C , 30-H ) :   0.9687 B( 28-C , 31-H ) :   0.9781

Dispersion correction           -0.014382816
FINAL SINGLE POINT ENERGY     -1339.864735360688

DIPOLE MOMENT
-------------
                                X             Y             Z
Electronic contribution:      2.06622       6.82937      25.37754
Nuclear contribution   :     -1.88844      -7.20367     -25.92461
                        -----------------------------------------
Total Dipole Moment    :      0.17778      -0.37429      -0.54707
                        -----------------------------------------
Magnitude (a.u.)       :      0.68629
Magnitude (Debye)      :      1.74440

Rotational constants in cm-1:     0.019926     0.007975     0.006914
Rotational constants in MHz :   597.353579   239.081129   207.283666

                             ****ORCA TERMINATED NORMALLY****
TOTAL RUN TIME: 0 days 0 hours 0 minutes 30 seconds 15 msec
