                         Program Version 4.2.1 -  RELEASE  -
|  1> ! wB97X-D3 SP def2-SVP
|  2> %pal
|  3> nprocs 16
|  4> end
|  5>
|  6> * xyz 0 1
|  7> S 	 -43.0254 	 56.8024 	 112.795
|  8> C 	 -44.576 	 57.4552 	 112.424
|  9> C 	 -44.7214 	 57.8417 	 111.07
| 10> C 	 -43.5338 	 57.5479 	 110.339
| 11> C 	 -42.4866 	 57.1411 	 111.146
| 12> H 	 -43.4351 	 57.8017 	 109.325
| 13> C 	 -45.9844 	 58.4199 	 110.407
| 14> H 	 -46.8726 	 58.0736 	 110.905
| 15> H 	 -45.9972 	 58.1751 	 109.393
| 16> C 	 -46.1965 	 59.8767 	 110.481
| 17> H 	 -45.3473 	 60.4704 	 110.331
| 18> H 	 -46.9336 	 60.082 	 109.635
| 19> C 	 -46.82 	 60.3924 	 111.776
| 20> H 	 -47.6653 	 59.7973 	 112.113
| 21> H 	 -46.1798 	 60.392 	 112.572
| 22> H 	 -47.1467 	 61.4281 	 111.667
| 23> S 	 -40.2511 	 58.0814 	 109.925
| 24> C 	 -38.8388 	 57.093 	 109.873
| 25> C 	 -39.011 	 55.8129 	 110.299
| 26> C 	 -40.3422 	 55.7208 	 110.874
| 27> C 	 -41.1135 	 56.8478 	 110.745
| 28> H 	 -38.1702 	 55.1066 	 110.295
| 29> C 	 -40.6571 	 54.4341 	 111.45
| 30> H 	 -41.6259 	 54.7942 	 111.981
| 31> H 	 -40.0312 	 54.1243 	 112.266
| 32> C 	 -41.1708 	 53.3582 	 110.498
| 33> H 	 -40.3208 	 52.936 	 110.005
| 34> H 	 -41.6427 	 53.9363 	 109.642
| 35> C 	 -42.1523 	 52.3849 	 111.039
| 36> H 	 -43.0046 	 52.8611 	 111.455
| 37> H 	 -41.7066 	 51.7828 	 111.864
| 38> H 	 -42.4843 	 51.6862 	 110.307
| 39> H 	 -45.4089 	 57.4184 	 113.124
| 40> H 	 -37.9339 	 57.4717 	 109.444
| 41> *
| 42>
| 43>                          ****END OF INPUT****

CARTESIAN COORDINATES (ANGSTROEM)
---------------------------------
  S    -43.025400   56.802400  112.795000
  C    -44.576000   57.455200  112.424000
  C    -44.721400   57.841700  111.070000
  C    -43.533800   57.547900  110.339000
  C    -42.486600   57.141100  111.146000
  H    -43.435100   57.801700  109.325000
  C    -45.984400   58.419900  110.407000
  H    -46.872600   58.073600  110.905000
  H    -45.997200   58.175100  109.393000
  C    -46.196500   59.876700  110.481000
  H    -45.347300   60.470400  110.331000
  H    -46.933600   60.082000  109.635000
  C    -46.820000   60.392400  111.776000
  H    -47.665300   59.797300  112.113000
  H    -46.179800   60.392000  112.572000
  H    -47.146700   61.428100  111.667000
  S    -40.251100   58.081400  109.925000
  C    -38.838800   57.093000  109.873000
  C    -39.011000   55.812900  110.299000
  C    -40.342200   55.720800  110.874000
  C    -41.113500   56.847800  110.745000
  H    -38.170200   55.106600  110.295000
  C    -40.657100   54.434100  111.450000
  H    -41.625900   54.794200  111.981000
  H    -40.031200   54.124300  112.266000
  C    -41.170800   53.358200  110.498000
  H    -40.320800   52.936000  110.005000
  H    -41.642700   53.936300  109.642000
  C    -42.152300   52.384900  111.039000
  H    -43.004600   52.861100  111.455000
  H    -41.706600   51.782800  111.864000
  H    -42.484300   51.686200  110.307000
  H    -45.408900   57.418400  113.124000
  H    -37.933900   57.471700  109.444000

 Total Charge           Charge          ....    0
 Multiplicity           Mult            ....    1
 Number of Electrons    NEL             ....  134
 Basis Dimension        Dim             ....  322

ORBITAL ENERGIES
----------------

  NO   OCC          E(Eh)            E(eV)
   0   2.0000     -88.971048     -2421.0253
   1   2.0000     -88.962720     -2420.7987
   2   2.0000     -10.331479      -281.1338
   3   2.0000     -10.320266      -280.8287
   4   2.0000     -10.315309      -280.6938
   5   2.0000     -10.310033      -280.5503
   6   2.0000     -10.304092      -280.3886
   7   2.0000     -10.296658      -280.1863
   8   2.0000     -10.292409      -280.0707
   9   2.0000     -10.291040      -280.0334
  10   2.0000     -10.284254      -279.8488
  11   2.0000     -10.280641      -279.7505
  12   2.0000     -10.280540      -279.7477
  13   2.0000     -10.280398      -279.7438
  14   2.0000     -10.268949      -279.4323
  15   2.0000     -10.266655      -279.3699
  16   2.0000      -8.085216      -220.0099
  17   2.0000      -8.078912      -219.8384
  18   2.0000      -6.043666      -164.4565
  19   2.0000      -6.039723      -164.3492
  20   2.0000      -6.037326      -164.2840
  21   2.0000      -6.036164      -164.2524
  22   2.0000      -6.033279      -164.1739
  23   2.0000      -6.029635      -164.0747
  24   2.0000      -1.012157       -27.5422
  25   2.0000      -0.987264       -26.8648
  26   2.0000      -0.920916       -25.0594
  27   2.0000      -0.915007       -24.8986
  28   2.0000      -0.870619       -23.6907
  29   2.0000      -0.857537       -23.3348
  30   2.0000      -0.851407       -23.1680
  31   2.0000      -0.815074       -22.1793
  32   2.0000      -0.789818       -21.4920
  33   2.0000      -0.770974       -20.9793
  34   2.0000      -0.705590       -19.2001
  35   2.0000      -0.699348       -19.0302
  36   2.0000      -0.689106       -18.7515
  37   2.0000      -0.667023       -18.1506
  38   2.0000      -0.643240       -17.5034
  39   2.0000      -0.626683       -17.0529
  40   2.0000      -0.597462       -16.2578
  41   2.0000      -0.574221       -15.6253
  42   2.0000      -0.563831       -15.3426
  43   2.0000      -0.558598       -15.2002
  44   2.0000      -0.543249       -14.7825
  45   2.0000      -0.523716       -14.2511
  46   2.0000      -0.522358       -14.2141
  47   2.0000      -0.515376       -14.0241
  48   2.0000      -0.506038       -13.7700
  49   2.0000      -0.490175       -13.3383
  50   2.0000      -0.487103       -13.2548
  51   2.0000      -0.483806       -13.1650
  52   2.0000      -0.480180       -13.0664
  53   2.0000      -0.471505       -12.8303
  54   2.0000      -0.462355       -12.5813
  55   2.0000      -0.450421       -12.2566
  56   2.0000      -0.447399       -12.1743
  57   2.0000      -0.440577       -11.9887
  58   2.0000      -0.429192       -11.6789
  59   2.0000      -0.427852       -11.6424
  60   2.0000      -0.414019       -11.2660
  61   2.0000      -0.411349       -11.1934
  62   2.0000      -0.393974       -10.7206
  63   2.0000      -0.347658        -9.4603
  64   2.0000      -0.333919        -9.0864
  65   2.0000      -0.327450        -8.9104
  66   2.0000      -0.291228        -7.9247
  67   0.0000       0.034672         0.9435
  68   0.0000       0.072222         1.9653
  69   0.0000       0.104335         2.8391
  70   0.0000       0.120683         3.2840
  71   0.0000       0.131505         3.5784

MULLIKEN ATOMIC CHARGES
-----------------------
   0 S :    0.127451
   1 C :   -0.123051
   2 C :   -0.105711
   3 C :    0.051531
   4 C :   -0.162534
   5 H :   -0.002856
   6 C :    0.133225
   7 H :    0.007367
   8 H :    0.007691
   9 C :   -0.070646
  10 H :    0.017011
  11 H :    0.031663
  12 C :   -0.027484
  13 H :    0.013540
  14 H :    0.011571
  15 H :    0.031414
  16 S :    0.111034
  17 C :   -0.083005
  18 C :   -0.021877
  19 C :   -0.078126
  20 C :   -0.130793
  21 H :    0.032721
  22 C :    0.036614
  23 H :    0.001002
  24 H :    0.034439
  25 C :   -0.048589
  26 H :    0.013593
  27 H :    0.030696
  28 C :   -0.012482
  29 H :    0.029366
  30 H :    0.025562
  31 H :    0.028354
  32 H :    0.047918
  33 H :    0.043392
Sum of atomic charges:   -0.0000000

LOEWDIN ATOMIC CHARGES
----------------------
   0 S :    0.429426
   1 C :   -0.211330
   2 C :   -0.056599
   3 C :   -0.056793
   4 C :   -0.185083
   5 H :    0.023923
   6 C :   -0.025821
   7 H :    0.031005
   8 H :    0.024928
   9 C :   -0.035749
  10 H :    0.016280
  11 H :    0.032704
  12 C :   -0.060189
  13 H :    0.020437
  14 H :    0.011256
  15 H :    0.030249
  16 S :    0.427955
  17 C :   -0.179802
  18 C :   -0.070765
  19 C :   -0.059210
  20 C :   -0.219207
  21 H :    0.039843
  22 C :   -0.050605
  23 H :    0.024969
  24 H :    0.027319
  25 C :   -0.041313
  26 H :    0.015560
  27 H :    0.034410
  28 C :   -0.060038
  29 H :    0.023319
  30 H :    0.028466
  31 H :    0.025215
  32 H :    0.025362
  33 H :    0.019879

  Mayer bond orders larger than 0.100000
B(  0-S ,  1-C ) :   1.1570 B(  0-S ,  4-C ) :   1.1545 B(  1-C ,  2-C ) :   1.5852
B(  1-C ,  4-C ) :   0.1004 B(  1-C , 32-H ) :   0.9641 B(  2-C ,  3-C ) :   1.2675
B(  2-C ,  6-C ) :   1.0294 B(  3-C ,  4-C ) :   1.5600 B(  3-C ,  5-H ) :   0.9950
B(  4-C , 20-C ) :   1.0232 B(  6-C ,  7-H ) :   0.9345 B(  6-C ,  8-H ) :   0.9362
B(  6-C ,  9-C ) :   1.0739 B(  9-C , 10-H ) :   0.9511 B(  9-C , 11-H ) :   0.9549
B(  9-C , 12-C ) :   1.0888 B( 12-C , 13-H ) :   0.9713 B( 12-C , 14-H ) :   0.9737
B( 12-C , 15-H ) :   0.9715 B( 16-S , 17-C ) :   1.1683 B( 16-S , 20-C ) :   1.1318
B( 17-C , 18-C ) :   1.6231 B( 17-C , 33-H ) :   0.9660 B( 18-C , 19-C ) :   1.1999
B( 18-C , 21-H ) :   0.9928 B( 19-C , 20-C ) :   1.6115 B( 19-C , 22-C ) :   1.0677
B( 22-C , 23-H ) :   0.9214 B( 22-C , 24-H ) :   0.9289 B( 22-C , 25-C ) :   1.0442
B( 25-C , 26-H ) :   0.9487 B( 25-C , 27-H ) :   0.9505 B( 25-C , 28-C ) :   1.0976
B( 28-C , 29-H ) :   0.9708 B( 28-C , 30-H ) :   0.9712 B( 28-C , 31-H ) :   0.9704

Dispersion correction           -0.014326328
FINAL SINGLE POINT ENERGY     -1339.861442905380

DIPOLE MOMENT
-------------
                                X             Y             Z
Electronic contribution:     16.19951       5.48597       1.56392
Nuclear contribution   :    -16.37723      -5.63409      -1.75643
                        -----------------------------------------
Total Dipole Moment    :     -0.17772      -0.14812      -0.19251
                        -----------------------------------------
Magnitude (a.u.)       :      0.30097
Magnitude (Debye)      :      0.76501

Rotational constants in cm-1:     0.021600     0.007984     0.006580
Rotational constants in MHz :   647.546323   239.350033   197.257745

                             ****ORCA TERMINATED NORMALLY****
TOTAL RUN TIME: 0 days 0 hours 0 minutes 30 seconds 203 msec
