                         Program Version 4.2.1 -  RELEASE  -
|  1> ! wB97X-D3 SP def2-SVP
|  2> %pal
|  3> nprocs 16
|  4> end
|  5>
|  6> * xyz 0 1
|  7> S 	 -101.639 	 58.122 	 121.437
|  8> C 	 -100.831 	 59.64 	 121.226
|  9> C 	 -101.185 	 60.286 	 120.073
| 10> C 	 -102.226 	 59.5659 	 119.436
| 11> C 	 -102.504 	 58.3107 	 119.989
| 12> H 	 -102.705 	 59.7978 	 118.512
| 13> C 	 -100.651 	 61.6273 	 119.67
| 14> H 	 -99.7069 	 61.9595 	 120.133
| 15> H 	 -101.299 	 62.4542 	 120.007
| 16> C 	 -100.522 	 61.8341 	 118.195
| 17> H 	 -101.548 	 61.7582 	 117.737
| 18> H 	 -100.216 	 62.8226 	 117.945
| 19> C 	 -99.6157 	 60.7679 	 117.577
| 20> H 	 -99.4536 	 60.9341 	 116.521
| 21> H 	 -98.64 	 60.7729 	 118.048
| 22> H 	 -99.8945 	 59.7362 	 117.783
| 23> S 	 -102.94 	 55.7574 	 118.866
| 24> C 	 -104.583 	 55.4142 	 118.403
| 25> C 	 -105.482 	 56.3324 	 118.885
| 26> C 	 -104.915 	 57.4731 	 119.595
| 27> C 	 -103.484 	 57.3691 	 119.538
| 28> H 	 -106.463 	 56.0863 	 118.659
| 29> C 	 -105.706 	 58.4751 	 120.357
| 30> H 	 -106.748 	 58.5655 	 120.053
| 31> H 	 -105.333 	 59.4815 	 120.131
| 32> C 	 -105.739 	 58.1603 	 121.883
| 33> H 	 -104.808 	 58.4046 	 122.321
| 34> H 	 -105.955 	 57.1441 	 122.113
| 35> C 	 -106.862 	 58.8708 	 122.659
| 36> H 	 -106.799 	 59.9597 	 122.458
| 37> H 	 -106.897 	 58.7775 	 123.69
| 38> H 	 -107.777 	 58.4571 	 122.271
| 39> H 	 -100.126 	 60.0295 	 121.932
| 40> H 	 -104.882 	 54.5038 	 118.016
| 41> *
| 42>
| 43>                          ****END OF INPUT****

CARTESIAN COORDINATES (ANGSTROEM)
---------------------------------
  S    -101.639000   58.122000  121.437000
  C    -100.831000   59.640000  121.226000
  C    -101.185000   60.286000  120.073000
  C    -102.226000   59.565900  119.436000
  C    -102.504000   58.310700  119.989000
  H    -102.705000   59.797800  118.512000
  C    -100.651000   61.627300  119.670000
  H    -99.706900   61.959500  120.133000
  H    -101.299000   62.454200  120.007000
  C    -100.522000   61.834100  118.195000
  H    -101.548000   61.758200  117.737000
  H    -100.216000   62.822600  117.945000
  C    -99.615700   60.767900  117.577000
  H    -99.453600   60.934100  116.521000
  H    -98.640000   60.772900  118.048000
  H    -99.894500   59.736200  117.783000
  S    -102.940000   55.757400  118.866000
  C    -104.583000   55.414200  118.403000
  C    -105.482000   56.332400  118.885000
  C    -104.915000   57.473100  119.595000
  C    -103.484000   57.369100  119.538000
  H    -106.463000   56.086300  118.659000
  C    -105.706000   58.475100  120.357000
  H    -106.748000   58.565500  120.053000
  H    -105.333000   59.481500  120.131000
  C    -105.739000   58.160300  121.883000
  H    -104.808000   58.404600  122.321000
  H    -105.955000   57.144100  122.113000
  C    -106.862000   58.870800  122.659000
  H    -106.799000   59.959700  122.458000
  H    -106.897000   58.777500  123.690000
  H    -107.777000   58.457100  122.271000
  H    -100.126000   60.029500  121.932000
  H    -104.882000   54.503800  118.016000

 Total Charge           Charge          ....    0
 Multiplicity           Mult            ....    1
 Number of Electrons    NEL             ....  134
 Basis Dimension        Dim             ....  322

ORBITAL ENERGIES
----------------

  NO   OCC          E(Eh)            E(eV)
   0   2.0000     -88.966121     -2420.8912
   1   2.0000     -88.964642     -2420.8510
   2   2.0000     -10.332018      -281.1485
   3   2.0000     -10.321717      -280.8682
   4   2.0000     -10.314794      -280.6798
   5   2.0000     -10.310310      -280.5578
   6   2.0000     -10.308693      -280.5138
   7   2.0000     -10.300073      -280.2792
   8   2.0000     -10.294663      -280.1320
   9   2.0000     -10.291733      -280.0523
  10   2.0000     -10.291384      -280.0428
  11   2.0000     -10.289525      -279.9922
  12   2.0000     -10.283639      -279.8321
  13   2.0000     -10.278052      -279.6800
  14   2.0000     -10.270104      -279.4637
  15   2.0000     -10.268273      -279.4139
  16   2.0000      -8.081921      -219.9202
  17   2.0000      -8.078510      -219.8274
  18   2.0000      -6.040129      -164.3603
  19   2.0000      -6.036982      -164.2746
  20   2.0000      -6.036221      -164.2539
  21   2.0000      -6.033281      -164.1739
  22   2.0000      -6.032986      -164.1659
  23   2.0000      -6.029224      -164.0635
  24   2.0000      -1.009511       -27.4702
  25   2.0000      -0.978653       -26.6305
  26   2.0000      -0.920539       -25.0492
  27   2.0000      -0.908425       -24.7195
  28   2.0000      -0.871162       -23.7055
  29   2.0000      -0.850766       -23.1505
  30   2.0000      -0.844090       -22.9689
  31   2.0000      -0.814068       -22.1519
  32   2.0000      -0.788349       -21.4521
  33   2.0000      -0.773278       -21.0420
  34   2.0000      -0.713734       -19.4217
  35   2.0000      -0.699584       -19.0366
  36   2.0000      -0.692106       -18.8332
  37   2.0000      -0.656594       -17.8668
  38   2.0000      -0.645940       -17.5769
  39   2.0000      -0.626266       -17.0416
  40   2.0000      -0.599027       -16.3003
  41   2.0000      -0.573163       -15.5966
  42   2.0000      -0.564666       -15.3653
  43   2.0000      -0.555186       -15.1074
  44   2.0000      -0.537909       -14.6372
  45   2.0000      -0.525492       -14.2994
  46   2.0000      -0.517985       -14.0951
  47   2.0000      -0.516352       -14.0507
  48   2.0000      -0.505167       -13.7463
  49   2.0000      -0.498137       -13.5550
  50   2.0000      -0.490066       -13.3354
  51   2.0000      -0.481880       -13.1126
  52   2.0000      -0.471179       -12.8214
  53   2.0000      -0.461736       -12.5645
  54   2.0000      -0.456933       -12.4338
  55   2.0000      -0.452305       -12.3078
  56   2.0000      -0.446504       -12.1500
  57   2.0000      -0.433870       -11.8062
  58   2.0000      -0.429177       -11.6785
  59   2.0000      -0.427578       -11.6350
  60   2.0000      -0.420330       -11.4378
  61   2.0000      -0.418118       -11.3776
  62   2.0000      -0.411053       -11.1853
  63   2.0000      -0.333723        -9.0811
  64   2.0000      -0.329636        -8.9699
  65   2.0000      -0.326831        -8.8935
  66   2.0000      -0.299022        -8.1368
  67   0.0000       0.035213         0.9582
  68   0.0000       0.057322         1.5598
  69   0.0000       0.112858         3.0710
  70   0.0000       0.121473         3.3054
  71   0.0000       0.130396         3.5483

MULLIKEN ATOMIC CHARGES
-----------------------
   0 S :    0.131025
   1 C :   -0.125600
   2 C :   -0.061195
   3 C :    0.046728
   4 C :   -0.184106
   5 H :    0.002152
   6 C :    0.074049
   7 H :    0.017481
   8 H :    0.036495
   9 C :   -0.081047
  10 H :    0.028140
  11 H :    0.017659
  12 C :   -0.042068
  13 H :    0.034444
  14 H :    0.011492
  15 H :    0.042626
  16 S :    0.099628
  17 C :   -0.057914
  18 C :   -0.021783
  19 C :    0.006181
  20 C :   -0.193569
  21 H :   -0.009775
  22 C :    0.095796
  23 H :    0.009446
  24 H :    0.028064
  25 C :   -0.044391
  26 H :    0.020480
  27 H :    0.023603
  28 C :   -0.042573
  29 H :    0.026893
  30 H :    0.023569
  31 H :    0.021207
  32 H :    0.037821
  33 H :    0.029046
Sum of atomic charges:    0.0000000

LOEWDIN ATOMIC CHARGES
----------------------
   0 S :    0.443381
   1 C :   -0.194503
   2 C :   -0.065968
   3 C :   -0.053309
   4 C :   -0.223362
   5 H :    0.025831
   6 C :   -0.036724
   7 H :    0.031119
   8 H :    0.037787
   9 C :   -0.042658
  10 H :    0.024837
  11 H :    0.020555
  12 C :   -0.068819
  13 H :    0.024206
  14 H :    0.023040
  15 H :    0.029431
  16 S :    0.375234
  17 C :   -0.171798
  18 C :   -0.064037
  19 C :   -0.034012
  20 C :   -0.184493
  21 H :    0.019710
  22 C :   -0.032764
  23 H :    0.029502
  24 H :    0.036904
  25 C :   -0.027350
  26 H :    0.014225
  27 H :    0.022543
  28 C :   -0.059355
  29 H :    0.025587
  30 H :    0.016843
  31 H :    0.020943
  32 H :    0.023181
  33 H :    0.014294

  Mayer bond orders larger than 0.100000
B(  0-S ,  1-C ) :   1.1605 B(  0-S ,  4-C ) :   1.1756 B(  1-C ,  2-C ) :   1.5897
B(  1-C , 32-H ) :   0.9713 B(  2-C ,  3-C ) :   1.2470 B(  2-C ,  6-C ) :   1.0201
B(  3-C ,  4-C ) :   1.5636 B(  3-C ,  5-H ) :   0.9971 B(  4-C , 20-C ) :   1.0521
B(  6-C ,  7-H ) :   0.9425 B(  6-C ,  8-H ) :   0.9307 B(  6-C ,  9-C ) :   1.0901
B(  9-C , 10-H ) :   0.9473 B(  9-C , 11-H ) :   0.9520 B(  9-C , 12-C ) :   1.0768
B( 12-C , 13-H ) :   0.9754 B( 12-C , 14-H ) :   0.9699 B( 12-C , 15-H ) :   0.9693
B( 16-S , 17-C ) :   1.1405 B( 16-S , 20-C ) :   1.1293 B( 17-C , 18-C ) :   1.6482
B( 17-C , 20-C ) :   0.1006 B( 17-C , 33-H ) :   0.9706 B( 18-C , 19-C ) :   1.2002
B( 18-C , 21-H ) :   0.9987 B( 19-C , 20-C ) :   1.5747 B( 19-C , 22-C ) :   1.0678
B( 22-C , 23-H ) :   0.9361 B( 22-C , 24-H ) :   0.9155 B( 22-C , 25-C ) :   1.0497
B( 25-C , 26-H ) :   0.9542 B( 25-C , 27-H ) :   0.9622 B( 25-C , 28-C ) :   1.0823
B( 28-C , 29-H ) :   0.9749 B( 28-C , 30-H ) :   0.9757 B( 28-C , 31-H ) :   0.9773

Dispersion correction           -0.014790473
FINAL SINGLE POINT ENERGY     -1339.872863771006

DIPOLE MOMENT
-------------
                                X             Y             Z
Electronic contribution:      5.51284     -18.45964       0.14226
Nuclear contribution   :     -5.81230      18.90485      -0.08594
                        -----------------------------------------
Total Dipole Moment    :     -0.29946       0.44520       0.05632
                        -----------------------------------------
Magnitude (a.u.)       :      0.53950
Magnitude (Debye)      :      1.37129

Rotational constants in cm-1:     0.018252     0.008875     0.007420
Rotational constants in MHz :   547.182507   266.071289   222.434053

                             ****ORCA TERMINATED NORMALLY****
TOTAL RUN TIME: 0 days 0 hours 0 minutes 35 seconds 50 msec
