                         Program Version 4.2.1 -  RELEASE  -
|  1> ! wB97X-D3 SP def2-SVP
|  2> %pal
|  3> nprocs 16
|  4> end
|  5>
|  6> * xyz 0 1
|  7> S 	 41.2196 	 16.8773 	 49.2879
|  8> C 	 41.0172 	 16.1389 	 47.6868
|  9> C 	 40.9453 	 17.0698 	 46.6249
| 10> C 	 41.1198 	 18.4012 	 47.1726
| 11> C 	 41.4053 	 18.3915 	 48.5272
| 12> H 	 41.0621 	 19.3547 	 46.6138
| 13> C 	 40.6664 	 16.7121 	 45.2466
| 14> H 	 39.6086 	 16.6946 	 45.1106
| 15> H 	 40.8881 	 15.6259 	 45.1799
| 16> C 	 41.402 	 17.3731 	 44.0024
| 17> H 	 42.4811 	 17.3115 	 44.0907
| 18> H 	 41.1875 	 16.595 	 43.2746
| 19> C 	 40.7694 	 18.646 	 43.6046
| 20> H 	 40.8612 	 18.8002 	 42.5195
| 21> H 	 39.7096 	 18.5739 	 43.7279
| 22> H 	 41.0645 	 19.4804 	 44.1291
| 23> S 	 43.4254 	 19.9118 	 49.435
| 24> C 	 43.0854 	 21.1767 	 50.5765
| 25> C 	 41.697 	 21.3907 	 50.7689
| 26> C 	 40.928 	 20.4158 	 50.1165
| 27> C 	 41.7258 	 19.5711 	 49.3039
| 28> H 	 41.3498 	 22.1655 	 51.4834
| 29> C 	 39.3987 	 20.39 	 50.2967
| 30> H 	 39.292 	 20.3372 	 51.4154
| 31> H 	 39.1757 	 19.4412 	 49.8662
| 32> C 	 38.6195 	 21.6082 	 49.7241
| 33> H 	 39.0596 	 22.4603 	 50.2042
| 34> H 	 37.533 	 21.6344 	 49.8594
| 35> C 	 38.7044 	 21.8237 	 48.2281
| 36> H 	 39.7267 	 22.2189 	 47.9757
| 37> H 	 38.0235 	 22.6132 	 47.9088
| 38> H 	 38.549 	 20.8803 	 47.6405
| 39> H 	 41.0887 	 15.1171 	 47.5893
| 40> H 	 43.9037 	 21.8431 	 50.9067
| 41> *
| 42>
| 43>                          ****END OF INPUT****

CARTESIAN COORDINATES (ANGSTROEM)
---------------------------------
  S     41.219600   16.877300   49.287900
  C     41.017200   16.138900   47.686800
  C     40.945300   17.069800   46.624900
  C     41.119800   18.401200   47.172600
  C     41.405300   18.391500   48.527200
  H     41.062100   19.354700   46.613800
  C     40.666400   16.712100   45.246600
  H     39.608600   16.694600   45.110600
  H     40.888100   15.625900   45.179900
  C     41.402000   17.373100   44.002400
  H     42.481100   17.311500   44.090700
  H     41.187500   16.595000   43.274600
  C     40.769400   18.646000   43.604600
  H     40.861200   18.800200   42.519500
  H     39.709600   18.573900   43.727900
  H     41.064500   19.480400   44.129100
  S     43.425400   19.911800   49.435000
  C     43.085400   21.176700   50.576500
  C     41.697000   21.390700   50.768900
  C     40.928000   20.415800   50.116500
  C     41.725800   19.571100   49.303900
  H     41.349800   22.165500   51.483400
  C     39.398700   20.390000   50.296700
  H     39.292000   20.337200   51.415400
  H     39.175700   19.441200   49.866200
  C     38.619500   21.608200   49.724100
  H     39.059600   22.460300   50.204200
  H     37.533000   21.634400   49.859400
  C     38.704400   21.823700   48.228100
  H     39.726700   22.218900   47.975700
  H     38.023500   22.613200   47.908800
  H     38.549000   20.880300   47.640500
  H     41.088700   15.117100   47.589300
  H     43.903700   21.843100   50.906700

 Total Charge           Charge          ....    0
 Multiplicity           Mult            ....    1
 Number of Electrons    NEL             ....  134
 Basis Dimension        Dim             ....  322

ORBITAL ENERGIES
----------------

  NO   OCC          E(Eh)            E(eV)
   0   2.0000     -88.966411     -2420.8991
   1   2.0000     -88.965892     -2420.8850
   2   2.0000     -10.320717      -280.8410
   3   2.0000     -10.319956      -280.8203
   4   2.0000     -10.318384      -280.7775
   5   2.0000     -10.307862      -280.4912
   6   2.0000     -10.302983      -280.3584
   7   2.0000     -10.302692      -280.3505
   8   2.0000     -10.295518      -280.1553
   9   2.0000     -10.294407      -280.1251
  10   2.0000     -10.293702      -280.1059
  11   2.0000     -10.289283      -279.9856
  12   2.0000     -10.288031      -279.9516
  13   2.0000     -10.285092      -279.8716
  14   2.0000     -10.277530      -279.6658
  15   2.0000     -10.269305      -279.4420
  16   2.0000      -8.081474      -219.9081
  17   2.0000      -8.080955      -219.8940
  18   2.0000      -6.039648      -164.3472
  19   2.0000      -6.039259      -164.3366
  20   2.0000      -6.035901      -164.2452
  21   2.0000      -6.035562      -164.2360
  22   2.0000      -6.032608      -164.1556
  23   2.0000      -6.031782      -164.1331
  24   2.0000      -1.005149       -27.3515
  25   2.0000      -0.979814       -26.6621
  26   2.0000      -0.917139       -24.9566
  27   2.0000      -0.905499       -24.6399
  28   2.0000      -0.869931       -23.6720
  29   2.0000      -0.852409       -23.1952
  30   2.0000      -0.847115       -23.0512
  31   2.0000      -0.811402       -22.0794
  32   2.0000      -0.784827       -21.3562
  33   2.0000      -0.767289       -20.8790
  34   2.0000      -0.712870       -19.3982
  35   2.0000      -0.697999       -18.9935
  36   2.0000      -0.687587       -18.7102
  37   2.0000      -0.656185       -17.8557
  38   2.0000      -0.641484       -17.4557
  39   2.0000      -0.615758       -16.7556
  40   2.0000      -0.589824       -16.0499
  41   2.0000      -0.568897       -15.4805
  42   2.0000      -0.550901       -14.9908
  43   2.0000      -0.546910       -14.8822
  44   2.0000      -0.543722       -14.7954
  45   2.0000      -0.537912       -14.6373
  46   2.0000      -0.520520       -14.1641
  47   2.0000      -0.516010       -14.0413
  48   2.0000      -0.503514       -13.7013
  49   2.0000      -0.495795       -13.4913
  50   2.0000      -0.490119       -13.3368
  51   2.0000      -0.479676       -13.0526
  52   2.0000      -0.470048       -12.7907
  53   2.0000      -0.460357       -12.5269
  54   2.0000      -0.450997       -12.2723
  55   2.0000      -0.447912       -12.1883
  56   2.0000      -0.443925       -12.0798
  57   2.0000      -0.440500       -11.9866
  58   2.0000      -0.439567       -11.9612
  59   2.0000      -0.425175       -11.5696
  60   2.0000      -0.423961       -11.5366
  61   2.0000      -0.409303       -11.1377
  62   2.0000      -0.407121       -11.0783
  63   2.0000      -0.336834        -9.1657
  64   2.0000      -0.326844        -8.8939
  65   2.0000      -0.312128        -8.4934
  66   2.0000      -0.303595        -8.2613
  67   0.0000       0.048697         1.3251
  68   0.0000       0.049393         1.3441
  69   0.0000       0.108776         2.9599
  70   0.0000       0.121660         3.3105
  71   0.0000       0.127257         3.4629

MULLIKEN ATOMIC CHARGES
-----------------------
   0 S :    0.130934
   1 C :   -0.112907
   2 C :   -0.046289
   3 C :    0.028139
   4 C :   -0.182918
   5 H :    0.023323
   6 C :    0.008574
   7 H :    0.036291
   8 H :    0.013311
   9 C :   -0.050364
  10 H :    0.034330
  11 H :    0.020700
  12 C :    0.010575
  13 H :    0.029767
  14 H :    0.010068
  15 H :    0.026497
  16 S :    0.131492
  17 C :   -0.122122
  18 C :   -0.056466
  19 C :   -0.040046
  20 C :   -0.213037
  21 H :    0.038083
  22 C :    0.105333
  23 H :    0.043202
  24 H :    0.014190
  25 C :   -0.051194
  26 H :    0.018755
  27 H :    0.036762
  28 C :   -0.086408
  29 H :    0.035710
  30 H :    0.034765
  31 H :    0.043109
  32 H :    0.018271
  33 H :    0.069569
Sum of atomic charges:    0.0000000

LOEWDIN ATOMIC CHARGES
----------------------
   0 S :    0.419520
   1 C :   -0.183761
   2 C :   -0.054248
   3 C :   -0.065072
   4 C :   -0.222007
   5 H :    0.036364
   6 C :   -0.040884
   7 H :    0.033645
   8 H :    0.036476
   9 C :   -0.034764
  10 H :    0.026826
  11 H :    0.029426
  12 C :   -0.060376
  13 H :    0.032546
  14 H :    0.025433
  15 H :    0.014263
  16 S :    0.433056
  17 C :   -0.197719
  18 C :   -0.080008
  19 C :   -0.056076
  20 C :   -0.218380
  21 H :    0.038358
  22 C :   -0.024892
  23 H :    0.041212
  24 H :    0.021416
  25 C :   -0.043070
  26 H :    0.020817
  27 H :    0.028918
  28 C :   -0.072448
  29 H :    0.026719
  30 H :    0.025404
  31 H :    0.028849
  32 H :    0.004445
  33 H :    0.030014

  Mayer bond orders larger than 0.100000
B(  0-S ,  1-C ) :   1.1379 B(  0-S ,  4-C ) :   1.1655 B(  1-C ,  2-C ) :   1.5938
B(  1-C , 32-H ) :   0.9772 B(  2-C ,  3-C ) :   1.2204 B(  2-C ,  6-C ) :   1.0454
B(  3-C ,  4-C ) :   1.5892 B(  3-C ,  5-H ) :   0.9871 B(  4-C , 20-C ) :   1.0055
B(  6-C ,  7-H ) :   0.9258 B(  6-C ,  8-H ) :   0.9299 B(  6-C ,  9-C ) :   1.0713
B(  9-C , 10-H ) :   0.9591 B(  9-C , 11-H ) :   0.9514 B(  9-C , 12-C ) :   1.0775
B( 12-C , 13-H ) :   0.9663 B( 12-C , 14-H ) :   0.9681 B( 12-C , 15-H ) :   0.9760
B( 16-S , 17-C ) :   1.1852 B( 16-S , 20-C ) :   1.1799 B( 17-C , 18-C ) :   1.5668
B( 17-C , 20-C ) :   0.1170 B( 17-C , 33-H ) :   0.9631 B( 18-C , 19-C ) :   1.2718
B( 18-C , 21-H ) :   0.9829 B( 19-C , 20-C ) :   1.5566 B( 19-C , 22-C ) :   1.0198
B( 22-C , 23-H ) :   0.9385 B( 22-C , 24-H ) :   0.9330 B( 22-C , 25-C ) :   1.0599
B( 25-C , 26-H ) :   0.9546 B( 25-C , 27-H ) :   0.9621 B( 25-C , 28-C ) :   1.0780
B( 28-C , 29-H ) :   0.9736 B( 28-C , 30-H ) :   0.9738 B( 28-C , 31-H ) :   0.9741

Dispersion correction           -0.014904304
FINAL SINGLE POINT ENERGY     -1339.863528520243

DIPOLE MOMENT
-------------
                                X             Y             Z
Electronic contribution:     15.14168      -7.94106      18.07925
Nuclear contribution   :    -15.43950       8.09684     -18.47355
                        -----------------------------------------
Total Dipole Moment    :     -0.29782       0.15578      -0.39430
                        -----------------------------------------
Magnitude (a.u.)       :      0.51811
Magnitude (Debye)      :      1.31693

Rotational constants in cm-1:     0.018002     0.008793     0.007779
Rotational constants in MHz :   539.690127   263.611806   233.205735

                             ****ORCA TERMINATED NORMALLY****
TOTAL RUN TIME: 0 days 0 hours 0 minutes 33 seconds 177 msec
