                         Program Version 4.2.1 -  RELEASE  -
|  1> ! wB97X-D3 SP def2-SVP
|  2> %pal
|  3> nprocs 16
|  4> end
|  5>
|  6> * xyz 0 1
|  7> S 	 -94.4745 	 62.3549 	 125.261
|  8> C 	 -94.4347 	 60.5723 	 125.018
|  9> C 	 -93.2514 	 59.9814 	 125.48
| 10> C 	 -92.3621 	 60.9316 	 126.049
| 11> C 	 -92.8971 	 62.2372 	 126.094
| 12> H 	 -91.42 	 60.7048 	 126.486
| 13> C 	 -92.8551 	 58.531 	 125.333
| 14> H 	 -93.8082 	 58.0662 	 125.484
| 15> H 	 -92.2541 	 58.1712 	 126.148
| 16> C 	 -92.064 	 58.1779 	 124.143
| 17> H 	 -92.6049 	 58.5486 	 123.224
| 18> H 	 -91.1658 	 58.8007 	 124.248
| 19> C 	 -91.869 	 56.6718 	 124.144
| 20> H 	 -91.4418 	 56.3401 	 123.233
| 21> H 	 -91.3921 	 56.2631 	 125.027
| 22> H 	 -92.8704 	 56.169 	 124.256
| 23> S 	 -93.6837 	 64.6767 	 127.051
| 24> C 	 -92.5562 	 65.6476 	 127.956
| 25> C 	 -91.2581 	 65.0717 	 127.869
| 26> C 	 -91.177 	 63.8456 	 127.128
| 27> C 	 -92.4211 	 63.4816 	 126.649
| 28> H 	 -90.4409 	 65.6232 	 128.308
| 29> C 	 -89.8891 	 63.1901 	 126.796
| 30> H 	 -89.9842 	 62.0921 	 126.781
| 31> H 	 -89.1038 	 63.5216 	 127.605
| 32> C 	 -89.2273 	 63.7125 	 125.495
| 33> H 	 -88.9658 	 64.7649 	 125.628
| 34> H 	 -89.9758 	 63.6615 	 124.716
| 35> C 	 -88.0055 	 62.8584 	 125.128
| 36> H 	 -87.3132 	 62.7956 	 125.97
| 37> H 	 -87.4211 	 63.3008 	 124.271
| 38> H 	 -88.2352 	 61.8901 	 124.693
| 39> H 	 -95.0967 	 59.9685 	 124.506
| 40> H 	 -92.8573 	 66.621 	 128.186
| 41> *
| 42>
| 43>                          ****END OF INPUT****

CARTESIAN COORDINATES (ANGSTROEM)
---------------------------------
  S    -94.474500   62.354900  125.261000
  C    -94.434700   60.572300  125.018000
  C    -93.251400   59.981400  125.480000
  C    -92.362100   60.931600  126.049000
  C    -92.897100   62.237200  126.094000
  H    -91.420000   60.704800  126.486000
  C    -92.855100   58.531000  125.333000
  H    -93.808200   58.066200  125.484000
  H    -92.254100   58.171200  126.148000
  C    -92.064000   58.177900  124.143000
  H    -92.604900   58.548600  123.224000
  H    -91.165800   58.800700  124.248000
  C    -91.869000   56.671800  124.144000
  H    -91.441800   56.340100  123.233000
  H    -91.392100   56.263100  125.027000
  H    -92.870400   56.169000  124.256000
  S    -93.683700   64.676700  127.051000
  C    -92.556200   65.647600  127.956000
  C    -91.258100   65.071700  127.869000
  C    -91.177000   63.845600  127.128000
  C    -92.421100   63.481600  126.649000
  H    -90.440900   65.623200  128.308000
  C    -89.889100   63.190100  126.796000
  H    -89.984200   62.092100  126.781000
  H    -89.103800   63.521600  127.605000
  C    -89.227300   63.712500  125.495000
  H    -88.965800   64.764900  125.628000
  H    -89.975800   63.661500  124.716000
  C    -88.005500   62.858400  125.128000
  H    -87.313200   62.795600  125.970000
  H    -87.421100   63.300800  124.271000
  H    -88.235200   61.890100  124.693000
  H    -95.096700   59.968500  124.506000
  H    -92.857300   66.621000  128.186000

 Total Charge           Charge          ....    0
 Multiplicity           Mult            ....    1
 Number of Electrons    NEL             ....  134
 Basis Dimension        Dim             ....  322

ORBITAL ENERGIES
----------------

  NO   OCC          E(Eh)            E(eV)
   0   2.0000     -88.969950     -2420.9954
   1   2.0000     -88.964344     -2420.8429
   2   2.0000     -10.336288      -281.2647
   3   2.0000     -10.328686      -281.0578
   4   2.0000     -10.319105      -280.7971
   5   2.0000     -10.312266      -280.6110
   6   2.0000     -10.305060      -280.4149
   7   2.0000     -10.303005      -280.3590
   8   2.0000     -10.301780      -280.3257
   9   2.0000     -10.300646      -280.2948
  10   2.0000     -10.295336      -280.1503
  11   2.0000     -10.288730      -279.9706
  12   2.0000     -10.288498      -279.9643
  13   2.0000     -10.283306      -279.8230
  14   2.0000     -10.282671      -279.8057
  15   2.0000     -10.280408      -279.7441
  16   2.0000      -8.083135      -219.9533
  17   2.0000      -8.079117      -219.8440
  18   2.0000      -6.041798      -164.4057
  19   2.0000      -6.038056      -164.3038
  20   2.0000      -6.037588      -164.2911
  21   2.0000      -6.033633      -164.1835
  22   2.0000      -6.033591      -164.1824
  23   2.0000      -6.029926      -164.0826
  24   2.0000      -1.003241       -27.2996
  25   2.0000      -0.975948       -26.5569
  26   2.0000      -0.924714       -25.1627
  27   2.0000      -0.911964       -24.8158
  28   2.0000      -0.869860       -23.6701
  29   2.0000      -0.856827       -23.3155
  30   2.0000      -0.841746       -22.9051
  31   2.0000      -0.811127       -22.0719
  32   2.0000      -0.782511       -21.2932
  33   2.0000      -0.773088       -21.0368
  34   2.0000      -0.710134       -19.3237
  35   2.0000      -0.704272       -19.1642
  36   2.0000      -0.698413       -19.0048
  37   2.0000      -0.669070       -18.2063
  38   2.0000      -0.640090       -17.4177
  39   2.0000      -0.623029       -16.9535
  40   2.0000      -0.599291       -16.3075
  41   2.0000      -0.581570       -15.8253
  42   2.0000      -0.571026       -15.5384
  43   2.0000      -0.553147       -15.0519
  44   2.0000      -0.531191       -14.4544
  45   2.0000      -0.523278       -14.2391
  46   2.0000      -0.520224       -14.1560
  47   2.0000      -0.514834       -14.0093
  48   2.0000      -0.504289       -13.7224
  49   2.0000      -0.496217       -13.5027
  50   2.0000      -0.493204       -13.4208
  51   2.0000      -0.485825       -13.2200
  52   2.0000      -0.473731       -12.8909
  53   2.0000      -0.462220       -12.5777
  54   2.0000      -0.454711       -12.3733
  55   2.0000      -0.451620       -12.2892
  56   2.0000      -0.445540       -12.1237
  57   2.0000      -0.440490       -11.9864
  58   2.0000      -0.431297       -11.7362
  59   2.0000      -0.426764       -11.6128
  60   2.0000      -0.421995       -11.4831
  61   2.0000      -0.415218       -11.2987
  62   2.0000      -0.413287       -11.2461
  63   2.0000      -0.356644        -9.7048
  64   2.0000      -0.338069        -9.1993
  65   2.0000      -0.328229        -8.9316
  66   2.0000      -0.276340        -7.5196
  67   0.0000       0.010489         0.2854
  68   0.0000       0.071280         1.9396
  69   0.0000       0.091008         2.4764
  70   0.0000       0.114160         3.1064
  71   0.0000       0.130565         3.5529

MULLIKEN ATOMIC CHARGES
-----------------------
   0 S :    0.086904
   1 C :   -0.063687
   2 C :   -0.106073
   3 C :    0.009613
   4 C :   -0.100172
   5 H :   -0.003180
   6 C :    0.043518
   7 H :    0.014389
   8 H :    0.009150
   9 C :   -0.048201
  10 H :    0.032628
  11 H :    0.026470
  12 C :   -0.010845
  13 H :    0.034273
  14 H :    0.025166
  15 H :    0.022296
  16 S :    0.081622
  17 C :   -0.075774
  18 C :   -0.038097
  19 C :   -0.039953
  20 C :   -0.103991
  21 H :    0.018574
  22 C :   -0.003947
  23 H :    0.029512
  24 H :    0.036276
  25 C :   -0.041408
  26 H :    0.029846
  27 H :    0.030383
  28 C :   -0.054721
  29 H :    0.032920
  30 H :    0.034827
  31 H :    0.034180
  32 H :    0.006640
  33 H :    0.050866
Sum of atomic charges:    0.0000000

LOEWDIN ATOMIC CHARGES
----------------------
   0 S :    0.372434
   1 C :   -0.178221
   2 C :   -0.051458
   3 C :   -0.066934
   4 C :   -0.162191
   5 H :    0.021952
   6 C :   -0.037821
   7 H :    0.026238
   8 H :    0.027610
   9 C :   -0.041170
  10 H :    0.029756
  11 H :    0.026879
  12 C :   -0.063022
  13 H :    0.021439
  14 H :    0.025555
  15 H :    0.033768
  16 S :    0.391939
  17 C :   -0.179317
  18 C :   -0.061637
  19 C :   -0.062013
  20 C :   -0.188052
  21 H :    0.028620
  22 C :   -0.037281
  23 H :    0.028001
  24 H :    0.041549
  25 C :   -0.033971
  26 H :    0.025719
  27 H :    0.023451
  28 C :   -0.071593
  29 H :    0.023997
  30 H :    0.033227
  31 H :    0.025335
  32 H :    0.010582
  33 H :    0.016628

  Mayer bond orders larger than 0.100000
B(  0-S ,  1-C ) :   1.1123 B(  0-S ,  4-C ) :   1.1334 B(  1-C ,  2-C ) :   1.6359
B(  1-C ,  4-C ) :   0.1027 B(  1-C , 32-H ) :   0.9689 B(  2-C ,  3-C ) :   1.2445
B(  2-C ,  6-C ) :   1.0169 B(  3-C ,  4-C ) :   1.5580 B(  3-C ,  5-H ) :   0.9863
B(  4-C , 20-C ) :   1.0796 B(  6-C ,  7-H ) :   0.9343 B(  6-C ,  8-H ) :   0.9399
B(  6-C ,  9-C ) :   1.0607 B(  9-C , 10-H ) :   0.9526 B(  9-C , 11-H ) :   0.9488
B(  9-C , 12-C ) :   1.0774 B( 12-C , 13-H ) :   0.9736 B( 12-C , 14-H ) :   0.9707
B( 12-C , 15-H ) :   0.9692 B( 16-S , 17-C ) :   1.1623 B( 16-S , 20-C ) :   1.1303
B( 17-C , 18-C ) :   1.5702 B( 17-C , 20-C ) :   0.1065 B( 17-C , 33-H ) :   0.9765
B( 18-C , 19-C ) :   1.2533 B( 18-C , 21-H ) :   0.9908 B( 19-C , 20-C ) :   1.5746
B( 19-C , 22-C ) :   1.0624 B( 22-C , 23-H ) :   0.9362 B( 22-C , 24-H ) :   0.9279
B( 22-C , 25-C ) :   1.0596 B( 25-C , 26-H ) :   0.9543 B( 25-C , 27-H ) :   0.9569
B( 25-C , 28-C ) :   1.0811 B( 28-C , 29-H ) :   0.9733 B( 28-C , 30-H ) :   0.9721
B( 28-C , 31-H ) :   0.9741

Dispersion correction           -0.013698720
FINAL SINGLE POINT ENERGY     -1339.866392230851

DIPOLE MOMENT
-------------
                                X             Y             Z
Electronic contribution:    -22.53932      20.10734       8.03486
Nuclear contribution   :     23.16977     -20.40043      -8.13580
                        -----------------------------------------
Total Dipole Moment    :      0.63045      -0.29309      -0.10095
                        -----------------------------------------
Magnitude (a.u.)       :      0.70254
Magnitude (Debye)      :      1.78571

Rotational constants in cm-1:     0.018365     0.008748     0.006330
Rotational constants in MHz :   550.556242   262.253453   189.782956

                             ****ORCA TERMINATED NORMALLY****
TOTAL RUN TIME: 0 days 0 hours 0 minutes 33 seconds 320 msec
