                         Program Version 4.2.1 -  RELEASE  -
|  1> ! wB97X-D3 SP def2-SVP
|  2> %pal
|  3> nprocs 16
|  4> end
|  5>
|  6> * xyz 0 1
|  7> S 	 -42.8647 	 50.4694 	 104.21
|  8> C 	 -41.8194 	 49.8648 	 102.983
|  9> C 	 -40.8911 	 50.7841 	 102.659
| 10> C 	 -40.8827 	 51.9626 	 103.489
| 11> C 	 -41.8649 	 51.917 	 104.417
| 12> H 	 -40.3673 	 52.8812 	 103.545
| 13> C 	 -39.7838 	 50.576 	 101.575
| 14> H 	 -39.4452 	 49.5683 	 101.822
| 15> H 	 -38.942 	 51.1966 	 101.69
| 16> C 	 -40.1567 	 50.6493 	 100.091
| 17> H 	 -40.3801 	 51.6873 	 99.8249
| 18> H 	 -39.3919 	 50.3701 	 99.3938
| 19> C 	 -41.2113 	 49.648 	 99.6126
| 20> H 	 -40.8083 	 48.7555 	 100.054
| 21> H 	 -42.2749 	 49.7602 	 99.9019
| 22> H 	 -41.2675 	 49.5071 	 98.5511
| 23> S 	 -41.9564 	 52.3255 	 107.063
| 24> C 	 -42.0901 	 53.9335 	 107.791
| 25> C 	 -42.3485 	 54.8185 	 106.729
| 26> C 	 -42.3801 	 54.3119 	 105.372
| 27> C 	 -42.2102 	 52.9066 	 105.41
| 28> H 	 -42.4075 	 55.8872 	 107.017
| 29> C 	 -42.3777 	 55.2672 	 104.276
| 30> H 	 -41.5388 	 54.9844 	 103.679
| 31> H 	 -41.9773 	 56.1944 	 104.648
| 32> C 	 -43.6311 	 55.5281 	 103.383
| 33> H 	 -43.9629 	 54.5997 	 103.04
| 34> H 	 -43.4822 	 56.2712 	 102.586
| 35> C 	 -44.8041 	 56.1021 	 104.274
| 36> H 	 -44.3888 	 56.6911 	 105.034
| 37> H 	 -45.4307 	 55.3167 	 104.735
| 38> H 	 -45.5862 	 56.6764 	 103.702
| 39> H 	 -41.8334 	 48.9256 	 102.464
| 40> H 	 -41.8935 	 54.3073 	 108.791
| 41> *
| 42>
| 43>                          ****END OF INPUT****

CARTESIAN COORDINATES (ANGSTROEM)
---------------------------------
  S    -42.864700   50.469400  104.210000
  C    -41.819400   49.864800  102.983000
  C    -40.891100   50.784100  102.659000
  C    -40.882700   51.962600  103.489000
  C    -41.864900   51.917000  104.417000
  H    -40.367300   52.881200  103.545000
  C    -39.783800   50.576000  101.575000
  H    -39.445200   49.568300  101.822000
  H    -38.942000   51.196600  101.690000
  C    -40.156700   50.649300  100.091000
  H    -40.380100   51.687300   99.824900
  H    -39.391900   50.370100   99.393800
  C    -41.211300   49.648000   99.612600
  H    -40.808300   48.755500  100.054000
  H    -42.274900   49.760200   99.901900
  H    -41.267500   49.507100   98.551100
  S    -41.956400   52.325500  107.063000
  C    -42.090100   53.933500  107.791000
  C    -42.348500   54.818500  106.729000
  C    -42.380100   54.311900  105.372000
  C    -42.210200   52.906600  105.410000
  H    -42.407500   55.887200  107.017000
  C    -42.377700   55.267200  104.276000
  H    -41.538800   54.984400  103.679000
  H    -41.977300   56.194400  104.648000
  C    -43.631100   55.528100  103.383000
  H    -43.962900   54.599700  103.040000
  H    -43.482200   56.271200  102.586000
  C    -44.804100   56.102100  104.274000
  H    -44.388800   56.691100  105.034000
  H    -45.430700   55.316700  104.735000
  H    -45.586200   56.676400  103.702000
  H    -41.833400   48.925600  102.464000
  H    -41.893500   54.307300  108.791000

 Total Charge           Charge          ....    0
 Multiplicity           Mult            ....    1
 Number of Electrons    NEL             ....  134
 Basis Dimension        Dim             ....  322

ORBITAL ENERGIES
----------------

  NO   OCC          E(Eh)            E(eV)
   0   2.0000     -88.967193     -2420.9204
   1   2.0000     -88.962940     -2420.8047
   2   2.0000     -10.332374      -281.1582
   3   2.0000     -10.325079      -280.9597
   4   2.0000     -10.323216      -280.9090
   5   2.0000     -10.311911      -280.6014
   6   2.0000     -10.308095      -280.4975
   7   2.0000     -10.302332      -280.3407
   8   2.0000     -10.298694      -280.2417
   9   2.0000     -10.290510      -280.0190
  10   2.0000     -10.289980      -280.0046
  11   2.0000     -10.289665      -279.9960
  12   2.0000     -10.289541      -279.9926
  13   2.0000     -10.284714      -279.8613
  14   2.0000     -10.275757      -279.6176
  15   2.0000     -10.273838      -279.5653
  16   2.0000      -8.081014      -219.8956
  17   2.0000      -8.078066      -219.8153
  18   2.0000      -6.039704      -164.3487
  19   2.0000      -6.036636      -164.2652
  20   2.0000      -6.035411      -164.2319
  21   2.0000      -6.032561      -164.1543
  22   2.0000      -6.031826      -164.1343
  23   2.0000      -6.028674      -164.0486
  24   2.0000      -1.009202       -27.4618
  25   2.0000      -0.982755       -26.7421
  26   2.0000      -0.912159       -24.8211
  27   2.0000      -0.909099       -24.7378
  28   2.0000      -0.874405       -23.7938
  29   2.0000      -0.850501       -23.1433
  30   2.0000      -0.845289       -23.0015
  31   2.0000      -0.816379       -22.2148
  32   2.0000      -0.784645       -21.3513
  33   2.0000      -0.776240       -21.1226
  34   2.0000      -0.715769       -19.4771
  35   2.0000      -0.699763       -19.0415
  36   2.0000      -0.694222       -18.8907
  37   2.0000      -0.662496       -18.0274
  38   2.0000      -0.649975       -17.6867
  39   2.0000      -0.611404       -16.6372
  40   2.0000      -0.592052       -16.1105
  41   2.0000      -0.567362       -15.4387
  42   2.0000      -0.561169       -15.2702
  43   2.0000      -0.556931       -15.1549
  44   2.0000      -0.547399       -14.8955
  45   2.0000      -0.543336       -14.7849
  46   2.0000      -0.519626       -14.1397
  47   2.0000      -0.515460       -14.0264
  48   2.0000      -0.510140       -13.8816
  49   2.0000      -0.496831       -13.5195
  50   2.0000      -0.488050       -13.2805
  51   2.0000      -0.477392       -12.9905
  52   2.0000      -0.469478       -12.7752
  53   2.0000      -0.461898       -12.5689
  54   2.0000      -0.458452       -12.4751
  55   2.0000      -0.443055       -12.0561
  56   2.0000      -0.440438       -11.9849
  57   2.0000      -0.435104       -11.8398
  58   2.0000      -0.433564       -11.7979
  59   2.0000      -0.423416       -11.5217
  60   2.0000      -0.421281       -11.4636
  61   2.0000      -0.414166       -11.2700
  62   2.0000      -0.408439       -11.1142
  63   2.0000      -0.345328        -9.3968
  64   2.0000      -0.328841        -8.9482
  65   2.0000      -0.327328        -8.9070
  66   2.0000      -0.300243        -8.1700
  67   0.0000       0.030448         0.8285
  68   0.0000       0.062767         1.7080
  69   0.0000       0.112951         3.0735
  70   0.0000       0.122073         3.3218
  71   0.0000       0.125889         3.4256

MULLIKEN ATOMIC CHARGES
-----------------------
   0 S :    0.113201
   1 C :   -0.093681
   2 C :   -0.074799
   3 C :    0.061060
   4 C :   -0.176914
   5 H :   -0.008274
   6 C :    0.078294
   7 H :    0.023634
   8 H :    0.012579
   9 C :   -0.045605
  10 H :    0.023602
  11 H :    0.024117
  12 C :   -0.070223
  13 H :    0.011092
  14 H :    0.042164
  15 H :    0.027825
  16 S :    0.108095
  17 C :   -0.088893
  18 C :   -0.087846
  19 C :   -0.005020
  20 C :   -0.161809
  21 H :    0.031335
  22 C :    0.065958
  23 H :    0.007427
  24 H :    0.010313
  25 C :   -0.008851
  26 H :    0.027373
  27 H :    0.042684
  28 C :   -0.086618
  29 H :    0.018497
  30 H :    0.041351
  31 H :    0.037033
  32 H :    0.037669
  33 H :    0.063229
Sum of atomic charges:    0.0000000

LOEWDIN ATOMIC CHARGES
----------------------
   0 S :    0.401369
   1 C :   -0.199507
   2 C :   -0.059586
   3 C :   -0.058706
   4 C :   -0.190714
   5 H :    0.029380
   6 C :   -0.026161
   7 H :    0.030186
   8 H :    0.024700
   9 C :   -0.040474
  10 H :    0.020228
  11 H :    0.027968
  12 C :   -0.069923
  13 H :    0.019782
  14 H :    0.024567
  15 H :    0.022956
  16 S :    0.406451
  17 C :   -0.192344
  18 C :   -0.074644
  19 C :   -0.052049
  20 C :   -0.195890
  21 H :    0.030926
  22 C :   -0.039372
  23 H :    0.031052
  24 H :    0.031453
  25 C :   -0.020984
  26 H :    0.018770
  27 H :    0.030886
  28 C :   -0.071133
  29 H :    0.011721
  30 H :    0.030186
  31 H :    0.030058
  32 H :    0.030933
  33 H :    0.037917

  Mayer bond orders larger than 0.100000
B(  0-S ,  1-C ) :   1.1220 B(  0-S ,  4-C ) :   1.1361 B(  1-C ,  2-C ) :   1.6650
B(  1-C , 32-H ) :   0.9649 B(  2-C ,  3-C ) :   1.1781 B(  2-C ,  6-C ) :   0.9956
B(  3-C ,  4-C ) :   1.6327 B(  3-C ,  5-H ) :   1.0063 B(  4-C , 20-C ) :   1.0110
B(  6-C ,  7-H ) :   0.9446 B(  6-C ,  8-H ) :   0.9455 B(  6-C ,  9-C ) :   1.0858
B(  9-C , 10-H ) :   0.9543 B(  9-C , 11-H ) :   0.9549 B(  9-C , 12-C ) :   1.0611
B( 12-C , 13-H ) :   0.9747 B( 12-C , 14-H ) :   0.9739 B( 12-C , 15-H ) :   0.9760
B( 16-S , 17-C ) :   1.1438 B( 16-S , 20-C ) :   1.1589 B( 17-C , 18-C ) :   1.6155
B( 17-C , 20-C ) :   0.1063 B( 17-C , 33-H ) :   0.9682 B( 18-C , 19-C ) :   1.2382
B( 18-C , 21-H ) :   0.9767 B( 19-C , 20-C ) :   1.5533 B( 19-C , 22-C ) :   1.0457
B( 22-C , 23-H ) :   0.9187 B( 22-C , 24-H ) :   0.9280 B( 22-C , 25-C ) :   1.0687
B( 25-C , 26-H ) :   0.9614 B( 25-C , 27-H ) :   0.9594 B( 25-C , 28-C ) :   1.0613
B( 28-C , 29-H ) :   0.9816 B( 28-C , 30-H ) :   0.9761 B( 28-C , 31-H ) :   0.9780

Dispersion correction           -0.014276229
FINAL SINGLE POINT ENERGY     -1339.846981393507

DIPOLE MOMENT
-------------
                                X             Y             Z
Electronic contribution:     -0.68111      -9.14774      22.27009
Nuclear contribution   :      1.08409       9.64421     -22.70052
                        -----------------------------------------
Total Dipole Moment    :      0.40298       0.49647      -0.43043
                        -----------------------------------------
Magnitude (a.u.)       :      0.77080
Magnitude (Debye)      :      1.95923

Rotational constants in cm-1:     0.020843     0.007950     0.006636
Rotational constants in MHz :   624.865079   238.331852   198.955484

                             ****ORCA TERMINATED NORMALLY****
TOTAL RUN TIME: 0 days 0 hours 0 minutes 29 seconds 756 msec
