                         Program Version 4.2.1 -  RELEASE  -
|  1> ! wB97X-D3 SP def2-SVP
|  2> %pal
|  3> nprocs 16
|  4> end
|  5>
|  6> * xyz 0 1
|  7> S 	 -14.7064 	 35.4499 	 34.8487
|  8> C 	 -13.7147 	 34.1099 	 34.6723
|  9> C 	 -13.7625 	 33.4139 	 35.8671
| 10> C 	 -14.7015 	 33.9564 	 36.8543
| 11> C 	 -15.3574 	 35.0841 	 36.4078
| 12> H 	 -14.9425 	 33.6605 	 37.8545
| 13> C 	 -12.814 	 32.2826 	 36.2086
| 14> H 	 -12.3767 	 32.466 	 37.1978
| 15> H 	 -11.9381 	 32.2875 	 35.5009
| 16> C 	 -13.4031 	 30.8821 	 36.3163
| 17> H 	 -13.4011 	 30.4097 	 35.3373
| 18> H 	 -12.7252 	 30.3078 	 36.969
| 19> C 	 -14.8207 	 30.716 	 36.9178
| 20> H 	 -15.6193 	 31.1916 	 36.3393
| 21> H 	 -15.0422 	 29.7161 	 37.0106
| 22> H 	 -14.8064 	 31.1777 	 37.8626
| 23> S 	 -18.0474 	 35.6974 	 35.8
| 24> C 	 -19.1322 	 36.346 	 37.0118
| 25> C 	 -18.3991 	 36.5865 	 38.1689
| 26> C 	 -17.0092 	 36.1987 	 38.1473
| 27> C 	 -16.6558 	 35.7073 	 36.9187
| 28> H 	 -18.9578 	 36.9692 	 39.0424
| 29> C 	 -16.18 	 36.297 	 39.3761
| 30> H 	 -16.5096 	 37.1879 	 39.8565
| 31> H 	 -15.0837 	 36.3196 	 39.1504
| 32> C 	 -16.4555 	 35.1757 	 40.4264
| 33> H 	 -16.2177 	 34.2023 	 40.0611
| 34> H 	 -17.5974 	 35.1856 	 40.6259
| 35> C 	 -15.7278 	 35.4818 	 41.8034
| 36> H 	 -15.9432 	 34.6309 	 42.4592
| 37> H 	 -15.8929 	 36.4634 	 42.2735
| 38> H 	 -14.6684 	 35.5224 	 41.5478
| 39> H 	 -13.1001 	 33.8972 	 33.8106
| 40> H 	 -20.1744 	 36.6214 	 36.8888
| 41> *
| 42>
| 43>                          ****END OF INPUT****

CARTESIAN COORDINATES (ANGSTROEM)
---------------------------------
  S    -14.706400   35.449900   34.848700
  C    -13.714700   34.109900   34.672300
  C    -13.762500   33.413900   35.867100
  C    -14.701500   33.956400   36.854300
  C    -15.357400   35.084100   36.407800
  H    -14.942500   33.660500   37.854500
  C    -12.814000   32.282600   36.208600
  H    -12.376700   32.466000   37.197800
  H    -11.938100   32.287500   35.500900
  C    -13.403100   30.882100   36.316300
  H    -13.401100   30.409700   35.337300
  H    -12.725200   30.307800   36.969000
  C    -14.820700   30.716000   36.917800
  H    -15.619300   31.191600   36.339300
  H    -15.042200   29.716100   37.010600
  H    -14.806400   31.177700   37.862600
  S    -18.047400   35.697400   35.800000
  C    -19.132200   36.346000   37.011800
  C    -18.399100   36.586500   38.168900
  C    -17.009200   36.198700   38.147300
  C    -16.655800   35.707300   36.918700
  H    -18.957800   36.969200   39.042400
  C    -16.180000   36.297000   39.376100
  H    -16.509600   37.187900   39.856500
  H    -15.083700   36.319600   39.150400
  C    -16.455500   35.175700   40.426400
  H    -16.217700   34.202300   40.061100
  H    -17.597400   35.185600   40.625900
  C    -15.727800   35.481800   41.803400
  H    -15.943200   34.630900   42.459200
  H    -15.892900   36.463400   42.273500
  H    -14.668400   35.522400   41.547800
  H    -13.100100   33.897200   33.810600
  H    -20.174400   36.621400   36.888800

 Total Charge           Charge          ....    0
 Multiplicity           Mult            ....    1
 Number of Electrons    NEL             ....  134
 Basis Dimension        Dim             ....  322

ORBITAL ENERGIES
----------------

  NO   OCC          E(Eh)            E(eV)
   0   2.0000     -88.965012     -2420.8611
   1   2.0000     -88.960114     -2420.7278
   2   2.0000     -10.335830      -281.2522
   3   2.0000     -10.332311      -281.1565
   4   2.0000     -10.320855      -280.8448
   5   2.0000     -10.313609      -280.6476
   6   2.0000     -10.305102      -280.4161
   7   2.0000     -10.304424      -280.3976
   8   2.0000     -10.298919      -280.2478
   9   2.0000     -10.297636      -280.2129
  10   2.0000     -10.297191      -280.2008
  11   2.0000     -10.294042      -280.1151
  12   2.0000     -10.292188      -280.0647
  13   2.0000     -10.286262      -279.9034
  14   2.0000     -10.282791      -279.8090
  15   2.0000     -10.264996      -279.3247
  16   2.0000      -8.079086      -219.8431
  17   2.0000      -8.076753      -219.7796
  18   2.0000      -6.037799      -164.2969
  19   2.0000      -6.035139      -164.2245
  20   2.0000      -6.033583      -164.1821
  21   2.0000      -6.030652      -164.1024
  22   2.0000      -6.029741      -164.0776
  23   2.0000      -6.027833      -164.0257
  24   2.0000      -1.009906       -27.4809
  25   2.0000      -0.987657       -26.8755
  26   2.0000      -0.908634       -24.7252
  27   2.0000      -0.907557       -24.6959
  28   2.0000      -0.868579       -23.6352
  29   2.0000      -0.847685       -23.0667
  30   2.0000      -0.840992       -22.8846
  31   2.0000      -0.818915       -22.2838
  32   2.0000      -0.782929       -21.3046
  33   2.0000      -0.775589       -21.1049
  34   2.0000      -0.703235       -19.1360
  35   2.0000      -0.695557       -18.9271
  36   2.0000      -0.692179       -18.8351
  37   2.0000      -0.661593       -18.0029
  38   2.0000      -0.649712       -17.6796
  39   2.0000      -0.611418       -16.6375
  40   2.0000      -0.593309       -16.1448
  41   2.0000      -0.573598       -15.6084
  42   2.0000      -0.564369       -15.3573
  43   2.0000      -0.551867       -15.0171
  44   2.0000      -0.541332       -14.7304
  45   2.0000      -0.525511       -14.2999
  46   2.0000      -0.521806       -14.1991
  47   2.0000      -0.515444       -14.0259
  48   2.0000      -0.510677       -13.8962
  49   2.0000      -0.501066       -13.6347
  50   2.0000      -0.489397       -13.3172
  51   2.0000      -0.479470       -13.0471
  52   2.0000      -0.471948       -12.8424
  53   2.0000      -0.469693       -12.7810
  54   2.0000      -0.459110       -12.4930
  55   2.0000      -0.447936       -12.1890
  56   2.0000      -0.445073       -12.1110
  57   2.0000      -0.438511       -11.9325
  58   2.0000      -0.432807       -11.7773
  59   2.0000      -0.421736       -11.4760
  60   2.0000      -0.416471       -11.3328
  61   2.0000      -0.414855       -11.2888
  62   2.0000      -0.403677       -10.9846
  63   2.0000      -0.350198        -9.5294
  64   2.0000      -0.328517        -8.9394
  65   2.0000      -0.320105        -8.7105
  66   2.0000      -0.302966        -8.2441
  67   0.0000       0.035600         0.9687
  68   0.0000       0.069907         1.9023
  69   0.0000       0.110600         3.0096
  70   0.0000       0.122882         3.3438
  71   0.0000       0.126298         3.4367

MULLIKEN ATOMIC CHARGES
-----------------------
   0 S :    0.102021
   1 C :   -0.104301
   2 C :   -0.097385
   3 C :    0.049562
   4 C :   -0.161459
   5 H :   -0.007006
   6 C :    0.051547
   7 H :    0.027892
   8 H :    0.027969
   9 C :   -0.096134
  10 H :    0.025962
  11 H :    0.025994
  12 C :   -0.005423
  13 H :    0.045032
  14 H :    0.019027
  15 H :    0.008073
  16 S :    0.106021
  17 C :   -0.097322
  18 C :   -0.061275
  19 C :   -0.015480
  20 C :   -0.146301
  21 H :    0.029321
  22 C :    0.075272
  23 H :    0.013772
  24 H :    0.041336
  25 C :   -0.112067
  26 H :    0.029269
  27 H :    0.037973
  28 C :   -0.050700
  29 H :    0.049547
  30 H :    0.040520
  31 H :    0.026010
  32 H :    0.058122
  33 H :    0.064612
Sum of atomic charges:   -0.0000000

LOEWDIN ATOMIC CHARGES
----------------------
   0 S :    0.440788
   1 C :   -0.213829
   2 C :   -0.068793
   3 C :   -0.061256
   4 C :   -0.205864
   5 H :    0.025617
   6 C :   -0.041192
   7 H :    0.031945
   8 H :    0.034898
   9 C :   -0.040411
  10 H :    0.019529
  11 H :    0.025061
  12 C :   -0.054642
  13 H :    0.030281
  14 H :    0.016874
  15 H :    0.014994
  16 S :    0.393717
  17 C :   -0.186832
  18 C :   -0.076437
  19 C :   -0.060732
  20 C :   -0.183229
  21 H :    0.033169
  22 C :   -0.033494
  23 H :    0.029543
  24 H :    0.035856
  25 C :   -0.034303
  26 H :    0.014617
  27 H :    0.029631
  28 C :   -0.070117
  29 H :    0.030646
  30 H :    0.028172
  31 H :    0.024246
  32 H :    0.035962
  33 H :    0.035582

  Mayer bond orders larger than 0.100000
B(  0-S ,  1-C ) :   1.1632 B(  0-S ,  4-C ) :   1.1757 B(  1-C ,  2-C ) :   1.5679
B(  1-C , 32-H ) :   0.9780 B(  2-C ,  3-C ) :   1.2349 B(  2-C ,  6-C ) :   1.0292
B(  3-C ,  4-C ) :   1.5662 B(  3-C ,  5-H ) :   1.0006 B(  4-C , 20-C ) :   0.9866
B(  6-C ,  7-H ) :   0.9419 B(  6-C ,  8-H ) :   0.9474 B(  6-C ,  9-C ) :   1.0677
B(  9-C , 10-H ) :   0.9555 B(  9-C , 11-H ) :   0.9570 B(  9-C , 12-C ) :   1.0988
B( 12-C , 13-H ) :   0.9666 B( 12-C , 14-H ) :   0.9703 B( 12-C , 15-H ) :   0.9712
B( 16-S , 17-C ) :   1.1476 B( 16-S , 20-C ) :   1.1339 B( 17-C , 18-C ) :   1.6266
B( 17-C , 33-H ) :   0.9671 B( 18-C , 19-C ) :   1.2191 B( 18-C , 21-H ) :   0.9804
B( 19-C , 20-C ) :   1.6264 B( 19-C , 22-C ) :   1.0648 B( 22-C , 23-H ) :   0.9244
B( 22-C , 24-H ) :   0.9309 B( 22-C , 25-C ) :   1.0598 B( 25-C , 26-H ) :   0.9568
B( 25-C , 27-H ) :   0.9566 B( 25-C , 28-C ) :   1.0663 B( 28-C , 29-H ) :   0.9756
B( 28-C , 30-H ) :   0.9770 B( 28-C , 31-H ) :   0.9743

Dispersion correction           -0.014343907
FINAL SINGLE POINT ENERGY     -1339.875270383116

DIPOLE MOMENT
-------------
                                X             Y             Z
Electronic contribution:     -8.10929      14.91651     -21.71519
Nuclear contribution   :      8.22905     -15.20055      22.29522
                        -----------------------------------------
Total Dipole Moment    :      0.11976      -0.28404       0.58003
                        -----------------------------------------
Magnitude (a.u.)       :      0.65685
Magnitude (Debye)      :      1.66959

Rotational constants in cm-1:     0.016405     0.009389     0.007187
Rotational constants in MHz :   491.817588   281.489589   215.448317

                             ****ORCA TERMINATED NORMALLY****
TOTAL RUN TIME: 0 days 0 hours 0 minutes 34 seconds 168 msec
