                         Program Version 4.2.1 -  RELEASE  -
|  1> ! wB97X-D3 SP def2-SVP
|  2> %pal
|  3> nprocs 16
|  4> end
|  5>
|  6> * xyz 0 1
|  7> S 	 -55.1531 	 56.0269 	 138.399
|  8> C 	 -53.8517 	 56.4356 	 137.287
|  9> C 	 -54.2696 	 56.7366 	 135.992
| 10> C 	 -55.6455 	 56.7652 	 135.958
| 11> C 	 -56.2549 	 56.3271 	 137.125
| 12> H 	 -56.2069 	 57.0295 	 135.097
| 13> C 	 -53.377 	 57.031 	 134.752
| 14> H 	 -53.8532 	 56.7349 	 133.792
| 15> H 	 -52.5139 	 56.2962 	 134.785
| 16> C 	 -52.8198 	 58.4859 	 134.579
| 17> H 	 -53.5693 	 59.2984 	 134.511
| 18> H 	 -52.2605 	 58.7888 	 135.544
| 19> C 	 -51.8565 	 58.5931 	 133.346
| 20> H 	 -52.3065 	 58.651 	 132.344
| 21> H 	 -51.2583 	 59.5006 	 133.324
| 22> H 	 -51.088 	 57.7598 	 133.333
| 23> S 	 -58.962 	 56.0941 	 136.211
| 24> C 	 -60.1656 	 56.6596 	 137.358
| 25> C 	 -59.6389 	 56.8271 	 138.61
| 26> C 	 -58.2275 	 56.8631 	 138.683
| 27> C 	 -57.6566 	 56.4977 	 137.426
| 28> H 	 -60.4125 	 57.0359 	 139.319
| 29> C 	 -57.578 	 57.2818 	 139.958
| 30> H 	 -58.2643 	 57.9638 	 140.43
| 31> H 	 -56.7136 	 57.9029 	 139.708
| 32> C 	 -57.2398 	 56.1639 	 141.066
| 33> H 	 -56.3886 	 56.4709 	 141.697
| 34> H 	 -57.0362 	 55.2447 	 140.429
| 35> C 	 -58.4986 	 55.8493 	 141.892
| 36> H 	 -59.3844 	 55.7668 	 141.24
| 37> H 	 -58.6906 	 56.6286 	 142.674
| 38> H 	 -58.3152 	 54.917 	 142.423
| 39> H 	 -52.8222 	 56.2253 	 137.425
| 40> H 	 -61.2478 	 56.5848 	 137.182
| 41> *
| 42>
| 43>                          ****END OF INPUT****

CARTESIAN COORDINATES (ANGSTROEM)
---------------------------------
  S    -55.153100   56.026900  138.399000
  C    -53.851700   56.435600  137.287000
  C    -54.269600   56.736600  135.992000
  C    -55.645500   56.765200  135.958000
  C    -56.254900   56.327100  137.125000
  H    -56.206900   57.029500  135.097000
  C    -53.377000   57.031000  134.752000
  H    -53.853200   56.734900  133.792000
  H    -52.513900   56.296200  134.785000
  C    -52.819800   58.485900  134.579000
  H    -53.569300   59.298400  134.511000
  H    -52.260500   58.788800  135.544000
  C    -51.856500   58.593100  133.346000
  H    -52.306500   58.651000  132.344000
  H    -51.258300   59.500600  133.324000
  H    -51.088000   57.759800  133.333000
  S    -58.962000   56.094100  136.211000
  C    -60.165600   56.659600  137.358000
  C    -59.638900   56.827100  138.610000
  C    -58.227500   56.863100  138.683000
  C    -57.656600   56.497700  137.426000
  H    -60.412500   57.035900  139.319000
  C    -57.578000   57.281800  139.958000
  H    -58.264300   57.963800  140.430000
  H    -56.713600   57.902900  139.708000
  C    -57.239800   56.163900  141.066000
  H    -56.388600   56.470900  141.697000
  H    -57.036200   55.244700  140.429000
  C    -58.498600   55.849300  141.892000
  H    -59.384400   55.766800  141.240000
  H    -58.690600   56.628600  142.674000
  H    -58.315200   54.917000  142.423000
  H    -52.822200   56.225300  137.425000
  H    -61.247800   56.584800  137.182000

 Total Charge           Charge          ....    0
 Multiplicity           Mult            ....    1
 Number of Electrons    NEL             ....  134
 Basis Dimension        Dim             ....  322

ORBITAL ENERGIES
----------------

  NO   OCC          E(Eh)            E(eV)
   0   2.0000     -88.975146     -2421.1368
   1   2.0000     -88.966494     -2420.9014
   2   2.0000     -10.333937      -281.2007
   3   2.0000     -10.323573      -280.9187
   4   2.0000     -10.313658      -280.6489
   5   2.0000     -10.311241      -280.5831
   6   2.0000     -10.308124      -280.4983
   7   2.0000     -10.304305      -280.3944
   8   2.0000     -10.303779      -280.3801
   9   2.0000     -10.300947      -280.3030
  10   2.0000     -10.296952      -280.1943
  11   2.0000     -10.289308      -279.9863
  12   2.0000     -10.287515      -279.9375
  13   2.0000     -10.287125      -279.9269
  14   2.0000     -10.285257      -279.8761
  15   2.0000     -10.281481      -279.7733
  16   2.0000      -8.089419      -220.1243
  17   2.0000      -8.079807      -219.8627
  18   2.0000      -6.047800      -164.5690
  19   2.0000      -6.044014      -164.4660
  20   2.0000      -6.040288      -164.3646
  21   2.0000      -6.038447      -164.3145
  22   2.0000      -6.034700      -164.2125
  23   2.0000      -6.030340      -164.0939
  24   2.0000      -1.009683       -27.4749
  25   2.0000      -0.979885       -26.6640
  26   2.0000      -0.904652       -24.6168
  27   2.0000      -0.899871       -24.4867
  28   2.0000      -0.866031       -23.5659
  29   2.0000      -0.854315       -23.2471
  30   2.0000      -0.845678       -23.0121
  31   2.0000      -0.808412       -21.9980
  32   2.0000      -0.783108       -21.3094
  33   2.0000      -0.768602       -20.9147
  34   2.0000      -0.706822       -19.2336
  35   2.0000      -0.700939       -19.0735
  36   2.0000      -0.688931       -18.7468
  37   2.0000      -0.661567       -18.0022
  38   2.0000      -0.634282       -17.2597
  39   2.0000      -0.618924       -16.8418
  40   2.0000      -0.593719       -16.1559
  41   2.0000      -0.566145       -15.4056
  42   2.0000      -0.550815       -14.9884
  43   2.0000      -0.547473       -14.8975
  44   2.0000      -0.540636       -14.7115
  45   2.0000      -0.520159       -14.1542
  46   2.0000      -0.516613       -14.0578
  47   2.0000      -0.509245       -13.8573
  48   2.0000      -0.496532       -13.5113
  49   2.0000      -0.490549       -13.3485
  50   2.0000      -0.485632       -13.2147
  51   2.0000      -0.477416       -12.9911
  52   2.0000      -0.470936       -12.8148
  53   2.0000      -0.461609       -12.5610
  54   2.0000      -0.458251       -12.4697
  55   2.0000      -0.446406       -12.1473
  56   2.0000      -0.442287       -12.0352
  57   2.0000      -0.439801       -11.9676
  58   2.0000      -0.434639       -11.8271
  59   2.0000      -0.428043       -11.6477
  60   2.0000      -0.422447       -11.4954
  61   2.0000      -0.415195       -11.2980
  62   2.0000      -0.410585       -11.1726
  63   2.0000      -0.352719        -9.5980
  64   2.0000      -0.340360        -9.2617
  65   2.0000      -0.330416        -8.9911
  66   2.0000      -0.277525        -7.5518
  67   0.0000       0.018063         0.4915
  68   0.0000       0.075829         2.0634
  69   0.0000       0.104183         2.8350
  70   0.0000       0.108387         2.9494
  71   0.0000       0.124802         3.3960

MULLIKEN ATOMIC CHARGES
-----------------------
   0 S :    0.114064
   1 C :   -0.097759
   2 C :   -0.060591
   3 C :    0.008671
   4 C :   -0.123528
   5 H :   -0.002273
   6 C :    0.030005
   7 H :    0.034341
   8 H :    0.034680
   9 C :   -0.079189
  10 H :    0.040114
  11 H :    0.040842
  12 C :   -0.077507
  13 H :    0.038322
  14 H :    0.030115
  15 H :    0.034688
  16 S :    0.092295
  17 C :   -0.111050
  18 C :   -0.037749
  19 C :   -0.053647
  20 C :   -0.117592
  21 H :    0.016579
  22 C :    0.038028
  23 H :    0.016284
  24 H :    0.038818
  25 C :   -0.078218
  26 H :    0.047726
  27 H :    0.046090
  28 C :   -0.069478
  29 H :    0.039490
  30 H :    0.037499
  31 H :    0.037856
  32 H :    0.028593
  33 H :    0.063484
Sum of atomic charges:   -0.0000000

LOEWDIN ATOMIC CHARGES
----------------------
   0 S :    0.461478
   1 C :   -0.193476
   2 C :   -0.060772
   3 C :   -0.056121
   4 C :   -0.205079
   5 H :    0.024582
   6 C :   -0.036083
   7 H :    0.033632
   8 H :    0.037015
   9 C :   -0.046696
  10 H :    0.027361
  11 H :    0.032914
  12 C :   -0.080137
  13 H :    0.026965
  14 H :    0.026583
  15 H :    0.029112
  16 S :    0.367421
  17 C :   -0.188799
  18 C :   -0.073654
  19 C :   -0.065478
  20 C :   -0.166738
  21 H :    0.029951
  22 C :   -0.048318
  23 H :    0.026959
  24 H :    0.027278
  25 C :   -0.042211
  26 H :    0.028432
  27 H :    0.024596
  28 C :   -0.071729
  29 H :    0.027106
  30 H :    0.027282
  31 H :    0.026509
  32 H :    0.017173
  33 H :    0.032943

  Mayer bond orders larger than 0.100000
B(  0-S ,  1-C ) :   1.1547 B(  0-S ,  4-C ) :   1.1658 B(  1-C ,  2-C ) :   1.5797
B(  1-C , 32-H ) :   0.9618 B(  2-C ,  3-C ) :   1.3061 B(  2-C ,  6-C ) :   1.0090
B(  3-C ,  4-C ) :   1.5038 B(  3-C ,  5-H ) :   0.9972 B(  4-C , 20-C ) :   1.0822
B(  6-C ,  7-H ) :   0.9502 B(  6-C ,  8-H ) :   0.9417 B(  6-C ,  9-C ) :   1.0479
B(  9-C , 10-H ) :   0.9587 B(  9-C , 11-H ) :   0.9578 B(  9-C , 12-C ) :   1.0650
B( 12-C , 13-H ) :   0.9765 B( 12-C , 14-H ) :   0.9748 B( 12-C , 15-H ) :   0.9764
B( 16-S , 17-C ) :   1.1327 B( 16-S , 20-C ) :   1.1281 B( 17-C , 18-C ) :   1.6500
B( 17-C , 33-H ) :   0.9592 B( 18-C , 19-C ) :   1.2253 B( 18-C , 21-H ) :   0.9828
B( 19-C , 20-C ) :   1.5491 B( 19-C , 22-C ) :   1.0524 B( 22-C , 23-H ) :   0.9343
B( 22-C , 24-H ) :   0.9289 B( 22-C , 25-C ) :   1.0310 B( 25-C , 26-H ) :   0.9578
B( 25-C , 27-H ) :   0.9598 B( 25-C , 28-C ) :   1.0753 B( 28-C , 29-H ) :   0.9748
B( 28-C , 30-H ) :   0.9739 B( 28-C , 31-H ) :   0.9733

Dispersion correction           -0.014032398
FINAL SINGLE POINT ENERGY     -1339.865708743816

DIPOLE MOMENT
-------------
                                X             Y             Z
Electronic contribution:    -11.84383      -7.52974      -1.78610
Nuclear contribution   :     12.03818       7.73706       1.85665
                        -----------------------------------------
Total Dipole Moment    :      0.19435       0.20732       0.07055
                        -----------------------------------------
Magnitude (a.u.)       :      0.29280
Magnitude (Debye)      :      0.74424

Rotational constants in cm-1:     0.023870     0.007249     0.005932
Rotational constants in MHz :   715.595581   217.315303   177.829243

                             ****ORCA TERMINATED NORMALLY****
TOTAL RUN TIME: 0 days 0 hours 0 minutes 36 seconds 371 msec
