                         Program Version 4.2.1 -  RELEASE  -
|  1> ! wB97X-D3 SP def2-SVP
|  2> %pal
|  3> nprocs 16
|  4> end
|  5>
|  6> * xyz 0 1
|  7> S 	 -101.693 	 57.4227 	 116.334
|  8> C 	 -100.402 	 56.3562 	 115.985
|  9> C 	 -100.671 	 55.4122 	 115.065
| 10> C 	 -102.017 	 55.5382 	 114.624
| 11> C 	 -102.718 	 56.6592 	 115.071
| 12> H 	 -102.487 	 54.9647 	 113.896
| 13> C 	 -99.7693 	 54.3123 	 114.654
| 14> H 	 -98.7648 	 54.7353 	 114.938
| 15> H 	 -99.7823 	 54.2374 	 113.532
| 16> C 	 -100.003 	 53.0396 	 115.416
| 17> H 	 -99.1526 	 52.4102 	 115.149
| 18> H 	 -99.8898 	 53.3086 	 116.514
| 19> C 	 -101.328 	 52.2375 	 115.201
| 20> H 	 -102.219 	 52.7654 	 115.412
| 21> H 	 -101.358 	 51.9831 	 114.144
| 22> H 	 -101.249 	 51.2819 	 115.747
| 23> S 	 -104.559 	 58.4941 	 114.19
| 24> C 	 -106.258 	 58.2386 	 114.412
| 25> C 	 -106.495 	 56.9991 	 115.065
| 26> C 	 -105.252 	 56.3534 	 115.425
| 27> C 	 -104.146 	 57.0329 	 115.006
| 28> H 	 -107.517 	 56.6988 	 115.134
| 29> C 	 -105.115 	 55.2652 	 116.494
| 30> H 	 -105.178 	 55.6529 	 117.522
| 31> H 	 -104.071 	 55.0157 	 116.489
| 32> C 	 -105.888 	 53.9595 	 116.269
| 33> H 	 -106.98 	 54.15 	 116.561
| 34> H 	 -105.585 	 53.2507 	 117.094
| 35> C 	 -105.674 	 53.3065 	 114.86
| 36> H 	 -104.654 	 53.1167 	 114.737
| 37> H 	 -105.936 	 54.0725 	 114.057
| 38> H 	 -106.258 	 52.4369 	 114.711
| 39> H 	 -99.4675 	 56.4847 	 116.549
| 40> H 	 -107.056 	 58.9758 	 114.147
| 41> *
| 42>
| 43>                          ****END OF INPUT****

CARTESIAN COORDINATES (ANGSTROEM)
---------------------------------
  S    -101.693000   57.422700  116.334000
  C    -100.402000   56.356200  115.985000
  C    -100.671000   55.412200  115.065000
  C    -102.017000   55.538200  114.624000
  C    -102.718000   56.659200  115.071000
  H    -102.487000   54.964700  113.896000
  C    -99.769300   54.312300  114.654000
  H    -98.764800   54.735300  114.938000
  H    -99.782300   54.237400  113.532000
  C    -100.003000   53.039600  115.416000
  H    -99.152600   52.410200  115.149000
  H    -99.889800   53.308600  116.514000
  C    -101.328000   52.237500  115.201000
  H    -102.219000   52.765400  115.412000
  H    -101.358000   51.983100  114.144000
  H    -101.249000   51.281900  115.747000
  S    -104.559000   58.494100  114.190000
  C    -106.258000   58.238600  114.412000
  C    -106.495000   56.999100  115.065000
  C    -105.252000   56.353400  115.425000
  C    -104.146000   57.032900  115.006000
  H    -107.517000   56.698800  115.134000
  C    -105.115000   55.265200  116.494000
  H    -105.178000   55.652900  117.522000
  H    -104.071000   55.015700  116.489000
  C    -105.888000   53.959500  116.269000
  H    -106.980000   54.150000  116.561000
  H    -105.585000   53.250700  117.094000
  C    -105.674000   53.306500  114.860000
  H    -104.654000   53.116700  114.737000
  H    -105.936000   54.072500  114.057000
  H    -106.258000   52.436900  114.711000
  H    -99.467500   56.484700  116.549000
  H    -107.056000   58.975800  114.147000

 Total Charge           Charge          ....    0
 Multiplicity           Mult            ....    1
 Number of Electrons    NEL             ....  134
 Basis Dimension        Dim             ....  322

ORBITAL ENERGIES
----------------

  NO   OCC          E(Eh)            E(eV)
   0   2.0000     -88.964362     -2420.8434
   1   2.0000     -88.960629     -2420.7418
   2   2.0000     -10.331997      -281.1479
   3   2.0000     -10.323528      -280.9175
   4   2.0000     -10.322601      -280.8923
   5   2.0000     -10.310990      -280.5763
   6   2.0000     -10.304070      -280.3880
   7   2.0000     -10.298368      -280.2328
   8   2.0000     -10.297057      -280.1972
   9   2.0000     -10.294811      -280.1361
  10   2.0000     -10.293962      -280.1129
  11   2.0000     -10.293892      -280.1110
  12   2.0000     -10.293208      -280.0924
  13   2.0000     -10.286131      -279.8999
  14   2.0000     -10.281042      -279.7614
  15   2.0000     -10.276843      -279.6471
  16   2.0000      -8.079932      -219.8661
  17   2.0000      -8.075869      -219.7556
  18   2.0000      -6.038294      -164.3103
  19   2.0000      -6.034248      -164.2002
  20   2.0000      -6.034179      -164.1983
  21   2.0000      -6.030936      -164.1101
  22   2.0000      -6.030270      -164.0920
  23   2.0000      -6.026766      -163.9966
  24   2.0000      -1.008202       -27.4346
  25   2.0000      -0.988861       -26.9083
  26   2.0000      -0.915784       -24.9198
  27   2.0000      -0.902132       -24.5483
  28   2.0000      -0.867293       -23.6003
  29   2.0000      -0.846844       -23.0438
  30   2.0000      -0.842426       -22.9236
  31   2.0000      -0.818704       -22.2781
  32   2.0000      -0.786234       -21.3945
  33   2.0000      -0.775663       -21.1069
  34   2.0000      -0.703856       -19.1529
  35   2.0000      -0.698052       -18.9950
  36   2.0000      -0.692058       -18.8319
  37   2.0000      -0.655485       -17.8367
  38   2.0000      -0.648132       -17.6366
  39   2.0000      -0.617797       -16.8111
  40   2.0000      -0.590937       -16.0802
  41   2.0000      -0.577456       -15.7134
  42   2.0000      -0.553873       -15.0717
  43   2.0000      -0.546997       -14.8846
  44   2.0000      -0.542127       -14.7520
  45   2.0000      -0.529510       -14.4087
  46   2.0000      -0.517713       -14.0877
  47   2.0000      -0.515737       -14.0339
  48   2.0000      -0.498411       -13.5625
  49   2.0000      -0.495704       -13.4888
  50   2.0000      -0.489180       -13.3113
  51   2.0000      -0.485119       -13.2007
  52   2.0000      -0.476061       -12.9543
  53   2.0000      -0.468828       -12.7575
  54   2.0000      -0.453811       -12.3488
  55   2.0000      -0.445043       -12.1102
  56   2.0000      -0.444197       -12.0872
  57   2.0000      -0.439573       -11.9614
  58   2.0000      -0.433812       -11.8046
  59   2.0000      -0.420842       -11.4517
  60   2.0000      -0.418508       -11.3882
  61   2.0000      -0.416291       -11.3278
  62   2.0000      -0.404949       -11.0192
  63   2.0000      -0.335014        -9.1162
  64   2.0000      -0.330695        -8.9987
  65   2.0000      -0.328433        -8.9371
  66   2.0000      -0.305611        -8.3161
  67   0.0000       0.039203         1.0668
  68   0.0000       0.060067         1.6345
  69   0.0000       0.113204         3.0804
  70   0.0000       0.122949         3.3456
  71   0.0000       0.126400         3.4395

MULLIKEN ATOMIC CHARGES
-----------------------
   0 S :    0.096104
   1 C :   -0.140277
   2 C :   -0.068871
   3 C :    0.040933
   4 C :   -0.157282
   5 H :   -0.011118
   6 C :    0.052564
   7 H :    0.024038
   8 H :    0.041145
   9 C :   -0.080773
  10 H :    0.033818
  11 H :    0.033023
  12 C :   -0.035890
  13 H :    0.041465
  14 H :    0.021840
  15 H :    0.044811
  16 S :    0.122956
  17 C :   -0.130469
  18 C :   -0.033616
  19 C :   -0.014113
  20 C :   -0.179139
  21 H :    0.020172
  22 C :    0.069366
  23 H :    0.044911
  24 H :    0.010203
  25 C :   -0.122594
  26 H :    0.033599
  27 H :    0.033543
  28 C :   -0.017687
  29 H :    0.011204
  30 H :    0.046518
  31 H :    0.035040
  32 H :    0.054236
  33 H :    0.080336
Sum of atomic charges:    0.0000000

LOEWDIN ATOMIC CHARGES
----------------------
   0 S :    0.396916
   1 C :   -0.197834
   2 C :   -0.078137
   3 C :   -0.046399
   4 C :   -0.183821
   5 H :    0.019194
   6 C :   -0.039215
   7 H :    0.038928
   8 H :    0.035312
   9 C :   -0.042598
  10 H :    0.025982
  11 H :    0.030919
  12 C :   -0.062736
  13 H :    0.016673
  14 H :    0.024972
  15 H :    0.034812
  16 S :    0.429069
  17 C :   -0.198541
  18 C :   -0.069208
  19 C :   -0.057889
  20 C :   -0.220150
  21 H :    0.029356
  22 C :   -0.036771
  23 H :    0.039539
  24 H :    0.026051
  25 C :   -0.051429
  26 H :    0.023621
  27 H :    0.028229
  28 C :   -0.059177
  29 H :    0.014909
  30 H :    0.036618
  31 H :    0.022589
  32 H :    0.029720
  33 H :    0.040496

  Mayer bond orders larger than 0.100000
B(  0-S ,  1-C ) :   1.1661 B(  0-S ,  4-C ) :   1.1396 B(  1-C ,  2-C ) :   1.6088
B(  1-C , 32-H ) :   0.9595 B(  2-C ,  3-C ) :   1.2307 B(  2-C ,  6-C ) :   1.0215
B(  3-C ,  4-C ) :   1.5925 B(  3-C ,  5-H ) :   1.0113 B(  4-C , 20-C ) :   0.9835
B(  6-C ,  7-H ) :   0.9322 B(  6-C ,  8-H ) :   0.9368 B(  6-C ,  9-C ) :   1.0774
B(  9-C , 10-H ) :   0.9540 B(  9-C , 11-H ) :   0.9484 B(  9-C , 12-C ) :   1.0798
B( 12-C , 13-H ) :   0.9725 B( 12-C , 14-H ) :   0.9729 B( 12-C , 15-H ) :   0.9696
B( 16-S , 17-C ) :   1.1752 B( 16-S , 20-C ) :   1.1566 B( 17-C , 18-C ) :   1.5952
B( 17-C , 33-H ) :   0.9626 B( 18-C , 19-C ) :   1.2111 B( 18-C , 21-H ) :   1.0012
B( 19-C , 20-C ) :   1.6072 B( 19-C , 22-C ) :   1.0335 B( 22-C , 23-H ) :   0.9399
B( 22-C , 24-H ) :   0.9263 B( 22-C , 25-C ) :   1.0691 B( 25-C , 26-H ) :   0.9573
B( 25-C , 27-H ) :   0.9551 B( 25-C , 28-C ) :   1.0654 B( 28-C , 29-H ) :   0.9761
B( 28-C , 30-H ) :   0.9681 B( 28-C , 31-H ) :   0.9735

Dispersion correction           -0.016249309
FINAL SINGLE POINT ENERGY     -1339.879212733851

DIPOLE MOMENT
-------------
                                X             Y             Z
Electronic contribution:     -0.39323      28.69246      -1.42541
Nuclear contribution   :      0.42826     -29.30709       1.50516
                        -----------------------------------------
Total Dipole Moment    :      0.03503      -0.61463       0.07975
                        -----------------------------------------
Magnitude (a.u.)       :      0.62077
Magnitude (Debye)      :      1.57788

Rotational constants in cm-1:     0.018873     0.010223     0.007515
Rotational constants in MHz :   565.785340   306.475705   225.301159

                             ****ORCA TERMINATED NORMALLY****
TOTAL RUN TIME: 0 days 0 hours 0 minutes 37 seconds 392 msec
