                         Program Version 4.2.1 -  RELEASE  -
|  1> ! wB97X-D3 SP def2-SVP
|  2> %pal
|  3> nprocs 16
|  4> end
|  5>
|  6> * xyz 0 1
|  7> S 	 -17.132 	 54.5582 	 60.5315
|  8> C 	 -16.9378 	 53.1678 	 59.4055
|  9> C 	 -15.6416 	 52.7231 	 59.4448
| 10> C 	 -14.8161 	 53.4926 	 60.3395
| 11> C 	 -15.4488 	 54.5586 	 60.9268
| 12> H 	 -13.7632 	 53.2443 	 60.4771
| 13> C 	 -15.1063 	 51.5831 	 58.5916
| 14> H 	 -15.129 	 51.8655 	 57.5188
| 15> H 	 -15.9129 	 50.8458 	 58.5807
| 16> C 	 -13.8517 	 50.9572 	 59.107
| 17> H 	 -12.9274 	 51.6152 	 58.9137
| 18> H 	 -13.8832 	 50.854 	 60.1909
| 19> C 	 -13.53 	 49.4937 	 58.4853
| 20> H 	 -13.6122 	 49.5119 	 57.4432
| 21> H 	 -12.5327 	 49.131 	 58.6771
| 22> H 	 -14.1782 	 48.7192 	 58.8403
| 23> S 	 -13.5197 	 56.6324 	 61.0865
| 24> C 	 -13.1975 	 57.2723 	 62.6959
| 25> C 	 -13.8682 	 56.6174 	 63.7094
| 26> C 	 -14.8344 	 55.6786 	 63.2122
| 27> C 	 -14.8265 	 55.6284 	 61.8052
| 28> H 	 -13.6461 	 56.8654 	 64.7035
| 29> C 	 -15.7006 	 54.829 	 64.1
| 30> H 	 -15.3246 	 53.8363 	 63.7704
| 31> H 	 -16.7617 	 54.8984 	 63.8732
| 32> C 	 -15.5257 	 55.1017 	 65.6556
| 33> H 	 -14.4395 	 55.0805 	 65.9061
| 34> H 	 -15.9721 	 54.3029 	 66.2407
| 35> C 	 -16.1263 	 56.3981 	 66.2559
| 36> H 	 -17.2008 	 56.5765 	 66.0374
| 37> H 	 -15.5087 	 57.106 	 65.7934
| 38> H 	 -15.902 	 56.3849 	 67.3612
| 39> H 	 -17.6799 	 52.8034 	 58.7233
| 40> H 	 -12.4106 	 58.0223 	 62.8259
| 41> *
| 42>
| 43>                          ****END OF INPUT****

CARTESIAN COORDINATES (ANGSTROEM)
---------------------------------
  S    -17.132000   54.558200   60.531500
  C    -16.937800   53.167800   59.405500
  C    -15.641600   52.723100   59.444800
  C    -14.816100   53.492600   60.339500
  C    -15.448800   54.558600   60.926800
  H    -13.763200   53.244300   60.477100
  C    -15.106300   51.583100   58.591600
  H    -15.129000   51.865500   57.518800
  H    -15.912900   50.845800   58.580700
  C    -13.851700   50.957200   59.107000
  H    -12.927400   51.615200   58.913700
  H    -13.883200   50.854000   60.190900
  C    -13.530000   49.493700   58.485300
  H    -13.612200   49.511900   57.443200
  H    -12.532700   49.131000   58.677100
  H    -14.178200   48.719200   58.840300
  S    -13.519700   56.632400   61.086500
  C    -13.197500   57.272300   62.695900
  C    -13.868200   56.617400   63.709400
  C    -14.834400   55.678600   63.212200
  C    -14.826500   55.628400   61.805200
  H    -13.646100   56.865400   64.703500
  C    -15.700600   54.829000   64.100000
  H    -15.324600   53.836300   63.770400
  H    -16.761700   54.898400   63.873200
  C    -15.525700   55.101700   65.655600
  H    -14.439500   55.080500   65.906100
  H    -15.972100   54.302900   66.240700
  C    -16.126300   56.398100   66.255900
  H    -17.200800   56.576500   66.037400
  H    -15.508700   57.106000   65.793400
  H    -15.902000   56.384900   67.361200
  H    -17.679900   52.803400   58.723300
  H    -12.410600   58.022300   62.825900

 Total Charge           Charge          ....    0
 Multiplicity           Mult            ....    1
 Number of Electrons    NEL             ....  134
 Basis Dimension        Dim             ....  322

ORBITAL ENERGIES
----------------

  NO   OCC          E(Eh)            E(eV)
   0   2.0000     -88.967911     -2420.9399
   1   2.0000     -88.963361     -2420.8161
   2   2.0000     -10.330439      -281.1055
   3   2.0000     -10.330135      -281.0973
   4   2.0000     -10.321147      -280.8527
   5   2.0000     -10.311991      -280.6035
   6   2.0000     -10.309432      -280.5339
   7   2.0000     -10.299685      -280.2687
   8   2.0000     -10.299322      -280.2588
   9   2.0000     -10.297584      -280.2115
  10   2.0000     -10.294461      -280.1265
  11   2.0000     -10.293607      -280.1033
  12   2.0000     -10.293052      -280.0882
  13   2.0000     -10.291525      -280.0466
  14   2.0000     -10.281045      -279.7614
  15   2.0000     -10.276998      -279.6513
  16   2.0000      -8.081581      -219.9110
  17   2.0000      -8.077543      -219.8011
  18   2.0000      -6.040019      -164.3573
  19   2.0000      -6.036389      -164.2585
  20   2.0000      -6.036136      -164.2516
  21   2.0000      -6.032346      -164.1485
  22   2.0000      -6.032073      -164.1410
  23   2.0000      -6.028304      -164.0385
  24   2.0000      -0.998529       -27.1714
  25   2.0000      -0.979197       -26.6453
  26   2.0000      -0.909764       -24.7559
  27   2.0000      -0.903848       -24.5950
  28   2.0000      -0.861699       -23.4480
  29   2.0000      -0.848425       -23.0868
  30   2.0000      -0.838214       -22.8090
  31   2.0000      -0.815164       -22.1817
  32   2.0000      -0.786223       -21.3942
  33   2.0000      -0.772927       -21.0324
  34   2.0000      -0.712378       -19.3848
  35   2.0000      -0.696670       -18.9574
  36   2.0000      -0.685366       -18.6498
  37   2.0000      -0.658733       -17.9250
  38   2.0000      -0.633818       -17.2471
  39   2.0000      -0.619357       -16.8536
  40   2.0000      -0.599834       -16.3223
  41   2.0000      -0.568295       -15.4641
  42   2.0000      -0.559798       -15.2329
  43   2.0000      -0.549399       -14.9499
  44   2.0000      -0.538141       -14.6436
  45   2.0000      -0.522767       -14.2252
  46   2.0000      -0.521429       -14.1888
  47   2.0000      -0.508023       -13.8240
  48   2.0000      -0.503113       -13.6904
  49   2.0000      -0.493401       -13.4261
  50   2.0000      -0.487140       -13.2557
  51   2.0000      -0.476989       -12.9795
  52   2.0000      -0.469344       -12.7715
  53   2.0000      -0.464120       -12.6293
  54   2.0000      -0.457148       -12.4396
  55   2.0000      -0.452172       -12.3042
  56   2.0000      -0.447139       -12.1673
  57   2.0000      -0.442354       -12.0371
  58   2.0000      -0.438752       -11.9390
  59   2.0000      -0.422629       -11.5003
  60   2.0000      -0.420247       -11.4355
  61   2.0000      -0.413980       -11.2650
  62   2.0000      -0.410837       -11.1795
  63   2.0000      -0.333905        -9.0860
  64   2.0000      -0.329511        -8.9664
  65   2.0000      -0.326636        -8.8882
  66   2.0000      -0.300412        -8.1746
  67   0.0000       0.038179         1.0389
  68   0.0000       0.056510         1.5377
  69   0.0000       0.105703         2.8763
  70   0.0000       0.121430         3.3043
  71   0.0000       0.134254         3.6532

MULLIKEN ATOMIC CHARGES
-----------------------
   0 S :    0.099671
   1 C :   -0.132598
   2 C :   -0.097543
   3 C :    0.022327
   4 C :   -0.166106
   5 H :    0.014677
   6 C :    0.084990
   7 H :    0.045869
   8 H :    0.018363
   9 C :   -0.133196
  10 H :    0.050150
  11 H :    0.042019
  12 C :   -0.018009
  13 H :    0.018128
  14 H :    0.025631
  15 H :    0.029851
  16 S :    0.105640
  17 C :   -0.095203
  18 C :   -0.020332
  19 C :   -0.045380
  20 C :   -0.150942
  21 H :    0.005647
  22 C :    0.092897
  23 H :    0.052241
  24 H :    0.042897
  25 C :   -0.123468
  26 H :    0.031834
  27 H :    0.029727
  28 C :   -0.035033
  29 H :    0.049977
  30 H :    0.006931
  31 H :    0.047710
  32 H :    0.039445
  33 H :    0.061187
Sum of atomic charges:   -0.0000000

LOEWDIN ATOMIC CHARGES
----------------------
   0 S :    0.394106
   1 C :   -0.185995
   2 C :   -0.060070
   3 C :   -0.074990
   4 C :   -0.199299
   5 H :    0.031838
   6 C :   -0.041852
   7 H :    0.039794
   8 H :    0.032942
   9 C :   -0.044423
  10 H :    0.032565
  11 H :    0.025974
  12 C :   -0.058899
  13 H :    0.016631
  14 H :    0.025658
  15 H :    0.022763
  16 S :    0.387971
  17 C :   -0.171292
  18 C :   -0.073229
  19 C :   -0.043279
  20 C :   -0.198645
  21 H :    0.023263
  22 C :   -0.034222
  23 H :    0.047760
  24 H :    0.033570
  25 C :   -0.045146
  26 H :    0.024953
  27 H :    0.022097
  28 C :   -0.064949
  29 H :    0.031016
  30 H :    0.011776
  31 H :    0.036897
  32 H :    0.025812
  33 H :    0.028902

  Mayer bond orders larger than 0.100000
B(  0-S ,  1-C ) :   1.1220 B(  0-S ,  4-C ) :   1.1603 B(  1-C ,  2-C ) :   1.6364
B(  1-C , 32-H ) :   0.9757 B(  2-C ,  3-C ) :   1.2385 B(  2-C ,  6-C ) :   1.0035
B(  3-C ,  4-C ) :   1.5787 B(  3-C ,  5-H ) :   0.9945 B(  4-C , 20-C ) :   0.9850
B(  6-C ,  7-H ) :   0.9280 B(  6-C ,  8-H ) :   0.9396 B(  6-C ,  9-C ) :   1.0749
B(  9-C , 10-H ) :   0.9472 B(  9-C , 11-H ) :   0.9593 B(  9-C , 12-C ) :   1.0696
B( 12-C , 13-H ) :   0.9776 B( 12-C , 14-H ) :   0.9768 B( 12-C , 15-H ) :   0.9775
B( 16-S , 17-C ) :   1.1653 B( 16-S , 20-C ) :   1.1329 B( 17-C , 18-C ) :   1.6069
B( 17-C , 33-H ) :   0.9610 B( 18-C , 19-C ) :   1.2399 B( 18-C , 21-H ) :   0.9900
B( 19-C , 20-C ) :   1.6050 B( 19-C , 22-C ) :   1.0095 B( 22-C , 23-H ) :   0.9202
B( 22-C , 24-H ) :   0.9407 B( 22-C , 25-C ) :   1.0752 B( 25-C , 26-H ) :   0.9517
B( 25-C , 27-H ) :   0.9588 B( 25-C , 28-C ) :   1.0677 B( 28-C , 29-H ) :   0.9726
B( 28-C , 30-H ) :   0.9783 B( 28-C , 31-H ) :   0.9713

Dispersion correction           -0.013896241
FINAL SINGLE POINT ENERGY     -1339.870631521514

DIPOLE MOMENT
-------------
                                X             Y             Z
Electronic contribution:     -3.45525      16.69153      -8.33585
Nuclear contribution   :      3.74659     -17.17611       8.53696
                        -----------------------------------------
Total Dipole Moment    :      0.29134      -0.48458       0.20111
                        -----------------------------------------
Magnitude (a.u.)       :      0.60012
Magnitude (Debye)      :      1.52537

Rotational constants in cm-1:     0.020583     0.006903     0.006523
Rotational constants in MHz :   617.057595   206.937245   195.565905

                             ****ORCA TERMINATED NORMALLY****
TOTAL RUN TIME: 0 days 0 hours 0 minutes 31 seconds 698 msec
