                         Program Version 4.2.1 -  RELEASE  -
|  1> ! wB97X-D3 SP def2-SVP
|  2> %pal
|  3> nprocs 16
|  4> end
|  5>
|  6> * xyz 0 1
|  7> S 	 -33.4904 	 61.1334 	 108.695
|  8> C 	 -31.8409 	 61.4833 	 108.229
|  9> C 	 -31.2147 	 60.5154 	 107.466
| 10> C 	 -32.0436 	 59.3069 	 107.566
| 11> C 	 -33.2544 	 59.4925 	 108.169
| 12> H 	 -31.8125 	 58.3223 	 107.26
| 13> C 	 -29.9198 	 60.703 	 106.708
| 14> H 	 -29.3091 	 61.3032 	 107.335
| 15> H 	 -30.0432 	 61.3538 	 105.86
| 16> C 	 -29.2145 	 59.4681 	 106.146
| 17> H 	 -29.0306 	 58.8463 	 107.07
| 18> H 	 -29.8739 	 59.0206 	 105.487
| 19> C 	 -27.9123 	 59.8598 	 105.526
| 20> H 	 -28.0175 	 60.5693 	 104.69
| 21> H 	 -27.2304 	 60.2929 	 106.254
| 22> H 	 -27.4291 	 59.0697 	 105.057
| 23> S 	 -35.7493 	 58.8782 	 107.645
| 24> C 	 -36.3233 	 57.259 	 107.921
| 25> C 	 -35.4469 	 56.4109 	 108.536
| 26> C 	 -34.2303 	 57.1424 	 108.745
| 27> C 	 -34.2992 	 58.4495 	 108.264
| 28> H 	 -35.5866 	 55.3477 	 108.676
| 29> C 	 -33.0069 	 56.584 	 109.443
| 30> H 	 -33.4232 	 56.0722 	 110.344
| 31> H 	 -32.2186 	 57.2732 	 109.796
| 32> C 	 -32.2611 	 55.4837 	 108.559
| 33> H 	 -31.6846 	 55.8473 	 107.799
| 34> H 	 -32.9002 	 54.6909 	 108.062
| 35> C 	 -31.2908 	 54.5888 	 109.413
| 36> H 	 -31.7975 	 53.7833 	 109.94
| 37> H 	 -30.6979 	 55.1427 	 110.104
| 38> H 	 -30.6325 	 54.086 	 108.667
| 39> H 	 -31.4963 	 62.4829 	 108.258
| 40> H 	 -37.3045 	 56.9799 	 107.682
| 41> *
| 42>
| 43>                          ****END OF INPUT****

CARTESIAN COORDINATES (ANGSTROEM)
---------------------------------
  S    -33.490400   61.133400  108.695000
  C    -31.840900   61.483300  108.229000
  C    -31.214700   60.515400  107.466000
  C    -32.043600   59.306900  107.566000
  C    -33.254400   59.492500  108.169000
  H    -31.812500   58.322300  107.260000
  C    -29.919800   60.703000  106.708000
  H    -29.309100   61.303200  107.335000
  H    -30.043200   61.353800  105.860000
  C    -29.214500   59.468100  106.146000
  H    -29.030600   58.846300  107.070000
  H    -29.873900   59.020600  105.487000
  C    -27.912300   59.859800  105.526000
  H    -28.017500   60.569300  104.690000
  H    -27.230400   60.292900  106.254000
  H    -27.429100   59.069700  105.057000
  S    -35.749300   58.878200  107.645000
  C    -36.323300   57.259000  107.921000
  C    -35.446900   56.410900  108.536000
  C    -34.230300   57.142400  108.745000
  C    -34.299200   58.449500  108.264000
  H    -35.586600   55.347700  108.676000
  C    -33.006900   56.584000  109.443000
  H    -33.423200   56.072200  110.344000
  H    -32.218600   57.273200  109.796000
  C    -32.261100   55.483700  108.559000
  H    -31.684600   55.847300  107.799000
  H    -32.900200   54.690900  108.062000
  C    -31.290800   54.588800  109.413000
  H    -31.797500   53.783300  109.940000
  H    -30.697900   55.142700  110.104000
  H    -30.632500   54.086000  108.667000
  H    -31.496300   62.482900  108.258000
  H    -37.304500   56.979900  107.682000

 Total Charge           Charge          ....    0
 Multiplicity           Mult            ....    1
 Number of Electrons    NEL             ....  134
 Basis Dimension        Dim             ....  322

ORBITAL ENERGIES
----------------

  NO   OCC          E(Eh)            E(eV)
   0   2.0000     -88.965089     -2420.8631
   1   2.0000     -88.964058     -2420.8351
   2   2.0000     -10.322793      -280.8975
   3   2.0000     -10.313571      -280.6465
   4   2.0000     -10.307927      -280.4929
   5   2.0000     -10.307106      -280.4706
   6   2.0000     -10.305873      -280.4371
   7   2.0000     -10.299131      -280.2536
   8   2.0000     -10.297447      -280.2078
   9   2.0000     -10.294598      -280.1302
  10   2.0000     -10.289680      -279.9964
  11   2.0000     -10.288128      -279.9542
  12   2.0000     -10.286878      -279.9202
  13   2.0000     -10.285879      -279.8930
  14   2.0000     -10.276187      -279.6293
  15   2.0000     -10.274936      -279.5952
  16   2.0000      -8.081656      -219.9130
  17   2.0000      -8.080138      -219.8717
  18   2.0000      -6.039827      -164.3520
  19   2.0000      -6.038616      -164.3191
  20   2.0000      -6.035822      -164.2431
  21   2.0000      -6.034821      -164.2158
  22   2.0000      -6.032537      -164.1537
  23   2.0000      -6.030723      -164.1043
  24   2.0000      -1.017532       -27.6885
  25   2.0000      -0.987191       -26.8628
  26   2.0000      -0.920751       -25.0549
  27   2.0000      -0.899806       -24.4850
  28   2.0000      -0.875021       -23.8105
  29   2.0000      -0.851110       -23.1599
  30   2.0000      -0.849657       -23.1203
  31   2.0000      -0.818081       -22.2611
  32   2.0000      -0.784277       -21.3413
  33   2.0000      -0.766310       -20.8523
  34   2.0000      -0.712699       -19.3935
  35   2.0000      -0.699994       -19.0478
  36   2.0000      -0.686217       -18.6729
  37   2.0000      -0.668292       -18.1852
  38   2.0000      -0.645267       -17.5586
  39   2.0000      -0.619073       -16.8458
  40   2.0000      -0.599699       -16.3186
  41   2.0000      -0.582794       -15.8586
  42   2.0000      -0.567316       -15.4375
  43   2.0000      -0.554661       -15.0931
  44   2.0000      -0.527361       -14.3502
  45   2.0000      -0.522132       -14.2079
  46   2.0000      -0.513310       -13.9679
  47   2.0000      -0.510992       -13.9048
  48   2.0000      -0.505403       -13.7527
  49   2.0000      -0.496171       -13.5015
  50   2.0000      -0.486620       -13.2416
  51   2.0000      -0.481968       -13.1150
  52   2.0000      -0.472375       -12.8540
  53   2.0000      -0.467187       -12.7128
  54   2.0000      -0.462627       -12.5887
  55   2.0000      -0.453969       -12.3531
  56   2.0000      -0.450280       -12.2527
  57   2.0000      -0.439029       -11.9466
  58   2.0000      -0.438731       -11.9385
  59   2.0000      -0.432230       -11.7616
  60   2.0000      -0.423080       -11.5126
  61   2.0000      -0.418379       -11.3847
  62   2.0000      -0.413203       -11.2438
  63   2.0000      -0.349897        -9.5212
  64   2.0000      -0.329386        -8.9631
  65   2.0000      -0.324395        -8.8272
  66   2.0000      -0.289785        -7.8855
  67   0.0000       0.043272         1.1775
  68   0.0000       0.071875         1.9558
  69   0.0000       0.109136         2.9697
  70   0.0000       0.126006         3.4288
  71   0.0000       0.130858         3.5608

MULLIKEN ATOMIC CHARGES
-----------------------
   0 S :    0.110784
   1 C :   -0.110107
   2 C :   -0.057222
   3 C :    0.026461
   4 C :   -0.140050
   5 H :   -0.017182
   6 C :    0.057835
   7 H :    0.011552
   8 H :    0.022925
   9 C :   -0.068912
  10 H :    0.039764
  11 H :    0.026942
  12 C :   -0.002182
  13 H :    0.021845
  14 H :    0.030402
  15 H :    0.014914
  16 S :    0.124953
  17 C :   -0.072602
  18 C :   -0.018157
  19 C :   -0.036886
  20 C :   -0.158950
  21 H :    0.025440
  22 C :    0.043209
  23 H :    0.033829
  24 H :    0.047669
  25 C :   -0.085792
  26 H :    0.014527
  27 H :    0.031325
  28 C :   -0.061411
  29 H :    0.032934
  30 H :    0.026301
  31 H :    0.029215
  32 H :    0.029043
  33 H :    0.027583
Sum of atomic charges:    0.0000000

LOEWDIN ATOMIC CHARGES
----------------------
   0 S :    0.399344
   1 C :   -0.191984
   2 C :   -0.049122
   3 C :   -0.061165
   4 C :   -0.198072
   5 H :    0.021014
   6 C :   -0.033281
   7 H :    0.027545
   8 H :    0.031115
   9 C :   -0.034284
  10 H :    0.032919
  11 H :    0.016392
  12 C :   -0.058493
  13 H :    0.027630
  14 H :    0.028709
  15 H :    0.018444
  16 S :    0.460390
  17 C :   -0.178529
  18 C :   -0.060006
  19 C :   -0.063407
  20 C :   -0.237271
  21 H :    0.037077
  22 C :   -0.033357
  23 H :    0.036447
  24 H :    0.036306
  25 C :   -0.036590
  26 H :    0.005435
  27 H :    0.029948
  28 C :   -0.065543
  29 H :    0.021518
  30 H :    0.015505
  31 H :    0.029383
  32 H :    0.014066
  33 H :    0.011916

  Mayer bond orders larger than 0.100000
B(  0-S ,  1-C ) :   1.1318 B(  0-S ,  4-C ) :   1.1407 B(  1-C ,  2-C ) :   1.6499
B(  1-C , 32-H ) :   0.9697 B(  2-C ,  3-C ) :   1.1934 B(  2-C ,  6-C ) :   1.0111
B(  3-C ,  4-C ) :   1.6155 B(  3-C ,  5-H ) :   1.0022 B(  4-C , 20-C ) :   0.9908
B(  6-C ,  7-H ) :   0.9368 B(  6-C ,  8-H ) :   0.9287 B(  6-C ,  9-C ) :   1.0734
B(  9-C , 10-H ) :   0.9548 B(  9-C , 11-H ) :   0.9475 B(  9-C , 12-C ) :   1.1010
B( 12-C , 13-H ) :   0.9683 B( 12-C , 14-H ) :   0.9719 B( 12-C , 15-H ) :   0.9676
B( 16-S , 17-C ) :   1.1666 B( 16-S , 20-C ) :   1.1791 B( 17-C , 18-C ) :   1.6044
B( 17-C , 33-H ) :   0.9737 B( 18-C , 19-C ) :   1.2420 B( 18-C , 21-H ) :   0.9936
B( 19-C , 20-C ) :   1.5954 B( 19-C , 22-C ) :   1.0419 B( 22-C , 23-H ) :   0.9419
B( 22-C , 24-H ) :   0.9402 B( 22-C , 25-C ) :   1.0398 B( 25-C , 26-H ) :   0.9639
B( 25-C , 27-H ) :   0.9614 B( 25-C , 28-C ) :   1.0716 B( 28-C , 29-H ) :   0.9814
B( 28-C , 30-H ) :   0.9768 B( 28-C , 31-H ) :   0.9769

Dispersion correction           -0.013860904
FINAL SINGLE POINT ENERGY     -1339.862296190171

DIPOLE MOMENT
-------------
                                X             Y             Z
Electronic contribution:    -27.85455      15.32132       4.31800
Nuclear contribution   :     28.38066     -15.65174      -4.61157
                        -----------------------------------------
Total Dipole Moment    :      0.52611      -0.33042      -0.29357
                        -----------------------------------------
Magnitude (a.u.)       :      0.68713
Magnitude (Debye)      :      1.74656

Rotational constants in cm-1:     0.016084     0.009332     0.006643
Rotational constants in MHz :   482.182189   279.753548   199.137385

                             ****ORCA TERMINATED NORMALLY****
TOTAL RUN TIME: 0 days 0 hours 0 minutes 30 seconds 45 msec
