                         Program Version 4.2.1 -  RELEASE  -
|  1> ! wB97X-D3 SP def2-SVP
|  2> %pal
|  3> nprocs 16
|  4> end
|  5>
|  6> * xyz 0 1
|  7> S 	 -112.559 	 49.1327 	 135.072
|  8> C 	 -112.605 	 48.8647 	 133.399
|  9> C 	 -113.771 	 49.327 	 132.82
| 10> C 	 -114.637 	 49.9029 	 133.804
| 11> C 	 -114.014 	 50.0907 	 135.038
| 12> H 	 -115.679 	 50.2138 	 133.737
| 13> C 	 -114.262 	 49.0023 	 131.419
| 14> H 	 -113.447 	 49.1899 	 130.597
| 15> H 	 -115.214 	 49.6159 	 131.087
| 16> C 	 -114.647 	 47.5063 	 131.201
| 17> H 	 -114.479 	 47.3402 	 130.116
| 18> H 	 -113.956 	 46.9261 	 131.769
| 19> C 	 -116.052 	 47.1087 	 131.629
| 20> H 	 -116.289 	 46.0513 	 131.459
| 21> H 	 -116.092 	 47.3428 	 132.702
| 22> H 	 -116.845 	 47.5919 	 131.123
| 23> S 	 -114.349 	 49.8089 	 137.743
| 24> C 	 -115.223 	 51.0669 	 138.597
| 25> C 	 -115.54 	 52.1515 	 137.79
| 26> C 	 -115.205 	 51.9219 	 136.449
| 27> C 	 -114.623 	 50.6593 	 136.238
| 28> H 	 -116.014 	 53.072 	 138.123
| 29> C 	 -115.53 	 52.9452 	 135.444
| 30> H 	 -116.564 	 53.345 	 135.576
| 31> H 	 -115.571 	 52.4817 	 134.455
| 32> C 	 -114.437 	 54.0416 	 135.285
| 33> H 	 -113.514 	 53.5584 	 134.886
| 34> H 	 -114.143 	 54.3375 	 136.277
| 35> C 	 -114.782 	 55.3273 	 134.451
| 36> H 	 -113.865 	 55.91 	 134.132
| 37> H 	 -115.494 	 55.9944 	 134.888
| 38> H 	 -115.245 	 54.8665 	 133.512
| 39> H 	 -111.94 	 48.2559 	 132.803
| 40> H 	 -115.386 	 51.0141 	 139.671
| 41> *
| 42>
| 43>                          ****END OF INPUT****

CARTESIAN COORDINATES (ANGSTROEM)
---------------------------------
  S    -112.559000   49.132700  135.072000
  C    -112.605000   48.864700  133.399000
  C    -113.771000   49.327000  132.820000
  C    -114.637000   49.902900  133.804000
  C    -114.014000   50.090700  135.038000
  H    -115.679000   50.213800  133.737000
  C    -114.262000   49.002300  131.419000
  H    -113.447000   49.189900  130.597000
  H    -115.214000   49.615900  131.087000
  C    -114.647000   47.506300  131.201000
  H    -114.479000   47.340200  130.116000
  H    -113.956000   46.926100  131.769000
  C    -116.052000   47.108700  131.629000
  H    -116.289000   46.051300  131.459000
  H    -116.092000   47.342800  132.702000
  H    -116.845000   47.591900  131.123000
  S    -114.349000   49.808900  137.743000
  C    -115.223000   51.066900  138.597000
  C    -115.540000   52.151500  137.790000
  C    -115.205000   51.921900  136.449000
  C    -114.623000   50.659300  136.238000
  H    -116.014000   53.072000  138.123000
  C    -115.530000   52.945200  135.444000
  H    -116.564000   53.345000  135.576000
  H    -115.571000   52.481700  134.455000
  C    -114.437000   54.041600  135.285000
  H    -113.514000   53.558400  134.886000
  H    -114.143000   54.337500  136.277000
  C    -114.782000   55.327300  134.451000
  H    -113.865000   55.910000  134.132000
  H    -115.494000   55.994400  134.888000
  H    -115.245000   54.866500  133.512000
  H    -111.940000   48.255900  132.803000
  H    -115.386000   51.014100  139.671000

 Total Charge           Charge          ....    0
 Multiplicity           Mult            ....    1
 Number of Electrons    NEL             ....  134
 Basis Dimension        Dim             ....  322

ORBITAL ENERGIES
----------------

  NO   OCC          E(Eh)            E(eV)
   0   2.0000     -88.970243     -2421.0034
   1   2.0000     -88.969698     -2420.9886
   2   2.0000     -10.329026      -281.0671
   3   2.0000     -10.328453      -281.0515
   4   2.0000     -10.320953      -280.8474
   5   2.0000     -10.311160      -280.5809
   6   2.0000     -10.308959      -280.5210
   7   2.0000     -10.302538      -280.3463
   8   2.0000     -10.301296      -280.3125
   9   2.0000     -10.294822      -280.1364
  10   2.0000     -10.294731      -280.1339
  11   2.0000     -10.291194      -280.0376
  12   2.0000     -10.288038      -279.9518
  13   2.0000     -10.287681      -279.9420
  14   2.0000     -10.285151      -279.8732
  15   2.0000     -10.273205      -279.5481
  16   2.0000      -8.085272      -220.0114
  17   2.0000      -8.084932      -220.0022
  18   2.0000      -6.043714      -164.4578
  19   2.0000      -6.043336      -164.4475
  20   2.0000      -6.039697      -164.3485
  21   2.0000      -6.039526      -164.3439
  22   2.0000      -6.036018      -164.2484
  23   2.0000      -6.035743      -164.2409
  24   2.0000      -1.012529       -27.5523
  25   2.0000      -0.990119       -26.9425
  26   2.0000      -0.909072       -24.7371
  27   2.0000      -0.906000       -24.6535
  28   2.0000      -0.870558       -23.6891
  29   2.0000      -0.852017       -23.1846
  30   2.0000      -0.846591       -23.0369
  31   2.0000      -0.812696       -22.1146
  32   2.0000      -0.780486       -21.2381
  33   2.0000      -0.768844       -20.9213
  34   2.0000      -0.703939       -19.1551
  35   2.0000      -0.697935       -18.9918
  36   2.0000      -0.689963       -18.7748
  37   2.0000      -0.667743       -18.1702
  38   2.0000      -0.641091       -17.4450
  39   2.0000      -0.614419       -16.7192
  40   2.0000      -0.600121       -16.3301
  41   2.0000      -0.575150       -15.6506
  42   2.0000      -0.553623       -15.0649
  43   2.0000      -0.547602       -14.9010
  44   2.0000      -0.531961       -14.4754
  45   2.0000      -0.521786       -14.1985
  46   2.0000      -0.516158       -14.0454
  47   2.0000      -0.509265       -13.8578
  48   2.0000      -0.501812       -13.6550
  49   2.0000      -0.499187       -13.5836
  50   2.0000      -0.492362       -13.3979
  51   2.0000      -0.481877       -13.1125
  52   2.0000      -0.469093       -12.7647
  53   2.0000      -0.465289       -12.6612
  54   2.0000      -0.461567       -12.5599
  55   2.0000      -0.454753       -12.3745
  56   2.0000      -0.449153       -12.2221
  57   2.0000      -0.433640       -11.7999
  58   2.0000      -0.430711       -11.7203
  59   2.0000      -0.424351       -11.5472
  60   2.0000      -0.422724       -11.5029
  61   2.0000      -0.411334       -11.1930
  62   2.0000      -0.408019       -11.1028
  63   2.0000      -0.353116        -9.6088
  64   2.0000      -0.337014        -9.1706
  65   2.0000      -0.327929        -8.9234
  66   2.0000      -0.285169        -7.7598
  67   0.0000       0.023054         0.6273
  68   0.0000       0.067753         1.8437
  69   0.0000       0.102680         2.7941
  70   0.0000       0.116359         3.1663
  71   0.0000       0.135504         3.6873

MULLIKEN ATOMIC CHARGES
-----------------------
   0 S :    0.120779
   1 C :   -0.099944
   2 C :   -0.052678
   3 C :   -0.001109
   4 C :   -0.147084
   5 H :    0.030796
   6 C :   -0.042667
   7 H :    0.049966
   8 H :    0.045423
   9 C :   -0.052656
  10 H :    0.029659
  11 H :    0.016630
  12 C :   -0.041225
  13 H :    0.035237
  14 H :    0.038559
  15 H :    0.017390
  16 S :    0.104902
  17 C :   -0.093266
  18 C :   -0.018459
  19 C :   -0.043381
  20 C :   -0.155814
  21 H :    0.022177
  22 C :    0.058185
  23 H :    0.034722
  24 H :    0.007205
  25 C :   -0.079824
  26 H :    0.040442
  27 H :    0.013336
  28 C :   -0.066220
  29 H :    0.053153
  30 H :    0.037374
  31 H :    0.033226
  32 H :    0.044738
  33 H :    0.060429
Sum of atomic charges:   -0.0000000

LOEWDIN ATOMIC CHARGES
----------------------
   0 S :    0.432862
   1 C :   -0.214193
   2 C :   -0.072415
   3 C :   -0.065248
   4 C :   -0.200446
   5 H :    0.033097
   6 C :   -0.047529
   7 H :    0.042387
   8 H :    0.039548
   9 C :   -0.040951
  10 H :    0.023860
  11 H :    0.017402
  12 C :   -0.067575
  13 H :    0.029783
  14 H :    0.031047
  15 H :    0.016312
  16 S :    0.407064
  17 C :   -0.179681
  18 C :   -0.065003
  19 C :   -0.056354
  20 C :   -0.198627
  21 H :    0.035685
  22 C :   -0.040753
  23 H :    0.034471
  24 H :    0.027758
  25 C :   -0.040348
  26 H :    0.033383
  27 H :    0.012746
  28 C :   -0.072707
  29 H :    0.036618
  30 H :    0.018804
  31 H :    0.031388
  32 H :    0.029703
  33 H :    0.027911

  Mayer bond orders larger than 0.100000
B(  0-S ,  1-C ) :   1.1582 B(  0-S ,  4-C ) :   1.1554 B(  1-C ,  2-C ) :   1.5837
B(  1-C , 32-H ) :   0.9645 B(  2-C ,  3-C ) :   1.2569 B(  2-C ,  6-C ) :   1.0331
B(  3-C ,  4-C ) :   1.5524 B(  3-C ,  5-H ) :   0.9860 B(  4-C , 20-C ) :   1.0629
B(  6-C ,  7-H ) :   0.9438 B(  6-C ,  8-H ) :   0.9496 B(  6-C ,  9-C ) :   1.0488
B(  9-C , 10-H ) :   0.9580 B(  9-C , 11-H ) :   0.9556 B(  9-C , 12-C ) :   1.0844
B( 12-C , 13-H ) :   0.9723 B( 12-C , 14-H ) :   0.9743 B( 12-C , 15-H ) :   0.9743
B( 16-S , 17-C ) :   1.1635 B( 16-S , 20-C ) :   1.1430 B( 17-C , 18-C ) :   1.5720
B( 17-C , 20-C ) :   0.1011 B( 17-C , 33-H ) :   0.9686 B( 18-C , 19-C ) :   1.2754
B( 18-C , 21-H ) :   0.9901 B( 19-C , 20-C ) :   1.5619 B( 19-C , 22-C ) :   1.0611
B( 22-C , 23-H ) :   0.9392 B( 22-C , 24-H ) :   0.9193 B( 22-C , 25-C ) :   1.0456
B( 25-C , 26-H ) :   0.9546 B( 25-C , 27-H ) :   0.9631 B( 25-C , 28-C ) :   1.0657
B( 28-C , 29-H ) :   0.9752 B( 28-C , 30-H ) :   0.9782 B( 28-C , 31-H ) :   0.9755

Dispersion correction           -0.014138844
FINAL SINGLE POINT ENERGY     -1339.876114145935

DIPOLE MOMENT
-------------
                                X             Y             Z
Electronic contribution:      9.96872      -9.03233      20.78412
Nuclear contribution   :    -10.29378       9.19752     -21.04724
                        -----------------------------------------
Total Dipole Moment    :     -0.32506       0.16519      -0.26312
                        -----------------------------------------
Magnitude (a.u.)       :      0.44965
Magnitude (Debye)      :      1.14291

Rotational constants in cm-1:     0.017989     0.008464     0.006911
Rotational constants in MHz :   539.296248   253.730973   207.200890

                             ****ORCA TERMINATED NORMALLY****
TOTAL RUN TIME: 0 days 0 hours 0 minutes 33 seconds 338 msec
