                         Program Version 4.2.1 -  RELEASE  -
|  1> ! wB97X-D3 SP def2-SVP
|  2> %pal
|  3> nprocs 16
|  4> end
|  5>
|  6> * xyz 0 1
|  7> S 	 12.7883 	 -5.54053 	 63.564
|  8> C 	 11.8113 	 -4.59721 	 62.5256
|  9> C 	 10.9025 	 -3.76882 	 63.1986
| 10> C 	 11.2198 	 -3.72862 	 64.6098
| 11> C 	 12.0914 	 -4.6949 	 65.039
| 12> H 	 10.7948 	 -3.16302 	 65.467
| 13> C 	 9.97915 	 -2.75326 	 62.5626
| 14> H 	 9.0105 	 -2.81362 	 63.1242
| 15> H 	 9.66927 	 -3.2791 	 61.6336
| 16> C 	 10.4643 	 -1.31942 	 62.3251
| 17> H 	 10.5719 	 -0.777188 	 63.3412
| 18> H 	 11.4346 	 -1.24523 	 61.964
| 19> C 	 9.54301 	 -0.441997 	 61.501
| 20> H 	 9.90333 	 0.586509 	 61.4714
| 21> H 	 9.42935 	 -0.85558 	 60.5217
| 22> H 	 8.48875 	 -0.382054 	 61.894
| 23> S 	 14.3468 	 -5.32501 	 66.5
| 24> C 	 14.2489 	 -5.17416 	 68.3007
| 25> C 	 12.9286 	 -5.07561 	 68.7381
| 26> C 	 12.0002 	 -5.03645 	 67.6348
| 27> C 	 12.5872 	 -4.97849 	 66.3774
| 28> H 	 12.8472 	 -5.13678 	 69.7702
| 29> C 	 10.4448 	 -4.94153 	 67.9348
| 30> H 	 10.0051 	 -5.40048 	 67.1141
| 31> H 	 10.1738 	 -3.87537 	 67.9418
| 32> C 	 10.0216 	 -5.61313 	 69.235
| 33> H 	 8.95596 	 -5.47381 	 69.5026
| 34> H 	 10.5308 	 -5.26578 	 70.1508
| 35> C 	 10.4587 	 -7.11238 	 69.263
| 36> H 	 10.1068 	 -7.67592 	 70.0869
| 37> H 	 11.5179 	 -7.24668 	 69.25
| 38> H 	 10.0274 	 -7.6854 	 68.4192
| 39> H 	 11.8054 	 -4.70664 	 61.4794
| 40> H 	 15.093 	 -5.34792 	 68.9736
| 41> *
| 42>
| 43>                          ****END OF INPUT****

CARTESIAN COORDINATES (ANGSTROEM)
---------------------------------
  S     12.788300   -5.540530   63.564000
  C     11.811300   -4.597210   62.525600
  C     10.902500   -3.768820   63.198600
  C     11.219800   -3.728620   64.609800
  C     12.091400   -4.694900   65.039000
  H     10.794800   -3.163020   65.467000
  C      9.979150   -2.753260   62.562600
  H      9.010500   -2.813620   63.124200
  H      9.669270   -3.279100   61.633600
  C     10.464300   -1.319420   62.325100
  H     10.571900   -0.777188   63.341200
  H     11.434600   -1.245230   61.964000
  C      9.543010   -0.441997   61.501000
  H      9.903330    0.586509   61.471400
  H      9.429350   -0.855580   60.521700
  H      8.488750   -0.382054   61.894000
  S     14.346800   -5.325010   66.500000
  C     14.248900   -5.174160   68.300700
  C     12.928600   -5.075610   68.738100
  C     12.000200   -5.036450   67.634800
  C     12.587200   -4.978490   66.377400
  H     12.847200   -5.136780   69.770200
  C     10.444800   -4.941530   67.934800
  H     10.005100   -5.400480   67.114100
  H     10.173800   -3.875370   67.941800
  C     10.021600   -5.613130   69.235000
  H      8.955960   -5.473810   69.502600
  H     10.530800   -5.265780   70.150800
  C     10.458700   -7.112380   69.263000
  H     10.106800   -7.675920   70.086900
  H     11.517900   -7.246680   69.250000
  H     10.027400   -7.685400   68.419200
  H     11.805400   -4.706640   61.479400
  H     15.093000   -5.347920   68.973600

 Total Charge           Charge          ....    0
 Multiplicity           Mult            ....    1
 Number of Electrons    NEL             ....  134
 Basis Dimension        Dim             ....  322

ORBITAL ENERGIES
----------------

  NO   OCC          E(Eh)            E(eV)
   0   2.0000     -88.964942     -2420.8591
   1   2.0000     -88.963532     -2420.8208
   2   2.0000     -10.333823      -281.1976
   3   2.0000     -10.333599      -281.1915
   4   2.0000     -10.325229      -280.9638
   5   2.0000     -10.315524      -280.6997
   6   2.0000     -10.314373      -280.6684
   7   2.0000     -10.306227      -280.4467
   8   2.0000     -10.298953      -280.2488
   9   2.0000     -10.298407      -280.2339
  10   2.0000     -10.296636      -280.1857
  11   2.0000     -10.294991      -280.1409
  12   2.0000     -10.293705      -280.1059
  13   2.0000     -10.289106      -279.9808
  14   2.0000     -10.279695      -279.7247
  15   2.0000     -10.270862      -279.4844
  16   2.0000      -8.079388      -219.8513
  17   2.0000      -8.076959      -219.7852
  18   2.0000      -6.037967      -164.3014
  19   2.0000      -6.035639      -164.2381
  20   2.0000      -6.033957      -164.1923
  21   2.0000      -6.031865      -164.1354
  22   2.0000      -6.030073      -164.0866
  23   2.0000      -6.027385      -164.0135
  24   2.0000      -0.998364       -27.1669
  25   2.0000      -0.975959       -26.5572
  26   2.0000      -0.908874       -24.7317
  27   2.0000      -0.904159       -24.6034
  28   2.0000      -0.872610       -23.7449
  29   2.0000      -0.851787       -23.1783
  30   2.0000      -0.836909       -22.7735
  31   2.0000      -0.819763       -22.3069
  32   2.0000      -0.783130       -21.3101
  33   2.0000      -0.769450       -20.9378
  34   2.0000      -0.710067       -19.3219
  35   2.0000      -0.702186       -19.1075
  36   2.0000      -0.697672       -18.9846
  37   2.0000      -0.660836       -17.9823
  38   2.0000      -0.647355       -17.6154
  39   2.0000      -0.613526       -16.6949
  40   2.0000      -0.591374       -16.0921
  41   2.0000      -0.570300       -15.5186
  42   2.0000      -0.556792       -15.1511
  43   2.0000      -0.554817       -15.0973
  44   2.0000      -0.539186       -14.6720
  45   2.0000      -0.528313       -14.3761
  46   2.0000      -0.516158       -14.0454
  47   2.0000      -0.510019       -13.8783
  48   2.0000      -0.506231       -13.7752
  49   2.0000      -0.502413       -13.6714
  50   2.0000      -0.489519       -13.3205
  51   2.0000      -0.476649       -12.9703
  52   2.0000      -0.464819       -12.6484
  53   2.0000      -0.460763       -12.5380
  54   2.0000      -0.456557       -12.4236
  55   2.0000      -0.447133       -12.1671
  56   2.0000      -0.445180       -12.1140
  57   2.0000      -0.440654       -11.9908
  58   2.0000      -0.434835       -11.8325
  59   2.0000      -0.425634       -11.5821
  60   2.0000      -0.420484       -11.4420
  61   2.0000      -0.410887       -11.1808
  62   2.0000      -0.405740       -11.0407
  63   2.0000      -0.356283        -9.6949
  64   2.0000      -0.333075        -9.0634
  65   2.0000      -0.326521        -8.8851
  66   2.0000      -0.286652        -7.8002
  67   0.0000       0.020584         0.5601
  68   0.0000       0.067321         1.8319
  69   0.0000       0.096275         2.6198
  70   0.0000       0.119247         3.2449
  71   0.0000       0.129616         3.5270

MULLIKEN ATOMIC CHARGES
-----------------------
   0 S :    0.095614
   1 C :   -0.083107
   2 C :   -0.099825
   3 C :    0.010454
   4 C :   -0.151405
   5 H :    0.027470
   6 C :    0.044225
   7 H :    0.031245
   8 H :    0.015663
   9 C :   -0.033055
  10 H :    0.029858
  11 H :    0.016662
  12 C :   -0.051138
  13 H :    0.040351
  14 H :    0.025295
  15 H :    0.030474
  16 S :    0.080358
  17 C :   -0.103981
  18 C :   -0.018758
  19 C :   -0.068708
  20 C :   -0.138198
  21 H :    0.003059
  22 C :    0.132394
  23 H :    0.019644
  24 H :    0.050127
  25 C :   -0.095443
  26 H :    0.038755
  27 H :    0.028122
  28 C :   -0.059723
  29 H :    0.019114
  30 H :    0.036371
  31 H :    0.026738
  32 H :    0.036774
  33 H :    0.064573
Sum of atomic charges:   -0.0000000

LOEWDIN ATOMIC CHARGES
----------------------
   0 S :    0.377916
   1 C :   -0.187762
   2 C :   -0.069536
   3 C :   -0.061147
   4 C :   -0.170408
   5 H :    0.041493
   6 C :   -0.043084
   7 H :    0.037180
   8 H :    0.030841
   9 C :   -0.040650
  10 H :    0.033745
  11 H :    0.016991
  12 C :   -0.065430
  13 H :    0.029706
  14 H :    0.018896
  15 H :    0.029473
  16 S :    0.355381
  17 C :   -0.159477
  18 C :   -0.066181
  19 C :   -0.048490
  20 C :   -0.182776
  21 H :    0.023931
  22 C :   -0.020553
  23 H :    0.022729
  24 H :    0.034673
  25 C :   -0.046031
  26 H :    0.030778
  27 H :    0.024917
  28 C :   -0.066786
  29 H :    0.019529
  30 H :    0.022326
  31 H :    0.026313
  32 H :    0.020149
  33 H :    0.031343

  Mayer bond orders larger than 0.100000
B(  0-S ,  1-C ) :   1.1557 B(  0-S ,  4-C ) :   1.1019 B(  1-C ,  2-C ) :   1.6076
B(  1-C , 32-H ) :   0.9698 B(  2-C ,  3-C ) :   1.1972 B(  2-C ,  6-C ) :   1.0459
B(  3-C ,  4-C ) :   1.6335 B(  3-C ,  5-H ) :   0.9800 B(  4-C , 20-C ) :   1.0703
B(  6-C ,  7-H ) :   0.9327 B(  6-C ,  8-H ) :   0.9371 B(  6-C ,  9-C ) :   1.0505
B(  9-C , 10-H ) :   0.9492 B(  9-C , 11-H ) :   0.9561 B(  9-C , 12-C ) :   1.0868
B( 12-C , 13-H ) :   0.9729 B( 12-C , 14-H ) :   0.9753 B( 12-C , 15-H ) :   0.9742
B( 16-S , 17-C ) :   1.1359 B( 16-S , 20-C ) :   1.1082 B( 17-C , 18-C ) :   1.6442
B( 17-C , 33-H ) :   0.9618 B( 18-C , 19-C ) :   1.1888 B( 18-C , 21-H ) :   1.0004
B( 19-C , 20-C ) :   1.6310 B( 19-C , 22-C ) :   1.0042 B( 22-C , 23-H ) :   0.9367
B( 22-C , 24-H ) :   0.9369 B( 22-C , 25-C ) :   1.0737 B( 25-C , 26-H ) :   0.9571
B( 25-C , 27-H ) :   0.9511 B( 25-C , 28-C ) :   1.0704 B( 28-C , 29-H ) :   0.9740
B( 28-C , 30-H ) :   0.9732 B( 28-C , 31-H ) :   0.9752

Dispersion correction           -0.013831590
FINAL SINGLE POINT ENERGY     -1339.860355709219

DIPOLE MOMENT
-------------
                                X             Y             Z
Electronic contribution:     21.13267     -10.53501      -2.66154
Nuclear contribution   :    -21.65268      10.83271       2.93454
                        -----------------------------------------
Total Dipole Moment    :     -0.52001       0.29771       0.27300
                        -----------------------------------------
Magnitude (a.u.)       :      0.65846
Magnitude (Debye)      :      1.67367

Rotational constants in cm-1:     0.021009     0.007143     0.006128
Rotational constants in MHz :   629.820255   214.156246   183.722940

                             ****ORCA TERMINATED NORMALLY****
TOTAL RUN TIME: 0 days 0 hours 0 minutes 34 seconds 65 msec
