                         Program Version 4.2.1 -  RELEASE  -
|  1> ! wB97X-D3 SP def2-SVP
|  2> %pal
|  3> nprocs 16
|  4> end
|  5>
|  6> * xyz 0 1
|  7> S 	 -64.5826 	 51.9272 	 121.238
|  8> C 	 -63.9024 	 51.2561 	 122.685
|  9> C 	 -64.8592 	 50.9706 	 123.632
| 10> C 	 -66.1241 	 51.3691 	 123.211
| 11> C 	 -66.158 	 51.9483 	 121.966
| 12> H 	 -67.1304 	 51.4196 	 123.68
| 13> C 	 -64.4396 	 50.4316 	 125.039
| 14> H 	 -64.0511 	 51.2029 	 125.711
| 15> H 	 -63.4918 	 49.8741 	 124.839
| 16> C 	 -65.1876 	 49.3234 	 125.771
| 17> H 	 -66.1596 	 49.713 	 125.947
| 18> H 	 -65.1577 	 48.5156 	 125
| 19> C 	 -64.6084 	 48.9082 	 127.065
| 20> H 	 -65.2092 	 48.1211 	 127.456
| 21> H 	 -63.5808 	 48.5997 	 127.023
| 22> H 	 -64.5908 	 49.718 	 127.841
| 23> S 	 -67.3221 	 54.1311 	 120.781
| 24> C 	 -68.9086 	 53.881 	 120.11
| 25> C 	 -69.3876 	 52.5867 	 120.243
| 26> C 	 -68.5247 	 51.831 	 121.028
| 27> C 	 -67.3194 	 52.4362 	 121.282
| 28> H 	 -70.3245 	 52.2984 	 119.888
| 29> C 	 -68.8731 	 50.4025 	 121.347
| 30> H 	 -69.9714 	 50.3655 	 121.356
| 31> H 	 -68.5488 	 50.0145 	 122.326
| 32> C 	 -68.3938 	 49.4406 	 120.295
| 33> H 	 -67.3217 	 49.4688 	 120.287
| 34> H 	 -68.7237 	 49.7884 	 119.328
| 35> C 	 -68.8077 	 48.0241 	 120.643
| 36> H 	 -68.5619 	 47.3087 	 119.777
| 37> H 	 -69.8318 	 48.0741 	 120.735
| 38> H 	 -68.1849 	 47.7756 	 121.462
| 39> H 	 -62.8897 	 50.9412 	 122.811
| 40> H 	 -69.3714 	 54.7923 	 119.651
| 41> *
| 42>
| 43>                          ****END OF INPUT****

CARTESIAN COORDINATES (ANGSTROEM)
---------------------------------
  S    -64.582600   51.927200  121.238000
  C    -63.902400   51.256100  122.685000
  C    -64.859200   50.970600  123.632000
  C    -66.124100   51.369100  123.211000
  C    -66.158000   51.948300  121.966000
  H    -67.130400   51.419600  123.680000
  C    -64.439600   50.431600  125.039000
  H    -64.051100   51.202900  125.711000
  H    -63.491800   49.874100  124.839000
  C    -65.187600   49.323400  125.771000
  H    -66.159600   49.713000  125.947000
  H    -65.157700   48.515600  125.000000
  C    -64.608400   48.908200  127.065000
  H    -65.209200   48.121100  127.456000
  H    -63.580800   48.599700  127.023000
  H    -64.590800   49.718000  127.841000
  S    -67.322100   54.131100  120.781000
  C    -68.908600   53.881000  120.110000
  C    -69.387600   52.586700  120.243000
  C    -68.524700   51.831000  121.028000
  C    -67.319400   52.436200  121.282000
  H    -70.324500   52.298400  119.888000
  C    -68.873100   50.402500  121.347000
  H    -69.971400   50.365500  121.356000
  H    -68.548800   50.014500  122.326000
  C    -68.393800   49.440600  120.295000
  H    -67.321700   49.468800  120.287000
  H    -68.723700   49.788400  119.328000
  C    -68.807700   48.024100  120.643000
  H    -68.561900   47.308700  119.777000
  H    -69.831800   48.074100  120.735000
  H    -68.184900   47.775600  121.462000
  H    -62.889700   50.941200  122.811000
  H    -69.371400   54.792300  119.651000

 Total Charge           Charge          ....    0
 Multiplicity           Mult            ....    1
 Number of Electrons    NEL             ....  134
 Basis Dimension        Dim             ....  322

ORBITAL ENERGIES
----------------

  NO   OCC          E(Eh)            E(eV)
   0   2.0000     -88.966808     -2420.9099
   1   2.0000     -88.965633     -2420.8779
   2   2.0000     -10.321710      -280.8680
   3   2.0000     -10.320702      -280.8406
   4   2.0000     -10.319873      -280.8180
   5   2.0000     -10.308687      -280.5136
   6   2.0000     -10.302404      -280.3427
   7   2.0000     -10.298055      -280.2243
   8   2.0000     -10.292964      -280.0858
   9   2.0000     -10.290610      -280.0217
  10   2.0000     -10.290033      -280.0060
  11   2.0000     -10.287707      -279.9427
  12   2.0000     -10.283574      -279.8303
  13   2.0000     -10.276891      -279.6484
  14   2.0000     -10.272610      -279.5319
  15   2.0000     -10.271458      -279.5006
  16   2.0000      -8.081989      -219.9221
  17   2.0000      -8.080638      -219.8853
  18   2.0000      -6.040332      -164.3658
  19   2.0000      -6.038897      -164.3267
  20   2.0000      -6.036410      -164.2591
  21   2.0000      -6.035210      -164.2264
  22   2.0000      -6.032925      -164.1642
  23   2.0000      -6.031566      -164.1273
  24   2.0000      -1.013321       -27.5739
  25   2.0000      -0.990551       -26.9543
  26   2.0000      -0.919076       -25.0093
  27   2.0000      -0.915494       -24.9119
  28   2.0000      -0.875709       -23.8293
  29   2.0000      -0.859064       -23.3763
  30   2.0000      -0.851269       -23.1642
  31   2.0000      -0.814343       -22.1594
  32   2.0000      -0.785545       -21.3758
  33   2.0000      -0.771322       -20.9888
  34   2.0000      -0.706962       -19.2374
  35   2.0000      -0.693210       -18.8632
  36   2.0000      -0.687943       -18.7199
  37   2.0000      -0.669664       -18.2225
  38   2.0000      -0.646053       -17.5800
  39   2.0000      -0.616917       -16.7872
  40   2.0000      -0.603234       -16.4148
  41   2.0000      -0.581339       -15.8190
  42   2.0000      -0.575457       -15.6590
  43   2.0000      -0.567294       -15.4369
  44   2.0000      -0.530667       -14.4402
  45   2.0000      -0.525167       -14.2905
  46   2.0000      -0.515143       -14.0178
  47   2.0000      -0.511326       -13.9139
  48   2.0000      -0.500944       -13.6314
  49   2.0000      -0.496634       -13.5141
  50   2.0000      -0.491849       -13.3839
  51   2.0000      -0.485649       -13.2152
  52   2.0000      -0.476510       -12.9665
  53   2.0000      -0.470871       -12.8130
  54   2.0000      -0.457152       -12.4397
  55   2.0000      -0.450483       -12.2583
  56   2.0000      -0.444909       -12.1066
  57   2.0000      -0.431396       -11.7389
  58   2.0000      -0.429580       -11.6895
  59   2.0000      -0.427304       -11.6275
  60   2.0000      -0.422382       -11.4936
  61   2.0000      -0.415996       -11.3198
  62   2.0000      -0.408298       -11.1103
  63   2.0000      -0.344482        -9.3738
  64   2.0000      -0.336369        -9.1531
  65   2.0000      -0.334627        -9.1057
  66   2.0000      -0.290145        -7.8953
  67   0.0000       0.033338         0.9072
  68   0.0000       0.066065         1.7977
  69   0.0000       0.113373         3.0850
  70   0.0000       0.124936         3.3997
  71   0.0000       0.135062         3.6752

MULLIKEN ATOMIC CHARGES
-----------------------
   0 S :    0.124977
   1 C :   -0.113350
   2 C :   -0.034809
   3 C :    0.013456
   4 C :   -0.180867
   5 H :    0.028028
   6 C :    0.008742
   7 H :    0.038627
   8 H :    0.005745
   9 C :   -0.053640
  10 H :    0.022323
  11 H :    0.036429
  12 C :   -0.030302
  13 H :    0.033479
  14 H :    0.020805
  15 H :    0.029645
  16 S :    0.111217
  17 C :   -0.115383
  18 C :    0.001415
  19 C :   -0.005404
  20 C :   -0.180679
  21 H :   -0.004228
  22 C :    0.050395
  23 H :    0.010369
  24 H :    0.014152
  25 C :   -0.065839
  26 H :    0.021560
  27 H :    0.011829
  28 C :   -0.001535
  29 H :    0.041147
  30 H :    0.014959
  31 H :    0.033404
  32 H :    0.037913
  33 H :    0.075418
Sum of atomic charges:    0.0000000

LOEWDIN ATOMIC CHARGES
----------------------
   0 S :    0.421325
   1 C :   -0.196741
   2 C :   -0.065994
   3 C :   -0.073115
   4 C :   -0.203426
   5 H :    0.041048
   6 C :   -0.040873
   7 H :    0.028675
   8 H :    0.029882
   9 C :   -0.044010
  10 H :    0.017377
  11 H :    0.032255
  12 C :   -0.061248
  13 H :    0.027775
  14 H :    0.021256
  15 H :    0.031325
  16 S :    0.405593
  17 C :   -0.181242
  18 C :   -0.063031
  19 C :   -0.051017
  20 C :   -0.202190
  21 H :    0.024461
  22 C :   -0.030437
  23 H :    0.026762
  24 H :    0.026839
  25 C :   -0.035524
  26 H :    0.020738
  27 H :    0.016768
  28 C :   -0.053273
  29 H :    0.036472
  30 H :    0.012042
  31 H :    0.024614
  32 H :    0.023749
  33 H :    0.033168

  Mayer bond orders larger than 0.100000
B(  0-S ,  1-C ) :   1.1485 B(  0-S ,  4-C ) :   1.1572 B(  1-C ,  2-C ) :   1.6042
B(  1-C ,  4-C ) :   0.1056 B(  1-C , 32-H ) :   0.9697 B(  2-C ,  3-C ) :   1.2387
B(  2-C ,  6-C ) :   0.9977 B(  3-C ,  4-C ) :   1.5834 B(  3-C ,  5-H ) :   0.9921
B(  4-C , 20-C ) :   1.0369 B(  6-C ,  7-H ) :   0.9480 B(  6-C ,  8-H ) :   0.9441
B(  6-C ,  9-C ) :   1.0510 B(  9-C , 10-H ) :   0.9498 B(  9-C , 11-H ) :   0.9577
B(  9-C , 12-C ) :   1.1028 B( 12-C , 13-H ) :   0.9691 B( 12-C , 14-H ) :   0.9716
B( 12-C , 15-H ) :   0.9686 B( 16-S , 17-C ) :   1.1773 B( 16-S , 20-C ) :   1.1426
B( 17-C , 18-C ) :   1.5681 B( 17-C , 20-C ) :   0.1089 B( 17-C , 33-H ) :   0.9627
B( 18-C , 19-C ) :   1.2538 B( 18-C , 21-H ) :   1.0037 B( 19-C , 20-C ) :   1.5909
B( 19-C , 22-C ) :   1.0510 B( 22-C , 23-H ) :   0.9242 B( 22-C , 24-H ) :   0.9317
B( 22-C , 25-C ) :   1.0756 B( 25-C , 26-H ) :   0.9545 B( 25-C , 27-H ) :   0.9506
B( 25-C , 28-C ) :   1.0760 B( 28-C , 29-H ) :   0.9724 B( 28-C , 30-H ) :   0.9757
B( 28-C , 31-H ) :   0.9750

Dispersion correction           -0.013939077
FINAL SINGLE POINT ENERGY     -1339.867104129938

DIPOLE MOMENT
-------------
                                X             Y             Z
Electronic contribution:      3.81999      24.92508     -15.58494
Nuclear contribution   :     -4.07462     -25.31646      15.86748
                        -----------------------------------------
Total Dipole Moment    :     -0.25462      -0.39138       0.28254
                        -----------------------------------------
Magnitude (a.u.)       :      0.54575
Magnitude (Debye)      :      1.38718

Rotational constants in cm-1:     0.018275     0.008386     0.006811
Rotational constants in MHz :   547.859939   251.406102   204.179162

                             ****ORCA TERMINATED NORMALLY****
TOTAL RUN TIME: 0 days 0 hours 0 minutes 32 seconds 76 msec
