                         Program Version 4.2.1 -  RELEASE  -
|  1> ! wB97X-D3 SP def2-SVP
|  2> %pal
|  3> nprocs 16
|  4> end
|  5>
|  6> * xyz 0 1
|  7> S 	 -73.0241 	 48.8778 	 123.574
|  8> C 	 -72.0899 	 49.1298 	 122.1
|  9> C 	 -71.0557 	 49.9335 	 122.345
| 10> C 	 -70.9422 	 50.4235 	 123.682
| 11> C 	 -71.9278 	 49.9491 	 124.509
| 12> H 	 -70.093 	 50.8897 	 124.122
| 13> C 	 -70.0055 	 50.2996 	 121.296
| 14> H 	 -70.4551 	 51.0005 	 120.685
| 15> H 	 -69.7506 	 49.4137 	 120.666
| 16> C 	 -68.6399 	 50.7939 	 121.611
| 17> H 	 -68.1319 	 51.0198 	 120.697
| 18> H 	 -68.6605 	 51.7094 	 122.112
| 19> C 	 -67.8391 	 49.753 	 122.438
| 20> H 	 -66.8578 	 50.2655 	 122.782
| 21> H 	 -68.3284 	 49.3963 	 123.321
| 22> H 	 -67.6287 	 48.9064 	 121.767
| 23> S 	 -72.5451 	 51.6298 	 126.501
| 24> C 	 -72.1018 	 51.285 	 128.122
| 25> C 	 -71.7979 	 49.9761 	 128.299
| 26> C 	 -71.6364 	 49.2841 	 127.016
| 27> C 	 -72.0419 	 50.1042 	 125.939
| 28> H 	 -71.4467 	 49.5441 	 129.2
| 29> C 	 -71.0227 	 47.8843 	 126.887
| 30> H 	 -70.663 	 47.8473 	 125.816
| 31> H 	 -71.8073 	 47.0787 	 127.094
| 32> C 	 -69.9429 	 47.5655 	 127.892
| 33> H 	 -69.2191 	 48.2999 	 128.131
| 34> H 	 -69.2906 	 46.7889 	 127.483
| 35> C 	 -70.3434 	 46.8565 	 129.17
| 36> H 	 -71.3441 	 47.0921 	 129.481
| 37> H 	 -69.6397 	 47.1985 	 129.943
| 38> H 	 -70.3061 	 45.7315 	 129.137
| 39> H 	 -72.1532 	 48.4905 	 121.194
| 40> H 	 -72.057 	 52.0117 	 128.931
| 41> *
| 42>
| 43>                          ****END OF INPUT****

CARTESIAN COORDINATES (ANGSTROEM)
---------------------------------
  S    -73.024100   48.877800  123.574000
  C    -72.089900   49.129800  122.100000
  C    -71.055700   49.933500  122.345000
  C    -70.942200   50.423500  123.682000
  C    -71.927800   49.949100  124.509000
  H    -70.093000   50.889700  124.122000
  C    -70.005500   50.299600  121.296000
  H    -70.455100   51.000500  120.685000
  H    -69.750600   49.413700  120.666000
  C    -68.639900   50.793900  121.611000
  H    -68.131900   51.019800  120.697000
  H    -68.660500   51.709400  122.112000
  C    -67.839100   49.753000  122.438000
  H    -66.857800   50.265500  122.782000
  H    -68.328400   49.396300  123.321000
  H    -67.628700   48.906400  121.767000
  S    -72.545100   51.629800  126.501000
  C    -72.101800   51.285000  128.122000
  C    -71.797900   49.976100  128.299000
  C    -71.636400   49.284100  127.016000
  C    -72.041900   50.104200  125.939000
  H    -71.446700   49.544100  129.200000
  C    -71.022700   47.884300  126.887000
  H    -70.663000   47.847300  125.816000
  H    -71.807300   47.078700  127.094000
  C    -69.942900   47.565500  127.892000
  H    -69.219100   48.299900  128.131000
  H    -69.290600   46.788900  127.483000
  C    -70.343400   46.856500  129.170000
  H    -71.344100   47.092100  129.481000
  H    -69.639700   47.198500  129.943000
  H    -70.306100   45.731500  129.137000
  H    -72.153200   48.490500  121.194000
  H    -72.057000   52.011700  128.931000

 Total Charge           Charge          ....    0
 Multiplicity           Mult            ....    1
 Number of Electrons    NEL             ....  134
 Basis Dimension        Dim             ....  322

ORBITAL ENERGIES
----------------

  NO   OCC          E(Eh)            E(eV)
   0   2.0000     -88.962625     -2420.7961
   1   2.0000     -88.961395     -2420.7626
   2   2.0000     -10.330305      -281.1019
   3   2.0000     -10.320952      -280.8474
   4   2.0000     -10.314273      -280.6656
   5   2.0000     -10.311801      -280.5984
   6   2.0000     -10.308164      -280.4994
   7   2.0000     -10.300900      -280.3017
   8   2.0000     -10.297106      -280.1985
   9   2.0000     -10.292746      -280.0799
  10   2.0000     -10.290792      -280.0267
  11   2.0000     -10.283401      -279.8256
  12   2.0000     -10.282913      -279.8123
  13   2.0000     -10.280043      -279.7342
  14   2.0000     -10.278730      -279.6985
  15   2.0000     -10.278373      -279.6887
  16   2.0000      -8.079038      -219.8418
  17   2.0000      -8.075465      -219.7446
  18   2.0000      -6.037470      -164.2879
  19   2.0000      -6.034075      -164.1955
  20   2.0000      -6.033160      -164.1706
  21   2.0000      -6.030078      -164.0868
  22   2.0000      -6.029924      -164.0826
  23   2.0000      -6.026119      -163.9790
  24   2.0000      -1.009864       -27.4798
  25   2.0000      -0.987404       -26.8686
  26   2.0000      -0.917146       -24.9568
  27   2.0000      -0.912750       -24.8372
  28   2.0000      -0.877083       -23.8666
  29   2.0000      -0.848898       -23.0997
  30   2.0000      -0.840412       -22.8688
  31   2.0000      -0.821095       -22.3431
  32   2.0000      -0.784453       -21.3460
  33   2.0000      -0.771928       -21.0052
  34   2.0000      -0.710967       -19.3464
  35   2.0000      -0.698191       -18.9987
  36   2.0000      -0.691027       -18.8038
  37   2.0000      -0.661175       -17.9915
  38   2.0000      -0.640477       -17.4283
  39   2.0000      -0.622988       -16.9524
  40   2.0000      -0.600845       -16.3498
  41   2.0000      -0.572759       -15.5856
  42   2.0000      -0.561055       -15.2671
  43   2.0000      -0.552459       -15.0332
  44   2.0000      -0.539067       -14.6688
  45   2.0000      -0.537922       -14.6376
  46   2.0000      -0.518349       -14.1050
  47   2.0000      -0.510189       -13.8829
  48   2.0000      -0.508737       -13.8434
  49   2.0000      -0.504709       -13.7338
  50   2.0000      -0.490410       -13.3447
  51   2.0000      -0.480126       -13.0649
  52   2.0000      -0.474929       -12.9235
  53   2.0000      -0.466640       -12.6979
  54   2.0000      -0.458532       -12.4773
  55   2.0000      -0.447348       -12.1730
  56   2.0000      -0.442047       -12.0287
  57   2.0000      -0.440296       -11.9811
  58   2.0000      -0.429282       -11.6814
  59   2.0000      -0.425209       -11.5705
  60   2.0000      -0.423224       -11.5165
  61   2.0000      -0.412262       -11.2182
  62   2.0000      -0.399521       -10.8715
  63   2.0000      -0.335818        -9.1381
  64   2.0000      -0.333027        -9.0621
  65   2.0000      -0.321767        -8.7557
  66   2.0000      -0.307718        -8.3734
  67   0.0000       0.036537         0.9942
  68   0.0000       0.067843         1.8461
  69   0.0000       0.112064         3.0494
  70   0.0000       0.126271         3.4360
  71   0.0000       0.131714         3.5841

MULLIKEN ATOMIC CHARGES
-----------------------
   0 S :    0.095759
   1 C :   -0.140456
   2 C :   -0.069445
   3 C :    0.063046
   4 C :   -0.184580
   5 H :    0.014354
   6 C :    0.058647
   7 H :    0.025341
   8 H :    0.019308
   9 C :   -0.033235
  10 H :    0.022634
  11 H :    0.009219
  12 C :   -0.086411
  13 H :    0.043759
  14 H :    0.037751
  15 H :    0.033758
  16 S :    0.127132
  17 C :   -0.091812
  18 C :    0.002718
  19 C :   -0.053946
  20 C :   -0.180125
  21 H :    0.008049
  22 C :    0.065995
  23 H :    0.050138
  24 H :    0.054454
  25 C :   -0.083852
  26 H :    0.021906
  27 H :    0.024631
  28 C :   -0.080488
  29 H :    0.025491
  30 H :    0.034331
  31 H :    0.043474
  32 H :    0.064302
  33 H :    0.058154
Sum of atomic charges:   -0.0000000

LOEWDIN ATOMIC CHARGES
----------------------
   0 S :    0.375169
   1 C :   -0.194814
   2 C :   -0.066148
   3 C :   -0.056055
   4 C :   -0.181645
   5 H :    0.030856
   6 C :   -0.031760
   7 H :    0.024909
   8 H :    0.033637
   9 C :   -0.040271
  10 H :    0.028715
  11 H :    0.011588
  12 C :   -0.066541
  13 H :    0.035491
  14 H :    0.018857
  15 H :    0.025844
  16 S :    0.444250
  17 C :   -0.190971
  18 C :   -0.071258
  19 C :   -0.045865
  20 C :   -0.232941
  21 H :    0.025031
  22 C :   -0.036855
  23 H :    0.041403
  24 H :    0.046196
  25 C :   -0.060094
  26 H :    0.019216
  27 H :    0.035140
  28 C :   -0.070272
  29 H :    0.014550
  30 H :    0.031231
  31 H :    0.030154
  32 H :    0.041188
  33 H :    0.032066

  Mayer bond orders larger than 0.100000
B(  0-S ,  1-C ) :   1.1179 B(  0-S ,  4-C ) :   1.1320 B(  1-C ,  2-C ) :   1.6729
B(  1-C , 32-H ) :   0.9623 B(  2-C ,  3-C ) :   1.2131 B(  2-C ,  6-C ) :   0.9924
B(  3-C ,  4-C ) :   1.6156 B(  3-C ,  5-H ) :   0.9912 B(  4-C , 20-C ) :   1.0089
B(  6-C ,  7-H ) :   0.9315 B(  6-C ,  8-H ) :   0.9466 B(  6-C ,  9-C ) :   1.1026
B(  9-C , 10-H ) :   0.9463 B(  9-C , 11-H ) :   0.9410 B(  9-C , 12-C ) :   1.0744
B( 12-C , 13-H ) :   0.9751 B( 12-C , 14-H ) :   0.9782 B( 12-C , 15-H ) :   0.9749
B( 16-S , 17-C ) :   1.1712 B( 16-S , 20-C ) :   1.1610 B( 17-C , 18-C ) :   1.6049
B( 17-C , 33-H ) :   0.9652 B( 18-C , 19-C ) :   1.2469 B( 18-C , 21-H ) :   0.9847
B( 19-C , 20-C ) :   1.5866 B( 19-C , 22-C ) :   1.0467 B( 22-C , 23-H ) :   0.9352
B( 22-C , 24-H ) :   0.9342 B( 22-C , 25-C ) :   1.0580 B( 25-C , 26-H ) :   0.9671
B( 25-C , 27-H ) :   0.9502 B( 25-C , 28-C ) :   1.0610 B( 28-C , 29-H ) :   0.9779
B( 28-C , 30-H ) :   0.9757 B( 28-C , 31-H ) :   0.9778

Dispersion correction           -0.014511200
FINAL SINGLE POINT ENERGY     -1339.860825180717

DIPOLE MOMENT
-------------
                                X             Y             Z
Electronic contribution:    -22.44727      10.55573      -0.96866
Nuclear contribution   :     23.23856     -10.72218       1.01209
                        -----------------------------------------
Total Dipole Moment    :      0.79129      -0.16645       0.04343
                        -----------------------------------------
Magnitude (a.u.)       :      0.80977
Magnitude (Debye)      :      2.05827

Rotational constants in cm-1:     0.018194     0.008330     0.007462
Rotational constants in MHz :   545.437537   249.722550   223.706891

                             ****ORCA TERMINATED NORMALLY****
TOTAL RUN TIME: 0 days 0 hours 0 minutes 34 seconds 118 msec
