                         Program Version 4.2.1 -  RELEASE  -
|  1> ! wB97X-D3 SP def2-SVP
|  2> %pal
|  3> nprocs 16
|  4> end
|  5>
|  6> * xyz 0 1
|  7> S 	 -101.789 	 52.7326 	 118.277
|  8> C 	 -100.131 	 53.3624 	 117.908
|  9> C 	 -100.185 	 54.7492 	 117.812
| 10> C 	 -101.498 	 55.2785 	 117.899
| 11> C 	 -102.472 	 54.3818 	 118.313
| 12> H 	 -101.654 	 56.3508 	 117.68
| 13> C 	 -99.0186 	 55.5406 	 117.274
| 14> H 	 -98.2508 	 54.8549 	 116.968
| 15> H 	 -98.6674 	 56.0073 	 118.144
| 16> C 	 -99.2465 	 56.5692 	 116.149
| 17> H 	 -99.8203 	 57.4173 	 116.466
| 18> H 	 -98.3123 	 56.976 	 115.769
| 19> C 	 -99.9599 	 56.0138 	 114.905
| 20> H 	 -100.959 	 56.2859 	 114.951
| 21> H 	 -99.8322 	 56.5106 	 114.011
| 22> H 	 -99.652 	 54.9732 	 114.794
| 23> S 	 -104.99 	 53.2151 	 118.495
| 24> C 	 -106.425 	 54.1621 	 118.213
| 25> C 	 -106.1 	 55.4972 	 118.155
| 26> C 	 -104.71 	 55.7646 	 118.34
| 27> C 	 -103.951 	 54.635 	 118.411
| 28> H 	 -106.949 	 56.1541 	 118.029
| 29> C 	 -104.279 	 57.2192 	 118.426
| 30> H 	 -103.354 	 57.2097 	 119.005
| 31> H 	 -105.018 	 57.6309 	 119.13
| 32> C 	 -104.345 	 57.8994 	 117.085
| 33> H 	 -105.355 	 58.2313 	 116.788
| 34> H 	 -103.956 	 57.25 	 116.258
| 35> C 	 -103.563 	 59.1811 	 117.191
| 36> H 	 -104.007 	 59.724 	 118.038
| 37> H 	 -103.527 	 59.9016 	 116.326
| 38> H 	 -102.526 	 58.8887 	 117.474
| 39> H 	 -99.2576 	 52.7714 	 117.996
| 40> H 	 -107.519 	 53.8291 	 118.217
| 41> *
| 42>
| 43>                          ****END OF INPUT****

CARTESIAN COORDINATES (ANGSTROEM)
---------------------------------
  S    -101.789000   52.732600  118.277000
  C    -100.131000   53.362400  117.908000
  C    -100.185000   54.749200  117.812000
  C    -101.498000   55.278500  117.899000
  C    -102.472000   54.381800  118.313000
  H    -101.654000   56.350800  117.680000
  C    -99.018600   55.540600  117.274000
  H    -98.250800   54.854900  116.968000
  H    -98.667400   56.007300  118.144000
  C    -99.246500   56.569200  116.149000
  H    -99.820300   57.417300  116.466000
  H    -98.312300   56.976000  115.769000
  C    -99.959900   56.013800  114.905000
  H    -100.959000   56.285900  114.951000
  H    -99.832200   56.510600  114.011000
  H    -99.652000   54.973200  114.794000
  S    -104.990000   53.215100  118.495000
  C    -106.425000   54.162100  118.213000
  C    -106.100000   55.497200  118.155000
  C    -104.710000   55.764600  118.340000
  C    -103.951000   54.635000  118.411000
  H    -106.949000   56.154100  118.029000
  C    -104.279000   57.219200  118.426000
  H    -103.354000   57.209700  119.005000
  H    -105.018000   57.630900  119.130000
  C    -104.345000   57.899400  117.085000
  H    -105.355000   58.231300  116.788000
  H    -103.956000   57.250000  116.258000
  C    -103.563000   59.181100  117.191000
  H    -104.007000   59.724000  118.038000
  H    -103.527000   59.901600  116.326000
  H    -102.526000   58.888700  117.474000
  H    -99.257600   52.771400  117.996000
  H    -107.519000   53.829100  118.217000

 Total Charge           Charge          ....    0
 Multiplicity           Mult            ....    1
 Number of Electrons    NEL             ....  134
 Basis Dimension        Dim             ....  322

ORBITAL ENERGIES
----------------

  NO   OCC          E(Eh)            E(eV)
   0   2.0000     -88.965667     -2420.8789
   1   2.0000     -88.963342     -2420.8156
   2   2.0000     -10.341477      -281.4059
   3   2.0000     -10.331171      -281.1255
   4   2.0000     -10.321477      -280.8617
   5   2.0000     -10.316648      -280.7303
   6   2.0000     -10.301944      -280.3301
   7   2.0000     -10.300864      -280.3007
   8   2.0000     -10.296388      -280.1790
   9   2.0000     -10.294981      -280.1407
  10   2.0000     -10.292754      -280.0801
  11   2.0000     -10.291126      -280.0358
  12   2.0000     -10.287388      -279.9341
  13   2.0000     -10.286654      -279.9141
  14   2.0000     -10.285519      -279.8832
  15   2.0000     -10.261984      -279.2428
  16   2.0000      -8.078842      -219.8365
  17   2.0000      -8.078202      -219.8191
  18   2.0000      -6.037636      -164.2924
  19   2.0000      -6.036884      -164.2720
  20   2.0000      -6.033645      -164.1838
  21   2.0000      -6.032738      -164.1591
  22   2.0000      -6.029315      -164.0660
  23   2.0000      -6.028730      -164.0501
  24   2.0000      -1.004803       -27.3421
  25   2.0000      -0.980982       -26.6939
  26   2.0000      -0.921271       -25.0691
  27   2.0000      -0.912188       -24.8219
  28   2.0000      -0.867195       -23.5976
  29   2.0000      -0.855438       -23.2777
  30   2.0000      -0.841729       -22.9046
  31   2.0000      -0.819059       -22.2877
  32   2.0000      -0.785274       -21.3684
  33   2.0000      -0.773573       -21.0500
  34   2.0000      -0.710714       -19.3395
  35   2.0000      -0.700171       -19.0526
  36   2.0000      -0.696022       -18.9397
  37   2.0000      -0.659138       -17.9361
  38   2.0000      -0.635051       -17.2806
  39   2.0000      -0.626691       -17.0531
  40   2.0000      -0.591982       -16.1086
  41   2.0000      -0.576764       -15.6945
  42   2.0000      -0.572631       -15.5821
  43   2.0000      -0.560633       -15.2556
  44   2.0000      -0.535650       -14.5758
  45   2.0000      -0.534518       -14.5450
  46   2.0000      -0.523600       -14.2479
  47   2.0000      -0.513590       -13.9755
  48   2.0000      -0.507815       -13.8184
  49   2.0000      -0.498499       -13.5648
  50   2.0000      -0.484519       -13.1844
  51   2.0000      -0.480519       -13.0756
  52   2.0000      -0.478428       -13.0187
  53   2.0000      -0.463060       -12.6005
  54   2.0000      -0.457590       -12.4517
  55   2.0000      -0.444779       -12.1031
  56   2.0000      -0.443896       -12.0790
  57   2.0000      -0.440097       -11.9757
  58   2.0000      -0.429167       -11.6782
  59   2.0000      -0.428624       -11.6635
  60   2.0000      -0.419493       -11.4150
  61   2.0000      -0.413200       -11.2437
  62   2.0000      -0.403523       -10.9804
  63   2.0000      -0.359609        -9.7855
  64   2.0000      -0.334616        -9.1054
  65   2.0000      -0.325059        -8.8453
  66   2.0000      -0.284316        -7.7366
  67   0.0000       0.018771         0.5108
  68   0.0000       0.088849         2.4177
  69   0.0000       0.089752         2.4423
  70   0.0000       0.108697         2.9578
  71   0.0000       0.124916         3.3991

MULLIKEN ATOMIC CHARGES
-----------------------
   0 S :    0.075581
   1 C :   -0.119089
   2 C :   -0.095477
   3 C :   -0.029686
   4 C :   -0.057684
   5 H :    0.009446
   6 C :    0.105965
   7 H :    0.015650
   8 H :    0.024068
   9 C :   -0.085671
  10 H :    0.017129
  11 H :    0.029395
  12 C :    0.009893
  13 H :    0.002766
  14 H :   -0.001120
  15 H :    0.042674
  16 S :    0.087142
  17 C :   -0.109350
  18 C :   -0.045423
  19 C :   -0.085812
  20 C :   -0.109064
  21 H :    0.016394
  22 C :    0.043190
  23 H :    0.032961
  24 H :    0.035114
  25 C :   -0.060695
  26 H :    0.034147
  27 H :    0.050519
  28 C :   -0.063028
  29 H :    0.026935
  30 H :    0.047019
  31 H :    0.026053
  32 H :    0.047430
  33 H :    0.082629
Sum of atomic charges:   -0.0000000

LOEWDIN ATOMIC CHARGES
----------------------
   0 S :    0.361977
   1 C :   -0.175138
   2 C :   -0.058665
   3 C :   -0.075276
   4 C :   -0.165593
   5 H :    0.032375
   6 C :   -0.026019
   7 H :    0.028739
   8 H :    0.029931
   9 C :   -0.036533
  10 H :    0.016820
  11 H :    0.027646
  12 C :   -0.063625
  13 H :    0.020759
  14 H :    0.018755
  15 H :    0.032213
  16 S :    0.393407
  17 C :   -0.195704
  18 C :   -0.077951
  19 C :   -0.059820
  20 C :   -0.188579
  21 H :    0.031658
  22 C :   -0.033290
  23 H :    0.031396
  24 H :    0.039330
  25 C :   -0.045395
  26 H :    0.029475
  27 H :    0.029958
  28 C :   -0.071079
  29 H :    0.026350
  30 H :    0.028344
  31 H :    0.020900
  32 H :    0.022211
  33 H :    0.050423

  Mayer bond orders larger than 0.100000
B(  0-S ,  1-C ) :   1.1144 B(  0-S ,  4-C ) :   1.1473 B(  1-C ,  2-C ) :   1.6100
B(  1-C ,  4-C ) :   0.1031 B(  1-C , 32-H ) :   0.9688 B(  2-C ,  3-C ) :   1.2671
B(  2-C ,  6-C ) :   1.0106 B(  3-C ,  4-C ) :   1.5628 B(  3-C ,  5-H ) :   0.9786
B(  4-C , 20-C ) :   1.0554 B(  6-C ,  7-H ) :   0.9466 B(  6-C ,  8-H ) :   0.9222
B(  6-C ,  9-C ) :   1.0859 B(  9-C , 10-H ) :   0.9552 B(  9-C , 11-H ) :   0.9560
B(  9-C , 12-C ) :   1.0774 B( 12-C , 13-H ) :   0.9658 B( 12-C , 14-H ) :   0.9647
B( 12-C , 15-H ) :   0.9781 B( 16-S , 17-C ) :   1.1503 B( 16-S , 20-C ) :   1.1173
B( 17-C , 18-C ) :   1.6380 B( 17-C , 33-H ) :   0.9556 B( 18-C , 19-C ) :   1.2214
B( 18-C , 21-H ) :   0.9921 B( 19-C , 20-C ) :   1.6294 B( 19-C , 22-C ) :   1.0267
B( 22-C , 23-H ) :   0.9499 B( 22-C , 24-H ) :   0.9212 B( 22-C , 25-C ) :   1.0491
B( 25-C , 26-H ) :   0.9446 B( 25-C , 27-H ) :   0.9625 B( 25-C , 28-C ) :   1.0806
B( 28-C , 29-H ) :   0.9650 B( 28-C , 30-H ) :   0.9733 B( 28-C , 31-H ) :   0.9780

Dispersion correction           -0.015075796
FINAL SINGLE POINT ENERGY     -1339.852466499072

DIPOLE MOMENT
-------------
                                X             Y             Z
Electronic contribution:    -10.11572     -26.68291      12.28904
Nuclear contribution   :     10.15440      27.52582     -12.53741
                        -----------------------------------------
Total Dipole Moment    :      0.03868       0.84291      -0.24837
                        -----------------------------------------
Magnitude (a.u.)       :      0.87959
Magnitude (Debye)      :      2.23574

Rotational constants in cm-1:     0.016708     0.010908     0.007165
Rotational constants in MHz :   500.881230   327.003790   214.795605

                             ****ORCA TERMINATED NORMALLY****
TOTAL RUN TIME: 0 days 0 hours 0 minutes 36 seconds 949 msec
