                         Program Version 4.2.1 -  RELEASE  -
|  1> ! wB97X-D3 SP def2-SVP
|  2> %pal
|  3> nprocs 16
|  4> end
|  5>
|  6> * xyz 0 1
|  7> S 	 2.20119 	 -1.83152 	 75.6335
|  8> C 	 0.926919 	 -2.64627 	 76.5771
|  9> C 	 0.736362 	 -2.03286 	 77.8062
| 10> C 	 1.31166 	 -0.712293 	 77.8058
| 11> C 	 2.17719 	 -0.523462 	 76.791
| 12> H 	 1.24414 	 0.0254942 	 78.5854
| 13> C 	 -0.193045 	 -2.48841 	 78.9079
| 14> H 	 0.489753 	 -2.93111 	 79.6382
| 15> H 	 -0.814044 	 -3.20661 	 78.4147
| 16> C 	 -1.08015 	 -1.46623 	 79.6248
| 17> H 	 -1.66261 	 -2.0117 	 80.3749
| 18> H 	 -0.477583 	 -0.82325 	 80.2176
| 19> C 	 -2.11539 	 -0.844704 	 78.6184
| 20> H 	 -2.78411 	 -0.154614 	 79.1251
| 21> H 	 -1.57775 	 -0.350623 	 77.7591
| 22> H 	 -2.65715 	 -1.69796 	 78.1717
| 23> S 	 4.87788 	 0.132584 	 76.2927
| 24> C 	 5.24729 	 1.82728 	 76.2163
| 25> C 	 4.14978 	 2.6441 	 76.3918
| 26> C 	 2.95793 	 1.93974 	 76.5994
| 27> C 	 3.15061 	 0.561759 	 76.589
| 28> H 	 4.29062 	 3.70971 	 76.4198
| 29> C 	 1.71742 	 2.68218 	 77.1109
| 30> H 	 0.866343 	 1.99772 	 77.3233
| 31> H 	 1.31784 	 3.32795 	 76.288
| 32> C 	 1.96932 	 3.50329 	 78.4659
| 33> H 	 1.243 	 4.20285 	 78.7207
| 34> H 	 2.89836 	 4.05677 	 78.3932
| 35> C 	 2.15065 	 2.55156 	 79.5655
| 36> H 	 1.19513 	 2.08664 	 79.8331
| 37> H 	 2.35559 	 3.13466 	 80.4597
| 38> H 	 2.82559 	 1.66872 	 79.3881
| 39> H 	 0.461399 	 -3.62456 	 76.3717
| 40> H 	 6.25128 	 2.15963 	 75.9983
| 41> *
| 42>
| 43>                          ****END OF INPUT****

CARTESIAN COORDINATES (ANGSTROEM)
---------------------------------
  S      2.201190   -1.831520   75.633500
  C      0.926919   -2.646270   76.577100
  C      0.736362   -2.032860   77.806200
  C      1.311660   -0.712293   77.805800
  C      2.177190   -0.523462   76.791000
  H      1.244140    0.025494   78.585400
  C     -0.193045   -2.488410   78.907900
  H      0.489753   -2.931110   79.638200
  H     -0.814044   -3.206610   78.414700
  C     -1.080150   -1.466230   79.624800
  H     -1.662610   -2.011700   80.374900
  H     -0.477583   -0.823250   80.217600
  C     -2.115390   -0.844704   78.618400
  H     -2.784110   -0.154614   79.125100
  H     -1.577750   -0.350623   77.759100
  H     -2.657150   -1.697960   78.171700
  S      4.877880    0.132584   76.292700
  C      5.247290    1.827280   76.216300
  C      4.149780    2.644100   76.391800
  C      2.957930    1.939740   76.599400
  C      3.150610    0.561759   76.589000
  H      4.290620    3.709710   76.419800
  C      1.717420    2.682180   77.110900
  H      0.866343    1.997720   77.323300
  H      1.317840    3.327950   76.288000
  C      1.969320    3.503290   78.465900
  H      1.243000    4.202850   78.720700
  H      2.898360    4.056770   78.393200
  C      2.150650    2.551560   79.565500
  H      1.195130    2.086640   79.833100
  H      2.355590    3.134660   80.459700
  H      2.825590    1.668720   79.388100
  H      0.461399   -3.624560   76.371700
  H      6.251280    2.159630   75.998300

 Total Charge           Charge          ....    0
 Multiplicity           Mult            ....    1
 Number of Electrons    NEL             ....  134
 Basis Dimension        Dim             ....  322

ORBITAL ENERGIES
----------------

  NO   OCC          E(Eh)            E(eV)
   0   2.0000     -88.968439     -2420.9543
   1   2.0000     -88.964854     -2420.8567
   2   2.0000     -10.329965      -281.0926
   3   2.0000     -10.325104      -280.9604
   4   2.0000     -10.315671      -280.7037
   5   2.0000     -10.314617      -280.6750
   6   2.0000     -10.303190      -280.3641
   7   2.0000     -10.301045      -280.3057
   8   2.0000     -10.300802      -280.2991
   9   2.0000     -10.290410      -280.0163
  10   2.0000     -10.290018      -280.0056
  11   2.0000     -10.289574      -279.9935
  12   2.0000     -10.288057      -279.9523
  13   2.0000     -10.285656      -279.8869
  14   2.0000     -10.283139      -279.8184
  15   2.0000     -10.275130      -279.6005
  16   2.0000      -8.082576      -219.9381
  17   2.0000      -8.079139      -219.8445
  18   2.0000      -6.041009      -164.3842
  19   2.0000      -6.037749      -164.2955
  20   2.0000      -6.037281      -164.2828
  21   2.0000      -6.033840      -164.1891
  22   2.0000      -6.033342      -164.1756
  23   2.0000      -6.029690      -164.0762
  24   2.0000      -1.004900       -27.3447
  25   2.0000      -0.982677       -26.7400
  26   2.0000      -0.913368       -24.8540
  27   2.0000      -0.910816       -24.7846
  28   2.0000      -0.864684       -23.5292
  29   2.0000      -0.856602       -23.3093
  30   2.0000      -0.841398       -22.8956
  31   2.0000      -0.813465       -22.1355
  32   2.0000      -0.781669       -21.2703
  33   2.0000      -0.769412       -20.9368
  34   2.0000      -0.712045       -19.3757
  35   2.0000      -0.700719       -19.0675
  36   2.0000      -0.692622       -18.8472
  37   2.0000      -0.656006       -17.8508
  38   2.0000      -0.637095       -17.3362
  39   2.0000      -0.622507       -16.9393
  40   2.0000      -0.599689       -16.3184
  41   2.0000      -0.564695       -15.3661
  42   2.0000      -0.563470       -15.3328
  43   2.0000      -0.556119       -15.1328
  44   2.0000      -0.536934       -14.6107
  45   2.0000      -0.536625       -14.6023
  46   2.0000      -0.519563       -14.1380
  47   2.0000      -0.505455       -13.7541
  48   2.0000      -0.498163       -13.5557
  49   2.0000      -0.493515       -13.4292
  50   2.0000      -0.487532       -13.2664
  51   2.0000      -0.479004       -13.0344
  52   2.0000      -0.470349       -12.7988
  53   2.0000      -0.462449       -12.5839
  54   2.0000      -0.456463       -12.4210
  55   2.0000      -0.450182       -12.2501
  56   2.0000      -0.446526       -12.1506
  57   2.0000      -0.440020       -11.9736
  58   2.0000      -0.434132       -11.8133
  59   2.0000      -0.432518       -11.7694
  60   2.0000      -0.425359       -11.5746
  61   2.0000      -0.413997       -11.2654
  62   2.0000      -0.409805       -11.1514
  63   2.0000      -0.344897        -9.3851
  64   2.0000      -0.335744        -9.1361
  65   2.0000      -0.328555        -8.9404
  66   2.0000      -0.289268        -7.8714
  67   0.0000       0.033761         0.9187
  68   0.0000       0.065613         1.7854
  69   0.0000       0.109310         2.9745
  70   0.0000       0.121133         3.2962
  71   0.0000       0.122235         3.3262

MULLIKEN ATOMIC CHARGES
-----------------------
   0 S :    0.104597
   1 C :   -0.129462
   2 C :   -0.116333
   3 C :    0.032645
   4 C :   -0.117255
   5 H :   -0.025272
   6 C :    0.072087
   7 H :    0.046064
   8 H :    0.008271
   9 C :   -0.059361
  10 H :    0.028117
  11 H :    0.021174
  12 C :   -0.071185
  13 H :    0.044085
  14 H :    0.053855
  15 H :    0.034063
  16 S :    0.109180
  17 C :   -0.096869
  18 C :   -0.028388
  19 C :   -0.005654
  20 C :   -0.174957
  21 H :    0.019074
  22 C :    0.021681
  23 H :    0.026356
  24 H :    0.041149
  25 C :   -0.023959
  26 H :    0.018849
  27 H :    0.022613
  28 C :   -0.074552
  29 H :    0.019826
  30 H :    0.026838
  31 H :    0.066116
  32 H :    0.052484
  33 H :    0.054123
Sum of atomic charges:    0.0000000

LOEWDIN ATOMIC CHARGES
----------------------
   0 S :    0.388783
   1 C :   -0.200356
   2 C :   -0.056432
   3 C :   -0.068412
   4 C :   -0.181232
   5 H :    0.024875
   6 C :   -0.030743
   7 H :    0.039365
   8 H :    0.024911
   9 C :   -0.039666
  10 H :    0.029073
  11 H :    0.015107
  12 C :   -0.066139
  13 H :    0.024349
  14 H :    0.032580
  15 H :    0.029408
  16 S :    0.390060
  17 C :   -0.182512
  18 C :   -0.069514
  19 C :   -0.059259
  20 C :   -0.184610
  21 H :    0.031562
  22 C :   -0.031314
  23 H :    0.029719
  24 H :    0.034695
  25 C :   -0.032226
  26 H :    0.019114
  27 H :    0.021798
  28 C :   -0.071876
  29 H :    0.018579
  30 H :    0.027795
  31 H :    0.035490
  32 H :    0.031437
  33 H :    0.025592

  Mayer bond orders larger than 0.100000
B(  0-S ,  1-C ) :   1.1135 B(  0-S ,  4-C ) :   1.1376 B(  1-C ,  2-C ) :   1.6546
B(  1-C , 32-H ) :   0.9587 B(  2-C ,  3-C ) :   1.1931 B(  2-C ,  6-C ) :   1.0145
B(  3-C ,  4-C ) :   1.6290 B(  3-C ,  5-H ) :   0.9837 B(  4-C , 20-C ) :   1.0202
B(  6-C ,  7-H ) :   0.9228 B(  6-C ,  8-H ) :   0.9439 B(  6-C ,  9-C ) :   1.0952
B(  9-C , 10-H ) :   0.9510 B(  9-C , 11-H ) :   0.9484 B(  9-C , 12-C ) :   1.0616
B( 12-C , 13-H ) :   0.9772 B( 12-C , 14-H ) :   0.9765 B( 12-C , 15-H ) :   0.9736
B( 16-S , 17-C ) :   1.1550 B( 16-S , 20-C ) :   1.1366 B( 17-C , 18-C ) :   1.6062
B( 17-C , 20-C ) :   0.1029 B( 17-C , 33-H ) :   0.9681 B( 18-C , 19-C ) :   1.2346
B( 18-C , 21-H ) :   0.9933 B( 19-C , 20-C ) :   1.5961 B( 19-C , 22-C ) :   1.0477
B( 22-C , 23-H ) :   0.9443 B( 22-C , 24-H ) :   0.9337 B( 22-C , 25-C ) :   1.0507
B( 25-C , 26-H ) :   0.9527 B( 25-C , 27-H ) :   0.9569 B( 25-C , 28-C ) :   1.0888
B( 28-C , 29-H ) :   0.9632 B( 28-C , 30-H ) :   0.9627 B( 28-C , 31-H ) :   0.9690

Dispersion correction           -0.015816475
FINAL SINGLE POINT ENERGY     -1339.877814528950

DIPOLE MOMENT
-------------
                                X             Y             Z
Electronic contribution:     20.29322      -9.38837     -18.78754
Nuclear contribution   :    -20.64694       9.74787      19.38786
                        -----------------------------------------
Total Dipole Moment    :     -0.35373       0.35949       0.60032
                        -----------------------------------------
Magnitude (a.u.)       :      0.78406
Magnitude (Debye)      :      1.99291

Rotational constants in cm-1:     0.018946     0.010309     0.007374
Rotational constants in MHz :   567.974849   309.053291   221.055493

                             ****ORCA TERMINATED NORMALLY****
TOTAL RUN TIME: 0 days 0 hours 0 minutes 34 seconds 756 msec
