                         Program Version 4.2.1 -  RELEASE  -
|  1> ! wB97X-D3 SP def2-SVP
|  2> %pal
|  3> nprocs 16
|  4> end
|  5>
|  6> * xyz 0 1
|  7> S 	 -101.141 	 57.8848 	 121.504
|  8> C 	 -101.197 	 59.4284 	 120.621
|  9> C 	 -102.427 	 59.6188 	 119.98
| 10> C 	 -103.277 	 58.5025 	 120.12
| 11> C 	 -102.739 	 57.426 	 120.845
| 12> H 	 -104.267 	 58.381 	 119.662
| 13> C 	 -102.845 	 60.8488 	 119.232
| 14> H 	 -102.082 	 61.5318 	 119.414
| 15> H 	 -103.881 	 61.2305 	 119.581
| 16> C 	 -102.883 	 60.6334 	 117.732
| 17> H 	 -103.5 	 59.8004 	 117.4
| 18> H 	 -103.346 	 61.498 	 117.259
| 19> C 	 -101.47 	 60.6022 	 117.198
| 20> H 	 -100.991 	 59.7597 	 117.596
| 21> H 	 -101.54 	 60.5314 	 116.099
| 22> H 	 -101 	 61.5851 	 117.493
| 23> S 	 -102.169 	 54.7449 	 120.879
| 24> C 	 -103.511 	 53.6424 	 121.328
| 25> C 	 -104.69 	 54.2959 	 121.692
| 26> C 	 -104.532 	 55.6938 	 121.632
| 27> C 	 -103.274 	 56.0951 	 121.104
| 28> H 	 -105.635 	 53.796 	 121.962
| 29> C 	 -105.729 	 56.5772 	 121.868
| 30> H 	 -106.166 	 56.8501 	 120.927
| 31> H 	 -105.384 	 57.5484 	 122.319
| 32> C 	 -106.908 	 56.0957 	 122.816
| 33> H 	 -106.535 	 55.8528 	 123.812
| 34> H 	 -107.317 	 55.1214 	 122.54
| 35> C 	 -108.14 	 57.0492 	 122.917
| 36> H 	 -108.668 	 57.2058 	 121.986
| 37> H 	 -107.892 	 58.0947 	 123.289
| 38> H 	 -108.72 	 56.5817 	 123.7
| 39> H 	 -100.448 	 60.1706 	 120.62
| 40> H 	 -103.452 	 52.5683 	 121.291
| 41> *
| 42>
| 43>                          ****END OF INPUT****

CARTESIAN COORDINATES (ANGSTROEM)
---------------------------------
  S    -101.141000   57.884800  121.504000
  C    -101.197000   59.428400  120.621000
  C    -102.427000   59.618800  119.980000
  C    -103.277000   58.502500  120.120000
  C    -102.739000   57.426000  120.845000
  H    -104.267000   58.381000  119.662000
  C    -102.845000   60.848800  119.232000
  H    -102.082000   61.531800  119.414000
  H    -103.881000   61.230500  119.581000
  C    -102.883000   60.633400  117.732000
  H    -103.500000   59.800400  117.400000
  H    -103.346000   61.498000  117.259000
  C    -101.470000   60.602200  117.198000
  H    -100.991000   59.759700  117.596000
  H    -101.540000   60.531400  116.099000
  H    -101.000000   61.585100  117.493000
  S    -102.169000   54.744900  120.879000
  C    -103.511000   53.642400  121.328000
  C    -104.690000   54.295900  121.692000
  C    -104.532000   55.693800  121.632000
  C    -103.274000   56.095100  121.104000
  H    -105.635000   53.796000  121.962000
  C    -105.729000   56.577200  121.868000
  H    -106.166000   56.850100  120.927000
  H    -105.384000   57.548400  122.319000
  C    -106.908000   56.095700  122.816000
  H    -106.535000   55.852800  123.812000
  H    -107.317000   55.121400  122.540000
  C    -108.140000   57.049200  122.917000
  H    -108.668000   57.205800  121.986000
  H    -107.892000   58.094700  123.289000
  H    -108.720000   56.581700  123.700000
  H    -100.448000   60.170600  120.620000
  H    -103.452000   52.568300  121.291000

 Total Charge           Charge          ....    0
 Multiplicity           Mult            ....    1
 Number of Electrons    NEL             ....  134
 Basis Dimension        Dim             ....  322

ORBITAL ENERGIES
----------------

  NO   OCC          E(Eh)            E(eV)
   0   2.0000     -88.972526     -2421.0655
   1   2.0000     -88.967214     -2420.9210
   2   2.0000     -10.333760      -281.1959
   3   2.0000     -10.330252      -281.1004
   4   2.0000     -10.322305      -280.8842
   5   2.0000     -10.314801      -280.6800
   6   2.0000     -10.306285      -280.4483
   7   2.0000     -10.299804      -280.2719
   8   2.0000     -10.297410      -280.2068
   9   2.0000     -10.296192      -280.1736
  10   2.0000     -10.295683      -280.1598
  11   2.0000     -10.295097      -280.1438
  12   2.0000     -10.291020      -280.0329
  13   2.0000     -10.287157      -279.9278
  14   2.0000     -10.279709      -279.7251
  15   2.0000     -10.273816      -279.5647
  16   2.0000      -8.086085      -220.0336
  17   2.0000      -8.080697      -219.8869
  18   2.0000      -6.044597      -164.4818
  19   2.0000      -6.040843      -164.3797
  20   2.0000      -6.039240      -164.3361
  21   2.0000      -6.036816      -164.2701
  22   2.0000      -6.035433      -164.2325
  23   2.0000      -6.031437      -164.1238
  24   2.0000      -0.999254       -27.1911
  25   2.0000      -0.977205       -26.5911
  26   2.0000      -0.919760       -25.0280
  27   2.0000      -0.901443       -24.5295
  28   2.0000      -0.866560       -23.5803
  29   2.0000      -0.852147       -23.1881
  30   2.0000      -0.843989       -22.9661
  31   2.0000      -0.811531       -22.0829
  32   2.0000      -0.780755       -21.2454
  33   2.0000      -0.767579       -20.8869
  34   2.0000      -0.710175       -19.3248
  35   2.0000      -0.702245       -19.1091
  36   2.0000      -0.692013       -18.8306
  37   2.0000      -0.655725       -17.8432
  38   2.0000      -0.640645       -17.4328
  39   2.0000      -0.619790       -16.8653
  40   2.0000      -0.598068       -16.2743
  41   2.0000      -0.567933       -15.4542
  42   2.0000      -0.559082       -15.2134
  43   2.0000      -0.552721       -15.0403
  44   2.0000      -0.541701       -14.7404
  45   2.0000      -0.528674       -14.3860
  46   2.0000      -0.519699       -14.1417
  47   2.0000      -0.510468       -13.8905
  48   2.0000      -0.495852       -13.4928
  49   2.0000      -0.495009       -13.4699
  50   2.0000      -0.485443       -13.2096
  51   2.0000      -0.474112       -12.9012
  52   2.0000      -0.472382       -12.8542
  53   2.0000      -0.461385       -12.5549
  54   2.0000      -0.458914       -12.4877
  55   2.0000      -0.455566       -12.3966
  56   2.0000      -0.443157       -12.0589
  57   2.0000      -0.437429       -11.9030
  58   2.0000      -0.434025       -11.8104
  59   2.0000      -0.427943       -11.6449
  60   2.0000      -0.423585       -11.5263
  61   2.0000      -0.416848       -11.3430
  62   2.0000      -0.413417       -11.2496
  63   2.0000      -0.346555        -9.4302
  64   2.0000      -0.332858        -9.0575
  65   2.0000      -0.330187        -8.9849
  66   2.0000      -0.284466        -7.7407
  67   0.0000       0.022113         0.6017
  68   0.0000       0.064071         1.7435
  69   0.0000       0.100617         2.7379
  70   0.0000       0.113965         3.1011
  71   0.0000       0.133718         3.6386

MULLIKEN ATOMIC CHARGES
-----------------------
   0 S :    0.102088
   1 C :   -0.098798
   2 C :   -0.108501
   3 C :    0.022524
   4 C :   -0.158561
   5 H :    0.015812
   6 C :    0.098192
   7 H :   -0.011757
   8 H :    0.050714
   9 C :   -0.077681
  10 H :    0.030348
  11 H :    0.019867
  12 C :   -0.052388
  13 H :    0.037683
  14 H :    0.037098
  15 H :    0.033764
  16 S :    0.117610
  17 C :   -0.081055
  18 C :   -0.047629
  19 C :   -0.000649
  20 C :   -0.164800
  21 H :    0.035023
  22 C :    0.040479
  23 H :    0.036558
  24 H :    0.038897
  25 C :   -0.103895
  26 H :    0.029932
  27 H :    0.021845
  28 C :   -0.056845
  29 H :    0.041036
  30 H :    0.036724
  31 H :    0.039067
  32 H :    0.027356
  33 H :    0.049943
Sum of atomic charges:    0.0000000

LOEWDIN ATOMIC CHARGES
----------------------
   0 S :    0.378804
   1 C :   -0.186198
   2 C :   -0.062749
   3 C :   -0.064723
   4 C :   -0.179996
   5 H :    0.033435
   6 C :   -0.027522
   7 H :    0.017808
   8 H :    0.043133
   9 C :   -0.043559
  10 H :    0.021201
  11 H :    0.021560
  12 C :   -0.058777
  13 H :    0.017162
  14 H :    0.028699
  15 H :    0.030164
  16 S :    0.398761
  17 C :   -0.168146
  18 C :   -0.070318
  19 C :   -0.052614
  20 C :   -0.205247
  21 H :    0.039266
  22 C :   -0.037514
  23 H :    0.028341
  24 H :    0.039152
  25 C :   -0.042469
  26 H :    0.024476
  27 H :    0.017926
  28 C :   -0.064916
  29 H :    0.023585
  30 H :    0.029860
  31 H :    0.030122
  32 H :    0.017304
  33 H :    0.023989

  Mayer bond orders larger than 0.100000
B(  0-S ,  1-C ) :   1.1284 B(  0-S ,  4-C ) :   1.1419 B(  1-C ,  2-C ) :   1.6008
B(  1-C ,  4-C ) :   0.1024 B(  1-C , 32-H ) :   0.9688 B(  2-C ,  3-C ) :   1.2425
B(  2-C ,  6-C ) :   1.0331 B(  3-C ,  4-C ) :   1.5707 B(  3-C ,  5-H ) :   0.9904
B(  4-C , 20-C ) :   1.0656 B(  6-C ,  7-H ) :   0.9291 B(  6-C ,  8-H ) :   0.9392
B(  6-C ,  9-C ) :   1.0735 B(  9-C , 10-H ) :   0.9570 B(  9-C , 11-H ) :   0.9536
B(  9-C , 12-C ) :   1.0713 B( 12-C , 13-H ) :   0.9797 B( 12-C , 14-H ) :   0.9721
B( 12-C , 15-H ) :   0.9730 B( 16-S , 17-C ) :   1.1523 B( 16-S , 20-C ) :   1.1409
B( 17-C , 18-C ) :   1.5938 B( 17-C , 20-C ) :   0.1082 B( 17-C , 33-H ) :   0.9660
B( 18-C , 19-C ) :   1.2693 B( 18-C , 21-H ) :   0.9799 B( 19-C , 20-C ) :   1.5544
B( 19-C , 22-C ) :   1.0442 B( 22-C , 23-H ) :   0.9388 B( 22-C , 24-H ) :   0.9292
B( 22-C , 25-C ) :   1.0573 B( 25-C , 26-H ) :   0.9602 B( 25-C , 27-H ) :   0.9480
B( 25-C , 28-C ) :   1.0806 B( 28-C , 29-H ) :   0.9767 B( 28-C , 30-H ) :   0.9760
B( 28-C , 31-H ) :   0.9737

Dispersion correction           -0.013747960
FINAL SINGLE POINT ENERGY     -1339.875967857699

DIPOLE MOMENT
-------------
                                X             Y             Z
Electronic contribution:     19.14002     -15.17102       6.32536
Nuclear contribution   :    -19.84099      15.36664      -6.48722
                        -----------------------------------------
Total Dipole Moment    :     -0.70097       0.19561      -0.16186
                        -----------------------------------------
Magnitude (a.u.)       :      0.74553
Magnitude (Debye)      :      1.89500

Rotational constants in cm-1:     0.017911     0.008080     0.006387
Rotational constants in MHz :   536.950984   242.229557   191.483459

                             ****ORCA TERMINATED NORMALLY****
TOTAL RUN TIME: 0 days 0 hours 0 minutes 34 seconds 352 msec
