                         Program Version 4.2.1 -  RELEASE  -
|  1> ! wB97X-D3 SP def2-SVP
|  2> %pal
|  3> nprocs 16
|  4> end
|  5>
|  6> * xyz 0 1
|  7> S 	 -33.0763 	 61.0186 	 110.882
|  8> C 	 -32.616 	 59.4739 	 110.406
|  9> C 	 -31.3789 	 59.1475 	 110.895
| 10> C 	 -30.7219 	 60.1819 	 111.566
| 11> C 	 -31.4895 	 61.3717 	 111.501
| 12> H 	 -29.7379 	 60.2268 	 112.109
| 13> C 	 -30.6512 	 57.7739 	 110.802
| 14> H 	 -31.3247 	 57.0129 	 110.772
| 15> H 	 -30.0891 	 57.6749 	 111.738
| 16> C 	 -29.8725 	 57.4485 	 109.553
| 17> H 	 -30.4619 	 57.0362 	 108.787
| 18> H 	 -29.4839 	 58.4464 	 109.272
| 19> C 	 -28.7379 	 56.3715 	 109.829
| 20> H 	 -28.1638 	 56.5378 	 110.76
| 21> H 	 -29.1789 	 55.4514 	 110.142
| 22> H 	 -28.069 	 56.1518 	 108.944
| 23> S 	 -32.2124 	 63.9943 	 112.374
| 24> C 	 -30.9273 	 65.1508 	 112.659
| 25> C 	 -29.6755 	 64.5051 	 112.48
| 26> C 	 -29.7717 	 63.164 	 112.158
| 27> C 	 -31.0203 	 62.7116 	 111.882
| 28> H 	 -28.7659 	 65.0191 	 112.656
| 29> C 	 -28.39 	 62.5122 	 111.761
| 30> H 	 -28.1772 	 61.6773 	 112.427
| 31> H 	 -27.5452 	 63.1887 	 112.082
| 32> C 	 -28.246 	 62.0604 	 110.305
| 33> H 	 -28.5208 	 62.9698 	 109.824
| 34> H 	 -28.9586 	 61.283 	 109.959
| 35> C 	 -26.8309 	 61.5584 	 109.964
| 36> H 	 -26.4864 	 61.579 	 108.941
| 37> H 	 -26.5422 	 60.616 	 110.476
| 38> H 	 -25.9867 	 62.1799 	 110.388
| 39> H 	 -33.361 	 58.8003 	 109.97
| 40> H 	 -31.0506 	 66.1402 	 112.99
| 41> *
| 42>
| 43>                          ****END OF INPUT****

CARTESIAN COORDINATES (ANGSTROEM)
---------------------------------
  S    -33.076300   61.018600  110.882000
  C    -32.616000   59.473900  110.406000
  C    -31.378900   59.147500  110.895000
  C    -30.721900   60.181900  111.566000
  C    -31.489500   61.371700  111.501000
  H    -29.737900   60.226800  112.109000
  C    -30.651200   57.773900  110.802000
  H    -31.324700   57.012900  110.772000
  H    -30.089100   57.674900  111.738000
  C    -29.872500   57.448500  109.553000
  H    -30.461900   57.036200  108.787000
  H    -29.483900   58.446400  109.272000
  C    -28.737900   56.371500  109.829000
  H    -28.163800   56.537800  110.760000
  H    -29.178900   55.451400  110.142000
  H    -28.069000   56.151800  108.944000
  S    -32.212400   63.994300  112.374000
  C    -30.927300   65.150800  112.659000
  C    -29.675500   64.505100  112.480000
  C    -29.771700   63.164000  112.158000
  C    -31.020300   62.711600  111.882000
  H    -28.765900   65.019100  112.656000
  C    -28.390000   62.512200  111.761000
  H    -28.177200   61.677300  112.427000
  H    -27.545200   63.188700  112.082000
  C    -28.246000   62.060400  110.305000
  H    -28.520800   62.969800  109.824000
  H    -28.958600   61.283000  109.959000
  C    -26.830900   61.558400  109.964000
  H    -26.486400   61.579000  108.941000
  H    -26.542200   60.616000  110.476000
  H    -25.986700   62.179900  110.388000
  H    -33.361000   58.800300  109.970000
  H    -31.050600   66.140200  112.990000

 Total Charge           Charge          ....    0
 Multiplicity           Mult            ....    1
 Number of Electrons    NEL             ....  134
 Basis Dimension        Dim             ....  322

ORBITAL ENERGIES
----------------

  NO   OCC          E(Eh)            E(eV)
   0   2.0000     -88.969042     -2420.9707
   1   2.0000     -88.968423     -2420.9539
   2   2.0000     -10.334062      -281.2041
   3   2.0000     -10.332943      -281.1737
   4   2.0000     -10.321034      -280.8496
   5   2.0000     -10.311128      -280.5801
   6   2.0000     -10.300924      -280.3024
   7   2.0000     -10.300790      -280.2987
   8   2.0000     -10.300598      -280.2935
   9   2.0000     -10.298157      -280.2271
  10   2.0000     -10.291640      -280.0498
  11   2.0000     -10.286642      -279.9138
  12   2.0000     -10.285876      -279.8929
  13   2.0000     -10.284703      -279.8610
  14   2.0000     -10.282912      -279.8123
  15   2.0000     -10.281835      -279.7830
  16   2.0000      -8.085155      -220.0083
  17   2.0000      -8.082056      -219.9239
  18   2.0000      -6.043400      -164.4493
  19   2.0000      -6.040667      -164.3749
  20   2.0000      -6.039444      -164.3416
  21   2.0000      -6.036702      -164.2670
  22   2.0000      -6.036155      -164.2521
  23   2.0000      -6.032799      -164.1608
  24   2.0000      -1.012781       -27.5592
  25   2.0000      -0.989151       -26.9162
  26   2.0000      -0.911834       -24.8123
  27   2.0000      -0.904897       -24.6235
  28   2.0000      -0.868615       -23.6362
  29   2.0000      -0.854497       -23.2520
  30   2.0000      -0.848288       -23.0831
  31   2.0000      -0.807721       -21.9792
  32   2.0000      -0.781905       -21.2767
  33   2.0000      -0.775428       -21.1005
  34   2.0000      -0.710713       -19.3395
  35   2.0000      -0.703468       -19.1423
  36   2.0000      -0.695238       -18.9184
  37   2.0000      -0.671575       -18.2745
  38   2.0000      -0.644397       -17.5349
  39   2.0000      -0.621301       -16.9065
  40   2.0000      -0.596848       -16.2411
  41   2.0000      -0.565696       -15.3934
  42   2.0000      -0.565468       -15.3872
  43   2.0000      -0.559436       -15.2230
  44   2.0000      -0.526520       -14.3273
  45   2.0000      -0.518113       -14.0986
  46   2.0000      -0.517298       -14.0764
  47   2.0000      -0.516997       -14.0682
  48   2.0000      -0.507289       -13.8040
  49   2.0000      -0.501171       -13.6376
  50   2.0000      -0.494625       -13.4594
  51   2.0000      -0.483400       -13.1540
  52   2.0000      -0.472402       -12.8547
  53   2.0000      -0.461837       -12.5672
  54   2.0000      -0.457175       -12.4404
  55   2.0000      -0.449855       -12.2412
  56   2.0000      -0.445958       -12.1351
  57   2.0000      -0.440021       -11.9736
  58   2.0000      -0.429152       -11.6778
  59   2.0000      -0.418113       -11.3774
  60   2.0000      -0.415537       -11.3073
  61   2.0000      -0.412608       -11.2276
  62   2.0000      -0.409745       -11.1497
  63   2.0000      -0.360641        -9.8136
  64   2.0000      -0.338010        -9.1977
  65   2.0000      -0.334674        -9.1069
  66   2.0000      -0.279911        -7.6168
  67   0.0000       0.013146         0.3577
  68   0.0000       0.081552         2.2191
  69   0.0000       0.097181         2.6444
  70   0.0000       0.123822         3.3694
  71   0.0000       0.133658         3.6370

MULLIKEN ATOMIC CHARGES
-----------------------
   0 S :    0.127465
   1 C :   -0.125823
   2 C :   -0.084538
   3 C :   -0.024772
   4 C :   -0.151031
   5 H :    0.037127
   6 C :    0.102121
   7 H :   -0.014882
   8 H :    0.025470
   9 C :   -0.042446
  10 H :    0.026747
  11 H :    0.035940
  12 C :   -0.078215
  13 H :    0.024987
  14 H :    0.013998
  15 H :    0.055383
  16 S :    0.089814
  17 C :   -0.071873
  18 C :   -0.025835
  19 C :   -0.033299
  20 C :   -0.105433
  21 H :    0.005821
  22 C :   -0.004993
  23 H :    0.017465
  24 H :    0.025598
  25 C :   -0.027613
  26 H :    0.027091
  27 H :    0.063815
  28 C :   -0.071552
  29 H :    0.039364
  30 H :    0.031013
  31 H :    0.011067
  32 H :    0.056367
  33 H :    0.045653
Sum of atomic charges:    0.0000000

LOEWDIN ATOMIC CHARGES
----------------------
   0 S :    0.445266
   1 C :   -0.221936
   2 C :   -0.067714
   3 C :   -0.069136
   4 C :   -0.194151
   5 H :    0.045364
   6 C :   -0.025249
   7 H :    0.013646
   8 H :    0.032208
   9 C :   -0.030680
  10 H :    0.018697
  11 H :    0.024094
  12 C :   -0.074377
  13 H :    0.025802
  14 H :    0.019053
  15 H :    0.034960
  16 S :    0.378133
  17 C :   -0.171901
  18 C :   -0.066196
  19 C :   -0.067223
  20 C :   -0.170697
  21 H :    0.025407
  22 C :   -0.028662
  23 H :    0.017965
  24 H :    0.035443
  25 C :   -0.043443
  26 H :    0.024926
  27 H :    0.033886
  28 C :   -0.081341
  29 H :    0.027594
  30 H :    0.028676
  31 H :    0.027116
  32 H :    0.033116
  33 H :    0.021357

  Mayer bond orders larger than 0.100000
B(  0-S ,  1-C ) :   1.1642 B(  0-S ,  4-C ) :   1.1821 B(  1-C ,  2-C ) :   1.5702
B(  1-C ,  4-C ) :   0.1024 B(  1-C , 32-H ) :   0.9694 B(  2-C ,  3-C ) :   1.2803
B(  2-C ,  6-C ) :   1.0238 B(  3-C ,  4-C ) :   1.5077 B(  3-C ,  5-H ) :   0.9843
B(  4-C , 20-C ) :   1.0820 B(  6-C ,  7-H ) :   0.9288 B(  6-C ,  8-H ) :   0.9493
B(  6-C ,  9-C ) :   1.0487 B(  9-C , 10-H ) :   0.9591 B(  9-C , 11-H ) :   0.9630
B(  9-C , 12-C ) :   1.0659 B( 12-C , 13-H ) :   0.9768 B( 12-C , 14-H ) :   0.9728
B( 12-C , 15-H ) :   0.9763 B( 16-S , 17-C ) :   1.1640 B( 16-S , 20-C ) :   1.1139
B( 17-C , 18-C ) :   1.5645 B( 17-C , 20-C ) :   0.1109 B( 17-C , 33-H ) :   0.9760
B( 18-C , 19-C ) :   1.2791 B( 18-C , 21-H ) :   0.9940 B( 19-C , 20-C ) :   1.5992
B( 19-C , 22-C ) :   1.0234 B( 22-C , 23-H ) :   0.9304 B( 22-C , 24-H ) :   0.9427
B( 22-C , 25-C ) :   1.0468 B( 25-C , 26-H ) :   0.9532 B( 25-C , 27-H ) :   0.9463
B( 25-C , 28-C ) :   1.0729 B( 28-C , 29-H ) :   0.9761 B( 28-C , 30-H ) :   0.9732
B( 28-C , 31-H ) :   0.9703

Dispersion correction           -0.014662911
FINAL SINGLE POINT ENERGY     -1339.846374216907

DIPOLE MOMENT
-------------
                                X             Y             Z
Electronic contribution:    -27.02247      19.75686       9.17490
Nuclear contribution   :     27.56565     -20.05414      -9.18030
                        -----------------------------------------
Total Dipole Moment    :      0.54319      -0.29728      -0.00540
                        -----------------------------------------
Magnitude (a.u.)       :      0.61924
Magnitude (Debye)      :      1.57398

Rotational constants in cm-1:     0.019304     0.009311     0.006613
Rotational constants in MHz :   578.734203   279.146631   198.265862

                             ****ORCA TERMINATED NORMALLY****
TOTAL RUN TIME: 0 days 0 hours 0 minutes 29 seconds 657 msec
