                         Program Version 4.2.1 -  RELEASE  -
|  1> ! wB97X-D3 SP def2-SVP
|  2> %pal
|  3> nprocs 16
|  4> end
|  5>
|  6> * xyz 0 1
|  7> S 	 -33.2212 	 41.4101 	 99.5459
|  8> C 	 -32.8595 	 39.8854 	 98.6912
|  9> C 	 -33.5989 	 38.8465 	 99.3038
| 10> C 	 -34.5849 	 39.355 	 100.233
| 11> C 	 -34.4625 	 40.6619 	 100.609
| 12> H 	 -35.3499 	 38.6855 	 100.604
| 13> C 	 -33.7054 	 37.3781 	 98.9405
| 14> H 	 -33.5076 	 37.2624 	 97.8802
| 15> H 	 -34.7317 	 37.0099 	 99.1082
| 16> C 	 -32.726 	 36.4712 	 99.6843
| 17> H 	 -31.7427 	 36.9437 	 99.765
| 18> H 	 -33.1222 	 36.455 	 100.686
| 19> C 	 -32.6557 	 35.0544 	 99.1882
| 20> H 	 -33.6109 	 34.573 	 99.0622
| 21> H 	 -32.1054 	 35.0889 	 98.2769
| 22> H 	 -31.9745 	 34.3975 	 99.6589
| 23> S 	 -35.8341 	 42.9606 	 101.022
| 24> C 	 -36.6186 	 43.2993 	 102.537
| 25> C 	 -36.4244 	 42.2767 	 103.43
| 26> C 	 -35.5786 	 41.245 	 102.924
| 27> C 	 -35.2355 	 41.468 	 101.573
| 28> H 	 -36.839 	 42.3569 	 104.409
| 29> C 	 -35.1563 	 40.032 	 103.753
| 30> H 	 -34.2683 	 39.5532 	 103.287
| 31> H 	 -35.9243 	 39.2772 	 103.538
| 32> C 	 -34.9872 	 40.3039 	 105.261
| 33> H 	 -35.9903 	 40.6662 	 105.504
| 34> H 	 -34.2809 	 41.0948 	 105.167
| 35> C 	 -34.5508 	 39.1008 	 106.075
| 36> H 	 -34.2059 	 39.4974 	 106.992
| 37> H 	 -33.7047 	 38.6246 	 105.568
| 38> H 	 -35.3614 	 38.3572 	 106.282
| 39> H 	 -32.1573 	 39.76 	 97.8731
| 40> H 	 -37.1438 	 44.2419 	 102.753
| 41> *
| 42>
| 43>                          ****END OF INPUT****

CARTESIAN COORDINATES (ANGSTROEM)
---------------------------------
  S    -33.221200   41.410100   99.545900
  C    -32.859500   39.885400   98.691200
  C    -33.598900   38.846500   99.303800
  C    -34.584900   39.355000  100.233000
  C    -34.462500   40.661900  100.609000
  H    -35.349900   38.685500  100.604000
  C    -33.705400   37.378100   98.940500
  H    -33.507600   37.262400   97.880200
  H    -34.731700   37.009900   99.108200
  C    -32.726000   36.471200   99.684300
  H    -31.742700   36.943700   99.765000
  H    -33.122200   36.455000  100.686000
  C    -32.655700   35.054400   99.188200
  H    -33.610900   34.573000   99.062200
  H    -32.105400   35.088900   98.276900
  H    -31.974500   34.397500   99.658900
  S    -35.834100   42.960600  101.022000
  C    -36.618600   43.299300  102.537000
  C    -36.424400   42.276700  103.430000
  C    -35.578600   41.245000  102.924000
  C    -35.235500   41.468000  101.573000
  H    -36.839000   42.356900  104.409000
  C    -35.156300   40.032000  103.753000
  H    -34.268300   39.553200  103.287000
  H    -35.924300   39.277200  103.538000
  C    -34.987200   40.303900  105.261000
  H    -35.990300   40.666200  105.504000
  H    -34.280900   41.094800  105.167000
  C    -34.550800   39.100800  106.075000
  H    -34.205900   39.497400  106.992000
  H    -33.704700   38.624600  105.568000
  H    -35.361400   38.357200  106.282000
  H    -32.157300   39.760000   97.873100
  H    -37.143800   44.241900  102.753000

 Total Charge           Charge          ....    0
 Multiplicity           Mult            ....    1
 Number of Electrons    NEL             ....  134
 Basis Dimension        Dim             ....  322

ORBITAL ENERGIES
----------------

  NO   OCC          E(Eh)            E(eV)
   0   2.0000     -88.965150     -2420.8648
   1   2.0000     -88.964512     -2420.8475
   2   2.0000     -10.334501      -281.2161
   3   2.0000     -10.326554      -280.9998
   4   2.0000     -10.324446      -280.9424
   5   2.0000     -10.317491      -280.7532
   6   2.0000     -10.306920      -280.4656
   7   2.0000     -10.306136      -280.4442
   8   2.0000     -10.293619      -280.1036
   9   2.0000     -10.292528      -280.0739
  10   2.0000     -10.291923      -280.0575
  11   2.0000     -10.289505      -279.9917
  12   2.0000     -10.284727      -279.8616
  13   2.0000     -10.281606      -279.7767
  14   2.0000     -10.280876      -279.7569
  15   2.0000     -10.270019      -279.4614
  16   2.0000      -8.080979      -219.8946
  17   2.0000      -8.077965      -219.8126
  18   2.0000      -6.039306      -164.3379
  19   2.0000      -6.036737      -164.2680
  20   2.0000      -6.035166      -164.2252
  21   2.0000      -6.032554      -164.1541
  22   2.0000      -6.032022      -164.1397
  23   2.0000      -6.028606      -164.0467
  24   2.0000      -1.007364       -27.4118
  25   2.0000      -0.979577       -26.6556
  26   2.0000      -0.914338       -24.8804
  27   2.0000      -0.911638       -24.8069
  28   2.0000      -0.870058       -23.6755
  29   2.0000      -0.852266       -23.1913
  30   2.0000      -0.845505       -23.0074
  31   2.0000      -0.817386       -22.2422
  32   2.0000      -0.782563       -21.2946
  33   2.0000      -0.772383       -21.0176
  34   2.0000      -0.706290       -19.2191
  35   2.0000      -0.700950       -19.0738
  36   2.0000      -0.697619       -18.9832
  37   2.0000      -0.653654       -17.7868
  38   2.0000      -0.640036       -17.4163
  39   2.0000      -0.623684       -16.9713
  40   2.0000      -0.597309       -16.2536
  41   2.0000      -0.576711       -15.6931
  42   2.0000      -0.573168       -15.5967
  43   2.0000      -0.559840       -15.2340
  44   2.0000      -0.527263       -14.3475
  45   2.0000      -0.522242       -14.2109
  46   2.0000      -0.518740       -14.1156
  47   2.0000      -0.513644       -13.9770
  48   2.0000      -0.505163       -13.7462
  49   2.0000      -0.502447       -13.6723
  50   2.0000      -0.498743       -13.5715
  51   2.0000      -0.481637       -13.1060
  52   2.0000      -0.472508       -12.8576
  53   2.0000      -0.465443       -12.6653
  54   2.0000      -0.458118       -12.4660
  55   2.0000      -0.453986       -12.3536
  56   2.0000      -0.449459       -12.2304
  57   2.0000      -0.433912       -11.8073
  58   2.0000      -0.427250       -11.6261
  59   2.0000      -0.424839       -11.5605
  60   2.0000      -0.418948       -11.4001
  61   2.0000      -0.414045       -11.2667
  62   2.0000      -0.409371       -11.1396
  63   2.0000      -0.349319        -9.5054
  64   2.0000      -0.329604        -8.9690
  65   2.0000      -0.325572        -8.8593
  66   2.0000      -0.292576        -7.9614
  67   0.0000       0.027111         0.7377
  68   0.0000       0.072221         1.9652
  69   0.0000       0.110003         2.9933
  70   0.0000       0.124420         3.3857
  71   0.0000       0.133998         3.6463

MULLIKEN ATOMIC CHARGES
-----------------------
   0 S :    0.087405
   1 C :   -0.115906
   2 C :   -0.088658
   3 C :    0.019574
   4 C :   -0.121812
   5 H :    0.013449
   6 C :    0.037252
   7 H :    0.016006
   8 H :    0.028266
   9 C :   -0.064794
  10 H :    0.030231
  11 H :    0.012621
  12 C :    0.001187
  13 H :    0.033172
  14 H :    0.008962
  15 H :    0.017315
  16 S :    0.118476
  17 C :   -0.104560
  18 C :   -0.041428
  19 C :   -0.032711
  20 C :   -0.160003
  21 H :    0.014844
  22 C :    0.037802
  23 H :    0.026042
  24 H :    0.029461
  25 C :   -0.097499
  26 H :    0.034613
  27 H :    0.034424
  28 C :    0.000977
  29 H :    0.027137
  30 H :    0.031007
  31 H :    0.044598
  32 H :    0.056065
  33 H :    0.066486
Sum of atomic charges:   -0.0000000

LOEWDIN ATOMIC CHARGES
----------------------
   0 S :    0.368700
   1 C :   -0.184919
   2 C :   -0.059314
   3 C :   -0.063574
   4 C :   -0.178529
   5 H :    0.030042
   6 C :   -0.031854
   7 H :    0.024934
   8 H :    0.031467
   9 C :   -0.041009
  10 H :    0.026317
  11 H :    0.018626
  12 C :   -0.066157
  13 H :    0.025914
  14 H :    0.024666
  15 H :    0.025370
  16 S :    0.438020
  17 C :   -0.190457
  18 C :   -0.075479
  19 C :   -0.051337
  20 C :   -0.221740
  21 H :    0.028571
  22 C :   -0.039608
  23 H :    0.028595
  24 H :    0.028085
  25 C :   -0.040040
  26 H :    0.024286
  27 H :    0.025796
  28 C :   -0.059442
  29 H :    0.023615
  30 H :    0.029084
  31 H :    0.034374
  32 H :    0.031701
  33 H :    0.035296

  Mayer bond orders larger than 0.100000
B(  0-S ,  1-C ) :   1.1301 B(  0-S ,  4-C ) :   1.1245 B(  1-C ,  2-C ) :   1.6011
B(  1-C ,  4-C ) :   0.1001 B(  1-C , 32-H ) :   0.9719 B(  2-C ,  3-C ) :   1.2370
B(  2-C ,  6-C ) :   1.0291 B(  3-C ,  4-C ) :   1.5942 B(  3-C ,  5-H ) :   0.9910
B(  4-C , 20-C ) :   1.0319 B(  6-C ,  7-H ) :   0.9455 B(  6-C ,  8-H ) :   0.9456
B(  6-C ,  9-C ) :   1.0527 B(  9-C , 10-H ) :   0.9582 B(  9-C , 11-H ) :   0.9507
B(  9-C , 12-C ) :   1.0913 B( 12-C , 13-H ) :   0.9724 B( 12-C , 14-H ) :   0.9656
B( 12-C , 15-H ) :   0.9669 B( 16-S , 17-C ) :   1.1717 B( 16-S , 20-C ) :   1.1700
B( 17-C , 18-C ) :   1.5860 B( 17-C , 33-H ) :   0.9649 B( 18-C , 19-C ) :   1.2579
B( 18-C , 21-H ) :   0.9927 B( 19-C , 20-C ) :   1.5550 B( 19-C , 22-C ) :   1.0368
B( 22-C , 23-H ) :   0.9316 B( 22-C , 24-H ) :   0.9307 B( 22-C , 25-C ) :   1.0447
B( 25-C , 26-H ) :   0.9467 B( 25-C , 27-H ) :   0.9662 B( 25-C , 28-C ) :   1.0868
B( 28-C , 29-H ) :   0.9713 B( 28-C , 30-H ) :   0.9716 B( 28-C , 31-H ) :   0.9720

Dispersion correction           -0.013226569
FINAL SINGLE POINT ENERGY     -1339.876557355492

DIPOLE MOMENT
-------------
                                X             Y             Z
Electronic contribution:     -4.65385      27.98059     -12.18373
Nuclear contribution   :      4.57129     -28.57881      12.53422
                        -----------------------------------------
Total Dipole Moment    :     -0.08255      -0.59822       0.35049
                        -----------------------------------------
Magnitude (a.u.)       :      0.69823
Magnitude (Debye)      :      1.77475

Rotational constants in cm-1:     0.016835     0.008310     0.005988
Rotational constants in MHz :   504.712120   249.132764   179.526769

                             ****ORCA TERMINATED NORMALLY****
TOTAL RUN TIME: 0 days 0 hours 0 minutes 28 seconds 510 msec
