                         Program Version 4.2.1 -  RELEASE  -
|  1> ! wB97X-D3 SP def2-SVP
|  2> %pal
|  3> nprocs 16
|  4> end
|  5>
|  6> * xyz 0 1
|  7> S 	 48.0238 	 3.57154 	 89.6726
|  8> C 	 48.4597 	 4.46832 	 88.264
|  9> C 	 49.6398 	 5.18947 	 88.4754
| 10> C 	 50.1388 	 5.01741 	 89.7757
| 11> C 	 49.2684 	 4.35823 	 90.627
| 12> H 	 51.0295 	 5.46594 	 90.2672
| 13> C 	 50.4505 	 5.92525 	 87.3521
| 14> H 	 49.7255 	 6.2311 	 86.6114
| 15> H 	 51.1197 	 5.19905 	 86.7966
| 16> C 	 51.1964 	 7.1712 	 87.9528
| 17> H 	 50.5459 	 7.98949 	 88.35
| 18> H 	 51.6714 	 6.79391 	 88.9016
| 19> C 	 52.1746 	 7.71019 	 86.8015
| 20> H 	 53.1728 	 7.77027 	 87.1551
| 21> H 	 52.0999 	 7.19203 	 85.8518
| 22> H 	 51.8041 	 8.68435 	 86.3668
| 23> S 	 47.8354 	 4.59508 	 92.8836
| 24> C 	 48.4417 	 4.24492 	 94.5242
| 25> C 	 49.7873 	 3.97256 	 94.414
| 26> C 	 50.2882 	 3.97737 	 93.0408
| 27> C 	 49.3011 	 4.19038 	 92.0752
| 28> H 	 50.3984 	 3.86407 	 95.289
| 29> C 	 51.7618 	 3.66362 	 92.741
| 30> H 	 52.3549 	 4.15753 	 93.5194
| 31> H 	 51.9827 	 4.21189 	 91.8853
| 32> C 	 52.1159 	 2.2346 	 92.7435
| 33> H 	 51.6398 	 1.87702 	 93.5815
| 34> H 	 53.1794 	 2.151 	 92.9224
| 35> C 	 51.9089 	 1.44577 	 91.3961
| 36> H 	 52.6049 	 1.77785 	 90.6728
| 37> H 	 50.843 	 1.64472 	 91.1302
| 38> H 	 52.0382 	 0.386146 	 91.4188
| 39> H 	 48.0334 	 4.2113 	 87.2725
| 40> H 	 47.8408 	 4.47904 	 95.3925
| 41> *
| 42>
| 43>                          ****END OF INPUT****

CARTESIAN COORDINATES (ANGSTROEM)
---------------------------------
  S     48.023800    3.571540   89.672600
  C     48.459700    4.468320   88.264000
  C     49.639800    5.189470   88.475400
  C     50.138800    5.017410   89.775700
  C     49.268400    4.358230   90.627000
  H     51.029500    5.465940   90.267200
  C     50.450500    5.925250   87.352100
  H     49.725500    6.231100   86.611400
  H     51.119700    5.199050   86.796600
  C     51.196400    7.171200   87.952800
  H     50.545900    7.989490   88.350000
  H     51.671400    6.793910   88.901600
  C     52.174600    7.710190   86.801500
  H     53.172800    7.770270   87.155100
  H     52.099900    7.192030   85.851800
  H     51.804100    8.684350   86.366800
  S     47.835400    4.595080   92.883600
  C     48.441700    4.244920   94.524200
  C     49.787300    3.972560   94.414000
  C     50.288200    3.977370   93.040800
  C     49.301100    4.190380   92.075200
  H     50.398400    3.864070   95.289000
  C     51.761800    3.663620   92.741000
  H     52.354900    4.157530   93.519400
  H     51.982700    4.211890   91.885300
  C     52.115900    2.234600   92.743500
  H     51.639800    1.877020   93.581500
  H     53.179400    2.151000   92.922400
  C     51.908900    1.445770   91.396100
  H     52.604900    1.777850   90.672800
  H     50.843000    1.644720   91.130200
  H     52.038200    0.386146   91.418800
  H     48.033400    4.211300   87.272500
  H     47.840800    4.479040   95.392500

 Total Charge           Charge          ....    0
 Multiplicity           Mult            ....    1
 Number of Electrons    NEL             ....  134
 Basis Dimension        Dim             ....  322

ORBITAL ENERGIES
----------------

  NO   OCC          E(Eh)            E(eV)
   0   2.0000     -88.967626     -2420.9322
   1   2.0000     -88.959636     -2420.7148
   2   2.0000     -10.332117      -281.1512
   3   2.0000     -10.329016      -281.0668
   4   2.0000     -10.321597      -280.8649
   5   2.0000     -10.316391      -280.7233
   6   2.0000     -10.306290      -280.4484
   7   2.0000     -10.304612      -280.4027
   8   2.0000     -10.301977      -280.3311
   9   2.0000     -10.301092      -280.3070
  10   2.0000     -10.298951      -280.2487
  11   2.0000     -10.297337      -280.2048
  12   2.0000     -10.283650      -279.8323
  13   2.0000     -10.282510      -279.8013
  14   2.0000     -10.274029      -279.5706
  15   2.0000     -10.271403      -279.4991
  16   2.0000      -8.082530      -219.9368
  17   2.0000      -8.074739      -219.7248
  18   2.0000      -6.040880      -164.3807
  19   2.0000      -6.036950      -164.2738
  20   2.0000      -6.033490      -164.1796
  21   2.0000      -6.033354      -164.1759
  22   2.0000      -6.028980      -164.0569
  23   2.0000      -6.025542      -163.9633
  24   2.0000      -1.009341       -27.4656
  25   2.0000      -0.984675       -26.7944
  26   2.0000      -0.913744       -24.8642
  27   2.0000      -0.900088       -24.4926
  28   2.0000      -0.870182       -23.6788
  29   2.0000      -0.845856       -23.0169
  30   2.0000      -0.836958       -22.7748
  31   2.0000      -0.815522       -22.1915
  32   2.0000      -0.781229       -21.2583
  33   2.0000      -0.770721       -20.9724
  34   2.0000      -0.714301       -19.4371
  35   2.0000      -0.702812       -19.1245
  36   2.0000      -0.689792       -18.7702
  37   2.0000      -0.662494       -18.0274
  38   2.0000      -0.642995       -17.4968
  39   2.0000      -0.621340       -16.9075
  40   2.0000      -0.599781       -16.3209
  41   2.0000      -0.564474       -15.3601
  42   2.0000      -0.555612       -15.1190
  43   2.0000      -0.551436       -15.0053
  44   2.0000      -0.541010       -14.7216
  45   2.0000      -0.524516       -14.2728
  46   2.0000      -0.513879       -13.9834
  47   2.0000      -0.509964       -13.8768
  48   2.0000      -0.500324       -13.6145
  49   2.0000      -0.495694       -13.4885
  50   2.0000      -0.490606       -13.3501
  51   2.0000      -0.487947       -13.2777
  52   2.0000      -0.479713       -13.0537
  53   2.0000      -0.469194       -12.7674
  54   2.0000      -0.456081       -12.4106
  55   2.0000      -0.449253       -12.2248
  56   2.0000      -0.442142       -12.0313
  57   2.0000      -0.440863       -11.9965
  58   2.0000      -0.432633       -11.7726
  59   2.0000      -0.421422       -11.4675
  60   2.0000      -0.415673       -11.3110
  61   2.0000      -0.404339       -11.0026
  62   2.0000      -0.397625       -10.8199
  63   2.0000      -0.353909        -9.6304
  64   2.0000      -0.333099        -9.0641
  65   2.0000      -0.325625        -8.8607
  66   2.0000      -0.291575        -7.9342
  67   0.0000       0.025974         0.7068
  68   0.0000       0.068542         1.8651
  69   0.0000       0.109502         2.9797
  70   0.0000       0.114388         3.1127
  71   0.0000       0.140476         3.8226

MULLIKEN ATOMIC CHARGES
-----------------------
   0 S :    0.123636
   1 C :   -0.126199
   2 C :   -0.099093
   3 C :    0.012587
   4 C :   -0.177415
   5 H :    0.041863
   6 C :    0.051821
   7 H :    0.023122
   8 H :    0.061342
   9 C :   -0.124931
  10 H :    0.052050
  11 H :    0.038659
  12 C :   -0.046638
  13 H :    0.045079
  14 H :    0.028043
  15 H :    0.032458
  16 S :    0.083875
  17 C :   -0.093949
  18 C :   -0.021229
  19 C :   -0.100245
  20 C :   -0.127090
  21 H :    0.019043
  22 C :    0.110790
  23 H :    0.016154
  24 H :   -0.024399
  25 C :   -0.003022
  26 H :   -0.000192
  27 H :    0.015916
  28 C :   -0.037529
  29 H :    0.024430
  30 H :    0.039611
  31 H :    0.027971
  32 H :    0.064713
  33 H :    0.068767
Sum of atomic charges:    0.0000000

LOEWDIN ATOMIC CHARGES
----------------------
   0 S :    0.424219
   1 C :   -0.212588
   2 C :   -0.068397
   3 C :   -0.071838
   4 C :   -0.194303
   5 H :    0.036139
   6 C :   -0.031388
   7 H :    0.025550
   8 H :    0.040301
   9 C :   -0.046089
  10 H :    0.033417
  11 H :    0.025044
  12 C :   -0.071971
  13 H :    0.022887
  14 H :    0.025088
  15 H :    0.034821
  16 S :    0.404890
  17 C :   -0.174817
  18 C :   -0.069313
  19 C :   -0.059907
  20 C :   -0.209560
  21 H :    0.029056
  22 C :   -0.027343
  23 H :    0.036314
  24 H :    0.014162
  25 C :   -0.031691
  26 H :    0.013695
  27 H :    0.022456
  28 C :   -0.059100
  29 H :    0.020093
  30 H :    0.030832
  31 H :    0.022118
  32 H :    0.035256
  33 H :    0.031965

  Mayer bond orders larger than 0.100000
B(  0-S ,  1-C ) :   1.1555 B(  0-S ,  4-C ) :   1.1699 B(  1-C ,  2-C ) :   1.5853
B(  1-C ,  4-C ) :   0.1121 B(  1-C , 32-H ) :   0.9653 B(  2-C ,  3-C ) :   1.2756
B(  2-C ,  6-C ) :   1.0035 B(  3-C ,  4-C ) :   1.5697 B(  3-C ,  5-H ) :   0.9703
B(  4-C , 20-C ) :   1.0247 B(  6-C ,  7-H ) :   0.9432 B(  6-C ,  8-H ) :   0.9473
B(  6-C ,  9-C ) :   1.0454 B(  9-C , 10-H ) :   0.9640 B(  9-C , 11-H ) :   0.9652
B(  9-C , 12-C ) :   1.0424 B( 12-C , 13-H ) :   0.9806 B( 12-C , 14-H ) :   0.9780
B( 12-C , 15-H ) :   0.9756 B( 16-S , 17-C ) :   1.1482 B( 16-S , 20-C ) :   1.1570
B( 17-C , 18-C ) :   1.5883 B( 17-C , 33-H ) :   0.9728 B( 18-C , 19-C ) :   1.2427
B( 18-C , 21-H ) :   0.9916 B( 19-C , 20-C ) :   1.5808 B( 19-C , 22-C ) :   1.0441
B( 22-C , 23-H ) :   0.9225 B( 22-C , 24-H ) :   0.9276 B( 22-C , 25-C ) :   1.0798
B( 25-C , 26-H ) :   0.9489 B( 25-C , 27-H ) :   0.9515 B( 25-C , 28-C ) :   1.0716
B( 28-C , 29-H ) :   0.9756 B( 28-C , 30-H ) :   0.9781 B( 28-C , 31-H ) :   0.9762

Dispersion correction           -0.014372013
FINAL SINGLE POINT ENERGY     -1339.853258520520

DIPOLE MOMENT
-------------
                                X             Y             Z
Electronic contribution:    -23.63198      -3.86603      10.73964
Nuclear contribution   :     24.28252       4.04696     -10.85514
                        -----------------------------------------
Total Dipole Moment    :      0.65054       0.18093      -0.11550
                        -----------------------------------------
Magnitude (a.u.)       :      0.68504
Magnitude (Debye)      :      1.74123

Rotational constants in cm-1:     0.018554     0.008305     0.007308
Rotational constants in MHz :   556.242166   248.987006   219.084162

                             ****ORCA TERMINATED NORMALLY****
TOTAL RUN TIME: 0 days 0 hours 0 minutes 30 seconds 626 msec
