                         Program Version 4.2.1 -  RELEASE  -
|  1> ! wB97X-D3 SP def2-SVP
|  2> %pal
|  3> nprocs 16
|  4> end
|  5>
|  6> * xyz 0 1
|  7> S 	 -1.83121 	 -17.7788 	 87.495
|  8> C 	 -3.17802 	 -17.8522 	 88.5364
|  9> C 	 -4.26768 	 -17.2476 	 87.8903
| 10> C 	 -3.95623 	 -16.7452 	 86.6178
| 11> C 	 -2.62563 	 -16.8325 	 86.3217
| 12> H 	 -4.71917 	 -16.4095 	 85.8963
| 13> C 	 -5.6507 	 -17.1932 	 88.4487
| 14> H 	 -6.12092 	 -16.2251 	 88.119
| 15> H 	 -5.58694 	 -16.963 	 89.5157
| 16> C 	 -6.5531 	 -18.4124 	 88.0272
| 17> H 	 -6.8092 	 -18.4834 	 87.0232
| 18> H 	 -6.06713 	 -19.3981 	 88.234
| 19> C 	 -7.98093 	 -18.5008 	 88.7617
| 20> H 	 -8.4999 	 -17.565 	 88.6572
| 21> H 	 -8.68907 	 -19.1479 	 88.2352
| 22> H 	 -7.8248 	 -18.6501 	 89.8727
| 23> S 	 -1.62171 	 -14.8565 	 84.7826
| 24> C 	 -0.654055 	 -15.1818 	 83.3964
| 25> C 	 -0.633247 	 -16.5355 	 83.1167
| 26> C 	 -1.33762 	 -17.3228 	 84.0311
| 27> C 	 -1.96542 	 -16.5235 	 84.9879
| 28> H 	 -0.0645567 	 -16.9603 	 82.3127
| 29> C 	 -1.41627 	 -18.846 	 84.0122
| 30> H 	 -1.53382 	 -19.2561 	 85.0029
| 31> H 	 -0.4325 	 -19.1293 	 83.5988
| 32> C 	 -2.64102 	 -19.42 	 83.3029
| 33> H 	 -3.48506 	 -19.0466 	 83.8711
| 34> H 	 -2.72668 	 -20.4613 	 83.5822
| 35> C 	 -2.79619 	 -18.986 	 81.8732
| 36> H 	 -3.72108 	 -19.4627 	 81.4308
| 37> H 	 -2.12871 	 -19.5429 	 81.1794
| 38> H 	 -2.70044 	 -17.877 	 81.7719
| 39> H 	 -3.11413 	 -18.3641 	 89.4694
| 40> H 	 -0.0387275 	 -14.3385 	 82.9545
| 41> *
| 42>
| 43>                          ****END OF INPUT****

CARTESIAN COORDINATES (ANGSTROEM)
---------------------------------
  S     -1.831210  -17.778800   87.495000
  C     -3.178020  -17.852200   88.536400
  C     -4.267680  -17.247600   87.890300
  C     -3.956230  -16.745200   86.617800
  C     -2.625630  -16.832500   86.321700
  H     -4.719170  -16.409500   85.896300
  C     -5.650700  -17.193200   88.448700
  H     -6.120920  -16.225100   88.119000
  H     -5.586940  -16.963000   89.515700
  C     -6.553100  -18.412400   88.027200
  H     -6.809200  -18.483400   87.023200
  H     -6.067130  -19.398100   88.234000
  C     -7.980930  -18.500800   88.761700
  H     -8.499900  -17.565000   88.657200
  H     -8.689070  -19.147900   88.235200
  H     -7.824800  -18.650100   89.872700
  S     -1.621710  -14.856500   84.782600
  C     -0.654055  -15.181800   83.396400
  C     -0.633247  -16.535500   83.116700
  C     -1.337620  -17.322800   84.031100
  C     -1.965420  -16.523500   84.987900
  H     -0.064557  -16.960300   82.312700
  C     -1.416270  -18.846000   84.012200
  H     -1.533820  -19.256100   85.002900
  H     -0.432500  -19.129300   83.598800
  C     -2.641020  -19.420000   83.302900
  H     -3.485060  -19.046600   83.871100
  H     -2.726680  -20.461300   83.582200
  C     -2.796190  -18.986000   81.873200
  H     -3.721080  -19.462700   81.430800
  H     -2.128710  -19.542900   81.179400
  H     -2.700440  -17.877000   81.771900
  H     -3.114130  -18.364100   89.469400
  H     -0.038727  -14.338500   82.954500

 Total Charge           Charge          ....    0
 Multiplicity           Mult            ....    1
 Number of Electrons    NEL             ....  134
 Basis Dimension        Dim             ....  322

ORBITAL ENERGIES
----------------

  NO   OCC          E(Eh)            E(eV)
   0   2.0000     -88.965033     -2420.8616
   1   2.0000     -88.964356     -2420.8432
   2   2.0000     -10.325469      -280.9703
   3   2.0000     -10.323624      -280.9201
   4   2.0000     -10.319065      -280.7960
   5   2.0000     -10.311660      -280.5945
   6   2.0000     -10.299570      -280.2656
   7   2.0000     -10.298314      -280.2314
   8   2.0000     -10.297299      -280.2037
   9   2.0000     -10.292288      -280.0674
  10   2.0000     -10.291530      -280.0468
  11   2.0000     -10.290271      -280.0125
  12   2.0000     -10.287789      -279.9450
  13   2.0000     -10.284086      -279.8442
  14   2.0000     -10.281160      -279.7646
  15   2.0000     -10.279327      -279.7147
  16   2.0000      -8.081041      -219.8963
  17   2.0000      -8.080337      -219.8772
  18   2.0000      -6.039318      -164.3382
  19   2.0000      -6.038455      -164.3147
  20   2.0000      -6.035127      -164.2241
  21   2.0000      -6.034554      -164.2086
  22   2.0000      -6.032216      -164.1449
  23   2.0000      -6.031551      -164.1268
  24   2.0000      -1.015223       -27.6256
  25   2.0000      -0.995380       -27.0857
  26   2.0000      -0.911802       -24.8114
  27   2.0000      -0.902985       -24.5715
  28   2.0000      -0.863979       -23.5101
  29   2.0000      -0.850506       -23.1435
  30   2.0000      -0.847795       -23.0697
  31   2.0000      -0.814391       -22.1607
  32   2.0000      -0.782161       -21.2837
  33   2.0000      -0.768831       -20.9209
  34   2.0000      -0.707058       -19.2400
  35   2.0000      -0.702213       -19.1082
  36   2.0000      -0.682597       -18.5744
  37   2.0000      -0.665392       -18.1062
  38   2.0000      -0.647114       -17.6089
  39   2.0000      -0.619816       -16.8660
  40   2.0000      -0.594052       -16.1650
  41   2.0000      -0.566884       -15.4257
  42   2.0000      -0.555060       -15.1039
  43   2.0000      -0.552387       -15.0312
  44   2.0000      -0.543393       -14.7865
  45   2.0000      -0.525090       -14.2884
  46   2.0000      -0.518701       -14.1146
  47   2.0000      -0.509454       -13.8629
  48   2.0000      -0.499850       -13.6016
  49   2.0000      -0.494387       -13.4530
  50   2.0000      -0.487014       -13.2523
  51   2.0000      -0.482710       -13.1352
  52   2.0000      -0.472306       -12.8521
  53   2.0000      -0.463324       -12.6077
  54   2.0000      -0.456623       -12.4254
  55   2.0000      -0.453742       -12.3470
  56   2.0000      -0.444216       -12.0877
  57   2.0000      -0.438403       -11.9296
  58   2.0000      -0.433725       -11.8023
  59   2.0000      -0.420750       -11.4492
  60   2.0000      -0.415737       -11.3128
  61   2.0000      -0.413134       -11.2419
  62   2.0000      -0.402463       -10.9516
  63   2.0000      -0.340841        -9.2748
  64   2.0000      -0.335197        -9.1212
  65   2.0000      -0.324251        -8.8233
  66   2.0000      -0.301214        -8.1965
  67   0.0000       0.043053         1.1715
  68   0.0000       0.060758         1.6533
  69   0.0000       0.118487         3.2242
  70   0.0000       0.126889         3.4528
  71   0.0000       0.133603         3.6355

MULLIKEN ATOMIC CHARGES
-----------------------
   0 S :    0.122739
   1 C :   -0.124080
   2 C :   -0.089296
   3 C :    0.023532
   4 C :   -0.131098
   5 H :    0.026682
   6 C :    0.055089
   7 H :    0.024652
   8 H :    0.026320
   9 C :   -0.051674
  10 H :    0.014996
  11 H :    0.034550
  12 C :   -0.075854
  13 H :    0.017255
  14 H :    0.037825
  15 H :    0.048768
  16 S :    0.122594
  17 C :   -0.124378
  18 C :   -0.031487
  19 C :   -0.058403
  20 C :   -0.192163
  21 H :    0.011345
  22 C :    0.095178
  23 H :    0.013697
  24 H :    0.023177
  25 C :   -0.040640
  26 H :    0.015369
  27 H :    0.021496
  28 C :   -0.067293
  29 H :    0.029930
  30 H :    0.021375
  31 H :    0.069042
  32 H :    0.045895
  33 H :    0.084859
Sum of atomic charges:    0.0000000

LOEWDIN ATOMIC CHARGES
----------------------
   0 S :    0.457233
   1 C :   -0.208794
   2 C :   -0.069250
   3 C :   -0.069027
   4 C :   -0.218598
   5 H :    0.039308
   6 C :   -0.039404
   7 H :    0.035193
   8 H :    0.032857
   9 C :   -0.033769
  10 H :    0.014577
  11 H :    0.028022
  12 C :   -0.074992
  13 H :    0.018318
  14 H :    0.028348
  15 H :    0.031622
  16 S :    0.445483
  17 C :   -0.206639
  18 C :   -0.075884
  19 C :   -0.063460
  20 C :   -0.212939
  21 H :    0.029384
  22 C :   -0.028003
  23 H :    0.023832
  24 H :    0.028740
  25 C :   -0.046166
  26 H :    0.026032
  27 H :    0.025079
  28 C :   -0.080959
  29 H :    0.033841
  30 H :    0.025380
  31 H :    0.037818
  32 H :    0.024600
  33 H :    0.042217

  Mayer bond orders larger than 0.100000
B(  0-S ,  1-C ) :   1.1732 B(  0-S ,  4-C ) :   1.1927 B(  1-C ,  2-C ) :   1.5319
B(  1-C , 32-H ) :   0.9844 B(  2-C ,  3-C ) :   1.3034 B(  2-C ,  6-C ) :   1.0358
B(  3-C ,  4-C ) :   1.5353 B(  3-C ,  5-H ) :   0.9914 B(  4-C , 20-C ) :   0.9551
B(  6-C ,  7-H ) :   0.9386 B(  6-C ,  8-H ) :   0.9455 B(  6-C ,  9-C ) :   1.0378
B(  9-C , 10-H ) :   0.9600 B(  9-C , 11-H ) :   0.9635 B(  9-C , 12-C ) :   1.0732
B( 12-C , 13-H ) :   0.9747 B( 12-C , 14-H ) :   0.9762 B( 12-C , 15-H ) :   0.9789
B( 16-S , 17-C ) :   1.1877 B( 16-S , 20-C ) :   1.1955 B( 17-C , 18-C ) :   1.5437
B( 17-C , 20-C ) :   0.1042 B( 17-C , 33-H ) :   0.9629 B( 18-C , 19-C ) :   1.2853
B( 18-C , 21-H ) :   0.9968 B( 19-C , 20-C ) :   1.5672 B( 19-C , 22-C ) :   1.0342
B( 22-C , 23-H ) :   0.9265 B( 22-C , 24-H ) :   0.9341 B( 22-C , 25-C ) :   1.0790
B( 25-C , 26-H ) :   0.9464 B( 25-C , 27-H ) :   0.9528 B( 25-C , 28-C ) :   1.0791
B( 28-C , 29-H ) :   0.9674 B( 28-C , 30-H ) :   0.9716 B( 28-C , 31-H ) :   0.9666

Dispersion correction           -0.014665624
FINAL SINGLE POINT ENERGY     -1339.870811588753

DIPOLE MOMENT
-------------
                                X             Y             Z
Electronic contribution:     19.96966      15.05524       3.09598
Nuclear contribution   :    -20.24789     -15.36920      -3.16253
                        -----------------------------------------
Total Dipole Moment    :     -0.27824      -0.31396      -0.06655
                        -----------------------------------------
Magnitude (a.u.)       :      0.42476
Magnitude (Debye)      :      1.07965

Rotational constants in cm-1:     0.020717     0.007811     0.006882
Rotational constants in MHz :   621.083468   234.175704   206.319899

                             ****ORCA TERMINATED NORMALLY****
TOTAL RUN TIME: 0 days 0 hours 0 minutes 33 seconds 463 msec
