                         Program Version 4.2.1 -  RELEASE  -
|  1> ! wB97X-D3 SP def2-SVP
|  2> %pal
|  3> nprocs 16
|  4> end
|  5>
|  6> * xyz 0 1
|  7> S 	 -30.2858 	 68.2403 	 108.68
|  8> C 	 -29.6052 	 69.786 	 108.231
|  9> C 	 -28.2466 	 69.6084 	 107.962
| 10> C 	 -27.8235 	 68.2691 	 108.017
| 11> C 	 -28.8016 	 67.3209 	 108.416
| 12> H 	 -26.865 	 67.8694 	 107.635
| 13> C 	 -27.1963 	 70.637 	 107.522
| 14> H 	 -26.2029 	 70.2918 	 107.868
| 15> H 	 -27.3174 	 71.5665 	 108.02
| 16> C 	 -26.9828 	 70.8467 	 105.98
| 17> H 	 -25.954 	 71.1416 	 105.804
| 18> H 	 -27.0787 	 69.8505 	 105.52
| 19> C 	 -28.0203 	 71.8413 	 105.395
| 20> H 	 -27.9153 	 72.897 	 105.823
| 21> H 	 -28.0182 	 71.7723 	 104.285
| 22> H 	 -28.9441 	 71.6215 	 105.865
| 23> S 	 -27.0171 	 65.3365 	 108.964
| 24> C 	 -27.4379 	 63.6814 	 108.981
| 25> C 	 -28.7256 	 63.5327 	 108.526
| 26> C 	 -29.4696 	 64.7369 	 108.455
| 27> C 	 -28.6617 	 65.8465 	 108.545
| 28> H 	 -29.113 	 62.6136 	 108.383
| 29> C 	 -30.9085 	 64.7194 	 108.05
| 30> H 	 -31.2539 	 65.7142 	 108.454
| 31> H 	 -31.4654 	 63.9627 	 108.675
| 32> C 	 -31.2795 	 64.6584 	 106.544
| 33> H 	 -32.3941 	 64.8902 	 106.528
| 34> H 	 -31.0693 	 63.6379 	 106.227
| 35> C 	 -30.5391 	 65.6452 	 105.572
| 36> H 	 -30.8977 	 66.6973 	 105.702
| 37> H 	 -30.6776 	 65.3333 	 104.492
| 38> H 	 -29.4701 	 65.6394 	 105.712
| 39> H 	 -30.0007 	 70.767 	 108.266
| 40> H 	 -26.6927 	 62.9079 	 109.225
| 41> *
| 42>
| 43>                          ****END OF INPUT****

CARTESIAN COORDINATES (ANGSTROEM)
---------------------------------
  S    -30.285800   68.240300  108.680000
  C    -29.605200   69.786000  108.231000
  C    -28.246600   69.608400  107.962000
  C    -27.823500   68.269100  108.017000
  C    -28.801600   67.320900  108.416000
  H    -26.865000   67.869400  107.635000
  C    -27.196300   70.637000  107.522000
  H    -26.202900   70.291800  107.868000
  H    -27.317400   71.566500  108.020000
  C    -26.982800   70.846700  105.980000
  H    -25.954000   71.141600  105.804000
  H    -27.078700   69.850500  105.520000
  C    -28.020300   71.841300  105.395000
  H    -27.915300   72.897000  105.823000
  H    -28.018200   71.772300  104.285000
  H    -28.944100   71.621500  105.865000
  S    -27.017100   65.336500  108.964000
  C    -27.437900   63.681400  108.981000
  C    -28.725600   63.532700  108.526000
  C    -29.469600   64.736900  108.455000
  C    -28.661700   65.846500  108.545000
  H    -29.113000   62.613600  108.383000
  C    -30.908500   64.719400  108.050000
  H    -31.253900   65.714200  108.454000
  H    -31.465400   63.962700  108.675000
  C    -31.279500   64.658400  106.544000
  H    -32.394100   64.890200  106.528000
  H    -31.069300   63.637900  106.227000
  C    -30.539100   65.645200  105.572000
  H    -30.897700   66.697300  105.702000
  H    -30.677600   65.333300  104.492000
  H    -29.470100   65.639400  105.712000
  H    -30.000700   70.767000  108.266000
  H    -26.692700   62.907900  109.225000

 Total Charge           Charge          ....    0
 Multiplicity           Mult            ....    1
 Number of Electrons    NEL             ....  134
 Basis Dimension        Dim             ....  322

ORBITAL ENERGIES
----------------

  NO   OCC          E(Eh)            E(eV)
   0   2.0000     -88.972811     -2421.0733
   1   2.0000     -88.964462     -2420.8461
   2   2.0000     -10.342078      -281.4222
   3   2.0000     -10.335070      -281.2316
   4   2.0000     -10.318824      -280.7895
   5   2.0000     -10.316971      -280.7390
   6   2.0000     -10.303220      -280.3649
   7   2.0000     -10.302541      -280.3464
   8   2.0000     -10.297519      -280.2097
   9   2.0000     -10.296472      -280.1812
  10   2.0000     -10.296231      -280.1747
  11   2.0000     -10.291944      -280.0580
  12   2.0000     -10.289557      -279.9931
  13   2.0000     -10.285574      -279.8847
  14   2.0000     -10.282749      -279.8078
  15   2.0000     -10.280738      -279.7531
  16   2.0000      -8.086090      -220.0337
  17   2.0000      -8.079821      -219.8631
  18   2.0000      -6.044765      -164.4864
  19   2.0000      -6.040555      -164.3719
  20   2.0000      -6.038303      -164.3106
  21   2.0000      -6.037001      -164.2752
  22   2.0000      -6.034170      -164.1981
  23   2.0000      -6.030633      -164.1019
  24   2.0000      -1.009815       -27.4785
  25   2.0000      -0.988327       -26.8937
  26   2.0000      -0.906548       -24.6684
  27   2.0000      -0.903586       -24.5878
  28   2.0000      -0.869545       -23.6615
  29   2.0000      -0.848484       -23.0884
  30   2.0000      -0.843079       -22.9413
  31   2.0000      -0.811380       -22.0788
  32   2.0000      -0.781240       -21.2586
  33   2.0000      -0.775102       -21.0916
  34   2.0000      -0.709052       -19.2943
  35   2.0000      -0.700629       -19.0651
  36   2.0000      -0.690588       -18.7919
  37   2.0000      -0.672464       -18.2987
  38   2.0000      -0.633688       -17.2435
  39   2.0000      -0.619238       -16.8503
  40   2.0000      -0.595301       -16.1990
  41   2.0000      -0.574817       -15.6416
  42   2.0000      -0.550630       -14.9834
  43   2.0000      -0.547668       -14.9028
  44   2.0000      -0.540529       -14.7085
  45   2.0000      -0.525664       -14.3040
  46   2.0000      -0.520924       -14.1751
  47   2.0000      -0.516637       -14.0584
  48   2.0000      -0.505455       -13.7541
  49   2.0000      -0.500910       -13.6304
  50   2.0000      -0.484588       -13.1863
  51   2.0000      -0.478975       -13.0336
  52   2.0000      -0.472969       -12.8702
  53   2.0000      -0.461954       -12.5704
  54   2.0000      -0.456984       -12.4352
  55   2.0000      -0.446404       -12.1473
  56   2.0000      -0.440770       -11.9940
  57   2.0000      -0.438083       -11.9208
  58   2.0000      -0.429978       -11.7003
  59   2.0000      -0.424390       -11.5482
  60   2.0000      -0.416837       -11.3427
  61   2.0000      -0.413740       -11.2584
  62   2.0000      -0.403988       -10.9931
  63   2.0000      -0.361116        -9.8265
  64   2.0000      -0.333601        -9.0778
  65   2.0000      -0.330842        -9.0027
  66   2.0000      -0.285857        -7.7786
  67   0.0000       0.018538         0.5044
  68   0.0000       0.078513         2.1365
  69   0.0000       0.113709         3.0942
  70   0.0000       0.115610         3.1459
  71   0.0000       0.122930         3.3451

MULLIKEN ATOMIC CHARGES
-----------------------
   0 S :    0.099752
   1 C :   -0.085952
   2 C :   -0.082670
   3 C :   -0.017961
   4 C :   -0.112909
   5 H :    0.029391
   6 C :    0.033449
   7 H :    0.024252
   8 H :    0.013936
   9 C :   -0.053978
  10 H :    0.029783
  11 H :    0.028937
  12 C :   -0.049543
  13 H :    0.030953
  14 H :    0.055278
  15 H :    0.009139
  16 S :    0.089976
  17 C :   -0.091670
  18 C :    0.017539
  19 C :   -0.078893
  20 C :   -0.128491
  21 H :   -0.028980
  22 C :    0.023515
  23 H :    0.020697
  24 H :    0.041854
  25 C :   -0.055624
  26 H :    0.051635
  27 H :    0.028663
  28 C :   -0.084773
  29 H :    0.045806
  30 H :    0.042436
  31 H :    0.043805
  32 H :    0.036920
  33 H :    0.073729
Sum of atomic charges:   -0.0000000

LOEWDIN ATOMIC CHARGES
----------------------
   0 S :    0.416993
   1 C :   -0.202476
   2 C :   -0.064409
   3 C :   -0.079660
   4 C :   -0.186272
   5 H :    0.030209
   6 C :   -0.031169
   7 H :    0.035023
   8 H :    0.020389
   9 C :   -0.036147
  10 H :    0.020723
  11 H :    0.026444
  12 C :   -0.072689
  13 H :    0.032423
  14 H :    0.032731
  15 H :    0.016693
  16 S :    0.419692
  17 C :   -0.191219
  18 C :   -0.060230
  19 C :   -0.065288
  20 C :   -0.183434
  21 H :    0.010853
  22 C :   -0.046088
  23 H :    0.023217
  24 H :    0.039514
  25 C :   -0.038096
  26 H :    0.037051
  27 H :    0.020238
  28 C :   -0.074912
  29 H :    0.029284
  30 H :    0.033824
  31 H :    0.023417
  32 H :    0.026429
  33 H :    0.036941

  Mayer bond orders larger than 0.100000
B(  0-S ,  1-C ) :   1.1374 B(  0-S ,  4-C ) :   1.1535 B(  1-C ,  2-C ) :   1.5806
B(  1-C ,  4-C ) :   0.1044 B(  1-C , 32-H ) :   0.9709 B(  2-C ,  3-C ) :   1.2883
B(  2-C ,  6-C ) :   1.0278 B(  3-C ,  4-C ) :   1.5319 B(  3-C ,  5-H ) :   0.9775
B(  4-C , 20-C ) :   1.0557 B(  6-C ,  7-H ) :   0.9430 B(  6-C ,  8-H ) :   0.9462
B(  6-C ,  9-C ) :   1.0611 B(  9-C , 10-H ) :   0.9598 B(  9-C , 11-H ) :   0.9555
B(  9-C , 12-C ) :   1.0691 B( 12-C , 13-H ) :   0.9733 B( 12-C , 14-H ) :   0.9745
B( 12-C , 15-H ) :   0.9734 B( 16-S , 17-C ) :   1.1720 B( 16-S , 20-C ) :   1.1432
B( 17-C , 18-C ) :   1.5744 B( 17-C , 33-H ) :   0.9674 B( 18-C , 19-C ) :   1.2449
B( 18-C , 21-H ) :   1.0092 B( 19-C , 20-C ) :   1.5719 B( 19-C , 22-C ) :   1.0525
B( 22-C , 23-H ) :   0.9317 B( 22-C , 24-H ) :   0.9309 B( 22-C , 25-C ) :   1.0542
B( 25-C , 26-H ) :   0.9562 B( 25-C , 27-H ) :   0.9584 B( 25-C , 28-C ) :   1.0719
B( 28-C , 29-H ) :   0.9754 B( 28-C , 30-H ) :   0.9747 B( 28-C , 31-H ) :   0.9734

Dispersion correction           -0.015318272
FINAL SINGLE POINT ENERGY     -1339.872895961110

DIPOLE MOMENT
-------------
                                X             Y             Z
Electronic contribution:      2.90484      -9.97147      17.34262
Nuclear contribution   :     -2.79704       9.86481     -17.63302
                        -----------------------------------------
Total Dipole Moment    :      0.10780      -0.10666      -0.29040
                        -----------------------------------------
Magnitude (a.u.)       :      0.32761
Magnitude (Debye)      :      0.83272

Rotational constants in cm-1:     0.021549     0.008339     0.007253
Rotational constants in MHz :   646.014561   249.997790   217.448900

                             ****ORCA TERMINATED NORMALLY****
TOTAL RUN TIME: 0 days 0 hours 0 minutes 28 seconds 457 msec
