                         Program Version 4.2.1 -  RELEASE  -
|  1> ! wB97X-D3 SP def2-SVP
|  2> %pal
|  3> nprocs 16
|  4> end
|  5>
|  6> * xyz 0 1
|  7> S 	 -113.756 	 42.636 	 133.503
|  8> C 	 -114.229 	 41.6224 	 134.843
|  9> C 	 -114.712 	 42.3433 	 135.904
| 10> C 	 -114.818 	 43.7833 	 135.566
| 11> C 	 -114.46 	 44.0502 	 134.264
| 12> H 	 -115.204 	 44.5758 	 136.236
| 13> C 	 -115.222 	 41.7714 	 137.218
| 14> H 	 -116.124 	 41.2435 	 137.108
| 15> H 	 -115.581 	 42.5766 	 137.849
| 16> C 	 -114.313 	 40.9075 	 138.085
| 17> H 	 -114.943 	 40.6029 	 138.882
| 18> H 	 -114.012 	 39.918 	 137.642
| 19> C 	 -112.986 	 41.6008 	 138.344
| 20> H 	 -112.391 	 40.9646 	 139.046
| 21> H 	 -112.447 	 41.7846 	 137.321
| 22> H 	 -113.151 	 42.5181 	 138.862
| 23> S 	 -113.339 	 45.6524 	 132.368
| 24> C 	 -113.964 	 47.2437 	 132.093
| 25> C 	 -114.989 	 47.6459 	 132.945
| 26> C 	 -115.345 	 46.5453 	 133.825
| 27> C 	 -114.605 	 45.3901 	 133.574
| 28> H 	 -115.299 	 48.7012 	 132.859
| 29> C 	 -116.463 	 46.6935 	 134.807
| 30> H 	 -116.101 	 46.5733 	 135.877
| 31> H 	 -117.019 	 45.8779 	 134.343
| 32> C 	 -117.382 	 47.9823 	 134.668
| 33> H 	 -117.535 	 48.0211 	 133.588
| 34> H 	 -116.916 	 48.813 	 135.048
| 35> C 	 -118.762 	 47.802 	 135.385
| 36> H 	 -119.325 	 46.8995 	 134.908
| 37> H 	 -119.299 	 48.6816 	 135.241
| 38> H 	 -118.641 	 47.6948 	 136.476
| 39> H 	 -113.953 	 40.5393 	 134.847
| 40> H 	 -113.34 	 48.0367 	 131.573
| 41> *
| 42>
| 43>                          ****END OF INPUT****

CARTESIAN COORDINATES (ANGSTROEM)
---------------------------------
  S    -113.756000   42.636000  133.503000
  C    -114.229000   41.622400  134.843000
  C    -114.712000   42.343300  135.904000
  C    -114.818000   43.783300  135.566000
  C    -114.460000   44.050200  134.264000
  H    -115.204000   44.575800  136.236000
  C    -115.222000   41.771400  137.218000
  H    -116.124000   41.243500  137.108000
  H    -115.581000   42.576600  137.849000
  C    -114.313000   40.907500  138.085000
  H    -114.943000   40.602900  138.882000
  H    -114.012000   39.918000  137.642000
  C    -112.986000   41.600800  138.344000
  H    -112.391000   40.964600  139.046000
  H    -112.447000   41.784600  137.321000
  H    -113.151000   42.518100  138.862000
  S    -113.339000   45.652400  132.368000
  C    -113.964000   47.243700  132.093000
  C    -114.989000   47.645900  132.945000
  C    -115.345000   46.545300  133.825000
  C    -114.605000   45.390100  133.574000
  H    -115.299000   48.701200  132.859000
  C    -116.463000   46.693500  134.807000
  H    -116.101000   46.573300  135.877000
  H    -117.019000   45.877900  134.343000
  C    -117.382000   47.982300  134.668000
  H    -117.535000   48.021100  133.588000
  H    -116.916000   48.813000  135.048000
  C    -118.762000   47.802000  135.385000
  H    -119.325000   46.899500  134.908000
  H    -119.299000   48.681600  135.241000
  H    -118.641000   47.694800  136.476000
  H    -113.953000   40.539300  134.847000
  H    -113.340000   48.036700  131.573000

 Total Charge           Charge          ....    0
 Multiplicity           Mult            ....    1
 Number of Electrons    NEL             ....  134
 Basis Dimension        Dim             ....  322

ORBITAL ENERGIES
----------------

  NO   OCC          E(Eh)            E(eV)
   0   2.0000     -88.965890     -2420.8850
   1   2.0000     -88.964656     -2420.8514
   2   2.0000     -10.333882      -281.1992
   3   2.0000     -10.331454      -281.1332
   4   2.0000     -10.319100      -280.7970
   5   2.0000     -10.315520      -280.6996
   6   2.0000     -10.311809      -280.5986
   7   2.0000     -10.305916      -280.4382
   8   2.0000     -10.299916      -280.2750
   9   2.0000     -10.298456      -280.2352
  10   2.0000     -10.297759      -280.2163
  11   2.0000     -10.289341      -279.9872
  12   2.0000     -10.286756      -279.9168
  13   2.0000     -10.285669      -279.8873
  14   2.0000     -10.284197      -279.8472
  15   2.0000     -10.280792      -279.7546
  16   2.0000      -8.080832      -219.8906
  17   2.0000      -8.079605      -219.8572
  18   2.0000      -6.039192      -164.3348
  19   2.0000      -6.038304      -164.3106
  20   2.0000      -6.035491      -164.2341
  21   2.0000      -6.034212      -164.1993
  22   2.0000      -6.031570      -164.1274
  23   2.0000      -6.030033      -164.0855
  24   2.0000      -1.002799       -27.2876
  25   2.0000      -0.981638       -26.7117
  26   2.0000      -0.913178       -24.8488
  27   2.0000      -0.908626       -24.7250
  28   2.0000      -0.862801       -23.4780
  29   2.0000      -0.853859       -23.2347
  30   2.0000      -0.840682       -22.8761
  31   2.0000      -0.812442       -22.1077
  32   2.0000      -0.782158       -21.2836
  33   2.0000      -0.771427       -20.9916
  34   2.0000      -0.709802       -19.3147
  35   2.0000      -0.699466       -19.0334
  36   2.0000      -0.684206       -18.6182
  37   2.0000      -0.653459       -17.7815
  38   2.0000      -0.632917       -17.2226
  39   2.0000      -0.610948       -16.6247
  40   2.0000      -0.587904       -15.9977
  41   2.0000      -0.582639       -15.8544
  42   2.0000      -0.573039       -15.5932
  43   2.0000      -0.551659       -15.0114
  44   2.0000      -0.537732       -14.6324
  45   2.0000      -0.521364       -14.1870
  46   2.0000      -0.516599       -14.0574
  47   2.0000      -0.509156       -13.8548
  48   2.0000      -0.501345       -13.6423
  49   2.0000      -0.495173       -13.4743
  50   2.0000      -0.483538       -13.1577
  51   2.0000      -0.474816       -12.9204
  52   2.0000      -0.467483       -12.7209
  53   2.0000      -0.464604       -12.6425
  54   2.0000      -0.456847       -12.4315
  55   2.0000      -0.455575       -12.3968
  56   2.0000      -0.445433       -12.1209
  57   2.0000      -0.437943       -11.9170
  58   2.0000      -0.431700       -11.7472
  59   2.0000      -0.426514       -11.6060
  60   2.0000      -0.421675       -11.4744
  61   2.0000      -0.409653       -11.1472
  62   2.0000      -0.406345       -11.0572
  63   2.0000      -0.356046        -9.6885
  64   2.0000      -0.332287        -9.0420
  65   2.0000      -0.325368        -8.8537
  66   2.0000      -0.285432        -7.7670
  67   0.0000       0.025974         0.7068
  68   0.0000       0.076667         2.0862
  69   0.0000       0.092994         2.5305
  70   0.0000       0.120654         3.2832
  71   0.0000       0.135730         3.6934

MULLIKEN ATOMIC CHARGES
-----------------------
   0 S :    0.096121
   1 C :   -0.141054
   2 C :   -0.088149
   3 C :   -0.016254
   4 C :   -0.104136
   5 H :    0.017377
   6 C :    0.089169
   7 H :    0.023198
   8 H :    0.006228
   9 C :   -0.077448
  10 H :    0.018314
  11 H :    0.024237
  12 C :   -0.068984
  13 H :    0.037420
  14 H :    0.070563
  15 H :    0.021702
  16 S :    0.091570
  17 C :   -0.095405
  18 C :   -0.075119
  19 C :   -0.060480
  20 C :   -0.126555
  21 H :    0.041690
  22 C :   -0.010502
  23 H :    0.067723
  24 H :    0.053674
  25 C :   -0.067736
  26 H :    0.036149
  27 H :    0.020781
  28 C :   -0.041950
  29 H :    0.049885
  30 H :    0.025486
  31 H :    0.036914
  32 H :    0.070185
  33 H :    0.075386
Sum of atomic charges:   -0.0000000

LOEWDIN ATOMIC CHARGES
----------------------
   0 S :    0.390417
   1 C :   -0.202274
   2 C :   -0.060591
   3 C :   -0.073217
   4 C :   -0.188939
   5 H :    0.033905
   6 C :   -0.034406
   7 H :    0.029309
   8 H :    0.029781
   9 C :   -0.046284
  10 H :    0.020298
  11 H :    0.024038
  12 C :   -0.071559
  13 H :    0.028253
  14 H :    0.045543
  15 H :    0.015510
  16 S :    0.402079
  17 C :   -0.199780
  18 C :   -0.083478
  19 C :   -0.054965
  20 C :   -0.192017
  21 H :    0.042760
  22 C :   -0.044776
  23 H :    0.037161
  24 H :    0.048602
  25 C :   -0.029607
  26 H :    0.027486
  27 H :    0.009787
  28 C :   -0.062000
  29 H :    0.038341
  30 H :    0.016424
  31 H :    0.026836
  32 H :    0.037906
  33 H :    0.039458

  Mayer bond orders larger than 0.100000
B(  0-S ,  1-C ) :   1.1213 B(  0-S ,  4-C ) :   1.1395 B(  1-C ,  2-C ) :   1.6413
B(  1-C , 32-H ) :   0.9630 B(  2-C ,  3-C ) :   1.2069 B(  2-C ,  6-C ) :   1.0137
B(  3-C ,  4-C ) :   1.6067 B(  3-C ,  5-H ) :   0.9855 B(  4-C , 20-C ) :   1.0327
B(  6-C ,  7-H ) :   0.9340 B(  6-C ,  8-H ) :   0.9362 B(  6-C ,  9-C ) :   1.0847
B(  9-C , 10-H ) :   0.9526 B(  9-C , 11-H ) :   0.9539 B(  9-C , 12-C ) :   1.0710
B( 12-C , 13-H ) :   0.9741 B( 12-C , 14-H ) :   0.9647 B( 12-C , 15-H ) :   0.9784
B( 16-S , 17-C ) :   1.1689 B( 16-S , 20-C ) :   1.1303 B( 17-C , 18-C ) :   1.6263
B( 17-C , 33-H ) :   0.9481 B( 18-C , 19-C ) :   1.2198 B( 18-C , 21-H ) :   0.9846
B( 19-C , 20-C ) :   1.6292 B( 19-C , 22-C ) :   0.9923 B( 22-C , 23-H ) :   0.9261
B( 22-C , 24-H ) :   0.9443 B( 22-C , 25-C ) :   1.0890 B( 25-C , 26-H ) :   0.9504
B( 25-C , 27-H ) :   0.9512 B( 25-C , 28-C ) :   1.0849 B( 28-C , 29-H ) :   0.9759
B( 28-C , 30-H ) :   0.9728 B( 28-C , 31-H ) :   0.9743

Dispersion correction           -0.013627513
FINAL SINGLE POINT ENERGY     -1339.850633027520

DIPOLE MOMENT
-------------
                                X             Y             Z
Electronic contribution:     13.93829      -1.91920     -22.57815
Nuclear contribution   :    -14.34634       2.26219      23.19997
                        -----------------------------------------
Total Dipole Moment    :     -0.40805       0.34299       0.62182
                        -----------------------------------------
Magnitude (a.u.)       :      0.81903
Magnitude (Debye)      :      2.08180

Rotational constants in cm-1:     0.018242     0.008056     0.006061
Rotational constants in MHz :   546.885690   241.524913   181.696732

                             ****ORCA TERMINATED NORMALLY****
TOTAL RUN TIME: 0 days 0 hours 0 minutes 32 seconds 595 msec
