                         Program Version 4.2.1 -  RELEASE  -
|  1> ! wB97X-D3 SP def2-SVP
|  2> %pal
|  3> nprocs 16
|  4> end
|  5>
|  6> * xyz 0 1
|  7> S 	 -43.5542 	 34.6215 	 81.0465
|  8> C 	 -43.3419 	 36.0951 	 80.1298
|  9> C 	 -42.7591 	 35.8275 	 78.9191
| 10> C 	 -42.4587 	 34.4144 	 78.7315
| 11> C 	 -42.7651 	 33.6202 	 79.8477
| 12> H 	 -42.0856 	 33.9287 	 77.8637
| 13> C 	 -42.6619 	 36.8977 	 77.7768
| 14> H 	 -41.7714 	 36.6641 	 77.1419
| 15> H 	 -42.4765 	 37.7948 	 78.3513
| 16> C 	 -43.8681 	 36.9173 	 76.781
| 17> H 	 -43.6995 	 36.0034 	 76.2026
| 18> H 	 -44.7143 	 36.8724 	 77.4027
| 19> C 	 -44.1039 	 38.1472 	 75.8383
| 20> H 	 -45.0742 	 38.2525 	 75.2898
| 21> H 	 -44.057 	 39.077 	 76.426
| 22> H 	 -43.2577 	 38.2729 	 75.1393
| 23> S 	 -44.1894 	 31.1969 	 79.847
| 24> C 	 -43.3 	 29.7074 	 79.6707
| 25> C 	 -41.9926 	 29.9868 	 79.4383
| 26> C 	 -41.5944 	 31.3506 	 79.5053
| 27> C 	 -42.6768 	 32.146 	 79.8214
| 28> H 	 -41.3476 	 29.1314 	 79.2395
| 29> C 	 -40.1538 	 31.6936 	 79.2195
| 30> H 	 -40.1509 	 32.5221 	 78.4788
| 31> H 	 -39.6401 	 30.8523 	 78.7392
| 32> C 	 -39.2979 	 31.9319 	 80.4721
| 33> H 	 -39.4414 	 31.0943 	 81.2281
| 34> H 	 -39.5888 	 32.8662 	 80.9479
| 35> C 	 -37.7928 	 32.0881 	 80.2017
| 36> H 	 -37.3015 	 32.4119 	 81.1447
| 37> H 	 -37.518 	 32.9063 	 79.4476
| 38> H 	 -37.3807 	 31.2204 	 79.7497
| 39> H 	 -43.7023 	 37.0514 	 80.3801
| 40> H 	 -43.6555 	 28.7212 	 79.633
| 41> *
| 42>
| 43>                          ****END OF INPUT****

CARTESIAN COORDINATES (ANGSTROEM)
---------------------------------
  S    -43.554200   34.621500   81.046500
  C    -43.341900   36.095100   80.129800
  C    -42.759100   35.827500   78.919100
  C    -42.458700   34.414400   78.731500
  C    -42.765100   33.620200   79.847700
  H    -42.085600   33.928700   77.863700
  C    -42.661900   36.897700   77.776800
  H    -41.771400   36.664100   77.141900
  H    -42.476500   37.794800   78.351300
  C    -43.868100   36.917300   76.781000
  H    -43.699500   36.003400   76.202600
  H    -44.714300   36.872400   77.402700
  C    -44.103900   38.147200   75.838300
  H    -45.074200   38.252500   75.289800
  H    -44.057000   39.077000   76.426000
  H    -43.257700   38.272900   75.139300
  S    -44.189400   31.196900   79.847000
  C    -43.300000   29.707400   79.670700
  C    -41.992600   29.986800   79.438300
  C    -41.594400   31.350600   79.505300
  C    -42.676800   32.146000   79.821400
  H    -41.347600   29.131400   79.239500
  C    -40.153800   31.693600   79.219500
  H    -40.150900   32.522100   78.478800
  H    -39.640100   30.852300   78.739200
  C    -39.297900   31.931900   80.472100
  H    -39.441400   31.094300   81.228100
  H    -39.588800   32.866200   80.947900
  C    -37.792800   32.088100   80.201700
  H    -37.301500   32.411900   81.144700
  H    -37.518000   32.906300   79.447600
  H    -37.380700   31.220400   79.749700
  H    -43.702300   37.051400   80.380100
  H    -43.655500   28.721200   79.633000

 Total Charge           Charge          ....    0
 Multiplicity           Mult            ....    1
 Number of Electrons    NEL             ....  134
 Basis Dimension        Dim             ....  322

ORBITAL ENERGIES
----------------

  NO   OCC          E(Eh)            E(eV)
   0   2.0000     -88.968760     -2420.9630
   1   2.0000     -88.965406     -2420.8718
   2   2.0000     -10.333330      -281.1842
   3   2.0000     -10.332015      -281.1484
   4   2.0000     -10.313971      -280.6574
   5   2.0000     -10.311003      -280.5767
   6   2.0000     -10.306464      -280.4532
   7   2.0000     -10.303384      -280.3693
   8   2.0000     -10.300089      -280.2797
   9   2.0000     -10.297257      -280.2026
  10   2.0000     -10.296043      -280.1696
  11   2.0000     -10.289577      -279.9936
  12   2.0000     -10.289521      -279.9921
  13   2.0000     -10.287837      -279.9463
  14   2.0000     -10.287684      -279.9421
  15   2.0000     -10.281514      -279.7742
  16   2.0000      -8.083187      -219.9547
  17   2.0000      -8.079764      -219.8616
  18   2.0000      -6.041805      -164.4059
  19   2.0000      -6.038434      -164.3141
  20   2.0000      -6.037604      -164.2915
  21   2.0000      -6.034390      -164.2041
  22   2.0000      -6.033969      -164.1927
  23   2.0000      -6.030293      -164.0926
  24   2.0000      -1.004899       -27.3447
  25   2.0000      -0.984857       -26.7993
  26   2.0000      -0.907961       -24.7069
  27   2.0000      -0.902539       -24.5593
  28   2.0000      -0.869891       -23.6709
  29   2.0000      -0.850257       -23.1367
  30   2.0000      -0.841875       -22.9086
  31   2.0000      -0.815403       -22.1882
  32   2.0000      -0.781231       -21.2584
  33   2.0000      -0.774121       -21.0649
  34   2.0000      -0.709482       -19.3060
  35   2.0000      -0.699056       -19.0223
  36   2.0000      -0.690592       -18.7920
  37   2.0000      -0.660440       -17.9715
  38   2.0000      -0.645025       -17.5520
  39   2.0000      -0.613504       -16.6943
  40   2.0000      -0.594538       -16.1782
  41   2.0000      -0.575389       -15.6571
  42   2.0000      -0.566568       -15.4171
  43   2.0000      -0.557099       -15.1594
  44   2.0000      -0.523338       -14.2407
  45   2.0000      -0.517216       -14.0742
  46   2.0000      -0.513710       -13.9788
  47   2.0000      -0.512106       -13.9351
  48   2.0000      -0.506845       -13.7920
  49   2.0000      -0.501172       -13.6376
  50   2.0000      -0.498591       -13.5674
  51   2.0000      -0.483153       -13.1473
  52   2.0000      -0.477176       -12.9846
  53   2.0000      -0.462806       -12.5936
  54   2.0000      -0.459309       -12.4984
  55   2.0000      -0.444285       -12.0896
  56   2.0000      -0.440729       -11.9929
  57   2.0000      -0.431183       -11.7331
  58   2.0000      -0.428223       -11.6525
  59   2.0000      -0.426081       -11.5942
  60   2.0000      -0.421717       -11.4755
  61   2.0000      -0.414531       -11.2800
  62   2.0000      -0.412029       -11.2119
  63   2.0000      -0.344866        -9.3843
  64   2.0000      -0.332101        -9.0369
  65   2.0000      -0.328799        -8.9471
  66   2.0000      -0.300683        -8.1820
  67   0.0000       0.030487         0.8296
  68   0.0000       0.067559         1.8384
  69   0.0000       0.113270         3.0822
  70   0.0000       0.123104         3.3498
  71   0.0000       0.125656         3.4193

MULLIKEN ATOMIC CHARGES
-----------------------
   0 S :    0.114306
   1 C :   -0.096193
   2 C :   -0.101634
   3 C :    0.038042
   4 C :   -0.166959
   5 H :    0.008102
   6 C :    0.043397
   7 H :    0.030270
   8 H :    0.022461
   9 C :   -0.038656
  10 H :    0.035830
  11 H :    0.022118
  12 C :   -0.070443
  13 H :    0.053963
  14 H :    0.022355
  15 H :    0.030536
  16 S :    0.104744
  17 C :   -0.059292
  18 C :   -0.056679
  19 C :   -0.014828
  20 C :   -0.162098
  21 H :    0.017400
  22 C :    0.084632
  23 H :    0.028120
  24 H :    0.012799
  25 C :   -0.087854
  26 H :    0.043691
  27 H :    0.035593
  28 C :   -0.060808
  29 H :    0.046254
  30 H :    0.030705
  31 H :    0.024002
  32 H :    0.031570
  33 H :    0.034550
Sum of atomic charges:    0.0000000

LOEWDIN ATOMIC CHARGES
----------------------
   0 S :    0.410879
   1 C :   -0.190242
   2 C :   -0.062520
   3 C :   -0.055146
   4 C :   -0.200874
   5 H :    0.024249
   6 C :   -0.029129
   7 H :    0.030890
   8 H :    0.024316
   9 C :   -0.036189
  10 H :    0.027740
  11 H :    0.017179
  12 C :   -0.077026
  13 H :    0.036185
  14 H :    0.024931
  15 H :    0.024455
  16 S :    0.393431
  17 C :   -0.178973
  18 C :   -0.074037
  19 C :   -0.055096
  20 C :   -0.186064
  21 H :    0.030922
  22 C :   -0.032404
  23 H :    0.032815
  24 H :    0.030423
  25 C :   -0.041866
  26 H :    0.033852
  27 H :    0.024832
  28 C :   -0.072469
  29 H :    0.033311
  30 H :    0.030763
  31 H :    0.014570
  32 H :    0.022190
  33 H :    0.024102

  Mayer bond orders larger than 0.100000
B(  0-S ,  1-C ) :   1.1387 B(  0-S ,  4-C ) :   1.1517 B(  1-C ,  2-C ) :   1.6162
B(  1-C , 32-H ) :   0.9739 B(  2-C ,  3-C ) :   1.2357 B(  2-C ,  6-C ) :   1.0239
B(  3-C ,  4-C ) :   1.5710 B(  3-C ,  5-H ) :   0.9937 B(  4-C , 20-C ) :   1.0339
B(  6-C ,  7-H ) :   0.9460 B(  6-C ,  8-H ) :   0.9433 B(  6-C ,  9-C ) :   1.0461
B(  9-C , 10-H ) :   0.9588 B(  9-C , 11-H ) :   0.9617 B(  9-C , 12-C ) :   1.0717
B( 12-C , 13-H ) :   0.9768 B( 12-C , 14-H ) :   0.9744 B( 12-C , 15-H ) :   0.9769
B( 16-S , 17-C ) :   1.1375 B( 16-S , 20-C ) :   1.1383 B( 17-C , 18-C ) :   1.6415
B( 17-C , 33-H ) :   0.9708 B( 18-C , 19-C ) :   1.2346 B( 18-C , 21-H ) :   0.9844
B( 19-C , 20-C ) :   1.6047 B( 19-C , 22-C ) :   1.0427 B( 22-C , 23-H ) :   0.9250
B( 22-C , 24-H ) :   0.9356 B( 22-C , 25-C ) :   1.0633 B( 25-C , 26-H ) :   0.9543
B( 25-C , 27-H ) :   0.9554 B( 25-C , 28-C ) :   1.0845 B( 28-C , 29-H ) :   0.9740
B( 28-C , 30-H ) :   0.9725 B( 28-C , 31-H ) :   0.9747

Dispersion correction           -0.013654184
FINAL SINGLE POINT ENERGY     -1339.875401793836

DIPOLE MOMENT
-------------
                                X             Y             Z
Electronic contribution:    -16.39800     -12.03662      14.11542
Nuclear contribution   :     16.74655      12.11306     -14.60601
                        -----------------------------------------
Total Dipole Moment    :      0.34855       0.07644      -0.49059
                        -----------------------------------------
Magnitude (a.u.)       :      0.60664
Magnitude (Debye)      :      1.54195

Rotational constants in cm-1:     0.017646     0.007601     0.006546
Rotational constants in MHz :   529.008432   227.880369   196.247660

                             ****ORCA TERMINATED NORMALLY****
TOTAL RUN TIME: 0 days 0 hours 0 minutes 28 seconds 755 msec
