                         Program Version 4.2.1 -  RELEASE  -
|  1> ! wB97X-D3 SP def2-SVP
|  2> %pal
|  3> nprocs 16
|  4> end
|  5>
|  6> * xyz 0 1
|  7> S 	 -5.9138 	 11.7214 	 84.951
|  8> C 	 -6.78528 	 10.2515 	 84.4656
|  9> C 	 -7.3909 	 9.63562 	 85.5503
| 10> C 	 -7.15815 	 10.4036 	 86.7477
| 11> C 	 -6.4476 	 11.5699 	 86.5871
| 12> H 	 -7.44483 	 10.1505 	 87.7757
| 13> C 	 -8.08017 	 8.30915 	 85.6426
| 14> H 	 -8.38847 	 8.17103 	 86.6966
| 15> H 	 -7.32614 	 7.52886 	 85.466
| 16> C 	 -9.32999 	 7.96434 	 84.7004
| 17> H 	 -10.1715 	 7.47976 	 85.2362
| 18> H 	 -9.65566 	 8.91876 	 84.3076
| 19> C 	 -9.13079 	 7.10553 	 83.454
| 20> H 	 -9.86577 	 7.43711 	 82.7239
| 21> H 	 -8.17601 	 7.50837 	 83.0749
| 22> H 	 -9.26165 	 6.0066 	 83.6272
| 23> S 	 -7.17563 	 12.8841 	 88.8811
| 24> C 	 -6.05113 	 13.8487 	 89.6701
| 25> C 	 -4.84551 	 13.8876 	 88.9669
| 26> C 	 -4.77213 	 12.9752 	 87.8811
| 27> C 	 -6.01948 	 12.3948 	 87.6735
| 28> H 	 -3.97632 	 14.454 	 89.2955
| 29> C 	 -3.39195 	 12.763 	 87.1533
| 30> H 	 -2.94642 	 13.7862 	 87.0548
| 31> H 	 -3.62226 	 12.4279 	 86.1122
| 32> C 	 -2.49981 	 11.7453 	 87.6901
| 33> H 	 -2.09947 	 12.098 	 88.6448
| 34> H 	 -1.64225 	 11.5635 	 86.9867
| 35> C 	 -3.26289 	 10.3557 	 87.8484
| 36> H 	 -3.58809 	 9.97705 	 86.7999
| 37> H 	 -4.03232 	 10.3206 	 88.5925
| 38> H 	 -2.50872 	 9.52494 	 88.2364
| 39> H 	 -6.82971 	 9.86429 	 83.4817
| 40> H 	 -6.20339 	 14.6762 	 90.3634
| 41> *
| 42>
| 43>                          ****END OF INPUT****

CARTESIAN COORDINATES (ANGSTROEM)
---------------------------------
  S     -5.913800   11.721400   84.951000
  C     -6.785280   10.251500   84.465600
  C     -7.390900    9.635620   85.550300
  C     -7.158150   10.403600   86.747700
  C     -6.447600   11.569900   86.587100
  H     -7.444830   10.150500   87.775700
  C     -8.080170    8.309150   85.642600
  H     -8.388470    8.171030   86.696600
  H     -7.326140    7.528860   85.466000
  C     -9.329990    7.964340   84.700400
  H    -10.171500    7.479760   85.236200
  H     -9.655660    8.918760   84.307600
  C     -9.130790    7.105530   83.454000
  H     -9.865770    7.437110   82.723900
  H     -8.176010    7.508370   83.074900
  H     -9.261650    6.006600   83.627200
  S     -7.175630   12.884100   88.881100
  C     -6.051130   13.848700   89.670100
  C     -4.845510   13.887600   88.966900
  C     -4.772130   12.975200   87.881100
  C     -6.019480   12.394800   87.673500
  H     -3.976320   14.454000   89.295500
  C     -3.391950   12.763000   87.153300
  H     -2.946420   13.786200   87.054800
  H     -3.622260   12.427900   86.112200
  C     -2.499810   11.745300   87.690100
  H     -2.099470   12.098000   88.644800
  H     -1.642250   11.563500   86.986700
  C     -3.262890   10.355700   87.848400
  H     -3.588090    9.977050   86.799900
  H     -4.032320   10.320600   88.592500
  H     -2.508720    9.524940   88.236400
  H     -6.829710    9.864290   83.481700
  H     -6.203390   14.676200   90.363400

 Total Charge           Charge          ....    0
 Multiplicity           Mult            ....    1
 Number of Electrons    NEL             ....  134
 Basis Dimension        Dim             ....  322

ORBITAL ENERGIES
----------------

  NO   OCC          E(Eh)            E(eV)
   0   2.0000     -88.971600     -2421.0403
   1   2.0000     -88.969894     -2420.9939
   2   2.0000     -10.325166      -280.9620
   3   2.0000     -10.323717      -280.9226
   4   2.0000     -10.315460      -280.6979
   5   2.0000     -10.311963      -280.6028
   6   2.0000     -10.305248      -280.4200
   7   2.0000     -10.302251      -280.3385
   8   2.0000     -10.298003      -280.2229
   9   2.0000     -10.295347      -280.1506
  10   2.0000     -10.291433      -280.0441
  11   2.0000     -10.290876      -280.0290
  12   2.0000     -10.289588      -279.9939
  13   2.0000     -10.289557      -279.9931
  14   2.0000     -10.289338      -279.9871
  15   2.0000     -10.283290      -279.8225
  16   2.0000      -8.087259      -220.0655
  17   2.0000      -8.083919      -219.9746
  18   2.0000      -6.045601      -164.5092
  19   2.0000      -6.042550      -164.4261
  20   2.0000      -6.041546      -164.3988
  21   2.0000      -6.038486      -164.3155
  22   2.0000      -6.038220      -164.3083
  23   2.0000      -6.034630      -164.2106
  24   2.0000      -1.013730       -27.5850
  25   2.0000      -0.987922       -26.8827
  26   2.0000      -0.912019       -24.8173
  27   2.0000      -0.906508       -24.6673
  28   2.0000      -0.872199       -23.7338
  29   2.0000      -0.853719       -23.2309
  30   2.0000      -0.844251       -22.9732
  31   2.0000      -0.807541       -21.9743
  32   2.0000      -0.780430       -21.2366
  33   2.0000      -0.773057       -21.0360
  34   2.0000      -0.706659       -19.2292
  35   2.0000      -0.695111       -18.9149
  36   2.0000      -0.686108       -18.6700
  37   2.0000      -0.663880       -18.0651
  38   2.0000      -0.636677       -17.3249
  39   2.0000      -0.611892       -16.6504
  40   2.0000      -0.592760       -16.1298
  41   2.0000      -0.575257       -15.6535
  42   2.0000      -0.555924       -15.1275
  43   2.0000      -0.551745       -15.0137
  44   2.0000      -0.544724       -14.8227
  45   2.0000      -0.530414       -14.4333
  46   2.0000      -0.515365       -14.0238
  47   2.0000      -0.509529       -13.8650
  48   2.0000      -0.501818       -13.6552
  49   2.0000      -0.496680       -13.5154
  50   2.0000      -0.489480       -13.3194
  51   2.0000      -0.481105       -13.0915
  52   2.0000      -0.472219       -12.8497
  53   2.0000      -0.464993       -12.6531
  54   2.0000      -0.461708       -12.5637
  55   2.0000      -0.446531       -12.1507
  56   2.0000      -0.437517       -11.9055
  57   2.0000      -0.435069       -11.8388
  58   2.0000      -0.428056       -11.6480
  59   2.0000      -0.419748       -11.4219
  60   2.0000      -0.414673       -11.2838
  61   2.0000      -0.411351       -11.1934
  62   2.0000      -0.407468       -11.0878
  63   2.0000      -0.353236        -9.6120
  64   2.0000      -0.335849        -9.1389
  65   2.0000      -0.329576        -8.9682
  66   2.0000      -0.287019        -7.8102
  67   0.0000       0.025659         0.6982
  68   0.0000       0.072838         1.9820
  69   0.0000       0.104918         2.8550
  70   0.0000       0.119277         3.2457
  71   0.0000       0.127656         3.4737

MULLIKEN ATOMIC CHARGES
-----------------------
   0 S :    0.111698
   1 C :   -0.129128
   2 C :   -0.047263
   3 C :   -0.025329
   4 C :   -0.112729
   5 H :    0.017084
   6 C :    0.053259
   7 H :    0.029229
   8 H :    0.045074
   9 C :   -0.097536
  10 H :    0.036025
  11 H :    0.029369
  12 C :   -0.060739
  13 H :    0.033283
  14 H :    0.022745
  15 H :    0.056611
  16 S :    0.138416
  17 C :   -0.074906
  18 C :   -0.071857
  19 C :   -0.068336
  20 C :   -0.176440
  21 H :    0.019391
  22 C :    0.059619
  23 H :    0.038866
  24 H :    0.016651
  25 C :   -0.035349
  26 H :    0.023670
  27 H :    0.044945
  28 C :   -0.120473
  29 H :    0.053292
  30 H :    0.051731
  31 H :    0.038551
  32 H :    0.034150
  33 H :    0.066426
Sum of atomic charges:   -0.0000000

LOEWDIN ATOMIC CHARGES
----------------------
   0 S :    0.420060
   1 C :   -0.189326
   2 C :   -0.059569
   3 C :   -0.069937
   4 C :   -0.200411
   5 H :    0.028011
   6 C :   -0.038069
   7 H :    0.036680
   8 H :    0.037428
   9 C :   -0.045836
  10 H :    0.026891
  11 H :    0.023027
  12 C :   -0.072378
  13 H :    0.028682
  14 H :    0.024630
  15 H :    0.031726
  16 S :    0.454861
  17 C :   -0.226204
  18 C :   -0.071213
  19 C :   -0.059989
  20 C :   -0.202035
  21 H :    0.028497
  22 C :   -0.040989
  23 H :    0.035609
  24 H :    0.018352
  25 C :   -0.044452
  26 H :    0.019908
  27 H :    0.034921
  28 C :   -0.075841
  29 H :    0.035667
  30 H :    0.020126
  31 H :    0.033546
  32 H :    0.019330
  33 H :    0.038295

  Mayer bond orders larger than 0.100000
B(  0-S ,  1-C ) :   1.1294 B(  0-S ,  4-C ) :   1.1430 B(  1-C ,  2-C ) :   1.5949
B(  1-C , 32-H ) :   0.9773 B(  2-C ,  3-C ) :   1.2444 B(  2-C ,  6-C ) :   1.0290
B(  3-C ,  4-C ) :   1.5700 B(  3-C ,  5-H ) :   0.9851 B(  4-C , 20-C ) :   1.0652
B(  6-C ,  7-H ) :   0.9438 B(  6-C ,  8-H ) :   0.9424 B(  6-C ,  9-C ) :   1.0347
B(  9-C , 10-H ) :   0.9635 B(  9-C , 11-H ) :   0.9691 B(  9-C , 12-C ) :   1.0746
B( 12-C , 13-H ) :   0.9745 B( 12-C , 14-H ) :   0.9775 B( 12-C , 15-H ) :   0.9753
B( 16-S , 17-C ) :   1.1695 B( 16-S , 20-C ) :   1.1666 B( 17-C , 18-C ) :   1.5807
B( 17-C , 33-H ) :   0.9596 B( 18-C , 19-C ) :   1.2876 B( 18-C , 21-H ) :   0.9812
B( 19-C , 20-C ) :   1.5517 B( 19-C , 22-C ) :   1.0175 B( 22-C , 23-H ) :   0.9360
B( 22-C , 24-H ) :   0.9259 B( 22-C , 25-C ) :   1.0871 B( 25-C , 26-H ) :   0.9513
B( 25-C , 27-H ) :   0.9528 B( 25-C , 28-C ) :   1.0630 B( 28-C , 29-H ) :   0.9723
B( 28-C , 30-H ) :   0.9748 B( 28-C , 31-H ) :   0.9752

Dispersion correction           -0.015210207
FINAL SINGLE POINT ENERGY     -1339.863614583578

DIPOLE MOMENT
-------------
                                X             Y             Z
Electronic contribution:     -3.43053      18.81553       6.46717
Nuclear contribution   :      3.54702     -19.07096      -6.46059
                        -----------------------------------------
Total Dipole Moment    :      0.11649      -0.25543       0.00659
                        -----------------------------------------
Magnitude (a.u.)       :      0.28082
Magnitude (Debye)      :      0.71378

Rotational constants in cm-1:     0.024301     0.007673     0.006720
Rotational constants in MHz :   728.533826   230.044978   201.469185

                             ****ORCA TERMINATED NORMALLY****
TOTAL RUN TIME: 0 days 0 hours 0 minutes 36 seconds 138 msec
