                         Program Version 4.2.1 -  RELEASE  -
|  1> ! wB97X-D3 SP def2-SVP
|  2> %pal
|  3> nprocs 16
|  4> end
|  5>
|  6> * xyz 0 1
|  7> S 	 13.014 	 32.889 	 62.9042
|  8> C 	 14.6026 	 32.5639 	 62.1484
|  9> C 	 14.9402 	 33.5244 	 61.2124
| 10> C 	 13.958 	 34.5403 	 61.0493
| 11> C 	 12.7827 	 34.2072 	 61.7312
| 12> H 	 14.2027 	 35.4636 	 60.4998
| 13> C 	 16.2812 	 33.504 	 60.4306
| 14> H 	 17.0196 	 33.4037 	 61.1831
| 15> H 	 16.3769 	 34.5437 	 60.0125
| 16> C 	 16.5046 	 32.4126 	 59.3777
| 17> H 	 15.8354 	 32.6844 	 58.5104
| 18> H 	 17.5 	 32.5158 	 58.7903
| 19> C 	 16.4456 	 30.9269 	 59.7695
| 20> H 	 16.8873 	 30.7344 	 60.7594
| 21> H 	 15.3885 	 30.5387 	 59.7423
| 22> H 	 17.0581 	 30.4648 	 58.9488
| 23> S 	 10.9199 	 35.6536 	 63.1339
| 24> C 	 9.8815 	 36.7263 	 62.2318
| 25> C 	 9.98583 	 36.5678 	 60.8785
| 26> C 	 10.9421 	 35.5941 	 60.4996
| 27> C 	 11.5808 	 35.0408 	 61.6112
| 28> H 	 9.36765 	 37.1409 	 60.1935
| 29> C 	 11.2597 	 35.1389 	 59.1022
| 30> H 	 11.6149 	 34.1092 	 59.0917
| 31> H 	 12.0993 	 35.7595 	 58.7409
| 32> C 	 10.2609 	 35.2884 	 58.0038
| 33> H 	 10.7718 	 34.8424 	 57.1027
| 34> H 	 9.98929 	 36.3584 	 57.797
| 35> C 	 8.83701 	 34.6276 	 58.1595
| 36> H 	 8.98171 	 33.5419 	 58.1793
| 37> H 	 8.34185 	 34.9621 	 57.2295
| 38> H 	 8.21497 	 35.055 	 58.9515
| 39> H 	 15.2953 	 31.7513 	 62.3743
| 40> H 	 9.19411 	 37.4251 	 62.6471
| 41> *
| 42>
| 43>                          ****END OF INPUT****

CARTESIAN COORDINATES (ANGSTROEM)
---------------------------------
  S     13.014000   32.889000   62.904200
  C     14.602600   32.563900   62.148400
  C     14.940200   33.524400   61.212400
  C     13.958000   34.540300   61.049300
  C     12.782700   34.207200   61.731200
  H     14.202700   35.463600   60.499800
  C     16.281200   33.504000   60.430600
  H     17.019600   33.403700   61.183100
  H     16.376900   34.543700   60.012500
  C     16.504600   32.412600   59.377700
  H     15.835400   32.684400   58.510400
  H     17.500000   32.515800   58.790300
  C     16.445600   30.926900   59.769500
  H     16.887300   30.734400   60.759400
  H     15.388500   30.538700   59.742300
  H     17.058100   30.464800   58.948800
  S     10.919900   35.653600   63.133900
  C      9.881500   36.726300   62.231800
  C      9.985830   36.567800   60.878500
  C     10.942100   35.594100   60.499600
  C     11.580800   35.040800   61.611200
  H      9.367650   37.140900   60.193500
  C     11.259700   35.138900   59.102200
  H     11.614900   34.109200   59.091700
  H     12.099300   35.759500   58.740900
  C     10.260900   35.288400   58.003800
  H     10.771800   34.842400   57.102700
  H      9.989290   36.358400   57.797000
  C      8.837010   34.627600   58.159500
  H      8.981710   33.541900   58.179300
  H      8.341850   34.962100   57.229500
  H      8.214970   35.055000   58.951500
  H     15.295300   31.751300   62.374300
  H      9.194110   37.425100   62.647100

 Total Charge           Charge          ....    0
 Multiplicity           Mult            ....    1
 Number of Electrons    NEL             ....  134
 Basis Dimension        Dim             ....  322

ORBITAL ENERGIES
----------------

  NO   OCC          E(Eh)            E(eV)
   0   2.0000     -88.971980     -2421.0507
   1   2.0000     -88.964107     -2420.8364
   2   2.0000     -10.334521      -281.2166
   3   2.0000     -10.324620      -280.9472
   4   2.0000     -10.314929      -280.6835
   5   2.0000     -10.313602      -280.6474
   6   2.0000     -10.302488      -280.3450
   7   2.0000     -10.299664      -280.2681
   8   2.0000     -10.298512      -280.2368
   9   2.0000     -10.297581      -280.2114
  10   2.0000     -10.295592      -280.1573
  11   2.0000     -10.292748      -280.0799
  12   2.0000     -10.292335      -280.0687
  13   2.0000     -10.290404      -280.0161
  14   2.0000     -10.287671      -279.9418
  15   2.0000     -10.279755      -279.7264
  16   2.0000      -8.085256      -220.0110
  17   2.0000      -8.078904      -219.8381
  18   2.0000      -6.043887      -164.4625
  19   2.0000      -6.040196      -164.3621
  20   2.0000      -6.037350      -164.2846
  21   2.0000      -6.035762      -164.2414
  22   2.0000      -6.033456      -164.1787
  23   2.0000      -6.029690      -164.0762
  24   2.0000      -1.002625       -27.2828
  25   2.0000      -0.979513       -26.6539
  26   2.0000      -0.909798       -24.7569
  27   2.0000      -0.904960       -24.6252
  28   2.0000      -0.864697       -23.5296
  29   2.0000      -0.850260       -23.1368
  30   2.0000      -0.843407       -22.9503
  31   2.0000      -0.811181       -22.0734
  32   2.0000      -0.786680       -21.4067
  33   2.0000      -0.775389       -21.0994
  34   2.0000      -0.705144       -19.1879
  35   2.0000      -0.691946       -18.8288
  36   2.0000      -0.687804       -18.7161
  37   2.0000      -0.653455       -17.7814
  38   2.0000      -0.630320       -17.1519
  39   2.0000      -0.617305       -16.7977
  40   2.0000      -0.598493       -16.2858
  41   2.0000      -0.560046       -15.2396
  42   2.0000      -0.554766       -15.0960
  43   2.0000      -0.545947       -14.8560
  44   2.0000      -0.542701       -14.7676
  45   2.0000      -0.533000       -14.5037
  46   2.0000      -0.521097       -14.1798
  47   2.0000      -0.512642       -13.9497
  48   2.0000      -0.498054       -13.5527
  49   2.0000      -0.495318       -13.4783
  50   2.0000      -0.485365       -13.2075
  51   2.0000      -0.481189       -13.0938
  52   2.0000      -0.476081       -12.9548
  53   2.0000      -0.465292       -12.6612
  54   2.0000      -0.458982       -12.4895
  55   2.0000      -0.452339       -12.3088
  56   2.0000      -0.445608       -12.1256
  57   2.0000      -0.435089       -11.8394
  58   2.0000      -0.426682       -11.6106
  59   2.0000      -0.426262       -11.5992
  60   2.0000      -0.418945       -11.4001
  61   2.0000      -0.410704       -11.1758
  62   2.0000      -0.400284       -10.8923
  63   2.0000      -0.344508        -9.3745
  64   2.0000      -0.333203        -9.0669
  65   2.0000      -0.328553        -8.9404
  66   2.0000      -0.285578        -7.7710
  67   0.0000       0.023691         0.6447
  68   0.0000       0.069101         1.8803
  69   0.0000       0.096193         2.6175
  70   0.0000       0.123150         3.3511
  71   0.0000       0.131020         3.5652

MULLIKEN ATOMIC CHARGES
-----------------------
   0 S :    0.113437
   1 C :   -0.120773
   2 C :   -0.110268
   3 C :    0.010841
   4 C :   -0.137987
   5 H :    0.035199
   6 C :    0.093237
   7 H :    0.021593
   8 H :    0.022899
   9 C :   -0.117003
  10 H :    0.029579
  11 H :    0.035003
  12 C :   -0.072504
  13 H :    0.039675
  14 H :    0.059328
  15 H :    0.047376
  16 S :    0.100787
  17 C :   -0.068637
  18 C :   -0.045863
  19 C :   -0.030320
  20 C :   -0.167814
  21 H :    0.015383
  22 C :    0.100650
  23 H :    0.036328
  24 H :    0.035399
  25 C :   -0.138256
  26 H :    0.039424
  27 H :    0.027513
  28 C :   -0.057389
  29 H :    0.043609
  30 H :    0.032869
  31 H :    0.042399
  32 H :    0.042867
  33 H :    0.041419
Sum of atomic charges:   -0.0000000

LOEWDIN ATOMIC CHARGES
----------------------
   0 S :    0.379232
   1 C :   -0.193141
   2 C :   -0.062919
   3 C :   -0.060268
   4 C :   -0.184168
   5 H :    0.039434
   6 C :   -0.032806
   7 H :    0.023075
   8 H :    0.035477
   9 C :   -0.059345
  10 H :    0.027943
  11 H :    0.032106
  12 C :   -0.075385
  13 H :    0.023815
  14 H :    0.034403
  15 H :    0.038137
  16 S :    0.395708
  17 C :   -0.178076
  18 C :   -0.073647
  19 C :   -0.053963
  20 C :   -0.190108
  21 H :    0.031943
  22 C :   -0.042422
  23 H :    0.035377
  24 H :    0.040084
  25 C :   -0.050151
  26 H :    0.034657
  27 H :    0.022038
  28 C :   -0.070691
  29 H :    0.025862
  30 H :    0.029587
  31 H :    0.025354
  32 H :    0.028726
  33 H :    0.024135

  Mayer bond orders larger than 0.100000
B(  0-S ,  1-C ) :   1.1096 B(  0-S ,  4-C ) :   1.1448 B(  1-C ,  2-C ) :   1.6381
B(  1-C , 32-H ) :   0.9629 B(  2-C ,  3-C ) :   1.2581 B(  2-C ,  6-C ) :   0.9989
B(  3-C ,  4-C ) :   1.5494 B(  3-C ,  5-H ) :   0.9852 B(  4-C , 20-C ) :   1.0502
B(  6-C ,  7-H ) :   0.9409 B(  6-C ,  8-H ) :   0.9427 B(  6-C ,  9-C ) :   1.0713
B(  9-C , 10-H ) :   0.9525 B(  9-C , 11-H ) :   0.9623 B(  9-C , 12-C ) :   1.0612
B( 12-C , 13-H ) :   0.9740 B( 12-C , 14-H ) :   0.9726 B( 12-C , 15-H ) :   0.9747
B( 16-S , 17-C ) :   1.1553 B( 16-S , 20-C ) :   1.1340 B( 17-C , 18-C ) :   1.6158
B( 17-C , 33-H ) :   0.9667 B( 18-C , 19-C ) :   1.2409 B( 18-C , 21-H ) :   0.9872
B( 19-C , 20-C ) :   1.6000 B( 19-C , 22-C ) :   1.0335 B( 22-C , 23-H ) :   0.9336
B( 22-C , 24-H ) :   0.9165 B( 22-C , 25-C ) :   1.0898 B( 25-C , 26-H ) :   0.9520
B( 25-C , 27-H ) :   0.9501 B( 25-C , 28-C ) :   1.0750 B( 28-C , 29-H ) :   0.9768
B( 28-C , 30-H ) :   0.9756 B( 28-C , 31-H ) :   0.9733

Dispersion correction           -0.014330675
FINAL SINGLE POINT ENERGY     -1339.869001015820

DIPOLE MOMENT
-------------
                                X             Y             Z
Electronic contribution:     -7.34970       5.74331      25.55912
Nuclear contribution   :      7.64942      -5.56265     -26.24156
                        -----------------------------------------
Total Dipole Moment    :      0.29972       0.18066      -0.68244
                        -----------------------------------------
Magnitude (a.u.)       :      0.76693
Magnitude (Debye)      :      1.94939

Rotational constants in cm-1:     0.019740     0.008213     0.006484
Rotational constants in MHz :   591.802383   246.213014   194.374121

                             ****ORCA TERMINATED NORMALLY****
TOTAL RUN TIME: 0 days 0 hours 0 minutes 34 seconds 899 msec
