                         Program Version 4.2.1 -  RELEASE  -
|  1> ! wB97X-D3 SP def2-SVP
|  2> %pal
|  3> nprocs 16
|  4> end
|  5>
|  6> * xyz 0 1
|  7> S 	 -32.5754 	 47.1621 	 96.5696
|  8> C 	 -32.1839 	 45.6089 	 95.8284
|  9> C 	 -32.1397 	 45.7475 	 94.4672
| 10> C 	 -32.3988 	 47.1149 	 93.9767
| 11> C 	 -32.6735 	 47.9831 	 94.9964
| 12> H 	 -32.3604 	 47.4613 	 92.978
| 13> C 	 -32.0547 	 44.6175 	 93.3905
| 14> H 	 -32.9806 	 43.9529 	 93.4974
| 15> H 	 -31.1187 	 44.068 	 93.5387
| 16> C 	 -31.9285 	 44.8833 	 91.9162
| 17> H 	 -32.7519 	 45.5167 	 91.6872
| 18> H 	 -31.0097 	 45.4298 	 91.6196
| 19> C 	 -31.8909 	 43.7323 	 90.921
| 20> H 	 -32.05 	 44.1421 	 89.8999
| 21> H 	 -31.1211 	 43.0457 	 91.1008
| 22> H 	 -32.8065 	 43.1241 	 91.1222
| 23> S 	 -34.0196 	 49.9883 	 93.6543
| 24> C 	 -34.0487 	 51.6735 	 94.2493
| 25> C 	 -33.3197 	 51.6375 	 95.3894
| 26> C 	 -32.7186 	 50.401 	 95.7902
| 27> C 	 -32.9025 	 49.4151 	 94.8389
| 28> H 	 -33.315 	 52.5861 	 95.942
| 29> C 	 -31.9212 	 50.2617 	 97.1044
| 30> H 	 -31.3153 	 51.1253 	 97.2953
| 31> H 	 -31.2016 	 49.4303 	 97.0186
| 32> C 	 -32.8622 	 50.1132 	 98.3915
| 33> H 	 -33.8081 	 49.6795 	 98.2468
| 34> H 	 -33.095 	 51.1596 	 98.5934
| 35> C 	 -32.1219 	 49.4186 	 99.5306
| 36> H 	 -32.8561 	 49.2377 	 100.317
| 37> H 	 -31.2756 	 49.9971 	 100.007
| 38> H 	 -31.7849 	 48.4068 	 99.2181
| 39> H 	 -32.2051 	 44.6707 	 96.3863
| 40> H 	 -34.5044 	 52.556 	 93.8683
| 41> *
| 42>
| 43>                          ****END OF INPUT****

CARTESIAN COORDINATES (ANGSTROEM)
---------------------------------
  S    -32.575400   47.162100   96.569600
  C    -32.183900   45.608900   95.828400
  C    -32.139700   45.747500   94.467200
  C    -32.398800   47.114900   93.976700
  C    -32.673500   47.983100   94.996400
  H    -32.360400   47.461300   92.978000
  C    -32.054700   44.617500   93.390500
  H    -32.980600   43.952900   93.497400
  H    -31.118700   44.068000   93.538700
  C    -31.928500   44.883300   91.916200
  H    -32.751900   45.516700   91.687200
  H    -31.009700   45.429800   91.619600
  C    -31.890900   43.732300   90.921000
  H    -32.050000   44.142100   89.899900
  H    -31.121100   43.045700   91.100800
  H    -32.806500   43.124100   91.122200
  S    -34.019600   49.988300   93.654300
  C    -34.048700   51.673500   94.249300
  C    -33.319700   51.637500   95.389400
  C    -32.718600   50.401000   95.790200
  C    -32.902500   49.415100   94.838900
  H    -33.315000   52.586100   95.942000
  C    -31.921200   50.261700   97.104400
  H    -31.315300   51.125300   97.295300
  H    -31.201600   49.430300   97.018600
  C    -32.862200   50.113200   98.391500
  H    -33.808100   49.679500   98.246800
  H    -33.095000   51.159600   98.593400
  C    -32.121900   49.418600   99.530600
  H    -32.856100   49.237700  100.317000
  H    -31.275600   49.997100  100.007000
  H    -31.784900   48.406800   99.218100
  H    -32.205100   44.670700   96.386300
  H    -34.504400   52.556000   93.868300

 Total Charge           Charge          ....    0
 Multiplicity           Mult            ....    1
 Number of Electrons    NEL             ....  134
 Basis Dimension        Dim             ....  322

ORBITAL ENERGIES
----------------

  NO   OCC          E(Eh)            E(eV)
   0   2.0000     -88.968766     -2420.9632
   1   2.0000     -88.963273     -2420.8137
   2   2.0000     -10.333293      -281.1832
   3   2.0000     -10.326491      -280.9981
   4   2.0000     -10.319583      -280.8101
   5   2.0000     -10.317468      -280.7526
   6   2.0000     -10.311768      -280.5975
   7   2.0000     -10.303468      -280.3716
   8   2.0000     -10.298779      -280.2440
   9   2.0000     -10.293935      -280.1122
  10   2.0000     -10.292371      -280.0696
  11   2.0000     -10.291976      -280.0589
  12   2.0000     -10.283350      -279.8242
  13   2.0000     -10.281834      -279.7829
  14   2.0000     -10.281218      -279.7662
  15   2.0000     -10.280088      -279.7354
  16   2.0000      -8.082164      -219.9269
  17   2.0000      -8.077833      -219.8090
  18   2.0000      -6.040973      -164.3832
  19   2.0000      -6.036835      -164.2706
  20   2.0000      -6.036603      -164.2643
  21   2.0000      -6.032693      -164.1579
  22   2.0000      -6.032298      -164.1472
  23   2.0000      -6.028342      -164.0395
  24   2.0000      -1.008054       -27.4305
  25   2.0000      -0.982909       -26.7463
  26   2.0000      -0.912609       -24.8333
  27   2.0000      -0.898820       -24.4581
  28   2.0000      -0.878010       -23.8919
  29   2.0000      -0.848030       -23.0761
  30   2.0000      -0.840829       -22.8801
  31   2.0000      -0.821114       -22.3436
  32   2.0000      -0.781299       -21.2602
  33   2.0000      -0.769296       -20.9336
  34   2.0000      -0.710212       -19.3258
  35   2.0000      -0.698085       -18.9959
  36   2.0000      -0.688382       -18.7318
  37   2.0000      -0.664225       -18.0745
  38   2.0000      -0.636831       -17.3291
  39   2.0000      -0.617519       -16.8035
  40   2.0000      -0.593340       -16.1456
  41   2.0000      -0.578512       -15.7421
  42   2.0000      -0.571756       -15.5583
  43   2.0000      -0.558490       -15.1973
  44   2.0000      -0.530313       -14.4305
  45   2.0000      -0.522280       -14.2120
  46   2.0000      -0.516348       -14.0505
  47   2.0000      -0.513619       -13.9763
  48   2.0000      -0.505966       -13.7680
  49   2.0000      -0.503537       -13.7019
  50   2.0000      -0.491693       -13.3797
  51   2.0000      -0.480424       -13.0730
  52   2.0000      -0.476110       -12.9556
  53   2.0000      -0.468185       -12.7399
  54   2.0000      -0.460770       -12.5382
  55   2.0000      -0.451156       -12.2766
  56   2.0000      -0.443719       -12.0742
  57   2.0000      -0.427491       -11.6326
  58   2.0000      -0.424327       -11.5465
  59   2.0000      -0.419505       -11.4153
  60   2.0000      -0.412829       -11.2336
  61   2.0000      -0.406004       -11.0479
  62   2.0000      -0.401761       -10.9325
  63   2.0000      -0.362747        -9.8709
  64   2.0000      -0.329597        -8.9688
  65   2.0000      -0.324970        -8.8429
  66   2.0000      -0.294574        -8.0158
  67   0.0000       0.024153         0.6572
  68   0.0000       0.078039         2.1236
  69   0.0000       0.108522         2.9530
  70   0.0000       0.121573         3.3082
  71   0.0000       0.131578         3.5804

MULLIKEN ATOMIC CHARGES
-----------------------
   0 S :    0.083723
   1 C :   -0.131421
   2 C :   -0.045008
   3 C :   -0.004477
   4 C :   -0.096397
   5 H :    0.011650
   6 C :    0.033876
   7 H :    0.052330
   8 H :    0.031036
   9 C :   -0.124749
  10 H :    0.021782
  11 H :    0.032956
  12 C :   -0.016359
  13 H :    0.050688
  14 H :    0.027151
  15 H :    0.013155
  16 S :    0.079027
  17 C :   -0.077471
  18 C :   -0.040181
  19 C :   -0.065244
  20 C :   -0.096335
  21 H :    0.020519
  22 C :    0.029442
  23 H :    0.024930
  24 H :    0.036984
  25 C :   -0.061852
  26 H :    0.028856
  27 H :    0.023849
  28 C :   -0.061469
  29 H :    0.029283
  30 H :    0.043297
  31 H :    0.036590
  32 H :    0.060950
  33 H :    0.048887
Sum of atomic charges:    0.0000000

LOEWDIN ATOMIC CHARGES
----------------------
   0 S :    0.406910
   1 C :   -0.193928
   2 C :   -0.055509
   3 C :   -0.061592
   4 C :   -0.170560
   5 H :    0.026371
   6 C :   -0.042807
   7 H :    0.041783
   8 H :    0.032123
   9 C :   -0.056436
  10 H :    0.015077
  11 H :    0.025952
  12 C :   -0.057737
  13 H :    0.039665
  14 H :    0.016954
  15 H :    0.024790
  16 S :    0.397892
  17 C :   -0.173231
  18 C :   -0.074562
  19 C :   -0.064062
  20 C :   -0.200393
  21 H :    0.032099
  22 C :   -0.034974
  23 H :    0.027754
  24 H :    0.020476
  25 C :   -0.039206
  26 H :    0.016293
  27 H :    0.024423
  28 C :   -0.071977
  29 H :    0.025840
  30 H :    0.030989
  31 H :    0.022418
  32 H :    0.036320
  33 H :    0.032844

  Mayer bond orders larger than 0.100000
B(  0-S ,  1-C ) :   1.1152 B(  0-S ,  4-C ) :   1.1275 B(  1-C ,  2-C ) :   1.6545
B(  1-C , 32-H ) :   0.9736 B(  2-C ,  3-C ) :   1.2053 B(  2-C ,  6-C ) :   1.0016
B(  3-C ,  4-C ) :   1.5753 B(  3-C ,  5-H ) :   1.0019 B(  4-C , 20-C ) :   1.0579
B(  6-C ,  7-H ) :   0.9425 B(  6-C ,  8-H ) :   0.9418 B(  6-C ,  9-C ) :   1.0821
B(  9-C , 10-H ) :   0.9404 B(  9-C , 11-H ) :   0.9535 B(  9-C , 12-C ) :   1.0893
B( 12-C , 13-H ) :   0.9696 B( 12-C , 14-H ) :   0.9753 B( 12-C , 15-H ) :   0.9693
B( 16-S , 17-C ) :   1.1258 B( 16-S , 20-C ) :   1.1421 B( 17-C , 18-C ) :   1.6294
B( 17-C , 33-H ) :   0.9731 B( 18-C , 19-C ) :   1.2373 B( 18-C , 21-H ) :   0.9852
B( 19-C , 20-C ) :   1.5732 B( 19-C , 22-C ) :   1.0399 B( 22-C , 23-H ) :   0.9413
B( 22-C , 24-H ) :   0.9504 B( 22-C , 25-C ) :   1.0215 B( 25-C , 26-H ) :   0.9668
B( 25-C , 27-H ) :   0.9550 B( 25-C , 28-C ) :   1.0848 B( 28-C , 29-H ) :   0.9735
B( 28-C , 30-H ) :   0.9734 B( 28-C , 31-H ) :   0.9731

Dispersion correction           -0.014041561
FINAL SINGLE POINT ENERGY     -1339.860589337829

DIPOLE MOMENT
-------------
                                X             Y             Z
Electronic contribution:     -6.58951      10.28320      -0.86883
Nuclear contribution   :      6.61005     -10.32340       0.90671
                        -----------------------------------------
Total Dipole Moment    :      0.02054      -0.04020       0.03788
                        -----------------------------------------
Magnitude (a.u.)       :      0.05893
Magnitude (Debye)      :      0.14980

Rotational constants in cm-1:     0.020878     0.008248     0.006123
Rotational constants in MHz :   625.914093   247.264470   183.548055

                             ****ORCA TERMINATED NORMALLY****
TOTAL RUN TIME: 0 days 0 hours 0 minutes 27 seconds 667 msec
