                         Program Version 4.2.1 -  RELEASE  -
|  1> ! wB97X-D3 SP def2-SVP
|  2> %pal
|  3> nprocs 16
|  4> end
|  5>
|  6> * xyz 0 1
|  7> S 	 -20.683 	 -3.17931 	 90.8804
|  8> C 	 -22.0457 	 -2.55075 	 91.8162
|  9> C 	 -22.8841 	 -1.79048 	 91.0128
| 10> C 	 -22.399 	 -1.71224 	 89.6591
| 11> C 	 -21.2313 	 -2.42892 	 89.404
| 12> H 	 -22.788 	 -1.22332 	 88.7855
| 13> C 	 -24.1187 	 -0.960491 	 91.4978
| 14> H 	 -24.1628 	 0.110744 	 91.0304
| 15> H 	 -24.1305 	 -0.481407 	 92.5301
| 16> C 	 -25.444 	 -1.54009 	 91.2171
| 17> H 	 -25.4734 	 -2.54618 	 91.6471
| 18> H 	 -26.2252 	 -0.982506 	 91.7883
| 19> C 	 -25.9699 	 -1.65725 	 89.7755
| 20> H 	 -25.9263 	 -0.569091 	 89.3926
| 21> H 	 -25.317 	 -2.2288 	 89.1585
| 22> H 	 -27.055 	 -1.88876 	 89.6865
| 23> S 	 -18.8928 	 -2.04241 	 88.0869
| 24> C 	 -18.9416 	 -1.87774 	 86.3815
| 25> C 	 -20.0387 	 -2.45597 	 85.8163
| 26> C 	 -21.0048 	 -2.74508 	 86.8144
| 27> C 	 -20.5657 	 -2.55396 	 88.1164
| 28> H 	 -20.0832 	 -2.48286 	 84.7486
| 29> C 	 -22.3522 	 -3.34401 	 86.6355
| 30> H 	 -22.9408 	 -3.27646 	 87.5168
| 31> H 	 -22.169 	 -4.42981 	 86.4318
| 32> C 	 -23.2639 	 -2.7329 	 85.5456
| 33> H 	 -22.8544 	 -2.80894 	 84.543
| 34> H 	 -23.4155 	 -1.62409 	 85.7622
| 35> C 	 -24.6084 	 -3.43985 	 85.5425
| 36> H 	 -25.125 	 -3.41478 	 86.4162
| 37> H 	 -24.5165 	 -4.49812 	 85.4179
| 38> H 	 -25.2753 	 -3.09593 	 84.8101
| 39> H 	 -22.127 	 -2.76521 	 92.8808
| 40> H 	 -18.1206 	 -1.53161 	 85.8468
| 41> *
| 42>
| 43>                          ****END OF INPUT****

CARTESIAN COORDINATES (ANGSTROEM)
---------------------------------
  S    -20.683000   -3.179310   90.880400
  C    -22.045700   -2.550750   91.816200
  C    -22.884100   -1.790480   91.012800
  C    -22.399000   -1.712240   89.659100
  C    -21.231300   -2.428920   89.404000
  H    -22.788000   -1.223320   88.785500
  C    -24.118700   -0.960491   91.497800
  H    -24.162800    0.110744   91.030400
  H    -24.130500   -0.481407   92.530100
  C    -25.444000   -1.540090   91.217100
  H    -25.473400   -2.546180   91.647100
  H    -26.225200   -0.982506   91.788300
  C    -25.969900   -1.657250   89.775500
  H    -25.926300   -0.569091   89.392600
  H    -25.317000   -2.228800   89.158500
  H    -27.055000   -1.888760   89.686500
  S    -18.892800   -2.042410   88.086900
  C    -18.941600   -1.877740   86.381500
  C    -20.038700   -2.455970   85.816300
  C    -21.004800   -2.745080   86.814400
  C    -20.565700   -2.553960   88.116400
  H    -20.083200   -2.482860   84.748600
  C    -22.352200   -3.344010   86.635500
  H    -22.940800   -3.276460   87.516800
  H    -22.169000   -4.429810   86.431800
  C    -23.263900   -2.732900   85.545600
  H    -22.854400   -2.808940   84.543000
  H    -23.415500   -1.624090   85.762200
  C    -24.608400   -3.439850   85.542500
  H    -25.125000   -3.414780   86.416200
  H    -24.516500   -4.498120   85.417900
  H    -25.275300   -3.095930   84.810100
  H    -22.127000   -2.765210   92.880800
  H    -18.120600   -1.531610   85.846800

 Total Charge           Charge          ....    0
 Multiplicity           Mult            ....    1
 Number of Electrons    NEL             ....  134
 Basis Dimension        Dim             ....  322

ORBITAL ENERGIES
----------------

  NO   OCC          E(Eh)            E(eV)
   0   2.0000     -88.966310     -2420.8964
   1   2.0000     -88.961831     -2420.7745
   2   2.0000     -10.331332      -281.1298
   3   2.0000     -10.323316      -280.9117
   4   2.0000     -10.321384      -280.8591
   5   2.0000     -10.313751      -280.6514
   6   2.0000     -10.312058      -280.6054
   7   2.0000     -10.305799      -280.4351
   8   2.0000     -10.305115      -280.4164
   9   2.0000     -10.295323      -280.1500
  10   2.0000     -10.294206      -280.1196
  11   2.0000     -10.290127      -280.0086
  12   2.0000     -10.287164      -279.9280
  13   2.0000     -10.284395      -279.8526
  14   2.0000     -10.283645      -279.8322
  15   2.0000     -10.261194      -279.2213
  16   2.0000      -8.080988      -219.8949
  17   2.0000      -8.077928      -219.8116
  18   2.0000      -6.039547      -164.3444
  19   2.0000      -6.036231      -164.2542
  20   2.0000      -6.035390      -164.2313
  21   2.0000      -6.032317      -164.1477
  22   2.0000      -6.031810      -164.1339
  23   2.0000      -6.028748      -164.0506
  24   2.0000      -1.012128       -27.5414
  25   2.0000      -0.986453       -26.8427
  26   2.0000      -0.912983       -24.8435
  27   2.0000      -0.911319       -24.7982
  28   2.0000      -0.874485       -23.7960
  29   2.0000      -0.857814       -23.3423
  30   2.0000      -0.841421       -22.8962
  31   2.0000      -0.818161       -22.2633
  32   2.0000      -0.786036       -21.3891
  33   2.0000      -0.775834       -21.1115
  34   2.0000      -0.708880       -19.2896
  35   2.0000      -0.702043       -19.1036
  36   2.0000      -0.689936       -18.7741
  37   2.0000      -0.661148       -17.9908
  38   2.0000      -0.647288       -17.6136
  39   2.0000      -0.617203       -16.7949
  40   2.0000      -0.604126       -16.4391
  41   2.0000      -0.579747       -15.7757
  42   2.0000      -0.567647       -15.4465
  43   2.0000      -0.548142       -14.9157
  44   2.0000      -0.538430       -14.6514
  45   2.0000      -0.530583       -14.4379
  46   2.0000      -0.515928       -14.0391
  47   2.0000      -0.513877       -13.9833
  48   2.0000      -0.505144       -13.7457
  49   2.0000      -0.495626       -13.4867
  50   2.0000      -0.491467       -13.3735
  51   2.0000      -0.485730       -13.2174
  52   2.0000      -0.483013       -13.1435
  53   2.0000      -0.465422       -12.6648
  54   2.0000      -0.461921       -12.5695
  55   2.0000      -0.451874       -12.2961
  56   2.0000      -0.443356       -12.0643
  57   2.0000      -0.437193       -11.8966
  58   2.0000      -0.429178       -11.6785
  59   2.0000      -0.425262       -11.5720
  60   2.0000      -0.416208       -11.3256
  61   2.0000      -0.413580       -11.2541
  62   2.0000      -0.394990       -10.7482
  63   2.0000      -0.351448        -9.5634
  64   2.0000      -0.333420        -9.0728
  65   2.0000      -0.330167        -8.9843
  66   2.0000      -0.292500        -7.9593
  67   0.0000       0.030976         0.8429
  68   0.0000       0.064846         1.7645
  69   0.0000       0.113672         3.0932
  70   0.0000       0.114291         3.1100
  71   0.0000       0.122407         3.3309

MULLIKEN ATOMIC CHARGES
-----------------------
   0 S :    0.102206
   1 C :   -0.134600
   2 C :   -0.012819
   3 C :    0.030493
   4 C :   -0.154976
   5 H :    0.006990
   6 C :   -0.005908
   7 H :    0.029528
   8 H :    0.041790
   9 C :   -0.075118
  10 H :    0.022911
  11 H :    0.026843
  12 C :   -0.063806
  13 H :    0.018581
  14 H :    0.038413
  15 H :    0.049262
  16 S :    0.103476
  17 C :   -0.072011
  18 C :   -0.009627
  19 C :   -0.027742
  20 C :   -0.140185
  21 H :    0.014981
  22 C :    0.039636
  23 H :    0.014183
  24 H :    0.047728
  25 C :   -0.102522
  26 H :    0.029150
  27 H :    0.038365
  28 C :    0.027813
  29 H :   -0.005939
  30 H :    0.007876
  31 H :    0.019510
  32 H :    0.061609
  33 H :    0.033909
Sum of atomic charges:   -0.0000000

LOEWDIN ATOMIC CHARGES
----------------------
   0 S :    0.398337
   1 C :   -0.185502
   2 C :   -0.060827
   3 C :   -0.065284
   4 C :   -0.196247
   5 H :    0.029327
   6 C :   -0.052352
   7 H :    0.039149
   8 H :    0.043746
   9 C :   -0.056605
  10 H :    0.020706
  11 H :    0.028723
  12 C :   -0.070498
  13 H :    0.028237
  14 H :    0.015580
  15 H :    0.034075
  16 S :    0.418261
  17 C :   -0.168026
  18 C :   -0.070068
  19 C :   -0.049905
  20 C :   -0.204883
  21 H :    0.032804
  22 C :   -0.033385
  23 H :    0.024563
  24 H :    0.042018
  25 C :   -0.038986
  26 H :    0.019459
  27 H :    0.029692
  28 C :   -0.058308
  29 H :    0.011997
  30 H :    0.024889
  31 H :    0.021973
  32 H :    0.032350
  33 H :    0.014990

  Mayer bond orders larger than 0.100000
B(  0-S ,  1-C ) :   1.1401 B(  0-S ,  4-C ) :   1.1518 B(  1-C ,  2-C ) :   1.6059
B(  1-C , 32-H ) :   0.9744 B(  2-C ,  3-C ) :   1.2270 B(  2-C ,  6-C ) :   0.9910
B(  3-C ,  4-C ) :   1.5811 B(  3-C ,  5-H ) :   0.9949 B(  4-C , 20-C ) :   1.0214
B(  6-C ,  7-H ) :   0.9424 B(  6-C ,  8-H ) :   0.9481 B(  6-C ,  9-C ) :   1.0883
B(  9-C , 10-H ) :   0.9474 B(  9-C , 11-H ) :   0.9495 B(  9-C , 12-C ) :   1.0809
B( 12-C , 13-H ) :   0.9703 B( 12-C , 14-H ) :   0.9745 B( 12-C , 15-H ) :   0.9722
B( 16-S , 17-C ) :   1.1885 B( 16-S , 20-C ) :   1.1289 B( 17-C , 18-C ) :   1.5948
B( 17-C , 33-H ) :   0.9720 B( 18-C , 19-C ) :   1.2161 B( 18-C , 21-H ) :   1.0040
B( 19-C , 20-C ) :   1.5944 B( 19-C , 22-C ) :   1.0496 B( 22-C , 23-H ) :   0.9418
B( 22-C , 24-H ) :   0.9272 B( 22-C , 25-C ) :   1.0566 B( 25-C , 26-H ) :   0.9541
B( 25-C , 27-H ) :   0.9565 B( 25-C , 28-C ) :   1.0919 B( 28-C , 29-H ) :   0.9679
B( 28-C , 30-H ) :   0.9638 B( 28-C , 31-H ) :   0.9691

Dispersion correction           -0.014775347
FINAL SINGLE POINT ENERGY     -1339.861122910536

DIPOLE MOMENT
-------------
                                X             Y             Z
Electronic contribution:     31.21636      -2.32579       8.18436
Nuclear contribution   :    -31.71411       2.47380      -8.49503
                        -----------------------------------------
Total Dipole Moment    :     -0.49775       0.14801      -0.31067
                        -----------------------------------------
Magnitude (a.u.)       :      0.60513
Magnitude (Debye)      :      1.53812

Rotational constants in cm-1:     0.016267     0.010474     0.006965
Rotational constants in MHz :   487.684051   314.008774   208.807213

                             ****ORCA TERMINATED NORMALLY****
TOTAL RUN TIME: 0 days 0 hours 0 minutes 30 seconds 991 msec
