                         Program Version 4.2.1 -  RELEASE  -
|  1> ! wB97X-D3 SP def2-SVP
|  2> %pal
|  3> nprocs 16
|  4> end
|  5>
|  6> * xyz 0 1
|  7> S 	 -74.1746 	 56.1035 	 122.913
|  8> C 	 -73.6317 	 57.6989 	 122.834
|  9> C 	 -74.3771 	 58.4496 	 121.964
| 10> C 	 -75.3943 	 57.6864 	 121.301
| 11> C 	 -75.4357 	 56.4132 	 121.738
| 12> H 	 -76.1259 	 58.1094 	 120.633
| 13> C 	 -74.2466 	 59.9041 	 121.697
| 14> H 	 -73.2602 	 60.215 	 121.21
| 15> H 	 -74.1285 	 60.2172 	 122.714
| 16> C 	 -75.4067 	 60.6261 	 121.135
| 17> H 	 -75.644 	 60.0771 	 120.276
| 18> H 	 -76.3198 	 60.6319 	 121.747
| 19> C 	 -75.1993 	 62.147 	 120.775
| 20> H 	 -74.4731 	 62.1931 	 119.946
| 21> H 	 -76.098 	 62.6307 	 120.36
| 22> H 	 -74.9981 	 62.6947 	 121.702
| 23> S 	 -76.7563 	 55.0408 	 119.657
| 24> C 	 -77.9458 	 53.8363 	 120.17
| 25> C 	 -78.1842 	 53.8206 	 121.488
| 26> C 	 -77.2494 	 54.5902 	 122.201
| 27> C 	 -76.429 	 55.3653 	 121.381
| 28> H 	 -78.8856 	 53.2085 	 121.948
| 29> C 	 -77.377 	 54.6688 	 123.653
| 30> H 	 -78.4091 	 54.8607 	 123.989
| 31> H 	 -76.8411 	 55.5507 	 124.002
| 32> C 	 -76.788 	 53.3929 	 124.381
| 33> H 	 -75.6741 	 53.4189 	 124.439
| 34> H 	 -77.1076 	 52.4605 	 123.793
| 35> C 	 -77.3399 	 53.2768 	 125.872
| 36> H 	 -77.2055 	 54.2757 	 126.382
| 37> H 	 -76.8155 	 52.4445 	 126.369
| 38> H 	 -78.4166 	 53.0841 	 125.781
| 39> H 	 -72.71 	 57.9918 	 123.335
| 40> H 	 -78.6651 	 53.3428 	 119.499
| 41> *
| 42>
| 43>                          ****END OF INPUT****

CARTESIAN COORDINATES (ANGSTROEM)
---------------------------------
  S    -74.174600   56.103500  122.913000
  C    -73.631700   57.698900  122.834000
  C    -74.377100   58.449600  121.964000
  C    -75.394300   57.686400  121.301000
  C    -75.435700   56.413200  121.738000
  H    -76.125900   58.109400  120.633000
  C    -74.246600   59.904100  121.697000
  H    -73.260200   60.215000  121.210000
  H    -74.128500   60.217200  122.714000
  C    -75.406700   60.626100  121.135000
  H    -75.644000   60.077100  120.276000
  H    -76.319800   60.631900  121.747000
  C    -75.199300   62.147000  120.775000
  H    -74.473100   62.193100  119.946000
  H    -76.098000   62.630700  120.360000
  H    -74.998100   62.694700  121.702000
  S    -76.756300   55.040800  119.657000
  C    -77.945800   53.836300  120.170000
  C    -78.184200   53.820600  121.488000
  C    -77.249400   54.590200  122.201000
  C    -76.429000   55.365300  121.381000
  H    -78.885600   53.208500  121.948000
  C    -77.377000   54.668800  123.653000
  H    -78.409100   54.860700  123.989000
  H    -76.841100   55.550700  124.002000
  C    -76.788000   53.392900  124.381000
  H    -75.674100   53.418900  124.439000
  H    -77.107600   52.460500  123.793000
  C    -77.339900   53.276800  125.872000
  H    -77.205500   54.275700  126.382000
  H    -76.815500   52.444500  126.369000
  H    -78.416600   53.084100  125.781000
  H    -72.710000   57.991800  123.335000
  H    -78.665100   53.342800  119.499000

 Total Charge           Charge          ....    0
 Multiplicity           Mult            ....    1
 Number of Electrons    NEL             ....  134
 Basis Dimension        Dim             ....  322

ORBITAL ENERGIES
----------------

  NO   OCC          E(Eh)            E(eV)
   0   2.0000     -88.966600     -2420.9043
   1   2.0000     -88.965073     -2420.8627
   2   2.0000     -10.329000      -281.0664
   3   2.0000     -10.326725      -281.0045
   4   2.0000     -10.313903      -280.6556
   5   2.0000     -10.307731      -280.4876
   6   2.0000     -10.297520      -280.2098
   7   2.0000     -10.297092      -280.1981
   8   2.0000     -10.294547      -280.1289
   9   2.0000     -10.287998      -279.9507
  10   2.0000     -10.287114      -279.9266
  11   2.0000     -10.286832      -279.9189
  12   2.0000     -10.285809      -279.8911
  13   2.0000     -10.285744      -279.8893
  14   2.0000     -10.282316      -279.7960
  15   2.0000     -10.281526      -279.7745
  16   2.0000      -8.080802      -219.8898
  17   2.0000      -8.080459      -219.8805
  18   2.0000      -6.039197      -164.3349
  19   2.0000      -6.039001      -164.3296
  20   2.0000      -6.035341      -164.2300
  21   2.0000      -6.035110      -164.2237
  22   2.0000      -6.031686      -164.1305
  23   2.0000      -6.030993      -164.1117
  24   2.0000      -1.011599       -27.5270
  25   2.0000      -0.990124       -26.9426
  26   2.0000      -0.919008       -25.0075
  27   2.0000      -0.901491       -24.5308
  28   2.0000      -0.872454       -23.7407
  29   2.0000      -0.850385       -23.1401
  30   2.0000      -0.843630       -22.9564
  31   2.0000      -0.820512       -22.3273
  32   2.0000      -0.780889       -21.2491
  33   2.0000      -0.764967       -20.8158
  34   2.0000      -0.713098       -19.4044
  35   2.0000      -0.690686       -18.7945
  36   2.0000      -0.684053       -18.6140
  37   2.0000      -0.668953       -18.2031
  38   2.0000      -0.641683       -17.4611
  39   2.0000      -0.624135       -16.9836
  40   2.0000      -0.598190       -16.2776
  41   2.0000      -0.576737       -15.6938
  42   2.0000      -0.566971       -15.4281
  43   2.0000      -0.552339       -15.0299
  44   2.0000      -0.524321       -14.2675
  45   2.0000      -0.517498       -14.0818
  46   2.0000      -0.516421       -14.0525
  47   2.0000      -0.511444       -13.9171
  48   2.0000      -0.508655       -13.8412
  49   2.0000      -0.507644       -13.8137
  50   2.0000      -0.489719       -13.3259
  51   2.0000      -0.476207       -12.9583
  52   2.0000      -0.470296       -12.7974
  53   2.0000      -0.462751       -12.5921
  54   2.0000      -0.458882       -12.4868
  55   2.0000      -0.451627       -12.2894
  56   2.0000      -0.445662       -12.1271
  57   2.0000      -0.435671       -11.8552
  58   2.0000      -0.431609       -11.7447
  59   2.0000      -0.422366       -11.4932
  60   2.0000      -0.418554       -11.3894
  61   2.0000      -0.415409       -11.3038
  62   2.0000      -0.409630       -11.1466
  63   2.0000      -0.352664        -9.5965
  64   2.0000      -0.334908        -9.1133
  65   2.0000      -0.324151        -8.8206
  66   2.0000      -0.291339        -7.9278
  67   0.0000       0.035461         0.9649
  68   0.0000       0.073589         2.0024
  69   0.0000       0.102957         2.8016
  70   0.0000       0.120035         3.2663
  71   0.0000       0.140155         3.8138

MULLIKEN ATOMIC CHARGES
-----------------------
   0 S :    0.121158
   1 C :   -0.139965
   2 C :   -0.089936
   3 C :    0.010969
   4 C :   -0.145625
   5 H :    0.013694
   6 C :    0.093564
   7 H :    0.047202
   8 H :    0.012915
   9 C :   -0.114274
  10 H :    0.022235
  11 H :    0.033615
  12 C :   -0.048352
  13 H :    0.037371
  14 H :    0.032798
  15 H :    0.041185
  16 S :    0.101575
  17 C :   -0.073853
  18 C :   -0.004678
  19 C :   -0.018768
  20 C :   -0.148218
  21 H :   -0.005931
  22 C :    0.041246
  23 H :    0.030765
  24 H :    0.019205
  25 C :   -0.126503
  26 H :    0.043737
  27 H :    0.042605
  28 C :   -0.070834
  29 H :    0.046139
  30 H :    0.049406
  31 H :    0.035555
  32 H :    0.051875
  33 H :    0.058123
Sum of atomic charges:   -0.0000000

LOEWDIN ATOMIC CHARGES
----------------------
   0 S :    0.437032
   1 C :   -0.219484
   2 C :   -0.062289
   3 C :   -0.067735
   4 C :   -0.187896
   5 H :    0.031829
   6 C :   -0.045477
   7 H :    0.042056
   8 H :    0.032290
   9 C :   -0.045118
  10 H :    0.012394
  11 H :    0.028467
  12 C :   -0.062518
  13 H :    0.026744
  14 H :    0.028654
  15 H :    0.027514
  16 S :    0.381032
  17 C :   -0.174826
  18 C :   -0.060123
  19 C :   -0.059773
  20 C :   -0.184451
  21 H :    0.023367
  22 C :   -0.041389
  23 H :    0.033159
  24 H :    0.023565
  25 C :   -0.041520
  26 H :    0.024323
  27 H :    0.026472
  28 C :   -0.072920
  29 H :    0.031157
  30 H :    0.028743
  31 H :    0.022910
  32 H :    0.030778
  33 H :    0.033031

  Mayer bond orders larger than 0.100000
B(  0-S ,  1-C ) :   1.1500 B(  0-S ,  4-C ) :   1.1630 B(  1-C ,  2-C ) :   1.6074
B(  1-C , 32-H ) :   0.9723 B(  2-C ,  3-C ) :   1.2528 B(  2-C ,  6-C ) :   0.9975
B(  3-C ,  4-C ) :   1.5783 B(  3-C ,  5-H ) :   0.9902 B(  4-C , 20-C ) :   1.0058
B(  6-C ,  7-H ) :   0.9293 B(  6-C ,  8-H ) :   0.9278 B(  6-C ,  9-C ) :   1.0820
B(  9-C , 10-H ) :   0.9434 B(  9-C , 11-H ) :   0.9553 B(  9-C , 12-C ) :   1.0845
B( 12-C , 13-H ) :   0.9761 B( 12-C , 14-H ) :   0.9744 B( 12-C , 15-H ) :   0.9764
B( 16-S , 17-C ) :   1.1339 B( 16-S , 20-C ) :   1.1263 B( 17-C , 18-C ) :   1.6458
B( 17-C , 33-H ) :   0.9549 B( 18-C , 19-C ) :   1.2263 B( 18-C , 21-H ) :   0.9963
B( 19-C , 20-C ) :   1.6001 B( 19-C , 22-C ) :   1.0670 B( 22-C , 23-H ) :   0.9476
B( 22-C , 24-H ) :   0.9191 B( 22-C , 25-C ) :   1.0315 B( 25-C , 26-H ) :   0.9547
B( 25-C , 27-H ) :   0.9666 B( 25-C , 28-C ) :   1.0652 B( 28-C , 29-H ) :   0.9742
B( 28-C , 30-H ) :   0.9761 B( 28-C , 31-H ) :   0.9791

Dispersion correction           -0.013896352
FINAL SINGLE POINT ENERGY     -1339.874123599774

DIPOLE MOMENT
-------------
                                X             Y             Z
Electronic contribution:      4.53316     -12.06320     -11.33413
Nuclear contribution   :     -4.81175      12.40359      11.58583
                        -----------------------------------------
Total Dipole Moment    :     -0.27859       0.34039       0.25170
                        -----------------------------------------
Magnitude (a.u.)       :      0.50678
Magnitude (Debye)      :      1.28814

Rotational constants in cm-1:     0.019748     0.007799     0.006417
Rotational constants in MHz :   592.025926   233.817812   192.373881

                             ****ORCA TERMINATED NORMALLY****
TOTAL RUN TIME: 0 days 0 hours 0 minutes 33 seconds 337 msec
