                         Program Version 4.2.1 -  RELEASE  -
|  1> ! wB97X-D3 SP def2-SVP
|  2> %pal
|  3> nprocs 16
|  4> end
|  5>
|  6> * xyz 0 1
|  7> S 	 23.4626 	 3.81511 	 73.336
|  8> C 	 24.2091 	 5.08811 	 74.2217
|  9> C 	 24.0146 	 4.89451 	 75.5848
| 10> C 	 23.3213 	 3.61598 	 75.8857
| 11> C 	 22.9481 	 2.98355 	 74.7252
| 12> H 	 23.0422 	 3.28812 	 76.8662
| 13> C 	 24.5272 	 5.8025 	 76.6844
| 14> H 	 25.6024 	 5.68294 	 76.5352
| 15> H 	 24.2378 	 5.15908 	 77.5512
| 16> C 	 24.1023 	 7.25489 	 76.839
| 17> H 	 24.5711 	 7.77575 	 76.0683
| 18> H 	 23.066 	 7.50112 	 76.5275
| 19> C 	 24.5957 	 7.86997 	 78.1389
| 20> H 	 24.1085 	 7.45401 	 79.0182
| 21> H 	 25.659 	 7.7513 	 78.1435
| 22> H 	 24.3168 	 8.93322 	 78.2724
| 23> S 	 23.1656 	 0.239529 	 74.3951
| 24> C 	 21.775 	 -0.721025 	 74.7124
| 25> C 	 20.7064 	 0.0613487 	 75.0961
| 26> C 	 20.9933 	 1.43366 	 75.1737
| 27> C 	 22.3046 	 1.69744 	 74.7661
| 28> H 	 19.7754 	 -0.449367 	 75.3613
| 29> C 	 19.8851 	 2.40639 	 75.6799
| 30> H 	 20.2775 	 3.40042 	 75.7476
| 31> H 	 19.8351 	 2.11781 	 76.7154
| 32> C 	 18.4709 	 2.3399 	 75.035
| 33> H 	 18.0449 	 1.39269 	 75.3094
| 34> H 	 18.4478 	 2.55831 	 73.9547
| 35> C 	 17.567 	 3.45717 	 75.6323
| 36> H 	 18.0341 	 4.44206 	 75.5875
| 37> H 	 17.3247 	 3.3058 	 76.7228
| 38> H 	 16.632 	 3.5193 	 75.0935
| 39> H 	 24.7973 	 5.95658 	 73.7917
| 40> H 	 21.7438 	 -1.75703 	 74.5135
| 41> *
| 42>
| 43>                          ****END OF INPUT****

CARTESIAN COORDINATES (ANGSTROEM)
---------------------------------
  S     23.462600    3.815110   73.336000
  C     24.209100    5.088110   74.221700
  C     24.014600    4.894510   75.584800
  C     23.321300    3.615980   75.885700
  C     22.948100    2.983550   74.725200
  H     23.042200    3.288120   76.866200
  C     24.527200    5.802500   76.684400
  H     25.602400    5.682940   76.535200
  H     24.237800    5.159080   77.551200
  C     24.102300    7.254890   76.839000
  H     24.571100    7.775750   76.068300
  H     23.066000    7.501120   76.527500
  C     24.595700    7.869970   78.138900
  H     24.108500    7.454010   79.018200
  H     25.659000    7.751300   78.143500
  H     24.316800    8.933220   78.272400
  S     23.165600    0.239529   74.395100
  C     21.775000   -0.721025   74.712400
  C     20.706400    0.061349   75.096100
  C     20.993300    1.433660   75.173700
  C     22.304600    1.697440   74.766100
  H     19.775400   -0.449367   75.361300
  C     19.885100    2.406390   75.679900
  H     20.277500    3.400420   75.747600
  H     19.835100    2.117810   76.715400
  C     18.470900    2.339900   75.035000
  H     18.044900    1.392690   75.309400
  H     18.447800    2.558310   73.954700
  C     17.567000    3.457170   75.632300
  H     18.034100    4.442060   75.587500
  H     17.324700    3.305800   76.722800
  H     16.632000    3.519300   75.093500
  H     24.797300    5.956580   73.791700
  H     21.743800   -1.757030   74.513500

 Total Charge           Charge          ....    0
 Multiplicity           Mult            ....    1
 Number of Electrons    NEL             ....  134
 Basis Dimension        Dim             ....  322

ORBITAL ENERGIES
----------------

  NO   OCC          E(Eh)            E(eV)
   0   2.0000     -88.964925     -2420.8587
   1   2.0000     -88.964245     -2420.8402
   2   2.0000     -10.320054      -280.8229
   3   2.0000     -10.319510      -280.8081
   4   2.0000     -10.313904      -280.6556
   5   2.0000     -10.308981      -280.5216
   6   2.0000     -10.302239      -280.3382
   7   2.0000     -10.301249      -280.3112
   8   2.0000     -10.292686      -280.0782
   9   2.0000     -10.291738      -280.0524
  10   2.0000     -10.291653      -280.0501
  11   2.0000     -10.290588      -280.0211
  12   2.0000     -10.287898      -279.9479
  13   2.0000     -10.283605      -279.8311
  14   2.0000     -10.280245      -279.7397
  15   2.0000     -10.278859      -279.7020
  16   2.0000      -8.080824      -219.8904
  17   2.0000      -8.079763      -219.8615
  18   2.0000      -6.039307      -164.3379
  19   2.0000      -6.038087      -164.3047
  20   2.0000      -6.034992      -164.2205
  21   2.0000      -6.034120      -164.1967
  22   2.0000      -6.031720      -164.1314
  23   2.0000      -6.030732      -164.1046
  24   2.0000      -1.010663       -27.5015
  25   2.0000      -0.987214       -26.8635
  26   2.0000      -0.913274       -24.8514
  27   2.0000      -0.903311       -24.5803
  28   2.0000      -0.871841       -23.7240
  29   2.0000      -0.852330       -23.1931
  30   2.0000      -0.849027       -23.1032
  31   2.0000      -0.810300       -22.0494
  32   2.0000      -0.780320       -21.2336
  33   2.0000      -0.769100       -20.9283
  34   2.0000      -0.712059       -19.3761
  35   2.0000      -0.703015       -19.1300
  36   2.0000      -0.696056       -18.9406
  37   2.0000      -0.655318       -17.8321
  38   2.0000      -0.640507       -17.4291
  39   2.0000      -0.611872       -16.6499
  40   2.0000      -0.596116       -16.2211
  41   2.0000      -0.566159       -15.4060
  42   2.0000      -0.565368       -15.3844
  43   2.0000      -0.562183       -15.2978
  44   2.0000      -0.531639       -14.4666
  45   2.0000      -0.525718       -14.3055
  46   2.0000      -0.517910       -14.0930
  47   2.0000      -0.509380       -13.8609
  48   2.0000      -0.501381       -13.6433
  49   2.0000      -0.499347       -13.5879
  50   2.0000      -0.491515       -13.3748
  51   2.0000      -0.474695       -12.9171
  52   2.0000      -0.470396       -12.8001
  53   2.0000      -0.463716       -12.6184
  54   2.0000      -0.456267       -12.4157
  55   2.0000      -0.452768       -12.3205
  56   2.0000      -0.444626       -12.0989
  57   2.0000      -0.441619       -12.0171
  58   2.0000      -0.435436       -11.8488
  59   2.0000      -0.430214       -11.7067
  60   2.0000      -0.416859       -11.3433
  61   2.0000      -0.415100       -11.2954
  62   2.0000      -0.409439       -11.1414
  63   2.0000      -0.337271        -9.1776
  64   2.0000      -0.328000        -8.9253
  65   2.0000      -0.320634        -8.7249
  66   2.0000      -0.303772        -8.2661
  67   0.0000       0.045008         1.2247
  68   0.0000       0.068723         1.8701
  69   0.0000       0.122298         3.3279
  70   0.0000       0.129930         3.5356
  71   0.0000       0.132086         3.5942

MULLIKEN ATOMIC CHARGES
-----------------------
   0 S :    0.130610
   1 C :   -0.151506
   2 C :   -0.129731
   3 C :    0.045028
   4 C :   -0.167340
   5 H :    0.011769
   6 C :    0.039108
   7 H :    0.043897
   8 H :    0.017721
   9 C :   -0.011987
  10 H :   -0.000205
  11 H :    0.027572
  12 C :   -0.048158
  13 H :    0.030581
  14 H :    0.033387
  15 H :    0.033325
  16 S :    0.127978
  17 C :   -0.091183
  18 C :   -0.049461
  19 C :   -0.006300
  20 C :   -0.194325
  21 H :    0.021928
  22 C :    0.082646
  23 H :    0.010994
  24 H :    0.025335
  25 C :   -0.051459
  26 H :    0.031338
  27 H :    0.049937
  28 C :   -0.078006
  29 H :    0.031609
  30 H :    0.032128
  31 H :    0.035381
  32 H :    0.073006
  33 H :    0.044383
Sum of atomic charges:    0.0000000

LOEWDIN ATOMIC CHARGES
----------------------
   0 S :    0.441133
   1 C :   -0.229818
   2 C :   -0.062836
   3 C :   -0.058176
   4 C :   -0.219084
   5 H :    0.028040
   6 C :   -0.041287
   7 H :    0.038518
   8 H :    0.032350
   9 C :   -0.046504
  10 H :    0.016577
  11 H :    0.029736
  12 C :   -0.061134
  13 H :    0.024415
  14 H :    0.025082
  15 H :    0.031145
  16 S :    0.430571
  17 C :   -0.190264
  18 C :   -0.077069
  19 C :   -0.051330
  20 C :   -0.215117
  21 H :    0.032850
  22 C :   -0.027969
  23 H :    0.023408
  24 H :    0.033970
  25 C :   -0.032393
  26 H :    0.021493
  27 H :    0.033013
  28 C :   -0.069518
  29 H :    0.023889
  30 H :    0.027055
  31 H :    0.023868
  32 H :    0.044612
  33 H :    0.020774

  Mayer bond orders larger than 0.100000
B(  0-S ,  1-C ) :   1.1383 B(  0-S ,  4-C ) :   1.1747 B(  1-C ,  2-C ) :   1.6057
B(  1-C , 32-H ) :   0.9649 B(  2-C ,  3-C ) :   1.2458 B(  2-C ,  6-C ) :   1.0045
B(  3-C ,  4-C ) :   1.5656 B(  3-C ,  5-H ) :   0.9929 B(  4-C , 20-C ) :   1.0211
B(  6-C ,  7-H ) :   0.9333 B(  6-C ,  8-H ) :   0.9479 B(  6-C ,  9-C ) :   1.0554
B(  9-C , 10-H ) :   0.9402 B(  9-C , 11-H ) :   0.9566 B(  9-C , 12-C ) :   1.0832
B( 12-C , 13-H ) :   0.9783 B( 12-C , 14-H ) :   0.9747 B( 12-C , 15-H ) :   0.9724
B( 16-S , 17-C ) :   1.1725 B( 16-S , 20-C ) :   1.1643 B( 17-C , 18-C ) :   1.5879
B( 17-C , 20-C ) :   0.1036 B( 17-C , 33-H ) :   0.9724 B( 18-C , 19-C ) :   1.2642
B( 18-C , 21-H ) :   0.9899 B( 19-C , 20-C ) :   1.5785 B( 19-C , 22-C ) :   1.0218
B( 22-C , 23-H ) :   0.9353 B( 22-C , 24-H ) :   0.9322 B( 22-C , 25-C ) :   1.0649
B( 25-C , 26-H ) :   0.9502 B( 25-C , 27-H ) :   0.9603 B( 25-C , 28-C ) :   1.0832
B( 28-C , 29-H ) :   0.9762 B( 28-C , 30-H ) :   0.9753 B( 28-C , 31-H ) :   0.9763

Dispersion correction           -0.013437606
FINAL SINGLE POINT ENERGY     -1339.875659607340

DIPOLE MOMENT
-------------
                                X             Y             Z
Electronic contribution:     12.24681     -19.85885     -16.88836
Nuclear contribution   :    -12.52901      20.17411      17.31319
                        -----------------------------------------
Total Dipole Moment    :     -0.28220       0.31526       0.42483
                        -----------------------------------------
Magnitude (a.u.)       :      0.59959
Magnitude (Debye)      :      1.52404

Rotational constants in cm-1:     0.017389     0.007788     0.006229
Rotational constants in MHz :   521.323073   233.480523   186.752250

                             ****ORCA TERMINATED NORMALLY****
TOTAL RUN TIME: 0 days 0 hours 0 minutes 31 seconds 215 msec
