                         Program Version 4.2.1 -  RELEASE  -
|  1> ! wB97X-D3 SP def2-SVP
|  2> %pal
|  3> nprocs 16
|  4> end
|  5>
|  6> * xyz 0 1
|  7> S 	 -8.16128 	 14.7239 	 80.9793
|  8> C 	 -7.79446 	 13.2014 	 81.6375
|  9> C 	 -6.56767 	 12.741 	 81.1641
| 10> C 	 -5.8715 	 13.6784 	 80.2791
| 11> C 	 -6.54902 	 14.8936 	 80.205
| 12> H 	 -4.93763 	 13.5596 	 79.7828
| 13> C 	 -6.02756 	 11.3427 	 81.434
| 14> H 	 -5.37526 	 11.2847 	 82.2876
| 15> H 	 -5.31443 	 11.1107 	 80.6609
| 16> C 	 -7.03135 	 10.2228 	 81.5302
| 17> H 	 -6.53235 	 9.35326 	 82.0309
| 18> H 	 -7.83555 	 10.462 	 82.3193
| 19> C 	 -7.59506 	 9.68712 	 80.2157
| 20> H 	 -6.73011 	 9.35736 	 79.5554
| 21> H 	 -8.24913 	 8.85242 	 80.3589
| 22> H 	 -8.17777 	 10.5149 	 79.8425
| 23> S 	 -7.27591 	 16.9141 	 78.4375
| 24> C 	 -6.06654 	 17.9597 	 77.7957
| 25> C 	 -4.85 	 17.7472 	 78.4195
| 26> C 	 -4.82592 	 16.5827 	 79.3103
| 27> C 	 -6.04197 	 16.0291 	 79.4399
| 28> H 	 -3.96153 	 18.2637 	 78.1109
| 29> C 	 -3.51678 	 16.1242 	 80.0279
| 30> H 	 -2.84771 	 15.6734 	 79.2799
| 31> H 	 -3.65059 	 15.1774 	 80.5967
| 32> C 	 -2.92358 	 17.1622 	 80.8989
| 33> H 	 -3.75968 	 17.7551 	 81.197
| 34> H 	 -2.29098 	 17.9383 	 80.3459
| 35> C 	 -2.12031 	 16.6028 	 82.0922
| 36> H 	 -1.12204 	 16.1494 	 81.9358
| 37> H 	 -2.62387 	 15.9247 	 82.7847
| 38> H 	 -1.79691 	 17.4732 	 82.6867
| 39> H 	 -8.44022 	 12.6153 	 82.2298
| 40> H 	 -6.25298 	 18.879 	 77.2332
| 41> *
| 42>
| 43>                          ****END OF INPUT****

CARTESIAN COORDINATES (ANGSTROEM)
---------------------------------
  S     -8.161280   14.723900   80.979300
  C     -7.794460   13.201400   81.637500
  C     -6.567670   12.741000   81.164100
  C     -5.871500   13.678400   80.279100
  C     -6.549020   14.893600   80.205000
  H     -4.937630   13.559600   79.782800
  C     -6.027560   11.342700   81.434000
  H     -5.375260   11.284700   82.287600
  H     -5.314430   11.110700   80.660900
  C     -7.031350   10.222800   81.530200
  H     -6.532350    9.353260   82.030900
  H     -7.835550   10.462000   82.319300
  C     -7.595060    9.687120   80.215700
  H     -6.730110    9.357360   79.555400
  H     -8.249130    8.852420   80.358900
  H     -8.177770   10.514900   79.842500
  S     -7.275910   16.914100   78.437500
  C     -6.066540   17.959700   77.795700
  C     -4.850000   17.747200   78.419500
  C     -4.825920   16.582700   79.310300
  C     -6.041970   16.029100   79.439900
  H     -3.961530   18.263700   78.110900
  C     -3.516780   16.124200   80.027900
  H     -2.847710   15.673400   79.279900
  H     -3.650590   15.177400   80.596700
  C     -2.923580   17.162200   80.898900
  H     -3.759680   17.755100   81.197000
  H     -2.290980   17.938300   80.345900
  C     -2.120310   16.602800   82.092200
  H     -1.122040   16.149400   81.935800
  H     -2.623870   15.924700   82.784700
  H     -1.796910   17.473200   82.686700
  H     -8.440220   12.615300   82.229800
  H     -6.252980   18.879000   77.233200

 Total Charge           Charge          ....    0
 Multiplicity           Mult            ....    1
 Number of Electrons    NEL             ....  134
 Basis Dimension        Dim             ....  322

ORBITAL ENERGIES
----------------

  NO   OCC          E(Eh)            E(eV)
   0   2.0000     -88.968883     -2420.9664
   1   2.0000     -88.961487     -2420.7651
   2   2.0000     -10.334380      -281.2128
   3   2.0000     -10.330075      -281.0956
   4   2.0000     -10.319032      -280.7951
   5   2.0000     -10.311793      -280.5982
   6   2.0000     -10.307175      -280.4725
   7   2.0000     -10.305774      -280.4344
   8   2.0000     -10.298193      -280.2281
   9   2.0000     -10.296024      -280.1690
  10   2.0000     -10.295067      -280.1430
  11   2.0000     -10.292061      -280.0612
  12   2.0000     -10.290349      -280.0146
  13   2.0000     -10.287470      -279.9363
  14   2.0000     -10.282656      -279.8053
  15   2.0000     -10.277821      -279.6737
  16   2.0000      -8.083476      -219.9626
  17   2.0000      -8.076239      -219.7656
  18   2.0000      -6.042137      -164.4149
  19   2.0000      -6.037937      -164.3006
  20   2.0000      -6.034840      -164.2164
  21   2.0000      -6.034142      -164.1974
  22   2.0000      -6.030856      -164.1079
  23   2.0000      -6.026775      -163.9969
  24   2.0000      -1.003428       -27.3047
  25   2.0000      -0.982724       -26.7413
  26   2.0000      -0.912055       -24.8183
  27   2.0000      -0.912002       -24.8168
  28   2.0000      -0.873788       -23.7770
  29   2.0000      -0.848215       -23.0811
  30   2.0000      -0.843367       -22.9492
  31   2.0000      -0.812354       -22.1053
  32   2.0000      -0.785414       -21.3722
  33   2.0000      -0.776402       -21.1270
  34   2.0000      -0.707561       -19.2537
  35   2.0000      -0.704515       -19.1708
  36   2.0000      -0.690039       -18.7769
  37   2.0000      -0.662967       -18.0403
  38   2.0000      -0.645131       -17.5549
  39   2.0000      -0.610419       -16.6103
  40   2.0000      -0.596669       -16.2362
  41   2.0000      -0.575180       -15.6514
  42   2.0000      -0.559481       -15.2243
  43   2.0000      -0.555411       -15.1135
  44   2.0000      -0.538361       -14.6496
  45   2.0000      -0.523835       -14.2543
  46   2.0000      -0.515631       -14.0310
  47   2.0000      -0.513900       -13.9839
  48   2.0000      -0.505102       -13.7445
  49   2.0000      -0.502471       -13.6729
  50   2.0000      -0.490700       -13.3526
  51   2.0000      -0.481488       -13.1020
  52   2.0000      -0.471670       -12.8348
  53   2.0000      -0.468965       -12.7612
  54   2.0000      -0.459926       -12.5152
  55   2.0000      -0.448825       -12.2132
  56   2.0000      -0.445306       -12.1174
  57   2.0000      -0.438164       -11.9231
  58   2.0000      -0.433293       -11.7905
  59   2.0000      -0.422160       -11.4876
  60   2.0000      -0.412807       -11.2331
  61   2.0000      -0.406978       -11.0744
  62   2.0000      -0.405037       -11.0216
  63   2.0000      -0.358999        -9.7688
  64   2.0000      -0.330763        -9.0005
  65   2.0000      -0.326418        -8.8823
  66   2.0000      -0.291334        -7.9276
  67   0.0000       0.026649         0.7252
  68   0.0000       0.072188         1.9643
  69   0.0000       0.106200         2.8899
  70   0.0000       0.120542         3.2801
  71   0.0000       0.133450         3.6314

MULLIKEN ATOMIC CHARGES
-----------------------
   0 S :    0.119145
   1 C :   -0.092410
   2 C :   -0.102326
   3 C :    0.024118
   4 C :   -0.122370
   5 H :    0.016061
   6 C :    0.116407
   7 H :    0.030126
   8 H :    0.000202
   9 C :   -0.150642
  10 H :    0.021587
  11 H :    0.031806
  12 C :   -0.021882
  13 H :    0.041229
  14 H :    0.032482
  15 H :    0.037717
  16 S :    0.084366
  17 C :   -0.079825
  18 C :   -0.037420
  19 C :   -0.074593
  20 C :   -0.157414
  21 H :    0.017955
  22 C :    0.073362
  23 H :    0.030552
  24 H :    0.012977
  25 C :   -0.057655
  26 H :    0.036698
  27 H :    0.037541
  28 C :   -0.074390
  29 H :    0.033027
  30 H :    0.042704
  31 H :    0.026949
  32 H :    0.032088
  33 H :    0.071827
Sum of atomic charges:    0.0000000

LOEWDIN ATOMIC CHARGES
----------------------
   0 S :    0.410182
   1 C :   -0.207581
   2 C :   -0.059850
   3 C :   -0.053309
   4 C :   -0.179573
   5 H :    0.027629
   6 C :   -0.038153
   7 H :    0.033753
   8 H :    0.027509
   9 C :   -0.054722
  10 H :    0.024474
  11 H :    0.025712
  12 C :   -0.063538
  13 H :    0.034407
  14 H :    0.022729
  15 H :    0.025902
  16 S :    0.374426
  17 C :   -0.190741
  18 C :   -0.071499
  19 C :   -0.055778
  20 C :   -0.168367
  21 H :    0.027021
  22 C :   -0.039257
  23 H :    0.032801
  24 H :    0.032739
  25 C :   -0.046475
  26 H :    0.028158
  27 H :    0.033036
  28 C :   -0.076263
  29 H :    0.028538
  30 H :    0.026504
  31 H :    0.030945
  32 H :    0.021096
  33 H :    0.037545

  Mayer bond orders larger than 0.100000
B(  0-S ,  1-C ) :   1.1397 B(  0-S ,  4-C ) :   1.1388 B(  1-C ,  2-C ) :   1.6032
B(  1-C , 32-H ) :   0.9741 B(  2-C ,  3-C ) :   1.2306 B(  2-C ,  6-C ) :   1.0155
B(  3-C ,  4-C ) :   1.5619 B(  3-C ,  5-H ) :   0.9932 B(  4-C , 20-C ) :   1.0654
B(  6-C ,  7-H ) :   0.9269 B(  6-C ,  8-H ) :   0.9369 B(  6-C ,  9-C ) :   1.0866
B(  9-C , 10-H ) :   0.9500 B(  9-C , 11-H ) :   0.9489 B(  9-C , 12-C ) :   1.0749
B( 12-C , 13-H ) :   0.9705 B( 12-C , 14-H ) :   0.9740 B( 12-C , 15-H ) :   0.9772
B( 16-S , 17-C ) :   1.1480 B( 16-S , 20-C ) :   1.0987 B( 17-C , 18-C ) :   1.6488
B( 17-C , 33-H ) :   0.9603 B( 18-C , 19-C ) :   1.1954 B( 18-C , 21-H ) :   0.9866
B( 19-C , 20-C ) :   1.6805 B( 19-C , 22-C ) :   1.0352 B( 22-C , 23-H ) :   0.9239
B( 22-C , 24-H ) :   0.9356 B( 22-C , 25-C ) :   1.0533 B( 25-C , 26-H ) :   0.9587
B( 25-C , 27-H ) :   0.9452 B( 25-C , 28-C ) :   1.0884 B( 28-C , 29-H ) :   0.9747
B( 28-C , 30-H ) :   0.9747 B( 28-C , 31-H ) :   0.9717

Dispersion correction           -0.013846697
FINAL SINGLE POINT ENERGY     -1339.869759993611

DIPOLE MOMENT
-------------
                                X             Y             Z
Electronic contribution:    -17.58736      15.52852      -9.04215
Nuclear contribution   :     18.24180     -15.82207       9.20500
                        -----------------------------------------
Total Dipole Moment    :      0.65444      -0.29356       0.16285
                        -----------------------------------------
Magnitude (a.u.)       :      0.73551
Magnitude (Debye)      :      1.86953

Rotational constants in cm-1:     0.019010     0.008072     0.006407
Rotational constants in MHz :   569.919879   241.999381   192.062332

                             ****ORCA TERMINATED NORMALLY****
TOTAL RUN TIME: 0 days 0 hours 0 minutes 34 seconds 130 msec
