                         Program Version 4.2.1 -  RELEASE  -
|  1> ! wB97X-D3 SP def2-SVP
|  2> %pal
|  3> nprocs 16
|  4> end
|  5>
|  6> * xyz 0 1
|  7> S 	 -106.411 	 56.7166 	 121.689
|  8> C 	 -105.355 	 58.0234 	 121.168
|  9> C 	 -104.833 	 57.7675 	 119.887
| 10> C 	 -105.274 	 56.5074 	 119.365
| 11> C 	 -106.289 	 55.9291 	 120.036
| 12> H 	 -104.999 	 56.0667 	 118.477
| 13> C 	 -103.867 	 58.6493 	 119.117
| 14> H 	 -103.305 	 58.1114 	 118.364
| 15> H 	 -103.154 	 58.8886 	 119.807
| 16> C 	 -104.592 	 59.835 	 118.433
| 17> H 	 -103.927 	 60.2608 	 117.713
| 18> H 	 -105.366 	 59.502 	 117.769
| 19> C 	 -105.072 	 60.922 	 119.358
| 20> H 	 -105.288 	 61.8696 	 118.783
| 21> H 	 -105.938 	 60.7155 	 119.974
| 22> H 	 -104.204 	 61.0813 	 120.007
| 23> S 	 -107.093 	 53.3853 	 120.951
| 24> C 	 -107.959 	 52.3414 	 119.915
| 25> C 	 -108.072 	 52.8849 	 118.61
| 26> C 	 -107.519 	 54.2386 	 118.506
| 27> C 	 -106.989 	 54.6876 	 119.704
| 28> H 	 -108.495 	 52.3215 	 117.817
| 29> C 	 -107.545 	 54.7934 	 117.102
| 30> H 	 -107.326 	 55.8221 	 117.15
| 31> H 	 -108.567 	 54.811 	 116.668
| 32> C 	 -106.565 	 54.1693 	 116.18
| 33> H 	 -106.733 	 53.1157 	 116.111
| 34> H 	 -105.561 	 54.3048 	 116.561
| 35> C 	 -106.4 	 55.0036 	 114.903
| 36> H 	 -105.79 	 54.5384 	 114.106
| 37> H 	 -106.261 	 56.0852 	 115.031
| 38> H 	 -107.416 	 54.9719 	 114.448
| 39> H 	 -105.046 	 58.7952 	 121.828
| 40> H 	 -108.244 	 51.3457 	 120.19
| 41> *
| 42>
| 43>                          ****END OF INPUT****

CARTESIAN COORDINATES (ANGSTROEM)
---------------------------------
  S    -106.411000   56.716600  121.689000
  C    -105.355000   58.023400  121.168000
  C    -104.833000   57.767500  119.887000
  C    -105.274000   56.507400  119.365000
  C    -106.289000   55.929100  120.036000
  H    -104.999000   56.066700  118.477000
  C    -103.867000   58.649300  119.117000
  H    -103.305000   58.111400  118.364000
  H    -103.154000   58.888600  119.807000
  C    -104.592000   59.835000  118.433000
  H    -103.927000   60.260800  117.713000
  H    -105.366000   59.502000  117.769000
  C    -105.072000   60.922000  119.358000
  H    -105.288000   61.869600  118.783000
  H    -105.938000   60.715500  119.974000
  H    -104.204000   61.081300  120.007000
  S    -107.093000   53.385300  120.951000
  C    -107.959000   52.341400  119.915000
  C    -108.072000   52.884900  118.610000
  C    -107.519000   54.238600  118.506000
  C    -106.989000   54.687600  119.704000
  H    -108.495000   52.321500  117.817000
  C    -107.545000   54.793400  117.102000
  H    -107.326000   55.822100  117.150000
  H    -108.567000   54.811000  116.668000
  C    -106.565000   54.169300  116.180000
  H    -106.733000   53.115700  116.111000
  H    -105.561000   54.304800  116.561000
  C    -106.400000   55.003600  114.903000
  H    -105.790000   54.538400  114.106000
  H    -106.261000   56.085200  115.031000
  H    -107.416000   54.971900  114.448000
  H    -105.046000   58.795200  121.828000
  H    -108.244000   51.345700  120.190000

 Total Charge           Charge          ....    0
 Multiplicity           Mult            ....    1
 Number of Electrons    NEL             ....  134
 Basis Dimension        Dim             ....  322

ORBITAL ENERGIES
----------------

  NO   OCC          E(Eh)            E(eV)
   0   2.0000     -88.965673     -2420.8790
   1   2.0000     -88.962463     -2420.7917
   2   2.0000     -10.333457      -281.1877
   3   2.0000     -10.331575      -281.1365
   4   2.0000     -10.320287      -280.8293
   5   2.0000     -10.316753      -280.7331
   6   2.0000     -10.308724      -280.5146
   7   2.0000     -10.304163      -280.3905
   8   2.0000     -10.296012      -280.1687
   9   2.0000     -10.288412      -279.9619
  10   2.0000     -10.286946      -279.9220
  11   2.0000     -10.286107      -279.8992
  12   2.0000     -10.285568      -279.8845
  13   2.0000     -10.284025      -279.8426
  14   2.0000     -10.282071      -279.7894
  15   2.0000     -10.278507      -279.6924
  16   2.0000      -8.080419      -219.8794
  17   2.0000      -8.076025      -219.7598
  18   2.0000      -6.038987      -164.3292
  19   2.0000      -6.034837      -164.2163
  20   2.0000      -6.034667      -164.2116
  21   2.0000      -6.031209      -164.1175
  22   2.0000      -6.030896      -164.1090
  23   2.0000      -6.026511      -163.9897
  24   2.0000      -0.999196       -27.1895
  25   2.0000      -0.978156       -26.6170
  26   2.0000      -0.922832       -25.1115
  27   2.0000      -0.912473       -24.8297
  28   2.0000      -0.868995       -23.6465
  29   2.0000      -0.851599       -23.1732
  30   2.0000      -0.846377       -23.0311
  31   2.0000      -0.813175       -22.1276
  32   2.0000      -0.783814       -21.3287
  33   2.0000      -0.773077       -21.0365
  34   2.0000      -0.709935       -19.3183
  35   2.0000      -0.704126       -19.1603
  36   2.0000      -0.696518       -18.9532
  37   2.0000      -0.665111       -18.0986
  38   2.0000      -0.649630       -17.6773
  39   2.0000      -0.621803       -16.9201
  40   2.0000      -0.602638       -16.3986
  41   2.0000      -0.572361       -15.5747
  42   2.0000      -0.568594       -15.4722
  43   2.0000      -0.550847       -14.9893
  44   2.0000      -0.542074       -14.7506
  45   2.0000      -0.530179       -14.4269
  46   2.0000      -0.523111       -14.2346
  47   2.0000      -0.514737       -14.0067
  48   2.0000      -0.509680       -13.8691
  49   2.0000      -0.501382       -13.6433
  50   2.0000      -0.484608       -13.1868
  51   2.0000      -0.482654       -13.1337
  52   2.0000      -0.476172       -12.9573
  53   2.0000      -0.468229       -12.7412
  54   2.0000      -0.457880       -12.4596
  55   2.0000      -0.449603       -12.2343
  56   2.0000      -0.446585       -12.1522
  57   2.0000      -0.435773       -11.8580
  58   2.0000      -0.435164       -11.8414
  59   2.0000      -0.426513       -11.6060
  60   2.0000      -0.420959       -11.4549
  61   2.0000      -0.410136       -11.1604
  62   2.0000      -0.403582       -10.9820
  63   2.0000      -0.352799        -9.6002
  64   2.0000      -0.329809        -8.9746
  65   2.0000      -0.324951        -8.8424
  66   2.0000      -0.289618        -7.8809
  67   0.0000       0.024947         0.6788
  68   0.0000       0.067692         1.8420
  69   0.0000       0.100491         2.7345
  70   0.0000       0.123729         3.3668
  71   0.0000       0.126049         3.4300

MULLIKEN ATOMIC CHARGES
-----------------------
   0 S :    0.082941
   1 C :   -0.109579
   2 C :   -0.106660
   3 C :    0.070453
   4 C :   -0.139499
   5 H :   -0.030702
   6 C :    0.106304
   7 H :    0.014140
   8 H :    0.006111
   9 C :   -0.037568
  10 H :    0.015148
  11 H :    0.016206
  12 C :   -0.062955
  13 H :    0.042189
  14 H :    0.047039
  15 H :    0.021472
  16 S :    0.105521
  17 C :   -0.079506
  18 C :   -0.044190
  19 C :   -0.028893
  20 C :   -0.144907
  21 H :    0.013662
  22 C :    0.070695
  23 H :   -0.007525
  24 H :    0.034714
  25 C :   -0.046704
  26 H :    0.026627
  27 H :    0.025705
  28 C :   -0.062625
  29 H :    0.046370
  30 H :    0.042642
  31 H :    0.010898
  32 H :    0.044966
  33 H :    0.057509
Sum of atomic charges:   -0.0000000

LOEWDIN ATOMIC CHARGES
----------------------
   0 S :    0.357812
   1 C :   -0.186832
   2 C :   -0.053856
   3 C :   -0.050454
   4 C :   -0.159797
   5 H :    0.017796
   6 C :   -0.023116
   7 H :    0.031887
   8 H :    0.018055
   9 C :   -0.037455
  10 H :    0.021665
  11 H :    0.021467
  12 C :   -0.068695
  13 H :    0.034759
  14 H :    0.023862
  15 H :    0.024219
  16 S :    0.402252
  17 C :   -0.189382
  18 C :   -0.069145
  19 C :   -0.044577
  20 C :   -0.185760
  21 H :    0.023397
  22 C :   -0.033723
  23 H :    0.020310
  24 H :    0.036339
  25 C :   -0.039374
  26 H :    0.021930
  27 H :    0.024804
  28 C :   -0.072147
  29 H :    0.031533
  30 H :    0.030070
  31 H :    0.023287
  32 H :    0.022056
  33 H :    0.026814

  Mayer bond orders larger than 0.100000
B(  0-S ,  1-C ) :   1.1335 B(  0-S ,  4-C ) :   1.1106 B(  1-C ,  2-C ) :   1.6138
B(  1-C , 32-H ) :   0.9720 B(  2-C ,  3-C ) :   1.2201 B(  2-C ,  6-C ) :   1.0153
B(  3-C ,  4-C ) :   1.6123 B(  3-C ,  5-H ) :   1.0018 B(  4-C , 20-C ) :   1.0541
B(  6-C ,  7-H ) :   0.9404 B(  6-C ,  8-H ) :   0.9382 B(  6-C ,  9-C ) :   1.0741
B(  9-C , 10-H ) :   0.9524 B(  9-C , 11-H ) :   0.9498 B(  9-C , 12-C ) :   1.0793
B( 12-C , 13-H ) :   0.9713 B( 12-C , 14-H ) :   0.9730 B( 12-C , 15-H ) :   0.9752
B( 16-S , 17-C ) :   1.1723 B( 16-S , 20-C ) :   1.1202 B( 17-C , 18-C ) :   1.5891
B( 17-C , 33-H ) :   0.9703 B( 18-C , 19-C ) :   1.2220 B( 18-C , 21-H ) :   0.9941
B( 19-C , 20-C ) :   1.6159 B( 19-C , 22-C ) :   1.0511 B( 22-C , 23-H ) :   0.9220
B( 22-C , 24-H ) :   0.9297 B( 22-C , 25-C ) :   1.0682 B( 25-C , 26-H ) :   0.9538
B( 25-C , 27-H ) :   0.9505 B( 25-C , 28-C ) :   1.0720 B( 28-C , 29-H ) :   0.9732
B( 28-C , 30-H ) :   0.9722 B( 28-C , 31-H ) :   0.9699

Dispersion correction           -0.014305037
FINAL SINGLE POINT ENERGY     -1339.859278402813

DIPOLE MOMENT
-------------
                                X             Y             Z
Electronic contribution:     -6.92954     -15.35886      24.80182
Nuclear contribution   :      7.23724      15.44473     -25.58177
                        -----------------------------------------
Total Dipole Moment    :      0.30770       0.08587      -0.77996
                        -----------------------------------------
Magnitude (a.u.)       :      0.84284
Magnitude (Debye)      :      2.14234

Rotational constants in cm-1:     0.018019     0.009152     0.006424
Rotational constants in MHz :   540.190691   274.374022   192.592198

                             ****ORCA TERMINATED NORMALLY****
TOTAL RUN TIME: 0 days 0 hours 0 minutes 35 seconds 746 msec
