                         Program Version 4.2.1 -  RELEASE  -
|  1> ! wB97X-D3 SP def2-SVP
|  2> %pal
|  3> nprocs 16
|  4> end
|  5>
|  6> * xyz 0 1
|  7> S 	 39.5091 	 13.1508 	 84.3959
|  8> C 	 40.1709 	 11.8946 	 83.3815
|  9> C 	 39.9807 	 12.2502 	 82.0287
| 10> C 	 39.3934 	 13.5207 	 81.9185
| 11> C 	 39.113 	 14.1893 	 83.0818
| 12> H 	 38.9893 	 14.0308 	 80.9884
| 13> C 	 40.6904 	 11.5708 	 80.8492
| 14> H 	 39.9212 	 11.1787 	 80.1951
| 15> H 	 41.1943 	 10.6941 	 81.1637
| 16> C 	 41.561 	 12.4866 	 80.0228
| 17> H 	 40.981 	 13.2866 	 79.5191
| 18> H 	 42.2895 	 13.0461 	 80.6468
| 19> C 	 42.3704 	 11.7265 	 78.8853
| 20> H 	 42.9029 	 12.5812 	 78.5165
| 21> H 	 43.0646 	 11.1055 	 79.3999
| 22> H 	 41.7355 	 11.1655 	 78.2063
| 23> S 	 37.7041 	 15.6515 	 84.8411
| 24> C 	 36.9988 	 17.1892 	 84.449
| 25> C 	 37.5696 	 17.5884 	 83.2814
| 26> C 	 38.2241 	 16.6301 	 82.4753
| 27> C 	 38.4228 	 15.4835 	 83.2445
| 28> H 	 37.2792 	 18.5413 	 82.8785
| 29> C 	 38.8385 	 17.0471 	 81.1755
| 30> H 	 39.8957 	 16.8081 	 81.0461
| 31> H 	 38.7764 	 18.1381 	 81.174
| 32> C 	 38.0729 	 16.7146 	 79.9187
| 33> H 	 37.0324 	 16.9996 	 80.14
| 34> H 	 38.1342 	 15.6322 	 79.656
| 35> C 	 38.5697 	 17.4336 	 78.6324
| 36> H 	 37.9373 	 17.2125 	 77.7948
| 37> H 	 39.5264 	 16.9461 	 78.3746
| 38> H 	 38.7326 	 18.4823 	 78.8391
| 39> H 	 40.6035 	 11.015 	 83.6629
| 40> H 	 36.2895 	 17.7646 	 84.9522
| 41> *
| 42>
| 43>                          ****END OF INPUT****

CARTESIAN COORDINATES (ANGSTROEM)
---------------------------------
  S     39.509100   13.150800   84.395900
  C     40.170900   11.894600   83.381500
  C     39.980700   12.250200   82.028700
  C     39.393400   13.520700   81.918500
  C     39.113000   14.189300   83.081800
  H     38.989300   14.030800   80.988400
  C     40.690400   11.570800   80.849200
  H     39.921200   11.178700   80.195100
  H     41.194300   10.694100   81.163700
  C     41.561000   12.486600   80.022800
  H     40.981000   13.286600   79.519100
  H     42.289500   13.046100   80.646800
  C     42.370400   11.726500   78.885300
  H     42.902900   12.581200   78.516500
  H     43.064600   11.105500   79.399900
  H     41.735500   11.165500   78.206300
  S     37.704100   15.651500   84.841100
  C     36.998800   17.189200   84.449000
  C     37.569600   17.588400   83.281400
  C     38.224100   16.630100   82.475300
  C     38.422800   15.483500   83.244500
  H     37.279200   18.541300   82.878500
  C     38.838500   17.047100   81.175500
  H     39.895700   16.808100   81.046100
  H     38.776400   18.138100   81.174000
  C     38.072900   16.714600   79.918700
  H     37.032400   16.999600   80.140000
  H     38.134200   15.632200   79.656000
  C     38.569700   17.433600   78.632400
  H     37.937300   17.212500   77.794800
  H     39.526400   16.946100   78.374600
  H     38.732600   18.482300   78.839100
  H     40.603500   11.015000   83.662900
  H     36.289500   17.764600   84.952200

 Total Charge           Charge          ....    0
 Multiplicity           Mult            ....    1
 Number of Electrons    NEL             ....  134
 Basis Dimension        Dim             ....  322

ORBITAL ENERGIES
----------------

  NO   OCC          E(Eh)            E(eV)
   0   2.0000     -88.966856     -2420.9112
   1   2.0000     -88.965328     -2420.8696
   2   2.0000     -10.335466      -281.2423
   3   2.0000     -10.328240      -281.0457
   4   2.0000     -10.311377      -280.5868
   5   2.0000     -10.310800      -280.5711
   6   2.0000     -10.305316      -280.4219
   7   2.0000     -10.301895      -280.3288
   8   2.0000     -10.293087      -280.0891
   9   2.0000     -10.291714      -280.0518
  10   2.0000     -10.290679      -280.0236
  11   2.0000     -10.290245      -280.0118
  12   2.0000     -10.288236      -279.9571
  13   2.0000     -10.287955      -279.9495
  14   2.0000     -10.281412      -279.7714
  15   2.0000     -10.278236      -279.6850
  16   2.0000      -8.081815      -219.9174
  17   2.0000      -8.080352      -219.8776
  18   2.0000      -6.040365      -164.3667
  19   2.0000      -6.038944      -164.3280
  20   2.0000      -6.036186      -164.2530
  21   2.0000      -6.034794      -164.2151
  22   2.0000      -6.032613      -164.1557
  23   2.0000      -6.031022      -164.1124
  24   2.0000      -1.013682       -27.5837
  25   2.0000      -0.990890       -26.9635
  26   2.0000      -0.917647       -24.9705
  27   2.0000      -0.911321       -24.7983
  28   2.0000      -0.871619       -23.7179
  29   2.0000      -0.856464       -23.3056
  30   2.0000      -0.844115       -22.9695
  31   2.0000      -0.818558       -22.2741
  32   2.0000      -0.785238       -21.3674
  33   2.0000      -0.778993       -21.1975
  34   2.0000      -0.711663       -19.3653
  35   2.0000      -0.697301       -18.9745
  36   2.0000      -0.691288       -18.8109
  37   2.0000      -0.667443       -18.1620
  38   2.0000      -0.646952       -17.6045
  39   2.0000      -0.616927       -16.7874
  40   2.0000      -0.605734       -16.4829
  41   2.0000      -0.574975       -15.6459
  42   2.0000      -0.568140       -15.4599
  43   2.0000      -0.560573       -15.2540
  44   2.0000      -0.535578       -14.5738
  45   2.0000      -0.528502       -14.3813
  46   2.0000      -0.519446       -14.1349
  47   2.0000      -0.518272       -14.1029
  48   2.0000      -0.509506       -13.8644
  49   2.0000      -0.504046       -13.7158
  50   2.0000      -0.494731       -13.4623
  51   2.0000      -0.489729       -13.3262
  52   2.0000      -0.470441       -12.8014
  53   2.0000      -0.469495       -12.7756
  54   2.0000      -0.462429       -12.5833
  55   2.0000      -0.449731       -12.2378
  56   2.0000      -0.444669       -12.1001
  57   2.0000      -0.439973       -11.9723
  58   2.0000      -0.428598       -11.6627
  59   2.0000      -0.423853       -11.5336
  60   2.0000      -0.421116       -11.4592
  61   2.0000      -0.415328       -11.3017
  62   2.0000      -0.404685       -11.0120
  63   2.0000      -0.361274        -9.8308
  64   2.0000      -0.336494        -9.1565
  65   2.0000      -0.326692        -8.8897
  66   2.0000      -0.283491        -7.7142
  67   0.0000       0.020083         0.5465
  68   0.0000       0.080841         2.1998
  69   0.0000       0.102129         2.7791
  70   0.0000       0.116430         3.1682
  71   0.0000       0.126074         3.4306

MULLIKEN ATOMIC CHARGES
-----------------------
   0 S :    0.103990
   1 C :   -0.073524
   2 C :   -0.073914
   3 C :   -0.040788
   4 C :   -0.098355
   5 H :    0.018503
   6 C :    0.118793
   7 H :    0.019932
   8 H :   -0.000617
   9 C :   -0.141156
  10 H :    0.029301
  11 H :    0.036338
  12 C :   -0.019890
  13 H :    0.034420
  14 H :    0.025996
  15 H :    0.043350
  16 S :    0.087909
  17 C :   -0.053606
  18 C :   -0.029586
  19 C :   -0.037157
  20 C :   -0.122407
  21 H :    0.006236
  22 C :    0.055958
  23 H :    0.035236
  24 H :    0.008426
  25 C :   -0.118230
  26 H :    0.029628
  27 H :    0.041355
  28 C :   -0.028973
  29 H :    0.039568
  30 H :    0.025466
  31 H :    0.032442
  32 H :    0.010312
  33 H :    0.035042
Sum of atomic charges:    0.0000000

LOEWDIN ATOMIC CHARGES
----------------------
   0 S :    0.418857
   1 C :   -0.185203
   2 C :   -0.059094
   3 C :   -0.082192
   4 C :   -0.204197
   5 H :    0.038264
   6 C :   -0.031931
   7 H :    0.031940
   8 H :    0.021737
   9 C :   -0.040873
  10 H :    0.021336
  11 H :    0.026170
  12 C :   -0.054754
  13 H :    0.029307
  14 H :    0.019579
  15 H :    0.025157
  16 S :    0.406039
  17 C :   -0.180802
  18 C :   -0.067115
  19 C :   -0.064130
  20 C :   -0.170394
  21 H :    0.023353
  22 C :   -0.035128
  23 H :    0.031384
  24 H :    0.033188
  25 C :   -0.043913
  26 H :    0.023367
  27 H :    0.021031
  28 C :   -0.061065
  29 H :    0.026942
  30 H :    0.027606
  31 H :    0.021612
  32 H :    0.010050
  33 H :    0.023872

  Mayer bond orders larger than 0.100000
B(  0-S ,  1-C ) :   1.1479 B(  0-S ,  4-C ) :   1.1509 B(  1-C ,  2-C ) :   1.5718
B(  1-C ,  4-C ) :   0.1037 B(  1-C , 32-H ) :   0.9823 B(  2-C ,  3-C ) :   1.2644
B(  2-C ,  6-C ) :   1.0295 B(  3-C ,  4-C ) :   1.5786 B(  3-C ,  5-H ) :   0.9780
B(  4-C , 20-C ) :   1.0571 B(  6-C ,  7-H ) :   0.9218 B(  6-C ,  8-H ) :   0.9461
B(  6-C ,  9-C ) :   1.0703 B(  9-C , 10-H ) :   0.9505 B(  9-C , 11-H ) :   0.9603
B(  9-C , 12-C ) :   1.0674 B( 12-C , 13-H ) :   0.9771 B( 12-C , 14-H ) :   0.9787
B( 12-C , 15-H ) :   0.9780 B( 16-S , 17-C ) :   1.1397 B( 16-S , 20-C ) :   1.1516
B( 17-C , 18-C ) :   1.6143 B( 17-C , 20-C ) :   0.1007 B( 17-C , 33-H ) :   0.9778
B( 18-C , 19-C ) :   1.2710 B( 18-C , 21-H ) :   0.9719 B( 19-C , 20-C ) :   1.5575
B( 19-C , 22-C ) :   1.0456 B( 22-C , 23-H ) :   0.9390 B( 22-C , 24-H ) :   0.9290
B( 22-C , 25-C ) :   1.0600 B( 25-C , 26-H ) :   0.9515 B( 25-C , 27-H ) :   0.9503
B( 25-C , 28-C ) :   1.0832 B( 28-C , 29-H ) :   0.9741 B( 28-C , 30-H ) :   0.9733
B( 28-C , 31-H ) :   0.9751

Dispersion correction           -0.013629290
FINAL SINGLE POINT ENERGY     -1339.861986819796

DIPOLE MOMENT
-------------
                                X             Y             Z
Electronic contribution:     -9.96584      -1.21340      32.08590
Nuclear contribution   :     10.07258       1.39011     -32.78588
                        -----------------------------------------
Total Dipole Moment    :      0.10674       0.17671      -0.69998
                        -----------------------------------------
Magnitude (a.u.)       :      0.72979
Magnitude (Debye)      :      1.85498

Rotational constants in cm-1:     0.016304     0.009769     0.006285
Rotational constants in MHz :   488.775957   292.861687   188.418269

                             ****ORCA TERMINATED NORMALLY****
TOTAL RUN TIME: 0 days 0 hours 0 minutes 28 seconds 413 msec
