                         Program Version 4.2.1 -  RELEASE  -
|  1> ! wB97X-D3 SP def2-SVP
|  2> %pal
|  3> nprocs 16
|  4> end
|  5>
|  6> * xyz 0 1
|  7> S 	 -1.63832 	 -16.0251 	 86.1246
|  8> C 	 -0.0028726 	 -15.3493 	 86.3028
|  9> C 	 0.177003 	 -14.9226 	 87.6258
| 10> C 	 -0.983979 	 -14.9417 	 88.3715
| 11> C 	 -2.10696 	 -15.3126 	 87.6849
| 12> H 	 -1.16265 	 -14.6937 	 89.4404
| 13> C 	 1.43351 	 -14.3849 	 88.2019
| 14> H 	 2.18915 	 -14.6261 	 87.5734
| 15> H 	 1.73611 	 -14.9336 	 89.0612
| 16> C 	 1.42553 	 -12.838 	 88.425
| 17> H 	 0.529379 	 -12.7357 	 88.9917
| 18> H 	 2.35137 	 -12.556 	 89.0092
| 19> C 	 1.40654 	 -12.067 	 87.1069
| 20> H 	 1.33198 	 -10.9938 	 87.3394
| 21> H 	 2.28072 	 -12.162 	 86.5751
| 22> H 	 0.59668 	 -12.3736 	 86.56
| 23> S 	 -4.28289 	 -16.961 	 88.3413
| 24> C 	 -5.6023 	 -16.3177 	 89.2589
| 25> C 	 -5.30293 	 -15.0344 	 89.6939
| 26> C 	 -4.10789 	 -14.462 	 89.0938
| 27> C 	 -3.42921 	 -15.4043 	 88.2764
| 28> H 	 -5.94252 	 -14.5323 	 90.4142
| 29> C 	 -3.59167 	 -13.0539 	 89.3713
| 30> H 	 -2.7252 	 -13.3621 	 89.9098
| 31> H 	 -4.25524 	 -12.534 	 90.1295
| 32> C 	 -3.17924 	 -12.129 	 88.1679
| 33> H 	 -2.57411 	 -12.5956 	 87.4409
| 34> H 	 -2.71088 	 -11.2513 	 88.4818
| 35> C 	 -4.37478 	 -11.7763 	 87.3055
| 36> H 	 -4.92809 	 -12.6684 	 87.0859
| 37> H 	 -3.85721 	 -11.3843 	 86.431
| 38> H 	 -5.15982 	 -11.1683 	 87.7059
| 39> H 	 0.742853 	 -15.377 	 85.5003
| 40> H 	 -6.53086 	 -16.7847 	 89.4394
| 41> *
| 42>
| 43>                          ****END OF INPUT****

CARTESIAN COORDINATES (ANGSTROEM)
---------------------------------
  S     -1.638320  -16.025100   86.124600
  C     -0.002873  -15.349300   86.302800
  C      0.177003  -14.922600   87.625800
  C     -0.983979  -14.941700   88.371500
  C     -2.106960  -15.312600   87.684900
  H     -1.162650  -14.693700   89.440400
  C      1.433510  -14.384900   88.201900
  H      2.189150  -14.626100   87.573400
  H      1.736110  -14.933600   89.061200
  C      1.425530  -12.838000   88.425000
  H      0.529379  -12.735700   88.991700
  H      2.351370  -12.556000   89.009200
  C      1.406540  -12.067000   87.106900
  H      1.331980  -10.993800   87.339400
  H      2.280720  -12.162000   86.575100
  H      0.596680  -12.373600   86.560000
  S     -4.282890  -16.961000   88.341300
  C     -5.602300  -16.317700   89.258900
  C     -5.302930  -15.034400   89.693900
  C     -4.107890  -14.462000   89.093800
  C     -3.429210  -15.404300   88.276400
  H     -5.942520  -14.532300   90.414200
  C     -3.591670  -13.053900   89.371300
  H     -2.725200  -13.362100   89.909800
  H     -4.255240  -12.534000   90.129500
  C     -3.179240  -12.129000   88.167900
  H     -2.574110  -12.595600   87.440900
  H     -2.710880  -11.251300   88.481800
  C     -4.374780  -11.776300   87.305500
  H     -4.928090  -12.668400   87.085900
  H     -3.857210  -11.384300   86.431000
  H     -5.159820  -11.168300   87.705900
  H      0.742853  -15.377000   85.500300
  H     -6.530860  -16.784700   89.439400

 Total Charge           Charge          ....    0
 Multiplicity           Mult            ....    1
 Number of Electrons    NEL             ....  134
 Basis Dimension        Dim             ....  322

ORBITAL ENERGIES
----------------

  NO   OCC          E(Eh)            E(eV)
   0   2.0000     -88.968289     -2420.9502
   1   2.0000     -88.965149     -2420.8648
   2   2.0000     -10.329939      -281.0919
   3   2.0000     -10.328628      -281.0563
   4   2.0000     -10.323062      -280.9048
   5   2.0000     -10.315262      -280.6926
   6   2.0000     -10.311836      -280.5993
   7   2.0000     -10.300274      -280.2847
   8   2.0000     -10.297277      -280.2032
   9   2.0000     -10.296861      -280.1918
  10   2.0000     -10.292043      -280.0607
  11   2.0000     -10.288787      -279.9721
  12   2.0000     -10.277719      -279.6709
  13   2.0000     -10.276522      -279.6384
  14   2.0000     -10.264694      -279.3165
  15   2.0000     -10.263228      -279.2766
  16   2.0000      -8.082106      -219.9253
  17   2.0000      -8.079660      -219.8587
  18   2.0000      -6.040572      -164.3723
  19   2.0000      -6.038230      -164.3086
  20   2.0000      -6.036884      -164.2720
  21   2.0000      -6.034144      -164.1974
  22   2.0000      -6.032822      -164.1614
  23   2.0000      -6.030422      -164.0961
  24   2.0000      -1.005889       -27.3716
  25   2.0000      -0.982442       -26.7336
  26   2.0000      -0.916189       -24.9308
  27   2.0000      -0.907951       -24.7066
  28   2.0000      -0.868893       -23.6438
  29   2.0000      -0.854263       -23.2457
  30   2.0000      -0.847579       -23.0638
  31   2.0000      -0.815977       -22.2039
  32   2.0000      -0.787187       -21.4204
  33   2.0000      -0.772364       -21.0171
  34   2.0000      -0.713808       -19.4237
  35   2.0000      -0.701926       -19.1004
  36   2.0000      -0.693012       -18.8578
  37   2.0000      -0.658341       -17.9144
  38   2.0000      -0.646094       -17.5811
  39   2.0000      -0.624369       -16.9900
  40   2.0000      -0.589362       -16.0374
  41   2.0000      -0.575360       -15.6563
  42   2.0000      -0.555175       -15.1071
  43   2.0000      -0.552490       -15.0340
  44   2.0000      -0.546843       -14.8804
  45   2.0000      -0.543069       -14.7777
  46   2.0000      -0.525639       -14.3034
  47   2.0000      -0.517424       -14.0798
  48   2.0000      -0.504495       -13.7280
  49   2.0000      -0.492969       -13.4144
  50   2.0000      -0.489302       -13.3146
  51   2.0000      -0.483388       -13.1536
  52   2.0000      -0.475544       -12.9402
  53   2.0000      -0.466537       -12.6951
  54   2.0000      -0.461535       -12.5590
  55   2.0000      -0.446240       -12.1428
  56   2.0000      -0.438080       -11.9208
  57   2.0000      -0.433202       -11.7880
  58   2.0000      -0.431926       -11.7533
  59   2.0000      -0.426591       -11.6081
  60   2.0000      -0.421160       -11.4604
  61   2.0000      -0.419005       -11.4017
  62   2.0000      -0.414326       -11.2744
  63   2.0000      -0.345630        -9.4051
  64   2.0000      -0.332513        -9.0481
  65   2.0000      -0.325789        -8.8652
  66   2.0000      -0.288170        -7.8415
  67   0.0000       0.019280         0.5246
  68   0.0000       0.066259         1.8030
  69   0.0000       0.103463         2.8154
  70   0.0000       0.119461         3.2507
  71   0.0000       0.133942         3.6447

MULLIKEN ATOMIC CHARGES
-----------------------
   0 S :    0.102859
   1 C :   -0.127556
   2 C :   -0.095970
   3 C :    0.000033
   4 C :   -0.165590
   5 H :    0.039556
   6 C :    0.141168
   7 H :   -0.033342
   8 H :    0.020944
   9 C :   -0.082955
  10 H :    0.020416
  11 H :    0.039384
  12 C :    0.007463
  13 H :    0.031500
  14 H :    0.010226
  15 H :    0.021169
  16 S :    0.106255
  17 C :   -0.077758
  18 C :   -0.041867
  19 C :   -0.079170
  20 C :   -0.144862
  21 H :    0.020045
  22 C :    0.063788
  23 H :    0.015814
  24 H :    0.032182
  25 C :   -0.012476
  26 H :    0.033062
  27 H :    0.017461
  28 C :   -0.049092
  29 H :    0.027444
  30 H :    0.034506
  31 H :    0.019812
  32 H :    0.057300
  33 H :    0.048247
Sum of atomic charges:   -0.0000000

LOEWDIN ATOMIC CHARGES
----------------------
   0 S :    0.384007
   1 C :   -0.185712
   2 C :   -0.064124
   3 C :   -0.062416
   4 C :   -0.186234
   5 H :    0.041898
   6 C :   -0.028519
   7 H :    0.010809
   8 H :    0.031975
   9 C :   -0.027812
  10 H :    0.016214
  11 H :    0.029904
  12 C :   -0.050243
  13 H :    0.032342
  14 H :    0.014943
  15 H :    0.014229
  16 S :    0.403356
  17 C :   -0.186417
  18 C :   -0.074563
  19 C :   -0.051263
  20 C :   -0.202751
  21 H :    0.030242
  22 C :   -0.036332
  23 H :    0.025737
  24 H :    0.037235
  25 C :   -0.025827
  26 H :    0.025187
  27 H :    0.017775
  28 C :   -0.061397
  29 H :    0.024188
  30 H :    0.029951
  31 H :    0.016602
  32 H :    0.031931
  33 H :    0.025086

  Mayer bond orders larger than 0.100000
B(  0-S ,  1-C ) :   1.1411 B(  0-S ,  4-C ) :   1.1385 B(  1-C ,  2-C ) :   1.5677
B(  1-C ,  4-C ) :   0.1097 B(  1-C , 32-H ) :   0.9709 B(  2-C ,  3-C ) :   1.2496
B(  2-C ,  6-C ) :   1.0423 B(  3-C ,  4-C ) :   1.5608 B(  3-C ,  5-H ) :   0.9839
B(  4-C , 20-C ) :   1.0672 B(  6-C ,  7-H ) :   0.9184 B(  6-C ,  8-H ) :   0.9299
B(  6-C ,  9-C ) :   1.0547 B(  9-C , 10-H ) :   0.9614 B(  9-C , 11-H ) :   0.9562
B(  9-C , 12-C ) :   1.0801 B( 12-C , 13-H ) :   0.9706 B( 12-C , 14-H ) :   0.9724
B( 12-C , 15-H ) :   0.9752 B( 16-S , 17-C ) :   1.1633 B( 16-S , 20-C ) :   1.1372
B( 17-C , 18-C ) :   1.5891 B( 17-C , 20-C ) :   0.1007 B( 17-C , 33-H ) :   0.9735
B( 18-C , 19-C ) :   1.2579 B( 18-C , 21-H ) :   0.9894 B( 19-C , 20-C ) :   1.5606
B( 19-C , 22-C ) :   1.0140 B( 22-C , 23-H ) :   0.9276 B( 22-C , 24-H ) :   0.9411
B( 22-C , 25-C ) :   1.0693 B( 25-C , 26-H ) :   0.9585 B( 25-C , 27-H ) :   0.9549
B( 25-C , 28-C ) :   1.0668 B( 28-C , 29-H ) :   0.9744 B( 28-C , 30-H ) :   0.9797
B( 28-C , 31-H ) :   0.9761

Dispersion correction           -0.016176004
FINAL SINGLE POINT ENERGY     -1339.849233335148

DIPOLE MOMENT
-------------
                                X             Y             Z
Electronic contribution:    -10.93397     -25.31514      -3.31892
Nuclear contribution   :     11.27473      25.78597       3.70864
                        -----------------------------------------
Total Dipole Moment    :      0.34076       0.47083       0.38973
                        -----------------------------------------
Magnitude (a.u.)       :      0.69978
Magnitude (Debye)      :      1.77869

Rotational constants in cm-1:     0.020126     0.009835     0.007869
Rotational constants in MHz :   603.376525   294.844483   235.913022

                             ****ORCA TERMINATED NORMALLY****
TOTAL RUN TIME: 0 days 0 hours 0 minutes 35 seconds 204 msec
