                         Program Version 4.2.1 -  RELEASE  -
|  1> ! wB97X-D3 SP def2-SVP
|  2> %pal
|  3> nprocs 16
|  4> end
|  5>
|  6> * xyz 0 1
|  7> S 	 -0.464528 	 17.6564 	 53.4595
|  8> C 	 -1.31069 	 16.3876 	 52.6092
|  9> C 	 -1.99254 	 16.8945 	 51.4865
| 10> C 	 -1.63367 	 18.2491 	 51.2822
| 11> C 	 -0.89974 	 18.8548 	 52.2883
| 12> H 	 -1.93281 	 18.7962 	 50.4067
| 13> C 	 -2.93662 	 16.0512 	 50.5507
| 14> H 	 -2.22719 	 15.909 	 49.7186
| 15> H 	 -3.90049 	 16.6004 	 50.3341
| 16> C 	 -3.30699 	 14.6186 	 51.12
| 17> H 	 -2.50906 	 14.0446 	 51.5344
| 18> H 	 -3.95541 	 14.7146 	 51.9592
| 19> C 	 -3.98885 	 13.6903 	 50.0809
| 20> H 	 -4.42226 	 12.8433 	 50.6177
| 21> H 	 -4.78155 	 14.1937 	 49.5626
| 22> H 	 -3.25968 	 13.398 	 49.3405
| 23> S 	 0.104686 	 20.7996 	 53.9033
| 24> C 	 0.239346 	 22.4522 	 53.3139
| 25> C 	 0.0612788 	 22.5012 	 51.9781
| 26> C 	 -0.215651 	 21.2406 	 51.3506
| 27> C 	 -0.358635 	 20.2274 	 52.2904
| 28> H 	 0.142968 	 23.4962 	 51.4555
| 29> C 	 -0.242624 	 21.1643 	 49.8587
| 30> H 	 -0.579396 	 22.1479 	 49.4503
| 31> H 	 -1.00098 	 20.4852 	 49.4346
| 32> C 	 1.11792 	 20.9841 	 49.1338
| 33> H 	 1.74317 	 21.8091 	 49.4236
| 34> H 	 1.05253 	 21.0649 	 48.0315
| 35> C 	 1.73593 	 19.6731 	 49.6676
| 36> H 	 2.79004 	 19.5368 	 49.2699
| 37> H 	 1.08512 	 18.7751 	 49.5473
| 38> H 	 1.98035 	 19.8817 	 50.7194
| 39> H 	 -1.31184 	 15.4153 	 52.9628
| 40> H 	 0.379848 	 23.3961 	 53.9515
| 41> *
| 42>
| 43>                          ****END OF INPUT****

CARTESIAN COORDINATES (ANGSTROEM)
---------------------------------
  S     -0.464528   17.656400   53.459500
  C     -1.310690   16.387600   52.609200
  C     -1.992540   16.894500   51.486500
  C     -1.633670   18.249100   51.282200
  C     -0.899740   18.854800   52.288300
  H     -1.932810   18.796200   50.406700
  C     -2.936620   16.051200   50.550700
  H     -2.227190   15.909000   49.718600
  H     -3.900490   16.600400   50.334100
  C     -3.306990   14.618600   51.120000
  H     -2.509060   14.044600   51.534400
  H     -3.955410   14.714600   51.959200
  C     -3.988850   13.690300   50.080900
  H     -4.422260   12.843300   50.617700
  H     -4.781550   14.193700   49.562600
  H     -3.259680   13.398000   49.340500
  S      0.104686   20.799600   53.903300
  C      0.239346   22.452200   53.313900
  C      0.061279   22.501200   51.978100
  C     -0.215651   21.240600   51.350600
  C     -0.358635   20.227400   52.290400
  H      0.142968   23.496200   51.455500
  C     -0.242624   21.164300   49.858700
  H     -0.579396   22.147900   49.450300
  H     -1.000980   20.485200   49.434600
  C      1.117920   20.984100   49.133800
  H      1.743170   21.809100   49.423600
  H      1.052530   21.064900   48.031500
  C      1.735930   19.673100   49.667600
  H      2.790040   19.536800   49.269900
  H      1.085120   18.775100   49.547300
  H      1.980350   19.881700   50.719400
  H     -1.311840   15.415300   52.962800
  H      0.379848   23.396100   53.951500

 Total Charge           Charge          ....    0
 Multiplicity           Mult            ....    1
 Number of Electrons    NEL             ....  134
 Basis Dimension        Dim             ....  322

ORBITAL ENERGIES
----------------

  NO   OCC          E(Eh)            E(eV)
   0   2.0000     -88.966433     -2420.8997
   1   2.0000     -88.963671     -2420.8246
   2   2.0000     -10.334966      -281.2287
   3   2.0000     -10.331333      -281.1299
   4   2.0000     -10.320722      -280.8411
   5   2.0000     -10.311673      -280.5949
   6   2.0000     -10.310815      -280.5716
   7   2.0000     -10.307798      -280.4894
   8   2.0000     -10.306467      -280.4532
   9   2.0000     -10.295573      -280.1568
  10   2.0000     -10.294965      -280.1402
  11   2.0000     -10.291355      -280.0420
  12   2.0000     -10.287755      -279.9440
  13   2.0000     -10.287575      -279.9391
  14   2.0000     -10.278494      -279.6920
  15   2.0000     -10.276423      -279.6357
  16   2.0000      -8.081487      -219.9084
  17   2.0000      -8.078341      -219.8228
  18   2.0000      -6.040055      -164.3582
  19   2.0000      -6.037010      -164.2754
  20   2.0000      -6.035889      -164.2449
  21   2.0000      -6.032965      -164.1653
  22   2.0000      -6.032243      -164.1457
  23   2.0000      -6.028830      -164.0528
  24   2.0000      -1.007787       -27.4233
  25   2.0000      -0.985222       -26.8093
  26   2.0000      -0.908565       -24.7233
  27   2.0000      -0.904089       -24.6015
  28   2.0000      -0.868375       -23.6297
  29   2.0000      -0.851483       -23.1700
  30   2.0000      -0.841244       -22.8914
  31   2.0000      -0.813301       -22.1310
  32   2.0000      -0.778525       -21.1847
  33   2.0000      -0.770669       -20.9710
  34   2.0000      -0.712495       -19.3880
  35   2.0000      -0.701260       -19.0822
  36   2.0000      -0.686848       -18.6901
  37   2.0000      -0.660048       -17.9608
  38   2.0000      -0.639294       -17.3961
  39   2.0000      -0.619107       -16.8468
  40   2.0000      -0.594151       -16.1677
  41   2.0000      -0.574381       -15.6297
  42   2.0000      -0.558908       -15.2087
  43   2.0000      -0.546511       -14.8713
  44   2.0000      -0.540255       -14.7011
  45   2.0000      -0.521928       -14.2024
  46   2.0000      -0.515182       -14.0188
  47   2.0000      -0.512907       -13.9569
  48   2.0000      -0.504877       -13.7384
  49   2.0000      -0.498775       -13.5724
  50   2.0000      -0.494318       -13.4511
  51   2.0000      -0.478855       -13.0303
  52   2.0000      -0.470769       -12.8103
  53   2.0000      -0.462834       -12.5944
  54   2.0000      -0.460850       -12.5404
  55   2.0000      -0.445840       -12.1319
  56   2.0000      -0.438283       -11.9263
  57   2.0000      -0.432550       -11.7703
  58   2.0000      -0.431003       -11.7282
  59   2.0000      -0.426736       -11.6121
  60   2.0000      -0.421361       -11.4658
  61   2.0000      -0.414683       -11.2841
  62   2.0000      -0.409417       -11.1408
  63   2.0000      -0.360663        -9.8141
  64   2.0000      -0.335418        -9.1272
  65   2.0000      -0.326182        -8.8759
  66   2.0000      -0.281942        -7.6720
  67   0.0000       0.019562         0.5323
  68   0.0000       0.082467         2.2440
  69   0.0000       0.098835         2.6894
  70   0.0000       0.117833         3.2064
  71   0.0000       0.139185         3.7874

MULLIKEN ATOMIC CHARGES
-----------------------
   0 S :    0.105424
   1 C :   -0.113778
   2 C :   -0.087970
   3 C :   -0.021927
   4 C :   -0.065250
   5 H :   -0.008852
   6 C :    0.051483
   7 H :    0.051183
   8 H :    0.062877
   9 C :   -0.100836
  10 H :    0.023551
  11 H :    0.024200
  12 C :   -0.030785
  13 H :    0.037725
  14 H :    0.022161
  15 H :    0.033755
  16 S :    0.076752
  17 C :   -0.105270
  18 C :   -0.053170
  19 C :   -0.060563
  20 C :   -0.114090
  21 H :    0.038903
  22 C :    0.022657
  23 H :    0.016312
  24 H :    0.031577
  25 C :   -0.048950
  26 H :    0.016652
  27 H :    0.038075
  28 C :   -0.086678
  29 H :    0.032655
  30 H :    0.053613
  31 H :    0.050145
  32 H :    0.024194
  33 H :    0.084225
Sum of atomic charges:    0.0000000

LOEWDIN ATOMIC CHARGES
----------------------
   0 S :    0.414518
   1 C :   -0.191753
   2 C :   -0.059317
   3 C :   -0.071220
   4 C :   -0.198212
   5 H :    0.023920
   6 C :   -0.028360
   7 H :    0.040225
   8 H :    0.043301
   9 C :   -0.042315
  10 H :    0.018909
  11 H :    0.019478
  12 C :   -0.057682
  13 H :    0.030111
  14 H :    0.019670
  15 H :    0.023650
  16 S :    0.379945
  17 C :   -0.194851
  18 C :   -0.078584
  19 C :   -0.065319
  20 C :   -0.170717
  21 H :    0.042480
  22 C :   -0.038869
  23 H :    0.032790
  24 H :    0.026771
  25 C :   -0.037364
  26 H :    0.020283
  27 H :    0.025667
  28 C :   -0.077522
  29 H :    0.028288
  30 H :    0.030092
  31 H :    0.031367
  32 H :    0.009847
  33 H :    0.050771

  Mayer bond orders larger than 0.100000
B(  0-S ,  1-C ) :   1.1485 B(  0-S ,  4-C ) :   1.1532 B(  1-C ,  2-C ) :   1.5783
B(  1-C ,  4-C ) :   0.1047 B(  1-C , 32-H ) :   0.9775 B(  2-C ,  3-C ) :   1.2848
B(  2-C ,  6-C ) :   0.9877 B(  3-C ,  4-C ) :   1.5556 B(  3-C ,  5-H ) :   0.9987
B(  4-C , 20-C ) :   1.0566 B(  6-C ,  7-H ) :   0.9431 B(  6-C ,  8-H ) :   0.9471
B(  6-C ,  9-C ) :   1.0700 B(  9-C , 10-H ) :   0.9520 B(  9-C , 11-H ) :   0.9588
B(  9-C , 12-C ) :   1.0851 B( 12-C , 13-H ) :   0.9731 B( 12-C , 14-H ) :   0.9763
B( 12-C , 15-H ) :   0.9786 B( 16-S , 17-C ) :   1.1276 B( 16-S , 20-C ) :   1.1253
B( 17-C , 18-C ) :   1.6580 B( 17-C , 33-H ) :   0.9536 B( 18-C , 19-C ) :   1.2233
B( 18-C , 21-H ) :   0.9774 B( 19-C , 20-C ) :   1.6019 B( 19-C , 22-C ) :   1.0483
B( 22-C , 23-H ) :   0.9265 B( 22-C , 24-H ) :   0.9423 B( 22-C , 25-C ) :   1.0698
B( 25-C , 26-H ) :   0.9514 B( 25-C , 27-H ) :   0.9574 B( 25-C , 28-C ) :   1.0728
B( 28-C , 29-H ) :   0.9717 B( 28-C , 30-H ) :   0.9760 B( 28-C , 31-H ) :   0.9694

Dispersion correction           -0.014545435
FINAL SINGLE POINT ENERGY     -1339.872976520543

DIPOLE MOMENT
-------------
                                X             Y             Z
Electronic contribution:      5.92673      12.03349      22.48362
Nuclear contribution   :     -6.15399     -12.04990     -23.08813
                        -----------------------------------------
Total Dipole Moment    :     -0.22727      -0.01641      -0.60450
                        -----------------------------------------
Magnitude (a.u.)       :      0.64602
Magnitude (Debye)      :      1.64206

Rotational constants in cm-1:     0.023633     0.007433     0.006258
Rotational constants in MHz :   708.484981   222.829180   187.604392

                             ****ORCA TERMINATED NORMALLY****
TOTAL RUN TIME: 0 days 0 hours 0 minutes 34 seconds 448 msec
