                         Program Version 4.2.1 -  RELEASE  -
|  1> ! wB97X-D3 SP def2-SVP
|  2> %pal
|  3> nprocs 16
|  4> end
|  5>
|  6> * xyz 0 1
|  7> S 	 9.56362 	 23.7635 	 67.0491
|  8> C 	 8.21032 	 23.5383 	 66.0507
|  9> C 	 7.47508 	 24.7119 	 65.9921
| 10> C 	 8.05793 	 25.7929 	 66.6378
| 11> C 	 9.14222 	 25.4372 	 67.4772
| 12> H 	 7.63052 	 26.8059 	 66.6552
| 13> C 	 6.24226 	 24.8537 	 65.1541
| 14> H 	 6.44474 	 24.1763 	 64.3538
| 15> H 	 6.25409 	 25.8947 	 64.7217
| 16> C 	 4.91881 	 24.4801 	 65.8691
| 17> H 	 4.04475 	 24.6974 	 65.215
| 18> H 	 4.88194 	 23.3772 	 66.1761
| 19> C 	 4.71875 	 25.2708 	 67.2086
| 20> H 	 4.76512 	 26.3529 	 66.9515
| 21> H 	 3.76205 	 25.1175 	 67.7432
| 22> H 	 5.47981 	 24.9182 	 67.9394
| 23> S 	 10.0675 	 25.618 	 70.0324
| 24> C 	 11.0806 	 26.9462 	 70.4352
| 25> C 	 11.1598 	 27.864 	 69.3977
| 26> C 	 10.4935 	 27.4621 	 68.2374
| 27> C 	 9.96789 	 26.1841 	 68.4028
| 28> H 	 11.4816 	 28.8446 	 69.5725
| 29> C 	 10.3406 	 28.2947 	 66.9844
| 30> H 	 10.5531 	 29.293 	 67.1684
| 31> H 	 9.32562 	 28.4414 	 66.7062
| 32> C 	 11.0242 	 27.8389 	 65.6913
| 33> H 	 10.6829 	 28.4417 	 64.8293
| 34> H 	 10.8749 	 26.7929 	 65.3543
| 35> C 	 12.5909 	 28.0866 	 65.7139
| 36> H 	 12.8672 	 29.0332 	 66.1289
| 37> H 	 12.9385 	 27.947 	 64.7003
| 38> H 	 12.994 	 27.3102 	 66.333
| 39> H 	 7.96389 	 22.7411 	 65.3842
| 40> H 	 11.3176 	 27.0973 	 71.4423
| 41> *
| 42>
| 43>                          ****END OF INPUT****

CARTESIAN COORDINATES (ANGSTROEM)
---------------------------------
  S      9.563620   23.763500   67.049100
  C      8.210320   23.538300   66.050700
  C      7.475080   24.711900   65.992100
  C      8.057930   25.792900   66.637800
  C      9.142220   25.437200   67.477200
  H      7.630520   26.805900   66.655200
  C      6.242260   24.853700   65.154100
  H      6.444740   24.176300   64.353800
  H      6.254090   25.894700   64.721700
  C      4.918810   24.480100   65.869100
  H      4.044750   24.697400   65.215000
  H      4.881940   23.377200   66.176100
  C      4.718750   25.270800   67.208600
  H      4.765120   26.352900   66.951500
  H      3.762050   25.117500   67.743200
  H      5.479810   24.918200   67.939400
  S     10.067500   25.618000   70.032400
  C     11.080600   26.946200   70.435200
  C     11.159800   27.864000   69.397700
  C     10.493500   27.462100   68.237400
  C      9.967890   26.184100   68.402800
  H     11.481600   28.844600   69.572500
  C     10.340600   28.294700   66.984400
  H     10.553100   29.293000   67.168400
  H      9.325620   28.441400   66.706200
  C     11.024200   27.838900   65.691300
  H     10.682900   28.441700   64.829300
  H     10.874900   26.792900   65.354300
  C     12.590900   28.086600   65.713900
  H     12.867200   29.033200   66.128900
  H     12.938500   27.947000   64.700300
  H     12.994000   27.310200   66.333000
  H      7.963890   22.741100   65.384200
  H     11.317600   27.097300   71.442300

 Total Charge           Charge          ....    0
 Multiplicity           Mult            ....    1
 Number of Electrons    NEL             ....  134
 Basis Dimension        Dim             ....  322

ORBITAL ENERGIES
----------------

  NO   OCC          E(Eh)            E(eV)
   0   2.0000     -88.969226     -2420.9757
   1   2.0000     -88.965571     -2420.8763
   2   2.0000     -10.331222      -281.1268
   3   2.0000     -10.322950      -280.9017
   4   2.0000     -10.312055      -280.6053
   5   2.0000     -10.306952      -280.4664
   6   2.0000     -10.301608      -280.3210
   7   2.0000     -10.297319      -280.2043
   8   2.0000     -10.294137      -280.1177
   9   2.0000     -10.292141      -280.0634
  10   2.0000     -10.290921      -280.0302
  11   2.0000     -10.289783      -279.9992
  12   2.0000     -10.287218      -279.9294
  13   2.0000     -10.284948      -279.8677
  14   2.0000     -10.281148      -279.7643
  15   2.0000     -10.267032      -279.3801
  16   2.0000      -8.084921      -220.0019
  17   2.0000      -8.080422      -219.8795
  18   2.0000      -6.043109      -164.4414
  19   2.0000      -6.039338      -164.3388
  20   2.0000      -6.038756      -164.3229
  21   2.0000      -6.035913      -164.2456
  22   2.0000      -6.034671      -164.2117
  23   2.0000      -6.031586      -164.1278
  24   2.0000      -1.012895       -27.5623
  25   2.0000      -0.991956       -26.9925
  26   2.0000      -0.908221       -24.7140
  27   2.0000      -0.907655       -24.6985
  28   2.0000      -0.868449       -23.6317
  29   2.0000      -0.851657       -23.1748
  30   2.0000      -0.842959       -22.9381
  31   2.0000      -0.813709       -22.1421
  32   2.0000      -0.789060       -21.4714
  33   2.0000      -0.768961       -20.9245
  34   2.0000      -0.708322       -19.2744
  35   2.0000      -0.693174       -18.8622
  36   2.0000      -0.691242       -18.8096
  37   2.0000      -0.670559       -18.2468
  38   2.0000      -0.636610       -17.3230
  39   2.0000      -0.618099       -16.8193
  40   2.0000      -0.603388       -16.4190
  41   2.0000      -0.571131       -15.5413
  42   2.0000      -0.552340       -15.0299
  43   2.0000      -0.547279       -14.8922
  44   2.0000      -0.542453       -14.7609
  45   2.0000      -0.538969       -14.6661
  46   2.0000      -0.516517       -14.0551
  47   2.0000      -0.508531       -13.8378
  48   2.0000      -0.500986       -13.6325
  49   2.0000      -0.492680       -13.4065
  50   2.0000      -0.488193       -13.2844
  51   2.0000      -0.483049       -13.1444
  52   2.0000      -0.470382       -12.7997
  53   2.0000      -0.467253       -12.7146
  54   2.0000      -0.462097       -12.5743
  55   2.0000      -0.447710       -12.1828
  56   2.0000      -0.445557       -12.1242
  57   2.0000      -0.440019       -11.9735
  58   2.0000      -0.434628       -11.8268
  59   2.0000      -0.420734       -11.4488
  60   2.0000      -0.413421       -11.2497
  61   2.0000      -0.412362       -11.2210
  62   2.0000      -0.407210       -11.0807
  63   2.0000      -0.345258        -9.3949
  64   2.0000      -0.335522        -9.1300
  65   2.0000      -0.330193        -8.9850
  66   2.0000      -0.287195        -7.8150
  67   0.0000       0.027053         0.7362
  68   0.0000       0.063234         1.7207
  69   0.0000       0.108900         2.9633
  70   0.0000       0.117570         3.1993
  71   0.0000       0.143653         3.9090

MULLIKEN ATOMIC CHARGES
-----------------------
   0 S :    0.118040
   1 C :   -0.088554
   2 C :   -0.142338
   3 C :    0.037809
   4 C :   -0.182797
   5 H :    0.020656
   6 C :    0.073998
   7 H :    0.014875
   8 H :    0.035013
   9 C :   -0.083563
  10 H :    0.041620
  11 H :    0.041853
  12 C :   -0.098053
  13 H :    0.033997
  14 H :    0.038386
  15 H :    0.058523
  16 S :    0.132858
  17 C :   -0.075785
  18 C :   -0.016189
  19 C :   -0.012518
  20 C :   -0.165196
  21 H :   -0.001927
  22 C :    0.143008
  23 H :   -0.015097
  24 H :    0.004989
  25 C :   -0.109946
  26 H :    0.023513
  27 H :    0.047583
  28 C :   -0.039286
  29 H :    0.020919
  30 H :    0.030437
  31 H :    0.034194
  32 H :    0.037484
  33 H :    0.041496
Sum of atomic charges:    0.0000000

LOEWDIN ATOMIC CHARGES
----------------------
   0 S :    0.427594
   1 C :   -0.218871
   2 C :   -0.076077
   3 C :   -0.064018
   4 C :   -0.189840
   5 H :    0.032598
   6 C :   -0.034305
   7 H :    0.026734
   8 H :    0.036584
   9 C :   -0.044728
  10 H :    0.025786
  11 H :    0.031368
  12 C :   -0.078720
  13 H :    0.024110
  14 H :    0.026718
  15 H :    0.032456
  16 S :    0.445669
  17 C :   -0.186381
  18 C :   -0.062312
  19 C :   -0.049810
  20 C :   -0.213989
  21 H :    0.023465
  22 C :   -0.030229
  23 H :    0.023320
  24 H :    0.029760
  25 C :   -0.035883
  26 H :    0.023269
  27 H :    0.029582
  28 C :   -0.060856
  29 H :    0.016391
  30 H :    0.023832
  31 H :    0.022910
  32 H :    0.028321
  33 H :    0.015549

  Mayer bond orders larger than 0.100000
B(  0-S ,  1-C ) :   1.1622 B(  0-S ,  4-C ) :   1.1750 B(  1-C ,  2-C ) :   1.5594
B(  1-C ,  4-C ) :   0.1181 B(  1-C , 32-H ) :   0.9666 B(  2-C ,  3-C ) :   1.3083
B(  2-C ,  6-C ) :   1.0100 B(  3-C ,  4-C ) :   1.5107 B(  3-C ,  5-H ) :   0.9881
B(  4-C , 20-C ) :   1.0397 B(  6-C ,  7-H ) :   0.9386 B(  6-C ,  8-H ) :   0.9458
B(  6-C ,  9-C ) :   1.0617 B(  9-C , 10-H ) :   0.9595 B(  9-C , 11-H ) :   0.9568
B(  9-C , 12-C ) :   1.0706 B( 12-C , 13-H ) :   0.9764 B( 12-C , 14-H ) :   0.9758
B( 12-C , 15-H ) :   0.9711 B( 16-S , 17-C ) :   1.1820 B( 16-S , 20-C ) :   1.1847
B( 17-C , 18-C ) :   1.5466 B( 17-C , 20-C ) :   0.1096 B( 17-C , 33-H ) :   0.9765
B( 18-C , 19-C ) :   1.2959 B( 18-C , 21-H ) :   0.9957 B( 19-C , 20-C ) :   1.5349
B( 19-C , 22-C ) :   1.0453 B( 22-C , 23-H ) :   0.9190 B( 22-C , 24-H ) :   0.9213
B( 22-C , 25-C ) :   1.0710 B( 25-C , 26-H ) :   0.9573 B( 25-C , 27-H ) :   0.9595
B( 25-C , 28-C ) :   1.0681 B( 28-C , 29-H ) :   0.9781 B( 28-C , 30-H ) :   0.9775
B( 28-C , 31-H ) :   0.9810

Dispersion correction           -0.015334548
FINAL SINGLE POINT ENERGY     -1339.872804677804

DIPOLE MOMENT
-------------
                                X             Y             Z
Electronic contribution:      9.46988     -11.07771      14.99828
Nuclear contribution   :     -9.83087      11.56831     -15.24664
                        -----------------------------------------
Total Dipole Moment    :     -0.36099       0.49060      -0.24836
                        -----------------------------------------
Magnitude (a.u.)       :      0.65779
Magnitude (Debye)      :      1.67197

Rotational constants in cm-1:     0.019577     0.008890     0.007812
Rotational constants in MHz :   586.915080   266.507022   234.208386

                             ****ORCA TERMINATED NORMALLY****
TOTAL RUN TIME: 0 days 0 hours 0 minutes 36 seconds 751 msec
