                         Program Version 4.2.1 -  RELEASE  -
|  1> ! wB97X-D3 SP def2-SVP
|  2> %pal
|  3> nprocs 16
|  4> end
|  5>
|  6> * xyz 0 1
|  7> S 	 -2.11811 	 75.6829 	 56.624
|  8> C 	 -1.61922 	 73.9645 	 56.826
|  9> C 	 -2.30251 	 73.1276 	 55.924
| 10> C 	 -2.8908 	 73.898 	 54.9127
| 11> C 	 -3.09136 	 75.2468 	 55.2359
| 12> H 	 -3.38964 	 73.5189 	 53.9878
| 13> C 	 -2.13463 	 71.5577 	 55.8645
| 14> H 	 -1.09726 	 71.1987 	 55.8372
| 15> H 	 -2.50264 	 71.3082 	 54.8703
| 16> C 	 -3.05264 	 70.819 	 56.863
| 17> H 	 -2.87538 	 71.2166 	 57.8784
| 18> H 	 -3.9655 	 71.2216 	 56.6527
| 19> C 	 -3.16325 	 69.2152 	 56.8725
| 20> H 	 -3.47795 	 68.7688 	 55.9637
| 21> H 	 -2.22505 	 68.7005 	 57.0602
| 22> H 	 -3.86583 	 68.9819 	 57.6528
| 23> S 	 -5.21314 	 76.9554 	 55.1229
| 24> C 	 -5.64238 	 77.5463 	 53.5595
| 25> C 	 -4.64488 	 77.4284 	 52.6472
| 26> C 	 -3.58551 	 76.5679 	 53.1528
| 27> C 	 -3.85566 	 76.1674 	 54.4124
| 28> H 	 -4.71803 	 77.8747 	 51.649
| 29> C 	 -2.41511 	 76.2803 	 52.3041
| 30> H 	 -2.79118 	 76.0355 	 51.2998
| 31> H 	 -1.83404 	 75.471 	 52.7471
| 32> C 	 -1.50448 	 77.5809 	 52.1408
| 33> H 	 -1.95681 	 78.2853 	 51.4851
| 34> H 	 -0.628742 	 77.2412 	 51.6165
| 35> C 	 -1.23978 	 78.4187 	 53.4336
| 36> H 	 -0.819446 	 77.8722 	 54.2704
| 37> H 	 -2.22931 	 78.6526 	 53.7693
| 38> H 	 -0.851632 	 79.3993 	 53.2153
| 39> H 	 -0.933916 	 73.608 	 57.5805
| 40> H 	 -6.5821 	 78.1134 	 53.4466
| 41> *
| 42>
| 43>                          ****END OF INPUT****

CARTESIAN COORDINATES (ANGSTROEM)
---------------------------------
  S     -2.118110   75.682900   56.624000
  C     -1.619220   73.964500   56.826000
  C     -2.302510   73.127600   55.924000
  C     -2.890800   73.898000   54.912700
  C     -3.091360   75.246800   55.235900
  H     -3.389640   73.518900   53.987800
  C     -2.134630   71.557700   55.864500
  H     -1.097260   71.198700   55.837200
  H     -2.502640   71.308200   54.870300
  C     -3.052640   70.819000   56.863000
  H     -2.875380   71.216600   57.878400
  H     -3.965500   71.221600   56.652700
  C     -3.163250   69.215200   56.872500
  H     -3.477950   68.768800   55.963700
  H     -2.225050   68.700500   57.060200
  H     -3.865830   68.981900   57.652800
  S     -5.213140   76.955400   55.122900
  C     -5.642380   77.546300   53.559500
  C     -4.644880   77.428400   52.647200
  C     -3.585510   76.567900   53.152800
  C     -3.855660   76.167400   54.412400
  H     -4.718030   77.874700   51.649000
  C     -2.415110   76.280300   52.304100
  H     -2.791180   76.035500   51.299800
  H     -1.834040   75.471000   52.747100
  C     -1.504480   77.580900   52.140800
  H     -1.956810   78.285300   51.485100
  H     -0.628742   77.241200   51.616500
  C     -1.239780   78.418700   53.433600
  H     -0.819446   77.872200   54.270400
  H     -2.229310   78.652600   53.769300
  H     -0.851632   79.399300   53.215300
  H     -0.933916   73.608000   57.580500
  H     -6.582100   78.113400   53.446600

 Total Charge           Charge          ....    0
 Multiplicity           Mult            ....    1
 Number of Electrons    NEL             ....  134
 Basis Dimension        Dim             ....  322

ORBITAL ENERGIES
----------------

  NO   OCC          E(Eh)            E(eV)
   0   2.0000     -88.971624     -2421.0410
   1   2.0000     -88.961066     -2420.7537
   2   2.0000     -10.327374      -281.0221
   3   2.0000     -10.320254      -280.8284
   4   2.0000     -10.316576      -280.7283
   5   2.0000     -10.315567      -280.7009
   6   2.0000     -10.307922      -280.4928
   7   2.0000     -10.298349      -280.2323
   8   2.0000     -10.296591      -280.1845
   9   2.0000     -10.296222      -280.1744
  10   2.0000     -10.293933      -280.1122
  11   2.0000     -10.291649      -280.0500
  12   2.0000     -10.285320      -279.8778
  13   2.0000     -10.284888      -279.8660
  14   2.0000     -10.280478      -279.7460
  15   2.0000     -10.268519      -279.4206
  16   2.0000      -8.084984      -220.0036
  17   2.0000      -8.077481      -219.7994
  18   2.0000      -6.043430      -164.4501
  19   2.0000      -6.039686      -164.3482
  20   2.0000      -6.035896      -164.2451
  21   2.0000      -6.035850      -164.2438
  22   2.0000      -6.032067      -164.1409
  23   2.0000      -6.027973      -164.0295
  24   2.0000      -1.012226       -27.5441
  25   2.0000      -0.983470       -26.7616
  26   2.0000      -0.906588       -24.6695
  27   2.0000      -0.901609       -24.5340
  28   2.0000      -0.866394       -23.5758
  29   2.0000      -0.847381       -23.0584
  30   2.0000      -0.842906       -22.9366
  31   2.0000      -0.809473       -22.0269
  32   2.0000      -0.787128       -21.4188
  33   2.0000      -0.775560       -21.1041
  34   2.0000      -0.707052       -19.2399
  35   2.0000      -0.706281       -19.2189
  36   2.0000      -0.692260       -18.8373
  37   2.0000      -0.662022       -18.0145
  38   2.0000      -0.638610       -17.3775
  39   2.0000      -0.612919       -16.6784
  40   2.0000      -0.594846       -16.1866
  41   2.0000      -0.561275       -15.2731
  42   2.0000      -0.553987       -15.0747
  43   2.0000      -0.550349       -14.9758
  44   2.0000      -0.536379       -14.5956
  45   2.0000      -0.523580       -14.2473
  46   2.0000      -0.520755       -14.1705
  47   2.0000      -0.509586       -13.8666
  48   2.0000      -0.499439       -13.5904
  49   2.0000      -0.497942       -13.5497
  50   2.0000      -0.487563       -13.2673
  51   2.0000      -0.475786       -12.9468
  52   2.0000      -0.469006       -12.7623
  53   2.0000      -0.462757       -12.5923
  54   2.0000      -0.461026       -12.5451
  55   2.0000      -0.447215       -12.1693
  56   2.0000      -0.442188       -12.0325
  57   2.0000      -0.439330       -11.9548
  58   2.0000      -0.436091       -11.8666
  59   2.0000      -0.426706       -11.6113
  60   2.0000      -0.425249       -11.5716
  61   2.0000      -0.414617       -11.2823
  62   2.0000      -0.412953       -11.2370
  63   2.0000      -0.340510        -9.2658
  64   2.0000      -0.337555        -9.1853
  65   2.0000      -0.325445        -8.8558
  66   2.0000      -0.293614        -7.9896
  67   0.0000       0.038034         1.0349
  68   0.0000       0.059946         1.6312
  69   0.0000       0.110660         3.0112
  70   0.0000       0.115260         3.1364
  71   0.0000       0.123359         3.3568

MULLIKEN ATOMIC CHARGES
-----------------------
   0 S :    0.117537
   1 C :   -0.126532
   2 C :   -0.088892
   3 C :    0.011452
   4 C :   -0.163995
   5 H :    0.032264
   6 C :    0.069282
   7 H :    0.038543
   8 H :    0.005624
   9 C :   -0.059004
  10 H :    0.025153
  11 H :    0.006238
  12 C :   -0.023681
  13 H :    0.022428
  14 H :    0.028845
  15 H :    0.038453
  16 S :    0.111031
  17 C :   -0.097734
  18 C :   -0.035817
  19 C :   -0.058081
  20 C :   -0.188909
  21 H :    0.027618
  22 C :    0.101441
  23 H :    0.031400
  24 H :    0.032661
  25 C :   -0.084775
  26 H :    0.015971
  27 H :    0.027980
  28 C :   -0.021680
  29 H :    0.036257
  30 H :    0.020880
  31 H :    0.032106
  32 H :    0.052386
  33 H :    0.063550
Sum of atomic charges:   -0.0000000

LOEWDIN ATOMIC CHARGES
----------------------
   0 S :    0.392983
   1 C :   -0.180849
   2 C :   -0.059800
   3 C :   -0.068915
   4 C :   -0.198733
   5 H :    0.038123
   6 C :   -0.027043
   7 H :    0.028494
   8 H :    0.025717
   9 C :   -0.036134
  10 H :    0.025195
  11 H :    0.013387
  12 C :   -0.058950
  13 H :    0.019373
  14 H :    0.024615
  15 H :    0.029745
  16 S :    0.411944
  17 C :   -0.183689
  18 C :   -0.072556
  19 C :   -0.056745
  20 C :   -0.214809
  21 H :    0.035708
  22 C :   -0.027330
  23 H :    0.035515
  24 H :    0.031316
  25 C :   -0.029989
  26 H :    0.016902
  27 H :    0.018872
  28 C :   -0.065111
  29 H :    0.023174
  30 H :    0.025167
  31 H :    0.027207
  32 H :    0.026277
  33 H :    0.030940

  Mayer bond orders larger than 0.100000
B(  0-S ,  1-C ) :   1.1412 B(  0-S ,  4-C ) :   1.1523 B(  1-C ,  2-C ) :   1.5816
B(  1-C ,  4-C ) :   0.1172 B(  1-C , 32-H ) :   0.9714 B(  2-C ,  3-C ) :   1.2714
B(  2-C ,  6-C ) :   1.0082 B(  3-C ,  4-C ) :   1.5757 B(  3-C ,  5-H ) :   0.9770
B(  4-C , 20-C ) :   1.0263 B(  6-C ,  7-H ) :   0.9531 B(  6-C ,  8-H ) :   0.9423
B(  6-C ,  9-C ) :   1.0472 B(  9-C , 10-H ) :   0.9633 B(  9-C , 11-H ) :   0.9523
B(  9-C , 12-C ) :   1.0688 B( 12-C , 13-H ) :   0.9772 B( 12-C , 14-H ) :   0.9782
B( 12-C , 15-H ) :   0.9765 B( 16-S , 17-C ) :   1.1505 B( 16-S , 20-C ) :   1.1286
B( 17-C , 18-C ) :   1.6375 B( 17-C , 33-H ) :   0.9662 B( 18-C , 19-C ) :   1.1780
B( 18-C , 21-H ) :   0.9925 B( 19-C , 20-C ) :   1.6410 B( 19-C , 22-C ) :   1.0655
B( 22-C , 23-H ) :   0.9307 B( 22-C , 24-H ) :   0.9264 B( 22-C , 25-C ) :   1.0598
B( 25-C , 26-H ) :   0.9561 B( 25-C , 27-H ) :   0.9621 B( 25-C , 28-C ) :   1.0721
B( 28-C , 29-H ) :   0.9768 B( 28-C , 30-H ) :   0.9623 B( 28-C , 31-H ) :   0.9731

Dispersion correction           -0.015096491
FINAL SINGLE POINT ENERGY     -1339.861137440903

DIPOLE MOMENT
-------------
                                X             Y             Z
Electronic contribution:     -8.49269      14.63864       6.49969
Nuclear contribution   :      8.52990     -14.90801      -6.94047
                        -----------------------------------------
Total Dipole Moment    :      0.03720      -0.26937      -0.44078
                        -----------------------------------------
Magnitude (a.u.)       :      0.51791
Magnitude (Debye)      :      1.31643

Rotational constants in cm-1:     0.023163     0.007211     0.006789
Rotational constants in MHz :   694.417756   216.182065   203.541658

                             ****ORCA TERMINATED NORMALLY****
TOTAL RUN TIME: 0 days 0 hours 0 minutes 33 seconds 721 msec
