                         Program Version 4.2.1 -  RELEASE  -
|  1> ! wB97X-D3 SP def2-SVP
|  2> %pal
|  3> nprocs 16
|  4> end
|  5>
|  6> * xyz 0 1
|  7> S 	 -42.6473 	 27.3379 	 87.8403
|  8> C 	 -42.8834 	 28.9475 	 88.4822
|  9> C 	 -42.9837 	 29.9296 	 87.4837
| 10> C 	 -42.8465 	 29.287 	 86.1924
| 11> C 	 -42.7677 	 27.9429 	 86.2122
| 12> H 	 -42.7667 	 29.814 	 85.2827
| 13> C 	 -43.0374 	 31.4367 	 87.6866
| 14> H 	 -43.437 	 31.9282 	 86.8007
| 15> H 	 -41.9844 	 31.7422 	 87.7115
| 16> C 	 -43.839 	 31.8293 	 88.92
| 17> H 	 -44.8569 	 31.425 	 88.7167
| 18> H 	 -43.4921 	 31.4007 	 89.8917
| 19> C 	 -43.8235 	 33.3275 	 89.1624
| 20> H 	 -43.947 	 34.0001 	 88.2837
| 21> H 	 -44.59 	 33.5567 	 89.8423
| 22> H 	 -42.8522 	 33.6512 	 89.5466
| 23> S 	 -43.7395 	 25.6266 	 84.7588
| 24> C 	 -42.8693 	 25.143 	 83.3845
| 25> C 	 -41.667 	 25.8644 	 83.2229
| 26> C 	 -41.5472 	 26.9409 	 84.1592
| 27> C 	 -42.5913 	 27.0337 	 85.0501
| 28> H 	 -40.8987 	 25.733 	 82.4167
| 29> C 	 -40.2907 	 27.7121 	 84.2011
| 30> H 	 -39.3896 	 27.1269 	 84.1109
| 31> H 	 -40.1434 	 28.0738 	 85.2251
| 32> C 	 -40.1702 	 28.9095 	 83.3438
| 33> H 	 -39.1009 	 29.1704 	 83.259
| 34> H 	 -40.5785 	 29.784 	 83.8028
| 35> C 	 -40.7719 	 28.7457 	 81.8942
| 36> H 	 -40.6205 	 29.6793 	 81.3682
| 37> H 	 -41.8335 	 28.485 	 81.8465
| 38> H 	 -40.2275 	 27.9264 	 81.328
| 39> H 	 -43.0139 	 29.2181 	 89.4816
| 40> H 	 -43.2027 	 24.3219 	 82.811
| 41> *
| 42>
| 43>                          ****END OF INPUT****

CARTESIAN COORDINATES (ANGSTROEM)
---------------------------------
  S    -42.647300   27.337900   87.840300
  C    -42.883400   28.947500   88.482200
  C    -42.983700   29.929600   87.483700
  C    -42.846500   29.287000   86.192400
  C    -42.767700   27.942900   86.212200
  H    -42.766700   29.814000   85.282700
  C    -43.037400   31.436700   87.686600
  H    -43.437000   31.928200   86.800700
  H    -41.984400   31.742200   87.711500
  C    -43.839000   31.829300   88.920000
  H    -44.856900   31.425000   88.716700
  H    -43.492100   31.400700   89.891700
  C    -43.823500   33.327500   89.162400
  H    -43.947000   34.000100   88.283700
  H    -44.590000   33.556700   89.842300
  H    -42.852200   33.651200   89.546600
  S    -43.739500   25.626600   84.758800
  C    -42.869300   25.143000   83.384500
  C    -41.667000   25.864400   83.222900
  C    -41.547200   26.940900   84.159200
  C    -42.591300   27.033700   85.050100
  H    -40.898700   25.733000   82.416700
  C    -40.290700   27.712100   84.201100
  H    -39.389600   27.126900   84.110900
  H    -40.143400   28.073800   85.225100
  C    -40.170200   28.909500   83.343800
  H    -39.100900   29.170400   83.259000
  H    -40.578500   29.784000   83.802800
  C    -40.771900   28.745700   81.894200
  H    -40.620500   29.679300   81.368200
  H    -41.833500   28.485000   81.846500
  H    -40.227500   27.926400   81.328000
  H    -43.013900   29.218100   89.481600
  H    -43.202700   24.321900   82.811000

 Total Charge           Charge          ....    0
 Multiplicity           Mult            ....    1
 Number of Electrons    NEL             ....  134
 Basis Dimension        Dim             ....  322

ORBITAL ENERGIES
----------------

  NO   OCC          E(Eh)            E(eV)
   0   2.0000     -88.965457     -2420.8732
   1   2.0000     -88.965304     -2420.8690
   2   2.0000     -10.330399      -281.1045
   3   2.0000     -10.325368      -280.9675
   4   2.0000     -10.318385      -280.7775
   5   2.0000     -10.309594      -280.5383
   6   2.0000     -10.302464      -280.3443
   7   2.0000     -10.300138      -280.2810
   8   2.0000     -10.298127      -280.2263
   9   2.0000     -10.296127      -280.1719
  10   2.0000     -10.294427      -280.1256
  11   2.0000     -10.287594      -279.9397
  12   2.0000     -10.283117      -279.8178
  13   2.0000     -10.280580      -279.7488
  14   2.0000     -10.280133      -279.7366
  15   2.0000     -10.277291      -279.6593
  16   2.0000      -8.080228      -219.8742
  17   2.0000      -8.079852      -219.8639
  18   2.0000      -6.038836      -164.3251
  19   2.0000      -6.038262      -164.3095
  20   2.0000      -6.034777      -164.2146
  21   2.0000      -6.034404      -164.2045
  22   2.0000      -6.030840      -164.1075
  23   2.0000      -6.030713      -164.1040
  24   2.0000      -1.002869       -27.2894
  25   2.0000      -0.982535       -26.7361
  26   2.0000      -0.916254       -24.9325
  27   2.0000      -0.915442       -24.9104
  28   2.0000      -0.864674       -23.5290
  29   2.0000      -0.850941       -23.1553
  30   2.0000      -0.842776       -22.9331
  31   2.0000      -0.810679       -22.0597
  32   2.0000      -0.787873       -21.4391
  33   2.0000      -0.774171       -21.0663
  34   2.0000      -0.710874       -19.3439
  35   2.0000      -0.702107       -19.1053
  36   2.0000      -0.686610       -18.6836
  37   2.0000      -0.660809       -17.9815
  38   2.0000      -0.643794       -17.5185
  39   2.0000      -0.613496       -16.6941
  40   2.0000      -0.598507       -16.2862
  41   2.0000      -0.573555       -15.6072
  42   2.0000      -0.562908       -15.3175
  43   2.0000      -0.556250       -15.1363
  44   2.0000      -0.547900       -14.9091
  45   2.0000      -0.531387       -14.4598
  46   2.0000      -0.519486       -14.1359
  47   2.0000      -0.508448       -13.8356
  48   2.0000      -0.502815       -13.6823
  49   2.0000      -0.496408       -13.5079
  50   2.0000      -0.488775       -13.3003
  51   2.0000      -0.475547       -12.9403
  52   2.0000      -0.470677       -12.8078
  53   2.0000      -0.461888       -12.5686
  54   2.0000      -0.459030       -12.4908
  55   2.0000      -0.450835       -12.2678
  56   2.0000      -0.443979       -12.0813
  57   2.0000      -0.440006       -11.9732
  58   2.0000      -0.434922       -11.8348
  59   2.0000      -0.425657       -11.5827
  60   2.0000      -0.422082       -11.4854
  61   2.0000      -0.418119       -11.3776
  62   2.0000      -0.403280       -10.9738
  63   2.0000      -0.339307        -9.2330
  64   2.0000      -0.333582        -9.0772
  65   2.0000      -0.324075        -8.8185
  66   2.0000      -0.298720        -8.1286
  67   0.0000       0.037892         1.0311
  68   0.0000       0.061967         1.6862
  69   0.0000       0.111820         3.0428
  70   0.0000       0.117815         3.2059
  71   0.0000       0.132820         3.6142

MULLIKEN ATOMIC CHARGES
-----------------------
   0 S :    0.120162
   1 C :   -0.099093
   2 C :   -0.110354
   3 C :    0.034286
   4 C :   -0.138427
   5 H :   -0.010324
   6 C :    0.085906
   7 H :    0.023728
   8 H :    0.042282
   9 C :   -0.128127
  10 H :    0.044808
  11 H :    0.042711
  12 C :   -0.018329
  13 H :    0.024693
  14 H :    0.027863
  15 H :    0.025953
  16 S :    0.103263
  17 C :   -0.076040
  18 C :   -0.042846
  19 C :   -0.013429
  20 C :   -0.180426
  21 H :    0.035598
  22 C :    0.073713
  23 H :    0.024561
  24 H :    0.021180
  25 C :   -0.058439
  26 H :    0.024073
  27 H :    0.015416
  28 C :   -0.085689
  29 H :    0.034634
  30 H :    0.054017
  31 H :    0.030717
  32 H :    0.019418
  33 H :    0.052541
Sum of atomic charges:   -0.0000000

LOEWDIN ATOMIC CHARGES
----------------------
   0 S :    0.409729
   1 C :   -0.192889
   2 C :   -0.056839
   3 C :   -0.058863
   4 C :   -0.195682
   5 H :    0.022949
   6 C :   -0.032232
   7 H :    0.031314
   8 H :    0.036395
   9 C :   -0.044995
  10 H :    0.031599
  11 H :    0.029536
  12 C :   -0.064598
  13 H :    0.026092
  14 H :    0.021025
  15 H :    0.025926
  16 S :    0.394796
  17 C :   -0.185745
  18 C :   -0.077597
  19 C :   -0.050552
  20 C :   -0.181120
  21 H :    0.037410
  22 C :   -0.042820
  23 H :    0.033491
  24 H :    0.037528
  25 C :   -0.037424
  26 H :    0.028937
  27 H :    0.015336
  28 C :   -0.072267
  29 H :    0.023918
  30 H :    0.027623
  31 H :    0.026460
  32 H :    0.012150
  33 H :    0.021413

  Mayer bond orders larger than 0.100000
B(  0-S ,  1-C ) :   1.1359 B(  0-S ,  4-C ) :   1.1421 B(  1-C ,  2-C ) :   1.6205
B(  1-C , 32-H ) :   0.9722 B(  2-C ,  3-C ) :   1.2232 B(  2-C ,  6-C ) :   1.0143
B(  3-C ,  4-C ) :   1.6113 B(  3-C ,  5-H ) :   1.0064 B(  4-C , 20-C ) :   1.0165
B(  6-C ,  7-H ) :   0.9403 B(  6-C ,  8-H ) :   0.9322 B(  6-C ,  9-C ) :   1.0643
B(  9-C , 10-H ) :   0.9617 B(  9-C , 11-H ) :   0.9487 B(  9-C , 12-C ) :   1.0853
B( 12-C , 13-H ) :   0.9731 B( 12-C , 14-H ) :   0.9730 B( 12-C , 15-H ) :   0.9726
B( 16-S , 17-C ) :   1.1876 B( 16-S , 20-C ) :   1.1174 B( 17-C , 18-C ) :   1.5596
B( 17-C , 33-H ) :   0.9743 B( 18-C , 19-C ) :   1.2480 B( 18-C , 21-H ) :   0.9834
B( 19-C , 20-C ) :   1.6042 B( 19-C , 22-C ) :   1.0459 B( 22-C , 23-H ) :   0.9383
B( 22-C , 24-H ) :   0.9188 B( 22-C , 25-C ) :   1.0857 B( 25-C , 26-H ) :   0.9501
B( 25-C , 27-H ) :   0.9523 B( 25-C , 28-C ) :   1.0843 B( 28-C , 29-H ) :   0.9748
B( 28-C , 30-H ) :   0.9687 B( 28-C , 31-H ) :   0.9738

Dispersion correction           -0.014611881
FINAL SINGLE POINT ENERGY     -1339.882097768218

DIPOLE MOMENT
-------------
                                X             Y             Z
Electronic contribution:     -7.33436     -25.86545       2.93638
Nuclear contribution   :      7.69783      26.46520      -3.05262
                        -----------------------------------------
Total Dipole Moment    :      0.36347       0.59976      -0.11624
                        -----------------------------------------
Magnitude (a.u.)       :      0.71086
Magnitude (Debye)      :      1.80687

Rotational constants in cm-1:     0.022223     0.007503     0.006185
Rotational constants in MHz :   666.228451   224.928927   185.436143

                             ****ORCA TERMINATED NORMALLY****
TOTAL RUN TIME: 0 days 0 hours 0 minutes 30 seconds 497 msec
