                         Program Version 4.2.1 -  RELEASE  -
|  1> ! wB97X-D3 SP def2-SVP
|  2> %pal
|  3> nprocs 16
|  4> end
|  5>
|  6> * xyz 0 1
|  7> S 	 12.7454 	 1.68289 	 62.9814
|  8> C 	 11.8881 	 0.600234 	 61.8016
|  9> C 	 12.7485 	 -0.488564 	 61.4895
| 10> C 	 13.9747 	 -0.493176 	 62.2436
| 11> C 	 14.1417 	 0.641474 	 63.0115
| 12> H 	 14.7329 	 -1.26774 	 62.2442
| 13> C 	 12.4845 	 -1.36699 	 60.3431
| 14> H 	 11.4611 	 -1.20299 	 59.8673
| 15> H 	 12.3814 	 -2.30903 	 60.8641
| 16> C 	 13.5765 	 -1.49567 	 59.3052
| 17> H 	 13.6385 	 -0.529573 	 58.719
| 18> H 	 14.4693 	 -1.75366 	 59.7951
| 19> C 	 13.3677 	 -2.70824 	 58.3836
| 20> H 	 12.4272 	 -2.77445 	 57.7331
| 21> H 	 14.1231 	 -2.79926 	 57.609
| 22> H 	 13.4014 	 -3.65484 	 58.9758
| 23> S 	 14.715 	 0.735666 	 65.726
| 24> C 	 16.335 	 0.672963 	 66.2242
| 25> C 	 17.2193 	 0.718677 	 65.1177
| 26> C 	 16.55 	 0.704108 	 63.8968
| 27> C 	 15.1637 	 0.761581 	 64.0353
| 28> H 	 18.2589 	 0.776585 	 65.2686
| 29> C 	 17.2638 	 0.34187 	 62.5888
| 30> H 	 16.7409 	 -0.55513 	 62.1541
| 31> H 	 18.284 	 0.0804238 	 62.8224
| 32> C 	 17.2735 	 1.36997 	 61.4087
| 33> H 	 16.3457 	 1.5455 	 60.9294
| 34> H 	 17.893 	 0.878357 	 60.6052
| 35> C 	 17.7873 	 2.82914 	 61.8537
| 36> H 	 18.7252 	 2.67916 	 62.4854
| 37> H 	 16.9684 	 3.25738 	 62.5245
| 38> H 	 18.0034 	 3.50231 	 61.0008
| 39> H 	 10.8944 	 0.755783 	 61.5106
| 40> H 	 16.668 	 0.406105 	 67.2793
| 41> *
| 42>
| 43>                          ****END OF INPUT****

CARTESIAN COORDINATES (ANGSTROEM)
---------------------------------
  S     12.745400    1.682890   62.981400
  C     11.888100    0.600234   61.801600
  C     12.748500   -0.488564   61.489500
  C     13.974700   -0.493176   62.243600
  C     14.141700    0.641474   63.011500
  H     14.732900   -1.267740   62.244200
  C     12.484500   -1.366990   60.343100
  H     11.461100   -1.202990   59.867300
  H     12.381400   -2.309030   60.864100
  C     13.576500   -1.495670   59.305200
  H     13.638500   -0.529573   58.719000
  H     14.469300   -1.753660   59.795100
  C     13.367700   -2.708240   58.383600
  H     12.427200   -2.774450   57.733100
  H     14.123100   -2.799260   57.609000
  H     13.401400   -3.654840   58.975800
  S     14.715000    0.735666   65.726000
  C     16.335000    0.672963   66.224200
  C     17.219300    0.718677   65.117700
  C     16.550000    0.704108   63.896800
  C     15.163700    0.761581   64.035300
  H     18.258900    0.776585   65.268600
  C     17.263800    0.341870   62.588800
  H     16.740900   -0.555130   62.154100
  H     18.284000    0.080424   62.822400
  C     17.273500    1.369970   61.408700
  H     16.345700    1.545500   60.929400
  H     17.893000    0.878357   60.605200
  C     17.787300    2.829140   61.853700
  H     18.725200    2.679160   62.485400
  H     16.968400    3.257380   62.524500
  H     18.003400    3.502310   61.000800
  H     10.894400    0.755783   61.510600
  H     16.668000    0.406105   67.279300

 Total Charge           Charge          ....    0
 Multiplicity           Mult            ....    1
 Number of Electrons    NEL             ....  134
 Basis Dimension        Dim             ....  322

ORBITAL ENERGIES
----------------

  NO   OCC          E(Eh)            E(eV)
   0   2.0000     -88.969946     -2420.9953
   1   2.0000     -88.965456     -2420.8731
   2   2.0000     -10.329270      -281.0737
   3   2.0000     -10.322601      -280.8922
   4   2.0000     -10.321406      -280.8597
   5   2.0000     -10.318510      -280.7809
   6   2.0000     -10.306984      -280.4673
   7   2.0000     -10.301011      -280.3048
   8   2.0000     -10.298599      -280.2391
   9   2.0000     -10.296606      -280.1849
  10   2.0000     -10.291903      -280.0569
  11   2.0000     -10.291379      -280.0427
  12   2.0000     -10.290950      -280.0310
  13   2.0000     -10.288979      -279.9774
  14   2.0000     -10.288304      -279.9590
  15   2.0000     -10.287626      -279.9405
  16   2.0000      -8.085255      -220.0110
  17   2.0000      -8.079315      -219.8493
  18   2.0000      -6.043527      -164.4527
  19   2.0000      -6.039497      -164.3431
  20   2.0000      -6.037840      -164.2980
  21   2.0000      -6.036404      -164.2589
  22   2.0000      -6.033883      -164.1903
  23   2.0000      -6.030181      -164.0896
  24   2.0000      -1.008743       -27.4493
  25   2.0000      -0.981549       -26.7093
  26   2.0000      -0.919152       -25.0114
  27   2.0000      -0.899607       -24.4796
  28   2.0000      -0.867323       -23.6011
  29   2.0000      -0.846739       -23.0409
  30   2.0000      -0.844388       -22.9770
  31   2.0000      -0.809743       -22.0342
  32   2.0000      -0.779140       -21.2015
  33   2.0000      -0.767860       -20.8945
  34   2.0000      -0.709057       -19.2944
  35   2.0000      -0.699712       -19.0401
  36   2.0000      -0.686076       -18.6691
  37   2.0000      -0.663300       -18.0493
  38   2.0000      -0.643048       -17.4982
  39   2.0000      -0.620868       -16.8947
  40   2.0000      -0.589713       -16.0469
  41   2.0000      -0.572655       -15.5827
  42   2.0000      -0.564845       -15.3702
  43   2.0000      -0.545814       -14.8523
  44   2.0000      -0.534823       -14.5533
  45   2.0000      -0.521785       -14.1985
  46   2.0000      -0.520732       -14.1698
  47   2.0000      -0.512605       -13.9487
  48   2.0000      -0.507311       -13.8046
  49   2.0000      -0.495820       -13.4919
  50   2.0000      -0.485505       -13.2113
  51   2.0000      -0.474265       -12.9054
  52   2.0000      -0.469135       -12.7658
  53   2.0000      -0.460195       -12.5225
  54   2.0000      -0.459020       -12.4906
  55   2.0000      -0.453674       -12.3451
  56   2.0000      -0.438946       -11.9443
  57   2.0000      -0.437259       -11.8984
  58   2.0000      -0.434200       -11.8152
  59   2.0000      -0.427928       -11.6445
  60   2.0000      -0.418065       -11.3761
  61   2.0000      -0.414145       -11.2695
  62   2.0000      -0.410512       -11.1706
  63   2.0000      -0.341806        -9.3010
  64   2.0000      -0.333833        -9.0840
  65   2.0000      -0.322263        -8.7692
  66   2.0000      -0.290423        -7.9028
  67   0.0000       0.029732         0.8091
  68   0.0000       0.059220         1.6114
  69   0.0000       0.109171         2.9707
  70   0.0000       0.118213         3.2167
  71   0.0000       0.123700         3.3660

MULLIKEN ATOMIC CHARGES
-----------------------
   0 S :    0.089324
   1 C :   -0.120960
   2 C :   -0.053141
   3 C :    0.011097
   4 C :   -0.140383
   5 H :    0.022589
   6 C :    0.042033
   7 H :    0.030155
   8 H :    0.020728
   9 C :   -0.030140
  10 H :    0.050608
  11 H :    0.017946
  12 C :   -0.095360
  13 H :    0.036310
  14 H :    0.030735
  15 H :    0.034788
  16 S :    0.144163
  17 C :   -0.132921
  18 C :   -0.039321
  19 C :   -0.007942
  20 C :   -0.173200
  21 H :    0.004509
  22 C :    0.053019
  23 H :    0.033203
  24 H :    0.019772
  25 C :   -0.076496
  26 H :    0.033829
  27 H :    0.032239
  28 C :   -0.111074
  29 H :    0.035821
  30 H :    0.062133
  31 H :    0.051264
  32 H :    0.038291
  33 H :    0.086382
Sum of atomic charges:   -0.0000000

LOEWDIN ATOMIC CHARGES
----------------------
   0 S :    0.380484
   1 C :   -0.176601
   2 C :   -0.052242
   3 C :   -0.063385
   4 C :   -0.192118
   5 H :    0.029739
   6 C :   -0.043644
   7 H :    0.036879
   8 H :    0.032626
   9 C :   -0.035748
  10 H :    0.035778
  11 H :    0.020121
  12 C :   -0.076066
  13 H :    0.029223
  14 H :    0.023413
  15 H :    0.027868
  16 S :    0.447730
  17 C :   -0.218037
  18 C :   -0.070583
  19 C :   -0.058623
  20 C :   -0.211963
  21 H :    0.023722
  22 C :   -0.027525
  23 H :    0.037088
  24 H :    0.027083
  25 C :   -0.042083
  26 H :    0.016634
  27 H :    0.026894
  28 C :   -0.079921
  29 H :    0.025971
  30 H :    0.037012
  31 H :    0.027637
  32 H :    0.016988
  33 H :    0.045650

  Mayer bond orders larger than 0.100000
B(  0-S ,  1-C ) :   1.1183 B(  0-S ,  4-C ) :   1.1543 B(  1-C ,  2-C ) :   1.5897
B(  1-C , 32-H ) :   0.9820 B(  2-C ,  3-C ) :   1.2262 B(  2-C ,  6-C ) :   1.0301
B(  3-C ,  4-C ) :   1.5743 B(  3-C ,  5-H ) :   0.9824 B(  4-C , 20-C ) :   1.0321
B(  6-C ,  7-H ) :   0.9452 B(  6-C ,  8-H ) :   0.9228 B(  6-C ,  9-C ) :   1.0763
B(  9-C , 10-H ) :   0.9545 B(  9-C , 11-H ) :   0.9439 B(  9-C , 12-C ) :   1.0775
B( 12-C , 13-H ) :   0.9757 B( 12-C , 14-H ) :   0.9750 B( 12-C , 15-H ) :   0.9748
B( 16-S , 17-C ) :   1.2022 B( 16-S , 20-C ) :   1.1658 B( 17-C , 18-C ) :   1.5381
B( 17-C , 20-C ) :   0.1080 B( 17-C , 33-H ) :   0.9581 B( 18-C , 19-C ) :   1.3006
B( 18-C , 21-H ) :   0.9987 B( 19-C , 20-C ) :   1.5410 B( 19-C , 22-C ) :   1.0329
B( 22-C , 23-H ) :   0.9373 B( 22-C , 24-H ) :   0.9395 B( 22-C , 25-C ) :   1.0643
B( 25-C , 26-H ) :   0.9600 B( 25-C , 27-H ) :   0.9579 B( 25-C , 28-C ) :   1.0569
B( 28-C , 29-H ) :   0.9800 B( 28-C , 30-H ) :   0.9709 B( 28-C , 31-H ) :   0.9773

Dispersion correction           -0.014945831
FINAL SINGLE POINT ENERGY     -1339.865264026277

DIPOLE MOMENT
-------------
                                X             Y             Z
Electronic contribution:    -10.17301       8.96390      24.74086
Nuclear contribution   :     10.44245      -9.54682     -25.11649
                        -----------------------------------------
Total Dipole Moment    :      0.26945      -0.58292      -0.37563
                        -----------------------------------------
Magnitude (a.u.)       :      0.74397
Magnitude (Debye)      :      1.89103

Rotational constants in cm-1:     0.018573     0.008964     0.007371
Rotational constants in MHz :   556.817796   268.743909   220.969804

                             ****ORCA TERMINATED NORMALLY****
TOTAL RUN TIME: 0 days 0 hours 0 minutes 36 seconds 549 msec
