                         Program Version 4.2.1 -  RELEASE  -
|  1> ! wB97X-D3 SP def2-SVP
|  2> %pal
|  3> nprocs 16
|  4> end
|  5>
|  6> * xyz 0 1
|  7> S 	 36.1798 	 34.0359 	 54.9486
|  8> C 	 37.1546 	 35.119 	 53.9278
|  9> C 	 38.0661 	 35.8303 	 54.6865
| 10> C 	 38.0375 	 35.4179 	 56.0286
| 11> C 	 37.2306 	 34.3709 	 56.3269
| 12> H 	 38.6336 	 35.7778 	 56.7689
| 13> C 	 39.1345 	 36.8157 	 54.0951
| 14> H 	 39.1844 	 36.71 	 53.0477
| 15> H 	 40.062 	 36.4045 	 54.5124
| 16> C 	 38.923 	 38.2502 	 54.4613
| 17> H 	 37.8806 	 38.5904 	 54.3727
| 18> H 	 39.4167 	 38.3981 	 55.4868
| 19> C 	 39.6346 	 39.1035 	 53.447
| 20> H 	 40.5761 	 38.8638 	 53.0965
| 21> H 	 39.0605 	 39.1663 	 52.5406
| 22> H 	 39.5908 	 40.1187 	 53.9294
| 23> S 	 36.5998 	 32.0291 	 57.7393
| 24> C 	 36.0513 	 32.136 	 59.3738
| 25> C 	 36.3722 	 33.3731 	 59.9124
| 26> C 	 36.8453 	 34.3725 	 58.9556
| 27> C 	 37.0079 	 33.7858 	 57.676
| 28> H 	 36.2126 	 33.5056 	 60.9982
| 29> C 	 36.9672 	 35.8339 	 59.2791
| 30> H 	 36.6962 	 36.3478 	 58.3396
| 31> H 	 38.0433 	 35.9025 	 59.2219
| 32> C 	 36.145 	 36.3427 	 60.5069
| 33> H 	 36.3117 	 35.7267 	 61.3507
| 34> H 	 35.1159 	 36.1416 	 60.2052
| 35> C 	 36.3042 	 37.8878 	 60.9403
| 36> H 	 35.9265 	 38.5462 	 60.1846
| 37> H 	 37.3612 	 37.9684 	 61.1113
| 38> H 	 35.554 	 38.0652 	 61.8196
| 39> H 	 37.0308 	 35.2387 	 52.8852
| 40> H 	 35.7705 	 31.2859 	 60.0066
| 41> *
| 42>
| 43>                          ****END OF INPUT****

CARTESIAN COORDINATES (ANGSTROEM)
---------------------------------
  S     36.179800   34.035900   54.948600
  C     37.154600   35.119000   53.927800
  C     38.066100   35.830300   54.686500
  C     38.037500   35.417900   56.028600
  C     37.230600   34.370900   56.326900
  H     38.633600   35.777800   56.768900
  C     39.134500   36.815700   54.095100
  H     39.184400   36.710000   53.047700
  H     40.062000   36.404500   54.512400
  C     38.923000   38.250200   54.461300
  H     37.880600   38.590400   54.372700
  H     39.416700   38.398100   55.486800
  C     39.634600   39.103500   53.447000
  H     40.576100   38.863800   53.096500
  H     39.060500   39.166300   52.540600
  H     39.590800   40.118700   53.929400
  S     36.599800   32.029100   57.739300
  C     36.051300   32.136000   59.373800
  C     36.372200   33.373100   59.912400
  C     36.845300   34.372500   58.955600
  C     37.007900   33.785800   57.676000
  H     36.212600   33.505600   60.998200
  C     36.967200   35.833900   59.279100
  H     36.696200   36.347800   58.339600
  H     38.043300   35.902500   59.221900
  C     36.145000   36.342700   60.506900
  H     36.311700   35.726700   61.350700
  H     35.115900   36.141600   60.205200
  C     36.304200   37.887800   60.940300
  H     35.926500   38.546200   60.184600
  H     37.361200   37.968400   61.111300
  H     35.554000   38.065200   61.819600
  H     37.030800   35.238700   52.885200
  H     35.770500   31.285900   60.006600

 Total Charge           Charge          ....    0
 Multiplicity           Mult            ....    1
 Number of Electrons    NEL             ....  134
 Basis Dimension        Dim             ....  322

ORBITAL ENERGIES
----------------

  NO   OCC          E(Eh)            E(eV)
   0   2.0000     -88.963113     -2420.8094
   1   2.0000     -88.962763     -2420.7998
   2   2.0000     -10.332637      -281.1654
   3   2.0000     -10.328702      -281.0583
   4   2.0000     -10.318090      -280.7695
   5   2.0000     -10.313382      -280.6414
   6   2.0000     -10.311242      -280.5832
   7   2.0000     -10.298949      -280.2487
   8   2.0000     -10.297860      -280.2190
   9   2.0000     -10.296111      -280.1714
  10   2.0000     -10.294692      -280.1328
  11   2.0000     -10.292588      -280.0755
  12   2.0000     -10.290992      -280.0321
  13   2.0000     -10.290737      -280.0252
  14   2.0000     -10.281326      -279.7691
  15   2.0000     -10.272339      -279.5246
  16   2.0000      -8.077368      -219.7964
  17   2.0000      -8.076852      -219.7823
  18   2.0000      -6.035939      -164.2463
  19   2.0000      -6.035491      -164.2341
  20   2.0000      -6.031923      -164.1370
  21   2.0000      -6.031522      -164.1261
  22   2.0000      -6.028112      -164.0333
  23   2.0000      -6.027414      -164.0143
  24   2.0000      -1.000642       -27.2288
  25   2.0000      -0.978813       -26.6349
  26   2.0000      -0.919129       -25.0108
  27   2.0000      -0.905171       -24.6310
  28   2.0000      -0.867130       -23.5958
  29   2.0000      -0.850633       -23.1469
  30   2.0000      -0.841036       -22.8857
  31   2.0000      -0.814623       -22.1670
  32   2.0000      -0.783697       -21.3255
  33   2.0000      -0.771848       -21.0031
  34   2.0000      -0.714698       -19.4479
  35   2.0000      -0.700309       -19.0564
  36   2.0000      -0.693849       -18.8806
  37   2.0000      -0.650264       -17.6946
  38   2.0000      -0.641066       -17.4443
  39   2.0000      -0.624457       -16.9923
  40   2.0000      -0.589349       -16.0370
  41   2.0000      -0.578577       -15.7439
  42   2.0000      -0.567700       -15.4479
  43   2.0000      -0.559985       -15.2380
  44   2.0000      -0.537033       -14.6134
  45   2.0000      -0.529576       -14.4105
  46   2.0000      -0.517226       -14.0744
  47   2.0000      -0.512868       -13.9558
  48   2.0000      -0.505503       -13.7554
  49   2.0000      -0.498634       -13.5685
  50   2.0000      -0.482996       -13.1430
  51   2.0000      -0.476613       -12.9693
  52   2.0000      -0.471294       -12.8246
  53   2.0000      -0.465909       -12.6780
  54   2.0000      -0.458321       -12.4715
  55   2.0000      -0.448839       -12.2135
  56   2.0000      -0.445232       -12.1154
  57   2.0000      -0.441709       -12.0195
  58   2.0000      -0.430973       -11.7274
  59   2.0000      -0.428661       -11.6645
  60   2.0000      -0.426154       -11.5962
  61   2.0000      -0.412055       -11.2126
  62   2.0000      -0.403732       -10.9861
  63   2.0000      -0.347106        -9.4452
  64   2.0000      -0.331751        -9.0274
  65   2.0000      -0.323757        -8.8099
  66   2.0000      -0.289203        -7.8696
  67   0.0000       0.025838         0.7031
  68   0.0000       0.075433         2.0526
  69   0.0000       0.113132         3.0785
  70   0.0000       0.125888         3.4256
  71   0.0000       0.129558         3.5255

MULLIKEN ATOMIC CHARGES
-----------------------
   0 S :    0.101398
   1 C :   -0.123124
   2 C :   -0.061120
   3 C :    0.021647
   4 C :   -0.092586
   5 H :   -0.041281
   6 C :    0.085426
   7 H :    0.001402
   8 H :    0.037243
   9 C :   -0.081219
  10 H :    0.044251
  11 H :    0.044337
  12 C :   -0.040081
  13 H :    0.016280
  14 H :    0.021919
  15 H :    0.036764
  16 S :    0.097225
  17 C :   -0.091438
  18 C :   -0.076043
  19 C :   -0.054449
  20 C :   -0.185226
  21 H :    0.032175
  22 C :    0.065241
  23 H :    0.036628
  24 H :    0.036347
  25 C :   -0.084964
  26 H :    0.032072
  27 H :    0.036177
  28 C :   -0.051342
  29 H :    0.037221
  30 H :    0.047181
  31 H :    0.053008
  32 H :    0.030597
  33 H :    0.068330
Sum of atomic charges:   -0.0000000

LOEWDIN ATOMIC CHARGES
----------------------
   0 S :    0.383384
   1 C :   -0.182610
   2 C :   -0.057085
   3 C :   -0.064130
   4 C :   -0.181767
   5 H :    0.011700
   6 C :   -0.023639
   7 H :    0.019639
   8 H :    0.036642
   9 C :   -0.045978
  10 H :    0.033922
  11 H :    0.032967
  12 C :   -0.063094
  13 H :    0.011201
  14 H :    0.022455
  15 H :    0.034999
  16 S :    0.390719
  17 C :   -0.194655
  18 C :   -0.085064
  19 C :   -0.042828
  20 C :   -0.191870
  21 H :    0.033705
  22 C :   -0.043314
  23 H :    0.038845
  24 H :    0.033094
  25 C :   -0.035188
  26 H :    0.015686
  27 H :    0.028976
  28 C :   -0.062021
  29 H :    0.021433
  30 H :    0.025512
  31 H :    0.043076
  32 H :    0.018812
  33 H :    0.036478

  Mayer bond orders larger than 0.100000
B(  0-S ,  1-C ) :   1.1277 B(  0-S ,  4-C ) :   1.1359 B(  1-C ,  2-C ) :   1.6155
B(  1-C , 32-H ) :   0.9738 B(  2-C ,  3-C ) :   1.2309 B(  2-C ,  6-C ) :   1.0075
B(  3-C ,  4-C ) :   1.5798 B(  3-C ,  5-H ) :   1.0198 B(  4-C , 20-C ) :   1.0501
B(  6-C ,  7-H ) :   0.9474 B(  6-C ,  8-H ) :   0.9386 B(  6-C ,  9-C ) :   1.0655
B(  9-C , 10-H ) :   0.9570 B(  9-C , 11-H ) :   0.9535 B(  9-C , 12-C ) :   1.0846
B( 12-C , 13-H ) :   0.9741 B( 12-C , 14-H ) :   0.9742 B( 12-C , 15-H ) :   0.9741
B( 16-S , 17-C ) :   1.1586 B( 16-S , 20-C ) :   1.1302 B( 17-C , 18-C ) :   1.6206
B( 17-C , 33-H ) :   0.9597 B( 18-C , 19-C ) :   1.2360 B( 18-C , 21-H ) :   0.9786
B( 19-C , 20-C ) :   1.5749 B( 19-C , 22-C ) :   1.0231 B( 22-C , 23-H ) :   0.9306
B( 22-C , 24-H ) :   0.9235 B( 22-C , 25-C ) :   1.0470 B( 25-C , 26-H ) :   0.9557
B( 25-C , 27-H ) :   0.9573 B( 25-C , 28-C ) :   1.0707 B( 28-C , 29-H ) :   0.9785
B( 28-C , 30-H ) :   0.9792 B( 28-C , 31-H ) :   0.9747

Dispersion correction           -0.013289075
FINAL SINGLE POINT ENERGY     -1339.847519985912

DIPOLE MOMENT
-------------
                                X             Y             Z
Electronic contribution:     -8.50043     -29.42752      -4.67542
Nuclear contribution   :      8.74055      30.13245       4.93499
                        -----------------------------------------
Total Dipole Moment    :      0.24011       0.70493       0.25957
                        -----------------------------------------
Magnitude (a.u.)       :      0.78864
Magnitude (Debye)      :      2.00456

Rotational constants in cm-1:     0.016752     0.008321     0.005933
Rotational constants in MHz :   502.200873   249.458643   177.869894

                             ****ORCA TERMINATED NORMALLY****
TOTAL RUN TIME: 0 days 0 hours 0 minutes 33 seconds 548 msec
