                         Program Version 4.2.1 -  RELEASE  -
|  1> ! wB97X-D3 SP def2-SVP
|  2> %pal
|  3> nprocs 16
|  4> end
|  5>
|  6> * xyz 0 1
|  7> S 	 -6.6554 	 -19.6863 	 80.0825
|  8> C 	 -5.80789 	 -20.0726 	 81.5361
|  9> C 	 -5.02612 	 -19.0143 	 81.9205
| 10> C 	 -5.18917 	 -17.8266 	 81.1136
| 11> C 	 -6.14421 	 -17.9667 	 80.1344
| 12> H 	 -4.70857 	 -16.8891 	 81.2233
| 13> C 	 -4.08641 	 -19.0991 	 83.0913
| 14> H 	 -3.13573 	 -18.7048 	 82.7814
| 15> H 	 -3.81463 	 -20.1416 	 83.3437
| 16> C 	 -4.58797 	 -18.3882 	 84.3557
| 17> H 	 -4.8503 	 -17.3679 	 84.0387
| 18> H 	 -5.53001 	 -18.9264 	 84.7116
| 19> C 	 -3.52126 	 -18.5308 	 85.5382
| 20> H 	 -3.48959 	 -19.6334 	 85.7373
| 21> H 	 -2.47915 	 -18.2214 	 85.1601
| 22> H 	 -3.81161 	 -17.9625 	 86.3838
| 23> S 	 -6.54668 	 -17.3628 	 77.3726
| 24> C 	 -7.21373 	 -15.7964 	 77.0213
| 25> C 	 -7.80447 	 -15.1992 	 78.1132
| 26> C 	 -7.35883 	 -15.8074 	 79.3256
| 27> C 	 -6.61355 	 -17.0142 	 79.1514
| 28> H 	 -8.47752 	 -14.312 	 77.9389
| 29> C 	 -7.70892 	 -15.3436 	 80.7908
| 30> H 	 -6.79422 	 -15.4088 	 81.3203
| 31> H 	 -8.43441 	 -16.1575 	 81.0585
| 32> C 	 -8.37867 	 -13.9926 	 81.1392
| 33> H 	 -8.46013 	 -14.1244 	 82.2387
| 34> H 	 -9.41693 	 -13.9441 	 80.7138
| 35> C 	 -7.51037 	 -12.8508 	 80.8399
| 36> H 	 -8.00394 	 -11.9148 	 81.0254
| 37> H 	 -7.43322 	 -12.8071 	 79.7988
| 38> H 	 -6.52659 	 -12.9873 	 81.3534
| 39> H 	 -5.8107 	 -21.0766 	 81.9827
| 40> H 	 -7.50994 	 -15.5487 	 75.9425
| 41> *
| 42>
| 43>                          ****END OF INPUT****

CARTESIAN COORDINATES (ANGSTROEM)
---------------------------------
  S     -6.655400  -19.686300   80.082500
  C     -5.807890  -20.072600   81.536100
  C     -5.026120  -19.014300   81.920500
  C     -5.189170  -17.826600   81.113600
  C     -6.144210  -17.966700   80.134400
  H     -4.708570  -16.889100   81.223300
  C     -4.086410  -19.099100   83.091300
  H     -3.135730  -18.704800   82.781400
  H     -3.814630  -20.141600   83.343700
  C     -4.587970  -18.388200   84.355700
  H     -4.850300  -17.367900   84.038700
  H     -5.530010  -18.926400   84.711600
  C     -3.521260  -18.530800   85.538200
  H     -3.489590  -19.633400   85.737300
  H     -2.479150  -18.221400   85.160100
  H     -3.811610  -17.962500   86.383800
  S     -6.546680  -17.362800   77.372600
  C     -7.213730  -15.796400   77.021300
  C     -7.804470  -15.199200   78.113200
  C     -7.358830  -15.807400   79.325600
  C     -6.613550  -17.014200   79.151400
  H     -8.477520  -14.312000   77.938900
  C     -7.708920  -15.343600   80.790800
  H     -6.794220  -15.408800   81.320300
  H     -8.434410  -16.157500   81.058500
  C     -8.378670  -13.992600   81.139200
  H     -8.460130  -14.124400   82.238700
  H     -9.416930  -13.944100   80.713800
  C     -7.510370  -12.850800   80.839900
  H     -8.003940  -11.914800   81.025400
  H     -7.433220  -12.807100   79.798800
  H     -6.526590  -12.987300   81.353400
  H     -5.810700  -21.076600   81.982700
  H     -7.509940  -15.548700   75.942500

 Total Charge           Charge          ....    0
 Multiplicity           Mult            ....    1
 Number of Electrons    NEL             ....  134
 Basis Dimension        Dim             ....  322

ORBITAL ENERGIES
----------------

  NO   OCC          E(Eh)            E(eV)
   0   2.0000     -88.966118     -2420.8911
   1   2.0000     -88.961185     -2420.7569
   2   2.0000     -10.332531      -281.1625
   3   2.0000     -10.331156      -281.1251
   4   2.0000     -10.323492      -280.9165
   5   2.0000     -10.314456      -280.6706
   6   2.0000     -10.313676      -280.6494
   7   2.0000     -10.302417      -280.3430
   8   2.0000     -10.300287      -280.2851
   9   2.0000     -10.295773      -280.1622
  10   2.0000     -10.295474      -280.1541
  11   2.0000     -10.293113      -280.0898
  12   2.0000     -10.290775      -280.0262
  13   2.0000     -10.289439      -279.9899
  14   2.0000     -10.288499      -279.9643
  15   2.0000     -10.271038      -279.4892
  16   2.0000      -8.080050      -219.8693
  17   2.0000      -8.076025      -219.7598
  18   2.0000      -6.038531      -164.3168
  19   2.0000      -6.034831      -164.2161
  20   2.0000      -6.034582      -164.2093
  21   2.0000      -6.030723      -164.1043
  22   2.0000      -6.030544      -164.0994
  23   2.0000      -6.026697      -163.9948
  24   2.0000      -1.001184       -27.2436
  25   2.0000      -0.980714       -26.6866
  26   2.0000      -0.912659       -24.8347
  27   2.0000      -0.907099       -24.6834
  28   2.0000      -0.870377       -23.6842
  29   2.0000      -0.849262       -23.1096
  30   2.0000      -0.841354       -22.8944
  31   2.0000      -0.815717       -22.1968
  32   2.0000      -0.783129       -21.3100
  33   2.0000      -0.765602       -20.8331
  34   2.0000      -0.706214       -19.2171
  35   2.0000      -0.692407       -18.8414
  36   2.0000      -0.689800       -18.7704
  37   2.0000      -0.650315       -17.6960
  38   2.0000      -0.641487       -17.4558
  39   2.0000      -0.619217       -16.8498
  40   2.0000      -0.595010       -16.1911
  41   2.0000      -0.567506       -15.4426
  42   2.0000      -0.558762       -15.2047
  43   2.0000      -0.555726       -15.1221
  44   2.0000      -0.541397       -14.7322
  45   2.0000      -0.525207       -14.2916
  46   2.0000      -0.517529       -14.0827
  47   2.0000      -0.511708       -13.9243
  48   2.0000      -0.504307       -13.7229
  49   2.0000      -0.498081       -13.5535
  50   2.0000      -0.492950       -13.4139
  51   2.0000      -0.476564       -12.9680
  52   2.0000      -0.474486       -12.9114
  53   2.0000      -0.463913       -12.6237
  54   2.0000      -0.458378       -12.4731
  55   2.0000      -0.445770       -12.1300
  56   2.0000      -0.443044       -12.0559
  57   2.0000      -0.437458       -11.9038
  58   2.0000      -0.434749       -11.8301
  59   2.0000      -0.425438       -11.5768
  60   2.0000      -0.418622       -11.3913
  61   2.0000      -0.409876       -11.1533
  62   2.0000      -0.403813       -10.9883
  63   2.0000      -0.346724        -9.4348
  64   2.0000      -0.329990        -8.9795
  65   2.0000      -0.325655        -8.8615
  66   2.0000      -0.290789        -7.9128
  67   0.0000       0.026362         0.7174
  68   0.0000       0.058129         1.5818
  69   0.0000       0.114971         3.1285
  70   0.0000       0.120201         3.2708
  71   0.0000       0.128804         3.5049

MULLIKEN ATOMIC CHARGES
-----------------------
   0 S :    0.096086
   1 C :   -0.120709
   2 C :   -0.082237
   3 C :    0.060743
   4 C :   -0.168610
   5 H :    0.005260
   6 C :    0.058878
   7 H :    0.016492
   8 H :    0.009902
   9 C :   -0.100900
  10 H :    0.031035
  11 H :    0.039718
  12 C :   -0.054798
  13 H :    0.040429
  14 H :    0.040041
  15 H :    0.042911
  16 S :    0.102917
  17 C :   -0.115411
  18 C :   -0.066543
  19 C :   -0.051439
  20 C :   -0.164310
  21 H :    0.050942
  22 C :    0.038131
  23 H :    0.013845
  24 H :    0.059885
  25 C :   -0.075359
  26 H :    0.035317
  27 H :    0.035207
  28 C :    0.008336
  29 H :    0.024326
  30 H :    0.005778
  31 H :    0.040502
  32 H :    0.060495
  33 H :    0.083139
Sum of atomic charges:    0.0000000

LOEWDIN ATOMIC CHARGES
----------------------
   0 S :    0.387982
   1 C :   -0.200206
   2 C :   -0.066863
   3 C :   -0.054029
   4 C :   -0.175702
   5 H :    0.027298
   6 C :   -0.038202
   7 H :    0.025737
   8 H :    0.027013
   9 C :   -0.041885
  10 H :    0.019620
  11 H :    0.030681
  12 C :   -0.067118
  13 H :    0.031283
  14 H :    0.030955
  15 H :    0.019832
  16 S :    0.386685
  17 C :   -0.195096
  18 C :   -0.089986
  19 C :   -0.043272
  20 C :   -0.200884
  21 H :    0.045168
  22 C :   -0.032939
  23 H :    0.021574
  24 H :    0.046936
  25 C :   -0.048521
  26 H :    0.031897
  27 H :    0.027752
  28 C :   -0.063625
  29 H :    0.026104
  30 H :    0.017489
  31 H :    0.035503
  32 H :    0.036310
  33 H :    0.042512

  Mayer bond orders larger than 0.100000
B(  0-S ,  1-C ) :   1.1340 B(  0-S ,  4-C ) :   1.1318 B(  1-C ,  2-C ) :   1.6216
B(  1-C , 32-H ) :   0.9680 B(  2-C ,  3-C ) :   1.2122 B(  2-C ,  6-C ) :   1.0324
B(  3-C ,  4-C ) :   1.5905 B(  3-C ,  5-H ) :   0.9974 B(  4-C , 20-C ) :   1.0814
B(  6-C ,  7-H ) :   0.9356 B(  6-C ,  8-H ) :   0.9427 B(  6-C ,  9-C ) :   1.0526
B(  9-C , 10-H ) :   0.9608 B(  9-C , 11-H ) :   0.9568 B(  9-C , 12-C ) :   1.0599
B( 12-C , 13-H ) :   0.9753 B( 12-C , 14-H ) :   0.9771 B( 12-C , 15-H ) :   0.9775
B( 16-S , 17-C ) :   1.1742 B( 16-S , 20-C ) :   1.1221 B( 17-C , 18-C ) :   1.6019
B( 17-C , 20-C ) :   0.1074 B( 17-C , 33-H ) :   0.9503 B( 18-C , 19-C ) :   1.2555
B( 18-C , 21-H ) :   0.9771 B( 19-C , 20-C ) :   1.5714 B( 19-C , 22-C ) :   1.0049
B( 22-C , 23-H ) :   0.9368 B( 22-C , 24-H ) :   0.9329 B( 22-C , 25-C ) :   1.0830
B( 25-C , 26-H ) :   0.9482 B( 25-C , 27-H ) :   0.9465 B( 25-C , 28-C ) :   1.0901
B( 28-C , 29-H ) :   0.9659 B( 28-C , 30-H ) :   0.9711 B( 28-C , 31-H ) :   0.9679

Dispersion correction           -0.013853441
FINAL SINGLE POINT ENERGY     -1339.863492832689

DIPOLE MOMENT
-------------
                                X             Y             Z
Electronic contribution:     -4.48429     -13.96765     -25.70604
Nuclear contribution   :      4.40912      14.36449      26.18963
                        -----------------------------------------
Total Dipole Moment    :     -0.07516       0.39684       0.48359
                        -----------------------------------------
Magnitude (a.u.)       :      0.63007
Magnitude (Debye)      :      1.60151

Rotational constants in cm-1:     0.017948     0.008286     0.006136
Rotational constants in MHz :   538.053445   248.399275   183.944240

                             ****ORCA TERMINATED NORMALLY****
TOTAL RUN TIME: 0 days 0 hours 0 minutes 33 seconds 193 msec
