                         Program Version 4.2.1 -  RELEASE  -
|  1> ! wB97X-D3 SP def2-SVP
|  2> %pal
|  3> nprocs 16
|  4> end
|  5>
|  6> * xyz 0 1
|  7> S 	 -4.24819 	 -21.9197 	 57.2874
|  8> C 	 -4.42922 	 -22.1473 	 55.549
|  9> C 	 -4.33144 	 -20.9529 	 54.8414
| 10> C 	 -4.00243 	 -19.8194 	 55.6391
| 11> C 	 -3.8096 	 -20.1778 	 56.9967
| 12> H 	 -3.93525 	 -18.7829 	 55.3313
| 13> C 	 -4.43664 	 -20.8173 	 53.362
| 14> H 	 -3.77526 	 -21.6161 	 52.937
| 15> H 	 -3.90643 	 -19.8548 	 53.1163
| 16> C 	 -5.80374 	 -21.0517 	 52.8569
| 17> H 	 -5.75109 	 -21.1159 	 51.7307
| 18> H 	 -6.06858 	 -22.1009 	 53.1589
| 19> C 	 -6.855 	 -20.0182 	 53.3494
| 20> H 	 -6.68614 	 -19.0636 	 52.917
| 21> H 	 -7.89997 	 -20.2131 	 53.1233
| 22> H 	 -6.90217 	 -19.9784 	 54.4582
| 23> S 	 -4.27174 	 -19.3005 	 59.4408
| 24> C 	 -2.89396 	 -18.4244 	 60.19
| 25> C 	 -2.186 	 -17.7283 	 59.2588
| 26> C 	 -2.42559 	 -18.264 	 57.9927
| 27> C 	 -3.34995 	 -19.2467 	 58.0027
| 28> H 	 -1.40833 	 -17.0491 	 59.6844
| 29> C 	 -1.48973 	 -17.8369 	 56.8957
| 30> H 	 -1.66457 	 -18.548 	 56.0681
| 31> H 	 -0.433375 	 -18.1486 	 57.1362
| 32> C 	 -1.59223 	 -16.3947 	 56.4144
| 33> H 	 -0.652153 	 -16.3141 	 55.8182
| 34> H 	 -1.514 	 -15.6108 	 57.1605
| 35> C 	 -2.76367 	 -16.2131 	 55.478
| 36> H 	 -3.69828 	 -16.5734 	 55.9567
| 37> H 	 -2.63755 	 -16.8865 	 54.5984
| 38> H 	 -2.89259 	 -15.2141 	 55.0926
| 39> H 	 -4.59448 	 -23.0708 	 55.0361
| 40> H 	 -2.86484 	 -18.0901 	 61.2357
| 41> *
| 42>
| 43>                          ****END OF INPUT****

CARTESIAN COORDINATES (ANGSTROEM)
---------------------------------
  S     -4.248190  -21.919700   57.287400
  C     -4.429220  -22.147300   55.549000
  C     -4.331440  -20.952900   54.841400
  C     -4.002430  -19.819400   55.639100
  C     -3.809600  -20.177800   56.996700
  H     -3.935250  -18.782900   55.331300
  C     -4.436640  -20.817300   53.362000
  H     -3.775260  -21.616100   52.937000
  H     -3.906430  -19.854800   53.116300
  C     -5.803740  -21.051700   52.856900
  H     -5.751090  -21.115900   51.730700
  H     -6.068580  -22.100900   53.158900
  C     -6.855000  -20.018200   53.349400
  H     -6.686140  -19.063600   52.917000
  H     -7.899970  -20.213100   53.123300
  H     -6.902170  -19.978400   54.458200
  S     -4.271740  -19.300500   59.440800
  C     -2.893960  -18.424400   60.190000
  C     -2.186000  -17.728300   59.258800
  C     -2.425590  -18.264000   57.992700
  C     -3.349950  -19.246700   58.002700
  H     -1.408330  -17.049100   59.684400
  C     -1.489730  -17.836900   56.895700
  H     -1.664570  -18.548000   56.068100
  H     -0.433375  -18.148600   57.136200
  C     -1.592230  -16.394700   56.414400
  H     -0.652153  -16.314100   55.818200
  H     -1.514000  -15.610800   57.160500
  C     -2.763670  -16.213100   55.478000
  H     -3.698280  -16.573400   55.956700
  H     -2.637550  -16.886500   54.598400
  H     -2.892590  -15.214100   55.092600
  H     -4.594480  -23.070800   55.036100
  H     -2.864840  -18.090100   61.235700

 Total Charge           Charge          ....    0
 Multiplicity           Mult            ....    1
 Number of Electrons    NEL             ....  134
 Basis Dimension        Dim             ....  322

ORBITAL ENERGIES
----------------

  NO   OCC          E(Eh)            E(eV)
   0   2.0000     -88.972241     -2421.0578
   1   2.0000     -88.960315     -2420.7332
   2   2.0000     -10.333717      -281.1947
   3   2.0000     -10.318431      -280.7788
   4   2.0000     -10.313695      -280.6499
   5   2.0000     -10.312024      -280.6044
   6   2.0000     -10.297011      -280.1959
   7   2.0000     -10.295596      -280.1574
   8   2.0000     -10.294386      -280.1245
   9   2.0000     -10.294250      -280.1208
  10   2.0000     -10.291873      -280.0561
  11   2.0000     -10.291744      -280.0526
  12   2.0000     -10.291089      -280.0348
  13   2.0000     -10.290455      -280.0175
  14   2.0000     -10.282004      -279.7876
  15   2.0000     -10.275658      -279.6149
  16   2.0000      -8.085043      -220.0052
  17   2.0000      -8.075906      -219.7566
  18   2.0000      -6.043710      -164.4577
  19   2.0000      -6.039910      -164.3543
  20   2.0000      -6.035653      -164.2385
  21   2.0000      -6.034320      -164.2022
  22   2.0000      -6.030892      -164.1089
  23   2.0000      -6.026093      -163.9783
  24   2.0000      -1.012804       -27.5598
  25   2.0000      -0.980619       -26.6840
  26   2.0000      -0.917121       -24.9561
  27   2.0000      -0.912746       -24.8371
  28   2.0000      -0.871117       -23.7043
  29   2.0000      -0.852554       -23.1992
  30   2.0000      -0.843040       -22.9403
  31   2.0000      -0.812305       -22.1040
  32   2.0000      -0.781284       -21.2598
  33   2.0000      -0.772012       -21.0075
  34   2.0000      -0.710381       -19.3304
  35   2.0000      -0.703283       -19.1373
  36   2.0000      -0.693117       -18.8607
  37   2.0000      -0.661375       -17.9969
  38   2.0000      -0.635571       -17.2948
  39   2.0000      -0.610743       -16.6192
  40   2.0000      -0.594324       -16.1724
  41   2.0000      -0.572635       -15.5822
  42   2.0000      -0.558867       -15.2075
  43   2.0000      -0.549298       -14.9472
  44   2.0000      -0.543527       -14.7901
  45   2.0000      -0.530805       -14.4439
  46   2.0000      -0.515994       -14.0409
  47   2.0000      -0.513676       -13.9778
  48   2.0000      -0.498851       -13.5744
  49   2.0000      -0.494022       -13.4430
  50   2.0000      -0.492771       -13.4090
  51   2.0000      -0.478153       -13.0112
  52   2.0000      -0.465976       -12.6798
  53   2.0000      -0.463385       -12.6093
  54   2.0000      -0.454644       -12.3715
  55   2.0000      -0.450251       -12.2520
  56   2.0000      -0.446013       -12.1366
  57   2.0000      -0.438966       -11.9449
  58   2.0000      -0.436637       -11.8815
  59   2.0000      -0.422528       -11.4976
  60   2.0000      -0.416903       -11.3445
  61   2.0000      -0.413051       -11.2397
  62   2.0000      -0.409356       -11.1391
  63   2.0000      -0.346735        -9.4351
  64   2.0000      -0.330672        -8.9981
  65   2.0000      -0.330316        -8.9884
  66   2.0000      -0.283346        -7.7102
  67   0.0000       0.017953         0.4885
  68   0.0000       0.068368         1.8604
  69   0.0000       0.090369         2.4591
  70   0.0000       0.115138         3.1331
  71   0.0000       0.129768         3.5312

MULLIKEN ATOMIC CHARGES
-----------------------
   0 S :    0.123062
   1 C :   -0.112278
   2 C :   -0.096499
   3 C :    0.032667
   4 C :   -0.145321
   5 H :   -0.009072
   6 C :    0.048775
   7 H :    0.037039
   8 H :    0.028669
   9 C :   -0.068189
  10 H :    0.035504
  11 H :    0.026020
  12 C :   -0.043292
  13 H :    0.023772
  14 H :    0.026000
  15 H :    0.047355
  16 S :    0.090720
  17 C :   -0.097165
  18 C :   -0.057847
  19 C :   -0.016602
  20 C :   -0.145958
  21 H :    0.044544
  22 C :    0.011485
  23 H :    0.009703
  24 H :    0.040220
  25 C :   -0.043418
  26 H :    0.030238
  27 H :    0.033430
  28 C :   -0.060617
  29 H :    0.051202
  30 H :    0.030338
  31 H :    0.037244
  32 H :    0.037157
  33 H :    0.051115
Sum of atomic charges:   -0.0000000

LOEWDIN ATOMIC CHARGES
----------------------
   0 S :    0.382948
   1 C :   -0.195964
   2 C :   -0.063966
   3 C :   -0.058096
   4 C :   -0.175361
   5 H :    0.029901
   6 C :   -0.044095
   7 H :    0.040201
   8 H :    0.032111
   9 C :   -0.044224
  10 H :    0.028064
  11 H :    0.027131
  12 C :   -0.069698
  13 H :    0.020314
  14 H :    0.026597
  15 H :    0.033952
  16 S :    0.387447
  17 C :   -0.168899
  18 C :   -0.066861
  19 C :   -0.071303
  20 C :   -0.198400
  21 H :    0.046197
  22 C :   -0.038203
  23 H :    0.029460
  24 H :    0.036715
  25 C :   -0.041026
  26 H :    0.032380
  27 H :    0.021955
  28 C :   -0.067373
  29 H :    0.027604
  30 H :    0.026418
  31 H :    0.024746
  32 H :    0.024109
  33 H :    0.025219

  Mayer bond orders larger than 0.100000
B(  0-S ,  1-C ) :   1.1241 B(  0-S ,  4-C ) :   1.1355 B(  1-C ,  2-C ) :   1.6081
B(  1-C ,  4-C ) :   0.1029 B(  1-C , 32-H ) :   0.9654 B(  2-C ,  3-C ) :   1.2423
B(  2-C ,  6-C ) :   1.0100 B(  3-C ,  4-C ) :   1.5432 B(  3-C ,  5-H ) :   0.9861
B(  4-C , 20-C ) :   1.0696 B(  6-C ,  7-H ) :   0.9338 B(  6-C ,  8-H ) :   0.9470
B(  6-C ,  9-C ) :   1.0731 B(  9-C , 10-H ) :   0.9549 B(  9-C , 11-H ) :   0.9530
B(  9-C , 12-C ) :   1.0651 B( 12-C , 13-H ) :   0.9757 B( 12-C , 14-H ) :   0.9743
B( 12-C , 15-H ) :   0.9730 B( 16-S , 17-C ) :   1.1138 B( 16-S , 20-C ) :   1.1421
B( 17-C , 18-C ) :   1.6767 B( 17-C , 33-H ) :   0.9618 B( 18-C , 19-C ) :   1.1904
B( 18-C , 21-H ) :   0.9842 B( 19-C , 20-C ) :   1.6219 B( 19-C , 22-C ) :   1.0424
B( 22-C , 23-H ) :   0.9302 B( 22-C , 24-H ) :   0.9404 B( 22-C , 25-C ) :   1.0586
B( 25-C , 26-H ) :   0.9503 B( 25-C , 27-H ) :   0.9610 B( 25-C , 28-C ) :   1.0785
B( 28-C , 29-H ) :   0.9691 B( 28-C , 30-H ) :   0.9661 B( 28-C , 31-H ) :   0.9687

Dispersion correction           -0.015311556
FINAL SINGLE POINT ENERGY     -1339.853316227818

DIPOLE MOMENT
-------------
                                X             Y             Z
Electronic contribution:     -0.43031     -12.39558      23.78063
Nuclear contribution   :      0.69417      12.80832     -24.30495
                        -----------------------------------------
Total Dipole Moment    :      0.26386       0.41274      -0.52432
                        -----------------------------------------
Magnitude (a.u.)       :      0.71755
Magnitude (Debye)      :      1.82388

Rotational constants in cm-1:     0.019295     0.009560     0.007286
Rotational constants in MHz :   578.451146   286.611984   218.428401

                             ****ORCA TERMINATED NORMALLY****
TOTAL RUN TIME: 0 days 0 hours 0 minutes 36 seconds 946 msec
