                         Program Version 4.2.1 -  RELEASE  -
|  1> ! wB97X-D3 SP def2-SVP
|  2> %pal
|  3> nprocs 16
|  4> end
|  5>
|  6> * xyz 0 1
|  7> S 	 9.11018 	 -22.3753 	 85.6258
|  8> C 	 7.45439 	 -22.5299 	 85.9893
|  9> C 	 6.9119 	 -23.7116 	 85.4853
| 10> C 	 7.92048 	 -24.4233 	 84.786
| 11> C 	 9.16047 	 -23.911 	 84.7959
| 12> H 	 7.72275 	 -25.3123 	 84.2742
| 13> C 	 5.5283 	 -24.138 	 85.5425
| 14> H 	 5.55229 	 -25.2016 	 85.8878
| 15> H 	 5.03798 	 -24.077 	 84.548
| 16> C 	 4.52268 	 -23.3785 	 86.4717
| 17> H 	 4.81425 	 -23.4768 	 87.5357
| 18> H 	 4.59599 	 -22.338 	 86.3489
| 19> C 	 3.09986 	 -23.9985 	 86.2962
| 20> H 	 2.3595 	 -23.3276 	 86.6826
| 21> H 	 2.82702 	 -24.2754 	 85.2144
| 22> H 	 3.04134 	 -25.0197 	 86.7492
| 23> S 	 10.8143 	 -25.9068 	 83.8638
| 24> C 	 12.1081 	 -25.6092 	 82.798
| 25> C 	 12.3276 	 -24.2766 	 82.6897
| 26> C 	 11.3544 	 -23.4681 	 83.4064
| 27> C 	 10.3269 	 -24.2966 	 83.9864
| 28> H 	 13.2469 	 -23.8907 	 82.1572
| 29> C 	 11.4971 	 -21.9364 	 83.3852
| 30> H 	 12.5125 	 -21.6521 	 83.0139
| 31> H 	 11.5102 	 -21.6157 	 84.4225
| 32> C 	 10.4758 	 -21.0058 	 82.7301
| 33> H 	 10.7608 	 -19.9891 	 82.661
| 34> H 	 9.60989 	 -21.068 	 83.3817
| 35> C 	 10.0412 	 -21.5185 	 81.3515
| 36> H 	 9.41793 	 -20.6653 	 80.9639
| 37> H 	 9.42324 	 -22.3517 	 81.5751
| 38> H 	 10.8684 	 -21.6729 	 80.5252
| 39> H 	 6.89643 	 -21.8142 	 86.6494
| 40> H 	 12.7973 	 -26.3879 	 82.4352
| 41> *
| 42>
| 43>                          ****END OF INPUT****

CARTESIAN COORDINATES (ANGSTROEM)
---------------------------------
  S      9.110180  -22.375300   85.625800
  C      7.454390  -22.529900   85.989300
  C      6.911900  -23.711600   85.485300
  C      7.920480  -24.423300   84.786000
  C      9.160470  -23.911000   84.795900
  H      7.722750  -25.312300   84.274200
  C      5.528300  -24.138000   85.542500
  H      5.552290  -25.201600   85.887800
  H      5.037980  -24.077000   84.548000
  C      4.522680  -23.378500   86.471700
  H      4.814250  -23.476800   87.535700
  H      4.595990  -22.338000   86.348900
  C      3.099860  -23.998500   86.296200
  H      2.359500  -23.327600   86.682600
  H      2.827020  -24.275400   85.214400
  H      3.041340  -25.019700   86.749200
  S     10.814300  -25.906800   83.863800
  C     12.108100  -25.609200   82.798000
  C     12.327600  -24.276600   82.689700
  C     11.354400  -23.468100   83.406400
  C     10.326900  -24.296600   83.986400
  H     13.246900  -23.890700   82.157200
  C     11.497100  -21.936400   83.385200
  H     12.512500  -21.652100   83.013900
  H     11.510200  -21.615700   84.422500
  C     10.475800  -21.005800   82.730100
  H     10.760800  -19.989100   82.661000
  H      9.609890  -21.068000   83.381700
  C     10.041200  -21.518500   81.351500
  H      9.417930  -20.665300   80.963900
  H      9.423240  -22.351700   81.575100
  H     10.868400  -21.672900   80.525200
  H      6.896430  -21.814200   86.649400
  H     12.797300  -26.387900   82.435200

 Total Charge           Charge          ....    0
 Multiplicity           Mult            ....    1
 Number of Electrons    NEL             ....  134
 Basis Dimension        Dim             ....  322

ORBITAL ENERGIES
----------------

  NO   OCC          E(Eh)            E(eV)
   0   2.0000     -88.966652     -2420.9057
   1   2.0000     -88.966262     -2420.8951
   2   2.0000     -10.331230      -281.1270
   3   2.0000     -10.328763      -281.0599
   4   2.0000     -10.317037      -280.7409
   5   2.0000     -10.312064      -280.6055
   6   2.0000     -10.311293      -280.5845
   7   2.0000     -10.298625      -280.2398
   8   2.0000     -10.296607      -280.1849
   9   2.0000     -10.296471      -280.1812
  10   2.0000     -10.292350      -280.0691
  11   2.0000     -10.290706      -280.0244
  12   2.0000     -10.288854      -279.9740
  13   2.0000     -10.286165      -279.9008
  14   2.0000     -10.275059      -279.5986
  15   2.0000     -10.273057      -279.5441
  16   2.0000      -8.082755      -219.9429
  17   2.0000      -8.081741      -219.9154
  18   2.0000      -6.041072      -164.3859
  19   2.0000      -6.040270      -164.3641
  20   2.0000      -6.036901      -164.2724
  21   2.0000      -6.036082      -164.2501
  22   2.0000      -6.033723      -164.1859
  23   2.0000      -6.032560      -164.1543
  24   2.0000      -1.017119       -27.6772
  25   2.0000      -0.996548       -27.1175
  26   2.0000      -0.915403       -24.9094
  27   2.0000      -0.903975       -24.5984
  28   2.0000      -0.872796       -23.7500
  29   2.0000      -0.856644       -23.3105
  30   2.0000      -0.842252       -22.9188
  31   2.0000      -0.818674       -22.2772
  32   2.0000      -0.778508       -21.1843
  33   2.0000      -0.767733       -20.8911
  34   2.0000      -0.717300       -19.5187
  35   2.0000      -0.699774       -19.0418
  36   2.0000      -0.679313       -18.4850
  37   2.0000      -0.661846       -18.0097
  38   2.0000      -0.639732       -17.4080
  39   2.0000      -0.619505       -16.8576
  40   2.0000      -0.588068       -16.0021
  41   2.0000      -0.574167       -15.6239
  42   2.0000      -0.569285       -15.4910
  43   2.0000      -0.562584       -15.3087
  44   2.0000      -0.540427       -14.7058
  45   2.0000      -0.526149       -14.3172
  46   2.0000      -0.515579       -14.0296
  47   2.0000      -0.512027       -13.9330
  48   2.0000      -0.503604       -13.7038
  49   2.0000      -0.493125       -13.4186
  50   2.0000      -0.484526       -13.1846
  51   2.0000      -0.482834       -13.1386
  52   2.0000      -0.475618       -12.9422
  53   2.0000      -0.470008       -12.7896
  54   2.0000      -0.460175       -12.5220
  55   2.0000      -0.454158       -12.3583
  56   2.0000      -0.440480       -11.9861
  57   2.0000      -0.431198       -11.7335
  58   2.0000      -0.426509       -11.6059
  59   2.0000      -0.422908       -11.5079
  60   2.0000      -0.421649       -11.4737
  61   2.0000      -0.412123       -11.2144
  62   2.0000      -0.401321       -10.9205
  63   2.0000      -0.363224        -9.8838
  64   2.0000      -0.330780        -9.0010
  65   2.0000      -0.325311        -8.8521
  66   2.0000      -0.288418        -7.8482
  67   0.0000       0.027268         0.7420
  68   0.0000       0.084363         2.2956
  69   0.0000       0.120608         3.2819
  70   0.0000       0.121673         3.3109
  71   0.0000       0.129702         3.5294

MULLIKEN ATOMIC CHARGES
-----------------------
   0 S :    0.089951
   1 C :   -0.135018
   2 C :   -0.058150
   3 C :    0.019745
   4 C :   -0.092468
   5 H :   -0.016232
   6 C :    0.003762
   7 H :    0.043191
   8 H :    0.051501
   9 C :   -0.078102
  10 H :    0.031958
  11 H :    0.021395
  12 C :   -0.061983
  13 H :    0.041175
  14 H :    0.032999
  15 H :    0.040344
  16 S :    0.119343
  17 C :   -0.099438
  18 C :   -0.053756
  19 C :   -0.078523
  20 C :   -0.131429
  21 H :    0.041131
  22 C :    0.043688
  23 H :    0.020538
  24 H :    0.030806
  25 C :   -0.044563
  26 H :    0.021044
  27 H :    0.021020
  28 C :   -0.080575
  29 H :    0.030645
  30 H :    0.042937
  31 H :    0.047495
  32 H :    0.066973
  33 H :    0.068596
Sum of atomic charges:   -0.0000000

LOEWDIN ATOMIC CHARGES
----------------------
   0 S :    0.447557
   1 C :   -0.217030
   2 C :   -0.071463
   3 C :   -0.054802
   4 C :   -0.190971
   5 H :    0.021124
   6 C :   -0.040364
   7 H :    0.040957
   8 H :    0.040822
   9 C :   -0.040547
  10 H :    0.027658
  11 H :    0.012757
  12 C :   -0.069510
  13 H :    0.023928
  14 H :    0.030759
  15 H :    0.032142
  16 S :    0.457986
  17 C :   -0.213821
  18 C :   -0.078547
  19 C :   -0.059224
  20 C :   -0.222182
  21 H :    0.042664
  22 C :   -0.045685
  23 H :    0.032310
  24 H :    0.022738
  25 C :   -0.043114
  26 H :    0.018428
  27 H :    0.009852
  28 C :   -0.074154
  29 H :    0.027797
  30 H :    0.022116
  31 H :    0.033723
  32 H :    0.037629
  33 H :    0.038465

  Mayer bond orders larger than 0.100000
B(  0-S ,  1-C ) :   1.1533 B(  0-S ,  4-C ) :   1.1405 B(  1-C ,  2-C ) :   1.5865
B(  1-C , 32-H ) :   0.9553 B(  2-C ,  3-C ) :   1.2634 B(  2-C ,  6-C ) :   1.0338
B(  3-C ,  4-C ) :   1.5655 B(  3-C ,  5-H ) :   1.0085 B(  4-C , 20-C ) :   1.0315
B(  6-C ,  7-H ) :   0.9372 B(  6-C ,  8-H ) :   0.9342 B(  6-C ,  9-C ) :   1.0746
B(  9-C , 10-H ) :   0.9549 B(  9-C , 11-H ) :   0.9524 B(  9-C , 12-C ) :   1.0729
B( 12-C , 13-H ) :   0.9743 B( 12-C , 14-H ) :   0.9758 B( 12-C , 15-H ) :   0.9746
B( 16-S , 17-C ) :   1.1705 B( 16-S , 20-C ) :   1.1866 B( 17-C , 18-C ) :   1.5810
B( 17-C , 33-H ) :   0.9646 B( 18-C , 19-C ) :   1.2902 B( 18-C , 21-H ) :   0.9801
B( 19-C , 20-C ) :   1.5021 B( 19-C , 22-C ) :   1.0325 B( 22-C , 23-H ) :   0.9371
B( 22-C , 24-H ) :   0.9328 B( 22-C , 25-C ) :   1.0739 B( 25-C , 26-H ) :   0.9566
B( 25-C , 27-H ) :   0.9439 B( 25-C , 28-C ) :   1.0782 B( 28-C , 29-H ) :   0.9756
B( 28-C , 30-H ) :   0.9715 B( 28-C , 31-H ) :   0.9760

Dispersion correction           -0.014502654
FINAL SINGLE POINT ENERGY     -1339.869286580733

DIPOLE MOMENT
-------------
                                X             Y             Z
Electronic contribution:     17.80225      -9.76897       3.63401
Nuclear contribution   :    -18.10482       9.87089      -3.61683
                        -----------------------------------------
Total Dipole Moment    :     -0.30257       0.10192       0.01718
                        -----------------------------------------
Magnitude (a.u.)       :      0.31974
Magnitude (Debye)      :      0.81271

Rotational constants in cm-1:     0.023777     0.007546     0.006457
Rotational constants in MHz :   712.805123   226.230161   193.588749

                             ****ORCA TERMINATED NORMALLY****
TOTAL RUN TIME: 0 days 0 hours 0 minutes 35 seconds 711 msec
