                         Program Version 4.2.1 -  RELEASE  -
|  1> ! wB97X-D3 SP def2-SVP
|  2> %pal
|  3> nprocs 16
|  4> end
|  5>
|  6> * xyz 0 1
|  7> S 	 -31.1012 	 60.248 	 112.575
|  8> C 	 -31.2118 	 58.8509 	 111.521
|  9> C 	 -30.0524 	 58.1846 	 111.408
| 10> C 	 -28.9652 	 58.8363 	 112.127
| 11> C 	 -29.3458 	 60.0937 	 112.64
| 12> H 	 -27.9313 	 58.511 	 112.249
| 13> C 	 -29.8206 	 56.9193 	 110.63
| 14> H 	 -29.1281 	 56.3212 	 111.279
| 15> H 	 -29.1213 	 57.1641 	 109.708
| 16> C 	 -31.0809 	 56.1636 	 110.208
| 17> H 	 -31.7771 	 56.1112 	 110.976
| 18> H 	 -31.5701 	 56.7174 	 109.429
| 19> C 	 -30.7686 	 54.7937 	 109.684
| 20> H 	 -31.7046 	 54.2446 	 109.336
| 21> H 	 -30.0834 	 54.7117 	 108.808
| 22> H 	 -30.2527 	 54.232 	 110.524
| 23> S 	 -29.3542 	 62.0672 	 114.459
| 24> C 	 -27.9181 	 63.0002 	 114.72
| 25> C 	 -26.8755 	 62.6739 	 113.891
| 26> C 	 -27.2162 	 61.6156 	 113.005
| 27> C 	 -28.5253 	 61.1456 	 113.22
| 28> H 	 -25.9528 	 63.2105 	 113.932
| 29> C 	 -26.2947 	 61.1713 	 111.843
| 30> H 	 -26.5971 	 61.5984 	 110.991
| 31> H 	 -26.451 	 60.1554 	 111.779
| 32> C 	 -24.8106 	 61.5504 	 112.005
| 33> H 	 -24.5109 	 61.0617 	 112.949
| 34> H 	 -24.6544 	 62.6181 	 111.9
| 35> C 	 -23.8403 	 60.8863 	 110.953
| 36> H 	 -23.8527 	 61.4533 	 109.977
| 37> H 	 -23.8489 	 59.8583 	 110.63
| 38> H 	 -22.8532 	 61.243 	 111.263
| 39> H 	 -32.0829 	 58.5554 	 110.919
| 40> H 	 -27.696 	 63.7712 	 115.378
| 41> *
| 42>
| 43>                          ****END OF INPUT****

CARTESIAN COORDINATES (ANGSTROEM)
---------------------------------
  S    -31.101200   60.248000  112.575000
  C    -31.211800   58.850900  111.521000
  C    -30.052400   58.184600  111.408000
  C    -28.965200   58.836300  112.127000
  C    -29.345800   60.093700  112.640000
  H    -27.931300   58.511000  112.249000
  C    -29.820600   56.919300  110.630000
  H    -29.128100   56.321200  111.279000
  H    -29.121300   57.164100  109.708000
  C    -31.080900   56.163600  110.208000
  H    -31.777100   56.111200  110.976000
  H    -31.570100   56.717400  109.429000
  C    -30.768600   54.793700  109.684000
  H    -31.704600   54.244600  109.336000
  H    -30.083400   54.711700  108.808000
  H    -30.252700   54.232000  110.524000
  S    -29.354200   62.067200  114.459000
  C    -27.918100   63.000200  114.720000
  C    -26.875500   62.673900  113.891000
  C    -27.216200   61.615600  113.005000
  C    -28.525300   61.145600  113.220000
  H    -25.952800   63.210500  113.932000
  C    -26.294700   61.171300  111.843000
  H    -26.597100   61.598400  110.991000
  H    -26.451000   60.155400  111.779000
  C    -24.810600   61.550400  112.005000
  H    -24.510900   61.061700  112.949000
  H    -24.654400   62.618100  111.900000
  C    -23.840300   60.886300  110.953000
  H    -23.852700   61.453300  109.977000
  H    -23.848900   59.858300  110.630000
  H    -22.853200   61.243000  111.263000
  H    -32.082900   58.555400  110.919000
  H    -27.696000   63.771200  115.378000

 Total Charge           Charge          ....    0
 Multiplicity           Mult            ....    1
 Number of Electrons    NEL             ....  134
 Basis Dimension        Dim             ....  322

ORBITAL ENERGIES
----------------

  NO   OCC          E(Eh)            E(eV)
   0   2.0000     -88.969402     -2420.9805
   1   2.0000     -88.962869     -2420.8027
   2   2.0000     -10.333922      -281.2003
   3   2.0000     -10.328095      -281.0418
   4   2.0000     -10.309178      -280.5270
   5   2.0000     -10.307716      -280.4872
   6   2.0000     -10.306789      -280.4620
   7   2.0000     -10.304120      -280.3894
   8   2.0000     -10.298205      -280.2284
   9   2.0000     -10.297241      -280.2022
  10   2.0000     -10.296581      -280.1842
  11   2.0000     -10.289149      -279.9820
  12   2.0000     -10.289035      -279.9789
  13   2.0000     -10.284696      -279.8608
  14   2.0000     -10.282095      -279.7900
  15   2.0000     -10.278124      -279.6820
  16   2.0000      -8.084199      -219.9822
  17   2.0000      -8.077562      -219.8016
  18   2.0000      -6.042723      -164.4309
  19   2.0000      -6.038719      -164.3219
  20   2.0000      -6.036296      -164.2560
  21   2.0000      -6.034932      -164.2188
  22   2.0000      -6.032284      -164.1468
  23   2.0000      -6.027892      -164.0273
  24   2.0000      -1.006877       -27.3985
  25   2.0000      -0.983557       -26.7639
  26   2.0000      -0.916730       -24.9455
  27   2.0000      -0.909457       -24.7476
  28   2.0000      -0.873133       -23.7592
  29   2.0000      -0.851269       -23.1642
  30   2.0000      -0.844526       -22.9807
  31   2.0000      -0.815088       -22.1797
  32   2.0000      -0.784454       -21.3461
  33   2.0000      -0.769577       -20.9412
  34   2.0000      -0.715088       -19.4585
  35   2.0000      -0.707683       -19.2570
  36   2.0000      -0.697771       -18.9873
  37   2.0000      -0.657751       -17.8983
  38   2.0000      -0.632219       -17.2036
  39   2.0000      -0.611198       -16.6315
  40   2.0000      -0.594799       -16.1853
  41   2.0000      -0.582642       -15.8545
  42   2.0000      -0.570587       -15.5265
  43   2.0000      -0.569056       -15.4848
  44   2.0000      -0.531119       -14.4525
  45   2.0000      -0.524764       -14.2795
  46   2.0000      -0.514971       -14.0131
  47   2.0000      -0.510163       -13.8822
  48   2.0000      -0.503324       -13.6961
  49   2.0000      -0.495844       -13.4926
  50   2.0000      -0.484010       -13.1706
  51   2.0000      -0.482618       -13.1327
  52   2.0000      -0.477530       -12.9942
  53   2.0000      -0.472060       -12.8454
  54   2.0000      -0.459085       -12.4924
  55   2.0000      -0.452526       -12.3139
  56   2.0000      -0.449313       -12.2264
  57   2.0000      -0.441002       -12.0003
  58   2.0000      -0.430610       -11.7175
  59   2.0000      -0.423940       -11.5360
  60   2.0000      -0.421696       -11.4749
  61   2.0000      -0.413832       -11.2609
  62   2.0000      -0.412668       -11.2293
  63   2.0000      -0.357079        -9.7166
  64   2.0000      -0.336615        -9.1598
  65   2.0000      -0.323591        -8.8054
  66   2.0000      -0.280523        -7.6334
  67   0.0000       0.020949         0.5701
  68   0.0000       0.079320         2.1584
  69   0.0000       0.096429         2.6240
  70   0.0000       0.121881         3.3166
  71   0.0000       0.137380         3.7383

MULLIKEN ATOMIC CHARGES
-----------------------
   0 S :    0.092559
   1 C :   -0.128771
   2 C :   -0.068056
   3 C :   -0.001794
   4 C :   -0.135065
   5 H :    0.024394
   6 C :   -0.000713
   7 H :    0.032611
   8 H :    0.055203
   9 C :   -0.027536
  10 H :    0.021424
  11 H :    0.026689
  12 C :   -0.085104
  13 H :    0.044455
  14 H :    0.036002
  15 H :    0.038128
  16 S :    0.109000
  17 C :   -0.016140
  18 C :   -0.072726
  19 C :   -0.068938
  20 C :   -0.150008
  21 H :    0.013272
  22 C :    0.211160
  23 H :    0.005869
  24 H :   -0.019126
  25 C :   -0.127076
  26 H :    0.043219
  27 H :    0.046409
  28 C :   -0.060168
  29 H :    0.018462
  30 H :    0.046328
  31 H :    0.025499
  32 H :    0.052336
  33 H :    0.018205
Sum of atomic charges:    0.0000000

LOEWDIN ATOMIC CHARGES
----------------------
   0 S :    0.379356
   1 C :   -0.205876
   2 C :   -0.067087
   3 C :   -0.069633
   4 C :   -0.178224
   5 H :    0.030121
   6 C :   -0.039024
   7 H :    0.033990
   8 H :    0.046537
   9 C :   -0.044298
  10 H :    0.018810
  11 H :    0.024365
  12 C :   -0.072730
  13 H :    0.033300
  14 H :    0.026426
  15 H :    0.030183
  16 S :    0.415919
  17 C :   -0.179673
  18 C :   -0.070876
  19 C :   -0.045835
  20 C :   -0.198543
  21 H :    0.029916
  22 C :   -0.013044
  23 H :    0.017964
  24 H :    0.017809
  25 C :   -0.034214
  26 H :    0.029924
  27 H :    0.028968
  28 C :   -0.078194
  29 H :    0.027262
  30 H :    0.024168
  31 H :    0.028959
  32 H :    0.034749
  33 H :    0.018525

  Mayer bond orders larger than 0.100000
B(  0-S ,  1-C ) :   1.0974 B(  0-S ,  4-C ) :   1.1344 B(  1-C ,  2-C ) :   1.6899
B(  1-C , 32-H ) :   0.9525 B(  2-C ,  3-C ) :   1.1910 B(  2-C ,  6-C ) :   1.0126
B(  3-C ,  4-C ) :   1.5948 B(  3-C ,  5-H ) :   0.9889 B(  4-C , 20-C ) :   1.0788
B(  6-C ,  7-H ) :   0.9440 B(  6-C ,  8-H ) :   0.9284 B(  6-C ,  9-C ) :   1.0746
B(  9-C , 10-H ) :   0.9527 B(  9-C , 11-H ) :   0.9393 B(  9-C , 12-C ) :   1.0921
B( 12-C , 13-H ) :   0.9715 B( 12-C , 14-H ) :   0.9738 B( 12-C , 15-H ) :   0.9742
B( 16-S , 17-C ) :   1.1518 B( 16-S , 20-C ) :   1.1347 B( 17-C , 18-C ) :   1.6205
B( 17-C , 33-H ) :   0.9619 B( 18-C , 19-C ) :   1.2543 B( 18-C , 21-H ) :   0.9888
B( 19-C , 20-C ) :   1.5878 B( 19-C , 22-C ) :   1.0102 B( 22-C , 23-H ) :   0.9179
B( 22-C , 24-H ) :   0.9216 B( 22-C , 25-C ) :   1.0879 B( 25-C , 26-H ) :   0.9634
B( 25-C , 27-H ) :   0.9447 B( 25-C , 28-C ) :   1.0778 B( 28-C , 29-H ) :   0.9714
B( 28-C , 30-H ) :   0.9795 B( 28-C , 31-H ) :   0.9718

Dispersion correction           -0.012996849
FINAL SINGLE POINT ENERGY     -1339.851413581575

DIPOLE MOMENT
-------------
                                X             Y             Z
Electronic contribution:    -16.37546      17.61237      18.20747
Nuclear contribution   :     16.96543     -17.80354     -18.67037
                        -----------------------------------------
Total Dipole Moment    :      0.58997      -0.19117      -0.46290
                        -----------------------------------------
Magnitude (a.u.)       :      0.77388
Magnitude (Debye)      :      1.96704

Rotational constants in cm-1:     0.018521     0.007624     0.005546
Rotational constants in MHz :   555.245330   228.547210   166.275706

                             ****ORCA TERMINATED NORMALLY****
TOTAL RUN TIME: 0 days 0 hours 0 minutes 28 seconds 364 msec
