                         Program Version 4.2.1 -  RELEASE  -
|  1> ! wB97X-D3 SP def2-SVP
|  2> %pal
|  3> nprocs 16
|  4> end
|  5>
|  6> * xyz 0 1
|  7> S 	 -41.9491 	 37.9876 	 77.4147
|  8> C 	 -41.8376 	 39.004 	 78.8815
|  9> C 	 -40.4968 	 39.0736 	 79.2234
| 10> C 	 -39.6074 	 38.4776 	 78.2753
| 11> C 	 -40.1891 	 37.8303 	 77.2414
| 12> H 	 -38.5142 	 38.5481 	 78.3419
| 13> C 	 -40.0304 	 39.6166 	 80.579
| 14> H 	 -40.8283 	 40.3488 	 80.7337
| 15> H 	 -39.1499 	 40.1988 	 80.4235
| 16> C 	 -39.956 	 38.5797 	 81.7286
| 17> H 	 -40.5518 	 37.7151 	 81.3961
| 18> H 	 -38.91 	 38.2957 	 81.8681
| 19> C 	 -40.5242 	 38.9669 	 83.1135
| 20> H 	 -40.4925 	 38.2654 	 83.9416
| 21> H 	 -39.8185 	 39.7199 	 83.4154
| 22> H 	 -41.5607 	 39.2871 	 82.988
| 23> S 	 -38.3881 	 38.4819 	 75.3047
| 24> C 	 -38.029 	 37.348 	 74.1318
| 25> C 	 -38.7033 	 36.1506 	 74.3355
| 26> C 	 -39.6816 	 36.2448 	 75.3334
| 27> C 	 -39.5199 	 37.3344 	 76.0837
| 28> H 	 -38.5666 	 35.3452 	 73.6495
| 29> C 	 -40.633 	 35.1067 	 75.5343
| 30> H 	 -40.9347 	 34.9914 	 76.5242
| 31> H 	 -40.0949 	 34.2153 	 75.2594
| 32> C 	 -41.8751 	 35.2182 	 74.6814
| 33> H 	 -42.266 	 36.2143 	 74.7366
| 34> H 	 -42.656 	 34.5562 	 75.1567
| 35> C 	 -41.6457 	 34.7002 	 73.2602
| 36> H 	 -41.1027 	 33.7353 	 73.388
| 37> H 	 -40.9874 	 35.3097 	 72.6971
| 38> H 	 -42.5973 	 34.6254 	 72.699
| 39> H 	 -42.5683 	 39.3338 	 79.5853
| 40> H 	 -37.1858 	 37.4185 	 73.4753
| 41> *
| 42>
| 43>                          ****END OF INPUT****

CARTESIAN COORDINATES (ANGSTROEM)
---------------------------------
  S    -41.949100   37.987600   77.414700
  C    -41.837600   39.004000   78.881500
  C    -40.496800   39.073600   79.223400
  C    -39.607400   38.477600   78.275300
  C    -40.189100   37.830300   77.241400
  H    -38.514200   38.548100   78.341900
  C    -40.030400   39.616600   80.579000
  H    -40.828300   40.348800   80.733700
  H    -39.149900   40.198800   80.423500
  C    -39.956000   38.579700   81.728600
  H    -40.551800   37.715100   81.396100
  H    -38.910000   38.295700   81.868100
  C    -40.524200   38.966900   83.113500
  H    -40.492500   38.265400   83.941600
  H    -39.818500   39.719900   83.415400
  H    -41.560700   39.287100   82.988000
  S    -38.388100   38.481900   75.304700
  C    -38.029000   37.348000   74.131800
  C    -38.703300   36.150600   74.335500
  C    -39.681600   36.244800   75.333400
  C    -39.519900   37.334400   76.083700
  H    -38.566600   35.345200   73.649500
  C    -40.633000   35.106700   75.534300
  H    -40.934700   34.991400   76.524200
  H    -40.094900   34.215300   75.259400
  C    -41.875100   35.218200   74.681400
  H    -42.266000   36.214300   74.736600
  H    -42.656000   34.556200   75.156700
  C    -41.645700   34.700200   73.260200
  H    -41.102700   33.735300   73.388000
  H    -40.987400   35.309700   72.697100
  H    -42.597300   34.625400   72.699000
  H    -42.568300   39.333800   79.585300
  H    -37.185800   37.418500   73.475300

 Total Charge           Charge          ....    0
 Multiplicity           Mult            ....    1
 Number of Electrons    NEL             ....  134
 Basis Dimension        Dim             ....  322

ORBITAL ENERGIES
----------------

  NO   OCC          E(Eh)            E(eV)
   0   2.0000     -88.965390     -2420.8713
   1   2.0000     -88.964843     -2420.8565
   2   2.0000     -10.326503      -280.9984
   3   2.0000     -10.319683      -280.8128
   4   2.0000     -10.316267      -280.7199
   5   2.0000     -10.311602      -280.5929
   6   2.0000     -10.300354      -280.2869
   7   2.0000     -10.294660      -280.1319
   8   2.0000     -10.291305      -280.0407
   9   2.0000     -10.289796      -279.9996
  10   2.0000     -10.289047      -279.9792
  11   2.0000     -10.287975      -279.9500
  12   2.0000     -10.283142      -279.8185
  13   2.0000     -10.280733      -279.7530
  14   2.0000     -10.278360      -279.6884
  15   2.0000     -10.276565      -279.6395
  16   2.0000      -8.080777      -219.8891
  17   2.0000      -8.078734      -219.8335
  18   2.0000      -6.039111      -164.3326
  19   2.0000      -6.037530      -164.2896
  20   2.0000      -6.035154      -164.2249
  21   2.0000      -6.033419      -164.1777
  22   2.0000      -6.031589      -164.1279
  23   2.0000      -6.029265      -164.0647
  24   2.0000      -1.016251       -27.6536
  25   2.0000      -0.987114       -26.8607
  26   2.0000      -0.920391       -25.0451
  27   2.0000      -0.908605       -24.7244
  28   2.0000      -0.873940       -23.7811
  29   2.0000      -0.856002       -23.2930
  30   2.0000      -0.843434       -22.9510
  31   2.0000      -0.815010       -22.1776
  32   2.0000      -0.789150       -21.4739
  33   2.0000      -0.774089       -21.0640
  34   2.0000      -0.712050       -19.3759
  35   2.0000      -0.697600       -18.9827
  36   2.0000      -0.696289       -18.9470
  37   2.0000      -0.673084       -18.3156
  38   2.0000      -0.632067       -17.1994
  39   2.0000      -0.616345       -16.7716
  40   2.0000      -0.604555       -16.4508
  41   2.0000      -0.577527       -15.7153
  42   2.0000      -0.559728       -15.2310
  43   2.0000      -0.555981       -15.1290
  44   2.0000      -0.548787       -14.9332
  45   2.0000      -0.525265       -14.2932
  46   2.0000      -0.522141       -14.2082
  47   2.0000      -0.512917       -13.9572
  48   2.0000      -0.511123       -13.9084
  49   2.0000      -0.500542       -13.6204
  50   2.0000      -0.491399       -13.3717
  51   2.0000      -0.483759       -13.1637
  52   2.0000      -0.472851       -12.8669
  53   2.0000      -0.471272       -12.8240
  54   2.0000      -0.455856       -12.4045
  55   2.0000      -0.447686       -12.1822
  56   2.0000      -0.442677       -12.0459
  57   2.0000      -0.441308       -12.0086
  58   2.0000      -0.432276       -11.7628
  59   2.0000      -0.425930       -11.5901
  60   2.0000      -0.414386       -11.2760
  61   2.0000      -0.413580       -11.2541
  62   2.0000      -0.403585       -10.9821
  63   2.0000      -0.349881        -9.5207
  64   2.0000      -0.334754        -9.1091
  65   2.0000      -0.329030        -8.9534
  66   2.0000      -0.295387        -8.0379
  67   0.0000       0.028737         0.7820
  68   0.0000       0.069336         1.8867
  69   0.0000       0.105160         2.8615
  70   0.0000       0.109567         2.9815
  71   0.0000       0.126794         3.4502

MULLIKEN ATOMIC CHARGES
-----------------------
   0 S :    0.088592
   1 C :   -0.093280
   2 C :   -0.147345
   3 C :    0.001352
   4 C :   -0.108434
   5 H :    0.015998
   6 C :    0.082011
   7 H :    0.012906
   8 H :    0.022592
   9 C :   -0.061311
  10 H :    0.038258
  11 H :    0.033009
  12 C :   -0.056589
  13 H :    0.036524
  14 H :    0.027670
  15 H :    0.035400
  16 S :    0.120244
  17 C :   -0.072596
  18 C :   -0.043434
  19 C :   -0.038879
  20 C :   -0.156326
  21 H :    0.008234
  22 C :    0.102584
  23 H :    0.005819
  24 H :    0.012093
  25 C :   -0.071490
  26 H :    0.027067
  27 H :    0.034481
  28 C :   -0.042188
  29 H :    0.022408
  30 H :    0.025788
  31 H :    0.045891
  32 H :    0.039987
  33 H :    0.052965
Sum of atomic charges:    0.0000000

LOEWDIN ATOMIC CHARGES
----------------------
   0 S :    0.377072
   1 C :   -0.188472
   2 C :   -0.060862
   3 C :   -0.074424
   4 C :   -0.182668
   5 H :    0.031921
   6 C :   -0.031015
   7 H :    0.030559
   8 H :    0.025611
   9 C :   -0.040417
  10 H :    0.026079
  11 H :    0.025585
  12 C :   -0.066333
  13 H :    0.027372
  14 H :    0.024231
  15 H :    0.024188
  16 S :    0.430389
  17 C :   -0.200908
  18 C :   -0.070922
  19 C :   -0.051294
  20 C :   -0.184869
  21 H :    0.025088
  22 C :   -0.022250
  23 H :    0.020870
  24 H :    0.028737
  25 C :   -0.036331
  26 H :    0.017566
  27 H :    0.030808
  28 C :   -0.065159
  29 H :    0.027223
  30 H :    0.016238
  31 H :    0.031526
  32 H :    0.028419
  33 H :    0.026442

  Mayer bond orders larger than 0.100000
B(  0-S ,  1-C ) :   1.1156 B(  0-S ,  4-C ) :   1.1146 B(  1-C ,  2-C ) :   1.6299
B(  1-C , 32-H ) :   0.9667 B(  2-C ,  3-C ) :   1.2236 B(  2-C ,  6-C ) :   1.0283
B(  3-C ,  4-C ) :   1.5737 B(  3-C ,  5-H ) :   0.9991 B(  4-C , 20-C ) :   1.0734
B(  6-C ,  7-H ) :   0.9425 B(  6-C ,  8-H ) :   0.9405 B(  6-C ,  9-C ) :   1.0294
B(  9-C , 10-H ) :   0.9650 B(  9-C , 11-H ) :   0.9581 B(  9-C , 12-C ) :   1.0768
B( 12-C , 13-H ) :   0.9763 B( 12-C , 14-H ) :   0.9794 B( 12-C , 15-H ) :   0.9762
B( 16-S , 17-C ) :   1.1853 B( 16-S , 20-C ) :   1.1203 B( 17-C , 18-C ) :   1.5949
B( 17-C , 33-H ) :   0.9624 B( 18-C , 19-C ) :   1.2376 B( 18-C , 21-H ) :   0.9883
B( 19-C , 20-C ) :   1.6153 B( 19-C , 22-C ) :   1.0500 B( 22-C , 23-H ) :   0.9250
B( 22-C , 24-H ) :   0.9347 B( 22-C , 25-C ) :   1.0734 B( 25-C , 26-H ) :   0.9495
B( 25-C , 27-H ) :   0.9559 B( 25-C , 28-C ) :   1.0787 B( 28-C , 29-H ) :   0.9726
B( 28-C , 30-H ) :   0.9725 B( 28-C , 31-H ) :   0.9722

Dispersion correction           -0.014439795
FINAL SINGLE POINT ENERGY     -1339.867360291487

DIPOLE MOMENT
-------------
                                X             Y             Z
Electronic contribution:      4.91451       7.88198     -11.44460
Nuclear contribution   :     -4.70808      -8.10538      11.67142
                        -----------------------------------------
Total Dipole Moment    :      0.20643      -0.22340       0.22682
                        -----------------------------------------
Magnitude (a.u.)       :      0.37943
Magnitude (Debye)      :      0.96444

Rotational constants in cm-1:     0.025480     0.007187     0.006211
Rotational constants in MHz :   763.862256   215.467234   186.211093

                             ****ORCA TERMINATED NORMALLY****
TOTAL RUN TIME: 0 days 0 hours 0 minutes 30 seconds 950 msec
