                         Program Version 4.2.1 -  RELEASE  -
|  1> ! wB97X-D3 SP def2-SVP
|  2> %pal
|  3> nprocs 16
|  4> end
|  5>
|  6> * xyz 0 1
|  7> S 	 45.9753 	 25.0033 	 82.0246
|  8> C 	 46.3997 	 25.7614 	 80.5114
|  9> C 	 46.1043 	 24.9157 	 79.4839
| 10> C 	 45.5063 	 23.6471 	 79.9066
| 11> C 	 45.3123 	 23.5398 	 81.2862
| 12> H 	 45.1791 	 22.7221 	 79.2877
| 13> C 	 46.1433 	 25.2278 	 77.9583
| 14> H 	 46.7555 	 24.5053 	 77.4299
| 15> H 	 46.6993 	 26.1331 	 77.786
| 16> C 	 44.7426 	 25.3057 	 77.3046
| 17> H 	 44.1201 	 24.4711 	 77.6145
| 18> H 	 44.1991 	 26.1916 	 77.6485
| 19> C 	 44.772 	 25.2657 	 75.8233
| 20> H 	 43.7455 	 25.5924 	 75.4698
| 21> H 	 45.4891 	 25.9086 	 75.3482
| 22> H 	 45.0913 	 24.1877 	 75.5267
| 23> S 	 45.1876 	 22.2967 	 83.6995
| 24> C 	 43.87 	 21.0808 	 83.9754
| 25> C 	 43.244 	 20.859 	 82.7657
| 26> C 	 43.6893 	 21.648 	 81.6696
| 27> C 	 44.657 	 22.5604 	 82.065
| 28> H 	 42.4245 	 20.1202 	 82.6195
| 29> C 	 43.0016 	 21.5106 	 80.3265
| 30> H 	 43.2235 	 22.3389 	 79.7114
| 31> H 	 41.9928 	 21.4677 	 80.6602
| 32> C 	 43.4222 	 20.2477 	 79.6056
| 33> H 	 43.2316 	 19.3466 	 80.1699
| 34> H 	 44.467 	 20.0707 	 79.5031
| 35> C 	 42.5041 	 19.9664 	 78.3505
| 36> H 	 42.9569 	 20.474 	 77.5102
| 37> H 	 41.482 	 20.2836 	 78.5155
| 38> H 	 42.4008 	 18.9313 	 78.2073
| 39> H 	 46.7246 	 26.7519 	 80.3831
| 40> H 	 43.7113 	 20.4485 	 84.8983
| 41> *
| 42>
| 43>                          ****END OF INPUT****

CARTESIAN COORDINATES (ANGSTROEM)
---------------------------------
  S     45.975300   25.003300   82.024600
  C     46.399700   25.761400   80.511400
  C     46.104300   24.915700   79.483900
  C     45.506300   23.647100   79.906600
  C     45.312300   23.539800   81.286200
  H     45.179100   22.722100   79.287700
  C     46.143300   25.227800   77.958300
  H     46.755500   24.505300   77.429900
  H     46.699300   26.133100   77.786000
  C     44.742600   25.305700   77.304600
  H     44.120100   24.471100   77.614500
  H     44.199100   26.191600   77.648500
  C     44.772000   25.265700   75.823300
  H     43.745500   25.592400   75.469800
  H     45.489100   25.908600   75.348200
  H     45.091300   24.187700   75.526700
  S     45.187600   22.296700   83.699500
  C     43.870000   21.080800   83.975400
  C     43.244000   20.859000   82.765700
  C     43.689300   21.648000   81.669600
  C     44.657000   22.560400   82.065000
  H     42.424500   20.120200   82.619500
  C     43.001600   21.510600   80.326500
  H     43.223500   22.338900   79.711400
  H     41.992800   21.467700   80.660200
  C     43.422200   20.247700   79.605600
  H     43.231600   19.346600   80.169900
  H     44.467000   20.070700   79.503100
  C     42.504100   19.966400   78.350500
  H     42.956900   20.474000   77.510200
  H     41.482000   20.283600   78.515500
  H     42.400800   18.931300   78.207300
  H     46.724600   26.751900   80.383100
  H     43.711300   20.448500   84.898300

 Total Charge           Charge          ....    0
 Multiplicity           Mult            ....    1
 Number of Electrons    NEL             ....  134
 Basis Dimension        Dim             ....  322

ORBITAL ENERGIES
----------------

  NO   OCC          E(Eh)            E(eV)
   0   2.0000     -88.967561     -2420.9304
   1   2.0000     -88.961499     -2420.7655
   2   2.0000     -10.331031      -281.1217
   3   2.0000     -10.328799      -281.0609
   4   2.0000     -10.326501      -280.9984
   5   2.0000     -10.311820      -280.5989
   6   2.0000     -10.306761      -280.4612
   7   2.0000     -10.304316      -280.3947
   8   2.0000     -10.301567      -280.3199
   9   2.0000     -10.298972      -280.2493
  10   2.0000     -10.293305      -280.0951
  11   2.0000     -10.289459      -279.9904
  12   2.0000     -10.286010      -279.8966
  13   2.0000     -10.285813      -279.8912
  14   2.0000     -10.283410      -279.8258
  15   2.0000     -10.277585      -279.6673
  16   2.0000      -8.081504      -219.9089
  17   2.0000      -8.076297      -219.7672
  18   2.0000      -6.040180      -164.3617
  19   2.0000      -6.036231      -164.2542
  20   2.0000      -6.034976      -164.2200
  21   2.0000      -6.031997      -164.1390
  22   2.0000      -6.030733      -164.1046
  23   2.0000      -6.026907      -164.0005
  24   2.0000      -1.008154       -27.4333
  25   2.0000      -0.981285       -26.7021
  26   2.0000      -0.916420       -24.9371
  27   2.0000      -0.910984       -24.7891
  28   2.0000      -0.878013       -23.8920
  29   2.0000      -0.852774       -23.2052
  30   2.0000      -0.840620       -22.8744
  31   2.0000      -0.814670       -22.1683
  32   2.0000      -0.782796       -21.3010
  33   2.0000      -0.772412       -21.0184
  34   2.0000      -0.715618       -19.4730
  35   2.0000      -0.704443       -19.1689
  36   2.0000      -0.695180       -18.9168
  37   2.0000      -0.667694       -18.1689
  38   2.0000      -0.641981       -17.4692
  39   2.0000      -0.614493       -16.7212
  40   2.0000      -0.596246       -16.2247
  41   2.0000      -0.569498       -15.4968
  42   2.0000      -0.565384       -15.3849
  43   2.0000      -0.557734       -15.1767
  44   2.0000      -0.533191       -14.5089
  45   2.0000      -0.529706       -14.4140
  46   2.0000      -0.520358       -14.1597
  47   2.0000      -0.515705       -14.0331
  48   2.0000      -0.509947       -13.8764
  49   2.0000      -0.503087       -13.6897
  50   2.0000      -0.494536       -13.4570
  51   2.0000      -0.483194       -13.1484
  52   2.0000      -0.475255       -12.9323
  53   2.0000      -0.466544       -12.6953
  54   2.0000      -0.457201       -12.4411
  55   2.0000      -0.453515       -12.3408
  56   2.0000      -0.446046       -12.1375
  57   2.0000      -0.442329       -12.0364
  58   2.0000      -0.433711       -11.8019
  59   2.0000      -0.421606       -11.4725
  60   2.0000      -0.414968       -11.2918
  61   2.0000      -0.410613       -11.1733
  62   2.0000      -0.407009       -11.0753
  63   2.0000      -0.364138        -9.9087
  64   2.0000      -0.332463        -9.0468
  65   2.0000      -0.325413        -8.8550
  66   2.0000      -0.285056        -7.7568
  67   0.0000       0.018645         0.5073
  68   0.0000       0.083673         2.2768
  69   0.0000       0.099144         2.6978
  70   0.0000       0.120395         3.2761
  71   0.0000       0.121153         3.2967

MULLIKEN ATOMIC CHARGES
-----------------------
   0 S :    0.087136
   1 C :   -0.090555
   2 C :   -0.073329
   3 C :   -0.037870
   4 C :   -0.147151
   5 H :    0.050036
   6 C :    0.076648
   7 H :    0.021328
   8 H :    0.007680
   9 C :   -0.072598
  10 H :    0.028120
  11 H :    0.028979
  12 C :   -0.067740
  13 H :    0.046073
  14 H :    0.026404
  15 H :    0.038805
  16 S :    0.098040
  17 C :   -0.109893
  18 C :   -0.038673
  19 C :   -0.078264
  20 C :   -0.108519
  21 H :    0.029063
  22 C :    0.125716
  23 H :    0.014993
  24 H :    0.024021
  25 C :   -0.101621
  26 H :    0.007657
  27 H :    0.024894
  28 C :   -0.008910
  29 H :    0.037538
  30 H :    0.023960
  31 H :    0.021593
  32 H :    0.032067
  33 H :    0.084372
Sum of atomic charges:   -0.0000000

LOEWDIN ATOMIC CHARGES
----------------------
   0 S :    0.390559
   1 C :   -0.190255
   2 C :   -0.060302
   3 C :   -0.082467
   4 C :   -0.182176
   5 H :    0.046677
   6 C :   -0.028535
   7 H :    0.028064
   8 H :    0.024313
   9 C :   -0.047247
  10 H :    0.023307
  11 H :    0.024914
  12 C :   -0.070339
  13 H :    0.036170
  14 H :    0.016886
  15 H :    0.033619
  16 S :    0.385367
  17 C :   -0.180709
  18 C :   -0.071343
  19 C :   -0.054072
  20 C :   -0.201801
  21 H :    0.035777
  22 C :   -0.020095
  23 H :    0.021722
  24 H :    0.032978
  25 C :   -0.044736
  26 H :    0.022742
  27 H :    0.023111
  28 C :   -0.054046
  29 H :    0.023931
  30 H :    0.026303
  31 H :    0.019524
  32 H :    0.024457
  33 H :    0.047704

  Mayer bond orders larger than 0.100000
B(  0-S ,  1-C ) :   1.1205 B(  0-S ,  4-C ) :   1.1314 B(  1-C ,  2-C ) :   1.6427
B(  1-C , 32-H ) :   0.9763 B(  2-C ,  3-C ) :   1.2074 B(  2-C ,  6-C ) :   1.0257
B(  3-C ,  4-C ) :   1.5908 B(  3-C ,  5-H ) :   0.9675 B(  4-C , 20-C ) :   1.0996
B(  6-C ,  7-H ) :   0.9430 B(  6-C ,  8-H ) :   0.9394 B(  6-C ,  9-C ) :   1.0546
B(  9-C , 10-H ) :   0.9561 B(  9-C , 11-H ) :   0.9542 B(  9-C , 12-C ) :   1.0848
B( 12-C , 13-H ) :   0.9715 B( 12-C , 14-H ) :   0.9756 B( 12-C , 15-H ) :   0.9726
B( 16-S , 17-C ) :   1.1206 B( 16-S , 20-C ) :   1.1304 B( 17-C , 18-C ) :   1.6135
B( 17-C , 33-H ) :   0.9622 B( 18-C , 19-C ) :   1.2579 B( 18-C , 21-H ) :   0.9747
B( 19-C , 20-C ) :   1.5779 B( 19-C , 22-C ) :   1.0301 B( 22-C , 23-H ) :   0.9350
B( 22-C , 24-H ) :   0.9266 B( 22-C , 25-C ) :   1.0636 B( 25-C , 26-H ) :   0.9547
B( 25-C , 27-H ) :   0.9548 B( 25-C , 28-C ) :   1.0663 B( 28-C , 29-H ) :   0.9789
B( 28-C , 30-H ) :   0.9731 B( 28-C , 31-H ) :   0.9799

Dispersion correction           -0.014051360
FINAL SINGLE POINT ENERGY     -1339.864105770480

DIPOLE MOMENT
-------------
                                X             Y             Z
Electronic contribution:     10.78582       5.65638      31.59171
Nuclear contribution   :    -11.20568      -5.99348     -32.22957
                        -----------------------------------------
Total Dipole Moment    :     -0.41987      -0.33710      -0.63786
                        -----------------------------------------
Magnitude (a.u.)       :      0.83474
Magnitude (Debye)      :      2.12175

Rotational constants in cm-1:     0.016495     0.009981     0.006429
Rotational constants in MHz :   494.508068   299.234772   192.744045

                             ****ORCA TERMINATED NORMALLY****
TOTAL RUN TIME: 0 days 0 hours 0 minutes 28 seconds 610 msec
