                         Program Version 4.2.1 -  RELEASE  -
|  1> ! wB97X-D3 SP def2-SVP
|  2> %pal
|  3> nprocs 16
|  4> end
|  5>
|  6> * xyz 0 1
|  7> S 	 18.4654 	 -11.4434 	 82.6881
|  8> C 	 17.3001 	 -10.2301 	 83.0125
|  9> C 	 16.3619 	 -10.1303 	 82.062
| 10> C 	 16.7345 	 -10.8893 	 80.9324
| 11> C 	 17.9078 	 -11.6122 	 81.035
| 12> H 	 16.1734 	 -11.0217 	 80.0146
| 13> C 	 15.0574 	 -9.35939 	 82.2209
| 14> H 	 15.1971 	 -8.77273 	 83.2139
| 15> H 	 14.2264 	 -10.0776 	 82.341
| 16> C 	 14.8479 	 -8.41052 	 81.0225
| 17> H 	 15.7757 	 -7.81839 	 80.9374
| 18> H 	 14.7524 	 -8.99492 	 80.0994
| 19> C 	 13.7047 	 -7.41806 	 81.2026
| 20> H 	 12.7101 	 -7.85257 	 81.2635
| 21> H 	 13.903 	 -6.79243 	 82.0436
| 22> H 	 13.587 	 -6.74791 	 80.2818
| 23> S 	 19.5471 	 -13.8178 	 80.8684
| 24> C 	 19.6059 	 -14.6914 	 79.3257
| 25> C 	 18.8078 	 -14.0473 	 78.3997
| 26> C 	 18.1017 	 -12.9086 	 78.887
| 27> C 	 18.3224 	 -12.7462 	 80.2221
| 28> H 	 18.8689 	 -14.2673 	 77.3427
| 29> C 	 17.2187 	 -12.0911 	 78.0465
| 30> H 	 17.4967 	 -12.2022 	 77.0011
| 31> H 	 17.2964 	 -11.0143 	 78.3139
| 32> C 	 15.7153 	 -12.5671 	 78.1225
| 33> H 	 15.0639 	 -11.7959 	 77.7144
| 34> H 	 15.2747 	 -12.7517 	 79.125
| 35> C 	 15.4915 	 -13.8686 	 77.2765
| 36> H 	 15.9559 	 -13.8503 	 76.3473
| 37> H 	 14.4443 	 -14.1734 	 77.2004
| 38> H 	 15.9692 	 -14.7238 	 77.831
| 39> H 	 17.1981 	 -9.80251 	 84.0081
| 40> H 	 20.1672 	 -15.5968 	 79.0845
| 41> *
| 42>
| 43>                          ****END OF INPUT****

CARTESIAN COORDINATES (ANGSTROEM)
---------------------------------
  S     18.465400  -11.443400   82.688100
  C     17.300100  -10.230100   83.012500
  C     16.361900  -10.130300   82.062000
  C     16.734500  -10.889300   80.932400
  C     17.907800  -11.612200   81.035000
  H     16.173400  -11.021700   80.014600
  C     15.057400   -9.359390   82.220900
  H     15.197100   -8.772730   83.213900
  H     14.226400  -10.077600   82.341000
  C     14.847900   -8.410520   81.022500
  H     15.775700   -7.818390   80.937400
  H     14.752400   -8.994920   80.099400
  C     13.704700   -7.418060   81.202600
  H     12.710100   -7.852570   81.263500
  H     13.903000   -6.792430   82.043600
  H     13.587000   -6.747910   80.281800
  S     19.547100  -13.817800   80.868400
  C     19.605900  -14.691400   79.325700
  C     18.807800  -14.047300   78.399700
  C     18.101700  -12.908600   78.887000
  C     18.322400  -12.746200   80.222100
  H     18.868900  -14.267300   77.342700
  C     17.218700  -12.091100   78.046500
  H     17.496700  -12.202200   77.001100
  H     17.296400  -11.014300   78.313900
  C     15.715300  -12.567100   78.122500
  H     15.063900  -11.795900   77.714400
  H     15.274700  -12.751700   79.125000
  C     15.491500  -13.868600   77.276500
  H     15.955900  -13.850300   76.347300
  H     14.444300  -14.173400   77.200400
  H     15.969200  -14.723800   77.831000
  H     17.198100   -9.802510   84.008100
  H     20.167200  -15.596800   79.084500

 Total Charge           Charge          ....    0
 Multiplicity           Mult            ....    1
 Number of Electrons    NEL             ....  134
 Basis Dimension        Dim             ....  322

ORBITAL ENERGIES
----------------

  NO   OCC          E(Eh)            E(eV)
   0   2.0000     -88.967495     -2420.9286
   1   2.0000     -88.960894     -2420.7490
   2   2.0000     -10.326205      -280.9903
   3   2.0000     -10.324523      -280.9446
   4   2.0000     -10.320438      -280.8334
   5   2.0000     -10.306368      -280.4505
   6   2.0000     -10.303504      -280.3726
   7   2.0000     -10.298647      -280.2404
   8   2.0000     -10.296658      -280.1863
   9   2.0000     -10.295735      -280.1612
  10   2.0000     -10.294244      -280.1206
  11   2.0000     -10.293353      -280.0964
  12   2.0000     -10.290341      -280.0144
  13   2.0000     -10.289290      -279.9858
  14   2.0000     -10.281217      -279.7661
  15   2.0000     -10.277822      -279.6738
  16   2.0000      -8.081884      -219.9193
  17   2.0000      -8.076776      -219.7803
  18   2.0000      -6.040569      -164.3722
  19   2.0000      -6.036589      -164.2639
  20   2.0000      -6.035239      -164.2272
  21   2.0000      -6.032339      -164.1483
  22   2.0000      -6.031325      -164.1207
  23   2.0000      -6.027329      -164.0120
  24   2.0000      -1.014599       -27.6087
  25   2.0000      -0.990266       -26.9465
  26   2.0000      -0.912349       -24.8263
  27   2.0000      -0.910253       -24.7692
  28   2.0000      -0.873266       -23.7628
  29   2.0000      -0.852233       -23.1904
  30   2.0000      -0.843654       -22.9570
  31   2.0000      -0.816497       -22.2180
  32   2.0000      -0.783847       -21.3296
  33   2.0000      -0.772994       -21.0342
  34   2.0000      -0.712968       -19.4008
  35   2.0000      -0.702037       -19.1034
  36   2.0000      -0.690072       -18.7778
  37   2.0000      -0.667610       -18.1666
  38   2.0000      -0.640226       -17.4214
  39   2.0000      -0.620098       -16.8737
  40   2.0000      -0.597349       -16.2547
  41   2.0000      -0.572876       -15.5888
  42   2.0000      -0.559626       -15.2282
  43   2.0000      -0.554818       -15.0974
  44   2.0000      -0.542255       -14.7555
  45   2.0000      -0.523460       -14.2441
  46   2.0000      -0.516932       -14.0664
  47   2.0000      -0.507423       -13.8077
  48   2.0000      -0.503888       -13.7115
  49   2.0000      -0.496659       -13.5148
  50   2.0000      -0.494118       -13.4456
  51   2.0000      -0.481264       -13.0959
  52   2.0000      -0.475949       -12.9512
  53   2.0000      -0.467014       -12.7081
  54   2.0000      -0.464737       -12.6461
  55   2.0000      -0.445327       -12.1180
  56   2.0000      -0.444439       -12.0938
  57   2.0000      -0.437077       -11.8935
  58   2.0000      -0.432093       -11.7578
  59   2.0000      -0.427739       -11.6394
  60   2.0000      -0.424644       -11.5551
  61   2.0000      -0.417452       -11.3595
  62   2.0000      -0.416303       -11.3282
  63   2.0000      -0.364929        -9.9302
  64   2.0000      -0.335506        -9.1296
  65   2.0000      -0.326729        -8.8907
  66   2.0000      -0.282014        -7.6740
  67   0.0000       0.020875         0.5680
  68   0.0000       0.081699         2.2231
  69   0.0000       0.099501         2.7076
  70   0.0000       0.121367         3.3026
  71   0.0000       0.136503         3.7144

MULLIKEN ATOMIC CHARGES
-----------------------
   0 S :    0.075705
   1 C :   -0.123669
   2 C :   -0.060682
   3 C :   -0.032625
   4 C :   -0.087411
   5 H :   -0.008603
   6 C :    0.059148
   7 H :    0.029661
   8 H :    0.048217
   9 C :   -0.108756
  10 H :    0.038804
  11 H :    0.039263
  12 C :   -0.037661
  13 H :    0.028320
  14 H :    0.030255
  15 H :    0.036697
  16 S :    0.092448
  17 C :   -0.091589
  18 C :   -0.020945
  19 C :   -0.060937
  20 C :   -0.106632
  21 H :    0.015245
  22 C :    0.034262
  23 H :    0.023126
  24 H :    0.048808
  25 C :   -0.109633
  26 H :    0.029716
  27 H :    0.054221
  28 C :   -0.038241
  29 H :    0.014814
  30 H :    0.037407
  31 H :    0.040980
  32 H :    0.047430
  33 H :    0.062859
Sum of atomic charges:   -0.0000000

LOEWDIN ATOMIC CHARGES
----------------------
   0 S :    0.404524
   1 C :   -0.200668
   2 C :   -0.073017
   3 C :   -0.069091
   4 C :   -0.182729
   5 H :    0.027671
   6 C :   -0.029262
   7 H :    0.037579
   8 H :    0.034002
   9 C :   -0.047020
  10 H :    0.031256
  11 H :    0.023790
  12 C :   -0.069370
  13 H :    0.022610
  14 H :    0.021416
  15 H :    0.034698
  16 S :    0.390507
  17 C :   -0.182492
  18 C :   -0.067085
  19 C :   -0.064981
  20 C :   -0.185458
  21 H :    0.029389
  22 C :   -0.033120
  23 H :    0.032273
  24 H :    0.036747
  25 C :   -0.043639
  26 H :    0.020507
  27 H :    0.029269
  28 C :   -0.065368
  29 H :    0.010824
  30 H :    0.028314
  31 H :    0.033396
  32 H :    0.028572
  33 H :    0.035955

  Mayer bond orders larger than 0.100000
B(  0-S ,  1-C ) :   1.1497 B(  0-S ,  4-C ) :   1.1368 B(  1-C ,  2-C ) :   1.6220
B(  1-C , 32-H ) :   0.9598 B(  2-C ,  3-C ) :   1.2516 B(  2-C ,  6-C ) :   1.0147
B(  3-C ,  4-C ) :   1.5521 B(  3-C ,  5-H ) :   0.9925 B(  4-C , 20-C ) :   1.0787
B(  6-C ,  7-H ) :   0.9429 B(  6-C ,  8-H ) :   0.9345 B(  6-C ,  9-C ) :   1.0554
B(  9-C , 10-H ) :   0.9576 B(  9-C , 11-H ) :   0.9533 B(  9-C , 12-C ) :   1.0922
B( 12-C , 13-H ) :   0.9732 B( 12-C , 14-H ) :   0.9742 B( 12-C , 15-H ) :   0.9730
B( 16-S , 17-C ) :   1.1343 B( 16-S , 20-C ) :   1.1229 B( 17-C , 18-C ) :   1.6198
B( 17-C , 33-H ) :   0.9661 B( 18-C , 19-C ) :   1.2527 B( 18-C , 21-H ) :   0.9822
B( 19-C , 20-C ) :   1.5956 B( 19-C , 22-C ) :   1.0673 B( 22-C , 23-H ) :   0.9332
B( 22-C , 24-H ) :   0.9250 B( 22-C , 25-C ) :   1.0530 B( 25-C , 26-H ) :   0.9576
B( 25-C , 27-H ) :   0.9541 B( 25-C , 28-C ) :   1.0724 B( 28-C , 29-H ) :   0.9758
B( 28-C , 30-H ) :   0.9730 B( 28-C , 31-H ) :   0.9737

Dispersion correction           -0.014576227
FINAL SINGLE POINT ENERGY     -1339.884806314153

DIPOLE MOMENT
-------------
                                X             Y             Z
Electronic contribution:     24.97212     -12.39238      13.82513
Nuclear contribution   :    -25.58017      12.52400     -14.27298
                        -----------------------------------------
Total Dipole Moment    :     -0.60805       0.13162      -0.44785
                        -----------------------------------------
Magnitude (a.u.)       :      0.76656
Magnitude (Debye)      :      1.94844

Rotational constants in cm-1:     0.019401     0.009328     0.006578
Rotational constants in MHz :   581.625203   279.645670   197.203064

                             ****ORCA TERMINATED NORMALLY****
TOTAL RUN TIME: 0 days 0 hours 0 minutes 29 seconds 768 msec
