                         Program Version 4.2.1 -  RELEASE  -
|  1> ! wB97X-D3 SP def2-SVP
|  2> %pal
|  3> nprocs 16
|  4> end
|  5>
|  6> * xyz 0 1
|  7> S 	 45.7083 	 11.6399 	 49.4492
|  8> C 	 44.2655 	 10.6658 	 49.5338
|  9> C 	 43.2105 	 11.3338 	 50.1544
| 10> C 	 43.6726 	 12.5953 	 50.6274
| 11> C 	 44.9962 	 12.8657 	 50.4157
| 12> H 	 42.9575 	 13.2734 	 51.1195
| 13> C 	 41.7547 	 10.8312 	 50.126
| 14> H 	 41.6264 	 9.80724 	 49.7089
| 15> H 	 41.253 	 11.5853 	 49.6641
| 16> C 	 41.0463 	 10.6302 	 51.4793
| 17> H 	 41.2757 	 11.5064 	 52.1784
| 18> H 	 39.975 	 10.5834 	 51.3338
| 19> C 	 41.5557 	 9.35492 	 52.2408
| 20> H 	 41.3101 	 9.38232 	 53.2851
| 21> H 	 41.2624 	 8.41041 	 51.6768
| 22> H 	 42.6213 	 9.39583 	 52.237
| 23> S 	 46.3654 	 15.0964 	 49.6144
| 24> C 	 46.8959 	 16.4166 	 50.7522
| 25> C 	 46.6678 	 15.9376 	 51.9999
| 26> C 	 46.0497 	 14.5989 	 52.0829
| 27> C 	 45.7319 	 14.0471 	 50.8383
| 28> H 	 46.8825 	 16.6018 	 52.8561
| 29> C 	 45.6694 	 14.0059 	 53.4529
| 30> H 	 44.5168 	 14.057 	 53.5436
| 31> H 	 45.9334 	 14.7135 	 54.1788
| 32> C 	 46.1956 	 12.6096 	 53.8016
| 33> H 	 47.2901 	 12.7137 	 53.6117
| 34> H 	 45.921 	 11.8435 	 53.0809
| 35> C 	 45.8721 	 12.1684 	 55.263
| 36> H 	 46.0308 	 12.904 	 55.9844
| 37> H 	 46.5381 	 11.3739 	 55.6271
| 38> H 	 44.9186 	 11.7536 	 55.3213
| 39> H 	 44.0446 	 9.78649 	 48.9405
| 40> H 	 47.5199 	 17.2327 	 50.5188
| 41> *
| 42>
| 43>                          ****END OF INPUT****

CARTESIAN COORDINATES (ANGSTROEM)
---------------------------------
  S     45.708300   11.639900   49.449200
  C     44.265500   10.665800   49.533800
  C     43.210500   11.333800   50.154400
  C     43.672600   12.595300   50.627400
  C     44.996200   12.865700   50.415700
  H     42.957500   13.273400   51.119500
  C     41.754700   10.831200   50.126000
  H     41.626400    9.807240   49.708900
  H     41.253000   11.585300   49.664100
  C     41.046300   10.630200   51.479300
  H     41.275700   11.506400   52.178400
  H     39.975000   10.583400   51.333800
  C     41.555700    9.354920   52.240800
  H     41.310100    9.382320   53.285100
  H     41.262400    8.410410   51.676800
  H     42.621300    9.395830   52.237000
  S     46.365400   15.096400   49.614400
  C     46.895900   16.416600   50.752200
  C     46.667800   15.937600   51.999900
  C     46.049700   14.598900   52.082900
  C     45.731900   14.047100   50.838300
  H     46.882500   16.601800   52.856100
  C     45.669400   14.005900   53.452900
  H     44.516800   14.057000   53.543600
  H     45.933400   14.713500   54.178800
  C     46.195600   12.609600   53.801600
  H     47.290100   12.713700   53.611700
  H     45.921000   11.843500   53.080900
  C     45.872100   12.168400   55.263000
  H     46.030800   12.904000   55.984400
  H     46.538100   11.373900   55.627100
  H     44.918600   11.753600   55.321300
  H     44.044600    9.786490   48.940500
  H     47.519900   17.232700   50.518800

 Total Charge           Charge          ....    0
 Multiplicity           Mult            ....    1
 Number of Electrons    NEL             ....  134
 Basis Dimension        Dim             ....  322

ORBITAL ENERGIES
----------------

  NO   OCC          E(Eh)            E(eV)
   0   2.0000     -88.970783     -2421.0181
   1   2.0000     -88.959120     -2420.7007
   2   2.0000     -10.330482      -281.1067
   3   2.0000     -10.330301      -281.1018
   4   2.0000     -10.319779      -280.8155
   5   2.0000     -10.314931      -280.6835
   6   2.0000     -10.310202      -280.5549
   7   2.0000     -10.305044      -280.4145
   8   2.0000     -10.300716      -280.2967
   9   2.0000     -10.297673      -280.2139
  10   2.0000     -10.294760      -280.1347
  11   2.0000     -10.294181      -280.1189
  12   2.0000     -10.292313      -280.0681
  13   2.0000     -10.286591      -279.9124
  14   2.0000     -10.279496      -279.7193
  15   2.0000     -10.269928      -279.4590
  16   2.0000      -8.086008      -220.0315
  17   2.0000      -8.073535      -219.6921
  18   2.0000      -6.044448      -164.4778
  19   2.0000      -6.040423      -164.3683
  20   2.0000      -6.036815      -164.2701
  21   2.0000      -6.032304      -164.1473
  22   2.0000      -6.027921      -164.0281
  23   2.0000      -6.024159      -163.9257
  24   2.0000      -1.011199       -27.5161
  25   2.0000      -0.982466       -26.7343
  26   2.0000      -0.913346       -24.8534
  27   2.0000      -0.899543       -24.4778
  28   2.0000      -0.873105       -23.7584
  29   2.0000      -0.848726       -23.0950
  30   2.0000      -0.839018       -22.8308
  31   2.0000      -0.820048       -22.3146
  32   2.0000      -0.786467       -21.4009
  33   2.0000      -0.772102       -21.0100
  34   2.0000      -0.714470       -19.4417
  35   2.0000      -0.697575       -18.9820
  36   2.0000      -0.690819       -18.7981
  37   2.0000      -0.660453       -17.9718
  38   2.0000      -0.639543       -17.4028
  39   2.0000      -0.626489       -17.0476
  40   2.0000      -0.587865       -15.9966
  41   2.0000      -0.570842       -15.5334
  42   2.0000      -0.566047       -15.4029
  43   2.0000      -0.558981       -15.2106
  44   2.0000      -0.543424       -14.7873
  45   2.0000      -0.524896       -14.2832
  46   2.0000      -0.515315       -14.0224
  47   2.0000      -0.511304       -13.9133
  48   2.0000      -0.504921       -13.7396
  49   2.0000      -0.496461       -13.5094
  50   2.0000      -0.493707       -13.4344
  51   2.0000      -0.481275       -13.0962
  52   2.0000      -0.470017       -12.7898
  53   2.0000      -0.467175       -12.7125
  54   2.0000      -0.460579       -12.5330
  55   2.0000      -0.448390       -12.2013
  56   2.0000      -0.445415       -12.1203
  57   2.0000      -0.435917       -11.8619
  58   2.0000      -0.432667       -11.7735
  59   2.0000      -0.423652       -11.5282
  60   2.0000      -0.419698       -11.4206
  61   2.0000      -0.410094       -11.1592
  62   2.0000      -0.405612       -11.0373
  63   2.0000      -0.345463        -9.4005
  64   2.0000      -0.334844        -9.1116
  65   2.0000      -0.322026        -8.7628
  66   2.0000      -0.303975        -8.2716
  67   0.0000       0.031911         0.8683
  68   0.0000       0.064186         1.7466
  69   0.0000       0.109421         2.9775
  70   0.0000       0.124878         3.3981
  71   0.0000       0.126778         3.4498

MULLIKEN ATOMIC CHARGES
-----------------------
   0 S :    0.133744
   1 C :   -0.115840
   2 C :   -0.118436
   3 C :    0.039134
   4 C :   -0.160504
   5 H :    0.018505
   6 C :    0.118252
   7 H :    0.028863
   8 H :    0.017723
   9 C :   -0.122406
  10 H :    0.031572
  11 H :    0.037718
  12 C :   -0.057453
  13 H :    0.036334
  14 H :    0.040799
  15 H :    0.025399
  16 S :    0.071043
  17 C :   -0.076442
  18 C :   -0.044809
  19 C :   -0.052996
  20 C :   -0.137882
  21 H :    0.036064
  22 C :    0.078018
  23 H :    0.035120
  24 H :   -0.009856
  25 C :   -0.088349
  26 H :    0.030735
  27 H :    0.043875
  28 C :   -0.003843
  29 H :    0.013965
  30 H :    0.025857
  31 H :    0.024384
  32 H :    0.047903
  33 H :    0.053808
Sum of atomic charges:    0.0000000

LOEWDIN ATOMIC CHARGES
----------------------
   0 S :    0.432862
   1 C :   -0.202253
   2 C :   -0.061459
   3 C :   -0.059146
   4 C :   -0.212443
   5 H :    0.034477
   6 C :   -0.021281
   7 H :    0.037627
   8 H :    0.022089
   9 C :   -0.042962
  10 H :    0.025768
  11 H :    0.021282
  12 C :   -0.070194
  13 H :    0.024743
  14 H :    0.030460
  15 H :    0.021284
  16 S :    0.377224
  17 C :   -0.161040
  18 C :   -0.072144
  19 C :   -0.058691
  20 C :   -0.200490
  21 H :    0.036709
  22 C :   -0.037416
  23 H :    0.036363
  24 H :    0.017651
  25 C :   -0.041340
  26 H :    0.028366
  27 H :    0.026680
  28 C :   -0.057270
  29 H :    0.016853
  30 H :    0.032332
  31 H :    0.019305
  32 H :    0.028372
  33 H :    0.027680

  Mayer bond orders larger than 0.100000
B(  0-S ,  1-C ) :   1.1521 B(  0-S ,  4-C ) :   1.1600 B(  1-C ,  2-C ) :   1.5983
B(  1-C , 32-H ) :   0.9627 B(  2-C ,  3-C ) :   1.2670 B(  2-C ,  6-C ) :   1.0202
B(  3-C ,  4-C ) :   1.5663 B(  3-C ,  5-H ) :   0.9913 B(  4-C , 20-C ) :   1.0194
B(  6-C ,  7-H ) :   0.9468 B(  6-C ,  8-H ) :   0.9312 B(  6-C ,  9-C ) :   1.0636
B(  9-C , 10-H ) :   0.9572 B(  9-C , 11-H ) :   0.9592 B(  9-C , 12-C ) :   1.0687
B( 12-C , 13-H ) :   0.9758 B( 12-C , 14-H ) :   0.9731 B( 12-C , 15-H ) :   0.9772
B( 16-S , 17-C ) :   1.1232 B( 16-S , 20-C ) :   1.1412 B( 17-C , 18-C ) :   1.6450
B( 17-C , 33-H ) :   0.9722 B( 18-C , 19-C ) :   1.2266 B( 18-C , 21-H ) :   0.9779
B( 19-C , 20-C ) :   1.6019 B( 19-C , 22-C ) :   1.0422 B( 22-C , 23-H ) :   0.9324
B( 22-C , 24-H ) :   0.9286 B( 22-C , 25-C ) :   1.0505 B( 25-C , 26-H ) :   0.9571
B( 25-C , 27-H ) :   0.9584 B( 25-C , 28-C ) :   1.0783 B( 28-C , 29-H ) :   0.9752
B( 28-C , 30-H ) :   0.9730 B( 28-C , 31-H ) :   0.9764

Dispersion correction           -0.014415599
FINAL SINGLE POINT ENERGY     -1339.863418385307

DIPOLE MOMENT
-------------
                                X             Y             Z
Electronic contribution:     14.71322      13.25675     -22.23752
Nuclear contribution   :    -15.12364     -13.29131      22.71985
                        -----------------------------------------
Total Dipole Moment    :     -0.41042      -0.03456       0.48233
                        -----------------------------------------
Magnitude (a.u.)       :      0.63425
Magnitude (Debye)      :      1.61215

Rotational constants in cm-1:     0.018059     0.009092     0.007082
Rotational constants in MHz :   541.392586   272.556645   212.299927

                             ****ORCA TERMINATED NORMALLY****
TOTAL RUN TIME: 0 days 0 hours 0 minutes 35 seconds 534 msec
