                         Program Version 4.2.1 -  RELEASE  -
|  1> ! wB97X-D3 SP def2-SVP
|  2> %pal
|  3> nprocs 16
|  4> end
|  5>
|  6> * xyz 0 1
|  7> S 	 28.6031 	 31.224 	 52.7081
|  8> C 	 29.8322 	 30.4869 	 51.6382
|  9> C 	 30.9114 	 30.04 	 52.3208
| 10> C 	 30.7315 	 30.1546 	 53.7495
| 11> C 	 29.5642 	 30.823 	 54.148
| 12> H 	 31.3614 	 29.7267 	 54.4986
| 13> C 	 32.1143 	 29.4076 	 51.7649
| 14> H 	 31.9247 	 29.0921 	 50.6956
| 15> H 	 32.2383 	 28.412 	 52.1057
| 16> C 	 33.4328 	 30.2322 	 51.7142
| 17> H 	 33.185 	 31.2172 	 51.3552
| 18> H 	 33.7271 	 30.3226 	 52.7293
| 19> C 	 34.5989 	 29.5905 	 50.8608
| 20> H 	 34.431 	 29.6242 	 49.8071
| 21> H 	 35.4512 	 30.2161 	 50.9366
| 22> H 	 34.938 	 28.6077 	 51.1517
| 23> S 	 27.348 	 30.9374 	 55.8026
| 24> C 	 27.5802 	 31.1202 	 57.5326
| 25> C 	 28.8801 	 31.4374 	 57.84
| 26> C 	 29.7587 	 31.483 	 56.6881
| 27> C 	 29.0946 	 31.1496 	 55.4791
| 28> H 	 29.1341 	 31.5914 	 58.8603
| 29> C 	 31.226 	 31.6438 	 56.8686
| 30> H 	 31.7122 	 30.6613 	 56.7694
| 31> H 	 31.4317 	 31.8889 	 57.8821
| 32> C 	 31.9384 	 32.7397 	 56.0046
| 33> H 	 31.5391 	 33.729 	 56.3144
| 34> H 	 31.6504 	 32.6956 	 54.9307
| 35> C 	 33.4354 	 32.6831 	 56.2583
| 36> H 	 33.7916 	 31.6353 	 56.1732
| 37> H 	 33.7886 	 33.1634 	 57.1797
| 38> H 	 33.8007 	 33.2805 	 55.4073
| 39> H 	 29.7613 	 30.2958 	 50.5939
| 40> H 	 26.8446 	 30.9915 	 58.3609
| 41> *
| 42>
| 43>                          ****END OF INPUT****

CARTESIAN COORDINATES (ANGSTROEM)
---------------------------------
  S     28.603100   31.224000   52.708100
  C     29.832200   30.486900   51.638200
  C     30.911400   30.040000   52.320800
  C     30.731500   30.154600   53.749500
  C     29.564200   30.823000   54.148000
  H     31.361400   29.726700   54.498600
  C     32.114300   29.407600   51.764900
  H     31.924700   29.092100   50.695600
  H     32.238300   28.412000   52.105700
  C     33.432800   30.232200   51.714200
  H     33.185000   31.217200   51.355200
  H     33.727100   30.322600   52.729300
  C     34.598900   29.590500   50.860800
  H     34.431000   29.624200   49.807100
  H     35.451200   30.216100   50.936600
  H     34.938000   28.607700   51.151700
  S     27.348000   30.937400   55.802600
  C     27.580200   31.120200   57.532600
  C     28.880100   31.437400   57.840000
  C     29.758700   31.483000   56.688100
  C     29.094600   31.149600   55.479100
  H     29.134100   31.591400   58.860300
  C     31.226000   31.643800   56.868600
  H     31.712200   30.661300   56.769400
  H     31.431700   31.888900   57.882100
  C     31.938400   32.739700   56.004600
  H     31.539100   33.729000   56.314400
  H     31.650400   32.695600   54.930700
  C     33.435400   32.683100   56.258300
  H     33.791600   31.635300   56.173200
  H     33.788600   33.163400   57.179700
  H     33.800700   33.280500   55.407300
  H     29.761300   30.295800   50.593900
  H     26.844600   30.991500   58.360900

 Total Charge           Charge          ....    0
 Multiplicity           Mult            ....    1
 Number of Electrons    NEL             ....  134
 Basis Dimension        Dim             ....  322

ORBITAL ENERGIES
----------------

  NO   OCC          E(Eh)            E(eV)
   0   2.0000     -88.966730     -2420.9078
   1   2.0000     -88.965987     -2420.8876
   2   2.0000     -10.335637      -281.2470
   3   2.0000     -10.333056      -281.1768
   4   2.0000     -10.322008      -280.8761
   5   2.0000     -10.312407      -280.6149
   6   2.0000     -10.309542      -280.5369
   7   2.0000     -10.298448      -280.2350
   8   2.0000     -10.294836      -280.1367
   9   2.0000     -10.293582      -280.1026
  10   2.0000     -10.290423      -280.0166
  11   2.0000     -10.288830      -279.9733
  12   2.0000     -10.288391      -279.9613
  13   2.0000     -10.287875      -279.9473
  14   2.0000     -10.280792      -279.7546
  15   2.0000     -10.278271      -279.6860
  16   2.0000      -8.080741      -219.8881
  17   2.0000      -8.079721      -219.8604
  18   2.0000      -6.039422      -164.3410
  19   2.0000      -6.038506      -164.3161
  20   2.0000      -6.035325      -164.2295
  21   2.0000      -6.034417      -164.2048
  22   2.0000      -6.031363      -164.1217
  23   2.0000      -6.030202      -164.0902
  24   2.0000      -1.000083       -27.2137
  25   2.0000      -0.978668       -26.6309
  26   2.0000      -0.910191       -24.7676
  27   2.0000      -0.907426       -24.6923
  28   2.0000      -0.869955       -23.6727
  29   2.0000      -0.851512       -23.1708
  30   2.0000      -0.843355       -22.9488
  31   2.0000      -0.815775       -22.1984
  32   2.0000      -0.785238       -21.3674
  33   2.0000      -0.770626       -20.9698
  34   2.0000      -0.714773       -19.4500
  35   2.0000      -0.707261       -19.2455
  36   2.0000      -0.690493       -18.7893
  37   2.0000      -0.661055       -17.9882
  38   2.0000      -0.640031       -17.4161
  39   2.0000      -0.620006       -16.8712
  40   2.0000      -0.594207       -16.1692
  41   2.0000      -0.573569       -15.6076
  42   2.0000      -0.562888       -15.3169
  43   2.0000      -0.555192       -15.1075
  44   2.0000      -0.526608       -14.3297
  45   2.0000      -0.521053       -14.1786
  46   2.0000      -0.514243       -13.9933
  47   2.0000      -0.509579       -13.8663
  48   2.0000      -0.506947       -13.7947
  49   2.0000      -0.503534       -13.7019
  50   2.0000      -0.492088       -13.3904
  51   2.0000      -0.485317       -13.2061
  52   2.0000      -0.471748       -12.8369
  53   2.0000      -0.466819       -12.7028
  54   2.0000      -0.457592       -12.4517
  55   2.0000      -0.453877       -12.3506
  56   2.0000      -0.446896       -12.1607
  57   2.0000      -0.440422       -11.9845
  58   2.0000      -0.432181       -11.7602
  59   2.0000      -0.427315       -11.6278
  60   2.0000      -0.419179       -11.4064
  61   2.0000      -0.410144       -11.1606
  62   2.0000      -0.406494       -11.0613
  63   2.0000      -0.353247        -9.6123
  64   2.0000      -0.330975        -9.0063
  65   2.0000      -0.328452        -8.9376
  66   2.0000      -0.286102        -7.7852
  67   0.0000       0.018861         0.5132
  68   0.0000       0.075130         2.0444
  69   0.0000       0.101428         2.7600
  70   0.0000       0.120567         3.2808
  71   0.0000       0.125769         3.4223

MULLIKEN ATOMIC CHARGES
-----------------------
   0 S :    0.092412
   1 C :   -0.094478
   2 C :   -0.068002
   3 C :    0.021628
   4 C :   -0.130958
   5 H :   -0.000281
   6 C :    0.043954
   7 H :    0.000480
   8 H :    0.018146
   9 C :   -0.038635
  10 H :    0.028424
  11 H :    0.019850
  12 C :   -0.029483
  13 H :    0.026459
  14 H :    0.020140
  15 H :    0.032144
  16 S :    0.099129
  17 C :   -0.094262
  18 C :   -0.031259
  19 C :   -0.019374
  20 C :   -0.137599
  21 H :    0.008354
  22 C :    0.049491
  23 H :    0.035283
  24 H :   -0.001979
  25 C :   -0.105879
  26 H :    0.028426
  27 H :    0.054623
  28 C :   -0.044477
  29 H :    0.033143
  30 H :    0.043860
  31 H :    0.036828
  32 H :    0.032633
  33 H :    0.071258
Sum of atomic charges:   -0.0000000

LOEWDIN ATOMIC CHARGES
----------------------
   0 S :    0.372060
   1 C :   -0.175795
   2 C :   -0.065169
   3 C :   -0.058746
   4 C :   -0.179409
   5 H :    0.025127
   6 C :   -0.043624
   7 H :    0.031188
   8 H :    0.026773
   9 C :   -0.024086
  10 H :    0.025614
  11 H :    0.017091
  12 C :   -0.061639
  13 H :    0.023406
  14 H :    0.025228
  15 H :    0.024923
  16 S :    0.389096
  17 C :   -0.186242
  18 C :   -0.071526
  19 C :   -0.046635
  20 C :   -0.191717
  21 H :    0.027458
  22 C :   -0.039596
  23 H :    0.031444
  24 H :    0.024842
  25 C :   -0.042024
  26 H :    0.027553
  27 H :    0.028469
  28 C :   -0.069444
  29 H :    0.025812
  30 H :    0.027329
  31 H :    0.033378
  32 H :    0.025850
  33 H :    0.043010

  Mayer bond orders larger than 0.100000
B(  0-S ,  1-C ) :   1.1083 B(  0-S ,  4-C ) :   1.1285 B(  1-C ,  2-C ) :   1.6563
B(  1-C , 32-H ) :   0.9631 B(  2-C ,  3-C ) :   1.2027 B(  2-C ,  6-C ) :   1.0444
B(  3-C ,  4-C ) :   1.5786 B(  3-C ,  5-H ) :   0.9987 B(  4-C , 20-C ) :   1.0826
B(  6-C ,  7-H ) :   0.9339 B(  6-C ,  8-H ) :   0.9328 B(  6-C ,  9-C ) :   1.0466
B(  9-C , 10-H ) :   0.9552 B(  9-C , 11-H ) :   0.9595 B(  9-C , 12-C ) :   1.0820
B( 12-C , 13-H ) :   0.9750 B( 12-C , 14-H ) :   0.9726 B( 12-C , 15-H ) :   0.9770
B( 16-S , 17-C ) :   1.1491 B( 16-S , 20-C ) :   1.1202 B( 17-C , 18-C ) :   1.6302
B( 17-C , 33-H ) :   0.9577 B( 18-C , 19-C ) :   1.2345 B( 18-C , 21-H ) :   0.9938
B( 19-C , 20-C ) :   1.5623 B( 19-C , 22-C ) :   1.0570 B( 22-C , 23-H ) :   0.9326
B( 22-C , 24-H ) :   0.9265 B( 22-C , 25-C ) :   1.0494 B( 25-C , 26-H ) :   0.9502
B( 25-C , 27-H ) :   0.9634 B( 25-C , 28-C ) :   1.0740 B( 28-C , 29-H ) :   0.9743
B( 28-C , 30-H ) :   0.9747 B( 28-C , 31-H ) :   0.9735

Dispersion correction           -0.014352045
FINAL SINGLE POINT ENERGY     -1339.875734405764

DIPOLE MOMENT
-------------
                                X             Y             Z
Electronic contribution:    -32.93617       0.11004       3.64547
Nuclear contribution   :     33.70393      -0.27718      -3.39310
                        -----------------------------------------
Total Dipole Moment    :      0.76776      -0.16715       0.25237
                        -----------------------------------------
Magnitude (a.u.)       :      0.82528
Magnitude (Debye)      :      2.09768

Rotational constants in cm-1:     0.019131     0.008844     0.006505
Rotational constants in MHz :   573.545606   265.140971   195.022717

                             ****ORCA TERMINATED NORMALLY****
TOTAL RUN TIME: 0 days 0 hours 0 minutes 35 seconds 475 msec
