                         Program Version 4.2.1 -  RELEASE  -
|  1> ! wB97X-D3 SP def2-SVP
|  2> %pal
|  3> nprocs 16
|  4> end
|  5>
|  6> * xyz 0 1
|  7> S 	 2.74137 	 18.5123 	 53.2732
|  8> C 	 3.08671 	 18.3047 	 51.4981
|  9> C 	 2.05722 	 18.9096 	 50.7424
| 10> C 	 1.06792 	 19.5203 	 51.5644
| 11> C 	 1.41717 	 19.6339 	 52.9271
| 12> H 	 0.0561976 	 19.8464 	 51.1998
| 13> C 	 1.78687 	 18.4672 	 49.3255
| 14> H 	 2.6686 	 18.7822 	 48.7116
| 15> H 	 0.959847 	 19.1096 	 48.9645
| 16> C 	 1.58928 	 17.0109 	 49.0177
| 17> H 	 2.5254 	 16.4701 	 49.1872
| 18> H 	 0.954299 	 16.6383 	 49.757
| 19> C 	 1.3001 	 16.756 	 47.4919
| 20> H 	 0.245778 	 16.9895 	 47.2397
| 21> H 	 1.93184 	 17.3341 	 46.8505
| 22> H 	 1.44103 	 15.7073 	 47.252
| 23> S 	 -0.16151 	 19.0326 	 55.1835
| 24> C 	 -1.16164 	 20.2482 	 55.8516
| 25> C 	 -1.19428 	 21.3574 	 55.0391
| 26> C 	 -0.28785 	 21.3022 	 53.9517
| 27> C 	 0.448281 	 20.1569 	 53.9535
| 28> H 	 -1.92019 	 22.0594 	 55.3024
| 29> C 	 -0.167239 	 22.4242 	 52.9163
| 30> H 	 -0.643745 	 22.0723 	 51.9931
| 31> H 	 0.919736 	 22.5822 	 52.7441
| 32> C 	 -0.796223 	 23.8356 	 53.2762
| 33> H 	 -1.82899 	 23.7099 	 53.5333
| 34> H 	 -1.00811 	 24.4449 	 52.3773
| 35> C 	 -0.135808 	 24.5707 	 54.3742
| 36> H 	 -0.673298 	 25.4115 	 54.7404
| 37> H 	 0.812795 	 24.9206 	 53.9721
| 38> H 	 0.171229 	 23.9136 	 55.1534
| 39> H 	 3.75751 	 17.6524 	 51.0561
| 40> H 	 -1.69151 	 20.0235 	 56.7521
| 41> *
| 42>
| 43>                          ****END OF INPUT****

CARTESIAN COORDINATES (ANGSTROEM)
---------------------------------
  S      2.741370   18.512300   53.273200
  C      3.086710   18.304700   51.498100
  C      2.057220   18.909600   50.742400
  C      1.067920   19.520300   51.564400
  C      1.417170   19.633900   52.927100
  H      0.056198   19.846400   51.199800
  C      1.786870   18.467200   49.325500
  H      2.668600   18.782200   48.711600
  H      0.959847   19.109600   48.964500
  C      1.589280   17.010900   49.017700
  H      2.525400   16.470100   49.187200
  H      0.954299   16.638300   49.757000
  C      1.300100   16.756000   47.491900
  H      0.245778   16.989500   47.239700
  H      1.931840   17.334100   46.850500
  H      1.441030   15.707300   47.252000
  S     -0.161510   19.032600   55.183500
  C     -1.161640   20.248200   55.851600
  C     -1.194280   21.357400   55.039100
  C     -0.287850   21.302200   53.951700
  C      0.448281   20.156900   53.953500
  H     -1.920190   22.059400   55.302400
  C     -0.167239   22.424200   52.916300
  H     -0.643745   22.072300   51.993100
  H      0.919736   22.582200   52.744100
  C     -0.796223   23.835600   53.276200
  H     -1.828990   23.709900   53.533300
  H     -1.008110   24.444900   52.377300
  C     -0.135808   24.570700   54.374200
  H     -0.673298   25.411500   54.740400
  H      0.812795   24.920600   53.972100
  H      0.171229   23.913600   55.153400
  H      3.757510   17.652400   51.056100
  H     -1.691510   20.023500   56.752100

 Total Charge           Charge          ....    0
 Multiplicity           Mult            ....    1
 Number of Electrons    NEL             ....  134
 Basis Dimension        Dim             ....  322

ORBITAL ENERGIES
----------------

  NO   OCC          E(Eh)            E(eV)
   0   2.0000     -88.972819     -2421.0735
   1   2.0000     -88.960963     -2420.7509
   2   2.0000     -10.337314      -281.2926
   3   2.0000     -10.327031      -281.0128
   4   2.0000     -10.319671      -280.8125
   5   2.0000     -10.312305      -280.6121
   6   2.0000     -10.303918      -280.3839
   7   2.0000     -10.303074      -280.3609
   8   2.0000     -10.302942      -280.3573
   9   2.0000     -10.299108      -280.2530
  10   2.0000     -10.293128      -280.0903
  11   2.0000     -10.287765      -279.9443
  12   2.0000     -10.285582      -279.8849
  13   2.0000     -10.284243      -279.8485
  14   2.0000     -10.283965      -279.8409
  15   2.0000     -10.266121      -279.3553
  16   2.0000      -8.085532      -220.0185
  17   2.0000      -8.076573      -219.7747
  18   2.0000      -6.044136      -164.4693
  19   2.0000      -6.040466      -164.3694
  20   2.0000      -6.036144      -164.2518
  21   2.0000      -6.034924      -164.2186
  22   2.0000      -6.031030      -164.1127
  23   2.0000      -6.027381      -164.0134
  24   2.0000      -1.004992       -27.3472
  25   2.0000      -0.980109       -26.6701
  26   2.0000      -0.913481       -24.8571
  27   2.0000      -0.907864       -24.7042
  28   2.0000      -0.866363       -23.5749
  29   2.0000      -0.854500       -23.2521
  30   2.0000      -0.842099       -22.9147
  31   2.0000      -0.811900       -22.0929
  32   2.0000      -0.784031       -21.3346
  33   2.0000      -0.774004       -21.0617
  34   2.0000      -0.712411       -19.3857
  35   2.0000      -0.706262       -19.2184
  36   2.0000      -0.697516       -18.9804
  37   2.0000      -0.658110       -17.9081
  38   2.0000      -0.635989       -17.3061
  39   2.0000      -0.616587       -16.7782
  40   2.0000      -0.598572       -16.2880
  41   2.0000      -0.569780       -15.5045
  42   2.0000      -0.563907       -15.3447
  43   2.0000      -0.559357       -15.2209
  44   2.0000      -0.532207       -14.4821
  45   2.0000      -0.523903       -14.2561
  46   2.0000      -0.520110       -14.1529
  47   2.0000      -0.517166       -14.0728
  48   2.0000      -0.501331       -13.6419
  49   2.0000      -0.495034       -13.4706
  50   2.0000      -0.492969       -13.4144
  51   2.0000      -0.485171       -13.2022
  52   2.0000      -0.467721       -12.7273
  53   2.0000      -0.464169       -12.6307
  54   2.0000      -0.462690       -12.5904
  55   2.0000      -0.451747       -12.2926
  56   2.0000      -0.445257       -12.1161
  57   2.0000      -0.441693       -12.0191
  58   2.0000      -0.436099       -11.8668
  59   2.0000      -0.426521       -11.6062
  60   2.0000      -0.423661       -11.5284
  61   2.0000      -0.410158       -11.1610
  62   2.0000      -0.402575       -10.9546
  63   2.0000      -0.342010        -9.3066
  64   2.0000      -0.331589        -9.0230
  65   2.0000      -0.329450        -8.9648
  66   2.0000      -0.292200        -7.9512
  67   0.0000       0.018801         0.5116
  68   0.0000       0.067112         1.8262
  69   0.0000       0.098815         2.6889
  70   0.0000       0.122079         3.3219
  71   0.0000       0.128856         3.5063

MULLIKEN ATOMIC CHARGES
-----------------------
   0 S :    0.103082
   1 C :   -0.095646
   2 C :   -0.061415
   3 C :   -0.013171
   4 C :   -0.143366
   5 H :    0.043247
   6 C :    0.007643
   7 H :    0.030499
   8 H :    0.024174
   9 C :   -0.032041
  10 H :    0.017339
  11 H :    0.021511
  12 C :   -0.041813
  13 H :    0.036559
  14 H :    0.027149
  15 H :    0.035361
  16 S :    0.092688
  17 C :   -0.091884
  18 C :   -0.020935
  19 C :   -0.044620
  20 C :   -0.144572
  21 H :   -0.001183
  22 C :    0.058728
  23 H :    0.039830
  24 H :    0.048031
  25 C :   -0.079278
  26 H :    0.005266
  27 H :    0.023349
  28 C :   -0.001903
  29 H :    0.031197
  30 H :    0.015948
  31 H :    0.028311
  32 H :    0.028628
  33 H :    0.053285
Sum of atomic charges:    0.0000000

LOEWDIN ATOMIC CHARGES
----------------------
   0 S :    0.384489
   1 C :   -0.162741
   2 C :   -0.065951
   3 C :   -0.059971
   4 C :   -0.194628
   5 H :    0.038956
   6 C :   -0.042545
   7 H :    0.035329
   8 H :    0.028817
   9 C :   -0.036814
  10 H :    0.023930
  11 H :    0.017687
  12 C :   -0.057228
  13 H :    0.027860
  14 H :    0.022677
  15 H :    0.027129
  16 S :    0.403767
  17 C :   -0.183241
  18 C :   -0.072225
  19 C :   -0.061028
  20 C :   -0.190988
  21 H :    0.023873
  22 C :   -0.025567
  23 H :    0.033527
  24 H :    0.038856
  25 C :   -0.050689
  26 H :    0.015256
  27 H :    0.029150
  28 C :   -0.060766
  29 H :    0.024618
  30 H :    0.026193
  31 H :    0.024909
  32 H :    0.013165
  33 H :    0.024197

  Mayer bond orders larger than 0.100000
B(  0-S ,  1-C ) :   1.1392 B(  0-S ,  4-C ) :   1.1540 B(  1-C ,  2-C ) :   1.5642
B(  1-C ,  4-C ) :   0.1071 B(  1-C , 32-H ) :   0.9816 B(  2-C ,  3-C ) :   1.2827
B(  2-C ,  6-C ) :   1.0379 B(  3-C ,  4-C ) :   1.5349 B(  3-C ,  5-H ) :   0.9747
B(  4-C , 20-C ) :   1.0323 B(  6-C ,  7-H ) :   0.9275 B(  6-C ,  8-H ) :   0.9486
B(  6-C ,  9-C ) :   1.0672 B(  9-C , 10-H ) :   0.9467 B(  9-C , 11-H ) :   0.9607
B(  9-C , 12-C ) :   1.0656 B( 12-C , 13-H ) :   0.9784 B( 12-C , 14-H ) :   0.9751
B( 12-C , 15-H ) :   0.9778 B( 16-S , 17-C ) :   1.1740 B( 16-S , 20-C ) :   1.1410
B( 17-C , 18-C ) :   1.5823 B( 17-C , 33-H ) :   0.9715 B( 18-C , 19-C ) :   1.2323
B( 18-C , 21-H ) :   1.0090 B( 19-C , 20-C ) :   1.6277 B( 19-C , 22-C ) :   1.0162
B( 22-C , 23-H ) :   0.9288 B( 22-C , 24-H ) :   0.9420 B( 22-C , 25-C ) :   1.0810
B( 25-C , 26-H ) :   0.9437 B( 25-C , 27-H ) :   0.9509 B( 25-C , 28-C ) :   1.0822
B( 28-C , 29-H ) :   0.9716 B( 28-C , 30-H ) :   0.9688 B( 28-C , 31-H ) :   0.9733

Dispersion correction           -0.013853724
FINAL SINGLE POINT ENERGY     -1339.855302805382

DIPOLE MOMENT
-------------
                                X             Y             Z
Electronic contribution:      4.89818      -9.96267      20.39383
Nuclear contribution   :     -5.35247      10.01889     -20.92305
                        -----------------------------------------
Total Dipole Moment    :     -0.45429       0.05622      -0.52921
                        -----------------------------------------
Magnitude (a.u.)       :      0.69972
Magnitude (Debye)      :      1.77855

Rotational constants in cm-1:     0.021052     0.007073     0.006135
Rotational constants in MHz :   631.113216   212.029424   183.909069

                             ****ORCA TERMINATED NORMALLY****
TOTAL RUN TIME: 0 days 0 hours 0 minutes 34 seconds 10 msec
