                         Program Version 4.2.1 -  RELEASE  -
|  1> ! wB97X-D3 SP def2-SVP
|  2> %pal
|  3> nprocs 16
|  4> end
|  5>
|  6> * xyz 0 1
|  7> S 	 54.6044 	 -0.343066 	 85.3369
|  8> C 	 54.3817 	 0.14215 	 83.6072
|  9> C 	 55.0527 	 -0.731252 	 82.7368
| 10> C 	 55.619 	 -1.83917 	 83.4611
| 11> C 	 55.4945 	 -1.82487 	 84.8344
| 12> H 	 56.016 	 -2.75899 	 83.1687
| 13> C 	 55.0104 	 -0.650889 	 81.2706
| 14> H 	 55.8869 	 -1.22309 	 80.9506
| 15> H 	 55.1001 	 0.406948 	 81.121
| 16> C 	 53.8001 	 -1.17978 	 80.3949
| 17> H 	 53.5285 	 -2.21575 	 80.6468
| 18> H 	 52.9365 	 -0.553597 	 80.6248
| 19> C 	 54.0273 	 -1.21963 	 78.9302
| 20> H 	 54.2418 	 -0.223319 	 78.5015
| 21> H 	 54.988 	 -1.72368 	 78.6046
| 22> H 	 53.1399 	 -1.62621 	 78.4081
| 23> S 	 55.3274 	 -4.57874 	 85.6761
| 24> C 	 56.4371 	 -5.06073 	 86.9058
| 25> C 	 57.2976 	 -4.07425 	 87.3024
| 26> C 	 57.0674 	 -2.81244 	 86.6709
| 27> C 	 55.9362 	 -2.86225 	 85.8326
| 28> H 	 58.0059 	 -4.30727 	 88.027
| 29> C 	 57.9637 	 -1.63082 	 86.9475
| 30> H 	 58.1767 	 -1.44664 	 87.9862
| 31> H 	 57.273 	 -0.775259 	 86.7454
| 32> C 	 59.2886 	 -1.53017 	 86.0731
| 33> H 	 59.0128 	 -1.52652 	 85.021
| 34> H 	 59.862 	 -2.4829 	 86.0551
| 35> C 	 60.2347 	 -0.2919 	 86.3955
| 36> H 	 61.099 	 -0.163008 	 85.773
| 37> H 	 60.5572 	 -0.295538 	 87.4172
| 38> H 	 59.5567 	 0.558731 	 86.4127
| 39> H 	 53.8122 	 0.959919 	 83.2335
| 40> H 	 56.4949 	 -6.13933 	 87.2254
| 41> *
| 42>
| 43>                          ****END OF INPUT****

CARTESIAN COORDINATES (ANGSTROEM)
---------------------------------
  S     54.604400   -0.343066   85.336900
  C     54.381700    0.142150   83.607200
  C     55.052700   -0.731252   82.736800
  C     55.619000   -1.839170   83.461100
  C     55.494500   -1.824870   84.834400
  H     56.016000   -2.758990   83.168700
  C     55.010400   -0.650889   81.270600
  H     55.886900   -1.223090   80.950600
  H     55.100100    0.406948   81.121000
  C     53.800100   -1.179780   80.394900
  H     53.528500   -2.215750   80.646800
  H     52.936500   -0.553597   80.624800
  C     54.027300   -1.219630   78.930200
  H     54.241800   -0.223319   78.501500
  H     54.988000   -1.723680   78.604600
  H     53.139900   -1.626210   78.408100
  S     55.327400   -4.578740   85.676100
  C     56.437100   -5.060730   86.905800
  C     57.297600   -4.074250   87.302400
  C     57.067400   -2.812440   86.670900
  C     55.936200   -2.862250   85.832600
  H     58.005900   -4.307270   88.027000
  C     57.963700   -1.630820   86.947500
  H     58.176700   -1.446640   87.986200
  H     57.273000   -0.775259   86.745400
  C     59.288600   -1.530170   86.073100
  H     59.012800   -1.526520   85.021000
  H     59.862000   -2.482900   86.055100
  C     60.234700   -0.291900   86.395500
  H     61.099000   -0.163008   85.773000
  H     60.557200   -0.295538   87.417200
  H     59.556700    0.558731   86.412700
  H     53.812200    0.959919   83.233500
  H     56.494900   -6.139330   87.225400

 Total Charge           Charge          ....    0
 Multiplicity           Mult            ....    1
 Number of Electrons    NEL             ....  134
 Basis Dimension        Dim             ....  322

ORBITAL ENERGIES
----------------

  NO   OCC          E(Eh)            E(eV)
   0   2.0000     -88.970049     -2420.9981
   1   2.0000     -88.966086     -2420.8903
   2   2.0000     -10.337794      -281.3057
   3   2.0000     -10.334448      -281.2146
   4   2.0000     -10.321571      -280.8642
   5   2.0000     -10.319256      -280.8012
   6   2.0000     -10.311738      -280.5966
   7   2.0000     -10.305092      -280.4158
   8   2.0000     -10.296837      -280.1912
   9   2.0000     -10.294121      -280.1173
  10   2.0000     -10.291669      -280.0506
  11   2.0000     -10.290756      -280.0257
  12   2.0000     -10.290578      -280.0209
  13   2.0000     -10.288589      -279.9667
  14   2.0000     -10.284371      -279.8520
  15   2.0000     -10.278096      -279.6812
  16   2.0000      -8.084023      -219.9775
  17   2.0000      -8.078707      -219.8328
  18   2.0000      -6.042558      -164.4264
  19   2.0000      -6.038724      -164.3220
  20   2.0000      -6.037390      -164.2857
  21   2.0000      -6.034721      -164.2131
  22   2.0000      -6.033487      -164.1795
  23   2.0000      -6.029423      -164.0690
  24   2.0000      -0.995965       -27.1016
  25   2.0000      -0.976341       -26.5676
  26   2.0000      -0.910978       -24.7890
  27   2.0000      -0.897828       -24.4311
  28   2.0000      -0.866937       -23.5906
  29   2.0000      -0.848704       -23.0944
  30   2.0000      -0.846810       -23.0429
  31   2.0000      -0.815869       -22.2009
  32   2.0000      -0.783385       -21.3170
  33   2.0000      -0.767981       -20.8978
  34   2.0000      -0.709076       -19.2949
  35   2.0000      -0.701707       -19.0944
  36   2.0000      -0.693382       -18.8679
  37   2.0000      -0.660765       -17.9803
  38   2.0000      -0.641603       -17.4589
  39   2.0000      -0.614556       -16.7229
  40   2.0000      -0.596685       -16.2366
  41   2.0000      -0.572240       -15.5714
  42   2.0000      -0.561453       -15.2779
  43   2.0000      -0.543919       -14.8008
  44   2.0000      -0.529458       -14.4073
  45   2.0000      -0.526036       -14.3142
  46   2.0000      -0.517082       -14.0705
  47   2.0000      -0.510734       -13.8978
  48   2.0000      -0.504848       -13.7376
  49   2.0000      -0.501809       -13.6549
  50   2.0000      -0.485036       -13.1985
  51   2.0000      -0.478049       -13.0084
  52   2.0000      -0.464983       -12.6528
  53   2.0000      -0.459586       -12.5060
  54   2.0000      -0.454401       -12.3649
  55   2.0000      -0.450988       -12.2720
  56   2.0000      -0.446210       -12.1420
  57   2.0000      -0.443001       -12.0547
  58   2.0000      -0.432066       -11.7571
  59   2.0000      -0.431491       -11.7415
  60   2.0000      -0.415631       -11.3099
  61   2.0000      -0.414739       -11.2856
  62   2.0000      -0.405372       -11.0307
  63   2.0000      -0.337918        -9.1952
  64   2.0000      -0.332508        -9.0480
  65   2.0000      -0.326652        -8.8887
  66   2.0000      -0.300521        -8.1776
  67   0.0000       0.033509         0.9118
  68   0.0000       0.052140         1.4188
  69   0.0000       0.099442         2.7060
  70   0.0000       0.110326         3.0021
  71   0.0000       0.126380         3.4390

MULLIKEN ATOMIC CHARGES
-----------------------
   0 S :    0.091469
   1 C :   -0.109863
   2 C :   -0.073847
   3 C :    0.063733
   4 C :   -0.183824
   5 H :   -0.016034
   6 C :    0.060690
   7 H :    0.023241
   8 H :    0.025686
   9 C :   -0.035930
  10 H :    0.029946
  11 H :    0.024598
  12 C :   -0.075659
  13 H :    0.020274
  14 H :    0.033554
  15 H :    0.050608
  16 S :    0.103303
  17 C :   -0.112398
  18 C :    0.005294
  19 C :   -0.023587
  20 C :   -0.165405
  21 H :   -0.004234
  22 C :    0.071957
  23 H :    0.024253
  24 H :    0.018075
  25 C :   -0.081228
  26 H :    0.027779
  27 H :    0.026093
  28 C :   -0.024577
  29 H :    0.045208
  30 H :    0.019223
  31 H :    0.025884
  32 H :    0.036532
  33 H :    0.079184
Sum of atomic charges:   -0.0000000

LOEWDIN ATOMIC CHARGES
----------------------
   0 S :    0.361071
   1 C :   -0.173136
   2 C :   -0.061359
   3 C :   -0.059338
   4 C :   -0.174434
   5 H :    0.021153
   6 C :   -0.035796
   7 H :    0.034022
   8 H :    0.032680
   9 C :   -0.039703
  10 H :    0.027202
  11 H :    0.024027
  12 C :   -0.076744
  13 H :    0.022473
  14 H :    0.030509
  15 H :    0.034486
  16 S :    0.387717
  17 C :   -0.189293
  18 C :   -0.069064
  19 C :   -0.040513
  20 C :   -0.186738
  21 H :    0.023069
  22 C :   -0.036400
  23 H :    0.027923
  24 H :    0.032104
  25 C :   -0.039751
  26 H :    0.024939
  27 H :    0.022841
  28 C :   -0.063539
  29 H :    0.027099
  30 H :    0.021119
  31 H :    0.027802
  32 H :    0.022783
  33 H :    0.040792

  Mayer bond orders larger than 0.100000
B(  0-S ,  1-C ) :   1.1293 B(  0-S ,  4-C ) :   1.1194 B(  1-C ,  2-C ) :   1.6165
B(  1-C , 32-H ) :   0.9734 B(  2-C ,  3-C ) :   1.1880 B(  2-C ,  6-C ) :   1.0415
B(  3-C ,  4-C ) :   1.6408 B(  3-C ,  5-H ) :   0.9958 B(  4-C , 20-C ) :   1.0056
B(  6-C ,  7-H ) :   0.9358 B(  6-C ,  8-H ) :   0.9305 B(  6-C ,  9-C ) :   1.0594
B(  9-C , 10-H ) :   0.9557 B(  9-C , 11-H ) :   0.9498 B(  9-C , 12-C ) :   1.0894
B( 12-C , 13-H ) :   0.9716 B( 12-C , 14-H ) :   0.9707 B( 12-C , 15-H ) :   0.9706
B( 16-S , 17-C ) :   1.1610 B( 16-S , 20-C ) :   1.1266 B( 17-C , 18-C ) :   1.6166
B( 17-C , 33-H ) :   0.9554 B( 18-C , 19-C ) :   1.2312 B( 18-C , 21-H ) :   1.0044
B( 19-C , 20-C ) :   1.5934 B( 19-C , 22-C ) :   1.0462 B( 22-C , 23-H ) :   0.9445
B( 22-C , 24-H ) :   0.9216 B( 22-C , 25-C ) :   1.0381 B( 25-C , 26-H ) :   0.9551
B( 25-C , 27-H ) :   0.9625 B( 25-C , 28-C ) :   1.0664 B( 28-C , 29-H ) :   0.9773
B( 28-C , 30-H ) :   0.9759 B( 28-C , 31-H ) :   0.9754

Dispersion correction           -0.013801886
FINAL SINGLE POINT ENERGY     -1339.859786155192

DIPOLE MOMENT
-------------
                                X             Y             Z
Electronic contribution:    -11.41813      -9.22462      15.87934
Nuclear contribution   :     11.77492       9.15673     -16.19795
                        -----------------------------------------
Total Dipole Moment    :      0.35679      -0.06788      -0.31861
                        -----------------------------------------
Magnitude (a.u.)       :      0.48314
Magnitude (Debye)      :      1.22804

Rotational constants in cm-1:     0.017911     0.007450     0.006390
Rotational constants in MHz :   536.951099   223.336884   191.571792

                             ****ORCA TERMINATED NORMALLY****
TOTAL RUN TIME: 0 days 0 hours 0 minutes 28 seconds 253 msec
