                         Program Version 4.2.1 -  RELEASE  -
|  1> ! wB97X-D3 SP def2-SVP
|  2> %pal
|  3> nprocs 16
|  4> end
|  5>
|  6> * xyz 0 1
|  7> S 	 -35.085 	 73.0946 	 149.882
|  8> C 	 -33.8788 	 74.0675 	 149.035
|  9> C 	 -32.6108 	 73.7409 	 149.551
| 10> C 	 -32.6527 	 72.6819 	 150.563
| 11> C 	 -33.9052 	 72.3204 	 150.858
| 12> H 	 -31.867 	 72.3341 	 151.15
| 13> C 	 -31.2473 	 74.4013 	 149.285
| 14> H 	 -30.759 	 74.4949 	 150.296
| 15> H 	 -31.3861 	 75.3163 	 148.781
| 16> C 	 -30.276 	 73.5969 	 148.363
| 17> H 	 -30.8441 	 73.1716 	 147.495
| 18> H 	 -29.4268 	 74.168 	 147.98
| 19> C 	 -29.7117 	 72.441 	 149.172
| 20> H 	 -28.9152 	 71.9218 	 148.587
| 21> H 	 -29.1957 	 72.7693 	 150.098
| 22> H 	 -30.4732 	 71.6977 	 149.465
| 23> S 	 -34.949 	 69.7624 	 150.911
| 24> C 	 -34.7474 	 68.83 	 152.394
| 25> C 	 -33.8778 	 69.4495 	 153.247
| 26> C 	 -33.5866 	 70.7953 	 152.88
| 27> C 	 -34.1105 	 71.1003 	 151.63
| 28> H 	 -33.6333 	 68.9867 	 154.146
| 29> C 	 -32.7324 	 71.6946 	 153.846
| 30> H 	 -32.2047 	 72.5375 	 153.331
| 31> H 	 -32.017 	 70.9644 	 154.225
| 32> C 	 -33.4168 	 72.4467 	 155.021
| 33> H 	 -34.0285 	 73.2345 	 154.615
| 34> H 	 -32.6469 	 72.9369 	 155.657
| 35> C 	 -34.2905 	 71.5819 	 156.004
| 36> H 	 -33.7295 	 70.8835 	 156.629
| 37> H 	 -35.0833 	 70.9442 	 155.526
| 38> H 	 -34.6612 	 72.3274 	 156.68
| 39> H 	 -34.1241 	 74.7926 	 148.312
| 40> H 	 -35.1585 	 67.8703 	 152.644
| 41> *
| 42>
| 43>                          ****END OF INPUT****

CARTESIAN COORDINATES (ANGSTROEM)
---------------------------------
  S    -35.085000   73.094600  149.882000
  C    -33.878800   74.067500  149.035000
  C    -32.610800   73.740900  149.551000
  C    -32.652700   72.681900  150.563000
  C    -33.905200   72.320400  150.858000
  H    -31.867000   72.334100  151.150000
  C    -31.247300   74.401300  149.285000
  H    -30.759000   74.494900  150.296000
  H    -31.386100   75.316300  148.781000
  C    -30.276000   73.596900  148.363000
  H    -30.844100   73.171600  147.495000
  H    -29.426800   74.168000  147.980000
  C    -29.711700   72.441000  149.172000
  H    -28.915200   71.921800  148.587000
  H    -29.195700   72.769300  150.098000
  H    -30.473200   71.697700  149.465000
  S    -34.949000   69.762400  150.911000
  C    -34.747400   68.830000  152.394000
  C    -33.877800   69.449500  153.247000
  C    -33.586600   70.795300  152.880000
  C    -34.110500   71.100300  151.630000
  H    -33.633300   68.986700  154.146000
  C    -32.732400   71.694600  153.846000
  H    -32.204700   72.537500  153.331000
  H    -32.017000   70.964400  154.225000
  C    -33.416800   72.446700  155.021000
  H    -34.028500   73.234500  154.615000
  H    -32.646900   72.936900  155.657000
  C    -34.290500   71.581900  156.004000
  H    -33.729500   70.883500  156.629000
  H    -35.083300   70.944200  155.526000
  H    -34.661200   72.327400  156.680000
  H    -34.124100   74.792600  148.312000
  H    -35.158500   67.870300  152.644000

 Total Charge           Charge          ....    0
 Multiplicity           Mult            ....    1
 Number of Electrons    NEL             ....  134
 Basis Dimension        Dim             ....  322

ORBITAL ENERGIES
----------------

  NO   OCC          E(Eh)            E(eV)
   0   2.0000     -88.966853     -2420.9111
   1   2.0000     -88.966429     -2420.8996
   2   2.0000     -10.324956      -280.9563
   3   2.0000     -10.320707      -280.8407
   4   2.0000     -10.319970      -280.8207
   5   2.0000     -10.313181      -280.6359
   6   2.0000     -10.310291      -280.5573
   7   2.0000     -10.303269      -280.3662
   8   2.0000     -10.299698      -280.2690
   9   2.0000     -10.294547      -280.1289
  10   2.0000     -10.291551      -280.0473
  11   2.0000     -10.289849      -280.0010
  12   2.0000     -10.286691      -279.9151
  13   2.0000     -10.285725      -279.8888
  14   2.0000     -10.278248      -279.6853
  15   2.0000     -10.278195      -279.6839
  16   2.0000      -8.081584      -219.9111
  17   2.0000      -8.081523      -219.9094
  18   2.0000      -6.040083      -164.3590
  19   2.0000      -6.040049      -164.3581
  20   2.0000      -6.036137      -164.2516
  21   2.0000      -6.035999      -164.2479
  22   2.0000      -6.032347      -164.1485
  23   2.0000      -6.032172      -164.1437
  24   2.0000      -1.011114       -27.5138
  25   2.0000      -0.984613       -26.7927
  26   2.0000      -0.909508       -24.7490
  27   2.0000      -0.897644       -24.4261
  28   2.0000      -0.873960       -23.7817
  29   2.0000      -0.849202       -23.1080
  30   2.0000      -0.841089       -22.8872
  31   2.0000      -0.815891       -22.2015
  32   2.0000      -0.781705       -21.2713
  33   2.0000      -0.771840       -21.0028
  34   2.0000      -0.707604       -19.2549
  35   2.0000      -0.696963       -18.9653
  36   2.0000      -0.686258       -18.6740
  37   2.0000      -0.665483       -18.1087
  38   2.0000      -0.649173       -17.6649
  39   2.0000      -0.616975       -16.7888
  40   2.0000      -0.585871       -15.9424
  41   2.0000      -0.570170       -15.5151
  42   2.0000      -0.553711       -15.0673
  43   2.0000      -0.549747       -14.9594
  44   2.0000      -0.545090       -14.8327
  45   2.0000      -0.534915       -14.5558
  46   2.0000      -0.520978       -14.1765
  47   2.0000      -0.513735       -13.9795
  48   2.0000      -0.507112       -13.7992
  49   2.0000      -0.493894       -13.4395
  50   2.0000      -0.485215       -13.2034
  51   2.0000      -0.480360       -13.0713
  52   2.0000      -0.470593       -12.8055
  53   2.0000      -0.467755       -12.7283
  54   2.0000      -0.457624       -12.4526
  55   2.0000      -0.443320       -12.0633
  56   2.0000      -0.440424       -11.9846
  57   2.0000      -0.439026       -11.9465
  58   2.0000      -0.434608       -11.8263
  59   2.0000      -0.421465       -11.4686
  60   2.0000      -0.417389       -11.3577
  61   2.0000      -0.415031       -11.2936
  62   2.0000      -0.411072       -11.1858
  63   2.0000      -0.350128        -9.5275
  64   2.0000      -0.332669        -9.0524
  65   2.0000      -0.325324        -8.8525
  66   2.0000      -0.294704        -8.0193
  67   0.0000       0.032966         0.8971
  68   0.0000       0.074635         2.0309
  69   0.0000       0.108718         2.9584
  70   0.0000       0.112430         3.0594
  71   0.0000       0.131865         3.5882

MULLIKEN ATOMIC CHARGES
-----------------------
   0 S :    0.101790
   1 C :   -0.111675
   2 C :   -0.081725
   3 C :    0.029445
   4 C :   -0.132919
   5 H :    0.003860
   6 C :    0.068040
   7 H :    0.041248
   8 H :    0.010153
   9 C :   -0.063896
  10 H :    0.040748
  11 H :    0.037384
  12 C :   -0.102671
  13 H :    0.034581
  14 H :    0.025587
  15 H :    0.053005
  16 S :    0.119220
  17 C :   -0.090262
  18 C :   -0.012205
  19 C :   -0.056585
  20 C :   -0.148052
  21 H :   -0.004831
  22 C :    0.059395
  23 H :    0.033932
  24 H :    0.028916
  25 C :   -0.073446
  26 H :    0.036041
  27 H :    0.035490
  28 C :   -0.076312
  29 H :    0.022472
  30 H :    0.055611
  31 H :    0.031766
  32 H :    0.038913
  33 H :    0.046982
Sum of atomic charges:    0.0000000

LOEWDIN ATOMIC CHARGES
----------------------
   0 S :    0.409355
   1 C :   -0.186775
   2 C :   -0.050442
   3 C :   -0.054273
   4 C :   -0.205776
   5 H :    0.021402
   6 C :   -0.028625
   7 H :    0.037234
   8 H :    0.020521
   9 C :   -0.041642
  10 H :    0.031920
  11 H :    0.025084
  12 C :   -0.078045
  13 H :    0.026990
  14 H :    0.021701
  15 H :    0.028213
  16 S :    0.406946
  17 C :   -0.181385
  18 C :   -0.062068
  19 C :   -0.063800
  20 C :   -0.194482
  21 H :    0.020307
  22 C :   -0.034840
  23 H :    0.033676
  24 H :    0.030106
  25 C :   -0.036782
  26 H :    0.023980
  27 H :    0.030452
  28 C :   -0.075819
  29 H :    0.019734
  30 H :    0.031969
  31 H :    0.025626
  32 H :    0.021540
  33 H :    0.028001

  Mayer bond orders larger than 0.100000
B(  0-S ,  1-C ) :   1.1250 B(  0-S ,  4-C ) :   1.1511 B(  1-C ,  2-C ) :   1.6080
B(  1-C , 32-H ) :   0.9832 B(  2-C ,  3-C ) :   1.2170 B(  2-C ,  6-C ) :   1.0227
B(  3-C ,  4-C ) :   1.5931 B(  3-C ,  5-H ) :   0.9899 B(  4-C , 20-C ) :   1.0152
B(  6-C ,  7-H ) :   0.9500 B(  6-C ,  8-H ) :   0.9392 B(  6-C ,  9-C ) :   1.0613
B(  9-C , 10-H ) :   0.9510 B(  9-C , 11-H ) :   0.9592 B(  9-C , 12-C ) :   1.0842
B( 12-C , 13-H ) :   0.9716 B( 12-C , 14-H ) :   0.9736 B( 12-C , 15-H ) :   0.9681
B( 16-S , 17-C ) :   1.1357 B( 16-S , 20-C ) :   1.1501 B( 17-C , 18-C ) :   1.6352
B( 17-C , 33-H ) :   0.9678 B( 18-C , 19-C ) :   1.2391 B( 18-C , 21-H ) :   0.9921
B( 19-C , 20-C ) :   1.6139 B( 19-C , 22-C ) :   1.0180 B( 22-C , 23-H ) :   0.9354
B( 22-C , 24-H ) :   0.9385 B( 22-C , 25-C ) :   1.0765 B( 25-C , 26-H ) :   0.9586
B( 25-C , 27-H ) :   0.9539 B( 25-C , 28-C ) :   1.0752 B( 28-C , 29-H ) :   0.9766
B( 28-C , 30-H ) :   0.9730 B( 28-C , 31-H ) :   0.9751

Dispersion correction           -0.014660105
FINAL SINGLE POINT ENERGY     -1339.870845701660

DIPOLE MOMENT
-------------
                                X             Y             Z
Electronic contribution:    -19.52905      -6.03934     -11.37610
Nuclear contribution   :     20.08904       6.22726      11.63428
                        -----------------------------------------
Total Dipole Moment    :      0.55999       0.18791       0.25818
                        -----------------------------------------
Magnitude (a.u.)       :      0.64464
Magnitude (Debye)      :      1.63854

Rotational constants in cm-1:     0.018489     0.008619     0.007732
Rotational constants in MHz :   554.273447   258.387090   231.812989

                             ****ORCA TERMINATED NORMALLY****
TOTAL RUN TIME: 0 days 0 hours 0 minutes 35 seconds 164 msec
