                         Program Version 4.2.1 -  RELEASE  -
|  1> ! wB97X-D3 SP def2-SVP
|  2> %pal
|  3> nprocs 16
|  4> end
|  5>
|  6> * xyz 0 1
|  7> S 	 16.2811 	 20.9843 	 41.6256
|  8> C 	 17.7542 	 20.2221 	 40.9147
|  9> C 	 17.4665 	 19.2336 	 39.9887
| 10> C 	 16.0443 	 19.093 	 39.8995
| 11> C 	 15.2226 	 19.9659 	 40.6401
| 12> H 	 15.5967 	 18.3916 	 39.2661
| 13> C 	 18.3364 	 18.3221 	 39.1007
| 14> H 	 18.4847 	 17.2913 	 39.4987
| 15> H 	 19.37 	 18.6923 	 39.252
| 16> C 	 17.9256 	 18.4186 	 37.6699
| 17> H 	 16.9192 	 18.125 	 37.6135
| 18> H 	 18.0753 	 19.4757 	 37.4088
| 19> C 	 18.6768 	 17.358 	 36.7834
| 20> H 	 18.4171 	 17.4086 	 35.7495
| 21> H 	 19.7172 	 17.5642 	 36.977
| 22> H 	 18.4501 	 16.4123 	 37.119
| 23> S 	 12.6649 	 20.327 	 39.6613
| 24> C 	 11.341 	 19.9353 	 40.7055
| 25> C 	 11.7233 	 19.3386 	 41.8737
| 26> C 	 13.1537 	 19.3359 	 42.0186
| 27> C 	 13.7942 	 19.8497 	 40.8927
| 28> H 	 11.0968 	 19.0065 	 42.6418
| 29> C 	 13.8384 	 18.6145 	 43.1592
| 30> H 	 13.6012 	 19.2325 	 44.0855
| 31> H 	 14.9254 	 18.5881 	 43.0851
| 32> C 	 13.4418 	 17.1317 	 43.2034
| 33> H 	 12.3154 	 17.0556 	 43.1085
| 34> H 	 13.6439 	 16.6392 	 44.1996
| 35> C 	 14.2178 	 16.2842 	 42.1306
| 36> H 	 14.1119 	 15.2601 	 42.3899
| 37> H 	 15.3146 	 16.475 	 41.9994
| 38> H 	 13.9046 	 16.497 	 41.1605
| 39> H 	 18.7215 	 20.374 	 41.3363
| 40> H 	 10.2694 	 20.1577 	 40.5109
| 41> *
| 42>
| 43>                          ****END OF INPUT****

CARTESIAN COORDINATES (ANGSTROEM)
---------------------------------
  S     16.281100   20.984300   41.625600
  C     17.754200   20.222100   40.914700
  C     17.466500   19.233600   39.988700
  C     16.044300   19.093000   39.899500
  C     15.222600   19.965900   40.640100
  H     15.596700   18.391600   39.266100
  C     18.336400   18.322100   39.100700
  H     18.484700   17.291300   39.498700
  H     19.370000   18.692300   39.252000
  C     17.925600   18.418600   37.669900
  H     16.919200   18.125000   37.613500
  H     18.075300   19.475700   37.408800
  C     18.676800   17.358000   36.783400
  H     18.417100   17.408600   35.749500
  H     19.717200   17.564200   36.977000
  H     18.450100   16.412300   37.119000
  S     12.664900   20.327000   39.661300
  C     11.341000   19.935300   40.705500
  C     11.723300   19.338600   41.873700
  C     13.153700   19.335900   42.018600
  C     13.794200   19.849700   40.892700
  H     11.096800   19.006500   42.641800
  C     13.838400   18.614500   43.159200
  H     13.601200   19.232500   44.085500
  H     14.925400   18.588100   43.085100
  C     13.441800   17.131700   43.203400
  H     12.315400   17.055600   43.108500
  H     13.643900   16.639200   44.199600
  C     14.217800   16.284200   42.130600
  H     14.111900   15.260100   42.389900
  H     15.314600   16.475000   41.999400
  H     13.904600   16.497000   41.160500
  H     18.721500   20.374000   41.336300
  H     10.269400   20.157700   40.510900

 Total Charge           Charge          ....    0
 Multiplicity           Mult            ....    1
 Number of Electrons    NEL             ....  134
 Basis Dimension        Dim             ....  322

ORBITAL ENERGIES
----------------

  NO   OCC          E(Eh)            E(eV)
   0   2.0000     -88.967022     -2420.9157
   1   2.0000     -88.966576     -2420.9036
   2   2.0000     -10.330569      -281.1091
   3   2.0000     -10.323504      -280.9168
   4   2.0000     -10.319482      -280.8074
   5   2.0000     -10.318391      -280.7777
   6   2.0000     -10.305019      -280.4138
   7   2.0000     -10.301861      -280.3279
   8   2.0000     -10.298986      -280.2497
   9   2.0000     -10.296619      -280.1852
  10   2.0000     -10.292354      -280.0692
  11   2.0000     -10.290352      -280.0147
  12   2.0000     -10.289576      -279.9936
  13   2.0000     -10.284344      -279.8512
  14   2.0000     -10.273011      -279.5428
  15   2.0000     -10.271662      -279.5061
  16   2.0000      -8.082296      -219.9304
  17   2.0000      -8.079869      -219.8644
  18   2.0000      -6.040802      -164.3786
  19   2.0000      -6.038525      -164.3166
  20   2.0000      -6.036753      -164.2684
  21   2.0000      -6.034489      -164.2068
  22   2.0000      -6.032997      -164.1662
  23   2.0000      -6.030630      -164.1018
  24   2.0000      -1.004662       -27.3383
  25   2.0000      -0.979544       -26.6547
  26   2.0000      -0.917559       -24.9681
  27   2.0000      -0.904941       -24.6247
  28   2.0000      -0.869688       -23.6654
  29   2.0000      -0.846612       -23.0375
  30   2.0000      -0.840492       -22.8710
  31   2.0000      -0.810456       -22.0536
  32   2.0000      -0.785911       -21.3857
  33   2.0000      -0.773279       -21.0420
  34   2.0000      -0.710839       -19.3429
  35   2.0000      -0.699632       -19.0379
  36   2.0000      -0.690824       -18.7983
  37   2.0000      -0.661930       -18.0120
  38   2.0000      -0.640682       -17.4338
  39   2.0000      -0.622544       -16.9403
  40   2.0000      -0.598607       -16.2889
  41   2.0000      -0.573825       -15.6146
  42   2.0000      -0.565205       -15.3800
  43   2.0000      -0.554269       -15.0824
  44   2.0000      -0.536706       -14.6045
  45   2.0000      -0.526943       -14.3388
  46   2.0000      -0.514471       -13.9995
  47   2.0000      -0.503943       -13.7130
  48   2.0000      -0.502442       -13.6721
  49   2.0000      -0.498470       -13.5641
  50   2.0000      -0.491478       -13.3738
  51   2.0000      -0.478309       -13.0155
  52   2.0000      -0.465540       -12.6680
  53   2.0000      -0.462745       -12.5919
  54   2.0000      -0.458785       -12.4842
  55   2.0000      -0.450302       -12.2533
  56   2.0000      -0.445026       -12.1098
  57   2.0000      -0.441904       -12.0248
  58   2.0000      -0.433876       -11.8064
  59   2.0000      -0.427188       -11.6244
  60   2.0000      -0.421681       -11.4745
  61   2.0000      -0.412582       -11.2269
  62   2.0000      -0.408829       -11.1248
  63   2.0000      -0.336225        -9.1491
  64   2.0000      -0.332864        -9.0577
  65   2.0000      -0.326734        -8.8909
  66   2.0000      -0.300041        -8.1645
  67   0.0000       0.037044         1.0080
  68   0.0000       0.060561         1.6480
  69   0.0000       0.109012         2.9664
  70   0.0000       0.117370         3.1938
  71   0.0000       0.127856         3.4792

MULLIKEN ATOMIC CHARGES
-----------------------
   0 S :    0.099022
   1 C :   -0.133884
   2 C :   -0.062480
   3 C :    0.038761
   4 C :   -0.156375
   5 H :   -0.011987
   6 C :    0.054315
   7 H :    0.040515
   8 H :    0.011385
   9 C :   -0.089493
  10 H :    0.026488
  11 H :    0.047203
  12 C :    0.008819
  13 H :    0.036186
  14 H :    0.024006
  15 H :    0.009316
  16 S :    0.124917
  17 C :   -0.093218
  18 C :   -0.014171
  19 C :   -0.036668
  20 C :   -0.189514
  21 H :    0.003250
  22 C :    0.063035
  23 H :    0.046216
  24 H :    0.029900
  25 C :   -0.109575
  26 H :    0.034739
  27 H :    0.037029
  28 C :   -0.032753
  29 H :    0.031517
  30 H :    0.033052
  31 H :    0.021778
  32 H :    0.040414
  33 H :    0.068257
Sum of atomic charges:    0.0000000

LOEWDIN ATOMIC CHARGES
----------------------
   0 S :    0.383428
   1 C :   -0.175238
   2 C :   -0.062597
   3 C :   -0.051912
   4 C :   -0.194335
   5 H :    0.015074
   6 C :   -0.036659
   7 H :    0.034375
   8 H :    0.028887
   9 C :   -0.033079
  10 H :    0.015380
  11 H :    0.033512
  12 C :   -0.047436
  13 H :    0.025174
  14 H :    0.024133
  15 H :    0.013994
  16 S :    0.421604
  17 C :   -0.190979
  18 C :   -0.066493
  19 C :   -0.049662
  20 C :   -0.217284
  21 H :    0.023029
  22 C :   -0.040227
  23 H :    0.039726
  24 H :    0.027735
  25 C :   -0.042045
  26 H :    0.025794
  27 H :    0.027680
  28 C :   -0.062659
  29 H :    0.022607
  30 H :    0.033059
  31 H :    0.016214
  32 H :    0.021036
  33 H :    0.038165

  Mayer bond orders larger than 0.100000
B(  0-S ,  1-C ) :   1.1429 B(  0-S ,  4-C ) :   1.1284 B(  1-C ,  2-C ) :   1.6185
B(  1-C , 32-H ) :   0.9664 B(  2-C ,  3-C ) :   1.2414 B(  2-C ,  6-C ) :   1.0066
B(  3-C ,  4-C ) :   1.5972 B(  3-C ,  5-H ) :   0.9912 B(  4-C , 20-C ) :   1.0175
B(  6-C ,  7-H ) :   0.9416 B(  6-C ,  8-H ) :   0.9342 B(  6-C ,  9-C ) :   1.0558
B(  9-C , 10-H ) :   0.9579 B(  9-C , 11-H ) :   0.9571 B(  9-C , 12-C ) :   1.0743
B( 12-C , 13-H ) :   0.9755 B( 12-C , 14-H ) :   0.9769 B( 12-C , 15-H ) :   0.9741
B( 16-S , 17-C ) :   1.1595 B( 16-S , 20-C ) :   1.1435 B( 17-C , 18-C ) :   1.6078
B( 17-C , 33-H ) :   0.9611 B( 18-C , 19-C ) :   1.2421 B( 18-C , 21-H ) :   0.9933
B( 19-C , 20-C ) :   1.5985 B( 19-C , 22-C ) :   1.0442 B( 22-C , 23-H ) :   0.9305
B( 22-C , 24-H ) :   0.9396 B( 22-C , 25-C ) :   1.0606 B( 25-C , 26-H ) :   0.9571
B( 25-C , 27-H ) :   0.9597 B( 25-C , 28-C ) :   1.0575 B( 28-C , 29-H ) :   0.9762
B( 28-C , 30-H ) :   0.9728 B( 28-C , 31-H ) :   0.9779

Dispersion correction           -0.015303077
FINAL SINGLE POINT ENERGY     -1339.867196194933

DIPOLE MOMENT
-------------
                                X             Y             Z
Electronic contribution:    -11.05889      21.11282       3.66228
Nuclear contribution   :     11.19010     -21.73782      -3.61614
                        -----------------------------------------
Total Dipole Moment    :      0.13121      -0.62499       0.04614
                        -----------------------------------------
Magnitude (a.u.)       :      0.64028
Magnitude (Debye)      :      1.62747

Rotational constants in cm-1:     0.019129     0.008114     0.007894
Rotational constants in MHz :   573.486603   243.262886   236.661431

                             ****ORCA TERMINATED NORMALLY****
TOTAL RUN TIME: 0 days 0 hours 0 minutes 35 seconds 753 msec
