                         Program Version 4.2.1 -  RELEASE  -
|  1> ! wB97X-D3 SP def2-SVP
|  2> %pal
|  3> nprocs 16
|  4> end
|  5>
|  6> * xyz 0 1
|  7> S 	 -15.5112 	 36.241 	 36.844
|  8> C 	 -15.2359 	 34.5488 	 36.5682
|  9> C 	 -16.3862 	 33.8085 	 36.8974
| 10> C 	 -17.3717 	 34.6945 	 37.4612
| 11> C 	 -17.1058 	 36.0392 	 37.4719
| 12> H 	 -18.4123 	 34.397 	 37.7728
| 13> C 	 -16.5421 	 32.3043 	 36.6497
| 14> H 	 -17.3527 	 31.9813 	 37.2382
| 15> H 	 -15.6776 	 31.6669 	 36.8781
| 16> C 	 -16.8262 	 32.0753 	 35.181
| 17> H 	 -15.9908 	 32.6424 	 34.6394
| 18> H 	 -16.779 	 31.0015 	 34.8714
| 19> C 	 -18.146 	 32.6191 	 34.6846
| 20> H 	 -18.3932 	 32.4586 	 33.6637
| 21> H 	 -18.9921 	 32.0635 	 35.1707
| 22> H 	 -18.1336 	 33.6828 	 35.0042
| 23> S 	 -18.3426 	 38.186 	 36.3548
| 24> C 	 -19.2149 	 39.3102 	 37.2786
| 25> C 	 -19.2927 	 38.9073 	 38.6161
| 26> C 	 -18.6743 	 37.6042 	 38.7761
| 27> C 	 -17.9478 	 37.1648 	 37.724
| 28> H 	 -19.8658 	 39.439 	 39.3214
| 29> C 	 -18.6982 	 36.9014 	 40.1961
| 30> H 	 -18.485 	 35.8435 	 40.1221
| 31> H 	 -19.695 	 36.8945 	 40.6807
| 32> C 	 -17.8099 	 37.4938 	 41.2466
| 33> H 	 -18.1601 	 38.5214 	 41.5016
| 34> H 	 -16.8472 	 37.5902 	 40.8358
| 35> C 	 -17.6226 	 36.6542 	 42.557
| 36> H 	 -16.7508 	 36.9962 	 43.1315
| 37> H 	 -17.4532 	 35.6413 	 42.2891
| 38> H 	 -18.5139 	 36.7178 	 43.2015
| 39> H 	 -14.3455 	 34.1389 	 36.1103
| 40> H 	 -19.8326 	 40.13 	 36.957
| 41> *
| 42>
| 43>                          ****END OF INPUT****

CARTESIAN COORDINATES (ANGSTROEM)
---------------------------------
  S    -15.511200   36.241000   36.844000
  C    -15.235900   34.548800   36.568200
  C    -16.386200   33.808500   36.897400
  C    -17.371700   34.694500   37.461200
  C    -17.105800   36.039200   37.471900
  H    -18.412300   34.397000   37.772800
  C    -16.542100   32.304300   36.649700
  H    -17.352700   31.981300   37.238200
  H    -15.677600   31.666900   36.878100
  C    -16.826200   32.075300   35.181000
  H    -15.990800   32.642400   34.639400
  H    -16.779000   31.001500   34.871400
  C    -18.146000   32.619100   34.684600
  H    -18.393200   32.458600   33.663700
  H    -18.992100   32.063500   35.170700
  H    -18.133600   33.682800   35.004200
  S    -18.342600   38.186000   36.354800
  C    -19.214900   39.310200   37.278600
  C    -19.292700   38.907300   38.616100
  C    -18.674300   37.604200   38.776100
  C    -17.947800   37.164800   37.724000
  H    -19.865800   39.439000   39.321400
  C    -18.698200   36.901400   40.196100
  H    -18.485000   35.843500   40.122100
  H    -19.695000   36.894500   40.680700
  C    -17.809900   37.493800   41.246600
  H    -18.160100   38.521400   41.501600
  H    -16.847200   37.590200   40.835800
  C    -17.622600   36.654200   42.557000
  H    -16.750800   36.996200   43.131500
  H    -17.453200   35.641300   42.289100
  H    -18.513900   36.717800   43.201500
  H    -14.345500   34.138900   36.110300
  H    -19.832600   40.130000   36.957000

 Total Charge           Charge          ....    0
 Multiplicity           Mult            ....    1
 Number of Electrons    NEL             ....  134
 Basis Dimension        Dim             ....  322

ORBITAL ENERGIES
----------------

  NO   OCC          E(Eh)            E(eV)
   0   2.0000     -88.966838     -2420.9107
   1   2.0000     -88.965498     -2420.8743
   2   2.0000     -10.327921      -281.0370
   3   2.0000     -10.325561      -280.9728
   4   2.0000     -10.318871      -280.7907
   5   2.0000     -10.317498      -280.7534
   6   2.0000     -10.309884      -280.5462
   7   2.0000     -10.309348      -280.5316
   8   2.0000     -10.301135      -280.3081
   9   2.0000     -10.294794      -280.1356
  10   2.0000     -10.292848      -280.0826
  11   2.0000     -10.290366      -280.0151
  12   2.0000     -10.289242      -279.9845
  13   2.0000     -10.278452      -279.6909
  14   2.0000     -10.276953      -279.6501
  15   2.0000     -10.273095      -279.5451
  16   2.0000      -8.082172      -219.9271
  17   2.0000      -8.081236      -219.9016
  18   2.0000      -6.040574      -164.3724
  19   2.0000      -6.039740      -164.3497
  20   2.0000      -6.036390      -164.2585
  21   2.0000      -6.035464      -164.2333
  22   2.0000      -6.033183      -164.1713
  23   2.0000      -6.032042      -164.1402
  24   2.0000      -1.015980       -27.6462
  25   2.0000      -0.991224       -26.9726
  26   2.0000      -0.919099       -25.0099
  27   2.0000      -0.905462       -24.6389
  28   2.0000      -0.875148       -23.8140
  29   2.0000      -0.847150       -23.0521
  30   2.0000      -0.841017       -22.8852
  31   2.0000      -0.817494       -22.2451
  32   2.0000      -0.785763       -21.3817
  33   2.0000      -0.776798       -21.1377
  34   2.0000      -0.706018       -19.2117
  35   2.0000      -0.694819       -18.9070
  36   2.0000      -0.689771       -18.7696
  37   2.0000      -0.666401       -18.1337
  38   2.0000      -0.645687       -17.5700
  39   2.0000      -0.615730       -16.7549
  40   2.0000      -0.596870       -16.2417
  41   2.0000      -0.582641       -15.8545
  42   2.0000      -0.564068       -15.3491
  43   2.0000      -0.555876       -15.1262
  44   2.0000      -0.549078       -14.9412
  45   2.0000      -0.521586       -14.1931
  46   2.0000      -0.517829       -14.0908
  47   2.0000      -0.512017       -13.9327
  48   2.0000      -0.504828       -13.7371
  49   2.0000      -0.502167       -13.6646
  50   2.0000      -0.487751       -13.2724
  51   2.0000      -0.480172       -13.0661
  52   2.0000      -0.476178       -12.9574
  53   2.0000      -0.469064       -12.7639
  54   2.0000      -0.462355       -12.5813
  55   2.0000      -0.446407       -12.1474
  56   2.0000      -0.445527       -12.1234
  57   2.0000      -0.433045       -11.7838
  58   2.0000      -0.423815       -11.5326
  59   2.0000      -0.419089       -11.4040
  60   2.0000      -0.416290       -11.3278
  61   2.0000      -0.410818       -11.1789
  62   2.0000      -0.409939       -11.1550
  63   2.0000      -0.347938        -9.4679
  64   2.0000      -0.335237        -9.1223
  65   2.0000      -0.326831        -8.8935
  66   2.0000      -0.302242        -8.2244
  67   0.0000       0.035017         0.9529
  68   0.0000       0.061326         1.6688
  69   0.0000       0.113422         3.0864
  70   0.0000       0.119950         3.2640
  71   0.0000       0.132789         3.6134

MULLIKEN ATOMIC CHARGES
-----------------------
   0 S :    0.119457
   1 C :   -0.118161
   2 C :   -0.136929
   3 C :    0.037290
   4 C :   -0.181271
   5 H :    0.028133
   6 C :    0.131825
   7 H :    0.007110
   8 H :    0.038915
   9 C :   -0.119909
  10 H :    0.032364
  11 H :    0.034295
  12 C :   -0.055179
  13 H :    0.031523
  14 H :    0.020848
  15 H :    0.053859
  16 S :    0.119869
  17 C :   -0.074332
  18 C :   -0.032408
  19 C :   -0.018234
  20 C :   -0.149223
  21 H :    0.007364
  22 C :    0.056838
  23 H :    0.006475
  24 H :    0.020227
  25 C :   -0.070126
  26 H :    0.025723
  27 H :    0.018451
  28 C :   -0.047882
  29 H :    0.040771
  30 H :    0.023410
  31 H :    0.033369
  32 H :    0.056310
  33 H :    0.059229
Sum of atomic charges:    0.0000000

LOEWDIN ATOMIC CHARGES
----------------------
   0 S :    0.431789
   1 C :   -0.197820
   2 C :   -0.063897
   3 C :   -0.069876
   4 C :   -0.215065
   5 H :    0.037081
   6 C :   -0.025729
   7 H :    0.021858
   8 H :    0.038501
   9 C :   -0.049322
  10 H :    0.027494
  11 H :    0.023053
  12 C :   -0.072629
  13 H :    0.021524
  14 H :    0.026182
  15 H :    0.033174
  16 S :    0.431602
  17 C :   -0.196145
  18 C :   -0.067427
  19 C :   -0.044722
  20 C :   -0.206687
  21 H :    0.023769
  22 C :   -0.035234
  23 H :    0.022506
  24 H :    0.030657
  25 C :   -0.041126
  26 H :    0.023163
  27 H :    0.016718
  28 C :   -0.061043
  29 H :    0.031277
  30 H :    0.018772
  31 H :    0.024605
  32 H :    0.029532
  33 H :    0.033466

  Mayer bond orders larger than 0.100000
B(  0-S ,  1-C ) :   1.1672 B(  0-S ,  4-C ) :   1.1618 B(  1-C ,  2-C ) :   1.5671
B(  1-C ,  4-C ) :   0.1054 B(  1-C , 32-H ) :   0.9695 B(  2-C ,  3-C ) :   1.2668
B(  2-C ,  6-C ) :   1.0184 B(  3-C ,  4-C ) :   1.5739 B(  3-C ,  5-H ) :   0.9810
B(  4-C , 20-C ) :   1.0286 B(  6-C ,  7-H ) :   0.9372 B(  6-C ,  8-H ) :   0.9429
B(  6-C ,  9-C ) :   1.0610 B(  9-C , 10-H ) :   0.9557 B(  9-C , 11-H ) :   0.9564
B(  9-C , 12-C ) :   1.0796 B( 12-C , 13-H ) :   0.9728 B( 12-C , 14-H ) :   0.9702
B( 12-C , 15-H ) :   0.9721 B( 16-S , 17-C ) :   1.1778 B( 16-S , 20-C ) :   1.1319
B( 17-C , 18-C ) :   1.5916 B( 17-C , 33-H ) :   0.9674 B( 18-C , 19-C ) :   1.2332
B( 18-C , 21-H ) :   0.9978 B( 19-C , 20-C ) :   1.6241 B( 19-C , 22-C ) :   1.0415
B( 22-C , 23-H ) :   0.9360 B( 22-C , 24-H ) :   0.9391 B( 22-C , 25-C ) :   1.0716
B( 25-C , 26-H ) :   0.9537 B( 25-C , 27-H ) :   0.9551 B( 25-C , 28-C ) :   1.0796
B( 28-C , 29-H ) :   0.9761 B( 28-C , 30-H ) :   0.9751 B( 28-C , 31-H ) :   0.9776

Dispersion correction           -0.014251576
FINAL SINGLE POINT ENERGY     -1339.875716004682

DIPOLE MOMENT
-------------
                                X             Y             Z
Electronic contribution:      4.77662      15.91178     -11.16750
Nuclear contribution   :     -5.06382     -16.26715      11.36589
                        -----------------------------------------
Total Dipole Moment    :     -0.28720      -0.35537       0.19839
                        -----------------------------------------
Magnitude (a.u.)       :      0.49813
Magnitude (Debye)      :      1.26613

Rotational constants in cm-1:     0.018759     0.008475     0.007090
Rotational constants in MHz :   562.386558   254.087923   212.545202

                             ****ORCA TERMINATED NORMALLY****
TOTAL RUN TIME: 0 days 0 hours 0 minutes 32 seconds 430 msec
