                         Program Version 4.2.1 -  RELEASE  -
|  1> ! wB97X-D3 SP def2-SVP
|  2> %pal
|  3> nprocs 16
|  4> end
|  5>
|  6> * xyz 0 1
|  7> S 	 7.45245 	 25.7143 	 39.734
|  8> C 	 5.85435 	 26.3753 	 40.3169
|  9> C 	 5.44739 	 25.7366 	 41.4801
| 10> C 	 6.40002 	 24.6927 	 41.7916
| 11> C 	 7.50524 	 24.4714 	 41.0295
| 12> H 	 6.3386 	 24.0471 	 42.6676
| 13> C 	 4.26708 	 26.1399 	 42.338
| 14> H 	 3.34017 	 25.7592 	 41.9
| 15> H 	 4.16643 	 27.1951 	 42.1946
| 16> C 	 4.15617 	 25.702 	 43.8383
| 17> H 	 3.04104 	 25.7264 	 44.121
| 18> H 	 4.4761 	 24.6477 	 43.7614
| 19> C 	 5.08637 	 26.6088 	 44.6766
| 20> H 	 4.86401 	 27.6513 	 44.674
| 21> H 	 5.0164 	 26.368 	 45.7295
| 22> H 	 6.08451 	 26.5646 	 44.3295
| 23> S 	 10.2367 	 24.2131 	 41.2122
| 24> C 	 10.8736 	 22.6665 	 41.5406
| 25> C 	 9.86332 	 21.7138 	 41.5784
| 26> C 	 8.53812 	 22.16 	 41.5004
| 27> C 	 8.5633 	 23.5193 	 41.2314
| 28> H 	 10.154 	 20.6798 	 41.6119
| 29> C 	 7.35348 	 21.1648 	 41.5307
| 30> H 	 6.8852 	 21.3184 	 42.4497
| 31> H 	 7.68341 	 20.1293 	 41.5105
| 32> C 	 6.42361 	 21.2497 	 40.3202
| 33> H 	 7.13674 	 21.3244 	 39.4848
| 34> H 	 5.80999 	 22.1383 	 40.4642
| 35> C 	 5.49786 	 20.0201 	 40.0711
| 36> H 	 6.17327 	 19.1224 	 40.059
| 37> H 	 4.95116 	 19.9822 	 39.0769
| 38> H 	 4.67535 	 19.7948 	 40.7895
| 39> H 	 5.26667 	 27.1703 	 39.8531
| 40> H 	 11.9279 	 22.4714 	 41.6381
| 41> *
| 42>
| 43>                          ****END OF INPUT****

CARTESIAN COORDINATES (ANGSTROEM)
---------------------------------
  S      7.452450   25.714300   39.734000
  C      5.854350   26.375300   40.316900
  C      5.447390   25.736600   41.480100
  C      6.400020   24.692700   41.791600
  C      7.505240   24.471400   41.029500
  H      6.338600   24.047100   42.667600
  C      4.267080   26.139900   42.338000
  H      3.340170   25.759200   41.900000
  H      4.166430   27.195100   42.194600
  C      4.156170   25.702000   43.838300
  H      3.041040   25.726400   44.121000
  H      4.476100   24.647700   43.761400
  C      5.086370   26.608800   44.676600
  H      4.864010   27.651300   44.674000
  H      5.016400   26.368000   45.729500
  H      6.084510   26.564600   44.329500
  S     10.236700   24.213100   41.212200
  C     10.873600   22.666500   41.540600
  C      9.863320   21.713800   41.578400
  C      8.538120   22.160000   41.500400
  C      8.563300   23.519300   41.231400
  H     10.154000   20.679800   41.611900
  C      7.353480   21.164800   41.530700
  H      6.885200   21.318400   42.449700
  H      7.683410   20.129300   41.510500
  C      6.423610   21.249700   40.320200
  H      7.136740   21.324400   39.484800
  H      5.809990   22.138300   40.464200
  C      5.497860   20.020100   40.071100
  H      6.173270   19.122400   40.059000
  H      4.951160   19.982200   39.076900
  H      4.675350   19.794800   40.789500
  H      5.266670   27.170300   39.853100
  H     11.927900   22.471400   41.638100

 Total Charge           Charge          ....    0
 Multiplicity           Mult            ....    1
 Number of Electrons    NEL             ....  134
 Basis Dimension        Dim             ....  322

ORBITAL ENERGIES
----------------

  NO   OCC          E(Eh)            E(eV)
   0   2.0000     -88.968827     -2420.9649
   1   2.0000     -88.962879     -2420.8030
   2   2.0000     -10.332921      -281.1731
   3   2.0000     -10.329380      -281.0767
   4   2.0000     -10.320502      -280.8351
   5   2.0000     -10.315668      -280.7036
   6   2.0000     -10.308802      -280.5168
   7   2.0000     -10.306736      -280.4605
   8   2.0000     -10.302404      -280.3427
   9   2.0000     -10.293290      -280.0947
  10   2.0000     -10.291887      -280.0565
  11   2.0000     -10.291635      -280.0496
  12   2.0000     -10.290260      -280.0122
  13   2.0000     -10.289841      -280.0008
  14   2.0000     -10.287795      -279.9451
  15   2.0000     -10.272262      -279.5225
  16   2.0000      -8.083567      -219.9650
  17   2.0000      -8.075750      -219.7523
  18   2.0000      -6.042009      -164.4114
  19   2.0000      -6.038061      -164.3040
  20   2.0000      -6.034594      -164.2097
  21   2.0000      -6.034405      -164.2045
  22   2.0000      -6.030530      -164.0991
  23   2.0000      -6.026227      -163.9820
  24   2.0000      -1.004933       -27.3456
  25   2.0000      -0.977723       -26.6052
  26   2.0000      -0.910845       -24.7853
  27   2.0000      -0.908823       -24.7303
  28   2.0000      -0.869219       -23.6527
  29   2.0000      -0.853148       -23.2153
  30   2.0000      -0.834499       -22.7079
  31   2.0000      -0.810832       -22.0638
  32   2.0000      -0.786944       -21.4138
  33   2.0000      -0.777037       -21.1443
  34   2.0000      -0.714359       -19.4387
  35   2.0000      -0.700142       -19.0518
  36   2.0000      -0.689596       -18.7649
  37   2.0000      -0.661919       -18.0117
  38   2.0000      -0.640915       -17.4402
  39   2.0000      -0.615970       -16.7614
  40   2.0000      -0.600231       -16.3331
  41   2.0000      -0.575717       -15.6661
  42   2.0000      -0.560795       -15.2600
  43   2.0000      -0.549046       -14.9403
  44   2.0000      -0.532579       -14.4922
  45   2.0000      -0.523535       -14.2461
  46   2.0000      -0.516261       -14.0482
  47   2.0000      -0.514893       -14.0109
  48   2.0000      -0.501423       -13.6444
  49   2.0000      -0.496659       -13.5148
  50   2.0000      -0.487223       -13.2580
  51   2.0000      -0.483660       -13.1611
  52   2.0000      -0.473761       -12.8917
  53   2.0000      -0.466618       -12.6973
  54   2.0000      -0.458106       -12.4657
  55   2.0000      -0.446872       -12.1600
  56   2.0000      -0.443305       -12.0630
  57   2.0000      -0.437750       -11.9118
  58   2.0000      -0.434342       -11.8190
  59   2.0000      -0.426349       -11.6015
  60   2.0000      -0.416083       -11.3222
  61   2.0000      -0.411438       -11.1958
  62   2.0000      -0.409636       -11.1468
  63   2.0000      -0.348314        -9.4781
  64   2.0000      -0.338485        -9.2107
  65   2.0000      -0.325088        -8.8461
  66   2.0000      -0.288158        -7.8412
  67   0.0000       0.025165         0.6848
  68   0.0000       0.063459         1.7268
  69   0.0000       0.109286         2.9738
  70   0.0000       0.125268         3.4087
  71   0.0000       0.128389         3.4936

MULLIKEN ATOMIC CHARGES
-----------------------
   0 S :    0.083124
   1 C :   -0.138659
   2 C :   -0.061013
   3 C :    0.000100
   4 C :   -0.134173
   5 H :    0.001925
   6 C :    0.049723
   7 H :    0.034868
   8 H :    0.013609
   9 C :   -0.090521
  10 H :    0.048748
  11 H :    0.040382
  12 C :   -0.014277
  13 H :    0.018460
  14 H :    0.030255
  15 H :    0.033676
  16 S :    0.117127
  17 C :   -0.083506
  18 C :   -0.050360
  19 C :   -0.013665
  20 C :   -0.192157
  21 H :    0.008287
  22 C :    0.124740
  23 H :    0.021084
  24 H :    0.007101
  25 C :   -0.077941
  26 H :    0.044416
  27 H :    0.049681
  28 C :   -0.093821
  29 H :    0.026471
  30 H :    0.048591
  31 H :    0.039412
  32 H :    0.051581
  33 H :    0.056734
Sum of atomic charges:    0.0000000

LOEWDIN ATOMIC CHARGES
----------------------
   0 S :    0.349110
   1 C :   -0.174890
   2 C :   -0.062285
   3 C :   -0.075127
   4 C :   -0.182619
   5 H :    0.024955
   6 C :   -0.038499
   7 H :    0.035747
   8 H :    0.025527
   9 C :   -0.038324
  10 H :    0.036409
  11 H :    0.026816
  12 C :   -0.063338
  13 H :    0.023865
  14 H :    0.025026
  15 H :    0.025908
  16 S :    0.410067
  17 C :   -0.195825
  18 C :   -0.073419
  19 C :   -0.047073
  20 C :   -0.177225
  21 H :    0.026433
  22 C :   -0.018090
  23 H :    0.022812
  24 H :    0.029350
  25 C :   -0.039735
  26 H :    0.033246
  27 H :    0.026345
  28 C :   -0.082592
  29 H :    0.024297
  30 H :    0.035783
  31 H :    0.026516
  32 H :    0.031852
  33 H :    0.028976

  Mayer bond orders larger than 0.100000
B(  0-S ,  1-C ) :   1.1206 B(  0-S ,  4-C ) :   1.1022 B(  1-C ,  2-C ) :   1.6342
B(  1-C , 32-H ) :   0.9665 B(  2-C ,  3-C ) :   1.2089 B(  2-C ,  6-C ) :   1.0105
B(  3-C ,  4-C ) :   1.6296 B(  3-C ,  5-H ) :   0.9824 B(  4-C , 20-C ) :   1.0676
B(  6-C ,  7-H ) :   0.9309 B(  6-C ,  8-H ) :   0.9400 B(  6-C ,  9-C ) :   1.0672
B(  9-C , 10-H ) :   0.9573 B(  9-C , 11-H ) :   0.9517 B(  9-C , 12-C ) :   1.0684
B( 12-C , 13-H ) :   0.9741 B( 12-C , 14-H ) :   0.9756 B( 12-C , 15-H ) :   0.9760
B( 16-S , 17-C ) :   1.1639 B( 16-S , 20-C ) :   1.1454 B( 17-C , 18-C ) :   1.5877
B( 17-C , 20-C ) :   0.1094 B( 17-C , 33-H ) :   0.9704 B( 18-C , 19-C ) :   1.2593
B( 18-C , 21-H ) :   0.9907 B( 19-C , 20-C ) :   1.5743 B( 19-C , 22-C ) :   1.0281
B( 22-C , 23-H ) :   0.9200 B( 22-C , 24-H ) :   0.9383 B( 22-C , 25-C ) :   1.0593
B( 25-C , 26-H ) :   0.9593 B( 25-C , 27-H ) :   0.9504 B( 25-C , 28-C ) :   1.0788
B( 28-C , 29-H ) :   0.9722 B( 28-C , 30-H ) :   0.9760 B( 28-C , 31-H ) :   0.9765

Dispersion correction           -0.014421553
FINAL SINGLE POINT ENERGY     -1339.864396296826

DIPOLE MOMENT
-------------
                                X             Y             Z
Electronic contribution:     21.53903       9.43235     -10.39763
Nuclear contribution   :    -21.97938      -9.78346      10.78171
                        -----------------------------------------
Total Dipole Moment    :     -0.44036      -0.35111       0.38408
                        -----------------------------------------
Magnitude (a.u.)       :      0.68170
Magnitude (Debye)      :      1.73274

Rotational constants in cm-1:     0.016055     0.009158     0.007680
Rotational constants in MHz :   481.318065   274.547298   230.230827

                             ****ORCA TERMINATED NORMALLY****
TOTAL RUN TIME: 0 days 0 hours 0 minutes 33 seconds 35 msec
