                         Program Version 4.2.1 -  RELEASE  -
|  1> ! wB97X-D3 SP def2-SVP
|  2> %pal
|  3> nprocs 16
|  4> end
|  5>
|  6> * xyz 0 1
|  7> S 	 -20.5496 	 -7.28379 	 86.3683
|  8> C 	 -19.5024 	 -7.7841 	 84.9738
|  9> C 	 -18.4953 	 -8.60877 	 85.4106
| 10> C 	 -18.5871 	 -8.92443 	 86.8127
| 11> C 	 -19.6325 	 -8.35337 	 87.4192
| 12> H 	 -17.8943 	 -9.60711 	 87.3568
| 13> C 	 -17.3768 	 -9.08023 	 84.547
| 14> H 	 -16.4353 	 -8.90938 	 85.0597
| 15> H 	 -17.1396 	 -8.47392 	 83.6923
| 16> C 	 -17.758 	 -10.4919 	 83.9257
| 17> H 	 -16.8836 	 -10.9747 	 83.6197
| 18> H 	 -18.2579 	 -11.1417 	 84.7106
| 19> C 	 -18.5553 	 -10.3367 	 82.6059
| 20> H 	 -18.5423 	 -11.2665 	 82.1199
| 21> H 	 -19.5165 	 -9.98075 	 82.7646
| 22> H 	 -18.0173 	 -9.61377 	 82.038
| 23> S 	 -21.3296 	 -9.90539 	 88.9846
| 24> C 	 -21.3279 	 -9.67243 	 90.7122
| 25> C 	 -20.5275 	 -8.63243 	 91.0926
| 26> C 	 -19.9218 	 -7.99104 	 89.9683
| 27> C 	 -20.1697 	 -8.61911 	 88.7781
| 28> H 	 -20.4175 	 -8.22846 	 92.0824
| 29> C 	 -18.9625 	 -6.81246 	 90.2403
| 30> H 	 -19.504 	 -6.01109 	 90.7587
| 31> H 	 -18.6332 	 -6.52755 	 89.2361
| 32> C 	 -17.7856 	 -7.21226 	 91.1035
| 33> H 	 -17.1677 	 -7.89834 	 90.5716
| 34> H 	 -18.2152 	 -7.66986 	 91.9549
| 35> C 	 -17.0748 	 -6.037 	 91.5036
| 36> H 	 -16.2195 	 -6.3182 	 92.14
| 37> H 	 -17.8024 	 -5.38818 	 92.1076
| 38> H 	 -16.6259 	 -5.42177 	 90.6861
| 39> H 	 -19.669 	 -7.45487 	 83.951
| 40> H 	 -22.0023 	 -10.1872 	 91.4471
| 41> *
| 42>
| 43>                          ****END OF INPUT****

CARTESIAN COORDINATES (ANGSTROEM)
---------------------------------
  S    -20.549600   -7.283790   86.368300
  C    -19.502400   -7.784100   84.973800
  C    -18.495300   -8.608770   85.410600
  C    -18.587100   -8.924430   86.812700
  C    -19.632500   -8.353370   87.419200
  H    -17.894300   -9.607110   87.356800
  C    -17.376800   -9.080230   84.547000
  H    -16.435300   -8.909380   85.059700
  H    -17.139600   -8.473920   83.692300
  C    -17.758000  -10.491900   83.925700
  H    -16.883600  -10.974700   83.619700
  H    -18.257900  -11.141700   84.710600
  C    -18.555300  -10.336700   82.605900
  H    -18.542300  -11.266500   82.119900
  H    -19.516500   -9.980750   82.764600
  H    -18.017300   -9.613770   82.038000
  S    -21.329600   -9.905390   88.984600
  C    -21.327900   -9.672430   90.712200
  C    -20.527500   -8.632430   91.092600
  C    -19.921800   -7.991040   89.968300
  C    -20.169700   -8.619110   88.778100
  H    -20.417500   -8.228460   92.082400
  C    -18.962500   -6.812460   90.240300
  H    -19.504000   -6.011090   90.758700
  H    -18.633200   -6.527550   89.236100
  C    -17.785600   -7.212260   91.103500
  H    -17.167700   -7.898340   90.571600
  H    -18.215200   -7.669860   91.954900
  C    -17.074800   -6.037000   91.503600
  H    -16.219500   -6.318200   92.140000
  H    -17.802400   -5.388180   92.107600
  H    -16.625900   -5.421770   90.686100
  H    -19.669000   -7.454870   83.951000
  H    -22.002300  -10.187200   91.447100

 Total Charge           Charge          ....    0
 Multiplicity           Mult            ....    1
 Number of Electrons    NEL             ....  134
 Basis Dimension        Dim             ....  322

ORBITAL ENERGIES
----------------

  NO   OCC          E(Eh)            E(eV)
   0   2.0000     -88.964071     -2420.8354
   1   2.0000     -88.960838     -2420.7475
   2   2.0000     -10.326858      -281.0081
   3   2.0000     -10.321989      -280.8756
   4   2.0000     -10.319042      -280.7954
   5   2.0000     -10.316643      -280.7301
   6   2.0000     -10.300572      -280.2928
   7   2.0000     -10.296071      -280.1703
   8   2.0000     -10.294951      -280.1399
   9   2.0000     -10.289910      -280.0027
  10   2.0000     -10.289233      -279.9843
  11   2.0000     -10.288165      -279.9552
  12   2.0000     -10.286717      -279.9158
  13   2.0000     -10.278909      -279.7033
  14   2.0000     -10.270414      -279.4722
  15   2.0000     -10.267937      -279.4048
  16   2.0000      -8.079076      -219.8428
  17   2.0000      -8.074900      -219.7292
  18   2.0000      -6.037622      -164.2920
  19   2.0000      -6.033584      -164.1822
  20   2.0000      -6.033577      -164.1820
  21   2.0000      -6.029746      -164.0777
  22   2.0000      -6.029574      -164.0731
  23   2.0000      -6.025436      -163.9604
  24   2.0000      -1.005656       -27.3653
  25   2.0000      -0.983323       -26.7576
  26   2.0000      -0.924355       -25.1530
  27   2.0000      -0.910135       -24.7660
  28   2.0000      -0.865526       -23.5522
  29   2.0000      -0.853158       -23.2156
  30   2.0000      -0.844426       -22.9780
  31   2.0000      -0.817142       -22.2356
  32   2.0000      -0.781977       -21.2787
  33   2.0000      -0.767752       -20.8916
  34   2.0000      -0.704681       -19.1754
  35   2.0000      -0.695268       -18.9192
  36   2.0000      -0.690771       -18.7968
  37   2.0000      -0.661808       -18.0087
  38   2.0000      -0.643615       -17.5137
  39   2.0000      -0.619189       -16.8490
  40   2.0000      -0.596514       -16.2320
  41   2.0000      -0.583061       -15.8659
  42   2.0000      -0.573982       -15.6188
  43   2.0000      -0.550772       -14.9873
  44   2.0000      -0.538921       -14.6648
  45   2.0000      -0.522978       -14.2309
  46   2.0000      -0.517266       -14.0755
  47   2.0000      -0.515598       -14.0301
  48   2.0000      -0.505923       -13.7669
  49   2.0000      -0.495146       -13.4736
  50   2.0000      -0.487376       -13.2622
  51   2.0000      -0.477504       -12.9935
  52   2.0000      -0.467837       -12.7305
  53   2.0000      -0.465562       -12.6686
  54   2.0000      -0.460719       -12.5368
  55   2.0000      -0.447090       -12.1659
  56   2.0000      -0.443620       -12.0715
  57   2.0000      -0.436811       -11.8862
  58   2.0000      -0.431059       -11.7297
  59   2.0000      -0.429482       -11.6868
  60   2.0000      -0.417884       -11.3712
  61   2.0000      -0.415540       -11.3074
  62   2.0000      -0.408409       -11.1134
  63   2.0000      -0.336727        -9.1628
  64   2.0000      -0.326863        -8.8944
  65   2.0000      -0.320241        -8.7142
  66   2.0000      -0.315850        -8.5947
  67   0.0000       0.051142         1.3916
  68   0.0000       0.057455         1.5634
  69   0.0000       0.109140         2.9698
  70   0.0000       0.121174         3.2973
  71   0.0000       0.132686         3.6106

MULLIKEN ATOMIC CHARGES
-----------------------
   0 S :    0.094137
   1 C :   -0.127598
   2 C :   -0.076711
   3 C :    0.043261
   4 C :   -0.170916
   5 H :    0.028453
   6 C :    0.046834
   7 H :    0.028886
   8 H :    0.005072
   9 C :   -0.083121
  10 H :    0.015135
  11 H :    0.046884
  12 C :    0.008264
  13 H :    0.031095
  14 H :    0.023220
  15 H :    0.011257
  16 S :    0.121306
  17 C :   -0.099735
  18 C :   -0.029933
  19 C :   -0.031234
  20 C :   -0.186767
  21 H :    0.016915
  22 C :    0.063782
  23 H :    0.025608
  24 H :    0.024287
  25 C :   -0.023841
  26 H :    0.020291
  27 H :    0.009491
  28 C :   -0.055943
  29 H :    0.032447
  30 H :    0.030193
  31 H :    0.036148
  32 H :    0.050374
  33 H :    0.072458
Sum of atomic charges:   -0.0000000

LOEWDIN ATOMIC CHARGES
----------------------
   0 S :    0.366543
   1 C :   -0.174598
   2 C :   -0.061640
   3 C :   -0.062562
   4 C :   -0.187260
   5 H :    0.042398
   6 C :   -0.038656
   7 H :    0.032635
   8 H :    0.025613
   9 C :   -0.027937
  10 H :    0.013111
  11 H :    0.030224
  12 C :   -0.045849
  13 H :    0.023813
  14 H :    0.015099
  15 H :    0.020801
  16 S :    0.412025
  17 C :   -0.190011
  18 C :   -0.076365
  19 C :   -0.054759
  20 C :   -0.213478
  21 H :    0.028519
  22 C :   -0.022273
  23 H :    0.030079
  24 H :    0.027973
  25 C :   -0.042027
  26 H :    0.022992
  27 H :    0.019240
  28 C :   -0.068036
  29 H :    0.026487
  30 H :    0.030657
  31 H :    0.028368
  32 H :    0.027931
  33 H :    0.040943

  Mayer bond orders larger than 0.100000
B(  0-S ,  1-C ) :   1.1083 B(  0-S ,  4-C ) :   1.1366 B(  1-C ,  2-C ) :   1.6541
B(  1-C , 32-H ) :   0.9678 B(  2-C ,  3-C ) :   1.1917 B(  2-C ,  6-C ) :   1.0296
B(  3-C ,  4-C ) :   1.6538 B(  3-C ,  5-H ) :   0.9896 B(  4-C , 20-C ) :   0.9761
B(  6-C ,  7-H ) :   0.9451 B(  6-C ,  8-H ) :   0.9451 B(  6-C ,  9-C ) :   1.0430
B(  9-C , 10-H ) :   0.9579 B(  9-C , 11-H ) :   0.9620 B(  9-C , 12-C ) :   1.0742
B( 12-C , 13-H ) :   0.9751 B( 12-C , 14-H ) :   0.9754 B( 12-C , 15-H ) :   0.9730
B( 16-S , 17-C ) :   1.1567 B( 16-S , 20-C ) :   1.1364 B( 17-C , 18-C ) :   1.6152
B( 17-C , 33-H ) :   0.9576 B( 18-C , 19-C ) :   1.2391 B( 18-C , 21-H ) :   0.9857
B( 19-C , 20-C ) :   1.6424 B( 19-C , 22-C ) :   1.0373 B( 22-C , 23-H ) :   0.9346
B( 22-C , 24-H ) :   0.9275 B( 22-C , 25-C ) :   1.0812 B( 25-C , 26-H ) :   0.9431
B( 25-C , 27-H ) :   0.9461 B( 25-C , 28-C ) :   1.1110 B( 28-C , 29-H ) :   0.9675
B( 28-C , 30-H ) :   0.9681 B( 28-C , 31-H ) :   0.9679

Dispersion correction           -0.014099687
FINAL SINGLE POINT ENERGY     -1339.870257577147

DIPOLE MOMENT
-------------
                                X             Y             Z
Electronic contribution:    -19.01436      -1.78770       2.97103
Nuclear contribution   :     19.57462       1.73189      -2.94579
                        -----------------------------------------
Total Dipole Moment    :      0.56026      -0.05581       0.02524
                        -----------------------------------------
Magnitude (a.u.)       :      0.56360
Magnitude (Debye)      :      1.43255

Rotational constants in cm-1:     0.020844     0.007628     0.006611
Rotational constants in MHz :   624.886980   228.679872   198.191250

                             ****ORCA TERMINATED NORMALLY****
TOTAL RUN TIME: 0 days 0 hours 0 minutes 33 seconds 629 msec
