                         Program Version 4.2.1 -  RELEASE  -
|  1> ! wB97X-D3 SP def2-SVP
|  2> %pal
|  3> nprocs 16
|  4> end
|  5>
|  6> * xyz 0 1
|  7> S 	 -54.9868 	 42.3191 	 111.25
|  8> C 	 -53.6519 	 42.0349 	 110.17
|  9> C 	 -53.5836 	 40.7084 	 109.877
| 10> C 	 -54.5645 	 39.8919 	 110.633
| 11> C 	 -55.3951 	 40.5933 	 111.505
| 12> H 	 -54.7148 	 38.8403 	 110.471
| 13> C 	 -52.6619 	 40.1653 	 108.791
| 14> H 	 -52.0887 	 40.956 	 108.216
| 15> H 	 -53.3844 	 39.7105 	 108.021
| 16> C 	 -51.6594 	 39.1389 	 109.28
| 17> H 	 -51.2123 	 39.5749 	 110.194
| 18> H 	 -52.154 	 38.2395 	 109.675
| 19> C 	 -50.6208 	 38.4941 	 108.299
| 20> H 	 -49.7699 	 39.1512 	 108.125
| 21> H 	 -50.2624 	 37.5137 	 108.671
| 22> H 	 -50.9088 	 38.3686 	 107.3
| 23> S 	 -55.9672 	 39.14 	 113.692
| 24> C 	 -57.6374 	 38.6418 	 114.005
| 25> C 	 -58.5045 	 39.2822 	 113.135
| 26> C 	 -57.8443 	 40.0834 	 112.133
| 27> C 	 -56.461 	 40.0319 	 112.273
| 28> H 	 -59.5428 	 39.1097 	 113.354
| 29> C 	 -58.5139 	 40.8299 	 111.062
| 30> H 	 -58.5726 	 40.0138 	 110.303
| 31> H 	 -57.7862 	 41.4357 	 110.57
| 32> C 	 -59.8565 	 41.52 	 111.367
| 33> H 	 -59.6881 	 42.1249 	 112.286
| 34> H 	 -60.622 	 40.853 	 111.673
| 35> C 	 -60.3323 	 42.3267 	 110.232
| 36> H 	 -59.6223 	 43.1586 	 109.969
| 37> H 	 -61.2775 	 42.7971 	 110.435
| 38> H 	 -60.4115 	 41.6886 	 109.305
| 39> H 	 -53.0534 	 42.8349 	 109.751
| 40> H 	 -57.934 	 38.1197 	 114.877
| 41> *
| 42>
| 43>                          ****END OF INPUT****

CARTESIAN COORDINATES (ANGSTROEM)
---------------------------------
  S    -54.986800   42.319100  111.250000
  C    -53.651900   42.034900  110.170000
  C    -53.583600   40.708400  109.877000
  C    -54.564500   39.891900  110.633000
  C    -55.395100   40.593300  111.505000
  H    -54.714800   38.840300  110.471000
  C    -52.661900   40.165300  108.791000
  H    -52.088700   40.956000  108.216000
  H    -53.384400   39.710500  108.021000
  C    -51.659400   39.138900  109.280000
  H    -51.212300   39.574900  110.194000
  H    -52.154000   38.239500  109.675000
  C    -50.620800   38.494100  108.299000
  H    -49.769900   39.151200  108.125000
  H    -50.262400   37.513700  108.671000
  H    -50.908800   38.368600  107.300000
  S    -55.967200   39.140000  113.692000
  C    -57.637400   38.641800  114.005000
  C    -58.504500   39.282200  113.135000
  C    -57.844300   40.083400  112.133000
  C    -56.461000   40.031900  112.273000
  H    -59.542800   39.109700  113.354000
  C    -58.513900   40.829900  111.062000
  H    -58.572600   40.013800  110.303000
  H    -57.786200   41.435700  110.570000
  C    -59.856500   41.520000  111.367000
  H    -59.688100   42.124900  112.286000
  H    -60.622000   40.853000  111.673000
  C    -60.332300   42.326700  110.232000
  H    -59.622300   43.158600  109.969000
  H    -61.277500   42.797100  110.435000
  H    -60.411500   41.688600  109.305000
  H    -53.053400   42.834900  109.751000
  H    -57.934000   38.119700  114.877000

 Total Charge           Charge          ....    0
 Multiplicity           Mult            ....    1
 Number of Electrons    NEL             ....  134
 Basis Dimension        Dim             ....  322

ORBITAL ENERGIES
----------------

  NO   OCC          E(Eh)            E(eV)
   0   2.0000     -88.963130     -2420.8099
   1   2.0000     -88.961042     -2420.7530
   2   2.0000     -10.333168      -281.1798
   3   2.0000     -10.322436      -280.8878
   4   2.0000     -10.316841      -280.7355
   5   2.0000     -10.315390      -280.6960
   6   2.0000     -10.306322      -280.4493
   7   2.0000     -10.305509      -280.4272
   8   2.0000     -10.303215      -280.3647
   9   2.0000     -10.300732      -280.2972
  10   2.0000     -10.295825      -280.1636
  11   2.0000     -10.288410      -279.9619
  12   2.0000     -10.286656      -279.9141
  13   2.0000     -10.285318      -279.8777
  14   2.0000     -10.279700      -279.7248
  15   2.0000     -10.278185      -279.6836
  16   2.0000      -8.077694      -219.8052
  17   2.0000      -8.075269      -219.7393
  18   2.0000      -6.036179      -164.2528
  19   2.0000      -6.033913      -164.1911
  20   2.0000      -6.032227      -164.1452
  21   2.0000      -6.029751      -164.0779
  22   2.0000      -6.028479      -164.0432
  23   2.0000      -6.025965      -163.9748
  24   2.0000      -1.003981       -27.3197
  25   2.0000      -0.980757       -26.6878
  26   2.0000      -0.916283       -24.9333
  27   2.0000      -0.905459       -24.6388
  28   2.0000      -0.875289       -23.8178
  29   2.0000      -0.857365       -23.3301
  30   2.0000      -0.838722       -22.8228
  31   2.0000      -0.817769       -22.2526
  32   2.0000      -0.780781       -21.2461
  33   2.0000      -0.770117       -20.9559
  34   2.0000      -0.710812       -19.3422
  35   2.0000      -0.707008       -19.2387
  36   2.0000      -0.693306       -18.8658
  37   2.0000      -0.657595       -17.8941
  38   2.0000      -0.642785       -17.4911
  39   2.0000      -0.616678       -16.7807
  40   2.0000      -0.597795       -16.2668
  41   2.0000      -0.567511       -15.4428
  42   2.0000      -0.565127       -15.3779
  43   2.0000      -0.555184       -15.1073
  44   2.0000      -0.540040       -14.6952
  45   2.0000      -0.523958       -14.2576
  46   2.0000      -0.522831       -14.2270
  47   2.0000      -0.512170       -13.9368
  48   2.0000      -0.506820       -13.7913
  49   2.0000      -0.498906       -13.5759
  50   2.0000      -0.492094       -13.3905
  51   2.0000      -0.479154       -13.0384
  52   2.0000      -0.474885       -12.9223
  53   2.0000      -0.460774       -12.5383
  54   2.0000      -0.456435       -12.4202
  55   2.0000      -0.452122       -12.3029
  56   2.0000      -0.443069       -12.0565
  57   2.0000      -0.439530       -11.9602
  58   2.0000      -0.434859       -11.8331
  59   2.0000      -0.423975       -11.5370
  60   2.0000      -0.415107       -11.2956
  61   2.0000      -0.409909       -11.1542
  62   2.0000      -0.404479       -11.0064
  63   2.0000      -0.338272        -9.2049
  64   2.0000      -0.329961        -8.9787
  65   2.0000      -0.320590        -8.7237
  66   2.0000      -0.301534        -8.2052
  67   0.0000       0.037782         1.0281
  68   0.0000       0.059357         1.6152
  69   0.0000       0.110248         3.0000
  70   0.0000       0.115500         3.1429
  71   0.0000       0.133825         3.6416

MULLIKEN ATOMIC CHARGES
-----------------------
   0 S :    0.092447
   1 C :   -0.128210
   2 C :   -0.072451
   3 C :    0.049198
   4 C :   -0.162773
   5 H :    0.014793
   6 C :    0.034536
   7 H :    0.031592
   8 H :    0.045351
   9 C :   -0.101315
  10 H :    0.035728
  11 H :    0.027968
  12 C :   -0.027415
  13 H :    0.023227
  14 H :    0.041109
  15 H :    0.012593
  16 S :    0.110843
  17 C :   -0.086387
  18 C :   -0.048911
  19 C :   -0.007295
  20 C :   -0.195018
  21 H :    0.017222
  22 C :    0.085442
  23 H :    0.033914
  24 H :    0.002631
  25 C :   -0.049710
  26 H :    0.034651
  27 H :    0.022776
  28 C :   -0.044727
  29 H :    0.037954
  30 H :    0.031103
  31 H :    0.033538
  32 H :    0.057766
  33 H :    0.047830
Sum of atomic charges:   -0.0000000

LOEWDIN ATOMIC CHARGES
----------------------
   0 S :    0.382758
   1 C :   -0.191085
   2 C :   -0.069418
   3 C :   -0.051309
   4 C :   -0.192882
   5 H :    0.027966
   6 C :   -0.040969
   7 H :    0.033307
   8 H :    0.039233
   9 C :   -0.053296
  10 H :    0.029363
  11 H :    0.024660
  12 C :   -0.067614
  13 H :    0.024291
  14 H :    0.033200
  15 H :    0.018061
  16 S :    0.405119
  17 C :   -0.170726
  18 C :   -0.071751
  19 C :   -0.044595
  20 C :   -0.210506
  21 H :    0.031108
  22 C :   -0.038817
  23 H :    0.045449
  24 H :    0.023115
  25 C :   -0.041869
  26 H :    0.031335
  27 H :    0.020253
  28 C :   -0.066633
  29 H :    0.031306
  30 H :    0.023572
  31 H :    0.031263
  32 H :    0.033966
  33 H :    0.022148

  Mayer bond orders larger than 0.100000
B(  0-S ,  1-C ) :   1.1356 B(  0-S ,  4-C ) :   1.1123 B(  1-C ,  2-C ) :   1.6205
B(  1-C , 32-H ) :   0.9726 B(  2-C ,  3-C ) :   1.2115 B(  2-C ,  6-C ) :   1.0283
B(  3-C ,  4-C ) :   1.5951 B(  3-C ,  5-H ) :   0.9921 B(  4-C , 20-C ) :   1.0543
B(  6-C ,  7-H ) :   0.9504 B(  6-C ,  8-H ) :   0.9346 B(  6-C ,  9-C ) :   1.0521
B(  9-C , 10-H ) :   0.9581 B(  9-C , 11-H ) :   0.9597 B(  9-C , 12-C ) :   1.0681
B( 12-C , 13-H ) :   0.9740 B( 12-C , 14-H ) :   0.9791 B( 12-C , 15-H ) :   0.9740
B( 16-S , 17-C ) :   1.1533 B( 16-S , 20-C ) :   1.1457 B( 17-C , 18-C ) :   1.6206
B( 17-C , 20-C ) :   0.1014 B( 17-C , 33-H ) :   0.9705 B( 18-C , 19-C ) :   1.2035
B( 18-C , 21-H ) :   0.9957 B( 19-C , 20-C ) :   1.5814 B( 19-C , 22-C ) :   1.0607
B( 22-C , 23-H ) :   0.9080 B( 22-C , 24-H ) :   0.9211 B( 22-C , 25-C ) :   1.0473
B( 25-C , 26-H ) :   0.9556 B( 25-C , 27-H ) :   0.9440 B( 25-C , 28-C ) :   1.1056
B( 28-C , 29-H ) :   0.9720 B( 28-C , 30-H ) :   0.9703 B( 28-C , 31-H ) :   0.9693

Dispersion correction           -0.013692623
FINAL SINGLE POINT ENERGY     -1339.873489426707

DIPOLE MOMENT
-------------
                                X             Y             Z
Electronic contribution:     -0.12590       2.12239      17.87416
Nuclear contribution   :     -0.12661      -2.29823     -18.31055
                        -----------------------------------------
Total Dipole Moment    :     -0.25251      -0.17584      -0.43639
                        -----------------------------------------
Magnitude (a.u.)       :      0.53396
Magnitude (Debye)      :      1.35722

Rotational constants in cm-1:     0.020122     0.007251     0.006111
Rotational constants in MHz :   603.233653   217.384856   183.208011

                             ****ORCA TERMINATED NORMALLY****
TOTAL RUN TIME: 0 days 0 hours 0 minutes 28 seconds 247 msec
