                         Program Version 4.2.1 -  RELEASE  -
|  1> ! wB97X-D3 SP def2-SVP
|  2> %pal
|  3> nprocs 16
|  4> end
|  5>
|  6> * xyz 0 1
|  7> S 	 45.5939 	 5.85156 	 85.5869
|  8> C 	 46.6573 	 5.13976 	 84.4085
|  9> C 	 47.1972 	 3.89754 	 84.7112
| 10> C 	 46.6374 	 3.53054 	 85.977
| 11> C 	 45.7701 	 4.47873 	 86.5226
| 12> H 	 46.9069 	 2.62764 	 86.5517
| 13> C 	 48.0584 	 3.0646 	 83.8338
| 14> H 	 48.7742 	 2.49459 	 84.4034
| 15> H 	 48.5845 	 3.71629 	 83.1766
| 16> C 	 47.258 	 2.15129 	 82.873
| 17> H 	 46.6622 	 1.45131 	 83.4035
| 18> H 	 46.5092 	 2.80495 	 82.3192
| 19> C 	 48.2101 	 1.26742 	 81.8673
| 20> H 	 47.6493 	 0.716174 	 81.2049
| 21> H 	 48.8815 	 1.94981 	 81.2567
| 22> H 	 48.8153 	 0.585421 	 82.4188
| 23> S 	 45.0104 	 5.71313 	 88.8902
| 24> C 	 44.1253 	 4.75225 	 90.0363
| 25> C 	 44.1027 	 3.43868 	 89.6585
| 26> C 	 44.4837 	 3.21332 	 88.327
| 27> C 	 45.04 	 4.37654 	 87.7493
| 28> H 	 43.6424 	 2.73867 	 90.3509
| 29> C 	 44.2736 	 1.87068 	 87.592
| 30> H 	 45.1417 	 1.61619 	 87.0473
| 31> H 	 43.6674 	 2.09953 	 86.7494
| 32> C 	 43.9121 	 0.722733 	 88.5377
| 33> H 	 42.9636 	 0.925852 	 89.0225
| 34> H 	 44.7567 	 0.601334 	 89.277
| 35> C 	 43.7712 	 -0.69 	 87.8101
| 36> H 	 43.0488 	 -0.679968 	 86.9308
| 37> H 	 43.5353 	 -1.43726 	 88.4837
| 38> H 	 44.7507 	 -0.901693 	 87.327
| 39> H 	 46.9271 	 5.69478 	 83.5558
| 40> H 	 43.6358 	 5.23509 	 90.8621
| 41> *
| 42>
| 43>                          ****END OF INPUT****

CARTESIAN COORDINATES (ANGSTROEM)
---------------------------------
  S     45.593900    5.851560   85.586900
  C     46.657300    5.139760   84.408500
  C     47.197200    3.897540   84.711200
  C     46.637400    3.530540   85.977000
  C     45.770100    4.478730   86.522600
  H     46.906900    2.627640   86.551700
  C     48.058400    3.064600   83.833800
  H     48.774200    2.494590   84.403400
  H     48.584500    3.716290   83.176600
  C     47.258000    2.151290   82.873000
  H     46.662200    1.451310   83.403500
  H     46.509200    2.804950   82.319200
  C     48.210100    1.267420   81.867300
  H     47.649300    0.716174   81.204900
  H     48.881500    1.949810   81.256700
  H     48.815300    0.585421   82.418800
  S     45.010400    5.713130   88.890200
  C     44.125300    4.752250   90.036300
  C     44.102700    3.438680   89.658500
  C     44.483700    3.213320   88.327000
  C     45.040000    4.376540   87.749300
  H     43.642400    2.738670   90.350900
  C     44.273600    1.870680   87.592000
  H     45.141700    1.616190   87.047300
  H     43.667400    2.099530   86.749400
  C     43.912100    0.722733   88.537700
  H     42.963600    0.925852   89.022500
  H     44.756700    0.601334   89.277000
  C     43.771200   -0.690000   87.810100
  H     43.048800   -0.679968   86.930800
  H     43.535300   -1.437260   88.483700
  H     44.750700   -0.901693   87.327000
  H     46.927100    5.694780   83.555800
  H     43.635800    5.235090   90.862100

 Total Charge           Charge          ....    0
 Multiplicity           Mult            ....    1
 Number of Electrons    NEL             ....  134
 Basis Dimension        Dim             ....  322

ORBITAL ENERGIES
----------------

  NO   OCC          E(Eh)            E(eV)
   0   2.0000     -88.967757     -2420.9358
   1   2.0000     -88.961605     -2420.7683
   2   2.0000     -10.319575      -280.8099
   3   2.0000     -10.318605      -280.7835
   4   2.0000     -10.311408      -280.5877
   5   2.0000     -10.307302      -280.4759
   6   2.0000     -10.302467      -280.3444
   7   2.0000     -10.301445      -280.3166
   8   2.0000     -10.297567      -280.2110
   9   2.0000     -10.296590      -280.1844
  10   2.0000     -10.294147      -280.1180
  11   2.0000     -10.292196      -280.0649
  12   2.0000     -10.288928      -279.9760
  13   2.0000     -10.286049      -279.8976
  14   2.0000     -10.284085      -279.8442
  15   2.0000     -10.283954      -279.8406
  16   2.0000      -8.084330      -219.9858
  17   2.0000      -8.076689      -219.7779
  18   2.0000      -6.042415      -164.4225
  19   2.0000      -6.038710      -164.3216
  20   2.0000      -6.035300      -164.2289
  21   2.0000      -6.035053      -164.2221
  22   2.0000      -6.031116      -164.1150
  23   2.0000      -6.027649      -164.0207
  24   2.0000      -1.013896       -27.5895
  25   2.0000      -0.986947       -26.8562
  26   2.0000      -0.914611       -24.8878
  27   2.0000      -0.904922       -24.6242
  28   2.0000      -0.866475       -23.5780
  29   2.0000      -0.850389       -23.1403
  30   2.0000      -0.842111       -22.9150
  31   2.0000      -0.809870       -22.0377
  32   2.0000      -0.789412       -21.4810
  33   2.0000      -0.773792       -21.0560
  34   2.0000      -0.710981       -19.3468
  35   2.0000      -0.705936       -19.2095
  36   2.0000      -0.697395       -18.9771
  37   2.0000      -0.653921       -17.7941
  38   2.0000      -0.638420       -17.3723
  39   2.0000      -0.622884       -16.9495
  40   2.0000      -0.601351       -16.3636
  41   2.0000      -0.571397       -15.5485
  42   2.0000      -0.563754       -15.3405
  43   2.0000      -0.556548       -15.1444
  44   2.0000      -0.533950       -14.5295
  45   2.0000      -0.522526       -14.2186
  46   2.0000      -0.518401       -14.1064
  47   2.0000      -0.507582       -13.8120
  48   2.0000      -0.502977       -13.6867
  49   2.0000      -0.493802       -13.4370
  50   2.0000      -0.485229       -13.2038
  51   2.0000      -0.481958       -13.1147
  52   2.0000      -0.475821       -12.9478
  53   2.0000      -0.461752       -12.5649
  54   2.0000      -0.456763       -12.4291
  55   2.0000      -0.453327       -12.3357
  56   2.0000      -0.449238       -12.2244
  57   2.0000      -0.442680       -12.0459
  58   2.0000      -0.436015       -11.8646
  59   2.0000      -0.431921       -11.7532
  60   2.0000      -0.425895       -11.5892
  61   2.0000      -0.424085       -11.5400
  62   2.0000      -0.414567       -11.2810
  63   2.0000      -0.344393        -9.3714
  64   2.0000      -0.334682        -9.1072
  65   2.0000      -0.329945        -8.9783
  66   2.0000      -0.280793        -7.6408
  67   0.0000       0.025448         0.6925
  68   0.0000       0.080269         2.1842
  69   0.0000       0.109694         2.9849
  70   0.0000       0.122328         3.3287
  71   0.0000       0.132422         3.6034

MULLIKEN ATOMIC CHARGES
-----------------------
   0 S :    0.135516
   1 C :   -0.116634
   2 C :   -0.077303
   3 C :   -0.011460
   4 C :   -0.176108
   5 H :    0.028231
   6 C :    0.122240
   7 H :    0.022780
   8 H :    0.009188
   9 C :   -0.101763
  10 H :    0.020415
  11 H :    0.037602
  12 C :   -0.029408
  13 H :    0.022096
  14 H :    0.036404
  15 H :    0.028499
  16 S :    0.098123
  17 C :   -0.097490
  18 C :   -0.049526
  19 C :   -0.060142
  20 C :   -0.126171
  21 H :    0.022304
  22 C :    0.143354
  23 H :   -0.017631
  24 H :    0.023447
  25 C :   -0.120158
  26 H :    0.043433
  27 H :    0.049062
  28 C :   -0.035982
  29 H :    0.039262
  30 H :    0.029681
  31 H :    0.027755
  32 H :    0.022445
  33 H :    0.057940
Sum of atomic charges:   -0.0000000

LOEWDIN ATOMIC CHARGES
----------------------
   0 S :    0.452136
   1 C :   -0.192790
   2 C :   -0.055328
   3 C :   -0.065607
   4 C :   -0.225345
   5 H :    0.032797
   6 C :   -0.027856
   7 H :    0.029832
   8 H :    0.028656
   9 C :   -0.030163
  10 H :    0.013619
  11 H :    0.030255
  12 C :   -0.057200
  13 H :    0.013987
  14 H :    0.030858
  15 H :    0.020756
  16 S :    0.400257
  17 C :   -0.184682
  18 C :   -0.076904
  19 C :   -0.050446
  20 C :   -0.207983
  21 H :    0.033120
  22 C :   -0.031403
  23 H :    0.021187
  24 H :    0.035184
  25 C :   -0.038191
  26 H :    0.021441
  27 H :    0.034983
  28 C :   -0.062988
  29 H :    0.031303
  30 H :    0.014132
  31 H :    0.025766
  32 H :    0.010334
  33 H :    0.026283

  Mayer bond orders larger than 0.100000
B(  0-S ,  1-C ) :   1.1587 B(  0-S ,  4-C ) :   1.1794 B(  1-C ,  2-C ) :   1.5901
B(  1-C , 32-H ) :   0.9699 B(  2-C ,  3-C ) :   1.2569 B(  2-C ,  6-C ) :   1.0440
B(  3-C ,  4-C ) :   1.5505 B(  3-C ,  5-H ) :   0.9810 B(  4-C , 20-C ) :   1.0530
B(  6-C ,  7-H ) :   0.9358 B(  6-C ,  8-H ) :   0.9288 B(  6-C ,  9-C ) :   1.0533
B(  9-C , 10-H ) :   0.9612 B(  9-C , 11-H ) :   0.9593 B(  9-C , 12-C ) :   1.0630
B( 12-C , 13-H ) :   0.9787 B( 12-C , 14-H ) :   0.9793 B( 12-C , 15-H ) :   0.9779
B( 16-S , 17-C ) :   1.1644 B( 16-S , 20-C ) :   1.1509 B( 17-C , 18-C ) :   1.5630
B( 17-C , 20-C ) :   0.1138 B( 17-C , 33-H ) :   0.9702 B( 18-C , 19-C ) :   1.2845
B( 18-C , 21-H ) :   0.9885 B( 19-C , 20-C ) :   1.5553 B( 19-C , 22-C ) :   1.0208
B( 22-C , 23-H ) :   0.9173 B( 22-C , 24-H ) :   0.9176 B( 22-C , 25-C ) :   1.0746
B( 25-C , 26-H ) :   0.9506 B( 25-C , 27-H ) :   0.9540 B( 25-C , 28-C ) :   1.0763
B( 28-C , 29-H ) :   0.9770 B( 28-C , 30-H ) :   0.9763 B( 28-C , 31-H ) :   0.9755

Dispersion correction           -0.013627573
FINAL SINGLE POINT ENERGY     -1339.869003132577

DIPOLE MOMENT
-------------
                                X             Y             Z
Electronic contribution:     -3.87933      29.78634      13.14423
Nuclear contribution   :      3.94268     -30.45806     -13.35942
                        -----------------------------------------
Total Dipole Moment    :      0.06335      -0.67172      -0.21518
                        -----------------------------------------
Magnitude (a.u.)       :      0.70819
Magnitude (Debye)      :      1.80007

Rotational constants in cm-1:     0.016778     0.008873     0.006064
Rotational constants in MHz :   502.985860   265.994911   181.806353

                             ****ORCA TERMINATED NORMALLY****
TOTAL RUN TIME: 0 days 0 hours 0 minutes 29 seconds 471 msec
