                         Program Version 4.2.1 -  RELEASE  -
|  1> ! wB97X-D3 SP def2-SVP
|  2> %pal
|  3> nprocs 16
|  4> end
|  5>
|  6> * xyz 0 1
|  7> S 	 -17.0132 	 -3.06641 	 83.0861
|  8> C 	 -16.0849 	 -4.36711 	 82.3856
|  9> C 	 -16.6907 	 -5.59427 	 82.6238
| 10> C 	 -17.8474 	 -5.5287 	 83.4828
| 11> C 	 -18.1913 	 -4.17068 	 83.7625
| 12> H 	 -18.4705 	 -6.35368 	 83.9014
| 13> C 	 -16.1408 	 -6.87216 	 82.1144
| 14> H 	 -15.85 	 -7.61325 	 82.8514
| 15> H 	 -15.1575 	 -6.81438 	 81.5581
| 16> C 	 -17.043 	 -7.59382 	 81.1066
| 17> H 	 -17.9984 	 -7.70269 	 81.4888
| 18> H 	 -17.294 	 -6.9633 	 80.1661
| 19> C 	 -16.4605 	 -8.84608 	 80.5755
| 20> H 	 -15.8506 	 -8.77387 	 79.6538
| 21> H 	 -15.8636 	 -9.48258 	 81.2527
| 22> H 	 -17.2457 	 -9.47362 	 80.1657
| 23> S 	 -20.8799 	 -4.68346 	 84.2364
| 24> C 	 -21.8189 	 -3.58094 	 85.0841
| 25> C 	 -21.0403 	 -2.67672 	 85.7255
| 26> C 	 -19.653 	 -2.79782 	 85.3917
| 27> C 	 -19.3908 	 -3.77241 	 84.4958
| 28> H 	 -21.5188 	 -1.92204 	 86.3439
| 29> C 	 -18.6675 	 -1.77558 	 85.7672
| 30> H 	 -17.6571 	 -2.07025 	 85.4552
| 31> H 	 -18.6507 	 -1.72543 	 86.8725
| 32> C 	 -18.981 	 -0.42815 	 85.1979
| 33> H 	 -19.9045 	 -0.0271536 	 85.6156
| 34> H 	 -19.1752 	 -0.459049 	 84.1162
| 35> C 	 -17.8026 	 0.560311 	 85.5141
| 36> H 	 -17.967 	 1.37976 	 84.743
| 37> H 	 -16.8522 	 0.0960768 	 85.2952
| 38> H 	 -17.7929 	 1.07305 	 86.5603
| 39> H 	 -15.2025 	 -4.33665 	 81.73
| 40> H 	 -22.938 	 -3.65057 	 85.0819
| 41> *
| 42>
| 43>                          ****END OF INPUT****

CARTESIAN COORDINATES (ANGSTROEM)
---------------------------------
  S    -17.013200   -3.066410   83.086100
  C    -16.084900   -4.367110   82.385600
  C    -16.690700   -5.594270   82.623800
  C    -17.847400   -5.528700   83.482800
  C    -18.191300   -4.170680   83.762500
  H    -18.470500   -6.353680   83.901400
  C    -16.140800   -6.872160   82.114400
  H    -15.850000   -7.613250   82.851400
  H    -15.157500   -6.814380   81.558100
  C    -17.043000   -7.593820   81.106600
  H    -17.998400   -7.702690   81.488800
  H    -17.294000   -6.963300   80.166100
  C    -16.460500   -8.846080   80.575500
  H    -15.850600   -8.773870   79.653800
  H    -15.863600   -9.482580   81.252700
  H    -17.245700   -9.473620   80.165700
  S    -20.879900   -4.683460   84.236400
  C    -21.818900   -3.580940   85.084100
  C    -21.040300   -2.676720   85.725500
  C    -19.653000   -2.797820   85.391700
  C    -19.390800   -3.772410   84.495800
  H    -21.518800   -1.922040   86.343900
  C    -18.667500   -1.775580   85.767200
  H    -17.657100   -2.070250   85.455200
  H    -18.650700   -1.725430   86.872500
  C    -18.981000   -0.428150   85.197900
  H    -19.904500   -0.027154   85.615600
  H    -19.175200   -0.459049   84.116200
  C    -17.802600    0.560311   85.514100
  H    -17.967000    1.379760   84.743000
  H    -16.852200    0.096077   85.295200
  H    -17.792900    1.073050   86.560300
  H    -15.202500   -4.336650   81.730000
  H    -22.938000   -3.650570   85.081900

 Total Charge           Charge          ....    0
 Multiplicity           Mult            ....    1
 Number of Electrons    NEL             ....  134
 Basis Dimension        Dim             ....  322

ORBITAL ENERGIES
----------------

  NO   OCC          E(Eh)            E(eV)
   0   2.0000     -88.974861     -2421.1291
   1   2.0000     -88.958714     -2420.6897
   2   2.0000     -10.337357      -281.2938
   3   2.0000     -10.322142      -280.8798
   4   2.0000     -10.316344      -280.7220
   5   2.0000     -10.315653      -280.7032
   6   2.0000     -10.303447      -280.3710
   7   2.0000     -10.302843      -280.3546
   8   2.0000     -10.295107      -280.1441
   9   2.0000     -10.290804      -280.0270
  10   2.0000     -10.290736      -280.0252
  11   2.0000     -10.287534      -279.9380
  12   2.0000     -10.285359      -279.8789
  13   2.0000     -10.283394      -279.8254
  14   2.0000     -10.281605      -279.7767
  15   2.0000     -10.276022      -279.6248
  16   2.0000      -8.088516      -220.0997
  17   2.0000      -8.075239      -219.7384
  18   2.0000      -6.047106      -164.5501
  19   2.0000      -6.043072      -164.4403
  20   2.0000      -6.039371      -164.3396
  21   2.0000      -6.033679      -164.1848
  22   2.0000      -6.029514      -164.0714
  23   2.0000      -6.025938      -163.9741
  24   2.0000      -1.014524       -27.6066
  25   2.0000      -0.988281       -26.8925
  26   2.0000      -0.918750       -25.0005
  27   2.0000      -0.914628       -24.8883
  28   2.0000      -0.873453       -23.7679
  29   2.0000      -0.852068       -23.1860
  30   2.0000      -0.847388       -23.0586
  31   2.0000      -0.812073       -22.0976
  32   2.0000      -0.779644       -21.2152
  33   2.0000      -0.770344       -20.9621
  34   2.0000      -0.706994       -19.2383
  35   2.0000      -0.699820       -19.0431
  36   2.0000      -0.692577       -18.8460
  37   2.0000      -0.665532       -18.1100
  38   2.0000      -0.633910       -17.2496
  39   2.0000      -0.620040       -16.8722
  40   2.0000      -0.603273       -16.4159
  41   2.0000      -0.575207       -15.6522
  42   2.0000      -0.563404       -15.3310
  43   2.0000      -0.553088       -15.0503
  44   2.0000      -0.530825       -14.4445
  45   2.0000      -0.521472       -14.1900
  46   2.0000      -0.518187       -14.1006
  47   2.0000      -0.513251       -13.9663
  48   2.0000      -0.504987       -13.7414
  49   2.0000      -0.500311       -13.6142
  50   2.0000      -0.494773       -13.4635
  51   2.0000      -0.477672       -12.9981
  52   2.0000      -0.470890       -12.8136
  53   2.0000      -0.466776       -12.7016
  54   2.0000      -0.461416       -12.5558
  55   2.0000      -0.447486       -12.1767
  56   2.0000      -0.444553       -12.0969
  57   2.0000      -0.439023       -11.9464
  58   2.0000      -0.437555       -11.9065
  59   2.0000      -0.428093       -11.6490
  60   2.0000      -0.414909       -11.2902
  61   2.0000      -0.409209       -11.1352
  62   2.0000      -0.396533       -10.7902
  63   2.0000      -0.357385        -9.7249
  64   2.0000      -0.331848        -9.0300
  65   2.0000      -0.327540        -8.9128
  66   2.0000      -0.288180        -7.8418
  67   0.0000       0.027918         0.7597
  68   0.0000       0.075351         2.0504
  69   0.0000       0.109991         2.9930
  70   0.0000       0.118407         3.2220
  71   0.0000       0.135399         3.6844

MULLIKEN ATOMIC CHARGES
-----------------------
   0 S :    0.119324
   1 C :   -0.110723
   2 C :   -0.054926
   3 C :   -0.006158
   4 C :   -0.143338
   5 H :    0.042742
   6 C :    0.032217
   7 H :    0.030162
   8 H :    0.017507
   9 C :   -0.066605
  10 H :    0.009736
  11 H :    0.032479
  12 C :   -0.055134
  13 H :    0.030946
  14 H :    0.028823
  15 H :    0.022876
  16 S :    0.092060
  17 C :   -0.100258
  18 C :   -0.038881
  19 C :   -0.031013
  20 C :   -0.134123
  21 H :    0.019846
  22 C :    0.058516
  23 H :    0.014896
  24 H :    0.029316
  25 C :   -0.083680
  26 H :    0.024412
  27 H :    0.034351
  28 C :   -0.077099
  29 H :    0.037814
  30 H :    0.033925
  31 H :    0.056347
  32 H :    0.055329
  33 H :    0.078315
Sum of atomic charges:   -0.0000000

LOEWDIN ATOMIC CHARGES
----------------------
   0 S :    0.424683
   1 C :   -0.210205
   2 C :   -0.060866
   3 C :   -0.070828
   4 C :   -0.185131
   5 H :    0.038596
   6 C :   -0.040601
   7 H :    0.030700
   8 H :    0.033829
   9 C :   -0.045324
  10 H :    0.009823
  11 H :    0.037569
  12 C :   -0.077545
  13 H :    0.029181
  14 H :    0.023880
  15 H :    0.030183
  16 S :    0.417244
  17 C :   -0.199584
  18 C :   -0.079076
  19 C :   -0.059410
  20 C :   -0.194010
  21 H :    0.032227
  22 C :   -0.042203
  23 H :    0.016235
  24 H :    0.036908
  25 C :   -0.040335
  26 H :    0.022258
  27 H :    0.026156
  28 C :   -0.074810
  29 H :    0.032596
  30 H :    0.020175
  31 H :    0.036809
  32 H :    0.038300
  33 H :    0.042577

  Mayer bond orders larger than 0.100000
B(  0-S ,  1-C ) :   1.1232 B(  0-S ,  4-C ) :   1.1626 B(  1-C ,  2-C ) :   1.6146
B(  1-C , 32-H ) :   0.9621 B(  2-C ,  3-C ) :   1.2378 B(  2-C ,  6-C ) :   1.0392
B(  3-C ,  4-C ) :   1.5337 B(  3-C ,  5-H ) :   0.9833 B(  4-C , 20-C ) :   1.0598
B(  6-C ,  7-H ) :   0.9389 B(  6-C ,  8-H ) :   0.9463 B(  6-C ,  9-C ) :   1.0499
B(  9-C , 10-H ) :   0.9617 B(  9-C , 11-H ) :   0.9471 B(  9-C , 12-C ) :   1.0849
B( 12-C , 13-H ) :   0.9730 B( 12-C , 14-H ) :   0.9732 B( 12-C , 15-H ) :   0.9667
B( 16-S , 17-C ) :   1.1770 B( 16-S , 20-C ) :   1.1195 B( 17-C , 18-C ) :   1.6028
B( 17-C , 33-H ) :   0.9612 B( 18-C , 19-C ) :   1.2027 B( 18-C , 21-H ) :   0.9993
B( 19-C , 20-C ) :   1.6075 B( 19-C , 22-C ) :   1.0750 B( 22-C , 23-H ) :   0.9309
B( 22-C , 24-H ) :   0.9140 B( 22-C , 25-C ) :   1.0690 B( 25-C , 26-H ) :   0.9476
B( 25-C , 27-H ) :   0.9578 B( 25-C , 28-C ) :   1.0724 B( 28-C , 29-H ) :   0.9770
B( 28-C , 30-H ) :   0.9755 B( 28-C , 31-H ) :   0.9749

Dispersion correction           -0.013962012
FINAL SINGLE POINT ENERGY     -1339.875752339359

DIPOLE MOMENT
-------------
                                X             Y             Z
Electronic contribution:     -9.54753       1.81505       4.23430
Nuclear contribution   :      9.48377      -1.83477      -4.24561
                        -----------------------------------------
Total Dipole Moment    :     -0.06375      -0.01972      -0.01131
                        -----------------------------------------
Magnitude (a.u.)       :      0.06769
Magnitude (Debye)      :      0.17204

Rotational constants in cm-1:     0.023138     0.007806     0.006032
Rotational constants in MHz :   693.648694   234.027216   180.830496

                             ****ORCA TERMINATED NORMALLY****
TOTAL RUN TIME: 0 days 0 hours 0 minutes 32 seconds 817 msec
