                         Program Version 4.2.1 -  RELEASE  -
|  1> ! wB97X-D3 SP def2-SVP
|  2> %pal
|  3> nprocs 16
|  4> end
|  5>
|  6> * xyz 0 1
|  7> S 	 65.9709 	 -2.92551 	 88.837
|  8> C 	 64.5987 	 -2.13213 	 89.7384
|  9> C 	 65.0553 	 -1.69356 	 90.9686
| 10> C 	 66.448 	 -1.81571 	 91.0908
| 11> C 	 67.0329 	 -2.4252 	 90.0755
| 12> H 	 67.0558 	 -1.59119 	 91.9648
| 13> C 	 64.2079 	 -1.0011 	 92.0459
| 14> H 	 64.7141 	 -1.36375 	 92.9782
| 15> H 	 63.1864 	 -1.35218 	 91.9336
| 16> C 	 64.171 	 0.51223 	 91.9401
| 17> H 	 65.0947 	 0.997028 	 92.1045
| 18> H 	 63.8895 	 0.800238 	 90.933
| 19> C 	 63.1669 	 1.07266 	 92.9273
| 20> H 	 62.0713 	 0.840727 	 92.8579
| 21> H 	 63.5797 	 0.756765 	 93.9586
| 22> H 	 63.2669 	 2.14237 	 92.9466
| 23> S 	 68.9161 	 -4.44217 	 89.9117
| 24> C 	 70.5939 	 -4.03276 	 90.021
| 25> C 	 70.8086 	 -2.6748 	 90.234
| 26> C 	 69.6178 	 -1.88411 	 90.2403
| 27> C 	 68.4716 	 -2.71182 	 90.0498
| 28> H 	 71.8234 	 -2.32638 	 90.541
| 29> C 	 69.5562 	 -0.381019 	 90.2563
| 30> H 	 68.5767 	 -0.17528 	 90.7244
| 31> H 	 69.4051 	 -0.0715351 	 89.224
| 32> C 	 70.5746 	 0.450699 	 91.0092
| 33> H 	 71.5184 	 0.19714 	 90.5144
| 34> H 	 70.6483 	 0.138891 	 92.1263
| 35> C 	 70.3399 	 1.95407 	 90.6923
| 36> H 	 70.5385 	 2.1537 	 89.6038
| 37> H 	 70.9459 	 2.63431 	 91.2595
| 38> H 	 69.3598 	 2.23093 	 90.9008
| 39> H 	 63.5662 	 -1.95543 	 89.5285
| 40> H 	 71.3725 	 -4.80198 	 89.923
| 41> *
| 42>
| 43>                          ****END OF INPUT****

CARTESIAN COORDINATES (ANGSTROEM)
---------------------------------
  S     65.970900   -2.925510   88.837000
  C     64.598700   -2.132130   89.738400
  C     65.055300   -1.693560   90.968600
  C     66.448000   -1.815710   91.090800
  C     67.032900   -2.425200   90.075500
  H     67.055800   -1.591190   91.964800
  C     64.207900   -1.001100   92.045900
  H     64.714100   -1.363750   92.978200
  H     63.186400   -1.352180   91.933600
  C     64.171000    0.512230   91.940100
  H     65.094700    0.997028   92.104500
  H     63.889500    0.800238   90.933000
  C     63.166900    1.072660   92.927300
  H     62.071300    0.840727   92.857900
  H     63.579700    0.756765   93.958600
  H     63.266900    2.142370   92.946600
  S     68.916100   -4.442170   89.911700
  C     70.593900   -4.032760   90.021000
  C     70.808600   -2.674800   90.234000
  C     69.617800   -1.884110   90.240300
  C     68.471600   -2.711820   90.049800
  H     71.823400   -2.326380   90.541000
  C     69.556200   -0.381019   90.256300
  H     68.576700   -0.175280   90.724400
  H     69.405100   -0.071535   89.224000
  C     70.574600    0.450699   91.009200
  H     71.518400    0.197140   90.514400
  H     70.648300    0.138891   92.126300
  C     70.339900    1.954070   90.692300
  H     70.538500    2.153700   89.603800
  H     70.945900    2.634310   91.259500
  H     69.359800    2.230930   90.900800
  H     63.566200   -1.955430   89.528500
  H     71.372500   -4.801980   89.923000

 Total Charge           Charge          ....    0
 Multiplicity           Mult            ....    1
 Number of Electrons    NEL             ....  134
 Basis Dimension        Dim             ....  322

ORBITAL ENERGIES
----------------

  NO   OCC          E(Eh)            E(eV)
   0   2.0000     -88.968420     -2420.9538
   1   2.0000     -88.965837     -2420.8835
   2   2.0000     -10.328702      -281.0583
   3   2.0000     -10.318844      -280.7900
   4   2.0000     -10.318035      -280.7680
   5   2.0000     -10.313831      -280.6536
   6   2.0000     -10.308628      -280.5120
   7   2.0000     -10.297847      -280.2187
   8   2.0000     -10.297379      -280.2059
   9   2.0000     -10.296240      -280.1749
  10   2.0000     -10.295874      -280.1650
  11   2.0000     -10.289430      -279.9896
  12   2.0000     -10.285577      -279.8848
  13   2.0000     -10.283623      -279.8316
  14   2.0000     -10.281198      -279.7656
  15   2.0000     -10.279396      -279.7166
  16   2.0000      -8.082659      -219.9403
  17   2.0000      -8.080264      -219.8752
  18   2.0000      -6.041335      -164.3931
  19   2.0000      -6.038637      -164.3197
  20   2.0000      -6.037383      -164.2855
  21   2.0000      -6.034823      -164.2159
  22   2.0000      -6.033100      -164.1690
  23   2.0000      -6.031193      -164.1171
  24   2.0000      -1.008452       -27.4414
  25   2.0000      -0.980474       -26.6800
  26   2.0000      -0.917367       -24.9628
  27   2.0000      -0.911710       -24.8089
  28   2.0000      -0.868280       -23.6271
  29   2.0000      -0.854102       -23.2413
  30   2.0000      -0.845813       -23.0157
  31   2.0000      -0.812208       -22.1013
  32   2.0000      -0.782942       -21.3049
  33   2.0000      -0.770546       -20.9676
  34   2.0000      -0.707453       -19.2508
  35   2.0000      -0.701687       -19.0939
  36   2.0000      -0.697612       -18.9830
  37   2.0000      -0.646337       -17.5877
  38   2.0000      -0.639288       -17.3959
  39   2.0000      -0.620394       -16.8818
  40   2.0000      -0.596905       -16.2426
  41   2.0000      -0.571426       -15.5493
  42   2.0000      -0.570058       -15.5121
  43   2.0000      -0.559867       -15.2348
  44   2.0000      -0.526470       -14.3260
  45   2.0000      -0.525238       -14.2924
  46   2.0000      -0.517096       -14.0709
  47   2.0000      -0.507404       -13.8072
  48   2.0000      -0.504190       -13.7197
  49   2.0000      -0.493740       -13.4354
  50   2.0000      -0.486962       -13.2509
  51   2.0000      -0.482140       -13.1197
  52   2.0000      -0.468869       -12.7586
  53   2.0000      -0.467127       -12.7112
  54   2.0000      -0.457767       -12.4565
  55   2.0000      -0.449873       -12.2417
  56   2.0000      -0.446156       -12.1405
  57   2.0000      -0.442081       -12.0296
  58   2.0000      -0.438669       -11.9368
  59   2.0000      -0.428319       -11.6552
  60   2.0000      -0.423875       -11.5342
  61   2.0000      -0.414077       -11.2676
  62   2.0000      -0.412982       -11.2378
  63   2.0000      -0.339547        -9.2395
  64   2.0000      -0.333917        -9.0863
  65   2.0000      -0.330938        -9.0053
  66   2.0000      -0.290780        -7.9125
  67   0.0000       0.033155         0.9022
  68   0.0000       0.067619         1.8400
  69   0.0000       0.103859         2.8261
  70   0.0000       0.119474         3.2510
  71   0.0000       0.128858         3.5064

MULLIKEN ATOMIC CHARGES
-----------------------
   0 S :    0.117734
   1 C :   -0.107320
   2 C :   -0.097442
   3 C :    0.021545
   4 C :   -0.147663
   5 H :    0.015368
   6 C :    0.062414
   7 H :    0.036901
   8 H :    0.020211
   9 C :   -0.023305
  10 H :    0.015593
  11 H :    0.018604
  12 C :   -0.074570
  13 H :    0.051427
  14 H :    0.027660
  15 H :    0.027432
  16 S :    0.106540
  17 C :   -0.103830
  18 C :   -0.060372
  19 C :   -0.014557
  20 C :   -0.174788
  21 H :    0.038191
  22 C :    0.046381
  23 H :    0.010315
  24 H :    0.044572
  25 C :   -0.099796
  26 H :    0.031154
  27 H :    0.054036
  28 C :   -0.012620
  29 H :    0.038382
  30 H :    0.027726
  31 H :    0.011439
  32 H :    0.026625
  33 H :    0.066016
Sum of atomic charges:    0.0000000

LOEWDIN ATOMIC CHARGES
----------------------
   0 S :    0.397851
   1 C :   -0.184660
   2 C :   -0.057676
   3 C :   -0.073898
   4 C :   -0.207485
   5 H :    0.034775
   6 C :   -0.026929
   7 H :    0.037533
   8 H :    0.029725
   9 C :   -0.037899
  10 H :    0.020736
  11 H :    0.022775
  12 C :   -0.072951
  13 H :    0.030293
  14 H :    0.031962
  15 H :    0.021782
  16 S :    0.400081
  17 C :   -0.193937
  18 C :   -0.083707
  19 C :   -0.052555
  20 C :   -0.186960
  21 H :    0.038413
  22 C :   -0.042797
  23 H :    0.031034
  24 H :    0.039363
  25 C :   -0.046652
  26 H :    0.022105
  27 H :    0.036918
  28 C :   -0.056458
  29 H :    0.035490
  30 H :    0.023512
  31 H :    0.013205
  32 H :    0.025382
  33 H :    0.031629

  Mayer bond orders larger than 0.100000
B(  0-S ,  1-C ) :   1.1024 B(  0-S ,  4-C ) :   1.1433 B(  1-C ,  2-C ) :   1.6478
B(  1-C , 32-H ) :   0.9685 B(  2-C ,  3-C ) :   1.2167 B(  2-C ,  6-C ) :   1.0204
B(  3-C ,  4-C ) :   1.6257 B(  3-C ,  5-H ) :   0.9856 B(  4-C , 20-C ) :   1.0101
B(  6-C ,  7-H ) :   0.9353 B(  6-C ,  8-H ) :   0.9390 B(  6-C ,  9-C ) :   1.0762
B(  9-C , 10-H ) :   0.9493 B(  9-C , 11-H ) :   0.9504 B(  9-C , 12-C ) :   1.0865
B( 12-C , 13-H ) :   0.9758 B( 12-C , 14-H ) :   0.9708 B( 12-C , 15-H ) :   0.9728
B( 16-S , 17-C ) :   1.1673 B( 16-S , 20-C ) :   1.1525 B( 17-C , 18-C ) :   1.5944
B( 17-C , 20-C ) :   0.1083 B( 17-C , 33-H ) :   0.9639 B( 18-C , 19-C ) :   1.2501
B( 18-C , 21-H ) :   0.9808 B( 19-C , 20-C ) :   1.5746 B( 19-C , 22-C ) :   1.0312
B( 22-C , 23-H ) :   0.9218 B( 22-C , 24-H ) :   0.9344 B( 22-C , 25-C ) :   1.0597
B( 25-C , 26-H ) :   0.9510 B( 25-C , 27-H ) :   0.9573 B( 25-C , 28-C ) :   1.0746
B( 28-C , 29-H ) :   0.9736 B( 28-C , 30-H ) :   0.9739 B( 28-C , 31-H ) :   0.9770

Dispersion correction           -0.013600640
FINAL SINGLE POINT ENERGY     -1339.868393028073

DIPOLE MOMENT
-------------
                                X             Y             Z
Electronic contribution:      3.35306     -28.31100     -14.11811
Nuclear contribution   :     -3.28375      28.96922      14.52976
                        -----------------------------------------
Total Dipole Moment    :      0.06931       0.65822       0.41166
                        -----------------------------------------
Magnitude (a.u.)       :      0.77943
Magnitude (Debye)      :      1.98116

Rotational constants in cm-1:     0.016226     0.008934     0.006340
Rotational constants in MHz :   486.455680   267.840549   190.063985

                             ****ORCA TERMINATED NORMALLY****
TOTAL RUN TIME: 0 days 0 hours 0 minutes 29 seconds 989 msec
