                         Program Version 4.2.1 -  RELEASE  -
|  1> ! wB97X-D3 SP def2-SVP
|  2> %pal
|  3> nprocs 16
|  4> end
|  5>
|  6> * xyz 0 1
|  7> S 	 53.2983 	 21.366 	 93.3378
|  8> C 	 51.5706 	 20.9762 	 93.3312
|  9> C 	 51.3516 	 19.7103 	 92.8274
| 10> C 	 52.5655 	 19.0548 	 92.4333
| 11> C 	 53.7281 	 19.8164 	 92.6645
| 12> H 	 52.6647 	 18.1311 	 92.0105
| 13> C 	 50.0306 	 19.0326 	 92.7413
| 14> H 	 50.1469 	 18.4129 	 91.8568
| 15> H 	 49.288 	 19.8761 	 92.6402
| 16> C 	 49.73 	 18.079 	 93.8868
| 17> H 	 48.8471 	 17.485 	 93.6548
| 18> H 	 50.6453 	 17.5044 	 93.9872
| 19> C 	 49.4355 	 18.7788 	 95.2874
| 20> H 	 48.5863 	 19.4641 	 95.3102
| 21> H 	 49.2466 	 18.1116 	 96.0975
| 22> H 	 50.2369 	 19.3891 	 95.5483
| 23> S 	 55.9439 	 20.5016 	 91.3839
| 24> C 	 57.2687 	 19.3971 	 91.3968
| 25> C 	 57.0571 	 18.2783 	 92.162
| 26> C 	 55.816 	 18.3605 	 92.9019
| 27> C 	 55.0366 	 19.4092 	 92.3283
| 28> H 	 57.8107 	 17.5151 	 92.2954
| 29> C 	 55.3275 	 17.2892 	 93.8057
| 30> H 	 56.1317 	 16.4977 	 93.9341
| 31> H 	 54.5882 	 16.686 	 93.2357
| 32> C 	 54.6213 	 17.793 	 95.1231
| 33> H 	 54.2773 	 16.8877 	 95.6706
| 34> H 	 53.7323 	 18.3495 	 94.882
| 35> C 	 55.5205 	 18.6519 	 96.0143
| 36> H 	 56.4527 	 18.1464 	 96.1939
| 37> H 	 55.0299 	 18.7517 	 96.9908
| 38> H 	 55.9219 	 19.5799 	 95.5821
| 39> H 	 50.8277 	 21.5758 	 93.7741
| 40> H 	 58.142 	 19.5916 	 90.7159
| 41> *
| 42>
| 43>                          ****END OF INPUT****

CARTESIAN COORDINATES (ANGSTROEM)
---------------------------------
  S     53.298300   21.366000   93.337800
  C     51.570600   20.976200   93.331200
  C     51.351600   19.710300   92.827400
  C     52.565500   19.054800   92.433300
  C     53.728100   19.816400   92.664500
  H     52.664700   18.131100   92.010500
  C     50.030600   19.032600   92.741300
  H     50.146900   18.412900   91.856800
  H     49.288000   19.876100   92.640200
  C     49.730000   18.079000   93.886800
  H     48.847100   17.485000   93.654800
  H     50.645300   17.504400   93.987200
  C     49.435500   18.778800   95.287400
  H     48.586300   19.464100   95.310200
  H     49.246600   18.111600   96.097500
  H     50.236900   19.389100   95.548300
  S     55.943900   20.501600   91.383900
  C     57.268700   19.397100   91.396800
  C     57.057100   18.278300   92.162000
  C     55.816000   18.360500   92.901900
  C     55.036600   19.409200   92.328300
  H     57.810700   17.515100   92.295400
  C     55.327500   17.289200   93.805700
  H     56.131700   16.497700   93.934100
  H     54.588200   16.686000   93.235700
  C     54.621300   17.793000   95.123100
  H     54.277300   16.887700   95.670600
  H     53.732300   18.349500   94.882000
  C     55.520500   18.651900   96.014300
  H     56.452700   18.146400   96.193900
  H     55.029900   18.751700   96.990800
  H     55.921900   19.579900   95.582100
  H     50.827700   21.575800   93.774100
  H     58.142000   19.591600   90.715900

 Total Charge           Charge          ....    0
 Multiplicity           Mult            ....    1
 Number of Electrons    NEL             ....  134
 Basis Dimension        Dim             ....  322

ORBITAL ENERGIES
----------------

  NO   OCC          E(Eh)            E(eV)
   0   2.0000     -88.966795     -2420.9096
   1   2.0000     -88.966361     -2420.8977
   2   2.0000     -10.325602      -280.9739
   3   2.0000     -10.319877      -280.8181
   4   2.0000     -10.317072      -280.7418
   5   2.0000     -10.310472      -280.5622
   6   2.0000     -10.307497      -280.4813
   7   2.0000     -10.299021      -280.2506
   8   2.0000     -10.298318      -280.2315
   9   2.0000     -10.295424      -280.1527
  10   2.0000     -10.292350      -280.0691
  11   2.0000     -10.291682      -280.0509
  12   2.0000     -10.287252      -279.9304
  13   2.0000     -10.286162      -279.9007
  14   2.0000     -10.271166      -279.4926
  15   2.0000     -10.270177      -279.4657
  16   2.0000      -8.082610      -219.9390
  17   2.0000      -8.080980      -219.8947
  18   2.0000      -6.040821      -164.3791
  19   2.0000      -6.039485      -164.3427
  20   2.0000      -6.036961      -164.2741
  21   2.0000      -6.035485      -164.2339
  22   2.0000      -6.033543      -164.1810
  23   2.0000      -6.031865      -164.1354
  24   2.0000      -1.011983       -27.5375
  25   2.0000      -0.983730       -26.7686
  26   2.0000      -0.914946       -24.8969
  27   2.0000      -0.905214       -24.6321
  28   2.0000      -0.871112       -23.7042
  29   2.0000      -0.850057       -23.1312
  30   2.0000      -0.843722       -22.9588
  31   2.0000      -0.811676       -22.0868
  32   2.0000      -0.786209       -21.3938
  33   2.0000      -0.772448       -21.0194
  34   2.0000      -0.712910       -19.3993
  35   2.0000      -0.702952       -19.1283
  36   2.0000      -0.687842       -18.7171
  37   2.0000      -0.662718       -18.0335
  38   2.0000      -0.644781       -17.5454
  39   2.0000      -0.615313       -16.7435
  40   2.0000      -0.593003       -16.1364
  41   2.0000      -0.568576       -15.4717
  42   2.0000      -0.550090       -14.9687
  43   2.0000      -0.548051       -14.9132
  44   2.0000      -0.546234       -14.8638
  45   2.0000      -0.536917       -14.6103
  46   2.0000      -0.516854       -14.0643
  47   2.0000      -0.510574       -13.8934
  48   2.0000      -0.498160       -13.5556
  49   2.0000      -0.491130       -13.3643
  50   2.0000      -0.489779       -13.3276
  51   2.0000      -0.486659       -13.2427
  52   2.0000      -0.474920       -12.9232
  53   2.0000      -0.465702       -12.6724
  54   2.0000      -0.460754       -12.5378
  55   2.0000      -0.448374       -12.2009
  56   2.0000      -0.439979       -11.9724
  57   2.0000      -0.438150       -11.9227
  58   2.0000      -0.430235       -11.7073
  59   2.0000      -0.429820       -11.6960
  60   2.0000      -0.424716       -11.5571
  61   2.0000      -0.414675       -11.2839
  62   2.0000      -0.411668       -11.2021
  63   2.0000      -0.342386        -9.3168
  64   2.0000      -0.329644        -8.9701
  65   2.0000      -0.328285        -8.9331
  66   2.0000      -0.288780        -7.8581
  67   0.0000       0.028847         0.7850
  68   0.0000       0.065036         1.7697
  69   0.0000       0.110732         3.0132
  70   0.0000       0.117200         3.1892
  71   0.0000       0.127844         3.4788

MULLIKEN ATOMIC CHARGES
-----------------------
   0 S :    0.113501
   1 C :   -0.117003
   2 C :   -0.086182
   3 C :    0.043332
   4 C :   -0.156981
   5 H :   -0.028483
   6 C :    0.071724
   7 H :    0.027429
   8 H :    0.034220
   9 C :   -0.049235
  10 H :    0.041895
  11 H :    0.027534
  12 C :   -0.046615
  13 H :    0.018453
  14 H :    0.029873
  15 H :    0.018078
  16 S :    0.125133
  17 C :   -0.109563
  18 C :   -0.014755
  19 C :   -0.033222
  20 C :   -0.175564
  21 H :    0.019368
  22 C :    0.009059
  23 H :    0.026532
  24 H :    0.040369
  25 C :   -0.063777
  26 H :    0.028261
  27 H :    0.049297
  28 C :   -0.037676
  29 H :    0.008931
  30 H :    0.038482
  31 H :    0.042549
  32 H :    0.031049
  33 H :    0.073989
Sum of atomic charges:   -0.0000000

LOEWDIN ATOMIC CHARGES
----------------------
   0 S :    0.399788
   1 C :   -0.191654
   2 C :   -0.061278
   3 C :   -0.055387
   4 C :   -0.197712
   5 H :    0.012910
   6 C :   -0.034256
   7 H :    0.035029
   8 H :    0.035676
   9 C :   -0.029980
  10 H :    0.025893
  11 H :    0.025607
  12 C :   -0.066033
  13 H :    0.023465
  14 H :    0.023598
  15 H :    0.014932
  16 S :    0.440501
  17 C :   -0.200495
  18 C :   -0.070024
  19 C :   -0.048761
  20 C :   -0.220216
  21 H :    0.031318
  22 C :   -0.045365
  23 H :    0.035861
  24 H :    0.038000
  25 C :   -0.037690
  26 H :    0.028272
  27 H :    0.023788
  28 C :   -0.070309
  29 H :    0.019421
  30 H :    0.030389
  31 H :    0.029773
  32 H :    0.018631
  33 H :    0.036309

  Mayer bond orders larger than 0.100000
B(  0-S ,  1-C ) :   1.1276 B(  0-S ,  4-C ) :   1.1511 B(  1-C ,  2-C ) :   1.6022
B(  1-C , 32-H ) :   0.9735 B(  2-C ,  3-C ) :   1.2338 B(  2-C ,  6-C ) :   1.0248
B(  3-C ,  4-C ) :   1.5517 B(  3-C ,  5-H ) :   1.0089 B(  4-C , 20-C ) :   1.0805
B(  6-C ,  7-H ) :   0.9308 B(  6-C ,  8-H ) :   0.9404 B(  6-C ,  9-C ) :   1.0729
B(  9-C , 10-H ) :   0.9595 B(  9-C , 11-H ) :   0.9527 B(  9-C , 12-C ) :   1.0684
B( 12-C , 13-H ) :   0.9760 B( 12-C , 14-H ) :   0.9762 B( 12-C , 15-H ) :   0.9760
B( 16-S , 17-C ) :   1.1664 B( 16-S , 20-C ) :   1.1654 B( 17-C , 18-C ) :   1.6018
B( 17-C , 33-H ) :   0.9596 B( 18-C , 19-C ) :   1.2413 B( 18-C , 21-H ) :   0.9867
B( 19-C , 20-C ) :   1.5295 B( 19-C , 22-C ) :   1.0500 B( 22-C , 23-H ) :   0.9379
B( 22-C , 24-H ) :   0.9354 B( 22-C , 25-C ) :   1.0580 B( 25-C , 26-H ) :   0.9532
B( 25-C , 27-H ) :   0.9513 B( 25-C , 28-C ) :   1.0820 B( 28-C , 29-H ) :   0.9730
B( 28-C , 30-H ) :   0.9735 B( 28-C , 31-H ) :   0.9703

Dispersion correction           -0.016260514
FINAL SINGLE POINT ENERGY     -1339.875895146172

DIPOLE MOMENT
-------------
                                X             Y             Z
Electronic contribution:     13.85591      15.50501     -16.42882
Nuclear contribution   :    -14.01726     -16.07990      16.57225
                        -----------------------------------------
Total Dipole Moment    :     -0.16134      -0.57489       0.14343
                        -----------------------------------------
Magnitude (a.u.)       :      0.61409
Magnitude (Debye)      :      1.56088

Rotational constants in cm-1:     0.022102     0.009302     0.007917
Rotational constants in MHz :   662.613903   278.852031   237.335627

                             ****ORCA TERMINATED NORMALLY****
TOTAL RUN TIME: 0 days 0 hours 0 minutes 30 seconds 882 msec
