                         Program Version 4.2.1 -  RELEASE  -
|  1> ! wB97X-D3 SP def2-SVP
|  2> %pal
|  3> nprocs 16
|  4> end
|  5>
|  6> * xyz 0 1
|  7> S 	 0.95092 	 13.881 	 45.4755
|  8> C 	 1.05624 	 12.3566 	 44.6383
|  9> C 	 2.28903 	 11.7188 	 44.9114
| 10> C 	 3.14528 	 12.5146 	 45.7209
| 11> C 	 2.62725 	 13.7935 	 45.998
| 12> H 	 4.08585 	 12.1963 	 45.9224
| 13> C 	 2.74053 	 10.4236 	 44.2405
| 14> H 	 2.31774 	 10.3955 	 43.2624
| 15> H 	 2.15392 	 9.67596 	 44.8164
| 16> C 	 4.20194 	 10.1521 	 44.1578
| 17> H 	 4.81209 	 11.0219 	 43.747
| 18> H 	 4.72247 	 10.0277 	 45.1395
| 19> C 	 4.5674 	 8.80939 	 43.3765
| 20> H 	 3.92584 	 8.47201 	 42.6122
| 21> H 	 5.56952 	 8.80804 	 43.0687
| 22> H 	 4.45116 	 8.03358 	 44.121
| 23> S 	 2.225 	 15.8951 	 47.8087
| 24> C 	 3.56962 	 16.8933 	 48.3704
| 25> C 	 4.66096 	 16.6064 	 47.6177
| 26> C 	 4.47302 	 15.4597 	 46.7117
| 27> C 	 3.22646 	 14.9117 	 46.7196
| 28> H 	 5.6223 	 17.0508 	 47.8293
| 29> C 	 5.66567 	 14.8692 	 45.9184
| 30> H 	 5.41363 	 13.8642 	 45.5924
| 31> H 	 6.52455 	 14.7345 	 46.6007
| 32> C 	 6.08805 	 15.7757 	 44.6696
| 33> H 	 7.16027 	 15.541 	 44.3986
| 34> H 	 6.01688 	 16.84 	 44.7814
| 35> C 	 5.22779 	 15.4728 	 43.3957
| 36> H 	 5.39991 	 14.4328 	 42.9104
| 37> H 	 5.42477 	 16.2773 	 42.744
| 38> H 	 4.20496 	 15.4859 	 43.6748
| 39> H 	 0.327902 	 11.9261 	 43.8829
| 40> H 	 3.59196 	 17.6838 	 49.1475
| 41> *
| 42>
| 43>                          ****END OF INPUT****

CARTESIAN COORDINATES (ANGSTROEM)
---------------------------------
  S      0.950920   13.881000   45.475500
  C      1.056240   12.356600   44.638300
  C      2.289030   11.718800   44.911400
  C      3.145280   12.514600   45.720900
  C      2.627250   13.793500   45.998000
  H      4.085850   12.196300   45.922400
  C      2.740530   10.423600   44.240500
  H      2.317740   10.395500   43.262400
  H      2.153920    9.675960   44.816400
  C      4.201940   10.152100   44.157800
  H      4.812090   11.021900   43.747000
  H      4.722470   10.027700   45.139500
  C      4.567400    8.809390   43.376500
  H      3.925840    8.472010   42.612200
  H      5.569520    8.808040   43.068700
  H      4.451160    8.033580   44.121000
  S      2.225000   15.895100   47.808700
  C      3.569620   16.893300   48.370400
  C      4.660960   16.606400   47.617700
  C      4.473020   15.459700   46.711700
  C      3.226460   14.911700   46.719600
  H      5.622300   17.050800   47.829300
  C      5.665670   14.869200   45.918400
  H      5.413630   13.864200   45.592400
  H      6.524550   14.734500   46.600700
  C      6.088050   15.775700   44.669600
  H      7.160270   15.541000   44.398600
  H      6.016880   16.840000   44.781400
  C      5.227790   15.472800   43.395700
  H      5.399910   14.432800   42.910400
  H      5.424770   16.277300   42.744000
  H      4.204960   15.485900   43.674800
  H      0.327902   11.926100   43.882900
  H      3.591960   17.683800   49.147500

 Total Charge           Charge          ....    0
 Multiplicity           Mult            ....    1
 Number of Electrons    NEL             ....  134
 Basis Dimension        Dim             ....  322

ORBITAL ENERGIES
----------------

  NO   OCC          E(Eh)            E(eV)
   0   2.0000     -88.971541     -2421.0387
   1   2.0000     -88.960830     -2420.7472
   2   2.0000     -10.337934      -281.3095
   3   2.0000     -10.330020      -281.0941
   4   2.0000     -10.321994      -280.8757
   5   2.0000     -10.319617      -280.8111
   6   2.0000     -10.305816      -280.4355
   7   2.0000     -10.304300      -280.3943
   8   2.0000     -10.301353      -280.3141
   9   2.0000     -10.297895      -280.2200
  10   2.0000     -10.295138      -280.1449
  11   2.0000     -10.295060      -280.1428
  12   2.0000     -10.292258      -280.0666
  13   2.0000     -10.291822      -280.0547
  14   2.0000     -10.276766      -279.6450
  15   2.0000     -10.272518      -279.5294
  16   2.0000      -8.085753      -220.0245
  17   2.0000      -8.075243      -219.7385
  18   2.0000      -6.044278      -164.4732
  19   2.0000      -6.040267      -164.3640
  20   2.0000      -6.036590      -164.2640
  21   2.0000      -6.034100      -164.1962
  22   2.0000      -6.029782      -164.0787
  23   2.0000      -6.025629      -163.9657
  24   2.0000      -1.004598       -27.3365
  25   2.0000      -0.981815       -26.7165
  26   2.0000      -0.914317       -24.8798
  27   2.0000      -0.894295       -24.3350
  28   2.0000      -0.870096       -23.6765
  29   2.0000      -0.850948       -23.1555
  30   2.0000      -0.837158       -22.7802
  31   2.0000      -0.819269       -22.2934
  32   2.0000      -0.783881       -21.3305
  33   2.0000      -0.769707       -20.9448
  34   2.0000      -0.718534       -19.5523
  35   2.0000      -0.692632       -18.8475
  36   2.0000      -0.691405       -18.8141
  37   2.0000      -0.657318       -17.8865
  38   2.0000      -0.636938       -17.3320
  39   2.0000      -0.631383       -17.1808
  40   2.0000      -0.591418       -16.0933
  41   2.0000      -0.568778       -15.4772
  42   2.0000      -0.565026       -15.3751
  43   2.0000      -0.544712       -14.8224
  44   2.0000      -0.538392       -14.6504
  45   2.0000      -0.526315       -14.3217
  46   2.0000      -0.517317       -14.0769
  47   2.0000      -0.511511       -13.9189
  48   2.0000      -0.504939       -13.7401
  49   2.0000      -0.498324       -13.5601
  50   2.0000      -0.489954       -13.3323
  51   2.0000      -0.482595       -13.1321
  52   2.0000      -0.472150       -12.8479
  53   2.0000      -0.468536       -12.7495
  54   2.0000      -0.457774       -12.4567
  55   2.0000      -0.454766       -12.3748
  56   2.0000      -0.446116       -12.1394
  57   2.0000      -0.438104       -11.9214
  58   2.0000      -0.431264       -11.7353
  59   2.0000      -0.422935       -11.5086
  60   2.0000      -0.419898       -11.4260
  61   2.0000      -0.411348       -11.1933
  62   2.0000      -0.402127       -10.9424
  63   2.0000      -0.357674        -9.7328
  64   2.0000      -0.333535        -9.0759
  65   2.0000      -0.324309        -8.8249
  66   2.0000      -0.286973        -7.8089
  67   0.0000       0.024581         0.6689
  68   0.0000       0.070833         1.9275
  69   0.0000       0.106172         2.8891
  70   0.0000       0.115480         3.1424
  71   0.0000       0.133942         3.6448

MULLIKEN ATOMIC CHARGES
-----------------------
   0 S :    0.122352
   1 C :   -0.146155
   2 C :   -0.126005
   3 C :    0.075768
   4 C :   -0.140653
   5 H :   -0.030369
   6 C :    0.106241
   7 H :    0.021787
   8 H :    0.045698
   9 C :   -0.154618
  10 H :    0.042928
  11 H :    0.041848
  12 C :   -0.002138
  13 H :    0.022392
  14 H :    0.027796
  15 H :    0.020671
  16 S :    0.074158
  17 C :   -0.088746
  18 C :   -0.015736
  19 C :   -0.080110
  20 C :   -0.110393
  21 H :    0.019735
  22 C :    0.066228
  23 H :    0.005113
  24 H :    0.035854
  25 C :   -0.091940
  26 H :    0.034188
  27 H :    0.033814
  28 C :   -0.057524
  29 H :    0.043783
  30 H :    0.027834
  31 H :    0.032357
  32 H :    0.071698
  33 H :    0.072143
Sum of atomic charges:   -0.0000000

LOEWDIN ATOMIC CHARGES
----------------------
   0 S :    0.419009
   1 C :   -0.222834
   2 C :   -0.056436
   3 C :   -0.053409
   4 C :   -0.181486
   5 H :    0.008540
   6 C :   -0.037437
   7 H :    0.030401
   8 H :    0.043180
   9 C :   -0.051197
  10 H :    0.029054
  11 H :    0.027317
  12 C :   -0.054408
  13 H :    0.018844
  14 H :    0.021836
  15 H :    0.026895
  16 S :    0.369932
  17 C :   -0.178315
  18 C :   -0.072607
  19 C :   -0.059482
  20 C :   -0.189760
  21 H :    0.030056
  22 C :   -0.028771
  23 H :    0.024700
  24 H :    0.032066
  25 C :   -0.037864
  26 H :    0.026249
  27 H :    0.021197
  28 C :   -0.065204
  29 H :    0.032357
  30 H :    0.019057
  31 H :    0.020461
  32 H :    0.044067
  33 H :    0.043989

  Mayer bond orders larger than 0.100000
B(  0-S ,  1-C ) :   1.1468 B(  0-S ,  4-C ) :   1.1649 B(  1-C ,  2-C ) :   1.5853
B(  1-C ,  4-C ) :   0.1126 B(  1-C , 32-H ) :   0.9604 B(  2-C ,  3-C ) :   1.2985
B(  2-C ,  6-C ) :   0.9966 B(  3-C ,  4-C ) :   1.5111 B(  3-C ,  5-H ) :   0.9946
B(  4-C , 20-C ) :   1.0580 B(  6-C ,  7-H ) :   0.9427 B(  6-C ,  8-H ) :   0.9268
B(  6-C ,  9-C ) :   1.0807 B(  9-C , 10-H ) :   0.9585 B(  9-C , 11-H ) :   0.9478
B(  9-C , 12-C ) :   1.0653 B( 12-C , 13-H ) :   0.9806 B( 12-C , 14-H ) :   0.9755
B( 12-C , 15-H ) :   0.9775 B( 16-S , 17-C ) :   1.1297 B( 16-S , 20-C ) :   1.0980
B( 17-C , 18-C ) :   1.6564 B( 17-C , 33-H ) :   0.9628 B( 18-C , 19-C ) :   1.2018
B( 18-C , 21-H ) :   0.9868 B( 19-C , 20-C ) :   1.6469 B( 19-C , 22-C ) :   1.0405
B( 22-C , 23-H ) :   0.9422 B( 22-C , 24-H ) :   0.9431 B( 22-C , 25-C ) :   1.0438
B( 25-C , 26-H ) :   0.9594 B( 25-C , 27-H ) :   0.9681 B( 25-C , 28-C ) :   1.0701
B( 28-C , 29-H ) :   0.9756 B( 28-C , 30-H ) :   0.9761 B( 28-C , 31-H ) :   0.9788

Dispersion correction           -0.014573603
FINAL SINGLE POINT ENERGY     -1339.862539347871

DIPOLE MOMENT
-------------
                                X             Y             Z
Electronic contribution:    -20.34609      15.44757      17.10162
Nuclear contribution   :     20.98545     -15.84101     -17.37835
                        -----------------------------------------
Total Dipole Moment    :      0.63936      -0.39344      -0.27674
                        -----------------------------------------
Magnitude (a.u.)       :      0.80010
Magnitude (Debye)      :      2.03370

Rotational constants in cm-1:     0.019235     0.008782     0.006926
Rotational constants in MHz :   576.638678   263.291589   207.648892

                             ****ORCA TERMINATED NORMALLY****
TOTAL RUN TIME: 0 days 0 hours 0 minutes 32 seconds 991 msec
