                         Program Version 4.2.1 -  RELEASE  -
|  1> ! wB97X-D3 SP def2-SVP
|  2> %pal
|  3> nprocs 16
|  4> end
|  5>
|  6> * xyz 0 1
|  7> S 	 16.258 	 18.2254 	 40.3983
|  8> C 	 16.7211 	 18.5935 	 38.721
|  9> C 	 16.3983 	 19.8909 	 38.3223
| 10> C 	 15.9661 	 20.6385 	 39.4604
| 11> C 	 15.744 	 19.9022 	 40.559
| 12> H 	 15.7616 	 21.7029 	 39.4775
| 13> C 	 16.856 	 20.5034 	 37.063
| 14> H 	 16.0809 	 21.1787 	 36.7389
| 15> H 	 16.8841 	 19.6549 	 36.4052
| 16> C 	 18.1986 	 21.0999 	 37.0387
| 17> H 	 18.16 	 22.1507 	 37.2461
| 18> H 	 18.7037 	 20.6758 	 37.9257
| 19> C 	 19.0263 	 20.8116 	 35.7212
| 20> H 	 18.5319 	 21.1859 	 34.791
| 21> H 	 20.1512 	 21.1527 	 35.7895
| 22> H 	 19.2093 	 19.7737 	 35.5373
| 23> S 	 16.5568 	 20.5633 	 43.0865
| 24> C 	 15.5477 	 21.6847 	 43.9993
| 25> C 	 14.3428 	 21.999 	 43.3784
| 26> C 	 14.2214 	 21.2087 	 42.175
| 27> C 	 15.315 	 20.471 	 41.8493
| 28> H 	 13.6606 	 22.7059 	 43.8592
| 29> C 	 12.9731 	 21.2124 	 41.3628
| 30> H 	 13.2881 	 21.4982 	 40.3847
| 31> H 	 12.3536 	 22.0351 	 41.5146
| 32> C 	 12.2362 	 19.8648 	 41.4171
| 33> H 	 12.9183 	 19.0284 	 41.1312
| 34> H 	 11.4268 	 19.8641 	 40.6755
| 35> C 	 11.5317 	 19.5573 	 42.7251
| 36> H 	 11.9514 	 19.9475 	 43.6838
| 37> H 	 11.3351 	 18.5497 	 43.0321
| 38> H 	 10.5251 	 19.9961 	 42.71
| 39> H 	 17.1195 	 17.8936 	 38.0732
| 40> H 	 15.7289 	 22.2191 	 44.9477
| 41> *
| 42>
| 43>                          ****END OF INPUT****

CARTESIAN COORDINATES (ANGSTROEM)
---------------------------------
  S     16.258000   18.225400   40.398300
  C     16.721100   18.593500   38.721000
  C     16.398300   19.890900   38.322300
  C     15.966100   20.638500   39.460400
  C     15.744000   19.902200   40.559000
  H     15.761600   21.702900   39.477500
  C     16.856000   20.503400   37.063000
  H     16.080900   21.178700   36.738900
  H     16.884100   19.654900   36.405200
  C     18.198600   21.099900   37.038700
  H     18.160000   22.150700   37.246100
  H     18.703700   20.675800   37.925700
  C     19.026300   20.811600   35.721200
  H     18.531900   21.185900   34.791000
  H     20.151200   21.152700   35.789500
  H     19.209300   19.773700   35.537300
  S     16.556800   20.563300   43.086500
  C     15.547700   21.684700   43.999300
  C     14.342800   21.999000   43.378400
  C     14.221400   21.208700   42.175000
  C     15.315000   20.471000   41.849300
  H     13.660600   22.705900   43.859200
  C     12.973100   21.212400   41.362800
  H     13.288100   21.498200   40.384700
  H     12.353600   22.035100   41.514600
  C     12.236200   19.864800   41.417100
  H     12.918300   19.028400   41.131200
  H     11.426800   19.864100   40.675500
  C     11.531700   19.557300   42.725100
  H     11.951400   19.947500   43.683800
  H     11.335100   18.549700   43.032100
  H     10.525100   19.996100   42.710000
  H     17.119500   17.893600   38.073200
  H     15.728900   22.219100   44.947700

 Total Charge           Charge          ....    0
 Multiplicity           Mult            ....    1
 Number of Electrons    NEL             ....  134
 Basis Dimension        Dim             ....  322

ORBITAL ENERGIES
----------------

  NO   OCC          E(Eh)            E(eV)
   0   2.0000     -88.968657     -2420.9602
   1   2.0000     -88.965495     -2420.8742
   2   2.0000     -10.325905      -280.9821
   3   2.0000     -10.319163      -280.7987
   4   2.0000     -10.318908      -280.7918
   5   2.0000     -10.312955      -280.6298
   6   2.0000     -10.298754      -280.2434
   7   2.0000     -10.298686      -280.2415
   8   2.0000     -10.295470      -280.1540
   9   2.0000     -10.292322      -280.0683
  10   2.0000     -10.289399      -279.9888
  11   2.0000     -10.286690      -279.9151
  12   2.0000     -10.286215      -279.9021
  13   2.0000     -10.282004      -279.7876
  14   2.0000     -10.278620      -279.6955
  15   2.0000     -10.270410      -279.4721
  16   2.0000      -8.082736      -219.9424
  17   2.0000      -8.079857      -219.8641
  18   2.0000      -6.041182      -164.3889
  19   2.0000      -6.038433      -164.3141
  20   2.0000      -6.037510      -164.2890
  21   2.0000      -6.034427      -164.2051
  22   2.0000      -6.033441      -164.1783
  23   2.0000      -6.030561      -164.0999
  24   2.0000      -1.007162       -27.4063
  25   2.0000      -0.983460       -26.7613
  26   2.0000      -0.921648       -25.0793
  27   2.0000      -0.907822       -24.7031
  28   2.0000      -0.865886       -23.5620
  29   2.0000      -0.849402       -23.1134
  30   2.0000      -0.843939       -22.9647
  31   2.0000      -0.816881       -22.2285
  32   2.0000      -0.783998       -21.3337
  33   2.0000      -0.772824       -21.0296
  34   2.0000      -0.711152       -19.3514
  35   2.0000      -0.704855       -19.1801
  36   2.0000      -0.691143       -18.8070
  37   2.0000      -0.660069       -17.9614
  38   2.0000      -0.646175       -17.5833
  39   2.0000      -0.622019       -16.9260
  40   2.0000      -0.593810       -16.1584
  41   2.0000      -0.577834       -15.7237
  42   2.0000      -0.559629       -15.2283
  43   2.0000      -0.545784       -14.8515
  44   2.0000      -0.539765       -14.6878
  45   2.0000      -0.522796       -14.2260
  46   2.0000      -0.520266       -14.1572
  47   2.0000      -0.508711       -13.8427
  48   2.0000      -0.503027       -13.6881
  49   2.0000      -0.493713       -13.4346
  50   2.0000      -0.485046       -13.1988
  51   2.0000      -0.475519       -12.9395
  52   2.0000      -0.469733       -12.7821
  53   2.0000      -0.465073       -12.6553
  54   2.0000      -0.460156       -12.5215
  55   2.0000      -0.445540       -12.1238
  56   2.0000      -0.441091       -12.0027
  57   2.0000      -0.438097       -11.9212
  58   2.0000      -0.435551       -11.8519
  59   2.0000      -0.424347       -11.5471
  60   2.0000      -0.416499       -11.3335
  61   2.0000      -0.413949       -11.2641
  62   2.0000      -0.407600       -11.0914
  63   2.0000      -0.342403        -9.3173
  64   2.0000      -0.331439        -9.0189
  65   2.0000      -0.326852        -8.8941
  66   2.0000      -0.300062        -8.1651
  67   0.0000       0.037250         1.0136
  68   0.0000       0.062122         1.6904
  69   0.0000       0.107892         2.9359
  70   0.0000       0.120512         3.2793
  71   0.0000       0.127882         3.4798

MULLIKEN ATOMIC CHARGES
-----------------------
   0 S :    0.111062
   1 C :   -0.098503
   2 C :   -0.114835
   3 C :    0.043928
   4 C :   -0.171022
   5 H :    0.017952
   6 C :    0.109575
   7 H :    0.023952
   8 H :    0.006573
   9 C :   -0.037473
  10 H :    0.026050
  11 H :    0.035543
  12 C :   -0.103582
  13 H :    0.048116
  14 H :    0.047875
  15 H :    0.025464
  16 S :    0.113956
  17 C :   -0.096634
  18 C :   -0.047932
  19 C :   -0.074207
  20 C :   -0.141340
  21 H :    0.029550
  22 C :    0.160885
  23 H :   -0.003498
  24 H :   -0.015111
  25 C :   -0.049711
  26 H :    0.042985
  27 H :    0.027232
  28 C :   -0.062035
  29 H :    0.026524
  30 H :    0.024236
  31 H :    0.017530
  32 H :    0.019192
  33 H :    0.057704
Sum of atomic charges:    0.0000000

LOEWDIN ATOMIC CHARGES
----------------------
   0 S :    0.385624
   1 C :   -0.170671
   2 C :   -0.058421
   3 C :   -0.056174
   4 C :   -0.189853
   5 H :    0.034047
   6 C :   -0.036874
   7 H :    0.030559
   8 H :    0.031379
   9 C :   -0.040670
  10 H :    0.022729
  11 H :    0.032182
  12 C :   -0.077762
  13 H :    0.029694
  14 H :    0.040743
  15 H :    0.017788
  16 S :    0.399582
  17 C :   -0.184935
  18 C :   -0.074750
  19 C :   -0.051332
  20 C :   -0.203311
  21 H :    0.037219
  22 C :   -0.029572
  23 H :    0.029665
  24 H :    0.020254
  25 C :   -0.034925
  26 H :    0.029432
  27 H :    0.026685
  28 C :   -0.079520
  29 H :    0.027651
  30 H :    0.024010
  31 H :    0.024593
  32 H :    0.009250
  33 H :    0.035683

  Mayer bond orders larger than 0.100000
B(  0-S ,  1-C ) :   1.1314 B(  0-S ,  4-C ) :   1.1284 B(  1-C ,  2-C ) :   1.6161
B(  1-C , 32-H ) :   0.9746 B(  2-C ,  3-C ) :   1.1977 B(  2-C ,  6-C ) :   1.0633
B(  3-C ,  4-C ) :   1.6409 B(  3-C ,  5-H ) :   0.9870 B(  4-C , 20-C ) :   0.9908
B(  6-C ,  7-H ) :   0.9210 B(  6-C ,  8-H ) :   0.9301 B(  6-C ,  9-C ) :   1.0521
B(  9-C , 10-H ) :   0.9503 B(  9-C , 11-H ) :   0.9580 B(  9-C , 12-C ) :   1.0753
B( 12-C , 13-H ) :   0.9773 B( 12-C , 14-H ) :   0.9749 B( 12-C , 15-H ) :   0.9744
B( 16-S , 17-C ) :   1.1535 B( 16-S , 20-C ) :   1.1178 B( 17-C , 18-C ) :   1.6398
B( 17-C , 33-H ) :   0.9585 B( 18-C , 19-C ) :   1.2112 B( 18-C , 21-H ) :   0.9907
B( 19-C , 20-C ) :   1.6470 B( 19-C , 22-C ) :   1.0450 B( 22-C , 23-H ) :   0.9093
B( 22-C , 24-H ) :   0.9248 B( 22-C , 25-C ) :   1.0722 B( 25-C , 26-H ) :   0.9612
B( 25-C , 27-H ) :   0.9577 B( 25-C , 28-C ) :   1.0564 B( 28-C , 29-H ) :   0.9775
B( 28-C , 30-H ) :   0.9756 B( 28-C , 31-H ) :   0.9761

Dispersion correction           -0.014814181
FINAL SINGLE POINT ENERGY     -1339.857296042747

DIPOLE MOMENT
-------------
                                X             Y             Z
Electronic contribution:      6.76224      -5.94559      15.58598
Nuclear contribution   :     -6.94636       6.40125     -15.96000
                        -----------------------------------------
Total Dipole Moment    :     -0.18413       0.45565      -0.37402
                        -----------------------------------------
Magnitude (a.u.)       :      0.61758
Magnitude (Debye)      :      1.56978

Rotational constants in cm-1:     0.022740     0.007528     0.006984
Rotational constants in MHz :   681.723447   225.685476   209.384855

                             ****ORCA TERMINATED NORMALLY****
TOTAL RUN TIME: 0 days 0 hours 0 minutes 35 seconds 719 msec
