                         Program Version 4.2.1 -  RELEASE  -
|  1> ! wB97X-D3 SP def2-SVP
|  2> %pal
|  3> nprocs 16
|  4> end
|  5>
|  6> * xyz 0 1
|  7> S 	 5.22358 	 -3.94749 	 100.804
|  8> C 	 4.86052 	 -3.09529 	 99.2672
|  9> C 	 5.49726 	 -3.74163 	 98.1991
| 10> C 	 6.47068 	 -4.67495 	 98.6494
| 11> C 	 6.53437 	 -4.78706 	 100.038
| 12> H 	 7.11135 	 -5.36622 	 98.1145
| 13> C 	 5.11522 	 -3.50167 	 96.787
| 14> H 	 5.29424 	 -2.39403 	 96.6548
| 15> H 	 4.10084 	 -3.78952 	 96.5956
| 16> C 	 5.97505 	 -4.35342 	 95.754
| 17> H 	 7.00957 	 -4.00469 	 95.8291
| 18> H 	 6.02355 	 -5.38513 	 96.102
| 19> C 	 5.48409 	 -4.30626 	 94.3063
| 20> H 	 4.40614 	 -4.51149 	 94.1535
| 21> H 	 5.54934 	 -3.24371 	 94.0816
| 22> H 	 6.08374 	 -4.79411 	 93.5164
| 23> S 	 7.00198 	 -6.74331 	 101.952
| 24> C 	 8.66061 	 -7.09486 	 102.369
| 25> C 	 9.53254 	 -6.5986 	 101.474
| 26> C 	 8.90742 	 -5.70265 	 100.507
| 27> C 	 7.52651 	 -5.53746 	 100.79
| 28> H 	 10.5788 	 -6.79729 	 101.562
| 29> C 	 9.71319 	 -4.97458 	 99.4641
| 30> H 	 9.19126 	 -4.75442 	 98.5793
| 31> H 	 10.6504 	 -5.50661 	 99.2323
| 32> C 	 10.124 	 -3.57145 	 100.085
| 33> H 	 10.674 	 -3.77599 	 100.96
| 34> H 	 9.22688 	 -2.99089 	 100.409
| 35> C 	 10.9139 	 -2.74273 	 99.0604
| 36> H 	 11.9088 	 -3.09191 	 98.7542
| 37> H 	 11.1391 	 -1.74883 	 99.4401
| 38> H 	 10.3358 	 -2.70249 	 98.1641
| 39> H 	 4.13753 	 -2.33087 	 99.2524
| 40> H 	 8.92035 	 -7.50927 	 103.341
| 41> *
| 42>
| 43>                          ****END OF INPUT****

CARTESIAN COORDINATES (ANGSTROEM)
---------------------------------
  S      5.223580   -3.947490  100.804000
  C      4.860520   -3.095290   99.267200
  C      5.497260   -3.741630   98.199100
  C      6.470680   -4.674950   98.649400
  C      6.534370   -4.787060  100.038000
  H      7.111350   -5.366220   98.114500
  C      5.115220   -3.501670   96.787000
  H      5.294240   -2.394030   96.654800
  H      4.100840   -3.789520   96.595600
  C      5.975050   -4.353420   95.754000
  H      7.009570   -4.004690   95.829100
  H      6.023550   -5.385130   96.102000
  C      5.484090   -4.306260   94.306300
  H      4.406140   -4.511490   94.153500
  H      5.549340   -3.243710   94.081600
  H      6.083740   -4.794110   93.516400
  S      7.001980   -6.743310  101.952000
  C      8.660610   -7.094860  102.369000
  C      9.532540   -6.598600  101.474000
  C      8.907420   -5.702650  100.507000
  C      7.526510   -5.537460  100.790000
  H     10.578800   -6.797290  101.562000
  C      9.713190   -4.974580   99.464100
  H      9.191260   -4.754420   98.579300
  H     10.650400   -5.506610   99.232300
  C     10.124000   -3.571450  100.085000
  H     10.674000   -3.775990  100.960000
  H      9.226880   -2.990890  100.409000
  C     10.913900   -2.742730   99.060400
  H     11.908800   -3.091910   98.754200
  H     11.139100   -1.748830   99.440100
  H     10.335800   -2.702490   98.164100
  H      4.137530   -2.330870   99.252400
  H      8.920350   -7.509270  103.341000

 Total Charge           Charge          ....    0
 Multiplicity           Mult            ....    1
 Number of Electrons    NEL             ....  134
 Basis Dimension        Dim             ....  322

ORBITAL ENERGIES
----------------

  NO   OCC          E(Eh)            E(eV)
   0   2.0000     -88.966006     -2420.8881
   1   2.0000     -88.960131     -2420.7282
   2   2.0000     -10.327312      -281.0204
   3   2.0000     -10.326399      -280.9956
   4   2.0000     -10.315534      -280.7000
   5   2.0000     -10.312099      -280.6065
   6   2.0000     -10.308160      -280.4993
   7   2.0000     -10.306551      -280.4555
   8   2.0000     -10.298821      -280.2452
   9   2.0000     -10.294790      -280.1355
  10   2.0000     -10.292552      -280.0746
  11   2.0000     -10.291774      -280.0534
  12   2.0000     -10.290598      -280.0214
  13   2.0000     -10.284386      -279.8524
  14   2.0000     -10.283184      -279.8197
  15   2.0000     -10.273432      -279.5543
  16   2.0000      -8.080410      -219.8791
  17   2.0000      -8.075396      -219.7427
  18   2.0000      -6.038799      -164.3241
  19   2.0000      -6.035070      -164.2226
  20   2.0000      -6.033924      -164.1914
  21   2.0000      -6.031219      -164.1178
  22   2.0000      -6.030068      -164.0865
  23   2.0000      -6.025880      -163.9725
  24   2.0000      -1.004332       -27.3293
  25   2.0000      -0.981929       -26.7196
  26   2.0000      -0.911538       -24.8042
  27   2.0000      -0.905593       -24.6424
  28   2.0000      -0.869608       -23.6632
  29   2.0000      -0.848599       -23.0916
  30   2.0000      -0.843678       -22.9576
  31   2.0000      -0.816120       -22.2078
  32   2.0000      -0.781619       -21.2689
  33   2.0000      -0.767612       -20.8878
  34   2.0000      -0.713377       -19.4120
  35   2.0000      -0.699328       -19.0297
  36   2.0000      -0.690715       -18.7953
  37   2.0000      -0.657829       -17.9004
  38   2.0000      -0.643683       -17.5155
  39   2.0000      -0.618793       -16.8382
  40   2.0000      -0.599156       -16.3039
  41   2.0000      -0.573812       -15.6142
  42   2.0000      -0.566739       -15.4217
  43   2.0000      -0.557437       -15.1686
  44   2.0000      -0.530464       -14.4347
  45   2.0000      -0.522071       -14.2063
  46   2.0000      -0.512517       -13.9463
  47   2.0000      -0.506776       -13.7901
  48   2.0000      -0.505158       -13.7461
  49   2.0000      -0.500406       -13.6167
  50   2.0000      -0.491945       -13.3865
  51   2.0000      -0.489055       -13.3079
  52   2.0000      -0.474468       -12.9109
  53   2.0000      -0.465009       -12.6535
  54   2.0000      -0.456015       -12.4088
  55   2.0000      -0.448844       -12.2137
  56   2.0000      -0.446107       -12.1392
  57   2.0000      -0.435358       -11.8467
  58   2.0000      -0.430850       -11.7240
  59   2.0000      -0.423375       -11.5206
  60   2.0000      -0.420854       -11.4520
  61   2.0000      -0.419633       -11.4188
  62   2.0000      -0.417937       -11.3726
  63   2.0000      -0.344587        -9.3767
  64   2.0000      -0.331171        -9.0116
  65   2.0000      -0.323267        -8.7966
  66   2.0000      -0.284262        -7.7352
  67   0.0000       0.018470         0.5026
  68   0.0000       0.068757         1.8710
  69   0.0000       0.100830         2.7437
  70   0.0000       0.118665         3.2290
  71   0.0000       0.132814         3.6140

MULLIKEN ATOMIC CHARGES
-----------------------
   0 S :    0.107201
   1 C :   -0.117895
   2 C :   -0.073862
   3 C :   -0.000243
   4 C :   -0.156049
   5 H :    0.027202
   6 C :    0.058074
   7 H :    0.053155
   8 H :    0.042014
   9 C :   -0.115082
  10 H :    0.029746
  11 H :    0.038228
  12 C :   -0.031444
  13 H :    0.035580
  14 H :    0.015700
  15 H :    0.045574
  16 S :    0.089516
  17 C :   -0.091381
  18 C :   -0.014088
  19 C :   -0.058901
  20 C :   -0.133541
  21 H :    0.012663
  22 C :    0.085634
  23 H :   -0.000815
  24 H :    0.028130
  25 C :   -0.086451
  26 H :    0.014523
  27 H :    0.048669
  28 C :   -0.018288
  29 H :    0.021133
  30 H :    0.030612
  31 H :    0.020541
  32 H :    0.030328
  33 H :    0.063820
Sum of atomic charges:   -0.0000000

LOEWDIN ATOMIC CHARGES
----------------------
   0 S :    0.398646
   1 C :   -0.175030
   2 C :   -0.059650
   3 C :   -0.068595
   4 C :   -0.198336
   5 H :    0.033697
   6 C :   -0.030500
   7 H :    0.045213
   8 H :    0.031123
   9 C :   -0.044304
  10 H :    0.024044
  11 H :    0.020313
  12 C :   -0.074505
  13 H :    0.028136
  14 H :    0.025370
  15 H :    0.032244
  16 S :    0.389341
  17 C :   -0.182058
  18 C :   -0.067608
  19 C :   -0.047459
  20 C :   -0.201216
  21 H :    0.029619
  22 C :   -0.026683
  23 H :    0.015612
  24 H :    0.034525
  25 C :   -0.028274
  26 H :    0.013838
  27 H :    0.033813
  28 C :   -0.067965
  29 H :    0.023305
  30 H :    0.026405
  31 H :    0.020440
  32 H :    0.014947
  33 H :    0.031550

  Mayer bond orders larger than 0.100000
B(  0-S ,  1-C ) :   1.1373 B(  0-S ,  4-C ) :   1.1630 B(  1-C ,  2-C ) :   1.5755
B(  1-C ,  4-C ) :   0.1114 B(  1-C , 32-H ) :   0.9885 B(  2-C ,  3-C ) :   1.2488
B(  2-C ,  6-C ) :   1.0079 B(  3-C ,  4-C ) :   1.5411 B(  3-C ,  5-H ) :   0.9870
B(  4-C , 20-C ) :   1.0465 B(  6-C ,  7-H ) :   0.9334 B(  6-C ,  8-H ) :   0.9403
B(  6-C ,  9-C ) :   1.0865 B(  9-C , 10-H ) :   0.9531 B(  9-C , 11-H ) :   0.9509
B(  9-C , 12-C ) :   1.0747 B( 12-C , 13-H ) :   0.9748 B( 12-C , 14-H ) :   0.9710
B( 12-C , 15-H ) :   0.9734 B( 16-S , 17-C ) :   1.1374 B( 16-S , 20-C ) :   1.1389
B( 17-C , 18-C ) :   1.6353 B( 17-C , 33-H ) :   0.9642 B( 18-C , 19-C ) :   1.2154
B( 18-C , 21-H ) :   0.9945 B( 19-C , 20-C ) :   1.5823 B( 19-C , 22-C ) :   1.0711
B( 22-C , 23-H ) :   0.9304 B( 22-C , 24-H ) :   0.9346 B( 22-C , 25-C ) :   1.0534
B( 25-C , 26-H ) :   0.9583 B( 25-C , 27-H ) :   0.9578 B( 25-C , 28-C ) :   1.0799
B( 28-C , 29-H ) :   0.9737 B( 28-C , 30-H ) :   0.9725 B( 28-C , 31-H ) :   0.9736

Dispersion correction           -0.014241823
FINAL SINGLE POINT ENERGY     -1339.868498302251

DIPOLE MOMENT
-------------
                                X             Y             Z
Electronic contribution:    -11.84342     -10.33409      25.45891
Nuclear contribution   :     12.19398      10.53605     -26.01272
                        -----------------------------------------
Total Dipole Moment    :      0.35056       0.20196      -0.55382
                        -----------------------------------------
Magnitude (a.u.)       :      0.68585
Magnitude (Debye)      :      1.74330

Rotational constants in cm-1:     0.016956     0.008933     0.007205
Rotational constants in MHz :   508.339242   267.798574   215.991863

                             ****ORCA TERMINATED NORMALLY****
TOTAL RUN TIME: 0 days 0 hours 0 minutes 34 seconds 791 msec
