                         Program Version 4.2.1 -  RELEASE  -
|  1> ! wB97X-D3 SP def2-SVP
|  2> %pal
|  3> nprocs 16
|  4> end
|  5>
|  6> * xyz 0 1
|  7> S 	 -10.4803 	 -4.68688 	 86.4893
|  8> C 	 -10.1382 	 -5.10335 	 88.0659
|  9> C 	 -11.2267 	 -5.62817 	 88.7031
| 10> C 	 -12.3018 	 -6.00039 	 87.8176
| 11> C 	 -11.9505 	 -5.69337 	 86.5064
| 12> H 	 -13.263 	 -6.47839 	 88.0373
| 13> C 	 -11.2631 	 -5.97327 	 90.2099
| 14> H 	 -12.2059 	 -5.71034 	 90.7321
| 15> H 	 -10.4608 	 -5.3929 	 90.6666
| 16> C 	 -11.0218 	 -7.53167 	 90.4792
| 17> H 	 -11.8595 	 -8.09382 	 90.1682
| 18> H 	 -10.2309 	 -7.82522 	 89.8447
| 19> C 	 -10.9081 	 -7.84372 	 91.9838
| 20> H 	 -11.6936 	 -7.40107 	 92.6704
| 21> H 	 -10.7897 	 -8.93176 	 92.0898
| 22> H 	 -9.99646 	 -7.40162 	 92.3562
| 23> S 	 -13.2629 	 -4.72308 	 84.3558
| 24> C 	 -13.8727 	 -5.88686 	 83.1341
| 25> C 	 -13.7752 	 -7.12288 	 83.6371
| 26> C 	 -13.1313 	 -7.30842 	 84.8957
| 27> C 	 -12.637 	 -6.06335 	 85.2934
| 28> H 	 -14.1765 	 -7.96481 	 83.0808
| 29> C 	 -13.2002 	 -8.56249 	 85.7481
| 30> H 	 -14.1568 	 -8.84298 	 85.9225
| 31> H 	 -12.816 	 -8.27017 	 86.6599
| 32> C 	 -12.4006 	 -9.79376 	 85.2635
| 33> H 	 -11.2814 	 -9.58784 	 85.2612
| 34> H 	 -12.663 	 -10.0134 	 84.2089
| 35> C 	 -12.6822 	 -11.0643 	 85.9939
| 36> H 	 -12.45 	 -12.0157 	 85.4659
| 37> H 	 -13.6972 	 -11.0783 	 86.2486
| 38> H 	 -12.1951 	 -11.0863 	 86.9798
| 39> H 	 -9.20577 	 -4.83673 	 88.5932
| 40> H 	 -14.3203 	 -5.54599 	 82.2063
| 41> *
| 42>
| 43>                          ****END OF INPUT****

CARTESIAN COORDINATES (ANGSTROEM)
---------------------------------
  S    -10.480300   -4.686880   86.489300
  C    -10.138200   -5.103350   88.065900
  C    -11.226700   -5.628170   88.703100
  C    -12.301800   -6.000390   87.817600
  C    -11.950500   -5.693370   86.506400
  H    -13.263000   -6.478390   88.037300
  C    -11.263100   -5.973270   90.209900
  H    -12.205900   -5.710340   90.732100
  H    -10.460800   -5.392900   90.666600
  C    -11.021800   -7.531670   90.479200
  H    -11.859500   -8.093820   90.168200
  H    -10.230900   -7.825220   89.844700
  C    -10.908100   -7.843720   91.983800
  H    -11.693600   -7.401070   92.670400
  H    -10.789700   -8.931760   92.089800
  H     -9.996460   -7.401620   92.356200
  S    -13.262900   -4.723080   84.355800
  C    -13.872700   -5.886860   83.134100
  C    -13.775200   -7.122880   83.637100
  C    -13.131300   -7.308420   84.895700
  C    -12.637000   -6.063350   85.293400
  H    -14.176500   -7.964810   83.080800
  C    -13.200200   -8.562490   85.748100
  H    -14.156800   -8.842980   85.922500
  H    -12.816000   -8.270170   86.659900
  C    -12.400600   -9.793760   85.263500
  H    -11.281400   -9.587840   85.261200
  H    -12.663000  -10.013400   84.208900
  C    -12.682200  -11.064300   85.993900
  H    -12.450000  -12.015700   85.465900
  H    -13.697200  -11.078300   86.248600
  H    -12.195100  -11.086300   86.979800
  H     -9.205770   -4.836730   88.593200
  H    -14.320300   -5.545990   82.206300

 Total Charge           Charge          ....    0
 Multiplicity           Mult            ....    1
 Number of Electrons    NEL             ....  134
 Basis Dimension        Dim             ....  322

ORBITAL ENERGIES
----------------

  NO   OCC          E(Eh)            E(eV)
   0   2.0000     -88.963564     -2420.8216
   1   2.0000     -88.960729     -2420.7445
   2   2.0000     -10.327360      -281.0218
   3   2.0000     -10.325549      -280.9725
   4   2.0000     -10.315040      -280.6865
   5   2.0000     -10.309830      -280.5447
   6   2.0000     -10.303524      -280.3732
   7   2.0000     -10.301011      -280.3048
   8   2.0000     -10.299484      -280.2632
   9   2.0000     -10.296730      -280.1883
  10   2.0000     -10.289486      -279.9911
  11   2.0000     -10.288424      -279.9623
  12   2.0000     -10.283640      -279.8321
  13   2.0000     -10.283095      -279.8172
  14   2.0000     -10.282443      -279.7995
  15   2.0000     -10.273642      -279.5600
  16   2.0000      -8.079779      -219.8620
  17   2.0000      -8.075362      -219.7418
  18   2.0000      -6.038102      -164.3051
  19   2.0000      -6.034255      -164.2004
  20   2.0000      -6.033955      -164.1923
  21   2.0000      -6.030450      -164.0969
  22   2.0000      -6.030110      -164.0876
  23   2.0000      -6.025812      -163.9707
  24   2.0000      -1.010472       -27.4963
  25   2.0000      -0.987337       -26.8668
  26   2.0000      -0.912986       -24.8436
  27   2.0000      -0.901904       -24.5420
  28   2.0000      -0.874623       -23.7997
  29   2.0000      -0.854359       -23.2483
  30   2.0000      -0.847587       -23.0640
  31   2.0000      -0.815907       -22.2019
  32   2.0000      -0.784794       -21.3553
  33   2.0000      -0.766380       -20.8543
  34   2.0000      -0.707841       -19.2613
  35   2.0000      -0.698892       -19.0178
  36   2.0000      -0.696647       -18.9567
  37   2.0000      -0.660531       -17.9740
  38   2.0000      -0.643919       -17.5219
  39   2.0000      -0.616558       -16.7774
  40   2.0000      -0.600917       -16.3518
  41   2.0000      -0.570409       -15.5216
  42   2.0000      -0.569051       -15.4847
  43   2.0000      -0.550154       -14.9704
  44   2.0000      -0.533470       -14.5165
  45   2.0000      -0.525009       -14.2862
  46   2.0000      -0.516199       -14.0465
  47   2.0000      -0.511864       -13.9285
  48   2.0000      -0.509111       -13.8536
  49   2.0000      -0.498524       -13.5655
  50   2.0000      -0.493998       -13.4424
  51   2.0000      -0.483798       -13.1648
  52   2.0000      -0.473846       -12.8940
  53   2.0000      -0.464697       -12.6451
  54   2.0000      -0.459265       -12.4972
  55   2.0000      -0.454198       -12.3594
  56   2.0000      -0.444615       -12.0986
  57   2.0000      -0.432006       -11.7555
  58   2.0000      -0.430092       -11.7034
  59   2.0000      -0.428489       -11.6598
  60   2.0000      -0.426623       -11.6090
  61   2.0000      -0.414598       -11.2818
  62   2.0000      -0.411666       -11.2020
  63   2.0000      -0.348508        -9.4834
  64   2.0000      -0.329266        -8.9598
  65   2.0000      -0.324927        -8.8417
  66   2.0000      -0.290958        -7.9174
  67   0.0000       0.029400         0.8000
  68   0.0000       0.064551         1.7565
  69   0.0000       0.103866         2.8263
  70   0.0000       0.119442         3.2502
  71   0.0000       0.134677         3.6647

MULLIKEN ATOMIC CHARGES
-----------------------
   0 S :    0.128352
   1 C :   -0.118562
   2 C :   -0.093344
   3 C :    0.046096
   4 C :   -0.189974
   5 H :    0.032504
   6 C :    0.038756
   7 H :    0.033819
   8 H :    0.016688
   9 C :   -0.051937
  10 H :    0.016744
  11 H :    0.024257
  12 C :   -0.058125
  13 H :    0.044668
  14 H :    0.041134
  15 H :    0.019193
  16 S :    0.084550
  17 C :   -0.088655
  18 C :   -0.023477
  19 C :   -0.031679
  20 C :   -0.167807
  21 H :    0.014901
  22 C :    0.182790
  23 H :   -0.000793
  24 H :   -0.018615
  25 C :   -0.120834
  26 H :    0.045353
  27 H :    0.026505
  28 C :   -0.021101
  29 H :    0.044792
  30 H :    0.003132
  31 H :    0.024690
  32 H :    0.057958
  33 H :    0.058025
Sum of atomic charges:   -0.0000000

LOEWDIN ATOMIC CHARGES
----------------------
   0 S :    0.425392
   1 C :   -0.223697
   2 C :   -0.069994
   3 C :   -0.056356
   4 C :   -0.189481
   5 H :    0.037986
   6 C :   -0.029808
   7 H :    0.031425
   8 H :    0.023770
   9 C :   -0.033727
  10 H :    0.015700
  11 H :    0.019437
  12 C :   -0.071235
  13 H :    0.034479
  14 H :    0.029587
  15 H :    0.019160
  16 S :    0.376623
  17 C :   -0.170768
  18 C :   -0.067950
  19 C :   -0.050857
  20 C :   -0.189878
  21 H :    0.030439
  22 C :   -0.013099
  23 H :    0.018786
  24 H :    0.020979
  25 C :   -0.044800
  26 H :    0.032690
  27 H :    0.022842
  28 C :   -0.069247
  29 H :    0.033634
  30 H :    0.014822
  31 H :    0.026006
  32 H :    0.036314
  33 H :    0.030829

  Mayer bond orders larger than 0.100000
B(  0-S ,  1-C ) :   1.1543 B(  0-S ,  4-C ) :   1.1498 B(  1-C ,  2-C ) :   1.6134
B(  1-C , 32-H ) :   0.9623 B(  2-C ,  3-C ) :   1.2151 B(  2-C ,  6-C ) :   1.0348
B(  3-C ,  4-C ) :   1.5668 B(  3-C ,  5-H ) :   0.9935 B(  4-C , 20-C ) :   1.0366
B(  6-C ,  7-H ) :   0.9453 B(  6-C ,  8-H ) :   0.9468 B(  6-C ,  9-C ) :   1.0504
B(  9-C , 10-H ) :   0.9583 B(  9-C , 11-H ) :   0.9587 B(  9-C , 12-C ) :   1.0747
B( 12-C , 13-H ) :   0.9733 B( 12-C , 14-H ) :   0.9743 B( 12-C , 15-H ) :   0.9766
B( 16-S , 17-C ) :   1.1055 B( 16-S , 20-C ) :   1.1652 B( 17-C , 18-C ) :   1.6389
B( 17-C , 33-H ) :   0.9747 B( 18-C , 19-C ) :   1.2116 B( 18-C , 21-H ) :   0.9847
B( 19-C , 20-C ) :   1.5939 B( 19-C , 22-C ) :   1.0449 B( 22-C , 23-H ) :   0.9271
B( 22-C , 24-H ) :   0.9093 B( 22-C , 25-C ) :   1.0615 B( 25-C , 26-H ) :   0.9545
B( 25-C , 27-H ) :   0.9608 B( 25-C , 28-C ) :   1.0846 B( 28-C , 29-H ) :   0.9735
B( 28-C , 30-H ) :   0.9682 B( 28-C , 31-H ) :   0.9705

Dispersion correction           -0.013803713
FINAL SINGLE POINT ENERGY     -1339.860208282359

DIPOLE MOMENT
-------------
                                X             Y             Z
Electronic contribution:     -0.41509      26.00133     -19.90498
Nuclear contribution   :      0.19233     -26.57454      20.32938
                        -----------------------------------------
Total Dipole Moment    :     -0.22276      -0.57321       0.42440
                        -----------------------------------------
Magnitude (a.u.)       :      0.74720
Magnitude (Debye)      :      1.89923

Rotational constants in cm-1:     0.016615     0.009223     0.006486
Rotational constants in MHz :   498.110342   276.492098   194.441028

                             ****ORCA TERMINATED NORMALLY****
TOTAL RUN TIME: 0 days 0 hours 0 minutes 33 seconds 626 msec
