                         Program Version 4.2.1 -  RELEASE  -
|  1> ! wB97X-D3 SP def2-SVP
|  2> %pal
|  3> nprocs 16
|  4> end
|  5>
|  6> * xyz 0 1
|  7> S 	 -50.1851 	 49.8385 	 107.913
|  8> C 	 -49.1938 	 50.1253 	 109.299
|  9> C 	 -47.8039 	 50.0071 	 108.999
| 10> C 	 -47.5642 	 49.6954 	 107.634
| 11> C 	 -48.7482 	 49.2794 	 107.061
| 12> H 	 -46.6281 	 49.6203 	 107.112
| 13> C 	 -46.654 	 50.0538 	 110.043
| 14> H 	 -47.0896 	 50.3213 	 111.048
| 15> H 	 -45.986 	 50.9184 	 109.939
| 16> C 	 -45.883 	 48.729 	 110.145
| 17> H 	 -46.5621 	 47.9211 	 110.061
| 18> H 	 -45.3 	 48.474 	 109.31
| 19> C 	 -44.9342 	 48.581 	 111.354
| 20> H 	 -44.4119 	 47.6904 	 111.099
| 21> H 	 -44.1827 	 49.3646 	 111.353
| 22> H 	 -45.52 	 48.442 	 112.263
| 23> S 	 -49.8632 	 49.4385 	 104.499
| 24> C 	 -49.4359 	 48.2721 	 103.37
| 25> C 	 -48.7412 	 47.2701 	 103.916
| 26> C 	 -48.2806 	 47.5064 	 105.271
| 27> C 	 -48.8363 	 48.6909 	 105.743
| 28> H 	 -48.5461 	 46.3671 	 103.332
| 29> C 	 -47.2959 	 46.6117 	 105.93
| 30> H 	 -46.5742 	 47.2521 	 106.41
| 31> H 	 -46.7819 	 46.0339 	 105.125
| 32> C 	 -47.9031 	 45.6332 	 106.943
| 33> H 	 -48.1562 	 46.0689 	 107.895
| 34> H 	 -47.1712 	 44.8347 	 107.008
| 35> C 	 -49.1094 	 44.89 	 106.403
| 36> H 	 -49.5099 	 44.216 	 107.2
| 37> H 	 -48.6945 	 44.2493 	 105.641
| 38> H 	 -49.9492 	 45.411 	 106.023
| 39> H 	 -49.6095 	 50.4312 	 110.237
| 40> H 	 -50.0581 	 48.1997 	 102.471
| 41> *
| 42>
| 43>                          ****END OF INPUT****

CARTESIAN COORDINATES (ANGSTROEM)
---------------------------------
  S    -50.185100   49.838500  107.913000
  C    -49.193800   50.125300  109.299000
  C    -47.803900   50.007100  108.999000
  C    -47.564200   49.695400  107.634000
  C    -48.748200   49.279400  107.061000
  H    -46.628100   49.620300  107.112000
  C    -46.654000   50.053800  110.043000
  H    -47.089600   50.321300  111.048000
  H    -45.986000   50.918400  109.939000
  C    -45.883000   48.729000  110.145000
  H    -46.562100   47.921100  110.061000
  H    -45.300000   48.474000  109.310000
  C    -44.934200   48.581000  111.354000
  H    -44.411900   47.690400  111.099000
  H    -44.182700   49.364600  111.353000
  H    -45.520000   48.442000  112.263000
  S    -49.863200   49.438500  104.499000
  C    -49.435900   48.272100  103.370000
  C    -48.741200   47.270100  103.916000
  C    -48.280600   47.506400  105.271000
  C    -48.836300   48.690900  105.743000
  H    -48.546100   46.367100  103.332000
  C    -47.295900   46.611700  105.930000
  H    -46.574200   47.252100  106.410000
  H    -46.781900   46.033900  105.125000
  C    -47.903100   45.633200  106.943000
  H    -48.156200   46.068900  107.895000
  H    -47.171200   44.834700  107.008000
  C    -49.109400   44.890000  106.403000
  H    -49.509900   44.216000  107.200000
  H    -48.694500   44.249300  105.641000
  H    -49.949200   45.411000  106.023000
  H    -49.609500   50.431200  110.237000
  H    -50.058100   48.199700  102.471000

 Total Charge           Charge          ....    0
 Multiplicity           Mult            ....    1
 Number of Electrons    NEL             ....  134
 Basis Dimension        Dim             ....  322

ORBITAL ENERGIES
----------------

  NO   OCC          E(Eh)            E(eV)
   0   2.0000     -88.968702     -2420.9614
   1   2.0000     -88.957905     -2420.6677
   2   2.0000     -10.326522      -280.9989
   3   2.0000     -10.321912      -280.8735
   4   2.0000     -10.314422      -280.6697
   5   2.0000     -10.307940      -280.4933
   6   2.0000     -10.305735      -280.4333
   7   2.0000     -10.301147      -280.3085
   8   2.0000     -10.298207      -280.2284
   9   2.0000     -10.294033      -280.1149
  10   2.0000     -10.291178      -280.0372
  11   2.0000     -10.288101      -279.9535
  12   2.0000     -10.281768      -279.7811
  13   2.0000     -10.278281      -279.6863
  14   2.0000     -10.277413      -279.6626
  15   2.0000     -10.268991      -279.4335
  16   2.0000      -8.083654      -219.9674
  17   2.0000      -8.074269      -219.7120
  18   2.0000      -6.042022      -164.4118
  19   2.0000      -6.038366      -164.3123
  20   2.0000      -6.034327      -164.2024
  21   2.0000      -6.032703      -164.1582
  22   2.0000      -6.028624      -164.0472
  23   2.0000      -6.024945      -163.9471
  24   2.0000      -1.009568       -27.4718
  25   2.0000      -0.987189       -26.8628
  26   2.0000      -0.916677       -24.9440
  27   2.0000      -0.907483       -24.6939
  28   2.0000      -0.870155       -23.6781
  29   2.0000      -0.855267       -23.2730
  30   2.0000      -0.847841       -23.0709
  31   2.0000      -0.812446       -22.1078
  32   2.0000      -0.786358       -21.3979
  33   2.0000      -0.769375       -20.9358
  34   2.0000      -0.709827       -19.3154
  35   2.0000      -0.700772       -19.0690
  36   2.0000      -0.685970       -18.6662
  37   2.0000      -0.658684       -17.9237
  38   2.0000      -0.644541       -17.5388
  39   2.0000      -0.619647       -16.8614
  40   2.0000      -0.593981       -16.1631
  41   2.0000      -0.572353       -15.5745
  42   2.0000      -0.564577       -15.3629
  43   2.0000      -0.555320       -15.1110
  44   2.0000      -0.543352       -14.7854
  45   2.0000      -0.525540       -14.3007
  46   2.0000      -0.516349       -14.0506
  47   2.0000      -0.509451       -13.8629
  48   2.0000      -0.504487       -13.7278
  49   2.0000      -0.498248       -13.5580
  50   2.0000      -0.492352       -13.3976
  51   2.0000      -0.482901       -13.1404
  52   2.0000      -0.470460       -12.8019
  53   2.0000      -0.463018       -12.5994
  54   2.0000      -0.460271       -12.5246
  55   2.0000      -0.448317       -12.1993
  56   2.0000      -0.443954       -12.0806
  57   2.0000      -0.441640       -12.0176
  58   2.0000      -0.432684       -11.7739
  59   2.0000      -0.423535       -11.5250
  60   2.0000      -0.420720       -11.4484
  61   2.0000      -0.417586       -11.3631
  62   2.0000      -0.410350       -11.1662
  63   2.0000      -0.345357        -9.3976
  64   2.0000      -0.329372        -8.9627
  65   2.0000      -0.326284        -8.8786
  66   2.0000      -0.288744        -7.8571
  67   0.0000       0.028889         0.7861
  68   0.0000       0.067424         1.8347
  69   0.0000       0.110117         2.9964
  70   0.0000       0.118513         3.2249
  71   0.0000       0.128618         3.4999

MULLIKEN ATOMIC CHARGES
-----------------------
   0 S :    0.121002
   1 C :   -0.106469
   2 C :   -0.086197
   3 C :    0.030498
   4 C :   -0.163810
   5 H :    0.028738
   6 C :    0.072967
   7 H :    0.013059
   8 H :    0.030116
   9 C :   -0.078898
  10 H :    0.014312
  11 H :    0.004109
  12 C :   -0.018232
  13 H :    0.020806
  14 H :    0.032590
  15 H :    0.044150
  16 S :    0.094584
  17 C :   -0.078823
  18 C :   -0.053823
  19 C :   -0.059083
  20 C :   -0.175144
  21 H :    0.020096
  22 C :    0.097906
  23 H :    0.016996
  24 H :    0.024181
  25 C :   -0.044067
  26 H :    0.042613
  27 H :    0.023965
  28 C :   -0.068641
  29 H :    0.033780
  30 H :    0.013903
  31 H :    0.044613
  32 H :    0.041147
  33 H :    0.067058
Sum of atomic charges:   -0.0000000

LOEWDIN ATOMIC CHARGES
----------------------
   0 S :    0.410575
   1 C :   -0.206559
   2 C :   -0.054848
   3 C :   -0.052970
   4 C :   -0.184663
   5 H :    0.034492
   6 C :   -0.036726
   7 H :    0.031447
   8 H :    0.029918
   9 C :   -0.044453
  10 H :    0.020704
  11 H :    0.015212
  12 C :   -0.054459
  13 H :    0.025584
  14 H :    0.025505
  15 H :    0.027105
  16 S :    0.407901
  17 C :   -0.210290
  18 C :   -0.077544
  19 C :   -0.051490
  20 C :   -0.196286
  21 H :    0.031309
  22 C :   -0.032483
  23 H :    0.029063
  24 H :    0.036380
  25 C :   -0.032499
  26 H :    0.022217
  27 H :    0.027453
  28 C :   -0.065362
  29 H :    0.031895
  30 H :    0.020280
  31 H :    0.018812
  32 H :    0.020930
  33 H :    0.033851

  Mayer bond orders larger than 0.100000
B(  0-S ,  1-C ) :   1.1388 B(  0-S ,  4-C ) :   1.1544 B(  1-C ,  2-C ) :   1.5958
B(  1-C ,  4-C ) :   0.1033 B(  1-C , 32-H ) :   0.9717 B(  2-C ,  3-C ) :   1.2298
B(  2-C ,  6-C ) :   1.0287 B(  3-C ,  4-C ) :   1.5681 B(  3-C ,  5-H ) :   0.9943
B(  4-C , 20-C ) :   1.0605 B(  6-C ,  7-H ) :   0.9451 B(  6-C ,  8-H ) :   0.9382
B(  6-C ,  9-C ) :   1.0475 B(  9-C , 10-H ) :   0.9535 B(  9-C , 11-H ) :   0.9517
B(  9-C , 12-C ) :   1.0911 B( 12-C , 13-H ) :   0.9732 B( 12-C , 14-H ) :   0.9744
B( 12-C , 15-H ) :   0.9775 B( 16-S , 17-C ) :   1.1584 B( 16-S , 20-C ) :   1.1387
B( 17-C , 18-C ) :   1.6361 B( 17-C , 33-H ) :   0.9562 B( 18-C , 19-C ) :   1.2258
B( 18-C , 21-H ) :   0.9853 B( 19-C , 20-C ) :   1.5989 B( 19-C , 22-C ) :   1.0429
B( 22-C , 23-H ) :   0.9274 B( 22-C , 24-H ) :   0.9299 B( 22-C , 25-C ) :   1.0766
B( 25-C , 26-H ) :   0.9576 B( 25-C , 27-H ) :   0.9574 B( 25-C , 28-C ) :   1.0782
B( 28-C , 29-H ) :   0.9727 B( 28-C , 30-H ) :   0.9792 B( 28-C , 31-H ) :   0.9721

Dispersion correction           -0.015268517
FINAL SINGLE POINT ENERGY     -1339.865196852708

DIPOLE MOMENT
-------------
                                X             Y             Z
Electronic contribution:    -18.61058      16.51811     -15.19496
Nuclear contribution   :     19.08454     -16.97946      15.40516
                        -----------------------------------------
Total Dipole Moment    :      0.47396      -0.46135       0.21021
                        -----------------------------------------
Magnitude (a.u.)       :      0.69403
Magnitude (Debye)      :      1.76408

Rotational constants in cm-1:     0.019561     0.009243     0.007313
Rotational constants in MHz :   586.419410   277.088807   219.240624

                             ****ORCA TERMINATED NORMALLY****
TOTAL RUN TIME: 0 days 0 hours 0 minutes 31 seconds 760 msec
