                         Program Version 4.2.1 -  RELEASE  -
|  1> ! wB97X-D3 SP def2-SVP
|  2> %pal
|  3> nprocs 16
|  4> end
|  5>
|  6> * xyz 0 1
|  7> S 	 5.12723 	 25.2581 	 70.2683
|  8> C 	 5.32595 	 24.2719 	 68.7803
|  9> C 	 6.11432 	 24.9319 	 67.8935
| 10> C 	 6.71634 	 26.0821 	 68.4803
| 11> C 	 6.36764 	 26.4189 	 69.8132
| 12> H 	 7.35812 	 26.7919 	 67.9176
| 13> C 	 6.1814 	 24.6115 	 66.5335
| 14> H 	 5.55728 	 23.7357 	 66.3182
| 15> H 	 7.09818 	 24.2828 	 66.1569
| 16> C 	 5.66997 	 25.6862 	 65.631
| 17> H 	 4.71192 	 25.9829 	 66.0654
| 18> H 	 6.34725 	 26.5143 	 65.5569
| 19> C 	 5.26606 	 25.0515 	 64.2572
| 20> H 	 6.15436 	 24.9291 	 63.5935
| 21> H 	 4.76282 	 24.1134 	 64.407
| 22> H 	 4.50555 	 25.6632 	 63.6814
| 23> S 	 7.74899 	 26.6919 	 72.1408
| 24> C 	 8.13741 	 28.357 	 72.6087
| 25> C 	 7.67622 	 29.3539 	 71.7723
| 26> C 	 6.91202 	 28.7985 	 70.6799
| 27> C 	 6.86152 	 27.4067 	 70.7445
| 28> H 	 7.73677 	 30.4354 	 72.0851
| 29> C 	 6.26061 	 29.673 	 69.6359
| 30> H 	 6.04353 	 30.5727 	 70.1777
| 31> H 	 5.25161 	 29.3829 	 69.3672
| 32> C 	 7.14262 	 30.1508 	 68.4772
| 33> H 	 7.48112 	 29.2523 	 67.9463
| 34> H 	 8.01992 	 30.5648 	 68.9731
| 35> C 	 6.4542 	 31.1517 	 67.606
| 36> H 	 5.44347 	 30.8321 	 67.3678
| 37> H 	 6.95809 	 31.3191 	 66.6704
| 38> H 	 6.38134 	 32.1248 	 68.1202
| 39> H 	 4.71159 	 23.4431 	 68.4652
| 40> H 	 8.38446 	 28.5692 	 73.585
| 41> *
| 42>
| 43>                          ****END OF INPUT****

CARTESIAN COORDINATES (ANGSTROEM)
---------------------------------
  S      5.127230   25.258100   70.268300
  C      5.325950   24.271900   68.780300
  C      6.114320   24.931900   67.893500
  C      6.716340   26.082100   68.480300
  C      6.367640   26.418900   69.813200
  H      7.358120   26.791900   67.917600
  C      6.181400   24.611500   66.533500
  H      5.557280   23.735700   66.318200
  H      7.098180   24.282800   66.156900
  C      5.669970   25.686200   65.631000
  H      4.711920   25.982900   66.065400
  H      6.347250   26.514300   65.556900
  C      5.266060   25.051500   64.257200
  H      6.154360   24.929100   63.593500
  H      4.762820   24.113400   64.407000
  H      4.505550   25.663200   63.681400
  S      7.748990   26.691900   72.140800
  C      8.137410   28.357000   72.608700
  C      7.676220   29.353900   71.772300
  C      6.912020   28.798500   70.679900
  C      6.861520   27.406700   70.744500
  H      7.736770   30.435400   72.085100
  C      6.260610   29.673000   69.635900
  H      6.043530   30.572700   70.177700
  H      5.251610   29.382900   69.367200
  C      7.142620   30.150800   68.477200
  H      7.481120   29.252300   67.946300
  H      8.019920   30.564800   68.973100
  C      6.454200   31.151700   67.606000
  H      5.443470   30.832100   67.367800
  H      6.958090   31.319100   66.670400
  H      6.381340   32.124800   68.120200
  H      4.711590   23.443100   68.465200
  H      8.384460   28.569200   73.585000

 Total Charge           Charge          ....    0
 Multiplicity           Mult            ....    1
 Number of Electrons    NEL             ....  134
 Basis Dimension        Dim             ....  322

ORBITAL ENERGIES
----------------

  NO   OCC          E(Eh)            E(eV)
   0   2.0000     -88.968001     -2420.9424
   1   2.0000     -88.960944     -2420.7504
   2   2.0000     -10.332269      -281.1553
   3   2.0000     -10.331378      -281.1311
   4   2.0000     -10.314779      -280.6794
   5   2.0000     -10.312010      -280.6041
   6   2.0000     -10.311295      -280.5846
   7   2.0000     -10.303256      -280.3658
   8   2.0000     -10.297320      -280.2043
   9   2.0000     -10.290448      -280.0173
  10   2.0000     -10.287933      -279.9489
  11   2.0000     -10.286332      -279.9053
  12   2.0000     -10.286207      -279.9019
  13   2.0000     -10.285492      -279.8825
  14   2.0000     -10.278232      -279.6849
  15   2.0000     -10.275712      -279.6163
  16   2.0000      -8.081773      -219.9162
  17   2.0000      -8.074930      -219.7300
  18   2.0000      -6.040235      -164.3632
  19   2.0000      -6.036650      -164.2656
  20   2.0000      -6.033495      -164.1797
  21   2.0000      -6.032374      -164.1493
  22   2.0000      -6.029553      -164.0725
  23   2.0000      -6.025635      -163.9659
  24   2.0000      -1.001552       -27.2536
  25   2.0000      -0.981821       -26.7167
  26   2.0000      -0.927971       -25.2514
  27   2.0000      -0.915384       -24.9089
  28   2.0000      -0.870801       -23.6957
  29   2.0000      -0.854931       -23.2639
  30   2.0000      -0.839488       -22.8436
  31   2.0000      -0.812318       -22.1043
  32   2.0000      -0.785045       -21.3622
  33   2.0000      -0.772869       -21.0308
  34   2.0000      -0.715821       -19.4785
  35   2.0000      -0.702734       -19.1224
  36   2.0000      -0.694306       -18.8930
  37   2.0000      -0.662780       -18.0352
  38   2.0000      -0.644672       -17.5424
  39   2.0000      -0.615870       -16.7587
  40   2.0000      -0.601341       -16.3633
  41   2.0000      -0.586282       -15.9535
  42   2.0000      -0.569177       -15.4881
  43   2.0000      -0.563987       -15.3469
  44   2.0000      -0.525321       -14.2947
  45   2.0000      -0.523195       -14.2368
  46   2.0000      -0.518076       -14.0976
  47   2.0000      -0.515889       -14.0380
  48   2.0000      -0.505349       -13.7512
  49   2.0000      -0.499381       -13.5888
  50   2.0000      -0.493183       -13.4202
  51   2.0000      -0.475338       -12.9346
  52   2.0000      -0.471290       -12.8245
  53   2.0000      -0.465368       -12.6633
  54   2.0000      -0.457146       -12.4396
  55   2.0000      -0.452669       -12.3178
  56   2.0000      -0.440209       -11.9787
  57   2.0000      -0.435409       -11.8481
  58   2.0000      -0.433963       -11.8087
  59   2.0000      -0.431249       -11.7349
  60   2.0000      -0.422588       -11.4992
  61   2.0000      -0.415259       -11.2998
  62   2.0000      -0.414580       -11.2813
  63   2.0000      -0.339440        -9.2366
  64   2.0000      -0.329371        -8.9627
  65   2.0000      -0.322895        -8.7864
  66   2.0000      -0.300461        -8.1759
  67   0.0000       0.026403         0.7185
  68   0.0000       0.060656         1.6505
  69   0.0000       0.105322         2.8659
  70   0.0000       0.115173         3.1340
  71   0.0000       0.120470         3.2782

MULLIKEN ATOMIC CHARGES
-----------------------
   0 S :    0.087283
   1 C :   -0.110461
   2 C :   -0.070915
   3 C :    0.038784
   4 C :   -0.171728
   5 H :    0.012734
   6 C :    0.104034
   7 H :   -0.007584
   8 H :    0.010929
   9 C :   -0.077074
  10 H :    0.029775
  11 H :    0.035835
  12 C :   -0.079777
  13 H :    0.041271
  14 H :    0.027612
  15 H :    0.040944
  16 S :    0.109620
  17 C :   -0.055574
  18 C :   -0.061043
  19 C :   -0.017845
  20 C :   -0.168109
  21 H :    0.048479
  22 C :    0.065297
  23 H :   -0.003371
  24 H :    0.025383
  25 C :   -0.055530
  26 H :    0.024830
  27 H :    0.022770
  28 C :   -0.017411
  29 H :    0.026191
  30 H :    0.032839
  31 H :    0.032486
  32 H :    0.044590
  33 H :    0.034734
Sum of atomic charges:   -0.0000000

LOEWDIN ATOMIC CHARGES
----------------------
   0 S :    0.379860
   1 C :   -0.178116
   2 C :   -0.072342
   3 C :   -0.061168
   4 C :   -0.197438
   5 H :    0.028126
   6 C :   -0.037925
   7 H :    0.030975
   8 H :    0.024195
   9 C :   -0.028646
  10 H :    0.027721
  11 H :    0.020326
  12 C :   -0.068640
  13 H :    0.027697
  14 H :    0.020351
  15 H :    0.031222
  16 S :    0.383839
  17 C :   -0.160729
  18 C :   -0.072822
  19 C :   -0.043336
  20 C :   -0.187155
  21 H :    0.045497
  22 C :   -0.034886
  23 H :    0.027176
  24 H :    0.029521
  25 C :   -0.037612
  26 H :    0.020413
  27 H :    0.025560
  28 C :   -0.062128
  29 H :    0.025615
  30 H :    0.026652
  31 H :    0.029707
  32 H :    0.028219
  33 H :    0.010271

  Mayer bond orders larger than 0.100000
B(  0-S ,  1-C ) :   1.1263 B(  0-S ,  4-C ) :   1.1524 B(  1-C ,  2-C ) :   1.6090
B(  1-C ,  4-C ) :   0.1012 B(  1-C , 32-H ) :   0.9618 B(  2-C ,  3-C ) :   1.2332
B(  2-C ,  6-C ) :   1.0693 B(  3-C ,  4-C ) :   1.5627 B(  3-C ,  5-H ) :   0.9887
B(  4-C , 20-C ) :   1.0403 B(  6-C ,  7-H ) :   0.9304 B(  6-C ,  8-H ) :   0.9116
B(  6-C ,  9-C ) :   1.0587 B(  9-C , 10-H ) :   0.9566 B(  9-C , 11-H ) :   0.9540
B(  9-C , 12-C ) :   1.0801 B( 12-C , 13-H ) :   0.9758 B( 12-C , 14-H ) :   0.9748
B( 12-C , 15-H ) :   0.9782 B( 16-S , 17-C ) :   1.1441 B( 16-S , 20-C ) :   1.1249
B( 17-C , 18-C ) :   1.6528 B( 17-C , 33-H ) :   0.9669 B( 18-C , 19-C ) :   1.2105
B( 18-C , 21-H ) :   0.9729 B( 19-C , 20-C ) :   1.6276 B( 19-C , 22-C ) :   1.0466
B( 22-C , 23-H ) :   0.9248 B( 22-C , 24-H ) :   0.9323 B( 22-C , 25-C ) :   1.0557
B( 25-C , 26-H ) :   0.9536 B( 25-C , 27-H ) :   0.9506 B( 25-C , 28-C ) :   1.0885
B( 28-C , 29-H ) :   0.9716 B( 28-C , 30-H ) :   0.9714 B( 28-C , 31-H ) :   0.9719

Dispersion correction           -0.013984842
FINAL SINGLE POINT ENERGY     -1339.858887514591

DIPOLE MOMENT
-------------
                                X             Y             Z
Electronic contribution:      3.27302     -11.67251      28.80194
Nuclear contribution   :     -3.36172      12.18024     -29.37133
                        -----------------------------------------
Total Dipole Moment    :     -0.08870       0.50773      -0.56939
                        -----------------------------------------
Magnitude (a.u.)       :      0.76802
Magnitude (Debye)      :      1.95216

Rotational constants in cm-1:     0.017375     0.009216     0.006528
Rotational constants in MHz :   520.896130   276.290582   195.718291

                             ****ORCA TERMINATED NORMALLY****
TOTAL RUN TIME: 0 days 0 hours 0 minutes 35 seconds 46 msec
