                         Program Version 4.2.1 -  RELEASE  -
|  1> ! wB97X-D3 SP def2-SVP
|  2> %pal
|  3> nprocs 16
|  4> end
|  5>
|  6> * xyz 0 1
|  7> S 	 68.2725 	 21.5803 	 76.4974
|  8> C 	 69.7239 	 20.5885 	 76.8733
|  9> C 	 70.832 	 21.3458 	 76.6802
| 10> C 	 70.5524 	 22.5453 	 75.9499
| 11> C 	 69.2235 	 22.7585 	 75.6547
| 12> H 	 71.3156 	 23.3471 	 75.7207
| 13> C 	 72.1737 	 20.9795 	 77.2427
| 14> H 	 72.1166 	 20.8308 	 78.3103
| 15> H 	 72.834 	 21.8573 	 77.0968
| 16> C 	 72.8976 	 19.758 	 76.4989
| 17> H 	 72.2363 	 18.8505 	 76.6107
| 18> H 	 73.1099 	 20.0146 	 75.4289
| 19> C 	 74.2598 	 19.3439 	 77.0649
| 20> H 	 75.0318 	 20.1214 	 77.1264
| 21> H 	 74.185 	 19.1462 	 78.1042
| 22> H 	 74.7268 	 18.5491 	 76.5838
| 23> S 	 68.2928 	 23.8029 	 73.2699
| 24> C 	 67.9639 	 25.4877 	 73.1032
| 25> C 	 67.9614 	 26.0828 	 74.344
| 26> C 	 68.2668 	 25.1793 	 75.4005
| 27> C 	 68.6175 	 23.9268 	 74.9794
| 28> H 	 67.8166 	 27.1728 	 74.2663
| 29> C 	 68.3362 	 25.6786 	 76.854
| 30> H 	 69.2458 	 26.3611 	 76.8161
| 31> H 	 68.5119 	 24.8598 	 77.5797
| 32> C 	 67.0962 	 26.5245 	 77.3334
| 33> H 	 66.239 	 25.8528 	 77.245
| 34> H 	 66.8145 	 27.3246 	 76.5979
| 35> C 	 67.4307 	 27.1486 	 78.7059
| 36> H 	 66.6623 	 27.8491 	 79.0236
| 37> H 	 68.3624 	 27.6686 	 78.6516
| 38> H 	 67.7051 	 26.523 	 79.492
| 39> H 	 69.7159 	 19.5881 	 77.3608
| 40> H 	 67.8766 	 25.9925 	 72.1527
| 41> *
| 42>
| 43>                          ****END OF INPUT****

CARTESIAN COORDINATES (ANGSTROEM)
---------------------------------
  S     68.272500   21.580300   76.497400
  C     69.723900   20.588500   76.873300
  C     70.832000   21.345800   76.680200
  C     70.552400   22.545300   75.949900
  C     69.223500   22.758500   75.654700
  H     71.315600   23.347100   75.720700
  C     72.173700   20.979500   77.242700
  H     72.116600   20.830800   78.310300
  H     72.834000   21.857300   77.096800
  C     72.897600   19.758000   76.498900
  H     72.236300   18.850500   76.610700
  H     73.109900   20.014600   75.428900
  C     74.259800   19.343900   77.064900
  H     75.031800   20.121400   77.126400
  H     74.185000   19.146200   78.104200
  H     74.726800   18.549100   76.583800
  S     68.292800   23.802900   73.269900
  C     67.963900   25.487700   73.103200
  C     67.961400   26.082800   74.344000
  C     68.266800   25.179300   75.400500
  C     68.617500   23.926800   74.979400
  H     67.816600   27.172800   74.266300
  C     68.336200   25.678600   76.854000
  H     69.245800   26.361100   76.816100
  H     68.511900   24.859800   77.579700
  C     67.096200   26.524500   77.333400
  H     66.239000   25.852800   77.245000
  H     66.814500   27.324600   76.597900
  C     67.430700   27.148600   78.705900
  H     66.662300   27.849100   79.023600
  H     68.362400   27.668600   78.651600
  H     67.705100   26.523000   79.492000
  H     69.715900   19.588100   77.360800
  H     67.876600   25.992500   72.152700

 Total Charge           Charge          ....    0
 Multiplicity           Mult            ....    1
 Number of Electrons    NEL             ....  134
 Basis Dimension        Dim             ....  322

ORBITAL ENERGIES
----------------

  NO   OCC          E(Eh)            E(eV)
   0   2.0000     -88.963397     -2420.8171
   1   2.0000     -88.958612     -2420.6869
   2   2.0000     -10.330297      -281.1017
   3   2.0000     -10.324159      -280.9347
   4   2.0000     -10.317275      -280.7473
   5   2.0000     -10.314431      -280.6699
   6   2.0000     -10.304958      -280.4122
   7   2.0000     -10.300151      -280.2813
   8   2.0000     -10.299398      -280.2609
   9   2.0000     -10.299160      -280.2544
  10   2.0000     -10.298531      -280.2373
  11   2.0000     -10.298003      -280.2229
  12   2.0000     -10.293644      -280.1043
  13   2.0000     -10.293557      -280.1019
  14   2.0000     -10.271935      -279.5136
  15   2.0000     -10.270448      -279.4731
  16   2.0000      -8.077796      -219.8080
  17   2.0000      -8.074348      -219.7142
  18   2.0000      -6.036389      -164.2585
  19   2.0000      -6.032758      -164.1597
  20   2.0000      -6.032439      -164.1510
  21   2.0000      -6.028648      -164.0478
  22   2.0000      -6.028381      -164.0406
  23   2.0000      -6.025200      -163.9540
  24   2.0000      -1.008512       -27.4430
  25   2.0000      -0.988193       -26.8901
  26   2.0000      -0.906197       -24.6589
  27   2.0000      -0.900851       -24.5134
  28   2.0000      -0.869128       -23.6502
  29   2.0000      -0.847851       -23.0712
  30   2.0000      -0.844692       -22.9853
  31   2.0000      -0.815834       -22.2000
  32   2.0000      -0.782210       -21.2850
  33   2.0000      -0.772067       -21.0090
  34   2.0000      -0.706909       -19.2360
  35   2.0000      -0.702500       -19.1160
  36   2.0000      -0.698310       -19.0020
  37   2.0000      -0.654571       -17.8118
  38   2.0000      -0.636666       -17.3246
  39   2.0000      -0.616094       -16.7648
  40   2.0000      -0.594069       -16.1654
  41   2.0000      -0.570828       -15.5330
  42   2.0000      -0.558040       -15.1850
  43   2.0000      -0.554186       -15.0802
  44   2.0000      -0.531888       -14.4734
  45   2.0000      -0.526987       -14.3401
  46   2.0000      -0.514144       -13.9906
  47   2.0000      -0.513027       -13.9602
  48   2.0000      -0.510510       -13.8917
  49   2.0000      -0.495507       -13.4834
  50   2.0000      -0.493335       -13.4243
  51   2.0000      -0.480929       -13.0868
  52   2.0000      -0.469932       -12.7875
  53   2.0000      -0.461348       -12.5539
  54   2.0000      -0.459415       -12.5013
  55   2.0000      -0.449767       -12.2388
  56   2.0000      -0.441397       -12.0110
  57   2.0000      -0.435869       -11.8606
  58   2.0000      -0.432840       -11.7782
  59   2.0000      -0.422458       -11.4957
  60   2.0000      -0.417991       -11.3741
  61   2.0000      -0.415181       -11.2977
  62   2.0000      -0.410123       -11.1600
  63   2.0000      -0.330773        -9.0008
  64   2.0000      -0.325248        -8.8505
  65   2.0000      -0.320766        -8.7285
  66   2.0000      -0.316950        -8.6246
  67   0.0000       0.043622         1.1870
  68   0.0000       0.054125         1.4728
  69   0.0000       0.102095         2.7781
  70   0.0000       0.123841         3.3699
  71   0.0000       0.136585         3.7167

MULLIKEN ATOMIC CHARGES
-----------------------
   0 S :    0.104972
   1 C :   -0.142708
   2 C :   -0.073392
   3 C :    0.033694
   4 C :   -0.167351
   5 H :    0.034693
   6 C :    0.057782
   7 H :    0.037210
   8 H :    0.020229
   9 C :   -0.107818
  10 H :    0.041836
  11 H :    0.048656
  12 C :   -0.011594
  13 H :    0.014445
  14 H :    0.007815
  15 H :    0.027571
  16 S :    0.106267
  17 C :   -0.104569
  18 C :   -0.061763
  19 C :    0.019908
  20 C :   -0.186671
  21 H :    0.034249
  22 C :    0.017473
  23 H :    0.043388
  24 H :    0.040826
  25 C :   -0.094332
  26 H :    0.036200
  27 H :    0.034876
  28 C :    0.004681
  29 H :    0.038937
  30 H :    0.007678
  31 H :    0.012685
  32 H :    0.064544
  33 H :    0.059585
Sum of atomic charges:   -0.0000000

LOEWDIN ATOMIC CHARGES
----------------------
   0 S :    0.393029
   1 C :   -0.181280
   2 C :   -0.072907
   3 C :   -0.064129
   4 C :   -0.203946
   5 H :    0.042302
   6 C :   -0.030936
   7 H :    0.029915
   8 H :    0.031780
   9 C :   -0.037507
  10 H :    0.028079
  11 H :    0.032617
  12 C :   -0.069641
  13 H :    0.024913
  14 H :    0.018983
  15 H :    0.019903
  16 S :    0.416277
  17 C :   -0.186324
  18 C :   -0.085400
  19 C :   -0.057508
  20 C :   -0.211362
  21 H :    0.039325
  22 C :   -0.033480
  23 H :    0.037326
  24 H :    0.031085
  25 C :   -0.040755
  26 H :    0.024952
  27 H :    0.027340
  28 C :   -0.064798
  29 H :    0.028917
  30 H :    0.025547
  31 H :    0.019394
  32 H :    0.037676
  33 H :    0.030616

  Mayer bond orders larger than 0.100000
B(  0-S ,  1-C ) :   1.1288 B(  0-S ,  4-C ) :   1.1553 B(  1-C ,  2-C ) :   1.6134
B(  1-C , 32-H ) :   0.9673 B(  2-C ,  3-C ) :   1.2438 B(  2-C ,  6-C ) :   1.0230
B(  3-C ,  4-C ) :   1.5951 B(  3-C ,  5-H ) :   0.9842 B(  4-C , 20-C ) :   0.9947
B(  6-C ,  7-H ) :   0.9430 B(  6-C ,  8-H ) :   0.9411 B(  6-C ,  9-C ) :   1.0523
B(  9-C , 10-H ) :   0.9594 B(  9-C , 11-H ) :   0.9597 B(  9-C , 12-C ) :   1.0814
B( 12-C , 13-H ) :   0.9709 B( 12-C , 14-H ) :   0.9696 B( 12-C , 15-H ) :   0.9748
B( 16-S , 17-C ) :   1.1745 B( 16-S , 20-C ) :   1.1453 B( 17-C , 18-C ) :   1.6145
B( 17-C , 33-H ) :   0.9679 B( 18-C , 19-C ) :   1.2083 B( 18-C , 21-H ) :   0.9907
B( 19-C , 20-C ) :   1.6190 B( 19-C , 22-C ) :   1.0325 B( 22-C , 23-H ) :   0.9401
B( 22-C , 24-H ) :   0.9429 B( 22-C , 25-C ) :   1.0470 B( 25-C , 26-H ) :   0.9597
B( 25-C , 27-H ) :   0.9561 B( 25-C , 28-C ) :   1.0687 B( 28-C , 29-H ) :   0.9748
B( 28-C , 30-H ) :   0.9675 B( 28-C , 31-H ) :   0.9722

Dispersion correction           -0.013498737
FINAL SINGLE POINT ENERGY     -1339.865795448701

DIPOLE MOMENT
-------------
                                X             Y             Z
Electronic contribution:    -14.66197      -3.55892     -16.38762
Nuclear contribution   :     15.18713       3.91469      16.78060
                        -----------------------------------------
Total Dipole Moment    :      0.52516       0.35577       0.39297
                        -----------------------------------------
Magnitude (a.u.)       :      0.74618
Magnitude (Debye)      :      1.89665

Rotational constants in cm-1:     0.020330     0.006834     0.005954
Rotational constants in MHz :   609.479540   204.865519   178.482657

                             ****ORCA TERMINATED NORMALLY****
TOTAL RUN TIME: 0 days 0 hours 0 minutes 28 seconds 298 msec
