                         Program Version 4.2.1 -  RELEASE  -
|  1> ! wB97X-D3 SP def2-SVP
|  2> %pal
|  3> nprocs 16
|  4> end
|  5>
|  6> * xyz 0 1
|  7> S 	 -5.5653 	 54.3226 	 48.8349
|  8> C 	 -6.66646 	 55.5706 	 49.3665
|  9> C 	 -6.14291 	 56.8371 	 49.2579
| 10> C 	 -4.89368 	 56.8682 	 48.5008
| 11> C 	 -4.49322 	 55.5457 	 48.2476
| 12> H 	 -4.33424 	 57.8102 	 48.2335
| 13> C 	 -6.86778 	 58.0819 	 49.8046
| 14> H 	 -7.57714 	 57.8851 	 50.5554
| 15> H 	 -7.34024 	 58.6019 	 49.0361
| 16> C 	 -5.9957 	 58.9631 	 50.7421
| 17> H 	 -5.78513 	 58.4498 	 51.6895
| 18> H 	 -4.98599 	 59.0209 	 50.4485
| 19> C 	 -6.58358 	 60.394 	 50.9502
| 20> H 	 -7.57266 	 60.2597 	 51.4553
| 21> H 	 -5.87486 	 60.8945 	 51.6972
| 22> H 	 -6.72198 	 61.0103 	 50.0406
| 23> S 	 -3.26681 	 53.3647 	 47.1701
| 24> C 	 -1.62549 	 53.6056 	 46.5751
| 25> C 	 -1.10122 	 54.8041 	 46.9184
| 26> C 	 -2.05249 	 55.6825 	 47.389
| 27> C 	 -3.28955 	 55.0596 	 47.6474
| 28> H 	 -0.0939893 	 55.0047 	 46.7142
| 29> C 	 -1.65078 	 57.1322 	 47.5927
| 30> H 	 -1.68826 	 57.3702 	 48.6529
| 31> H 	 -2.48412 	 57.6207 	 47.0637
| 32> C 	 -0.287577 	 57.6687 	 47.08
| 33> H 	 -0.0893548 	 57.5184 	 45.9869
| 34> H 	 0.540941 	 57.3093 	 47.6454
| 35> C 	 -0.363179 	 59.18 	 47.3025
| 36> H 	 -1.14562 	 59.4229 	 46.5503
| 37> H 	 0.516633 	 59.7214 	 46.8262
| 38> H 	 -0.634279 	 59.5658 	 48.2947
| 39> H 	 -7.59363 	 55.3235 	 49.912
| 40> H 	 -1.03051 	 52.823 	 46.2595
| 41> *
| 42>
| 43>                          ****END OF INPUT****

CARTESIAN COORDINATES (ANGSTROEM)
---------------------------------
  S     -5.565300   54.322600   48.834900
  C     -6.666460   55.570600   49.366500
  C     -6.142910   56.837100   49.257900
  C     -4.893680   56.868200   48.500800
  C     -4.493220   55.545700   48.247600
  H     -4.334240   57.810200   48.233500
  C     -6.867780   58.081900   49.804600
  H     -7.577140   57.885100   50.555400
  H     -7.340240   58.601900   49.036100
  C     -5.995700   58.963100   50.742100
  H     -5.785130   58.449800   51.689500
  H     -4.985990   59.020900   50.448500
  C     -6.583580   60.394000   50.950200
  H     -7.572660   60.259700   51.455300
  H     -5.874860   60.894500   51.697200
  H     -6.721980   61.010300   50.040600
  S     -3.266810   53.364700   47.170100
  C     -1.625490   53.605600   46.575100
  C     -1.101220   54.804100   46.918400
  C     -2.052490   55.682500   47.389000
  C     -3.289550   55.059600   47.647400
  H     -0.093989   55.004700   46.714200
  C     -1.650780   57.132200   47.592700
  H     -1.688260   57.370200   48.652900
  H     -2.484120   57.620700   47.063700
  C     -0.287577   57.668700   47.080000
  H     -0.089355   57.518400   45.986900
  H      0.540941   57.309300   47.645400
  C     -0.363179   59.180000   47.302500
  H     -1.145620   59.422900   46.550300
  H      0.516633   59.721400   46.826200
  H     -0.634279   59.565800   48.294700
  H     -7.593630   55.323500   49.912000
  H     -1.030510   52.823000   46.259500

 Total Charge           Charge          ....    0
 Multiplicity           Mult            ....    1
 Number of Electrons    NEL             ....  134
 Basis Dimension        Dim             ....  322

ORBITAL ENERGIES
----------------

  NO   OCC          E(Eh)            E(eV)
   0   2.0000     -88.965605     -2420.8772
   1   2.0000     -88.964921     -2420.8586
   2   2.0000     -10.329203      -281.0719
   3   2.0000     -10.323571      -280.9186
   4   2.0000     -10.309991      -280.5491
   5   2.0000     -10.306283      -280.4482
   6   2.0000     -10.303933      -280.3843
   7   2.0000     -10.302574      -280.3473
   8   2.0000     -10.298982      -280.2495
   9   2.0000     -10.296943      -280.1941
  10   2.0000     -10.295562      -280.1565
  11   2.0000     -10.292120      -280.0628
  12   2.0000     -10.287793      -279.9451
  13   2.0000     -10.284352      -279.8514
  14   2.0000     -10.284171      -279.8465
  15   2.0000     -10.280651      -279.7507
  16   2.0000      -8.080534      -219.8825
  17   2.0000      -8.080171      -219.8726
  18   2.0000      -6.039008      -164.3298
  19   2.0000      -6.038653      -164.3201
  20   2.0000      -6.035164      -164.2252
  21   2.0000      -6.034903      -164.2181
  22   2.0000      -6.031031      -164.1127
  23   2.0000      -6.030790      -164.1061
  24   2.0000      -1.010575       -27.4992
  25   2.0000      -0.983463       -26.7614
  26   2.0000      -0.916265       -24.9328
  27   2.0000      -0.908936       -24.7334
  28   2.0000      -0.872184       -23.7333
  29   2.0000      -0.857964       -23.3464
  30   2.0000      -0.841586       -22.9007
  31   2.0000      -0.812435       -22.1075
  32   2.0000      -0.780841       -21.2478
  33   2.0000      -0.766769       -20.8648
  34   2.0000      -0.710569       -19.3356
  35   2.0000      -0.704714       -19.1762
  36   2.0000      -0.695650       -18.9296
  37   2.0000      -0.661178       -17.9916
  38   2.0000      -0.634863       -17.2755
  39   2.0000      -0.622028       -16.9262
  40   2.0000      -0.601568       -16.3695
  41   2.0000      -0.583062       -15.8659
  42   2.0000      -0.562199       -15.2982
  43   2.0000      -0.559129       -15.2147
  44   2.0000      -0.526865       -14.3367
  45   2.0000      -0.523138       -14.2353
  46   2.0000      -0.518712       -14.1149
  47   2.0000      -0.515135       -14.0175
  48   2.0000      -0.499412       -13.5897
  49   2.0000      -0.493129       -13.4187
  50   2.0000      -0.489128       -13.3098
  51   2.0000      -0.485242       -13.2041
  52   2.0000      -0.467284       -12.7155
  53   2.0000      -0.466223       -12.6866
  54   2.0000      -0.459460       -12.5026
  55   2.0000      -0.457864       -12.4591
  56   2.0000      -0.446878       -12.1602
  57   2.0000      -0.443688       -12.0734
  58   2.0000      -0.436594       -11.8803
  59   2.0000      -0.423186       -11.5155
  60   2.0000      -0.419474       -11.4145
  61   2.0000      -0.413669       -11.2565
  62   2.0000      -0.403183       -10.9712
  63   2.0000      -0.361067        -9.8251
  64   2.0000      -0.338764        -9.2182
  65   2.0000      -0.328011        -8.9256
  66   2.0000      -0.273788        -7.4501
  67   0.0000       0.017669         0.4808
  68   0.0000       0.077623         2.1122
  69   0.0000       0.099238         2.7004
  70   0.0000       0.126872         3.4524
  71   0.0000       0.132769         3.6128

MULLIKEN ATOMIC CHARGES
-----------------------
   0 S :    0.090931
   1 C :   -0.121036
   2 C :   -0.091702
   3 C :   -0.035091
   4 C :   -0.105932
   5 H :    0.040769
   6 C :    0.114813
   7 H :    0.009240
   8 H :    0.027732
   9 C :   -0.098197
  10 H :    0.024948
  11 H :    0.002842
  12 C :   -0.084014
  13 H :    0.037016
  14 H :    0.047958
  15 H :    0.051402
  16 S :    0.090259
  17 C :   -0.035531
  18 C :   -0.031642
  19 C :   -0.029560
  20 C :   -0.128424
  21 H :    0.000561
  22 C :   -0.013366
  23 H :    0.045230
  24 H :    0.051519
  25 C :   -0.053284
  26 H :    0.043435
  27 H :    0.032783
  28 C :   -0.071178
  29 H :    0.022378
  30 H :    0.040191
  31 H :    0.047425
  32 H :    0.054533
  33 H :    0.022993
Sum of atomic charges:   -0.0000000

LOEWDIN ATOMIC CHARGES
----------------------
   0 S :    0.404382
   1 C :   -0.206081
   2 C :   -0.055068
   3 C :   -0.080847
   4 C :   -0.182573
   5 H :    0.041803
   6 C :   -0.023639
   7 H :    0.027941
   8 H :    0.022627
   9 C :   -0.044062
  10 H :    0.028247
  11 H :    0.007660
  12 C :   -0.071715
  13 H :    0.026801
  14 H :    0.036413
  15 H :    0.028313
  16 S :    0.389583
  17 C :   -0.163010
  18 C :   -0.064023
  19 C :   -0.053945
  20 C :   -0.198518
  21 H :    0.026313
  22 C :   -0.034432
  23 H :    0.036372
  24 H :    0.036361
  25 C :   -0.041342
  26 H :    0.033004
  27 H :    0.017916
  28 C :   -0.072889
  29 H :    0.028231
  30 H :    0.032008
  31 H :    0.026048
  32 H :    0.030999
  33 H :    0.011124

  Mayer bond orders larger than 0.100000
B(  0-S ,  1-C ) :   1.1138 B(  0-S ,  4-C ) :   1.1532 B(  1-C ,  2-C ) :   1.6500
B(  1-C , 32-H ) :   0.9641 B(  2-C ,  3-C ) :   1.2121 B(  2-C ,  6-C ) :   1.0235
B(  3-C ,  4-C ) :   1.5536 B(  3-C ,  5-H ) :   0.9786 B(  4-C , 20-C ) :   1.1187
B(  6-C ,  7-H ) :   0.9475 B(  6-C ,  8-H ) :   0.9497 B(  6-C ,  9-C ) :   1.0261
B(  9-C , 10-H ) :   0.9564 B(  9-C , 11-H ) :   0.9619 B(  9-C , 12-C ) :   1.0715
B( 12-C , 13-H ) :   0.9751 B( 12-C , 14-H ) :   0.9736 B( 12-C , 15-H ) :   0.9776
B( 16-S , 17-C ) :   1.1455 B( 16-S , 20-C ) :   1.1324 B( 17-C , 18-C ) :   1.6051
B( 17-C , 20-C ) :   0.1036 B( 17-C , 33-H ) :   0.9653 B( 18-C , 19-C ) :   1.2845
B( 18-C , 21-H ) :   0.9892 B( 19-C , 20-C ) :   1.5622 B( 19-C , 22-C ) :   1.0075
B( 22-C , 23-H ) :   0.9296 B( 22-C , 24-H ) :   0.9338 B( 22-C , 25-C ) :   1.0851
B( 25-C , 26-H ) :   0.9521 B( 25-C , 27-H ) :   0.9439 B( 25-C , 28-C ) :   1.0709
B( 28-C , 29-H ) :   0.9768 B( 28-C , 30-H ) :   0.9706 B( 28-C , 31-H ) :   0.9742

Dispersion correction           -0.013297794
FINAL SINGLE POINT ENERGY     -1339.851308519498

DIPOLE MOMENT
-------------
                                X             Y             Z
Electronic contribution:     -5.28551     -32.32812      -6.86780
Nuclear contribution   :      5.65451      32.95932       7.02009
                        -----------------------------------------
Total Dipole Moment    :      0.36900       0.63121       0.15228
                        -----------------------------------------
Magnitude (a.u.)       :      0.74684
Magnitude (Debye)      :      1.89833

Rotational constants in cm-1:     0.016134     0.009280     0.005996
Rotational constants in MHz :   483.696741   278.193150   179.758480

                             ****ORCA TERMINATED NORMALLY****
TOTAL RUN TIME: 0 days 0 hours 0 minutes 34 seconds 637 msec
