                         Program Version 4.2.1 -  RELEASE  -
|  1> ! wB97X-D3 SP def2-SVP
|  2> %pal
|  3> nprocs 16
|  4> end
|  5>
|  6> * xyz 0 1
|  7> S 	 53.242 	 -0.936417 	 88.7308
|  8> C 	 53.582 	 -1.99247 	 90.1188
|  9> C 	 53.8515 	 -1.29313 	 91.2964
| 10> C 	 53.7431 	 0.125474 	 91.0529
| 11> C 	 53.4784 	 0.52667 	 89.7485
| 12> H 	 53.9462 	 0.932714 	 91.7442
| 13> C 	 54.373 	 -1.87156 	 92.6399
| 14> H 	 55.247 	 -2.47154 	 92.4274
| 15> H 	 53.6668 	 -2.45942 	 93.1457
| 16> C 	 54.735 	 -0.881983 	 93.6827
| 17> H 	 55.6179 	 -0.316382 	 93.2435
| 18> H 	 53.9838 	 -0.222629 	 93.9122
| 19> C 	 55.0577 	 -1.59278 	 95.0295
| 20> H 	 54.1908 	 -1.92554 	 95.6307
| 21> H 	 55.5057 	 -2.53413 	 94.8606
| 22> H 	 55.5972 	 -0.903522 	 95.7018
| 23> S 	 52.0752 	 2.35293 	 88.1725
| 24> C 	 52.6831 	 3.94156 	 87.9455
| 25> C 	 53.7512 	 4.13129 	 88.7101
| 26> C 	 54.192 	 3.03963 	 89.4917
| 27> C 	 53.3349 	 1.93976 	 89.2549
| 28> H 	 54.2244 	 5.1197 	 88.79
| 29> C 	 55.3878 	 3.15305 	 90.388
| 30> H 	 56.2578 	 3.57181 	 89.8862
| 31> H 	 55.6787 	 2.15653 	 90.5975
| 32> C 	 55.0889 	 3.75575 	 91.823
| 33> H 	 54.4317 	 3.11601 	 92.3667
| 34> H 	 54.5366 	 4.70535 	 91.8157
| 35> C 	 56.2646 	 4.0493 	 92.7924
| 36> H 	 55.9116 	 4.26317 	 93.7641
| 37> H 	 56.9142 	 4.77161 	 92.3424
| 38> H 	 56.9659 	 3.21646 	 92.8597
| 39> H 	 53.5847 	 -3.0724 	 90.008
| 40> H 	 52.2521 	 4.75438 	 87.5108
| 41> *
| 42>
| 43>                          ****END OF INPUT****

CARTESIAN COORDINATES (ANGSTROEM)
---------------------------------
  S     53.242000   -0.936417   88.730800
  C     53.582000   -1.992470   90.118800
  C     53.851500   -1.293130   91.296400
  C     53.743100    0.125474   91.052900
  C     53.478400    0.526670   89.748500
  H     53.946200    0.932714   91.744200
  C     54.373000   -1.871560   92.639900
  H     55.247000   -2.471540   92.427400
  H     53.666800   -2.459420   93.145700
  C     54.735000   -0.881983   93.682700
  H     55.617900   -0.316382   93.243500
  H     53.983800   -0.222629   93.912200
  C     55.057700   -1.592780   95.029500
  H     54.190800   -1.925540   95.630700
  H     55.505700   -2.534130   94.860600
  H     55.597200   -0.903522   95.701800
  S     52.075200    2.352930   88.172500
  C     52.683100    3.941560   87.945500
  C     53.751200    4.131290   88.710100
  C     54.192000    3.039630   89.491700
  C     53.334900    1.939760   89.254900
  H     54.224400    5.119700   88.790000
  C     55.387800    3.153050   90.388000
  H     56.257800    3.571810   89.886200
  H     55.678700    2.156530   90.597500
  C     55.088900    3.755750   91.823000
  H     54.431700    3.116010   92.366700
  H     54.536600    4.705350   91.815700
  C     56.264600    4.049300   92.792400
  H     55.911600    4.263170   93.764100
  H     56.914200    4.771610   92.342400
  H     56.965900    3.216460   92.859700
  H     53.584700   -3.072400   90.008000
  H     52.252100    4.754380   87.510800

 Total Charge           Charge          ....    0
 Multiplicity           Mult            ....    1
 Number of Electrons    NEL             ....  134
 Basis Dimension        Dim             ....  322

ORBITAL ENERGIES
----------------

  NO   OCC          E(Eh)            E(eV)
   0   2.0000     -88.967802     -2420.9370
   1   2.0000     -88.967253     -2420.9220
   2   2.0000     -10.336441      -281.2688
   3   2.0000     -10.332192      -281.1532
   4   2.0000     -10.320030      -280.8223
   5   2.0000     -10.309493      -280.5356
   6   2.0000     -10.301953      -280.3304
   7   2.0000     -10.301191      -280.3097
   8   2.0000     -10.295833      -280.1639
   9   2.0000     -10.293389      -280.0973
  10   2.0000     -10.290311      -280.0136
  11   2.0000     -10.289262      -279.9851
  12   2.0000     -10.284530      -279.8563
  13   2.0000     -10.283885      -279.8387
  14   2.0000     -10.281928      -279.7855
  15   2.0000     -10.275498      -279.6105
  16   2.0000      -8.083109      -219.9526
  17   2.0000      -8.081191      -219.9004
  18   2.0000      -6.041550      -164.3989
  19   2.0000      -6.039851      -164.3527
  20   2.0000      -6.037398      -164.2860
  21   2.0000      -6.035911      -164.2455
  22   2.0000      -6.033926      -164.1915
  23   2.0000      -6.031853      -164.1351
  24   2.0000      -1.010668       -27.5017
  25   2.0000      -0.980580       -26.6829
  26   2.0000      -0.919757       -25.0278
  27   2.0000      -0.906597       -24.6698
  28   2.0000      -0.869523       -23.6609
  29   2.0000      -0.855503       -23.2794
  30   2.0000      -0.842077       -22.9141
  31   2.0000      -0.818607       -22.2754
  32   2.0000      -0.785880       -21.3849
  33   2.0000      -0.776723       -21.1357
  34   2.0000      -0.712924       -19.3997
  35   2.0000      -0.705171       -19.1887
  36   2.0000      -0.693319       -18.8662
  37   2.0000      -0.657434       -17.8897
  38   2.0000      -0.644194       -17.5294
  39   2.0000      -0.619282       -16.8515
  40   2.0000      -0.603074       -16.4105
  41   2.0000      -0.581886       -15.8339
  42   2.0000      -0.571361       -15.5475
  43   2.0000      -0.559165       -15.2156
  44   2.0000      -0.537377       -14.6228
  45   2.0000      -0.526024       -14.3138
  46   2.0000      -0.512526       -13.9465
  47   2.0000      -0.512009       -13.9325
  48   2.0000      -0.505062       -13.7434
  49   2.0000      -0.494692       -13.4613
  50   2.0000      -0.492623       -13.4049
  51   2.0000      -0.487767       -13.2728
  52   2.0000      -0.473580       -12.8868
  53   2.0000      -0.462586       -12.5876
  54   2.0000      -0.458357       -12.4725
  55   2.0000      -0.451708       -12.2916
  56   2.0000      -0.446187       -12.1414
  57   2.0000      -0.442863       -12.0509
  58   2.0000      -0.438758       -11.9392
  59   2.0000      -0.427611       -11.6359
  60   2.0000      -0.422098       -11.4859
  61   2.0000      -0.414491       -11.2789
  62   2.0000      -0.412697       -11.2301
  63   2.0000      -0.352220        -9.5844
  64   2.0000      -0.332652        -9.0519
  65   2.0000      -0.332017        -9.0346
  66   2.0000      -0.291404        -7.9295
  67   0.0000       0.029046         0.7904
  68   0.0000       0.074441         2.0257
  69   0.0000       0.113148         3.0789
  70   0.0000       0.123954         3.3730
  71   0.0000       0.128818         3.5053

MULLIKEN ATOMIC CHARGES
-----------------------
   0 S :    0.102228
   1 C :   -0.142722
   2 C :   -0.060382
   3 C :    0.009768
   4 C :   -0.130973
   5 H :   -0.005306
   6 C :    0.095001
   7 H :    0.038581
   8 H :    0.016723
   9 C :   -0.100688
  10 H :    0.039327
  11 H :    0.025209
  12 C :   -0.041566
  13 H :    0.030775
  14 H :    0.016948
  15 H :    0.043446
  16 S :    0.120841
  17 C :   -0.028403
  18 C :   -0.050042
  19 C :   -0.050142
  20 C :   -0.168556
  21 H :    0.017840
  22 C :    0.111321
  23 H :    0.030669
  24 H :    0.004392
  25 C :   -0.088459
  26 H :    0.017948
  27 H :    0.025461
  28 C :   -0.018337
  29 H :    0.036430
  30 H :    0.022657
  31 H :    0.012958
  32 H :    0.051731
  33 H :    0.015322
Sum of atomic charges:   -0.0000000

LOEWDIN ATOMIC CHARGES
----------------------
   0 S :    0.375398
   1 C :   -0.183496
   2 C :   -0.059903
   3 C :   -0.067992
   4 C :   -0.178348
   5 H :    0.027172
   6 C :   -0.027303
   7 H :    0.035018
   8 H :    0.024450
   9 C :   -0.039214
  10 H :    0.030210
  11 H :    0.012522
  12 C :   -0.064255
  13 H :    0.029908
  14 H :    0.017482
  15 H :    0.032202
  16 S :    0.439503
  17 C :   -0.188134
  18 C :   -0.069626
  19 C :   -0.057517
  20 C :   -0.207051
  21 H :    0.033332
  22 C :   -0.029004
  23 H :    0.033563
  24 H :    0.025925
  25 C :   -0.036148
  26 H :    0.015594
  27 H :    0.023770
  28 C :   -0.059902
  29 H :    0.024161
  30 H :    0.022053
  31 H :    0.021759
  32 H :    0.027606
  33 H :    0.016268

  Mayer bond orders larger than 0.100000
B(  0-S ,  1-C ) :   1.1425 B(  0-S ,  4-C ) :   1.1311 B(  1-C ,  2-C ) :   1.6178
B(  1-C , 32-H ) :   0.9719 B(  2-C ,  3-C ) :   1.2435 B(  2-C ,  6-C ) :   0.9946
B(  3-C ,  4-C ) :   1.5832 B(  3-C ,  5-H ) :   0.9853 B(  4-C , 20-C ) :   1.0271
B(  6-C ,  7-H ) :   0.9364 B(  6-C ,  8-H ) :   0.9356 B(  6-C ,  9-C ) :   1.1079
B(  9-C , 10-H ) :   0.9500 B(  9-C , 11-H ) :   0.9458 B(  9-C , 12-C ) :   1.0772
B( 12-C , 13-H ) :   0.9710 B( 12-C , 14-H ) :   0.9742 B( 12-C , 15-H ) :   0.9727
B( 16-S , 17-C ) :   1.1407 B( 16-S , 20-C ) :   1.1735 B( 17-C , 18-C ) :   1.6163
B( 17-C , 33-H ) :   0.9720 B( 18-C , 19-C ) :   1.2782 B( 18-C , 21-H ) :   0.9826
B( 19-C , 20-C ) :   1.5463 B( 19-C , 22-C ) :   1.0590 B( 22-C , 23-H ) :   0.9385
B( 22-C , 24-H ) :   0.9136 B( 22-C , 25-C ) :   1.0444 B( 25-C , 26-H ) :   0.9548
B( 25-C , 27-H ) :   0.9585 B( 25-C , 28-C ) :   1.0828 B( 28-C , 29-H ) :   0.9746
B( 28-C , 30-H ) :   0.9748 B( 28-C , 31-H ) :   0.9729

Dispersion correction           -0.014046776
FINAL SINGLE POINT ENERGY     -1339.863191381699

DIPOLE MOMENT
-------------
                                X             Y             Z
Electronic contribution:    -17.00078      -2.75743     -30.15068
Nuclear contribution   :     17.38763       2.92074      30.82764
                        -----------------------------------------
Total Dipole Moment    :      0.38685       0.16331       0.67696
                        -----------------------------------------
Magnitude (a.u.)       :      0.79662
Magnitude (Debye)      :      2.02484

Rotational constants in cm-1:     0.016200     0.009729     0.006416
Rotational constants in MHz :   485.654443   291.675612   192.354589

                             ****ORCA TERMINATED NORMALLY****
TOTAL RUN TIME: 0 days 0 hours 0 minutes 30 seconds 549 msec
