                         Program Version 4.2.1 -  RELEASE  -
|  1> ! wB97X-D3 SP def2-SVP
|  2> %pal
|  3> nprocs 16
|  4> end
|  5>
|  6> * xyz 0 1
|  7> S 	 39.1502 	 32.2452 	 53.5485
|  8> C 	 38.4517 	 32.8435 	 52.0521
|  9> C 	 37.4982 	 33.8253 	 52.3015
| 10> C 	 37.3871 	 34.1186 	 53.7525
| 11> C 	 38.1803 	 33.255 	 54.5552
| 12> H 	 36.7332 	 34.9437 	 54.158
| 13> C 	 36.5412 	 34.5177 	 51.2461
| 14> H 	 36.9753 	 34.2624 	 50.2858
| 15> H 	 36.6521 	 35.5962 	 51.3702
| 16> C 	 35.0343 	 34.1166 	 51.2717
| 17> H 	 34.5853 	 34.5496 	 52.227
| 18> H 	 34.5817 	 34.4883 	 50.3375
| 19> C 	 34.9238 	 32.6027 	 51.3807
| 20> H 	 35.6778 	 32.1744 	 50.7255
| 21> H 	 35.1036 	 32.3842 	 52.3703
| 22> H 	 33.8884 	 32.2204 	 51.035
| 23> S 	 39.714 	 33.5978 	 56.8676
| 24> C 	 39.044 	 33.1642 	 58.4208
| 25> C 	 37.6707 	 32.9644 	 58.3447
| 26> C 	 37.2037 	 32.9614 	 56.9491
| 27> C 	 38.2141 	 33.1633 	 55.9983
| 28> H 	 37.1078 	 32.8762 	 59.255
| 29> C 	 35.6147 	 32.8191 	 56.7082
| 30> H 	 35.5399 	 31.8054 	 56.8123
| 31> H 	 35.168 	 32.9425 	 55.735
| 32> C 	 34.6864 	 33.5745 	 57.6978
| 33> H 	 34.7787 	 34.6156 	 57.5475
| 34> H 	 34.8816 	 33.3885 	 58.7368
| 35> C 	 33.1784 	 33.2626 	 57.4108
| 36> H 	 32.5533 	 33.684 	 58.171
| 37> H 	 32.9128 	 32.2007 	 57.4307
| 38> H 	 32.9168 	 33.6635 	 56.3684
| 39> H 	 38.5959 	 32.4228 	 51.0684
| 40> H 	 39.5413 	 33.1857 	 59.3757
| 41> *
| 42>
| 43>                          ****END OF INPUT****

CARTESIAN COORDINATES (ANGSTROEM)
---------------------------------
  S     39.150200   32.245200   53.548500
  C     38.451700   32.843500   52.052100
  C     37.498200   33.825300   52.301500
  C     37.387100   34.118600   53.752500
  C     38.180300   33.255000   54.555200
  H     36.733200   34.943700   54.158000
  C     36.541200   34.517700   51.246100
  H     36.975300   34.262400   50.285800
  H     36.652100   35.596200   51.370200
  C     35.034300   34.116600   51.271700
  H     34.585300   34.549600   52.227000
  H     34.581700   34.488300   50.337500
  C     34.923800   32.602700   51.380700
  H     35.677800   32.174400   50.725500
  H     35.103600   32.384200   52.370300
  H     33.888400   32.220400   51.035000
  S     39.714000   33.597800   56.867600
  C     39.044000   33.164200   58.420800
  C     37.670700   32.964400   58.344700
  C     37.203700   32.961400   56.949100
  C     38.214100   33.163300   55.998300
  H     37.107800   32.876200   59.255000
  C     35.614700   32.819100   56.708200
  H     35.539900   31.805400   56.812300
  H     35.168000   32.942500   55.735000
  C     34.686400   33.574500   57.697800
  H     34.778700   34.615600   57.547500
  H     34.881600   33.388500   58.736800
  C     33.178400   33.262600   57.410800
  H     32.553300   33.684000   58.171000
  H     32.912800   32.200700   57.430700
  H     32.916800   33.663500   56.368400
  H     38.595900   32.422800   51.068400
  H     39.541300   33.185700   59.375700

 Total Charge           Charge          ....    0
 Multiplicity           Mult            ....    1
 Number of Electrons    NEL             ....  134
 Basis Dimension        Dim             ....  322

ORBITAL ENERGIES
----------------

  NO   OCC          E(Eh)            E(eV)
   0   2.0000     -88.967761     -2420.9359
   1   2.0000     -88.964582     -2420.8493
   2   2.0000     -10.334431      -281.2142
   3   2.0000     -10.331746      -281.1411
   4   2.0000     -10.320172      -280.8261
   5   2.0000     -10.319533      -280.8088
   6   2.0000     -10.318217      -280.7730
   7   2.0000     -10.311093      -280.5791
   8   2.0000     -10.307361      -280.4775
   9   2.0000     -10.299076      -280.2521
  10   2.0000     -10.298908      -280.2475
  11   2.0000     -10.295131      -280.1448
  12   2.0000     -10.291143      -280.0362
  13   2.0000     -10.287863      -279.9470
  14   2.0000     -10.286213      -279.9021
  15   2.0000     -10.274161      -279.5741
  16   2.0000      -8.082684      -219.9410
  17   2.0000      -8.078865      -219.8371
  18   2.0000      -6.041272      -164.3914
  19   2.0000      -6.037547      -164.2900
  20   2.0000      -6.036974      -164.2744
  21   2.0000      -6.033514      -164.1803
  22   2.0000      -6.033476      -164.1792
  23   2.0000      -6.029423      -164.0689
  24   2.0000      -0.999797       -27.2059
  25   2.0000      -0.976613       -26.5750
  26   2.0000      -0.908952       -24.7338
  27   2.0000      -0.902369       -24.5547
  28   2.0000      -0.869094       -23.6493
  29   2.0000      -0.842910       -22.9367
  30   2.0000      -0.837455       -22.7883
  31   2.0000      -0.809463       -22.0266
  32   2.0000      -0.782196       -21.2846
  33   2.0000      -0.774231       -21.0679
  34   2.0000      -0.709951       -19.3187
  35   2.0000      -0.701951       -19.1011
  36   2.0000      -0.688882       -18.7454
  37   2.0000      -0.654881       -17.8202
  38   2.0000      -0.634169       -17.2566
  39   2.0000      -0.616093       -16.7648
  40   2.0000      -0.595953       -16.2167
  41   2.0000      -0.570187       -15.5156
  42   2.0000      -0.561768       -15.2865
  43   2.0000      -0.555903       -15.1269
  44   2.0000      -0.543427       -14.7874
  45   2.0000      -0.521557       -14.1923
  46   2.0000      -0.512207       -13.9378
  47   2.0000      -0.511082       -13.9073
  48   2.0000      -0.508641       -13.8408
  49   2.0000      -0.497431       -13.5358
  50   2.0000      -0.484845       -13.1933
  51   2.0000      -0.475316       -12.9340
  52   2.0000      -0.466472       -12.6934
  53   2.0000      -0.461765       -12.5653
  54   2.0000      -0.459184       -12.4950
  55   2.0000      -0.449976       -12.2445
  56   2.0000      -0.443457       -12.0671
  57   2.0000      -0.438216       -11.9245
  58   2.0000      -0.430064       -11.7026
  59   2.0000      -0.429043       -11.6748
  60   2.0000      -0.422536       -11.4978
  61   2.0000      -0.416927       -11.3452
  62   2.0000      -0.411075       -11.1859
  63   2.0000      -0.339137        -9.2284
  64   2.0000      -0.329509        -8.9664
  65   2.0000      -0.324273        -8.8239
  66   2.0000      -0.300631        -8.1806
  67   0.0000       0.030333         0.8254
  68   0.0000       0.063300         1.7225
  69   0.0000       0.106627         2.9015
  70   0.0000       0.119782         3.2594
  71   0.0000       0.120503         3.2791

MULLIKEN ATOMIC CHARGES
-----------------------
   0 S :    0.123602
   1 C :   -0.109589
   2 C :   -0.145044
   3 C :    0.026619
   4 C :   -0.173448
   5 H :    0.039765
   6 C :    0.056020
   7 H :    0.015980
   8 H :    0.039730
   9 C :   -0.093828
  10 H :    0.039385
  11 H :    0.044603
  12 C :   -0.029073
  13 H :    0.020768
  14 H :    0.031539
  15 H :    0.043767
  16 S :    0.103863
  17 C :   -0.082034
  18 C :   -0.052119
  19 C :   -0.005669
  20 C :   -0.163490
  21 H :    0.022705
  22 C :    0.100342
  23 H :    0.011640
  24 H :    0.011142
  25 C :   -0.061996
  26 H :    0.030316
  27 H :    0.025775
  28 C :   -0.085003
  29 H :    0.033717
  30 H :    0.032262
  31 H :    0.041851
  32 H :    0.048915
  33 H :    0.056987
Sum of atomic charges:    0.0000000

LOEWDIN ATOMIC CHARGES
----------------------
   0 S :    0.423576
   1 C :   -0.201183
   2 C :   -0.063225
   3 C :   -0.066132
   4 C :   -0.210849
   5 H :    0.040005
   6 C :   -0.030436
   7 H :    0.024006
   8 H :    0.031610
   9 C :   -0.042583
  10 H :    0.028734
  11 H :    0.027668
  12 C :   -0.060461
  13 H :    0.021449
  14 H :    0.015697
  15 H :    0.033883
  16 S :    0.391446
  17 C :   -0.179470
  18 C :   -0.074873
  19 C :   -0.035660
  20 C :   -0.205063
  21 H :    0.030155
  22 C :   -0.025582
  23 H :    0.022142
  24 H :    0.027345
  25 C :   -0.032573
  26 H :    0.021740
  27 H :    0.017693
  28 C :   -0.067136
  29 H :    0.023297
  30 H :    0.023414
  31 H :    0.031872
  32 H :    0.028753
  33 H :    0.030739

  Mayer bond orders larger than 0.100000
B(  0-S ,  1-C ) :   1.1395 B(  0-S ,  4-C ) :   1.1675 B(  1-C ,  2-C ) :   1.6235
B(  1-C , 32-H ) :   0.9644 B(  2-C ,  3-C ) :   1.2317 B(  2-C ,  6-C ) :   1.0105
B(  3-C ,  4-C ) :   1.5570 B(  3-C ,  5-H ) :   0.9858 B(  4-C , 20-C ) :   1.0461
B(  6-C ,  7-H ) :   0.9432 B(  6-C ,  8-H ) :   0.9459 B(  6-C ,  9-C ) :   1.0637
B(  9-C , 10-H ) :   0.9578 B(  9-C , 11-H ) :   0.9583 B(  9-C , 12-C ) :   1.0735
B( 12-C , 13-H ) :   0.9770 B( 12-C , 14-H ) :   0.9687 B( 12-C , 15-H ) :   0.9738
B( 16-S , 17-C ) :   1.1574 B( 16-S , 20-C ) :   1.1213 B( 17-C , 18-C ) :   1.6275
B( 17-C , 33-H ) :   0.9662 B( 18-C , 19-C ) :   1.2184 B( 18-C , 21-H ) :   0.9902
B( 19-C , 20-C ) :   1.6224 B( 19-C , 22-C ) :   0.9935 B( 22-C , 23-H ) :   0.9327
B( 22-C , 24-H ) :   0.9524 B( 22-C , 25-C ) :   1.0606 B( 25-C , 26-H ) :   0.9592
B( 25-C , 27-H ) :   0.9528 B( 25-C , 28-C ) :   1.0818 B( 28-C , 29-H ) :   0.9749
B( 28-C , 30-H ) :   0.9785 B( 28-C , 31-H ) :   0.9754

Dispersion correction           -0.014353196
FINAL SINGLE POINT ENERGY     -1339.856895630379

DIPOLE MOMENT
-------------
                                X             Y             Z
Electronic contribution:     30.52908      -2.45184       5.50991
Nuclear contribution   :    -31.29629       2.59914      -5.45067
                        -----------------------------------------
Total Dipole Moment    :     -0.76721       0.14730       0.05924
                        -----------------------------------------
Magnitude (a.u.)       :      0.78347
Magnitude (Debye)      :      1.99142

Rotational constants in cm-1:     0.016134     0.009704     0.006563
Rotational constants in MHz :   483.691091   290.927517   196.747890

                             ****ORCA TERMINATED NORMALLY****
TOTAL RUN TIME: 0 days 0 hours 0 minutes 34 seconds 844 msec
