                         Program Version 4.2.1 -  RELEASE  -
|  1> ! wB97X-D3 SP def2-SVP
|  2> %pal
|  3> nprocs 16
|  4> end
|  5>
|  6> * xyz 0 1
|  7> S 	 -30.7433 	 69.4297 	 100.786
|  8> C 	 -31.3745 	 67.7373 	 100.767
|  9> C 	 -31.1265 	 67.0834 	 101.951
| 10> C 	 -30.4073 	 67.9622 	 102.881
| 11> C 	 -30.153 	 69.2411 	 102.415
| 12> H 	 -30.1275 	 67.7022 	 103.866
| 13> C 	 -31.6339 	 65.7171 	 102.315
| 14> H 	 -32.5932 	 65.5373 	 101.889
| 15> H 	 -31.8126 	 65.6901 	 103.439
| 16> C 	 -30.7037 	 64.5527 	 101.969
| 17> H 	 -29.7579 	 64.667 	 102.54
| 18> H 	 -31.2495 	 63.7313 	 102.448
| 19> C 	 -30.5372 	 64.2114 	 100.49
| 20> H 	 -31.5357 	 64.134 	 100.133
| 21> H 	 -30.0889 	 65.1257 	 100.086
| 22> H 	 -30.0244 	 63.2723 	 100.288
| 23> S 	 -30.6341 	 71.6465 	 103.539
| 24> C 	 -29.4244 	 72.5456 	 104.433
| 25> C 	 -28.3176 	 71.7368 	 104.561
| 26> C 	 -28.4579 	 70.4097 	 103.974
| 27> C 	 -29.564 	 70.3491 	 103.178
| 28> H 	 -27.5264 	 72.0905 	 105.191
| 29> C 	 -27.2465 	 69.4567 	 103.987
| 30> H 	 -27.6749 	 68.4638 	 103.97
| 31> H 	 -26.6408 	 69.5084 	 104.874
| 32> C 	 -26.2134 	 69.4721 	 102.817
| 33> H 	 -25.6747 	 68.5876 	 103.009
| 34> H 	 -25.5229 	 70.3216 	 102.841
| 35> C 	 -26.8253 	 69.4088 	 101.36
| 36> H 	 -27.4806 	 70.3047 	 101.156
| 37> H 	 -27.3723 	 68.5265 	 101.132
| 38> H 	 -26.0549 	 69.4802 	 100.584
| 39> H 	 -31.9203 	 67.3482 	 99.9599
| 40> H 	 -29.5612 	 73.6047 	 104.865
| 41> *
| 42>
| 43>                          ****END OF INPUT****

CARTESIAN COORDINATES (ANGSTROEM)
---------------------------------
  S    -30.743300   69.429700  100.786000
  C    -31.374500   67.737300  100.767000
  C    -31.126500   67.083400  101.951000
  C    -30.407300   67.962200  102.881000
  C    -30.153000   69.241100  102.415000
  H    -30.127500   67.702200  103.866000
  C    -31.633900   65.717100  102.315000
  H    -32.593200   65.537300  101.889000
  H    -31.812600   65.690100  103.439000
  C    -30.703700   64.552700  101.969000
  H    -29.757900   64.667000  102.540000
  H    -31.249500   63.731300  102.448000
  C    -30.537200   64.211400  100.490000
  H    -31.535700   64.134000  100.133000
  H    -30.088900   65.125700  100.086000
  H    -30.024400   63.272300  100.288000
  S    -30.634100   71.646500  103.539000
  C    -29.424400   72.545600  104.433000
  C    -28.317600   71.736800  104.561000
  C    -28.457900   70.409700  103.974000
  C    -29.564000   70.349100  103.178000
  H    -27.526400   72.090500  105.191000
  C    -27.246500   69.456700  103.987000
  H    -27.674900   68.463800  103.970000
  H    -26.640800   69.508400  104.874000
  C    -26.213400   69.472100  102.817000
  H    -25.674700   68.587600  103.009000
  H    -25.522900   70.321600  102.841000
  C    -26.825300   69.408800  101.360000
  H    -27.480600   70.304700  101.156000
  H    -27.372300   68.526500  101.132000
  H    -26.054900   69.480200  100.584000
  H    -31.920300   67.348200   99.959900
  H    -29.561200   73.604700  104.865000

 Total Charge           Charge          ....    0
 Multiplicity           Mult            ....    1
 Number of Electrons    NEL             ....  134
 Basis Dimension        Dim             ....  322

ORBITAL ENERGIES
----------------

  NO   OCC          E(Eh)            E(eV)
   0   2.0000     -88.966423     -2420.8994
   1   2.0000     -88.960586     -2420.7406
   2   2.0000     -10.331620      -281.1377
   3   2.0000     -10.325250      -280.9643
   4   2.0000     -10.322651      -280.8936
   5   2.0000     -10.316113      -280.7157
   6   2.0000     -10.305888      -280.4375
   7   2.0000     -10.304863      -280.4096
   8   2.0000     -10.296587      -280.1844
   9   2.0000     -10.295482      -280.1543
  10   2.0000     -10.292983      -280.0863
  11   2.0000     -10.291474      -280.0452
  12   2.0000     -10.287417      -279.9348
  13   2.0000     -10.286202      -279.9018
  14   2.0000     -10.276577      -279.6399
  15   2.0000     -10.272317      -279.5240
  16   2.0000      -8.080331      -219.8770
  17   2.0000      -8.076203      -219.7646
  18   2.0000      -6.038975      -164.3289
  19   2.0000      -6.034960      -164.2196
  20   2.0000      -6.034799      -164.2152
  21   2.0000      -6.030992      -164.1116
  22   2.0000      -6.030504      -164.0984
  23   2.0000      -6.026861      -163.9992
  24   2.0000      -1.007940       -27.4274
  25   2.0000      -0.981136       -26.6981
  26   2.0000      -0.916283       -24.9333
  27   2.0000      -0.898956       -24.4618
  28   2.0000      -0.869595       -23.6629
  29   2.0000      -0.845304       -23.0019
  30   2.0000      -0.838127       -22.8066
  31   2.0000      -0.813664       -22.1409
  32   2.0000      -0.786662       -21.4062
  33   2.0000      -0.777656       -21.1611
  34   2.0000      -0.706781       -19.2325
  35   2.0000      -0.695331       -18.9209
  36   2.0000      -0.689945       -18.7744
  37   2.0000      -0.658685       -17.9237
  38   2.0000      -0.643904       -17.5215
  39   2.0000      -0.619821       -16.8662
  40   2.0000      -0.591378       -16.0922
  41   2.0000      -0.573749       -15.6125
  42   2.0000      -0.552633       -15.0379
  43   2.0000      -0.546855       -14.8807
  44   2.0000      -0.541080       -14.7235
  45   2.0000      -0.533844       -14.5266
  46   2.0000      -0.520087       -14.1523
  47   2.0000      -0.509095       -13.8532
  48   2.0000      -0.502799       -13.6818
  49   2.0000      -0.498994       -13.5783
  50   2.0000      -0.490101       -13.3363
  51   2.0000      -0.479885       -13.0583
  52   2.0000      -0.470491       -12.8027
  53   2.0000      -0.464684       -12.6447
  54   2.0000      -0.459602       -12.5064
  55   2.0000      -0.441159       -12.0045
  56   2.0000      -0.438170       -11.9232
  57   2.0000      -0.435689       -11.8557
  58   2.0000      -0.429246       -11.6804
  59   2.0000      -0.427719       -11.6388
  60   2.0000      -0.420977       -11.4554
  61   2.0000      -0.412133       -11.2147
  62   2.0000      -0.407820       -11.0974
  63   2.0000      -0.344047        -9.3620
  64   2.0000      -0.331097        -9.0096
  65   2.0000      -0.324180        -8.8214
  66   2.0000      -0.302550        -8.2328
  67   0.0000       0.032587         0.8867
  68   0.0000       0.070144         1.9087
  69   0.0000       0.111267         3.0277
  70   0.0000       0.114399         3.1130
  71   0.0000       0.121992         3.3196

MULLIKEN ATOMIC CHARGES
-----------------------
   0 S :    0.102147
   1 C :   -0.115460
   2 C :   -0.068336
   3 C :    0.051168
   4 C :   -0.160588
   5 H :   -0.003401
   6 C :    0.037631
   7 H :    0.018609
   8 H :    0.039211
   9 C :   -0.090761
  10 H :    0.031258
  11 H :    0.022541
  12 C :   -0.013753
  13 H :    0.010343
  14 H :    0.040916
  15 H :    0.049231
  16 S :    0.102595
  17 C :   -0.123498
  18 C :   -0.032501
  19 C :   -0.036041
  20 C :   -0.140478
  21 H :    0.014109
  22 C :    0.074039
  23 H :    0.008968
  24 H :    0.019744
  25 C :   -0.046370
  26 H :    0.021889
  27 H :    0.031504
  28 C :   -0.072219
  29 H :    0.043197
  30 H :    0.033555
  31 H :    0.026587
  32 H :    0.031796
  33 H :    0.092368
Sum of atomic charges:    0.0000000

LOEWDIN ATOMIC CHARGES
----------------------
   0 S :    0.386857
   1 C :   -0.171494
   2 C :   -0.059724
   3 C :   -0.055299
   4 C :   -0.194459
   5 H :    0.021491
   6 C :   -0.033150
   7 H :    0.025373
   8 H :    0.042759
   9 C :   -0.042839
  10 H :    0.023153
  11 H :    0.022166
  12 C :   -0.062311
  13 H :    0.019415
  14 H :    0.029551
  15 H :    0.031164
  16 S :    0.415550
  17 C :   -0.200266
  18 C :   -0.072114
  19 C :   -0.059164
  20 C :   -0.206565
  21 H :    0.027410
  22 C :   -0.030542
  23 H :    0.026671
  24 H :    0.029774
  25 C :   -0.027740
  26 H :    0.020054
  27 H :    0.022941
  28 C :   -0.071986
  29 H :    0.030535
  30 H :    0.018689
  31 H :    0.025092
  32 H :    0.016841
  33 H :    0.052169

  Mayer bond orders larger than 0.100000
B(  0-S ,  1-C ) :   1.1194 B(  0-S ,  4-C ) :   1.1430 B(  1-C ,  2-C ) :   1.6287
B(  1-C , 32-H ) :   0.9770 B(  2-C ,  3-C ) :   1.2120 B(  2-C ,  6-C ) :   1.0213
B(  3-C ,  4-C ) :   1.6073 B(  3-C ,  5-H ) :   0.9955 B(  4-C , 20-C ) :   1.0035
B(  6-C ,  7-H ) :   0.9407 B(  6-C ,  8-H ) :   0.9414 B(  6-C ,  9-C ) :   1.0772
B(  9-C , 10-H ) :   0.9556 B(  9-C , 11-H ) :   0.9536 B(  9-C , 12-C ) :   1.0678
B( 12-C , 13-H ) :   0.9708 B( 12-C , 14-H ) :   0.9748 B( 12-C , 15-H ) :   0.9737
B( 16-S , 17-C ) :   1.1436 B( 16-S , 20-C ) :   1.1622 B( 17-C , 18-C ) :   1.6209
B( 17-C , 33-H ) :   0.9580 B( 18-C , 19-C ) :   1.2091 B( 18-C , 21-H ) :   0.9934
B( 19-C , 20-C ) :   1.6002 B( 19-C , 22-C ) :   1.0569 B( 22-C , 23-H ) :   0.9304
B( 22-C , 24-H ) :   0.9381 B( 22-C , 25-C ) :   1.0680 B( 25-C , 26-H ) :   0.9533
B( 25-C , 27-H ) :   0.9603 B( 25-C , 28-C ) :   1.0792 B( 28-C , 29-H ) :   0.9718
B( 28-C , 30-H ) :   0.9766 B( 28-C , 31-H ) :   0.9745

Dispersion correction           -0.015547833
FINAL SINGLE POINT ENERGY     -1339.877754682332

DIPOLE MOMENT
-------------
                                X             Y             Z
Electronic contribution:    -11.46923      22.06945       2.92439
Nuclear contribution   :     11.66736     -22.58694      -2.59511
                        -----------------------------------------
Total Dipole Moment    :      0.19813      -0.51749       0.32928
                        -----------------------------------------
Magnitude (a.u.)       :      0.64457
Magnitude (Debye)      :      1.63838

Rotational constants in cm-1:     0.022082     0.008432     0.007342
Rotational constants in MHz :   661.988378   252.778572   220.119750

                             ****ORCA TERMINATED NORMALLY****
TOTAL RUN TIME: 0 days 0 hours 0 minutes 31 seconds 127 msec
