                         Program Version 4.2.1 -  RELEASE  -
|  1> ! wB97X-D3 SP def2-SVP
|  2> %pal
|  3> nprocs 16
|  4> end
|  5>
|  6> * xyz 0 1
|  7> S 	 49.7919 	 10.2982 	 93.466
|  8> C 	 50.1171 	 11.9993 	 93.7938
|  9> C 	 50.1114 	 12.7263 	 92.6131
| 10> C 	 49.9451 	 11.8863 	 91.4538
| 11> C 	 49.7193 	 10.5435 	 91.7069
| 12> H 	 49.9681 	 12.192 	 90.3612
| 13> C 	 50.5464 	 14.178 	 92.4634
| 14> H 	 50.1369 	 14.8037 	 93.2197
| 15> H 	 49.9472 	 14.5761 	 91.6029
| 16> C 	 52.0223 	 14.4893 	 92.3659
| 17> H 	 52.2431 	 15.5618 	 92.3811
| 18> H 	 52.3977 	 14.179 	 93.3434
| 19> C 	 52.7918 	 13.8051 	 91.2178
| 20> H 	 52.2521 	 13.8933 	 90.2616
| 21> H 	 53.7442 	 14.237 	 91.0037
| 22> H 	 53.0127 	 12.7747 	 91.4442
| 23> S 	 51.3526 	 8.56212 	 90.8287
| 24> C 	 51.1392 	 7.73248 	 89.322
| 25> C 	 49.9776 	 8.21362 	 88.775
| 26> C 	 49.2636 	 9.20606 	 89.538
| 27> C 	 49.9424 	 9.53945 	 90.7253
| 28> H 	 49.7148 	 7.90844 	 87.7648
| 29> C 	 47.8712 	 9.72222 	 89.1602
| 30> H 	 47.7515 	 9.78838 	 88.0444
| 31> H 	 47.8188 	 10.8171 	 89.3987
| 32> C 	 46.7542 	 8.95115 	 89.9162
| 33> H 	 46.915 	 9.01472 	 91.0517
| 34> H 	 46.7303 	 7.8786 	 89.5716
| 35> C 	 45.2659 	 9.41775 	 89.6067
| 36> H 	 44.5117 	 8.98587 	 90.2539
| 37> H 	 44.9368 	 9.27665 	 88.5456
| 38> H 	 45.2812 	 10.5276 	 89.8005
| 39> H 	 50.3842 	 12.3903 	 94.7617
| 40> H 	 51.7129 	 6.96659 	 88.8243
| 41> *
| 42>
| 43>                          ****END OF INPUT****

CARTESIAN COORDINATES (ANGSTROEM)
---------------------------------
  S     49.791900   10.298200   93.466000
  C     50.117100   11.999300   93.793800
  C     50.111400   12.726300   92.613100
  C     49.945100   11.886300   91.453800
  C     49.719300   10.543500   91.706900
  H     49.968100   12.192000   90.361200
  C     50.546400   14.178000   92.463400
  H     50.136900   14.803700   93.219700
  H     49.947200   14.576100   91.602900
  C     52.022300   14.489300   92.365900
  H     52.243100   15.561800   92.381100
  H     52.397700   14.179000   93.343400
  C     52.791800   13.805100   91.217800
  H     52.252100   13.893300   90.261600
  H     53.744200   14.237000   91.003700
  H     53.012700   12.774700   91.444200
  S     51.352600    8.562120   90.828700
  C     51.139200    7.732480   89.322000
  C     49.977600    8.213620   88.775000
  C     49.263600    9.206060   89.538000
  C     49.942400    9.539450   90.725300
  H     49.714800    7.908440   87.764800
  C     47.871200    9.722220   89.160200
  H     47.751500    9.788380   88.044400
  H     47.818800   10.817100   89.398700
  C     46.754200    8.951150   89.916200
  H     46.915000    9.014720   91.051700
  H     46.730300    7.878600   89.571600
  C     45.265900    9.417750   89.606700
  H     44.511700    8.985870   90.253900
  H     44.936800    9.276650   88.545600
  H     45.281200   10.527600   89.800500
  H     50.384200   12.390300   94.761700
  H     51.712900    6.966590   88.824300

 Total Charge           Charge          ....    0
 Multiplicity           Mult            ....    1
 Number of Electrons    NEL             ....  134
 Basis Dimension        Dim             ....  322

ORBITAL ENERGIES
----------------

  NO   OCC          E(Eh)            E(eV)
   0   2.0000     -88.968979     -2420.9690
   1   2.0000     -88.963505     -2420.8200
   2   2.0000     -10.330051      -281.0950
   3   2.0000     -10.325885      -280.9816
   4   2.0000     -10.322034      -280.8768
   5   2.0000     -10.314378      -280.6685
   6   2.0000     -10.307008      -280.4679
   7   2.0000     -10.305472      -280.4262
   8   2.0000     -10.303482      -280.3720
   9   2.0000     -10.300556      -280.2924
  10   2.0000     -10.298445      -280.2349
  11   2.0000     -10.291793      -280.0539
  12   2.0000     -10.291224      -280.0384
  13   2.0000     -10.288184      -279.9557
  14   2.0000     -10.283157      -279.8189
  15   2.0000     -10.272852      -279.5385
  16   2.0000      -8.082966      -219.9487
  17   2.0000      -8.078873      -219.8373
  18   2.0000      -6.041556      -164.3991
  19   2.0000      -6.037497      -164.2887
  20   2.0000      -6.037339      -164.2843
  21   2.0000      -6.033731      -164.1862
  22   2.0000      -6.033059      -164.1679
  23   2.0000      -6.029809      -164.0794
  24   2.0000      -1.009974       -27.4828
  25   2.0000      -0.984291       -26.7839
  26   2.0000      -0.912177       -24.8216
  27   2.0000      -0.895940       -24.3798
  28   2.0000      -0.875775       -23.8310
  29   2.0000      -0.843886       -22.9633
  30   2.0000      -0.837725       -22.7957
  31   2.0000      -0.816243       -22.2111
  32   2.0000      -0.784848       -21.3568
  33   2.0000      -0.768260       -20.9054
  34   2.0000      -0.709171       -19.2975
  35   2.0000      -0.704303       -19.1651
  36   2.0000      -0.686132       -18.6706
  37   2.0000      -0.657884       -17.9019
  38   2.0000      -0.642603       -17.4861
  39   2.0000      -0.613394       -16.6913
  40   2.0000      -0.589824       -16.0499
  41   2.0000      -0.573163       -15.5966
  42   2.0000      -0.551202       -14.9990
  43   2.0000      -0.547916       -14.9096
  44   2.0000      -0.545644       -14.8477
  45   2.0000      -0.521666       -14.1953
  46   2.0000      -0.514104       -13.9895
  47   2.0000      -0.511520       -13.9192
  48   2.0000      -0.506492       -13.7824
  49   2.0000      -0.503861       -13.7107
  50   2.0000      -0.489048       -13.3077
  51   2.0000      -0.483040       -13.1442
  52   2.0000      -0.470282       -12.7970
  53   2.0000      -0.460247       -12.5240
  54   2.0000      -0.452246       -12.3062
  55   2.0000      -0.444890       -12.1061
  56   2.0000      -0.441701       -12.0193
  57   2.0000      -0.433070       -11.7844
  58   2.0000      -0.429779       -11.6949
  59   2.0000      -0.426674       -11.6104
  60   2.0000      -0.412947       -11.2369
  61   2.0000      -0.408254       -11.1092
  62   2.0000      -0.405679       -11.0391
  63   2.0000      -0.347027        -9.4431
  64   2.0000      -0.330171        -8.9844
  65   2.0000      -0.326560        -8.8862
  66   2.0000      -0.299116        -8.1394
  67   0.0000       0.027324         0.7435
  68   0.0000       0.064055         1.7430
  69   0.0000       0.115574         3.1449
  70   0.0000       0.124753         3.3947
  71   0.0000       0.129167         3.5148

MULLIKEN ATOMIC CHARGES
-----------------------
   0 S :    0.104052
   1 C :   -0.119656
   2 C :   -0.075314
   3 C :    0.017031
   4 C :   -0.171564
   5 H :    0.046864
   6 C :    0.055894
   7 H :    0.011905
   8 H :    0.022501
   9 C :   -0.041923
  10 H :    0.029746
  11 H :    0.012759
  12 C :   -0.041837
  13 H :    0.028342
  14 H :    0.021106
  15 H :    0.043762
  16 S :    0.116442
  17 C :   -0.083728
  18 C :   -0.045353
  19 C :   -0.049912
  20 C :   -0.148966
  21 H :    0.015371
  22 C :    0.057244
  23 H :    0.029378
  24 H :    0.022014
  25 C :   -0.102580
  26 H :    0.057483
  27 H :    0.042717
  28 C :   -0.077930
  29 H :    0.042794
  30 H :    0.040119
  31 H :    0.031290
  32 H :    0.053410
  33 H :    0.056539
Sum of atomic charges:   -0.0000000

LOEWDIN ATOMIC CHARGES
----------------------
   0 S :    0.392336
   1 C :   -0.180289
   2 C :   -0.068760
   3 C :   -0.049062
   4 C :   -0.205340
   5 H :    0.044218
   6 C :   -0.038869
   7 H :    0.027312
   8 H :    0.032213
   9 C :   -0.039711
  10 H :    0.027275
  11 H :    0.023177
  12 C :   -0.066846
  13 H :    0.026550
  14 H :    0.023293
  15 H :    0.028479
  16 S :    0.434005
  17 C :   -0.199547
  18 C :   -0.075855
  19 C :   -0.061785
  20 C :   -0.210165
  21 H :    0.028526
  22 C :   -0.043587
  23 H :    0.033646
  24 H :    0.031339
  25 C :   -0.045910
  26 H :    0.037629
  27 H :    0.028895
  28 C :   -0.078464
  29 H :    0.025180
  30 H :    0.026814
  31 H :    0.026265
  32 H :    0.029901
  33 H :    0.037135

  Mayer bond orders larger than 0.100000
B(  0-S ,  1-C ) :   1.1465 B(  0-S ,  4-C ) :   1.1304 B(  1-C ,  2-C ) :   1.5933
B(  1-C , 32-H ) :   0.9729 B(  2-C ,  3-C ) :   1.2454 B(  2-C ,  6-C ) :   1.0278
B(  3-C ,  4-C ) :   1.5825 B(  3-C ,  5-H ) :   0.9753 B(  4-C , 20-C ) :   1.0521
B(  6-C ,  7-H ) :   0.9355 B(  6-C ,  8-H ) :   0.9373 B(  6-C ,  9-C ) :   1.0773
B(  9-C , 10-H ) :   0.9547 B(  9-C , 11-H ) :   0.9503 B(  9-C , 12-C ) :   1.0764
B( 12-C , 13-H ) :   0.9757 B( 12-C , 14-H ) :   0.9727 B( 12-C , 15-H ) :   0.9732
B( 16-S , 17-C ) :   1.1554 B( 16-S , 20-C ) :   1.1651 B( 17-C , 18-C ) :   1.5921
B( 17-C , 33-H ) :   0.9706 B( 18-C , 19-C ) :   1.2769 B( 18-C , 21-H ) :   0.9870
B( 19-C , 20-C ) :   1.5456 B( 19-C , 22-C ) :   1.0542 B( 22-C , 23-H ) :   0.9388
B( 22-C , 24-H ) :   0.9272 B( 22-C , 25-C ) :   1.0509 B( 25-C , 26-H ) :   0.9568
B( 25-C , 27-H ) :   0.9588 B( 25-C , 28-C ) :   1.0663 B( 28-C , 29-H ) :   0.9766
B( 28-C , 30-H ) :   0.9775 B( 28-C , 31-H ) :   0.9766

Dispersion correction           -0.014690131
FINAL SINGLE POINT ENERGY     -1339.877585890726

DIPOLE MOMENT
-------------
                                X             Y             Z
Electronic contribution:      8.09095     -14.44489       9.14852
Nuclear contribution   :     -8.01551      14.90349      -9.46769
                        -----------------------------------------
Total Dipole Moment    :      0.07544       0.45860      -0.31917
                        -----------------------------------------
Magnitude (a.u.)       :      0.56381
Magnitude (Debye)      :      1.43308

Rotational constants in cm-1:     0.018122     0.008658     0.007546
Rotational constants in MHz :   543.292519   259.563971   226.221494

                             ****ORCA TERMINATED NORMALLY****
TOTAL RUN TIME: 0 days 0 hours 0 minutes 28 seconds 452 msec
