                         Program Version 4.2.1 -  RELEASE  -
|  1> ! wB97X-D3 SP def2-SVP
|  2> %pal
|  3> nprocs 16
|  4> end
|  5>
|  6> * xyz 0 1
|  7> S 	 -43.2491 	 51.2255 	 100.95
|  8> C 	 -44.1456 	 51.7984 	 102.373
|  9> C 	 -45.3672 	 52.2621 	 102.053
| 10> C 	 -45.5851 	 52.2123 	 100.65
| 11> C 	 -44.5086 	 51.8015 	 99.8916
| 12> H 	 -46.4964 	 52.4616 	 100.166
| 13> C 	 -46.4837 	 52.5566 	 103.048
| 14> H 	 -47.1227 	 53.3225 	 102.658
| 15> H 	 -45.9814 	 52.9778 	 103.889
| 16> C 	 -47.3463 	 51.3795 	 103.728
| 17> H 	 -47.8489 	 51.8984 	 104.586
| 18> H 	 -48.0717 	 51.0365 	 103.004
| 19> C 	 -46.6029 	 50.2696 	 104.307
| 20> H 	 -45.9281 	 50.6019 	 105.075
| 21> H 	 -47.1276 	 49.3985 	 104.517
| 22> H 	 -45.774 	 49.9703 	 103.63
| 23> S 	 -43.9395 	 50.2982 	 97.7168
| 24> C 	 -43.8716 	 50.9343 	 96.0931
| 25> C 	 -44.2417 	 52.2435 	 96.116
| 26> C 	 -44.5772 	 52.7455 	 97.4486
| 27> C 	 -44.3493 	 51.7972 	 98.4184
| 28> H 	 -44.1433 	 52.8536 	 95.1777
| 29> C 	 -45.0095 	 54.1749 	 97.7035
| 30> H 	 -45.1952 	 54.3705 	 98.8005
| 31> H 	 -46.0128 	 54.2742 	 97.2368
| 32> C 	 -44.156 	 55.2356 	 97.0838
| 33> H 	 -44.4257 	 55.3316 	 95.9843
| 34> H 	 -43.1216 	 54.8603 	 97.0669
| 35> C 	 -44.2234 	 56.5891 	 97.8076
| 36> H 	 -43.92 	 56.5891 	 98.8062
| 37> H 	 -45.2381 	 56.9031 	 97.9556
| 38> H 	 -43.5867 	 57.4368 	 97.3396
| 39> H 	 -43.8387 	 51.6003 	 103.432
| 40> H 	 -43.5785 	 50.4176 	 95.2152
| 41> *
| 42>
| 43>                          ****END OF INPUT****

CARTESIAN COORDINATES (ANGSTROEM)
---------------------------------
  S    -43.249100   51.225500  100.950000
  C    -44.145600   51.798400  102.373000
  C    -45.367200   52.262100  102.053000
  C    -45.585100   52.212300  100.650000
  C    -44.508600   51.801500   99.891600
  H    -46.496400   52.461600  100.166000
  C    -46.483700   52.556600  103.048000
  H    -47.122700   53.322500  102.658000
  H    -45.981400   52.977800  103.889000
  C    -47.346300   51.379500  103.728000
  H    -47.848900   51.898400  104.586000
  H    -48.071700   51.036500  103.004000
  C    -46.602900   50.269600  104.307000
  H    -45.928100   50.601900  105.075000
  H    -47.127600   49.398500  104.517000
  H    -45.774000   49.970300  103.630000
  S    -43.939500   50.298200   97.716800
  C    -43.871600   50.934300   96.093100
  C    -44.241700   52.243500   96.116000
  C    -44.577200   52.745500   97.448600
  C    -44.349300   51.797200   98.418400
  H    -44.143300   52.853600   95.177700
  C    -45.009500   54.174900   97.703500
  H    -45.195200   54.370500   98.800500
  H    -46.012800   54.274200   97.236800
  C    -44.156000   55.235600   97.083800
  H    -44.425700   55.331600   95.984300
  H    -43.121600   54.860300   97.066900
  C    -44.223400   56.589100   97.807600
  H    -43.920000   56.589100   98.806200
  H    -45.238100   56.903100   97.955600
  H    -43.586700   57.436800   97.339600
  H    -43.838700   51.600300  103.432000
  H    -43.578500   50.417600   95.215200

 Total Charge           Charge          ....    0
 Multiplicity           Mult            ....    1
 Number of Electrons    NEL             ....  134
 Basis Dimension        Dim             ....  322

ORBITAL ENERGIES
----------------

  NO   OCC          E(Eh)            E(eV)
   0   2.0000     -88.966808     -2420.9099
   1   2.0000     -88.961487     -2420.7651
   2   2.0000     -10.331731      -281.1407
   3   2.0000     -10.325817      -280.9798
   4   2.0000     -10.317136      -280.7435
   5   2.0000     -10.314454      -280.6706
   6   2.0000     -10.306416      -280.4518
   7   2.0000     -10.299155      -280.2543
   8   2.0000     -10.298128      -280.2263
   9   2.0000     -10.293212      -280.0925
  10   2.0000     -10.292629      -280.0767
  11   2.0000     -10.291021      -280.0329
  12   2.0000     -10.290763      -280.0259
  13   2.0000     -10.288889      -279.9749
  14   2.0000     -10.277769      -279.6723
  15   2.0000     -10.267213      -279.3851
  16   2.0000      -8.081346      -219.9046
  17   2.0000      -8.077439      -219.7983
  18   2.0000      -6.039954      -164.3555
  19   2.0000      -6.036051      -164.2493
  20   2.0000      -6.035939      -164.2462
  21   2.0000      -6.031938      -164.1374
  22   2.0000      -6.031653      -164.1296
  23   2.0000      -6.028132      -164.0338
  24   2.0000      -1.011828       -27.5333
  25   2.0000      -0.989807       -26.9340
  26   2.0000      -0.912665       -24.8349
  27   2.0000      -0.911184       -24.7946
  28   2.0000      -0.874637       -23.8001
  29   2.0000      -0.851916       -23.1818
  30   2.0000      -0.844469       -22.9792
  31   2.0000      -0.819357       -22.2959
  32   2.0000      -0.787538       -21.4300
  33   2.0000      -0.776014       -21.1164
  34   2.0000      -0.708157       -19.2699
  35   2.0000      -0.699176       -19.0255
  36   2.0000      -0.696228       -18.9453
  37   2.0000      -0.656082       -17.8529
  38   2.0000      -0.639910       -17.4128
  39   2.0000      -0.622412       -16.9367
  40   2.0000      -0.598568       -16.2879
  41   2.0000      -0.568458       -15.4685
  42   2.0000      -0.563170       -15.3246
  43   2.0000      -0.559971       -15.2376
  44   2.0000      -0.543165       -14.7803
  45   2.0000      -0.525685       -14.3046
  46   2.0000      -0.522327       -14.2132
  47   2.0000      -0.516057       -14.0426
  48   2.0000      -0.501536       -13.6475
  49   2.0000      -0.496431       -13.5086
  50   2.0000      -0.492357       -13.3977
  51   2.0000      -0.483937       -13.1686
  52   2.0000      -0.473815       -12.8931
  53   2.0000      -0.466993       -12.7075
  54   2.0000      -0.459893       -12.5143
  55   2.0000      -0.453217       -12.3327
  56   2.0000      -0.441607       -12.0167
  57   2.0000      -0.436730       -11.8840
  58   2.0000      -0.432788       -11.7767
  59   2.0000      -0.426756       -11.6126
  60   2.0000      -0.421149       -11.4600
  61   2.0000      -0.405618       -11.0374
  62   2.0000      -0.405358       -11.0304
  63   2.0000      -0.350330        -9.5330
  64   2.0000      -0.332573        -9.0498
  65   2.0000      -0.325635        -8.8610
  66   2.0000      -0.300972        -8.1899
  67   0.0000       0.033709         0.9173
  68   0.0000       0.073917         2.0114
  69   0.0000       0.113738         3.0950
  70   0.0000       0.119643         3.2557
  71   0.0000       0.134012         3.6466

MULLIKEN ATOMIC CHARGES
-----------------------
   0 S :    0.108557
   1 C :   -0.145521
   2 C :   -0.080799
   3 C :    0.045937
   4 C :   -0.150271
   5 H :   -0.003197
   6 C :    0.068603
   7 H :    0.022799
   8 H :    0.010929
   9 C :   -0.058657
  10 H :    0.038684
  11 H :    0.032857
  12 C :   -0.020986
  13 H :    0.006761
  14 H :    0.033981
  15 H :    0.021212
  16 S :    0.097184
  17 C :   -0.073410
  18 C :   -0.055057
  19 C :   -0.048646
  20 C :   -0.149423
  21 H :    0.041125
  22 C :    0.053246
  23 H :    0.034947
  24 H :    0.035544
  25 C :   -0.090897
  26 H :    0.038301
  27 H :    0.038835
  28 C :   -0.042382
  29 H :    0.017922
  30 H :    0.017034
  31 H :    0.047397
  32 H :    0.060681
  33 H :    0.046709
Sum of atomic charges:   -0.0000000

LOEWDIN ATOMIC CHARGES
----------------------
   0 S :    0.397646
   1 C :   -0.189585
   2 C :   -0.073248
   3 C :   -0.058989
   4 C :   -0.192703
   5 H :    0.024871
   6 C :   -0.026269
   7 H :    0.028125
   8 H :    0.026407
   9 C :   -0.032951
  10 H :    0.032006
  11 H :    0.021488
  12 C :   -0.072737
  13 H :    0.022650
  14 H :    0.022443
  15 H :    0.031870
  16 S :    0.418364
  17 C :   -0.181365
  18 C :   -0.076796
  19 C :   -0.057573
  20 C :   -0.212099
  21 H :    0.040675
  22 C :   -0.042666
  23 H :    0.035465
  24 H :    0.037665
  25 C :   -0.049588
  26 H :    0.028991
  27 H :    0.025591
  28 C :   -0.069808
  29 H :    0.018235
  30 H :    0.021563
  31 H :    0.038973
  32 H :    0.036333
  33 H :    0.027018

  Mayer bond orders larger than 0.100000
B(  0-S ,  1-C ) :   1.1270 B(  0-S ,  4-C ) :   1.1520 B(  1-C ,  2-C ) :   1.6270
B(  1-C , 32-H ) :   0.9606 B(  2-C ,  3-C ) :   1.2301 B(  2-C ,  6-C ) :   1.0291
B(  3-C ,  4-C ) :   1.5809 B(  3-C ,  5-H ) :   1.0055 B(  4-C , 20-C ) :   0.9939
B(  6-C ,  7-H ) :   0.9419 B(  6-C ,  8-H ) :   0.9359 B(  6-C ,  9-C ) :   1.0555
B(  9-C , 10-H ) :   0.9545 B(  9-C , 11-H ) :   0.9585 B(  9-C , 12-C ) :   1.0962
B( 12-C , 13-H ) :   0.9656 B( 12-C , 14-H ) :   0.9691 B( 12-C , 15-H ) :   0.9606
B( 16-S , 17-C ) :   1.1428 B( 16-S , 20-C ) :   1.1536 B( 17-C , 18-C ) :   1.6340
B( 17-C , 33-H ) :   0.9739 B( 18-C , 19-C ) :   1.2102 B( 18-C , 21-H ) :   0.9807
B( 19-C , 20-C ) :   1.6260 B( 19-C , 22-C ) :   1.0525 B( 22-C , 23-H ) :   0.9429
B( 22-C , 24-H ) :   0.9179 B( 22-C , 25-C ) :   1.0510 B( 25-C , 26-H ) :   0.9458
B( 25-C , 27-H ) :   0.9656 B( 25-C , 28-C ) :   1.0851 B( 28-C , 29-H ) :   0.9722
B( 28-C , 30-H ) :   0.9705 B( 28-C , 31-H ) :   0.9739

Dispersion correction           -0.014030360
FINAL SINGLE POINT ENERGY     -1339.870684008188

DIPOLE MOMENT
-------------
                                X             Y             Z
Electronic contribution:     11.81498     -16.26760      -9.43497
Nuclear contribution   :    -12.21207      16.62325       9.50899
                        -----------------------------------------
Total Dipole Moment    :     -0.39709       0.35565       0.07402
                        -----------------------------------------
Magnitude (a.u.)       :      0.53819
Magnitude (Debye)      :      1.36797

Rotational constants in cm-1:     0.019905     0.007941     0.006473
Rotational constants in MHz :   596.746902   238.054758   194.041562

                             ****ORCA TERMINATED NORMALLY****
TOTAL RUN TIME: 0 days 0 hours 0 minutes 29 seconds 841 msec
