                         Program Version 4.2.1 -  RELEASE  -
|  1> ! wB97X-D3 SP def2-SVP
|  2> %pal
|  3> nprocs 16
|  4> end
|  5>
|  6> * xyz 0 1
|  7> S 	 -5.56384 	 63.9456 	 52.3534
|  8> C 	 -5.33014 	 63.415 	 54.0075
|  9> C 	 -6.34473 	 63.7706 	 54.8803
| 10> C 	 -7.29779 	 64.5547 	 54.1593
| 11> C 	 -7.06404 	 64.8233 	 52.8436
| 12> H 	 -8.22314 	 64.9096 	 54.5404
| 13> C 	 -6.50403 	 63.3168 	 56.2402
| 14> H 	 -5.52214 	 63.1523 	 56.723
| 15> H 	 -7.01183 	 62.4243 	 56.1558
| 16> C 	 -7.34739 	 64.2571 	 57.2517
| 17> H 	 -8.41152 	 64.2141 	 56.9913
| 18> H 	 -7.23714 	 63.7978 	 58.2025
| 19> C 	 -6.80369 	 65.6831 	 57.4954
| 20> H 	 -6.70787 	 66.2737 	 56.5597
| 21> H 	 -7.63657 	 66.1936 	 57.9171
| 22> H 	 -5.99722 	 65.7555 	 58.2052
| 23> S 	 -8.72166 	 64.8338 	 50.6809
| 24> C 	 -9.26069 	 66.3576 	 50.1219
| 25> C 	 -9.19797 	 67.3317 	 51.1024
| 26> C 	 -8.4753 	 66.9323 	 52.2434
| 27> C 	 -7.97675 	 65.6182 	 51.9932
| 28> H 	 -9.60643 	 68.3486 	 50.9698
| 29> C 	 -8.13884 	 67.8954 	 53.3283
| 30> H 	 -7.18721 	 67.4977 	 53.7596
| 31> H 	 -8.79294 	 67.6519 	 54.2132
| 32> C 	 -8.12165 	 69.3883 	 53.1291
| 33> H 	 -7.78207 	 69.8877 	 54.0767
| 34> H 	 -9.13994 	 69.6029 	 52.9406
| 35> C 	 -7.12708 	 70.0628 	 52.1107
| 36> H 	 -6.15606 	 69.6492 	 52.3265
| 37> H 	 -7.1009 	 71.1074 	 52.2355
| 38> H 	 -7.3167 	 69.9828 	 51.0584
| 39> H 	 -4.50119 	 62.8282 	 54.3335
| 40> H 	 -9.98397 	 66.4361 	 49.2818
| 41> *
| 42>
| 43>                          ****END OF INPUT****

CARTESIAN COORDINATES (ANGSTROEM)
---------------------------------
  S     -5.563840   63.945600   52.353400
  C     -5.330140   63.415000   54.007500
  C     -6.344730   63.770600   54.880300
  C     -7.297790   64.554700   54.159300
  C     -7.064040   64.823300   52.843600
  H     -8.223140   64.909600   54.540400
  C     -6.504030   63.316800   56.240200
  H     -5.522140   63.152300   56.723000
  H     -7.011830   62.424300   56.155800
  C     -7.347390   64.257100   57.251700
  H     -8.411520   64.214100   56.991300
  H     -7.237140   63.797800   58.202500
  C     -6.803690   65.683100   57.495400
  H     -6.707870   66.273700   56.559700
  H     -7.636570   66.193600   57.917100
  H     -5.997220   65.755500   58.205200
  S     -8.721660   64.833800   50.680900
  C     -9.260690   66.357600   50.121900
  C     -9.197970   67.331700   51.102400
  C     -8.475300   66.932300   52.243400
  C     -7.976750   65.618200   51.993200
  H     -9.606430   68.348600   50.969800
  C     -8.138840   67.895400   53.328300
  H     -7.187210   67.497700   53.759600
  H     -8.792940   67.651900   54.213200
  C     -8.121650   69.388300   53.129100
  H     -7.782070   69.887700   54.076700
  H     -9.139940   69.602900   52.940600
  C     -7.127080   70.062800   52.110700
  H     -6.156060   69.649200   52.326500
  H     -7.100900   71.107400   52.235500
  H     -7.316700   69.982800   51.058400
  H     -4.501190   62.828200   54.333500
  H     -9.983970   66.436100   49.281800

 Total Charge           Charge          ....    0
 Multiplicity           Mult            ....    1
 Number of Electrons    NEL             ....  134
 Basis Dimension        Dim             ....  322

ORBITAL ENERGIES
----------------

  NO   OCC          E(Eh)            E(eV)
   0   2.0000     -88.966994     -2420.9150
   1   2.0000     -88.963778     -2420.8275
   2   2.0000     -10.325955      -280.9835
   3   2.0000     -10.324775      -280.9514
   4   2.0000     -10.310929      -280.5746
   5   2.0000     -10.309292      -280.5301
   6   2.0000     -10.302927      -280.3569
   7   2.0000     -10.294822      -280.1364
   8   2.0000     -10.294680      -280.1325
   9   2.0000     -10.292509      -280.0734
  10   2.0000     -10.292237      -280.0660
  11   2.0000     -10.291060      -280.0340
  12   2.0000     -10.287897      -279.9479
  13   2.0000     -10.285553      -279.8841
  14   2.0000     -10.277872      -279.6751
  15   2.0000     -10.272797      -279.5370
  16   2.0000      -8.083261      -219.9567
  17   2.0000      -8.077478      -219.7993
  18   2.0000      -6.041336      -164.3931
  19   2.0000      -6.037792      -164.2967
  20   2.0000      -6.036081      -164.2501
  21   2.0000      -6.034160      -164.1978
  22   2.0000      -6.032224      -164.1452
  23   2.0000      -6.028116      -164.0334
  24   2.0000      -1.009106       -27.4592
  25   2.0000      -0.984143       -26.7799
  26   2.0000      -0.912581       -24.8326
  27   2.0000      -0.908239       -24.7144
  28   2.0000      -0.866679       -23.5835
  29   2.0000      -0.853050       -23.2127
  30   2.0000      -0.847201       -23.0535
  31   2.0000      -0.814829       -22.1726
  32   2.0000      -0.789994       -21.4968
  33   2.0000      -0.773460       -21.0469
  34   2.0000      -0.711742       -19.3675
  35   2.0000      -0.701989       -19.1021
  36   2.0000      -0.691061       -18.8047
  37   2.0000      -0.652201       -17.7473
  38   2.0000      -0.637916       -17.3586
  39   2.0000      -0.620490       -16.8844
  40   2.0000      -0.596435       -16.2298
  41   2.0000      -0.564783       -15.3685
  42   2.0000      -0.560213       -15.2442
  43   2.0000      -0.555125       -15.1057
  44   2.0000      -0.541687       -14.7400
  45   2.0000      -0.536866       -14.6089
  46   2.0000      -0.514526       -14.0010
  47   2.0000      -0.513152       -13.9636
  48   2.0000      -0.497675       -13.5424
  49   2.0000      -0.493496       -13.4287
  50   2.0000      -0.485909       -13.2223
  51   2.0000      -0.476788       -12.9741
  52   2.0000      -0.475275       -12.9329
  53   2.0000      -0.465978       -12.6799
  54   2.0000      -0.462771       -12.5926
  55   2.0000      -0.450612       -12.2618
  56   2.0000      -0.446524       -12.1505
  57   2.0000      -0.443225       -12.0608
  58   2.0000      -0.437251       -11.8982
  59   2.0000      -0.424351       -11.5472
  60   2.0000      -0.418771       -11.3953
  61   2.0000      -0.414663       -11.2835
  62   2.0000      -0.409762       -11.1502
  63   2.0000      -0.342087        -9.3087
  64   2.0000      -0.329509        -8.9664
  65   2.0000      -0.323495        -8.8027
  66   2.0000      -0.289065        -7.8659
  67   0.0000       0.029921         0.8142
  68   0.0000       0.069341         1.8869
  69   0.0000       0.113127         3.0783
  70   0.0000       0.124079         3.3764
  71   0.0000       0.132223         3.5980

MULLIKEN ATOMIC CHARGES
-----------------------
   0 S :    0.106297
   1 C :   -0.121728
   2 C :   -0.060544
   3 C :    0.025001
   4 C :   -0.149034
   5 H :   -0.010096
   6 C :    0.087454
   7 H :    0.026322
   8 H :    0.031744
   9 C :   -0.104758
  10 H :    0.038594
  11 H :    0.023243
  12 C :   -0.033585
  13 H :    0.038326
  14 H :    0.016330
  15 H :    0.042262
  16 S :    0.138239
  17 C :   -0.087877
  18 C :   -0.078376
  19 C :   -0.000941
  20 C :   -0.205826
  21 H :    0.027089
  22 C :    0.033146
  23 H :    0.028234
  24 H :    0.040275
  25 C :   -0.064086
  26 H :    0.039637
  27 H :    0.024327
  28 C :   -0.023470
  29 H :    0.030806
  30 H :    0.021975
  31 H :    0.027514
  32 H :    0.031317
  33 H :    0.062187
Sum of atomic charges:   -0.0000000

LOEWDIN ATOMIC CHARGES
----------------------
   0 S :    0.375881
   1 C :   -0.187349
   2 C :   -0.067034
   3 C :   -0.058115
   4 C :   -0.186930
   5 H :    0.021737
   6 C :   -0.029033
   7 H :    0.035866
   8 H :    0.029563
   9 C :   -0.035688
  10 H :    0.023866
  11 H :    0.023089
  12 C :   -0.068825
  13 H :    0.029778
  14 H :    0.026528
  15 H :    0.026229
  16 S :    0.452200
  17 C :   -0.212799
  18 C :   -0.073319
  19 C :   -0.054199
  20 C :   -0.213945
  21 H :    0.034577
  22 C :   -0.049308
  23 H :    0.035093
  24 H :    0.043339
  25 C :   -0.039515
  26 H :    0.039982
  27 H :    0.015902
  28 C :   -0.060213
  29 H :    0.027714
  30 H :    0.021647
  31 H :    0.021133
  32 H :    0.020922
  33 H :    0.031227

  Mayer bond orders larger than 0.100000
B(  0-S ,  1-C ) :   1.1396 B(  0-S ,  4-C ) :   1.1152 B(  1-C ,  2-C ) :   1.6168
B(  1-C , 32-H ) :   0.9676 B(  2-C ,  3-C ) :   1.2165 B(  2-C ,  6-C ) :   1.0321
B(  3-C ,  4-C ) :   1.5996 B(  3-C ,  5-H ) :   0.9964 B(  4-C , 20-C ) :   1.0373
B(  6-C ,  7-H ) :   0.9353 B(  6-C ,  8-H ) :   0.9263 B(  6-C ,  9-C ) :   1.0790
B(  9-C , 10-H ) :   0.9558 B(  9-C , 11-H ) :   0.9562 B(  9-C , 12-C ) :   1.0777
B( 12-C , 13-H ) :   0.9718 B( 12-C , 14-H ) :   0.9673 B( 12-C , 15-H ) :   0.9772
B( 16-S , 17-C ) :   1.1643 B( 16-S , 20-C ) :   1.2019 B( 17-C , 18-C ) :   1.5740
B( 17-C , 20-C ) :   0.1028 B( 17-C , 33-H ) :   0.9598 B( 18-C , 19-C ) :   1.2983
B( 18-C , 21-H ) :   0.9793 B( 19-C , 20-C ) :   1.5141 B( 19-C , 22-C ) :   1.0409
B( 22-C , 23-H ) :   0.9216 B( 22-C , 24-H ) :   0.9178 B( 22-C , 25-C ) :   1.0843
B( 25-C , 26-H ) :   0.9497 B( 25-C , 27-H ) :   0.9486 B( 25-C , 28-C ) :   1.0699
B( 28-C , 29-H ) :   0.9747 B( 28-C , 30-H ) :   0.9756 B( 28-C , 31-H ) :   0.9763

Dispersion correction           -0.014760861
FINAL SINGLE POINT ENERGY     -1339.854355607985

DIPOLE MOMENT
-------------
                                X             Y             Z
Electronic contribution:      0.66035     -17.42106     -21.60854
Nuclear contribution   :     -0.97175      17.70678      22.34433
                        -----------------------------------------
Total Dipole Moment    :     -0.31140       0.28571       0.73578
                        -----------------------------------------
Magnitude (a.u.)       :      0.84852
Magnitude (Debye)      :      2.15676

Rotational constants in cm-1:     0.016966     0.009437     0.007211
Rotational constants in MHz :   508.622488   282.924183   216.165415

                             ****ORCA TERMINATED NORMALLY****
TOTAL RUN TIME: 0 days 0 hours 0 minutes 34 seconds 748 msec
