                         Program Version 4.2.1 -  RELEASE  -
|  1> ! wB97X-D3 SP def2-SVP
|  2> %pal
|  3> nprocs 16
|  4> end
|  5>
|  6> * xyz 0 1
|  7> S 	 50.7947 	 13.226 	 83.0072
|  8> C 	 49.9998 	 13.0717 	 84.5457
|  9> C 	 48.7065 	 13.5281 	 84.5796
| 10> C 	 48.3735 	 14.0661 	 83.3042
| 11> C 	 49.3667 	 14.051 	 82.3782
| 12> H 	 47.3846 	 14.4461 	 83.0149
| 13> C 	 47.6477 	 13.2962 	 85.7806
| 14> H 	 48.0484 	 14.161 	 86.4322
| 15> H 	 47.729 	 12.392 	 86.3355
| 16> C 	 46.181 	 13.587 	 85.5714
| 17> H 	 45.736 	 13.8022 	 86.5249
| 18> H 	 46.103 	 14.4661 	 84.987
| 19> C 	 45.5021 	 12.425 	 84.8389
| 20> H 	 44.4292 	 12.4175 	 84.8818
| 21> H 	 45.8297 	 12.289 	 83.7722
| 22> H 	 45.7721 	 11.4832 	 85.3401
| 23> S 	 50.537 	 13.6509 	 79.8985
| 24> C 	 49.9599 	 14.6185 	 78.5539
| 25> C 	 48.9872 	 15.4737 	 78.9687
| 26> C 	 48.5868 	 15.3491 	 80.2958
| 27> C 	 49.413 	 14.4748 	 80.9739
| 28> H 	 48.6926 	 16.1012 	 78.1345
| 29> C 	 47.4509 	 16.0617 	 80.8927
| 30> H 	 47.4936 	 17.0118 	 80.3222
| 31> H 	 47.6076 	 16.3809 	 81.9244
| 32> C 	 46.1003 	 15.3513 	 80.6853
| 33> H 	 45.9424 	 14.4322 	 81.2817
| 34> H 	 46.025 	 14.9472 	 79.7173
| 35> C 	 44.8866 	 16.335 	 80.9939
| 36> H 	 43.9264 	 15.873 	 81.3543
| 37> H 	 44.6445 	 16.9016 	 80.0971
| 38> H 	 45.0488 	 17.0542 	 81.7846
| 39> H 	 50.4693 	 12.5585 	 85.3839
| 40> H 	 50.258 	 14.5955 	 77.5572
| 41> *
| 42>
| 43>                          ****END OF INPUT****

CARTESIAN COORDINATES (ANGSTROEM)
---------------------------------
  S     50.794700   13.226000   83.007200
  C     49.999800   13.071700   84.545700
  C     48.706500   13.528100   84.579600
  C     48.373500   14.066100   83.304200
  C     49.366700   14.051000   82.378200
  H     47.384600   14.446100   83.014900
  C     47.647700   13.296200   85.780600
  H     48.048400   14.161000   86.432200
  H     47.729000   12.392000   86.335500
  C     46.181000   13.587000   85.571400
  H     45.736000   13.802200   86.524900
  H     46.103000   14.466100   84.987000
  C     45.502100   12.425000   84.838900
  H     44.429200   12.417500   84.881800
  H     45.829700   12.289000   83.772200
  H     45.772100   11.483200   85.340100
  S     50.537000   13.650900   79.898500
  C     49.959900   14.618500   78.553900
  C     48.987200   15.473700   78.968700
  C     48.586800   15.349100   80.295800
  C     49.413000   14.474800   80.973900
  H     48.692600   16.101200   78.134500
  C     47.450900   16.061700   80.892700
  H     47.493600   17.011800   80.322200
  H     47.607600   16.380900   81.924400
  C     46.100300   15.351300   80.685300
  H     45.942400   14.432200   81.281700
  H     46.025000   14.947200   79.717300
  C     44.886600   16.335000   80.993900
  H     43.926400   15.873000   81.354300
  H     44.644500   16.901600   80.097100
  H     45.048800   17.054200   81.784600
  H     50.469300   12.558500   85.383900
  H     50.258000   14.595500   77.557200

 Total Charge           Charge          ....    0
 Multiplicity           Mult            ....    1
 Number of Electrons    NEL             ....  134
 Basis Dimension        Dim             ....  322

ORBITAL ENERGIES
----------------

  NO   OCC          E(Eh)            E(eV)
   0   2.0000     -88.966064     -2420.8897
   1   2.0000     -88.964096     -2420.8361
   2   2.0000     -10.327873      -281.0357
   3   2.0000     -10.326406      -280.9958
   4   2.0000     -10.309971      -280.5486
   5   2.0000     -10.308861      -280.5184
   6   2.0000     -10.307090      -280.4702
   7   2.0000     -10.303088      -280.3613
   8   2.0000     -10.297291      -280.2035
   9   2.0000     -10.293380      -280.0971
  10   2.0000     -10.293337      -280.0959
  11   2.0000     -10.292598      -280.0758
  12   2.0000     -10.287922      -279.9486
  13   2.0000     -10.285158      -279.8734
  14   2.0000     -10.284141      -279.8457
  15   2.0000     -10.279679      -279.7243
  16   2.0000      -8.080535      -219.8825
  17   2.0000      -8.079086      -219.8431
  18   2.0000      -6.039113      -164.3326
  19   2.0000      -6.037616      -164.2919
  20   2.0000      -6.035122      -164.2240
  21   2.0000      -6.033743      -164.1865
  22   2.0000      -6.031216      -164.1177
  23   2.0000      -6.029639      -164.0748
  24   2.0000      -1.011169       -27.5153
  25   2.0000      -0.987625       -26.8746
  26   2.0000      -0.912827       -24.8393
  27   2.0000      -0.911058       -24.7912
  28   2.0000      -0.872010       -23.7286
  29   2.0000      -0.852140       -23.1879
  30   2.0000      -0.842110       -22.9150
  31   2.0000      -0.816993       -22.2315
  32   2.0000      -0.783785       -21.3279
  33   2.0000      -0.774230       -21.0679
  34   2.0000      -0.716103       -19.4861
  35   2.0000      -0.707318       -19.2471
  36   2.0000      -0.694327       -18.8936
  37   2.0000      -0.662356       -18.0236
  38   2.0000      -0.640154       -17.4195
  39   2.0000      -0.627543       -17.0763
  40   2.0000      -0.600930       -16.3521
  41   2.0000      -0.571460       -15.5502
  42   2.0000      -0.556125       -15.1329
  43   2.0000      -0.549372       -14.9492
  44   2.0000      -0.537890       -14.6367
  45   2.0000      -0.527878       -14.3643
  46   2.0000      -0.518855       -14.1188
  47   2.0000      -0.509566       -13.8660
  48   2.0000      -0.504758       -13.7352
  49   2.0000      -0.491893       -13.3851
  50   2.0000      -0.487024       -13.2526
  51   2.0000      -0.485676       -13.2159
  52   2.0000      -0.472745       -12.8641
  53   2.0000      -0.468831       -12.7575
  54   2.0000      -0.458815       -12.4850
  55   2.0000      -0.449172       -12.2226
  56   2.0000      -0.443882       -12.0786
  57   2.0000      -0.440365       -11.9830
  58   2.0000      -0.438013       -11.9190
  59   2.0000      -0.431660       -11.7461
  60   2.0000      -0.425092       -11.5673
  61   2.0000      -0.413423       -11.2498
  62   2.0000      -0.409937       -11.1549
  63   2.0000      -0.359800        -9.7906
  64   2.0000      -0.337630        -9.1874
  65   2.0000      -0.328696        -8.9443
  66   2.0000      -0.281197        -7.6518
  67   0.0000       0.023970         0.6523
  68   0.0000       0.077992         2.1223
  69   0.0000       0.104157         2.8342
  70   0.0000       0.124749         3.3946
  71   0.0000       0.131592         3.5808

MULLIKEN ATOMIC CHARGES
-----------------------
   0 S :    0.095699
   1 C :   -0.141468
   2 C :   -0.041958
   3 C :   -0.029061
   4 C :   -0.109706
   5 H :   -0.005247
   6 C :    0.010109
   7 H :    0.052801
   8 H :    0.032786
   9 C :   -0.016829
  10 H :    0.028618
  11 H :    0.015619
  12 C :   -0.063625
  13 H :    0.030704
  14 H :    0.047689
  15 H :    0.017920
  16 S :    0.095993
  17 C :   -0.070201
  18 C :   -0.047904
  19 C :   -0.031970
  20 C :   -0.100419
  21 H :    0.012933
  22 C :    0.039297
  23 H :    0.026065
  24 H :    0.034007
  25 C :   -0.035487
  26 H :    0.034886
  27 H :    0.016215
  28 C :   -0.069391
  29 H :    0.035315
  30 H :    0.037680
  31 H :    0.026397
  32 H :    0.045297
  33 H :    0.027237
Sum of atomic charges:   -0.0000000

LOEWDIN ATOMIC CHARGES
----------------------
   0 S :    0.394789
   1 C :   -0.199285
   2 C :   -0.061286
   3 C :   -0.076399
   4 C :   -0.175507
   5 H :    0.030104
   6 C :   -0.027172
   7 H :    0.047524
   8 H :    0.023254
   9 C :   -0.040628
  10 H :    0.029018
  11 H :    0.018172
  12 C :   -0.070177
  13 H :    0.021210
  14 H :    0.033185
  15 H :    0.024466
  16 S :    0.391472
  17 C :   -0.175251
  18 C :   -0.072640
  19 C :   -0.065603
  20 C :   -0.184121
  21 H :    0.035840
  22 C :   -0.035313
  23 H :    0.038779
  24 H :    0.031140
  25 C :   -0.033165
  26 H :    0.026673
  27 H :    0.020764
  28 C :   -0.073836
  29 H :    0.030643
  30 H :    0.025392
  31 H :    0.022206
  32 H :    0.026496
  33 H :    0.019254

  Mayer bond orders larger than 0.100000
B(  0-S ,  1-C ) :   1.1395 B(  0-S ,  4-C ) :   1.1325 B(  1-C ,  2-C ) :   1.6427
B(  1-C , 32-H ) :   0.9663 B(  2-C ,  3-C ) :   1.2366 B(  2-C ,  6-C ) :   0.9674
B(  3-C ,  4-C ) :   1.6004 B(  3-C ,  5-H ) :   0.9788 B(  4-C , 20-C ) :   1.0597
B(  6-C ,  7-H ) :   0.9371 B(  6-C ,  8-H ) :   0.9594 B(  6-C ,  9-C ) :   1.0954
B(  9-C , 10-H ) :   0.9474 B(  9-C , 11-H ) :   0.9449 B(  9-C , 12-C ) :   1.0747
B( 12-C , 13-H ) :   0.9757 B( 12-C , 14-H ) :   0.9740 B( 12-C , 15-H ) :   0.9738
B( 16-S , 17-C ) :   1.1345 B( 16-S , 20-C ) :   1.1355 B( 17-C , 18-C ) :   1.6436
B( 17-C , 20-C ) :   0.1000 B( 17-C , 33-H ) :   0.9713 B( 18-C , 19-C ) :   1.2158
B( 18-C , 21-H ) :   0.9945 B( 19-C , 20-C ) :   1.5941 B( 19-C , 22-C ) :   1.0487
B( 22-C , 23-H ) :   0.9325 B( 22-C , 24-H ) :   0.9280 B( 22-C , 25-C ) :   1.0521
B( 25-C , 26-H ) :   0.9546 B( 25-C , 27-H ) :   0.9543 B( 25-C , 28-C ) :   1.0573
B( 28-C , 29-H ) :   0.9785 B( 28-C , 30-H ) :   0.9806 B( 28-C , 31-H ) :   0.9774

Dispersion correction           -0.014635316
FINAL SINGLE POINT ENERGY     -1339.867774593450

DIPOLE MOMENT
-------------
                                X             Y             Z
Electronic contribution:     30.13442      -5.76965      -9.94383
Nuclear contribution   :    -30.86346       5.96655      10.04923
                        -----------------------------------------
Total Dipole Moment    :     -0.72904       0.19690       0.10539
                        -----------------------------------------
Magnitude (a.u.)       :      0.76248
Magnitude (Debye)      :      1.93808

Rotational constants in cm-1:     0.016611     0.010690     0.006969
Rotational constants in MHz :   497.999281   320.483669   208.929962

                             ****ORCA TERMINATED NORMALLY****
TOTAL RUN TIME: 0 days 0 hours 0 minutes 29 seconds 917 msec
