                         Program Version 4.2.1 -  RELEASE  -
|  1> ! wB97X-D3 SP def2-SVP
|  2> %pal
|  3> nprocs 16
|  4> end
|  5>
|  6> * xyz 0 1
|  7> S 	 -12.6087 	 37.9761 	 32.2388
|  8> C 	 -14.2502 	 38.0604 	 32.9463
|  9> C 	 -15.1712 	 38.6522 	 32.1195
| 10> C 	 -14.4581 	 39.2807 	 31.0493
| 11> C 	 -13.1299 	 39.0212 	 30.9702
| 12> H 	 -14.9508 	 39.8701 	 30.2697
| 13> C 	 -16.5997 	 38.8347 	 32.4615
| 14> H 	 -16.7063 	 38.9182 	 33.5237
| 15> H 	 -16.9599 	 37.8245 	 32.1525
| 16> C 	 -17.4607 	 39.8528 	 31.7206
| 17> H 	 -17.3636 	 39.639 	 30.6904
| 18> H 	 -18.5318 	 39.6513 	 31.9259
| 19> C 	 -17.0947 	 41.2236 	 32.1792
| 20> H 	 -16.0887 	 41.2385 	 32.5453
| 21> H 	 -17.2057 	 41.9649 	 31.4261
| 22> H 	 -17.7151 	 41.6055 	 32.9914
| 23> S 	 -11.6228 	 37.8305 	 28.9304
| 24> C 	 -10.7724 	 38.8146 	 27.8964
| 25> C 	 -11.1176 	 40.1722 	 27.9787
| 26> C 	 -12.0383 	 40.3734 	 29.0293
| 27> C 	 -12.3282 	 39.287 	 29.7736
| 28> H 	 -10.7063 	 40.9153 	 27.2526
| 29> C 	 -12.4256 	 41.7654 	 29.396
| 30> H 	 -11.5367 	 42.344 	 29.2025
| 31> H 	 -12.5598 	 41.8525 	 30.4845
| 32> C 	 -13.5939 	 42.4641 	 28.6907
| 33> H 	 -13.8331 	 43.3855 	 29.1981
| 34> H 	 -14.4347 	 41.8205 	 28.8328
| 35> C 	 -13.3187 	 42.6196 	 27.196
| 36> H 	 -13.5155 	 41.7231 	 26.6518
| 37> H 	 -12.3847 	 43.0258 	 26.9595
| 38> H 	 -14.1238 	 43.3573 	 26.9019
| 39> H 	 -14.5673 	 37.5528 	 33.8393
| 40> H 	 -10.1707 	 38.3651 	 27.1021
| 41> *
| 42>
| 43>                          ****END OF INPUT****

CARTESIAN COORDINATES (ANGSTROEM)
---------------------------------
  S    -12.608700   37.976100   32.238800
  C    -14.250200   38.060400   32.946300
  C    -15.171200   38.652200   32.119500
  C    -14.458100   39.280700   31.049300
  C    -13.129900   39.021200   30.970200
  H    -14.950800   39.870100   30.269700
  C    -16.599700   38.834700   32.461500
  H    -16.706300   38.918200   33.523700
  H    -16.959900   37.824500   32.152500
  C    -17.460700   39.852800   31.720600
  H    -17.363600   39.639000   30.690400
  H    -18.531800   39.651300   31.925900
  C    -17.094700   41.223600   32.179200
  H    -16.088700   41.238500   32.545300
  H    -17.205700   41.964900   31.426100
  H    -17.715100   41.605500   32.991400
  S    -11.622800   37.830500   28.930400
  C    -10.772400   38.814600   27.896400
  C    -11.117600   40.172200   27.978700
  C    -12.038300   40.373400   29.029300
  C    -12.328200   39.287000   29.773600
  H    -10.706300   40.915300   27.252600
  C    -12.425600   41.765400   29.396000
  H    -11.536700   42.344000   29.202500
  H    -12.559800   41.852500   30.484500
  C    -13.593900   42.464100   28.690700
  H    -13.833100   43.385500   29.198100
  H    -14.434700   41.820500   28.832800
  C    -13.318700   42.619600   27.196000
  H    -13.515500   41.723100   26.651800
  H    -12.384700   43.025800   26.959500
  H    -14.123800   43.357300   26.901900
  H    -14.567300   37.552800   33.839300
  H    -10.170700   38.365100   27.102100

 Total Charge           Charge          ....    0
 Multiplicity           Mult            ....    1
 Number of Electrons    NEL             ....  134
 Basis Dimension        Dim             ....  322

ORBITAL ENERGIES
----------------

  NO   OCC          E(Eh)            E(eV)
   0   2.0000     -88.967543     -2420.9299
   1   2.0000     -88.959214     -2420.7033
   2   2.0000     -10.323901      -280.9276
   3   2.0000     -10.323074      -280.9051
   4   2.0000     -10.312536      -280.6184
   5   2.0000     -10.311834      -280.5993
   6   2.0000     -10.299985      -280.2768
   7   2.0000     -10.294609      -280.1306
   8   2.0000     -10.292899      -280.0840
   9   2.0000     -10.291899      -280.0568
  10   2.0000     -10.290831      -280.0277
  11   2.0000     -10.286254      -279.9032
  12   2.0000     -10.281233      -279.7666
  13   2.0000     -10.279715      -279.7253
  14   2.0000     -10.273202      -279.5480
  15   2.0000     -10.270596      -279.4771
  16   2.0000      -8.082003      -219.9225
  17   2.0000      -8.075213      -219.7377
  18   2.0000      -6.040506      -164.3705
  19   2.0000      -6.036733      -164.2678
  20   2.0000      -6.033426      -164.1779
  21   2.0000      -6.032587      -164.1550
  22   2.0000      -6.029610      -164.0740
  23   2.0000      -6.026132      -163.9794
  24   2.0000      -1.009695       -27.4752
  25   2.0000      -0.988965       -26.9111
  26   2.0000      -0.924579       -25.1591
  27   2.0000      -0.913207       -24.8496
  28   2.0000      -0.872614       -23.7450
  29   2.0000      -0.856633       -23.3102
  30   2.0000      -0.843583       -22.9551
  31   2.0000      -0.812280       -22.1033
  32   2.0000      -0.787442       -21.4274
  33   2.0000      -0.776713       -21.1354
  34   2.0000      -0.715090       -19.4586
  35   2.0000      -0.704611       -19.1734
  36   2.0000      -0.689621       -18.7655
  37   2.0000      -0.660518       -17.9736
  38   2.0000      -0.637724       -17.3533
  39   2.0000      -0.621920       -16.9233
  40   2.0000      -0.594325       -16.1724
  41   2.0000      -0.573664       -15.6102
  42   2.0000      -0.561777       -15.2867
  43   2.0000      -0.552350       -15.0302
  44   2.0000      -0.543476       -14.7887
  45   2.0000      -0.542769       -14.7695
  46   2.0000      -0.524003       -14.2589
  47   2.0000      -0.507343       -13.8055
  48   2.0000      -0.499444       -13.5906
  49   2.0000      -0.495391       -13.4803
  50   2.0000      -0.490336       -13.3427
  51   2.0000      -0.482449       -13.1281
  52   2.0000      -0.477888       -13.0040
  53   2.0000      -0.475283       -12.9331
  54   2.0000      -0.460588       -12.5332
  55   2.0000      -0.449417       -12.2293
  56   2.0000      -0.443606       -12.0711
  57   2.0000      -0.437390       -11.9020
  58   2.0000      -0.431978       -11.7547
  59   2.0000      -0.429359       -11.6835
  60   2.0000      -0.422960       -11.5093
  61   2.0000      -0.413891       -11.2625
  62   2.0000      -0.408476       -11.1152
  63   2.0000      -0.343506        -9.3473
  64   2.0000      -0.333559        -9.0766
  65   2.0000      -0.324455        -8.8289
  66   2.0000      -0.291198        -7.9239
  67   0.0000       0.034047         0.9265
  68   0.0000       0.066185         1.8010
  69   0.0000       0.114688         3.1208
  70   0.0000       0.121951         3.3185
  71   0.0000       0.128604         3.4995

MULLIKEN ATOMIC CHARGES
-----------------------
   0 S :    0.114471
   1 C :   -0.126182
   2 C :   -0.078837
   3 C :    0.013952
   4 C :   -0.125246
   5 H :    0.008263
   6 C :    0.020545
   7 H :    0.031331
   8 H :    0.041025
   9 C :   -0.034707
  10 H :    0.019918
  11 H :    0.032654
  12 C :   -0.027633
  13 H :    0.034809
  14 H :    0.021176
  15 H :    0.029198
  16 S :    0.097806
  17 C :   -0.091994
  18 C :   -0.062351
  19 C :   -0.009254
  20 C :   -0.166760
  21 H :    0.036065
  22 C :    0.017206
  23 H :    0.014221
  24 H :    0.026948
  25 C :   -0.026462
  26 H :    0.028840
  27 H :    0.009649
  28 C :   -0.040765
  29 H :    0.040439
  30 H :    0.020540
  31 H :    0.032710
  32 H :    0.035541
  33 H :    0.062885
Sum of atomic charges:   -0.0000000

LOEWDIN ATOMIC CHARGES
----------------------
   0 S :    0.402941
   1 C :   -0.182530
   2 C :   -0.060581
   3 C :   -0.063429
   4 C :   -0.206844
   5 H :    0.028717
   6 C :   -0.035168
   7 H :    0.029327
   8 H :    0.044983
   9 C :   -0.040433
  10 H :    0.018756
  11 H :    0.033464
  12 C :   -0.064100
  13 H :    0.025714
  14 H :    0.021937
  15 H :    0.030415
  16 S :    0.405778
  17 C :   -0.205403
  18 C :   -0.085224
  19 C :   -0.063737
  20 C :   -0.171807
  21 H :    0.040311
  22 C :   -0.035470
  23 H :    0.025494
  24 H :    0.031093
  25 C :   -0.031937
  26 H :    0.024019
  27 H :    0.017667
  28 C :   -0.059873
  29 H :    0.025509
  30 H :    0.012775
  31 H :    0.035921
  32 H :    0.022373
  33 H :    0.029344

  Mayer bond orders larger than 0.100000
B(  0-S ,  1-C ) :   1.1249 B(  0-S ,  4-C ) :   1.1444 B(  1-C ,  2-C ) :   1.6330
B(  1-C , 32-H ) :   0.9678 B(  2-C ,  3-C ) :   1.2398 B(  2-C ,  6-C ) :   1.0019
B(  3-C ,  4-C ) :   1.5826 B(  3-C ,  5-H ) :   0.9838 B(  4-C , 20-C ) :   1.0262
B(  6-C ,  7-H ) :   0.9514 B(  6-C ,  8-H ) :   0.9154 B(  6-C ,  9-C ) :   1.1039
B(  9-C , 10-H ) :   0.9494 B(  9-C , 11-H ) :   0.9504 B(  9-C , 12-C ) :   1.0650
B( 12-C , 13-H ) :   0.9810 B( 12-C , 14-H ) :   0.9728 B( 12-C , 15-H ) :   0.9704
B( 16-S , 17-C ) :   1.1958 B( 16-S , 20-C ) :   1.1168 B( 17-C , 18-C ) :   1.5765
B( 17-C , 33-H ) :   0.9621 B( 18-C , 19-C ) :   1.2358 B( 18-C , 21-H ) :   0.9888
B( 19-C , 20-C ) :   1.6398 B( 19-C , 22-C ) :   1.0335 B( 22-C , 23-H ) :   0.9433
B( 22-C , 24-H ) :   0.9361 B( 22-C , 25-C ) :   1.0774 B( 25-C , 26-H ) :   0.9563
B( 25-C , 27-H ) :   0.9477 B( 25-C , 28-C ) :   1.0814 B( 28-C , 29-H ) :   0.9720
B( 28-C , 30-H ) :   0.9783 B( 28-C , 31-H ) :   0.9722

Dispersion correction           -0.014980223
FINAL SINGLE POINT ENERGY     -1339.868912343910

DIPOLE MOMENT
-------------
                                X             Y             Z
Electronic contribution:     19.28571     -21.53587       3.48274
Nuclear contribution   :    -19.92075      21.91930      -3.60591
                        -----------------------------------------
Total Dipole Moment    :     -0.63504       0.38343      -0.12317
                        -----------------------------------------
Magnitude (a.u.)       :      0.75197
Magnitude (Debye)      :      1.91136

Rotational constants in cm-1:     0.017548     0.010239     0.007103
Rotational constants in MHz :   526.061684   306.952091   212.941056

                             ****ORCA TERMINATED NORMALLY****
TOTAL RUN TIME: 0 days 0 hours 0 minutes 35 seconds 763 msec
