                         Program Version 4.2.1 -  RELEASE  -
|  1> ! wB97X-D3 SP def2-SVP
|  2> %pal
|  3> nprocs 16
|  4> end
|  5>
|  6> * xyz 0 1
|  7> S 	 45.8007 	 13.082 	 103.785
|  8> C 	 47.2145 	 12.5752 	 104.564
|  9> C 	 47.818 	 11.5146 	 103.925
| 10> C 	 47.0879 	 11.1907 	 102.78
| 11> C 	 45.9873 	 11.9148 	 102.51
| 12> H 	 47.2494 	 10.3266 	 102.098
| 13> C 	 49.0421 	 10.7228 	 104.401
| 14> H 	 49.2837 	 10.9613 	 105.446
| 15> H 	 49.8799 	 11.183 	 103.893
| 16> C 	 48.9519 	 9.19462 	 104.185
| 17> H 	 48.6126 	 9.06795 	 103.19
| 18> H 	 49.9519 	 8.73287 	 104.209
| 19> C 	 47.9531 	 8.43851 	 105.116
| 20> H 	 46.9337 	 8.57892 	 104.732
| 21> H 	 48.1764 	 7.39129 	 105.138
| 22> H 	 48.1075 	 8.72635 	 106.08
| 23> S 	 43.3482 	 11.4428 	 102.264
| 24> C 	 42.693 	 10.7342 	 100.805
| 25> C 	 43.6061 	 10.5793 	 99.8232
| 26> C 	 44.8588 	 11.228 	 100.186
| 27> C 	 44.9288 	 11.6671 	 101.54
| 28> H 	 43.3378 	 10.1282 	 98.8513
| 29> C 	 45.9725 	 11.388 	 99.1417
| 30> H 	 45.7399 	 10.6923 	 98.2886
| 31> H 	 46.827 	 11.1108 	 99.7365
| 32> C 	 46.1205 	 12.7657 	 98.5097
| 33> H 	 45.2059 	 13.2659 	 98.183
| 34> H 	 46.6984 	 12.6119 	 97.5067
| 35> C 	 46.8032 	 13.7183 	 99.4393
| 36> H 	 47.0497 	 14.5946 	 98.7862
| 37> H 	 47.7671 	 13.2954 	 99.8859
| 38> H 	 46.2081 	 14.0469 	 100.238
| 39> H 	 47.7048 	 13.0591 	 105.409
| 40> H 	 41.7442 	 10.2029 	 100.877
| 41> *
| 42>
| 43>                          ****END OF INPUT****

CARTESIAN COORDINATES (ANGSTROEM)
---------------------------------
  S     45.800700   13.082000  103.785000
  C     47.214500   12.575200  104.564000
  C     47.818000   11.514600  103.925000
  C     47.087900   11.190700  102.780000
  C     45.987300   11.914800  102.510000
  H     47.249400   10.326600  102.098000
  C     49.042100   10.722800  104.401000
  H     49.283700   10.961300  105.446000
  H     49.879900   11.183000  103.893000
  C     48.951900    9.194620  104.185000
  H     48.612600    9.067950  103.190000
  H     49.951900    8.732870  104.209000
  C     47.953100    8.438510  105.116000
  H     46.933700    8.578920  104.732000
  H     48.176400    7.391290  105.138000
  H     48.107500    8.726350  106.080000
  S     43.348200   11.442800  102.264000
  C     42.693000   10.734200  100.805000
  C     43.606100   10.579300   99.823200
  C     44.858800   11.228000  100.186000
  C     44.928800   11.667100  101.540000
  H     43.337800   10.128200   98.851300
  C     45.972500   11.388000   99.141700
  H     45.739900   10.692300   98.288600
  H     46.827000   11.110800   99.736500
  C     46.120500   12.765700   98.509700
  H     45.205900   13.265900   98.183000
  H     46.698400   12.611900   97.506700
  C     46.803200   13.718300   99.439300
  H     47.049700   14.594600   98.786200
  H     47.767100   13.295400   99.885900
  H     46.208100   14.046900  100.238000
  H     47.704800   13.059100  105.409000
  H     41.744200   10.202900  100.877000

 Total Charge           Charge          ....    0
 Multiplicity           Mult            ....    1
 Number of Electrons    NEL             ....  134
 Basis Dimension        Dim             ....  322

ORBITAL ENERGIES
----------------

  NO   OCC          E(Eh)            E(eV)
   0   2.0000     -88.964918     -2420.8585
   1   2.0000     -88.961632     -2420.7691
   2   2.0000     -10.331635      -281.1381
   3   2.0000     -10.326331      -280.9938
   4   2.0000     -10.315576      -280.7011
   5   2.0000     -10.311327      -280.5855
   6   2.0000     -10.309438      -280.5341
   7   2.0000     -10.298132      -280.2264
   8   2.0000     -10.297825      -280.2181
   9   2.0000     -10.294764      -280.1348
  10   2.0000     -10.291566      -280.0477
  11   2.0000     -10.289082      -279.9802
  12   2.0000     -10.288073      -279.9527
  13   2.0000     -10.286681      -279.9148
  14   2.0000     -10.271102      -279.4909
  15   2.0000     -10.269064      -279.4354
  16   2.0000      -8.080979      -219.8946
  17   2.0000      -8.076904      -219.7837
  18   2.0000      -6.039391      -164.3402
  19   2.0000      -6.035410      -164.2319
  20   2.0000      -6.035168      -164.2253
  21   2.0000      -6.031887      -164.1360
  22   2.0000      -6.031268      -164.1192
  23   2.0000      -6.027674      -164.0214
  24   2.0000      -1.016785       -27.6681
  25   2.0000      -0.988310       -26.8933
  26   2.0000      -0.910058       -24.7639
  27   2.0000      -0.908558       -24.7231
  28   2.0000      -0.875185       -23.8150
  29   2.0000      -0.850510       -23.1436
  30   2.0000      -0.843259       -22.9462
  31   2.0000      -0.819755       -22.3067
  32   2.0000      -0.785564       -21.3763
  33   2.0000      -0.769958       -20.9516
  34   2.0000      -0.712103       -19.3773
  35   2.0000      -0.693882       -18.8815
  36   2.0000      -0.687689       -18.7130
  37   2.0000      -0.658727       -17.9249
  38   2.0000      -0.644106       -17.5270
  39   2.0000      -0.625731       -17.0270
  40   2.0000      -0.591945       -16.1076
  41   2.0000      -0.569825       -15.5057
  42   2.0000      -0.551515       -15.0075
  43   2.0000      -0.547017       -14.8851
  44   2.0000      -0.542687       -14.7673
  45   2.0000      -0.535319       -14.5668
  46   2.0000      -0.520312       -14.1584
  47   2.0000      -0.511325       -13.9139
  48   2.0000      -0.506810       -13.7910
  49   2.0000      -0.500986       -13.6325
  50   2.0000      -0.488855       -13.3024
  51   2.0000      -0.477864       -13.0034
  52   2.0000      -0.476080       -12.9548
  53   2.0000      -0.464231       -12.6324
  54   2.0000      -0.457841       -12.4585
  55   2.0000      -0.448213       -12.1965
  56   2.0000      -0.441941       -12.0258
  57   2.0000      -0.438682       -11.9371
  58   2.0000      -0.432055       -11.7568
  59   2.0000      -0.423244       -11.5170
  60   2.0000      -0.418177       -11.3792
  61   2.0000      -0.414493       -11.2789
  62   2.0000      -0.399288       -10.8652
  63   2.0000      -0.357784        -9.7358
  64   2.0000      -0.333740        -9.0815
  65   2.0000      -0.325946        -8.8694
  66   2.0000      -0.288837        -7.8597
  67   0.0000       0.030695         0.8352
  68   0.0000       0.069081         1.8798
  69   0.0000       0.111434         3.0323
  70   0.0000       0.123981         3.3737
  71   0.0000       0.139197         3.7878

MULLIKEN ATOMIC CHARGES
-----------------------
   0 S :    0.114171
   1 C :   -0.113041
   2 C :   -0.099193
   3 C :   -0.003958
   4 C :   -0.160634
   5 H :    0.027267
   6 C :    0.092622
   7 H :    0.012047
   8 H :    0.034666
   9 C :   -0.087500
  10 H :    0.014628
  11 H :    0.029946
  12 C :   -0.000106
  13 H :    0.049586
  14 H :    0.023367
  15 H :    0.007510
  16 S :    0.085371
  17 C :   -0.090423
  18 C :   -0.028726
  19 C :   -0.107883
  20 C :   -0.119044
  21 H :    0.037304
  22 C :    0.086120
  23 H :    0.024098
  24 H :    0.017909
  25 C :   -0.078550
  26 H :    0.029303
  27 H :    0.038241
  28 C :   -0.057583
  29 H :    0.034586
  30 H :    0.035897
  31 H :    0.038293
  32 H :    0.046929
  33 H :    0.066777
Sum of atomic charges:   -0.0000000

LOEWDIN ATOMIC CHARGES
----------------------
   0 S :    0.430678
   1 C :   -0.212781
   2 C :   -0.070125
   3 C :   -0.074393
   4 C :   -0.204123
   5 H :    0.035550
   6 C :   -0.028758
   7 H :    0.027046
   8 H :    0.034405
   9 C :   -0.037003
  10 H :    0.014955
  11 H :    0.026979
  12 C :   -0.051683
  13 H :    0.033750
  14 H :    0.026361
  15 H :    0.010650
  16 S :    0.402140
  17 C :   -0.182615
  18 C :   -0.076835
  19 C :   -0.052113
  20 C :   -0.204296
  21 H :    0.040932
  22 C :   -0.035655
  23 H :    0.034101
  24 H :    0.027699
  25 C :   -0.048535
  26 H :    0.026747
  27 H :    0.032057
  28 C :   -0.067872
  29 H :    0.031975
  30 H :    0.029915
  31 H :    0.017736
  32 H :    0.032367
  33 H :    0.030744

  Mayer bond orders larger than 0.100000
B(  0-S ,  1-C ) :   1.1591 B(  0-S ,  4-C ) :   1.1515 B(  1-C ,  2-C ) :   1.6025
B(  1-C , 32-H ) :   0.9633 B(  2-C ,  3-C ) :   1.2619 B(  2-C ,  6-C ) :   1.0021
B(  3-C ,  4-C ) :   1.6013 B(  3-C ,  5-H ) :   0.9772 B(  4-C , 20-C ) :   1.0175
B(  6-C ,  7-H ) :   0.9444 B(  6-C ,  8-H ) :   0.9328 B(  6-C ,  9-C ) :   1.0742
B(  9-C , 10-H ) :   0.9566 B(  9-C , 11-H ) :   0.9554 B(  9-C , 12-C ) :   1.0702
B( 12-C , 13-H ) :   0.9768 B( 12-C , 14-H ) :   0.9733 B( 12-C , 15-H ) :   0.9768
B( 16-S , 17-C ) :   1.1595 B( 16-S , 20-C ) :   1.1362 B( 17-C , 18-C ) :   1.6242
B( 17-C , 33-H ) :   0.9598 B( 18-C , 19-C ) :   1.2442 B( 18-C , 21-H ) :   0.9861
B( 19-C , 20-C ) :   1.5841 B( 19-C , 22-C ) :   1.0313 B( 22-C , 23-H ) :   0.9340
B( 22-C , 24-H ) :   0.9360 B( 22-C , 25-C ) :   1.0693 B( 25-C , 26-H ) :   0.9492
B( 25-C , 27-H ) :   0.9556 B( 25-C , 28-C ) :   1.0824 B( 28-C , 29-H ) :   0.9697
B( 28-C , 30-H ) :   0.9742 B( 28-C , 31-H ) :   0.9722

Dispersion correction           -0.015038458
FINAL SINGLE POINT ENERGY     -1339.867897627110

DIPOLE MOMENT
-------------
                                X             Y             Z
Electronic contribution:    -17.85827       8.00420       6.39190
Nuclear contribution   :     18.24294      -8.46523      -6.61161
                        -----------------------------------------
Total Dipole Moment    :      0.38467      -0.46103      -0.21971
                        -----------------------------------------
Magnitude (a.u.)       :      0.63937
Magnitude (Debye)      :      1.62516

Rotational constants in cm-1:     0.018608     0.008908     0.008324
Rotational constants in MHz :   557.856035   267.062714   249.536107

                             ****ORCA TERMINATED NORMALLY****
TOTAL RUN TIME: 0 days 0 hours 0 minutes 31 seconds 560 msec
