                         Program Version 4.2.1 -  RELEASE  -
|  1> ! wB97X-D3 SP def2-SVP
|  2> %pal
|  3> nprocs 16
|  4> end
|  5>
|  6> * xyz 0 1
|  7> S 	 -52.2843 	 40.4437 	 103.678
|  8> C 	 -51.8058 	 42.063 	 103.201
|  9> C 	 -51.7658 	 42.8955 	 104.332
| 10> C 	 -52.0792 	 42.2327 	 105.523
| 11> C 	 -52.331 	 40.8669 	 105.395
| 12> H 	 -52.2714 	 42.6926 	 106.421
| 13> C 	 -51.6763 	 44.4473 	 104.384
| 14> H 	 -52.1523 	 44.7786 	 105.326
| 15> H 	 -52.2661 	 44.9373 	 103.619
| 16> C 	 -50.2329 	 44.9152 	 104.363
| 17> H 	 -49.606 	 44.3618 	 105.111
| 18> H 	 -49.812 	 44.6635 	 103.379
| 19> C 	 -50.099 	 46.4756 	 104.406
| 20> H 	 -49.1401 	 46.7869 	 104.112
| 21> H 	 -50.8938 	 46.8912 	 103.832
| 22> H 	 -50.1652 	 46.8629 	 105.429
| 23> S 	 -53.8319 	 38.6534 	 106.034
| 24> C 	 -53.9149 	 38.2446 	 107.747
| 25> C 	 -52.9334 	 38.8169 	 108.501
| 26> C 	 -52.2811 	 39.8205 	 107.731
| 27> C 	 -52.7305 	 39.9525 	 106.442
| 28> H 	 -52.8918 	 38.4813 	 109.522
| 29> C 	 -51.122 	 40.6158 	 108.313
| 30> H 	 -50.7742 	 41.1501 	 107.362
| 31> H 	 -50.3 	 39.8961 	 108.449
| 32> C 	 -51.5042 	 41.4403 	 109.614
| 33> H 	 -50.6202 	 41.9281 	 110.023
| 34> H 	 -51.8721 	 40.6793 	 110.286
| 35> C 	 -52.5235 	 42.5323 	 109.403
| 36> H 	 -53.5386 	 42.2089 	 109.055
| 37> H 	 -52.191 	 43.2262 	 108.617
| 38> H 	 -52.8241 	 43.1057 	 110.253
| 39> H 	 -51.5905 	 42.4017 	 102.225
| 40> H 	 -54.3812 	 37.3226 	 108.157
| 41> *
| 42>
| 43>                          ****END OF INPUT****

CARTESIAN COORDINATES (ANGSTROEM)
---------------------------------
  S    -52.284300   40.443700  103.678000
  C    -51.805800   42.063000  103.201000
  C    -51.765800   42.895500  104.332000
  C    -52.079200   42.232700  105.523000
  C    -52.331000   40.866900  105.395000
  H    -52.271400   42.692600  106.421000
  C    -51.676300   44.447300  104.384000
  H    -52.152300   44.778600  105.326000
  H    -52.266100   44.937300  103.619000
  C    -50.232900   44.915200  104.363000
  H    -49.606000   44.361800  105.111000
  H    -49.812000   44.663500  103.379000
  C    -50.099000   46.475600  104.406000
  H    -49.140100   46.786900  104.112000
  H    -50.893800   46.891200  103.832000
  H    -50.165200   46.862900  105.429000
  S    -53.831900   38.653400  106.034000
  C    -53.914900   38.244600  107.747000
  C    -52.933400   38.816900  108.501000
  C    -52.281100   39.820500  107.731000
  C    -52.730500   39.952500  106.442000
  H    -52.891800   38.481300  109.522000
  C    -51.122000   40.615800  108.313000
  H    -50.774200   41.150100  107.362000
  H    -50.300000   39.896100  108.449000
  C    -51.504200   41.440300  109.614000
  H    -50.620200   41.928100  110.023000
  H    -51.872100   40.679300  110.286000
  C    -52.523500   42.532300  109.403000
  H    -53.538600   42.208900  109.055000
  H    -52.191000   43.226200  108.617000
  H    -52.824100   43.105700  110.253000
  H    -51.590500   42.401700  102.225000
  H    -54.381200   37.322600  108.157000

 Total Charge           Charge          ....    0
 Multiplicity           Mult            ....    1
 Number of Electrons    NEL             ....  134
 Basis Dimension        Dim             ....  322

ORBITAL ENERGIES
----------------

  NO   OCC          E(Eh)            E(eV)
   0   2.0000     -88.970642     -2421.0143
   1   2.0000     -88.965355     -2420.8704
   2   2.0000     -10.331890      -281.1450
   3   2.0000     -10.325614      -280.9743
   4   2.0000     -10.317291      -280.7478
   5   2.0000     -10.316433      -280.7244
   6   2.0000     -10.302046      -280.3329
   7   2.0000     -10.301775      -280.3255
   8   2.0000     -10.295364      -280.1511
   9   2.0000     -10.294686      -280.1327
  10   2.0000     -10.293443      -280.0988
  11   2.0000     -10.292768      -280.0805
  12   2.0000     -10.289374      -279.9881
  13   2.0000     -10.285069      -279.8710
  14   2.0000     -10.278681      -279.6971
  15   2.0000     -10.273839      -279.5654
  16   2.0000      -8.084557      -219.9920
  17   2.0000      -8.080247      -219.8747
  18   2.0000      -6.043136      -164.4421
  19   2.0000      -6.039097      -164.3322
  20   2.0000      -6.038740      -164.3225
  21   2.0000      -6.035389      -164.2313
  22   2.0000      -6.035099      -164.2234
  23   2.0000      -6.030640      -164.1021
  24   2.0000      -1.009424       -27.4678
  25   2.0000      -0.985031       -26.8041
  26   2.0000      -0.908729       -24.7278
  27   2.0000      -0.903961       -24.5980
  28   2.0000      -0.873028       -23.7563
  29   2.0000      -0.853903       -23.2359
  30   2.0000      -0.846516       -23.0349
  31   2.0000      -0.816688       -22.2232
  32   2.0000      -0.781879       -21.2760
  33   2.0000      -0.771076       -20.9821
  34   2.0000      -0.711062       -19.3490
  35   2.0000      -0.701527       -19.0895
  36   2.0000      -0.695287       -18.9197
  37   2.0000      -0.661214       -17.9925
  38   2.0000      -0.644202       -17.5296
  39   2.0000      -0.625222       -17.0131
  40   2.0000      -0.586110       -15.9489
  41   2.0000      -0.571258       -15.5447
  42   2.0000      -0.559086       -15.2135
  43   2.0000      -0.549003       -14.9391
  44   2.0000      -0.545126       -14.8336
  45   2.0000      -0.529952       -14.4207
  46   2.0000      -0.521373       -14.1873
  47   2.0000      -0.511558       -13.9202
  48   2.0000      -0.499531       -13.5929
  49   2.0000      -0.498951       -13.5772
  50   2.0000      -0.493858       -13.4386
  51   2.0000      -0.479918       -13.0592
  52   2.0000      -0.468472       -12.7478
  53   2.0000      -0.467154       -12.7119
  54   2.0000      -0.456007       -12.4086
  55   2.0000      -0.448237       -12.1971
  56   2.0000      -0.446238       -12.1428
  57   2.0000      -0.442465       -12.0401
  58   2.0000      -0.435163       -11.8414
  59   2.0000      -0.421082       -11.4582
  60   2.0000      -0.418584       -11.3902
  61   2.0000      -0.413011       -11.2386
  62   2.0000      -0.409943       -11.1551
  63   2.0000      -0.357728        -9.7343
  64   2.0000      -0.336714        -9.1625
  65   2.0000      -0.329757        -8.9732
  66   2.0000      -0.283324        -7.7096
  67   0.0000       0.020248         0.5510
  68   0.0000       0.069568         1.8930
  69   0.0000       0.103011         2.8031
  70   0.0000       0.117784         3.2051
  71   0.0000       0.139146         3.7863

MULLIKEN ATOMIC CHARGES
-----------------------
   0 S :    0.109230
   1 C :   -0.101481
   2 C :   -0.065715
   3 C :    0.052758
   4 C :   -0.142002
   5 H :   -0.047888
   6 C :    0.055426
   7 H :    0.023489
   8 H :    0.027081
   9 C :   -0.109966
  10 H :    0.039610
  11 H :    0.024286
  12 C :   -0.002972
  13 H :    0.022514
  14 H :    0.024267
  15 H :    0.025275
  16 S :    0.095252
  17 C :   -0.090099
  18 C :   -0.045310
  19 C :   -0.061828
  20 C :   -0.124293
  21 H :    0.025524
  22 C :    0.021184
  23 H :    0.035043
  24 H :    0.040507
  25 C :   -0.025224
  26 H :    0.038446
  27 H :    0.029733
  28 C :   -0.069056
  29 H :    0.035014
  30 H :    0.038541
  31 H :    0.028431
  32 H :    0.031741
  33 H :    0.062481
Sum of atomic charges:   -0.0000000

LOEWDIN ATOMIC CHARGES
----------------------
   0 S :    0.403101
   1 C :   -0.192025
   2 C :   -0.056951
   3 C :   -0.059388
   4 C :   -0.182805
   5 H :    0.014190
   6 C :   -0.028124
   7 H :    0.029729
   8 H :    0.026911
   9 C :   -0.043922
  10 H :    0.028481
  11 H :    0.022047
  12 C :   -0.058539
  13 H :    0.019224
  14 H :    0.021668
  15 H :    0.025023
  16 S :    0.388958
  17 C :   -0.178703
  18 C :   -0.071439
  19 C :   -0.057901
  20 C :   -0.197151
  21 H :    0.036193
  22 C :   -0.042339
  23 H :    0.038258
  24 H :    0.035484
  25 C :   -0.032966
  26 H :    0.028411
  27 H :    0.022914
  28 C :   -0.074403
  29 H :    0.030524
  30 H :    0.024827
  31 H :    0.024677
  32 H :    0.021507
  33 H :    0.034525

  Mayer bond orders larger than 0.100000
B(  0-S ,  1-C ) :   1.1440 B(  0-S ,  4-C ) :   1.1517 B(  1-C ,  2-C ) :   1.5724
B(  1-C ,  4-C ) :   0.1096 B(  1-C , 32-H ) :   0.9775 B(  2-C ,  3-C ) :   1.2880
B(  2-C ,  6-C ) :   1.0067 B(  3-C ,  4-C ) :   1.5236 B(  3-C ,  5-H ) :   1.0027
B(  4-C , 20-C ) :   1.0836 B(  6-C ,  7-H ) :   0.9514 B(  6-C ,  8-H ) :   0.9433
B(  6-C ,  9-C ) :   1.0590 B(  9-C , 10-H ) :   0.9580 B(  9-C , 11-H ) :   0.9602
B(  9-C , 12-C ) :   1.0713 B( 12-C , 13-H ) :   0.9761 B( 12-C , 14-H ) :   0.9731
B( 12-C , 15-H ) :   0.9759 B( 16-S , 17-C ) :   1.1439 B( 16-S , 20-C ) :   1.1130
B( 17-C , 18-C ) :   1.6609 B( 17-C , 33-H ) :   0.9540 B( 18-C , 19-C ) :   1.1964
B( 18-C , 21-H ) :   0.9943 B( 19-C , 20-C ) :   1.6095 B( 19-C , 22-C ) :   1.0255
B( 22-C , 23-H ) :   0.9390 B( 22-C , 24-H ) :   0.9379 B( 22-C , 25-C ) :   1.0436
B( 25-C , 26-H ) :   0.9567 B( 25-C , 27-H ) :   0.9570 B( 25-C , 28-C ) :   1.0812
B( 28-C , 29-H ) :   0.9710 B( 28-C , 30-H ) :   0.9670 B( 28-C , 31-H ) :   0.9690

Dispersion correction           -0.014646201
FINAL SINGLE POINT ENERGY     -1339.867450750610

DIPOLE MOMENT
-------------
                                X             Y             Z
Electronic contribution:    -11.17457     -26.71697     -11.68915
Nuclear contribution   :     11.39423      27.12284      12.14397
                        -----------------------------------------
Total Dipole Moment    :      0.21966       0.40587       0.45482
                        -----------------------------------------
Magnitude (a.u.)       :      0.64795
Magnitude (Debye)      :      1.64696

Rotational constants in cm-1:     0.019605     0.008897     0.006479
Rotational constants in MHz :   587.736682   266.733343   194.229861

                             ****ORCA TERMINATED NORMALLY****
TOTAL RUN TIME: 0 days 0 hours 0 minutes 30 seconds 729 msec
