                         Program Version 4.2.1 -  RELEASE  -
|  1> ! wB97X-D3 SP def2-SVP
|  2> %pal
|  3> nprocs 16
|  4> end
|  5>
|  6> * xyz 0 1
|  7> S 	 -36.6059 	 40.7981 	 95.2091
|  8> C 	 -37.3592 	 42.3674 	 95.3132
|  9> C 	 -38.6791 	 42.3798 	 94.9397
| 10> C 	 -39.1201 	 41.068 	 94.71
| 11> C 	 -38.1379 	 40.1334 	 94.7359
| 12> H 	 -40.1673 	 40.8532 	 94.5628
| 13> C 	 -39.6338 	 43.5493 	 94.9804
| 14> H 	 -39.6444 	 43.9906 	 94.0049
| 15> H 	 -39.1082 	 44.2557 	 95.5475
| 16> C 	 -41.0525 	 43.4359 	 95.5234
| 17> H 	 -41.5891 	 42.7173 	 94.9064
| 18> H 	 -40.9297 	 42.9138 	 96.4056
| 19> C 	 -41.9232 	 44.7126 	 95.4175
| 20> H 	 -43.0094 	 44.5231 	 95.6445
| 21> H 	 -41.5142 	 45.4885 	 96.0163
| 22> H 	 -41.8765 	 45.1701 	 94.3988
| 23> S 	 -37.0957 	 37.6755 	 95.2913
| 24> C 	 -37.6164 	 36.3405 	 94.4057
| 25> C 	 -38.6423 	 36.5677 	 93.6007
| 26> C 	 -39.0242 	 37.9003 	 93.65
| 27> C 	 -38.1776 	 38.698 	 94.4417
| 28> H 	 -39.0208 	 35.8281 	 92.9253
| 29> C 	 -40.2655 	 38.2893 	 92.8462
| 30> H 	 -40.1713 	 37.839 	 91.8784
| 31> H 	 -40.3838 	 39.3605 	 92.7528
| 32> C 	 -41.6757 	 37.7552 	 93.2859
| 33> H 	 -41.7783 	 38.1537 	 94.2799
| 34> H 	 -41.6225 	 36.6811 	 93.4111
| 35> C 	 -42.7766 	 38.1571 	 92.3178
| 36> H 	 -42.9601 	 39.2065 	 92.3811
| 37> H 	 -43.6866 	 37.6382 	 92.5213
| 38> H 	 -42.4357 	 37.7934 	 91.3179
| 39> H 	 -36.9541 	 43.1832 	 95.9386
| 40> H 	 -37.0551 	 35.4282 	 94.3362
| 41> *
| 42>
| 43>                          ****END OF INPUT****

CARTESIAN COORDINATES (ANGSTROEM)
---------------------------------
  S    -36.605900   40.798100   95.209100
  C    -37.359200   42.367400   95.313200
  C    -38.679100   42.379800   94.939700
  C    -39.120100   41.068000   94.710000
  C    -38.137900   40.133400   94.735900
  H    -40.167300   40.853200   94.562800
  C    -39.633800   43.549300   94.980400
  H    -39.644400   43.990600   94.004900
  H    -39.108200   44.255700   95.547500
  C    -41.052500   43.435900   95.523400
  H    -41.589100   42.717300   94.906400
  H    -40.929700   42.913800   96.405600
  C    -41.923200   44.712600   95.417500
  H    -43.009400   44.523100   95.644500
  H    -41.514200   45.488500   96.016300
  H    -41.876500   45.170100   94.398800
  S    -37.095700   37.675500   95.291300
  C    -37.616400   36.340500   94.405700
  C    -38.642300   36.567700   93.600700
  C    -39.024200   37.900300   93.650000
  C    -38.177600   38.698000   94.441700
  H    -39.020800   35.828100   92.925300
  C    -40.265500   38.289300   92.846200
  H    -40.171300   37.839000   91.878400
  H    -40.383800   39.360500   92.752800
  C    -41.675700   37.755200   93.285900
  H    -41.778300   38.153700   94.279900
  H    -41.622500   36.681100   93.411100
  C    -42.776600   38.157100   92.317800
  H    -42.960100   39.206500   92.381100
  H    -43.686600   37.638200   92.521300
  H    -42.435700   37.793400   91.317900
  H    -36.954100   43.183200   95.938600
  H    -37.055100   35.428200   94.336200

 Total Charge           Charge          ....    0
 Multiplicity           Mult            ....    1
 Number of Electrons    NEL             ....  134
 Basis Dimension        Dim             ....  322

ORBITAL ENERGIES
----------------

  NO   OCC          E(Eh)            E(eV)
   0   2.0000     -88.965736     -2420.8808
   1   2.0000     -88.963903     -2420.8309
   2   2.0000     -10.325986      -280.9844
   3   2.0000     -10.324148      -280.9343
   4   2.0000     -10.310124      -280.5527
   5   2.0000     -10.302372      -280.3418
   6   2.0000     -10.299743      -280.2703
   7   2.0000     -10.296999      -280.1956
   8   2.0000     -10.289767      -279.9988
   9   2.0000     -10.286676      -279.9147
  10   2.0000     -10.285585      -279.8850
  11   2.0000     -10.285470      -279.8819
  12   2.0000     -10.284315      -279.8504
  13   2.0000     -10.283253      -279.8215
  14   2.0000     -10.280319      -279.7417
  15   2.0000     -10.279671      -279.7241
  16   2.0000      -8.081051      -219.8966
  17   2.0000      -8.080821      -219.8903
  18   2.0000      -6.039546      -164.3444
  19   2.0000      -6.039124      -164.3329
  20   2.0000      -6.035613      -164.2374
  21   2.0000      -6.035049      -164.2220
  22   2.0000      -6.031662      -164.1299
  23   2.0000      -6.031652      -164.1296
  24   2.0000      -1.020618       -27.7724
  25   2.0000      -0.997185       -27.1348
  26   2.0000      -0.918004       -24.9802
  27   2.0000      -0.909647       -24.7528
  28   2.0000      -0.875279       -23.8176
  29   2.0000      -0.857492       -23.3335
  30   2.0000      -0.850473       -23.1426
  31   2.0000      -0.819331       -22.2951
  32   2.0000      -0.787180       -21.4203
  33   2.0000      -0.774038       -21.0626
  34   2.0000      -0.719688       -19.5837
  35   2.0000      -0.700190       -19.0531
  36   2.0000      -0.691992       -18.8300
  37   2.0000      -0.664937       -18.0939
  38   2.0000      -0.639481       -17.4012
  39   2.0000      -0.628844       -17.1117
  40   2.0000      -0.603098       -16.4111
  41   2.0000      -0.575195       -15.6518
  42   2.0000      -0.573088       -15.5945
  43   2.0000      -0.564471       -15.3600
  44   2.0000      -0.530143       -14.4259
  45   2.0000      -0.523107       -14.2345
  46   2.0000      -0.517360       -14.0781
  47   2.0000      -0.509230       -13.8568
  48   2.0000      -0.506592       -13.7851
  49   2.0000      -0.502315       -13.6687
  50   2.0000      -0.489387       -13.3169
  51   2.0000      -0.478133       -13.0107
  52   2.0000      -0.475993       -12.9524
  53   2.0000      -0.474190       -12.9034
  54   2.0000      -0.463026       -12.5996
  55   2.0000      -0.458310       -12.4712
  56   2.0000      -0.455019       -12.3817
  57   2.0000      -0.437614       -11.9081
  58   2.0000      -0.434323       -11.8185
  59   2.0000      -0.426880       -11.6160
  60   2.0000      -0.424776       -11.5588
  61   2.0000      -0.419736       -11.4216
  62   2.0000      -0.414779       -11.2867
  63   2.0000      -0.354457        -9.6453
  64   2.0000      -0.336627        -9.1601
  65   2.0000      -0.330382        -8.9902
  66   2.0000      -0.284211        -7.7338
  67   0.0000       0.024622         0.6700
  68   0.0000       0.084878         2.3096
  69   0.0000       0.108089         2.9413
  70   0.0000       0.123266         3.3542
  71   0.0000       0.128379         3.4934

MULLIKEN ATOMIC CHARGES
-----------------------
   0 S :    0.104804
   1 C :   -0.136044
   2 C :   -0.101087
   3 C :   -0.021623
   4 C :   -0.095449
   5 H :    0.003121
   6 C :    0.108543
   7 H :    0.025169
   8 H :   -0.011197
   9 C :   -0.052496
  10 H :    0.022752
  11 H :    0.017472
  12 C :   -0.050925
  13 H :    0.054556
  14 H :    0.026596
  15 H :    0.033083
  16 S :    0.110579
  17 C :   -0.065144
  18 C :   -0.034379
  19 C :   -0.022528
  20 C :   -0.134862
  21 H :    0.010731
  22 C :    0.044366
  23 H :    0.007623
  24 H :    0.011409
  25 C :   -0.077730
  26 H :    0.019296
  27 H :    0.019095
  28 C :   -0.015068
  29 H :    0.034350
  30 H :    0.030987
  31 H :    0.029815
  32 H :    0.058462
  33 H :    0.045723
Sum of atomic charges:    0.0000000

LOEWDIN ATOMIC CHARGES
----------------------
   0 S :    0.408379
   1 C :   -0.208389
   2 C :   -0.057932
   3 C :   -0.070380
   4 C :   -0.185216
   5 H :    0.027918
   6 C :   -0.028627
   7 H :    0.031606
   8 H :    0.021242
   9 C :   -0.038191
  10 H :    0.022345
  11 H :    0.016840
  12 C :   -0.062958
  13 H :    0.037306
  14 H :    0.018707
  15 H :    0.032992
  16 S :    0.441019
  17 C :   -0.197273
  18 C :   -0.072032
  19 C :   -0.053687
  20 C :   -0.211339
  21 H :    0.033348
  22 C :   -0.030154
  23 H :    0.023259
  24 H :    0.021284
  25 C :   -0.037211
  26 H :    0.017373
  27 H :    0.017924
  28 C :   -0.057147
  29 H :    0.023680
  30 H :    0.025492
  31 H :    0.031046
  32 H :    0.032197
  33 H :    0.026581

  Mayer bond orders larger than 0.100000
B(  0-S ,  1-C ) :   1.1340 B(  0-S ,  4-C ) :   1.1533 B(  1-C ,  2-C ) :   1.6241
B(  1-C , 32-H ) :   0.9532 B(  2-C ,  3-C ) :   1.2588 B(  2-C ,  6-C ) :   1.0157
B(  3-C ,  4-C ) :   1.5744 B(  3-C ,  5-H ) :   0.9960 B(  4-C , 20-C ) :   1.0409
B(  6-C ,  7-H ) :   0.9176 B(  6-C ,  8-H ) :   0.9302 B(  6-C ,  9-C ) :   1.0709
B(  9-C , 10-H ) :   0.9446 B(  9-C , 11-H ) :   0.9618 B(  9-C , 12-C ) :   1.0704
B( 12-C , 13-H ) :   0.9754 B( 12-C , 14-H ) :   0.9784 B( 12-C , 15-H ) :   0.9710
B( 16-S , 17-C ) :   1.1701 B( 16-S , 20-C ) :   1.1555 B( 17-C , 18-C ) :   1.5985
B( 17-C , 33-H ) :   0.9596 B( 18-C , 19-C ) :   1.2650 B( 18-C , 21-H ) :   0.9980
B( 19-C , 20-C ) :   1.5635 B( 19-C , 22-C ) :   1.0524 B( 22-C , 23-H ) :   0.9287
B( 22-C , 24-H ) :   0.9404 B( 22-C , 25-C ) :   1.0576 B( 25-C , 26-H ) :   0.9540
B( 25-C , 27-H ) :   0.9534 B( 25-C , 28-C ) :   1.0830 B( 28-C , 29-H ) :   0.9759
B( 28-C , 30-H ) :   0.9723 B( 28-C , 31-H ) :   0.9717

Dispersion correction           -0.013372559
FINAL SINGLE POINT ENERGY     -1339.865725511606

DIPOLE MOMENT
-------------
                                X             Y             Z
Electronic contribution:     29.94890     -11.75011       7.59258
Nuclear contribution   :    -30.63327      11.83544      -7.75407
                        -----------------------------------------
Total Dipole Moment    :     -0.68437       0.08532      -0.16149
                        -----------------------------------------
Magnitude (a.u.)       :      0.70832
Magnitude (Debye)      :      1.80041

Rotational constants in cm-1:     0.016067     0.009359     0.006162
Rotational constants in MHz :   481.678524   280.583287   184.729958

                             ****ORCA TERMINATED NORMALLY****
TOTAL RUN TIME: 0 days 0 hours 0 minutes 33 seconds 709 msec
