                         Program Version 4.2.1 -  RELEASE  -
|  1> ! wB97X-D3 SP def2-SVP
|  2> %pal
|  3> nprocs 16
|  4> end
|  5>
|  6> * xyz 0 1
|  7> S 	 48.0023 	 13.3377 	 76.9149
|  8> C 	 47.62 	 12.8368 	 78.5391
|  9> C 	 48.2636 	 13.7049 	 79.3823
| 10> C 	 48.8654 	 14.8861 	 78.7752
| 11> C 	 48.6395 	 14.9055 	 77.4131
| 12> H 	 49.4495 	 15.6044 	 79.3583
| 13> C 	 48.6217 	 13.3418 	 80.8135
| 14> H 	 49.3928 	 14.0224 	 81.1606
| 15> H 	 49.1424 	 12.3147 	 80.9759
| 16> C 	 47.4434 	 13.3352 	 81.7178
| 17> H 	 46.7085 	 12.6302 	 81.3454
| 18> H 	 47.6351 	 12.8743 	 82.6933
| 19> C 	 46.711 	 14.6122 	 81.9597
| 20> H 	 47.303 	 15.3599 	 82.4686
| 21> H 	 46.3976 	 14.9502 	 81.0247
| 22> H 	 45.8176 	 14.3272 	 82.5374
| 23> S 	 49.7195 	 15.3715 	 74.8381
| 24> C 	 49.7073 	 17.0028 	 74.2955
| 25> C 	 49.3476 	 17.8976 	 75.2144
| 26> C 	 48.954 	 17.2922 	 76.4553
| 27> C 	 49.173 	 15.9275 	 76.4818
| 28> H 	 49.4071 	 18.9461 	 74.9766
| 29> C 	 48.1517 	 18.1837 	 77.511
| 30> H 	 47.444 	 17.4718 	 77.9048
| 31> H 	 47.4945 	 18.8649 	 76.9084
| 32> C 	 48.9007 	 18.9564 	 78.6276
| 33> H 	 49.5544 	 18.2313 	 79.0959
| 34> H 	 48.1259 	 19.3434 	 79.2668
| 35> C 	 49.7861 	 20.1502 	 78.1292
| 36> H 	 49.261 	 20.8655 	 77.4422
| 37> H 	 50.6807 	 19.7926 	 77.645
| 38> H 	 49.9928 	 20.963 	 78.8781
| 39> H 	 47.5441 	 11.7982 	 78.8249
| 40> H 	 49.925 	 17.3644 	 73.3616
| 41> *
| 42>
| 43>                          ****END OF INPUT****

CARTESIAN COORDINATES (ANGSTROEM)
---------------------------------
  S     48.002300   13.337700   76.914900
  C     47.620000   12.836800   78.539100
  C     48.263600   13.704900   79.382300
  C     48.865400   14.886100   78.775200
  C     48.639500   14.905500   77.413100
  H     49.449500   15.604400   79.358300
  C     48.621700   13.341800   80.813500
  H     49.392800   14.022400   81.160600
  H     49.142400   12.314700   80.975900
  C     47.443400   13.335200   81.717800
  H     46.708500   12.630200   81.345400
  H     47.635100   12.874300   82.693300
  C     46.711000   14.612200   81.959700
  H     47.303000   15.359900   82.468600
  H     46.397600   14.950200   81.024700
  H     45.817600   14.327200   82.537400
  S     49.719500   15.371500   74.838100
  C     49.707300   17.002800   74.295500
  C     49.347600   17.897600   75.214400
  C     48.954000   17.292200   76.455300
  C     49.173000   15.927500   76.481800
  H     49.407100   18.946100   74.976600
  C     48.151700   18.183700   77.511000
  H     47.444000   17.471800   77.904800
  H     47.494500   18.864900   76.908400
  C     48.900700   18.956400   78.627600
  H     49.554400   18.231300   79.095900
  H     48.125900   19.343400   79.266800
  C     49.786100   20.150200   78.129200
  H     49.261000   20.865500   77.442200
  H     50.680700   19.792600   77.645000
  H     49.992800   20.963000   78.878100
  H     47.544100   11.798200   78.824900
  H     49.925000   17.364400   73.361600

 Total Charge           Charge          ....    0
 Multiplicity           Mult            ....    1
 Number of Electrons    NEL             ....  134
 Basis Dimension        Dim             ....  322

ORBITAL ENERGIES
----------------

  NO   OCC          E(Eh)            E(eV)
   0   2.0000     -88.967243     -2420.9218
   1   2.0000     -88.965752     -2420.8812
   2   2.0000     -10.337889      -281.3083
   3   2.0000     -10.335014      -281.2300
   4   2.0000     -10.311597      -280.5928
   5   2.0000     -10.310930      -280.5747
   6   2.0000     -10.307403      -280.4787
   7   2.0000     -10.302432      -280.3434
   8   2.0000     -10.300801      -280.2990
   9   2.0000     -10.299895      -280.2744
  10   2.0000     -10.294996      -280.1411
  11   2.0000     -10.292909      -280.0843
  12   2.0000     -10.287329      -279.9324
  13   2.0000     -10.286682      -279.9148
  14   2.0000     -10.274832      -279.5924
  15   2.0000     -10.265039      -279.3259
  16   2.0000      -8.081699      -219.9142
  17   2.0000      -8.080321      -219.8767
  18   2.0000      -6.040357      -164.3665
  19   2.0000      -6.039058      -164.3311
  20   2.0000      -6.036427      -164.2595
  21   2.0000      -6.034940      -164.2191
  22   2.0000      -6.032133      -164.1427
  23   2.0000      -6.030725      -164.1044
  24   2.0000      -1.006660       -27.3926
  25   2.0000      -0.987921       -26.8827
  26   2.0000      -0.918026       -24.9808
  27   2.0000      -0.900452       -24.5025
  28   2.0000      -0.873608       -23.7721
  29   2.0000      -0.849377       -23.1127
  30   2.0000      -0.842712       -22.9314
  31   2.0000      -0.821017       -22.3410
  32   2.0000      -0.784629       -21.3508
  33   2.0000      -0.776341       -21.1253
  34   2.0000      -0.712802       -19.3963
  35   2.0000      -0.698472       -19.0064
  36   2.0000      -0.691920       -18.8281
  37   2.0000      -0.660561       -17.9748
  38   2.0000      -0.637562       -17.3490
  39   2.0000      -0.614549       -16.7227
  40   2.0000      -0.594681       -16.1821
  41   2.0000      -0.577924       -15.7261
  42   2.0000      -0.557483       -15.1699
  43   2.0000      -0.554001       -15.0751
  44   2.0000      -0.541734       -14.7413
  45   2.0000      -0.535432       -14.5698
  46   2.0000      -0.515136       -14.0176
  47   2.0000      -0.511599       -13.9213
  48   2.0000      -0.507295       -13.8042
  49   2.0000      -0.496398       -13.5077
  50   2.0000      -0.488106       -13.2820
  51   2.0000      -0.479842       -13.0572
  52   2.0000      -0.473617       -12.8878
  53   2.0000      -0.468294       -12.7429
  54   2.0000      -0.465605       -12.6698
  55   2.0000      -0.453893       -12.3511
  56   2.0000      -0.437792       -11.9129
  57   2.0000      -0.432853       -11.7785
  58   2.0000      -0.427641       -11.6367
  59   2.0000      -0.422082       -11.4854
  60   2.0000      -0.418559       -11.3896
  61   2.0000      -0.412531       -11.2255
  62   2.0000      -0.405516       -11.0346
  63   2.0000      -0.357763        -9.7352
  64   2.0000      -0.334405        -9.0996
  65   2.0000      -0.325174        -8.8484
  66   2.0000      -0.296842        -8.0775
  67   0.0000       0.019122         0.5203
  68   0.0000       0.070274         1.9123
  69   0.0000       0.100704         2.7403
  70   0.0000       0.112452         3.0600
  71   0.0000       0.129554         3.5253

MULLIKEN ATOMIC CHARGES
-----------------------
   0 S :    0.090625
   1 C :   -0.080892
   2 C :   -0.137652
   3 C :    0.014940
   4 C :   -0.113951
   5 H :    0.027980
   6 C :    0.046991
   7 H :    0.010998
   8 H :    0.046045
   9 C :   -0.088281
  10 H :    0.012121
  11 H :    0.013508
  12 C :   -0.008078
  13 H :    0.027197
  14 H :    0.018610
  15 H :    0.031659
  16 S :    0.091952
  17 C :   -0.029561
  18 C :   -0.033076
  19 C :   -0.060879
  20 C :   -0.143652
  21 H :    0.017144
  22 C :    0.028626
  23 H :    0.033343
  24 H :    0.031666
  25 C :   -0.011904
  26 H :    0.033817
  27 H :    0.037642
  28 C :   -0.095855
  29 H :    0.021602
  30 H :    0.048258
  31 H :    0.038540
  32 H :    0.065166
  33 H :    0.015351
Sum of atomic charges:   -0.0000000

LOEWDIN ATOMIC CHARGES
----------------------
   0 S :    0.401690
   1 C :   -0.209926
   2 C :   -0.060484
   3 C :   -0.066802
   4 C :   -0.179941
   5 H :    0.034375
   6 C :   -0.039747
   7 H :    0.023363
   8 H :    0.043101
   9 C :   -0.053200
  10 H :    0.021893
  11 H :    0.020074
  12 C :   -0.055343
  13 H :    0.020843
  14 H :    0.015615
  15 H :    0.032773
  16 S :    0.380410
  17 C :   -0.168092
  18 C :   -0.074914
  19 C :   -0.045937
  20 C :   -0.180710
  21 H :    0.032760
  22 C :   -0.028182
  23 H :    0.029620
  24 H :    0.033428
  25 C :   -0.031879
  26 H :    0.024529
  27 H :    0.028176
  28 C :   -0.082429
  29 H :    0.026468
  30 H :    0.024535
  31 H :    0.034280
  32 H :    0.034115
  33 H :    0.015540

  Mayer bond orders larger than 0.100000
B(  0-S ,  1-C ) :   1.1206 B(  0-S ,  4-C ) :   1.1591 B(  1-C ,  2-C ) :   1.6259
B(  1-C , 32-H ) :   0.9575 B(  2-C ,  3-C ) :   1.2451 B(  2-C ,  6-C ) :   1.0141
B(  3-C ,  4-C ) :   1.5376 B(  3-C ,  5-H ) :   0.9945 B(  4-C , 20-C ) :   1.0547
B(  6-C ,  7-H ) :   0.9470 B(  6-C ,  8-H ) :   0.9420 B(  6-C ,  9-C ) :   1.0761
B(  9-C , 10-H ) :   0.9512 B(  9-C , 11-H ) :   0.9509 B(  9-C , 12-C ) :   1.0886
B( 12-C , 13-H ) :   0.9748 B( 12-C , 14-H ) :   0.9715 B( 12-C , 15-H ) :   0.9697
B( 16-S , 17-C ) :   1.1425 B( 16-S , 20-C ) :   1.0984 B( 17-C , 18-C ) :   1.6693
B( 17-C , 33-H ) :   0.9641 B( 18-C , 19-C ) :   1.2123 B( 18-C , 21-H ) :   0.9920
B( 19-C , 20-C ) :   1.6465 B( 19-C , 22-C ) :   1.0047 B( 22-C , 23-H ) :   0.9361
B( 22-C , 24-H ) :   0.9471 B( 22-C , 25-C ) :   1.0695 B( 25-C , 26-H ) :   0.9560
B( 25-C , 27-H ) :   0.9537 B( 25-C , 28-C ) :   1.0710 B( 28-C , 29-H ) :   0.9727
B( 28-C , 30-H ) :   0.9778 B( 28-C , 31-H ) :   0.9735

Dispersion correction           -0.014340140
FINAL SINGLE POINT ENERGY     -1339.852245139248

DIPOLE MOMENT
-------------
                                X             Y             Z
Electronic contribution:      4.12309     -14.22167     -25.23328
Nuclear contribution   :     -4.03323      14.68988      25.63229
                        -----------------------------------------
Total Dipole Moment    :      0.08986       0.46821       0.39902
                        -----------------------------------------
Magnitude (a.u.)       :      0.62170
Magnitude (Debye)      :      1.58023

Rotational constants in cm-1:     0.018339     0.009104     0.006425
Rotational constants in MHz :   549.782425   272.926656   192.629577

                             ****ORCA TERMINATED NORMALLY****
TOTAL RUN TIME: 0 days 0 hours 0 minutes 30 seconds 909 msec
