                         Program Version 4.2.1 -  RELEASE  -
|  1> ! wB97X-D3 SP def2-SVP
|  2> %pal
|  3> nprocs 16
|  4> end
|  5>
|  6> * xyz 0 1
|  7> S 	 -76.1638 	 50.0063 	 136.113
|  8> C 	 -74.5065 	 49.5454 	 136.236
|  9> C 	 -73.753 	 50.196 	 135.272
| 10> C 	 -74.5725 	 50.901 	 134.391
| 11> C 	 -75.8791 	 51.0333 	 134.751
| 12> H 	 -74.2983 	 51.2888 	 133.436
| 13> C 	 -72.3517 	 49.9737 	 134.877
| 14> H 	 -71.7997 	 50.8143 	 135.115
| 15> H 	 -72.291 	 50.003 	 133.794
| 16> C 	 -71.5339 	 48.7927 	 135.409
| 17> H 	 -72.1344 	 47.861 	 135.107
| 18> H 	 -70.7263 	 48.6912 	 134.71
| 19> C 	 -71.1982 	 48.8792 	 136.926
| 20> H 	 -70.2911 	 48.4225 	 137.267
| 21> H 	 -71.1604 	 49.9426 	 137.257
| 22> H 	 -71.911 	 48.4011 	 137.56
| 23> S 	 -78.1333 	 50.7128 	 133.195
| 24> C 	 -78.6579 	 52.0936 	 132.295
| 25> C 	 -78.0086 	 53.2622 	 132.624
| 26> C 	 -76.9332 	 53.0622 	 133.507
| 27> C 	 -76.8513 	 51.7316 	 133.923
| 28> H 	 -78.4101 	 54.1647 	 132.255
| 29> C 	 -76.0064 	 54.2052 	 133.947
| 30> H 	 -75.0445 	 53.8812 	 134.349
| 31> H 	 -76.5097 	 54.7624 	 134.744
| 32> C 	 -75.6009 	 55.1969 	 132.861
| 33> H 	 -76.471 	 55.601 	 132.334
| 34> H 	 -75.0658 	 54.5136 	 132.23
| 35> C 	 -74.7713 	 56.3507 	 133.364
| 36> H 	 -75.1126 	 56.7711 	 134.319
| 37> H 	 -74.8004 	 57.1493 	 132.672
| 38> H 	 -73.7324 	 56.1343 	 133.606
| 39> H 	 -73.9628 	 48.8849 	 136.935
| 40> H 	 -79.4103 	 52.1214 	 131.527
| 41> *
| 42>
| 43>                          ****END OF INPUT****

CARTESIAN COORDINATES (ANGSTROEM)
---------------------------------
  S    -76.163800   50.006300  136.113000
  C    -74.506500   49.545400  136.236000
  C    -73.753000   50.196000  135.272000
  C    -74.572500   50.901000  134.391000
  C    -75.879100   51.033300  134.751000
  H    -74.298300   51.288800  133.436000
  C    -72.351700   49.973700  134.877000
  H    -71.799700   50.814300  135.115000
  H    -72.291000   50.003000  133.794000
  C    -71.533900   48.792700  135.409000
  H    -72.134400   47.861000  135.107000
  H    -70.726300   48.691200  134.710000
  C    -71.198200   48.879200  136.926000
  H    -70.291100   48.422500  137.267000
  H    -71.160400   49.942600  137.257000
  H    -71.911000   48.401100  137.560000
  S    -78.133300   50.712800  133.195000
  C    -78.657900   52.093600  132.295000
  C    -78.008600   53.262200  132.624000
  C    -76.933200   53.062200  133.507000
  C    -76.851300   51.731600  133.923000
  H    -78.410100   54.164700  132.255000
  C    -76.006400   54.205200  133.947000
  H    -75.044500   53.881200  134.349000
  H    -76.509700   54.762400  134.744000
  C    -75.600900   55.196900  132.861000
  H    -76.471000   55.601000  132.334000
  H    -75.065800   54.513600  132.230000
  C    -74.771300   56.350700  133.364000
  H    -75.112600   56.771100  134.319000
  H    -74.800400   57.149300  132.672000
  H    -73.732400   56.134300  133.606000
  H    -73.962800   48.884900  136.935000
  H    -79.410300   52.121400  131.527000

 Total Charge           Charge          ....    0
 Multiplicity           Mult            ....    1
 Number of Electrons    NEL             ....  134
 Basis Dimension        Dim             ....  322

ORBITAL ENERGIES
----------------

  NO   OCC          E(Eh)            E(eV)
   0   2.0000     -88.967378     -2420.9254
   1   2.0000     -88.966137     -2420.8917
   2   2.0000     -10.328322      -281.0479
   3   2.0000     -10.319390      -280.8049
   4   2.0000     -10.314051      -280.6596
   5   2.0000     -10.311131      -280.5801
   6   2.0000     -10.306603      -280.4569
   7   2.0000     -10.294189      -280.1191
   8   2.0000     -10.290029      -280.0059
   9   2.0000     -10.289999      -280.0051
  10   2.0000     -10.287713      -279.9429
  11   2.0000     -10.283718      -279.8342
  12   2.0000     -10.282734      -279.8074
  13   2.0000     -10.281022      -279.7608
  14   2.0000     -10.279175      -279.7106
  15   2.0000     -10.274960      -279.5959
  16   2.0000      -8.081856      -219.9185
  17   2.0000      -8.081135      -219.8989
  18   2.0000      -6.040223      -164.3628
  19   2.0000      -6.039625      -164.3466
  20   2.0000      -6.036504      -164.2616
  21   2.0000      -6.035545      -164.2355
  22   2.0000      -6.032677      -164.1575
  23   2.0000      -6.031950      -164.1377
  24   2.0000      -1.010594       -27.4997
  25   2.0000      -0.988082       -26.8871
  26   2.0000      -0.916134       -24.9293
  27   2.0000      -0.913221       -24.8500
  28   2.0000      -0.868085       -23.6218
  29   2.0000      -0.855434       -23.2775
  30   2.0000      -0.850842       -23.1526
  31   2.0000      -0.811398       -22.0793
  32   2.0000      -0.790534       -21.5115
  33   2.0000      -0.778683       -21.1891
  34   2.0000      -0.713889       -19.4259
  35   2.0000      -0.704554       -19.1719
  36   2.0000      -0.695998       -18.9391
  37   2.0000      -0.657620       -17.8947
  38   2.0000      -0.638481       -17.3739
  39   2.0000      -0.615372       -16.7451
  40   2.0000      -0.600031       -16.3277
  41   2.0000      -0.579188       -15.7605
  42   2.0000      -0.573240       -15.5987
  43   2.0000      -0.555473       -15.1152
  44   2.0000      -0.532724       -14.4961
  45   2.0000      -0.525565       -14.3014
  46   2.0000      -0.517879       -14.0922
  47   2.0000      -0.507092       -13.7987
  48   2.0000      -0.505339       -13.7510
  49   2.0000      -0.494681       -13.4610
  50   2.0000      -0.492040       -13.3891
  51   2.0000      -0.480980       -13.0881
  52   2.0000      -0.479660       -13.0522
  53   2.0000      -0.469923       -12.7872
  54   2.0000      -0.460578       -12.5330
  55   2.0000      -0.456511       -12.4223
  56   2.0000      -0.447996       -12.1906
  57   2.0000      -0.432833       -11.7780
  58   2.0000      -0.432210       -11.7610
  59   2.0000      -0.427053       -11.6207
  60   2.0000      -0.421333       -11.4650
  61   2.0000      -0.418313       -11.3829
  62   2.0000      -0.412945       -11.2368
  63   2.0000      -0.341211        -9.2848
  64   2.0000      -0.333839        -9.0842
  65   2.0000      -0.325764        -8.8645
  66   2.0000      -0.292326        -7.9546
  67   0.0000       0.036356         0.9893
  68   0.0000       0.067639         1.8405
  69   0.0000       0.117537         3.1983
  70   0.0000       0.126833         3.4513
  71   0.0000       0.130791         3.5590

MULLIKEN ATOMIC CHARGES
-----------------------
   0 S :    0.124356
   1 C :   -0.117695
   2 C :   -0.051846
   3 C :    0.000172
   4 C :   -0.147180
   5 H :    0.000758
   6 C :    0.060071
   7 H :    0.008702
   8 H :    0.021296
   9 C :   -0.061683
  10 H :    0.034141
  11 H :    0.021873
  12 C :   -0.045563
  13 H :    0.030013
  14 H :    0.039687
  15 H :    0.028529
  16 S :    0.117164
  17 C :   -0.078667
  18 C :   -0.039656
  19 C :    0.008491
  20 C :   -0.185586
  21 H :    0.004245
  22 C :    0.067961
  23 H :    0.022400
  24 H :    0.031962
  25 C :   -0.094587
  26 H :    0.030859
  27 H :    0.027588
  28 C :   -0.012763
  29 H :    0.018003
  30 H :    0.025065
  31 H :    0.026728
  32 H :    0.039734
  33 H :    0.045428
Sum of atomic charges:   -0.0000000

LOEWDIN ATOMIC CHARGES
----------------------
   0 S :    0.425892
   1 C :   -0.215159
   2 C :   -0.068134
   3 C :   -0.059106
   4 C :   -0.211492
   5 H :    0.025309
   6 C :   -0.034930
   7 H :    0.023211
   8 H :    0.035476
   9 C :   -0.044090
  10 H :    0.031648
  11 H :    0.024599
  12 C :   -0.068903
  13 H :    0.026668
  14 H :    0.033280
  15 H :    0.021769
  16 S :    0.401110
  17 C :   -0.182186
  18 C :   -0.070092
  19 C :   -0.047707
  20 C :   -0.183096
  21 H :    0.025724
  22 C :   -0.028358
  23 H :    0.029227
  24 H :    0.029978
  25 C :   -0.042094
  26 H :    0.021647
  27 H :    0.024733
  28 C :   -0.063434
  29 H :    0.027028
  30 H :    0.023092
  31 H :    0.026270
  32 H :    0.036029
  33 H :    0.026092

  Mayer bond orders larger than 0.100000
B(  0-S ,  1-C ) :   1.1434 B(  0-S ,  4-C ) :   1.1476 B(  1-C ,  2-C ) :   1.5970
B(  1-C , 32-H ) :   0.9576 B(  2-C ,  3-C ) :   1.2653 B(  2-C ,  6-C ) :   1.0220
B(  3-C ,  4-C ) :   1.5708 B(  3-C ,  5-H ) :   0.9974 B(  4-C , 20-C ) :   1.0383
B(  6-C ,  7-H ) :   0.9110 B(  6-C ,  8-H ) :   0.9396 B(  6-C ,  9-C ) :   1.0899
B(  9-C , 10-H ) :   0.9577 B(  9-C , 11-H ) :   0.9542 B(  9-C , 12-C ) :   1.0389
B( 12-C , 13-H ) :   0.9734 B( 12-C , 14-H ) :   0.9817 B( 12-C , 15-H ) :   0.9727
B( 16-S , 17-C ) :   1.1611 B( 16-S , 20-C ) :   1.1338 B( 17-C , 18-C ) :   1.6251
B( 17-C , 20-C ) :   0.1006 B( 17-C , 33-H ) :   0.9638 B( 18-C , 19-C ) :   1.2283
B( 18-C , 21-H ) :   0.9956 B( 19-C , 20-C ) :   1.6051 B( 19-C , 22-C ) :   1.0367
B( 22-C , 23-H ) :   0.9436 B( 22-C , 24-H ) :   0.9292 B( 22-C , 25-C ) :   1.0565
B( 25-C , 26-H ) :   0.9526 B( 25-C , 27-H ) :   0.9615 B( 25-C , 28-C ) :   1.0889
B( 28-C , 29-H ) :   0.9700 B( 28-C , 30-H ) :   0.9736 B( 28-C , 31-H ) :   0.9710

Dispersion correction           -0.013769043
FINAL SINGLE POINT ENERGY     -1339.864716725798

DIPOLE MOMENT
-------------
                                X             Y             Z
Electronic contribution:    -24.01786     -11.99958      -0.16824
Nuclear contribution   :     24.56961      12.37176      -0.11208
                        -----------------------------------------
Total Dipole Moment    :      0.55176       0.37218      -0.28032
                        -----------------------------------------
Magnitude (a.u.)       :      0.72218
Magnitude (Debye)      :      1.83562

Rotational constants in cm-1:     0.018903     0.007948     0.006155
Rotational constants in MHz :   566.708087   238.276473   184.510804

                             ****ORCA TERMINATED NORMALLY****
TOTAL RUN TIME: 0 days 0 hours 0 minutes 33 seconds 833 msec
