                         Program Version 4.2.1 -  RELEASE  -
|  1> ! wB97X-D3 SP def2-SVP
|  2> %pal
|  3> nprocs 16
|  4> end
|  5>
|  6> * xyz 0 1
|  7> S 	 -24.5731 	 46.6673 	 57.0288
|  8> C 	 -25.8581 	 47.3056 	 58.0086
|  9> C 	 -25.4275 	 47.9968 	 59.1028
| 10> C 	 -24.0763 	 47.6055 	 59.3905
| 11> C 	 -23.4151 	 47.0107 	 58.2911
| 12> H 	 -23.4398 	 47.9062 	 60.2565
| 13> C 	 -26.3327 	 48.6602 	 60.1161
| 14> H 	 -26.9432 	 49.3526 	 59.5968
| 15> H 	 -25.7499 	 49.1602 	 60.8395
| 16> C 	 -27.3553 	 47.6942 	 60.7248
| 17> H 	 -28.0384 	 48.3454 	 61.2188
| 18> H 	 -27.9792 	 47.3119 	 59.8886
| 19> C 	 -26.786 	 46.4879 	 61.4904
| 20> H 	 -26.1772 	 45.8497 	 60.7531
| 21> H 	 -26.0421 	 46.6927 	 62.2713
| 22> H 	 -27.5807 	 45.9459 	 62.0375
| 23> S 	 -21.6294 	 45.0441 	 58.8959
| 24> C 	 -19.9902 	 44.9666 	 58.2546
| 25> C 	 -19.9584 	 45.9499 	 57.2721
| 26> C 	 -21.1276 	 46.8405 	 57.2205
| 27> C 	 -22.0327 	 46.5502 	 58.1695
| 28> H 	 -19.0188 	 46.0418 	 56.7719
| 29> C 	 -21.016 	 48.0493 	 56.3035
| 30> H 	 -19.9527 	 48.1904 	 56.0093
| 31> H 	 -21.1607 	 48.9301 	 56.9813
| 32> C 	 -21.9134 	 48.0481 	 55.0598
| 33> H 	 -21.9459 	 49.0429 	 54.5821
| 34> H 	 -22.9769 	 47.875 	 55.3293
| 35> C 	 -21.4581 	 46.9401 	 53.9832
| 36> H 	 -22.2343 	 46.8846 	 53.2007
| 37> H 	 -21.3131 	 45.9661 	 54.4664
| 38> H 	 -20.432 	 47.214 	 53.6661
| 39> H 	 -26.9634 	 47.4038 	 57.7308
| 40> H 	 -19.1883 	 44.2851 	 58.4952
| 41> *
| 42>
| 43>                          ****END OF INPUT****

CARTESIAN COORDINATES (ANGSTROEM)
---------------------------------
  S    -24.573100   46.667300   57.028800
  C    -25.858100   47.305600   58.008600
  C    -25.427500   47.996800   59.102800
  C    -24.076300   47.605500   59.390500
  C    -23.415100   47.010700   58.291100
  H    -23.439800   47.906200   60.256500
  C    -26.332700   48.660200   60.116100
  H    -26.943200   49.352600   59.596800
  H    -25.749900   49.160200   60.839500
  C    -27.355300   47.694200   60.724800
  H    -28.038400   48.345400   61.218800
  H    -27.979200   47.311900   59.888600
  C    -26.786000   46.487900   61.490400
  H    -26.177200   45.849700   60.753100
  H    -26.042100   46.692700   62.271300
  H    -27.580700   45.945900   62.037500
  S    -21.629400   45.044100   58.895900
  C    -19.990200   44.966600   58.254600
  C    -19.958400   45.949900   57.272100
  C    -21.127600   46.840500   57.220500
  C    -22.032700   46.550200   58.169500
  H    -19.018800   46.041800   56.771900
  C    -21.016000   48.049300   56.303500
  H    -19.952700   48.190400   56.009300
  H    -21.160700   48.930100   56.981300
  C    -21.913400   48.048100   55.059800
  H    -21.945900   49.042900   54.582100
  H    -22.976900   47.875000   55.329300
  C    -21.458100   46.940100   53.983200
  H    -22.234300   46.884600   53.200700
  H    -21.313100   45.966100   54.466400
  H    -20.432000   47.214000   53.666100
  H    -26.963400   47.403800   57.730800
  H    -19.188300   44.285100   58.495200

 Total Charge           Charge          ....    0
 Multiplicity           Mult            ....    1
 Number of Electrons    NEL             ....  134
 Basis Dimension        Dim             ....  322

ORBITAL ENERGIES
----------------

  NO   OCC          E(Eh)            E(eV)
   0   2.0000     -88.971443     -2421.0360
   1   2.0000     -88.957903     -2420.6676
   2   2.0000     -10.330968      -281.1199
   3   2.0000     -10.321079      -280.8508
   4   2.0000     -10.318917      -280.7920
   5   2.0000     -10.316872      -280.7364
   6   2.0000     -10.302987      -280.3585
   7   2.0000     -10.301834      -280.3271
   8   2.0000     -10.299550      -280.2650
   9   2.0000     -10.294284      -280.1217
  10   2.0000     -10.293221      -280.0928
  11   2.0000     -10.288692      -279.9696
  12   2.0000     -10.287764      -279.9443
  13   2.0000     -10.286856      -279.9196
  14   2.0000     -10.284058      -279.8434
  15   2.0000     -10.281495      -279.7737
  16   2.0000      -8.085503      -220.0177
  17   2.0000      -8.073277      -219.6850
  18   2.0000      -6.044020      -164.4662
  19   2.0000      -6.040058      -164.3583
  20   2.0000      -6.036302      -164.2561
  21   2.0000      -6.031927      -164.1371
  22   2.0000      -6.027621      -164.0199
  23   2.0000      -6.023864      -163.9177
  24   2.0000      -1.010690       -27.5023
  25   2.0000      -0.987902       -26.8822
  26   2.0000      -0.916748       -24.9460
  27   2.0000      -0.897766       -24.4294
  28   2.0000      -0.868493       -23.6329
  29   2.0000      -0.844615       -22.9831
  30   2.0000      -0.834716       -22.7138
  31   2.0000      -0.812715       -22.1151
  32   2.0000      -0.785476       -21.3739
  33   2.0000      -0.769938       -20.9511
  34   2.0000      -0.705834       -19.2067
  35   2.0000      -0.704967       -19.1831
  36   2.0000      -0.687553       -18.7093
  37   2.0000      -0.663757       -18.0617
  38   2.0000      -0.634783       -17.2733
  39   2.0000      -0.608135       -16.5482
  40   2.0000      -0.587610       -15.9897
  41   2.0000      -0.576125       -15.6772
  42   2.0000      -0.551661       -15.0115
  43   2.0000      -0.546804       -14.8793
  44   2.0000      -0.544428       -14.8146
  45   2.0000      -0.533906       -14.5283
  46   2.0000      -0.515388       -14.0244
  47   2.0000      -0.512366       -13.9422
  48   2.0000      -0.501391       -13.6435
  49   2.0000      -0.494366       -13.4524
  50   2.0000      -0.481539       -13.1033
  51   2.0000      -0.475315       -12.9340
  52   2.0000      -0.471652       -12.8343
  53   2.0000      -0.465491       -12.6667
  54   2.0000      -0.465229       -12.6595
  55   2.0000      -0.441679       -12.0187
  56   2.0000      -0.438000       -11.9186
  57   2.0000      -0.436100       -11.8669
  58   2.0000      -0.433266       -11.7898
  59   2.0000      -0.421473       -11.4689
  60   2.0000      -0.415247       -11.2994
  61   2.0000      -0.409239       -11.1360
  62   2.0000      -0.403837       -10.9890
  63   2.0000      -0.336194        -9.1483
  64   2.0000      -0.333666        -9.0795
  65   2.0000      -0.320106        -8.7105
  66   2.0000      -0.306885        -8.3508
  67   0.0000       0.034623         0.9421
  68   0.0000       0.056768         1.5447
  69   0.0000       0.106922         2.9095
  70   0.0000       0.116632         3.1737
  71   0.0000       0.129671         3.5285

MULLIKEN ATOMIC CHARGES
-----------------------
   0 S :    0.143742
   1 C :   -0.154252
   2 C :   -0.104771
   3 C :    0.008761
   4 C :   -0.172926
   5 H :    0.033350
   6 C :    0.113768
   7 H :    0.014882
   8 H :    0.014505
   9 C :   -0.067828
  10 H :    0.019025
  11 H :    0.020581
  12 C :   -0.071265
  13 H :    0.060612
  14 H :    0.027102
  15 H :    0.044559
  16 S :    0.095494
  17 C :   -0.097866
  18 C :   -0.040803
  19 C :   -0.048011
  20 C :   -0.126836
  21 H :    0.012967
  22 C :    0.044840
  23 H :    0.021137
  24 H :    0.043264
  25 C :   -0.079325
  26 H :    0.031609
  27 H :    0.030521
  28 C :   -0.068724
  29 H :    0.050114
  30 H :    0.039670
  31 H :    0.028699
  32 H :    0.071258
  33 H :    0.062151
Sum of atomic charges:   -0.0000000

LOEWDIN ATOMIC CHARGES
----------------------
   0 S :    0.440721
   1 C :   -0.210617
   2 C :   -0.069721
   3 C :   -0.058921
   4 C :   -0.202346
   5 H :    0.039066
   6 C :   -0.021350
   7 H :    0.029908
   8 H :    0.023608
   9 C :   -0.037840
  10 H :    0.018467
  11 H :    0.025716
  12 C :   -0.078263
  13 H :    0.041603
  14 H :    0.022944
  15 H :    0.031110
  16 S :    0.409485
  17 C :   -0.181864
  18 C :   -0.072454
  19 C :   -0.063710
  20 C :   -0.214889
  21 H :    0.023845
  22 C :   -0.038642
  23 H :    0.030890
  24 H :    0.040157
  25 C :   -0.048491
  26 H :    0.024894
  27 H :    0.008148
  28 C :   -0.067775
  29 H :    0.029503
  30 H :    0.025610
  31 H :    0.024508
  32 H :    0.041806
  33 H :    0.034893

  Mayer bond orders larger than 0.100000
B(  0-S ,  1-C ) :   1.1588 B(  0-S ,  4-C ) :   1.1468 B(  1-C ,  2-C ) :   1.6073
B(  1-C , 32-H ) :   0.9515 B(  2-C ,  3-C ) :   1.2244 B(  2-C ,  6-C ) :   1.0418
B(  3-C ,  4-C ) :   1.5871 B(  3-C ,  5-H ) :   0.9793 B(  4-C , 20-C ) :   1.0262
B(  6-C ,  7-H ) :   0.9254 B(  6-C ,  8-H ) :   0.9426 B(  6-C ,  9-C ) :   1.0874
B(  9-C , 10-H ) :   0.9561 B(  9-C , 11-H ) :   0.9492 B(  9-C , 12-C ) :   1.0637
B( 12-C , 13-H ) :   0.9685 B( 12-C , 14-H ) :   0.9776 B( 12-C , 15-H ) :   0.9740
B( 16-S , 17-C ) :   1.1461 B( 16-S , 20-C ) :   1.1462 B( 17-C , 18-C ) :   1.6177
B( 17-C , 33-H ) :   0.9730 B( 18-C , 19-C ) :   1.2132 B( 18-C , 21-H ) :   0.9914
B( 19-C , 20-C ) :   1.6199 B( 19-C , 22-C ) :   1.0200 B( 22-C , 23-H ) :   0.9467
B( 22-C , 24-H ) :   0.9402 B( 22-C , 25-C ) :   1.0617 B( 25-C , 26-H ) :   0.9551
B( 25-C , 27-H ) :   0.9526 B( 25-C , 28-C ) :   1.0543 B( 28-C , 29-H ) :   0.9765
B( 28-C , 30-H ) :   0.9792 B( 28-C , 31-H ) :   0.9766

Dispersion correction           -0.015382085
FINAL SINGLE POINT ENERGY     -1339.862644378381

DIPOLE MOMENT
-------------
                                X             Y             Z
Electronic contribution:      7.07444      -8.46265       0.97396
Nuclear contribution   :     -7.16030       8.86699      -0.87270
                        -----------------------------------------
Total Dipole Moment    :     -0.08585       0.40434       0.10126
                        -----------------------------------------
Magnitude (a.u.)       :      0.42557
Magnitude (Debye)      :      1.08172

Rotational constants in cm-1:     0.023838     0.008427     0.006918
Rotational constants in MHz :   714.654440   252.629484   207.390631

                             ****ORCA TERMINATED NORMALLY****
TOTAL RUN TIME: 0 days 0 hours 0 minutes 34 seconds 467 msec
