                         Program Version 4.2.1 -  RELEASE  -
|  1> ! wB97X-D3 SP def2-SVP
|  2> %pal
|  3> nprocs 16
|  4> end
|  5>
|  6> * xyz 0 1
|  7> S 	 7.38587 	 18.8149 	 51.3401
|  8> C 	 7.67062 	 17.075 	 51.5878
|  9> C 	 6.74449 	 16.2987 	 50.8719
| 10> C 	 5.86196 	 17.0892 	 50.133
| 11> C 	 5.93798 	 18.4139 	 50.4386
| 12> H 	 5.18744 	 16.7719 	 49.3764
| 13> C 	 6.77976 	 14.8297 	 50.7902
| 14> H 	 7.44579 	 14.6241 	 50.0224
| 15> H 	 5.77449 	 14.396 	 50.6432
| 16> C 	 7.22131 	 14.0764 	 51.9979
| 17> H 	 8.27753 	 14.2686 	 52.1217
| 18> H 	 6.79906 	 14.5097 	 52.9083
| 19> C 	 6.82805 	 12.5668 	 51.8777
| 20> H 	 7.20055 	 11.9553 	 52.675
| 21> H 	 5.8122 	 12.5905 	 51.9602
| 22> H 	 7.15468 	 12.1947 	 50.8858
| 23> S 	 5.8756 	 20.6493 	 48.8291
| 24> C 	 4.32039 	 21.3406 	 48.4358
| 25> C 	 3.30253 	 20.6016 	 48.8788
| 26> C 	 3.68929 	 19.5265 	 49.6723
| 27> C 	 5.14171 	 19.4106 	 49.8421
| 28> H 	 2.29239 	 20.8037 	 48.7079
| 29> C 	 2.70027 	 18.695 	 50.5352
| 30> H 	 2.99076 	 17.6865 	 50.6474
| 31> H 	 1.83341 	 18.6928 	 49.8179
| 32> C 	 2.30129 	 19.2792 	 51.9326
| 33> H 	 1.50143 	 18.6664 	 52.3041
| 34> H 	 1.96219 	 20.2716 	 51.8734
| 35> C 	 3.36475 	 19.2895 	 53.0327
| 36> H 	 3.84227 	 18.3181 	 52.9603
| 37> H 	 3.06227 	 19.4109 	 54.085
| 38> H 	 4.14241 	 19.9995 	 52.8285
| 39> H 	 8.50019 	 16.7013 	 52.2505
| 40> H 	 4.30304 	 22.2718 	 47.8178
| 41> *
| 42>
| 43>                          ****END OF INPUT****

CARTESIAN COORDINATES (ANGSTROEM)
---------------------------------
  S      7.385870   18.814900   51.340100
  C      7.670620   17.075000   51.587800
  C      6.744490   16.298700   50.871900
  C      5.861960   17.089200   50.133000
  C      5.937980   18.413900   50.438600
  H      5.187440   16.771900   49.376400
  C      6.779760   14.829700   50.790200
  H      7.445790   14.624100   50.022400
  H      5.774490   14.396000   50.643200
  C      7.221310   14.076400   51.997900
  H      8.277530   14.268600   52.121700
  H      6.799060   14.509700   52.908300
  C      6.828050   12.566800   51.877700
  H      7.200550   11.955300   52.675000
  H      5.812200   12.590500   51.960200
  H      7.154680   12.194700   50.885800
  S      5.875600   20.649300   48.829100
  C      4.320390   21.340600   48.435800
  C      3.302530   20.601600   48.878800
  C      3.689290   19.526500   49.672300
  C      5.141710   19.410600   49.842100
  H      2.292390   20.803700   48.707900
  C      2.700270   18.695000   50.535200
  H      2.990760   17.686500   50.647400
  H      1.833410   18.692800   49.817900
  C      2.301290   19.279200   51.932600
  H      1.501430   18.666400   52.304100
  H      1.962190   20.271600   51.873400
  C      3.364750   19.289500   53.032700
  H      3.842270   18.318100   52.960300
  H      3.062270   19.410900   54.085000
  H      4.142410   19.999500   52.828500
  H      8.500190   16.701300   52.250500
  H      4.303040   22.271800   47.817800

 Total Charge           Charge          ....    0
 Multiplicity           Mult            ....    1
 Number of Electrons    NEL             ....  134
 Basis Dimension        Dim             ....  322

ORBITAL ENERGIES
----------------

  NO   OCC          E(Eh)            E(eV)
   0   2.0000     -88.967179     -2420.9200
   1   2.0000     -88.963407     -2420.8174
   2   2.0000     -10.325381      -280.9679
   3   2.0000     -10.322110      -280.8789
   4   2.0000     -10.320175      -280.8262
   5   2.0000     -10.315758      -280.7061
   6   2.0000     -10.305347      -280.4227
   7   2.0000     -10.299341      -280.2593
   8   2.0000     -10.294658      -280.1319
   9   2.0000     -10.286793      -279.9179
  10   2.0000     -10.284667      -279.8600
  11   2.0000     -10.282209      -279.7931
  12   2.0000     -10.281642      -279.7777
  13   2.0000     -10.278678      -279.6970
  14   2.0000     -10.276747      -279.6445
  15   2.0000     -10.265863      -279.3483
  16   2.0000      -8.081407      -219.9063
  17   2.0000      -8.078178      -219.8184
  18   2.0000      -6.039826      -164.3520
  19   2.0000      -6.036525      -164.2622
  20   2.0000      -6.036186      -164.2530
  21   2.0000      -6.032567      -164.1545
  22   2.0000      -6.032096      -164.1417
  23   2.0000      -6.029245      -164.0641
  24   2.0000      -1.008406       -27.4401
  25   2.0000      -0.985039       -26.8043
  26   2.0000      -0.924937       -25.1688
  27   2.0000      -0.899679       -24.4815
  28   2.0000      -0.874567       -23.7982
  29   2.0000      -0.854460       -23.2510
  30   2.0000      -0.847013       -23.0484
  31   2.0000      -0.814155       -22.1543
  32   2.0000      -0.785912       -21.3857
  33   2.0000      -0.765002       -20.8168
  34   2.0000      -0.713390       -19.4123
  35   2.0000      -0.702829       -19.1250
  36   2.0000      -0.690476       -18.7888
  37   2.0000      -0.659465       -17.9449
  38   2.0000      -0.640747       -17.4356
  39   2.0000      -0.619186       -16.8489
  40   2.0000      -0.600264       -16.3340
  41   2.0000      -0.587275       -15.9806
  42   2.0000      -0.568468       -15.4688
  43   2.0000      -0.547459       -14.8971
  44   2.0000      -0.539809       -14.6890
  45   2.0000      -0.526384       -14.3236
  46   2.0000      -0.516884       -14.0651
  47   2.0000      -0.515019       -14.0144
  48   2.0000      -0.497579       -13.5398
  49   2.0000      -0.495054       -13.4711
  50   2.0000      -0.490416       -13.3449
  51   2.0000      -0.481125       -13.0921
  52   2.0000      -0.476882       -12.9766
  53   2.0000      -0.462174       -12.5764
  54   2.0000      -0.459634       -12.5073
  55   2.0000      -0.449174       -12.2226
  56   2.0000      -0.445673       -12.1274
  57   2.0000      -0.441302       -12.0084
  58   2.0000      -0.435662       -11.8550
  59   2.0000      -0.423969       -11.5368
  60   2.0000      -0.420903       -11.4534
  61   2.0000      -0.418679       -11.3928
  62   2.0000      -0.401099       -10.9145
  63   2.0000      -0.348363        -9.4794
  64   2.0000      -0.332636        -9.0515
  65   2.0000      -0.328494        -8.9388
  66   2.0000      -0.283666        -7.7189
  67   0.0000       0.022085         0.6010
  68   0.0000       0.068313         1.8589
  69   0.0000       0.107325         2.9205
  70   0.0000       0.124179         3.3791
  71   0.0000       0.134349         3.6558

MULLIKEN ATOMIC CHARGES
-----------------------
   0 S :    0.108113
   1 C :   -0.157499
   2 C :   -0.068596
   3 C :    0.026472
   4 C :   -0.151147
   5 H :    0.011058
   6 C :    0.090709
   7 H :    0.032063
   8 H :    0.020708
   9 C :   -0.115364
  10 H :    0.018295
  11 H :    0.024757
  12 C :   -0.002713
  13 H :    0.033400
  14 H :    0.016046
  15 H :    0.036455
  16 S :    0.099842
  17 C :   -0.107583
  18 C :    0.014133
  19 C :   -0.060766
  20 C :   -0.159174
  21 H :   -0.006147
  22 C :    0.062131
  23 H :    0.011433
  24 H :    0.025504
  25 C :   -0.020474
  26 H :    0.024472
  27 H :    0.012534
  28 C :   -0.055487
  29 H :    0.018754
  30 H :    0.039210
  31 H :    0.031362
  32 H :    0.072941
  33 H :    0.074556
Sum of atomic charges:    0.0000000

LOEWDIN ATOMIC CHARGES
----------------------
   0 S :    0.394308
   1 C :   -0.200477
   2 C :   -0.058645
   3 C :   -0.051131
   4 C :   -0.195342
   5 H :    0.031620
   6 C :   -0.032783
   7 H :    0.031513
   8 H :    0.032824
   9 C :   -0.039702
  10 H :    0.014177
  11 H :    0.021932
  12 C :   -0.049300
  13 H :    0.026044
  14 H :    0.013258
  15 H :    0.030320
  16 S :    0.404239
  17 C :   -0.185339
  18 C :   -0.073856
  19 C :   -0.055083
  20 C :   -0.203489
  21 H :    0.026680
  22 C :   -0.027215
  23 H :    0.019488
  24 H :    0.036451
  25 C :   -0.031095
  26 H :    0.023769
  27 H :    0.015495
  28 C :   -0.067967
  29 H :    0.023427
  30 H :    0.029744
  31 H :    0.021611
  32 H :    0.036899
  33 H :    0.037627

  Mayer bond orders larger than 0.100000
B(  0-S ,  1-C ) :   1.1270 B(  0-S ,  4-C ) :   1.1442 B(  1-C ,  2-C ) :   1.5822
B(  1-C ,  4-C ) :   0.1005 B(  1-C , 32-H ) :   0.9638 B(  2-C ,  3-C ) :   1.2513
B(  2-C ,  6-C ) :   1.0250 B(  3-C ,  4-C ) :   1.5614 B(  3-C ,  5-H ) :   1.0019
B(  4-C , 20-C ) :   1.0831 B(  6-C ,  7-H ) :   0.9137 B(  6-C ,  8-H ) :   0.9505
B(  6-C ,  9-C ) :   1.0724 B(  9-C , 10-H ) :   0.9444 B(  9-C , 11-H ) :   0.9641
B(  9-C , 12-C ) :   1.0735 B( 12-C , 13-H ) :   0.9729 B( 12-C , 14-H ) :   0.9757
B( 12-C , 15-H ) :   0.9753 B( 16-S , 17-C ) :   1.1658 B( 16-S , 20-C ) :   1.1595
B( 17-C , 18-C ) :   1.5566 B( 17-C , 20-C ) :   0.1112 B( 17-C , 33-H ) :   0.9627
B( 18-C , 19-C ) :   1.3013 B( 18-C , 21-H ) :   1.0018 B( 19-C , 20-C ) :   1.5094
B( 19-C , 22-C ) :   1.0360 B( 22-C , 23-H ) :   0.9365 B( 22-C , 24-H ) :   0.9345
B( 22-C , 25-C ) :   1.0696 B( 25-C , 26-H ) :   0.9536 B( 25-C , 27-H ) :   0.9572
B( 25-C , 28-C ) :   1.0754 B( 28-C , 29-H ) :   0.9731 B( 28-C , 30-H ) :   0.9748
B( 28-C , 31-H ) :   0.9752

Dispersion correction           -0.014822603
FINAL SINGLE POINT ENERGY     -1339.859334416121

DIPOLE MOMENT
-------------
                                X             Y             Z
Electronic contribution:      9.96851      21.51118     -12.33701
Nuclear contribution   :    -10.29587     -22.02568      12.32813
                        -----------------------------------------
Total Dipole Moment    :     -0.32736      -0.51450      -0.00889
                        -----------------------------------------
Magnitude (a.u.)       :      0.60988
Magnitude (Debye)      :      1.55020

Rotational constants in cm-1:     0.021681     0.007970     0.006960
Rotational constants in MHz :   649.984906   238.926524   208.661807

                             ****ORCA TERMINATED NORMALLY****
TOTAL RUN TIME: 0 days 0 hours 0 minutes 33 seconds 533 msec
