                         Program Version 4.2.1 -  RELEASE  -
|  1> ! wB97X-D3 SP def2-SVP
|  2> %pal
|  3> nprocs 16
|  4> end
|  5>
|  6> * xyz 0 1
|  7> S 	 52.3243 	 9.14693 	 82.3124
|  8> C 	 51.3073 	 10.4061 	 81.5369
|  9> C 	 50.0548 	 9.86369 	 81.1926
| 10> C 	 49.8706 	 8.58051 	 81.7101
| 11> C 	 50.889 	 8.10357 	 82.4776
| 12> H 	 49.0555 	 7.95687 	 81.425
| 13> C 	 48.9739 	 10.6342 	 80.4032
| 14> H 	 48.4453 	 11.2977 	 81.1368
| 15> H 	 48.2022 	 9.92227 	 80.1869
| 16> C 	 49.4891 	 11.4021 	 79.1735
| 17> H 	 50.0236 	 12.2727 	 79.5486
| 18> H 	 50.2466 	 10.9456 	 78.5604
| 19> C 	 48.2918 	 12.0859 	 78.3571
| 20> H 	 48.6121 	 12.7181 	 77.4481
| 21> H 	 47.4084 	 11.4798 	 78.1873
| 22> H 	 47.7313 	 12.7482 	 79.009
| 23> S 	 50.1912 	 5.48929 	 81.9911
| 24> C 	 50.7909 	 4.18721 	 83.0894
| 25> C 	 51.2835 	 4.70514 	 84.2675
| 26> C 	 51.485 	 6.11959 	 84.1421
| 27> C 	 50.987 	 6.70747 	 82.9207
| 28> H 	 51.4177 	 4.11302 	 85.138
| 29> C 	 52.1007 	 6.93125 	 85.2641
| 30> H 	 51.395 	 7.08113 	 86.0991
| 31> H 	 52.3509 	 7.90094 	 84.7856
| 32> C 	 53.4187 	 6.45636 	 85.963
| 33> H 	 53.1997 	 5.4398 	 86.1292
| 34> H 	 53.5095 	 6.91119 	 86.9271
| 35> C 	 54.6815 	 6.58961 	 85.0818
| 36> H 	 54.7511 	 7.52069 	 84.5804
| 37> H 	 54.7196 	 5.75735 	 84.3395
| 38> H 	 55.5337 	 6.3856 	 85.6717
| 39> H 	 51.502 	 11.3724 	 81.3907
| 40> H 	 50.5427 	 3.12492 	 83.1072
| 41> *
| 42>
| 43>                          ****END OF INPUT****

CARTESIAN COORDINATES (ANGSTROEM)
---------------------------------
  S     52.324300    9.146930   82.312400
  C     51.307300   10.406100   81.536900
  C     50.054800    9.863690   81.192600
  C     49.870600    8.580510   81.710100
  C     50.889000    8.103570   82.477600
  H     49.055500    7.956870   81.425000
  C     48.973900   10.634200   80.403200
  H     48.445300   11.297700   81.136800
  H     48.202200    9.922270   80.186900
  C     49.489100   11.402100   79.173500
  H     50.023600   12.272700   79.548600
  H     50.246600   10.945600   78.560400
  C     48.291800   12.085900   78.357100
  H     48.612100   12.718100   77.448100
  H     47.408400   11.479800   78.187300
  H     47.731300   12.748200   79.009000
  S     50.191200    5.489290   81.991100
  C     50.790900    4.187210   83.089400
  C     51.283500    4.705140   84.267500
  C     51.485000    6.119590   84.142100
  C     50.987000    6.707470   82.920700
  H     51.417700    4.113020   85.138000
  C     52.100700    6.931250   85.264100
  H     51.395000    7.081130   86.099100
  H     52.350900    7.900940   84.785600
  C     53.418700    6.456360   85.963000
  H     53.199700    5.439800   86.129200
  H     53.509500    6.911190   86.927100
  C     54.681500    6.589610   85.081800
  H     54.751100    7.520690   84.580400
  H     54.719600    5.757350   84.339500
  H     55.533700    6.385600   85.671700
  H     51.502000   11.372400   81.390700
  H     50.542700    3.124920   83.107200

 Total Charge           Charge          ....    0
 Multiplicity           Mult            ....    1
 Number of Electrons    NEL             ....  134
 Basis Dimension        Dim             ....  322

ORBITAL ENERGIES
----------------

  NO   OCC          E(Eh)            E(eV)
   0   2.0000     -88.971255     -2421.0309
   1   2.0000     -88.971064     -2421.0257
   2   2.0000     -10.333051      -281.1766
   3   2.0000     -10.331981      -281.1475
   4   2.0000     -10.322612      -280.8926
   5   2.0000     -10.310599      -280.5657
   6   2.0000     -10.309309      -280.5306
   7   2.0000     -10.303128      -280.3624
   8   2.0000     -10.300455      -280.2896
   9   2.0000     -10.295908      -280.1659
  10   2.0000     -10.295451      -280.1535
  11   2.0000     -10.288954      -279.9767
  12   2.0000     -10.288414      -279.9620
  13   2.0000     -10.287671      -279.9418
  14   2.0000     -10.278933      -279.7040
  15   2.0000     -10.269288      -279.4415
  16   2.0000      -8.084781      -219.9981
  17   2.0000      -8.084052      -219.9782
  18   2.0000      -6.043545      -164.4532
  19   2.0000      -6.042776      -164.4323
  20   2.0000      -6.039456      -164.3420
  21   2.0000      -6.038992      -164.3293
  22   2.0000      -6.035319      -164.2294
  23   2.0000      -6.034532      -164.2080
  24   2.0000      -1.003707       -27.3123
  25   2.0000      -0.979564       -26.6553
  26   2.0000      -0.906035       -24.6545
  27   2.0000      -0.901545       -24.5323
  28   2.0000      -0.870609       -23.6905
  29   2.0000      -0.849878       -23.1264
  30   2.0000      -0.840136       -22.8613
  31   2.0000      -0.817187       -22.2368
  32   2.0000      -0.780725       -21.2446
  33   2.0000      -0.766848       -20.8670
  34   2.0000      -0.720784       -19.6135
  35   2.0000      -0.707164       -19.2429
  36   2.0000      -0.694465       -18.8973
  37   2.0000      -0.664421       -18.0798
  38   2.0000      -0.636768       -17.3273
  39   2.0000      -0.619901       -16.8684
  40   2.0000      -0.589458       -16.0400
  41   2.0000      -0.570545       -15.5253
  42   2.0000      -0.552846       -15.0437
  43   2.0000      -0.548528       -14.9262
  44   2.0000      -0.540834       -14.7168
  45   2.0000      -0.530935       -14.4475
  46   2.0000      -0.520332       -14.1590
  47   2.0000      -0.512854       -13.9555
  48   2.0000      -0.502614       -13.6768
  49   2.0000      -0.499255       -13.5854
  50   2.0000      -0.481967       -13.1150
  51   2.0000      -0.480952       -13.0874
  52   2.0000      -0.470633       -12.8066
  53   2.0000      -0.459655       -12.5078
  54   2.0000      -0.458372       -12.4729
  55   2.0000      -0.453981       -12.3534
  56   2.0000      -0.445558       -12.1242
  57   2.0000      -0.442534       -12.0420
  58   2.0000      -0.430909       -11.7256
  59   2.0000      -0.423771       -11.5314
  60   2.0000      -0.419081       -11.4038
  61   2.0000      -0.412381       -11.2215
  62   2.0000      -0.406470       -11.0606
  63   2.0000      -0.351242        -9.5578
  64   2.0000      -0.333910        -9.0862
  65   2.0000      -0.327039        -8.8992
  66   2.0000      -0.285611        -7.7719
  67   0.0000       0.016141         0.4392
  68   0.0000       0.066172         1.8006
  69   0.0000       0.097784         2.6608
  70   0.0000       0.099766         2.7148
  71   0.0000       0.127722         3.4755

MULLIKEN ATOMIC CHARGES
-----------------------
   0 S :    0.104185
   1 C :   -0.065292
   2 C :   -0.094099
   3 C :   -0.022758
   4 C :   -0.075431
   5 H :    0.009016
   6 C :    0.066750
   7 H :    0.049335
   8 H :    0.011029
   9 C :   -0.062538
  10 H :    0.028266
  11 H :    0.042538
  12 C :   -0.069938
  13 H :    0.060035
  14 H :    0.021823
  15 H :    0.009357
  16 S :    0.095284
  17 C :   -0.080438
  18 C :   -0.032193
  19 C :   -0.055849
  20 C :   -0.136356
  21 H :    0.024908
  22 C :    0.024140
  23 H :    0.044320
  24 H :    0.015908
  25 C :   -0.047510
  26 H :    0.001699
  27 H :    0.025427
  28 C :   -0.028871
  29 H :    0.031921
  30 H :    0.034951
  31 H :    0.021447
  32 H :   -0.009991
  33 H :    0.058925
Sum of atomic charges:   -0.0000000

LOEWDIN ATOMIC CHARGES
----------------------
   0 S :    0.389794
   1 C :   -0.166740
   2 C :   -0.050760
   3 C :   -0.073108
   4 C :   -0.172779
   5 H :    0.023491
   6 C :   -0.030679
   7 H :    0.042974
   8 H :    0.023791
   9 C :   -0.038577
  10 H :    0.026300
  11 H :    0.025814
  12 C :   -0.083627
  13 H :    0.039518
  14 H :    0.023113
  15 H :    0.023381
  16 S :    0.405641
  17 C :   -0.172921
  18 C :   -0.063636
  19 C :   -0.052392
  20 C :   -0.208804
  21 H :    0.030598
  22 C :   -0.040627
  23 H :    0.036633
  24 H :    0.018311
  25 C :   -0.034833
  26 H :    0.012676
  27 H :    0.021633
  28 C :   -0.059881
  29 H :    0.019353
  30 H :    0.033393
  31 H :    0.021167
  32 H :   -0.001442
  33 H :    0.033227

  Mayer bond orders larger than 0.100000
B(  0-S ,  1-C ) :   1.1279 B(  0-S ,  4-C ) :   1.1381 B(  1-C ,  2-C ) :   1.5881
B(  1-C ,  4-C ) :   0.1053 B(  1-C , 32-H ) :   0.9862 B(  2-C ,  3-C ) :   1.2741
B(  2-C ,  6-C ) :   1.0111 B(  3-C ,  4-C ) :   1.5559 B(  3-C ,  5-H ) :   0.9928
B(  4-C , 20-C ) :   1.0618 B(  6-C ,  7-H ) :   0.9344 B(  6-C ,  8-H ) :   0.9472
B(  6-C ,  9-C ) :   1.0468 B(  9-C , 10-H ) :   0.9498 B(  9-C , 11-H ) :   0.9714
B(  9-C , 12-C ) :   1.0623 B( 12-C , 13-H ) :   0.9763 B( 12-C , 14-H ) :   0.9758
B( 12-C , 15-H ) :   0.9683 B( 16-S , 17-C ) :   1.1450 B( 16-S , 20-C ) :   1.1389
B( 17-C , 18-C ) :   1.6157 B( 17-C , 33-H ) :   0.9595 B( 18-C , 19-C ) :   1.2559
B( 18-C , 21-H ) :   0.9885 B( 19-C , 20-C ) :   1.5310 B( 19-C , 22-C ) :   1.0518
B( 22-C , 23-H ) :   0.9341 B( 22-C , 24-H ) :   0.9340 B( 22-C , 25-C ) :   1.0684
B( 25-C , 26-H ) :   0.9537 B( 25-C , 27-H ) :   0.9569 B( 25-C , 28-C ) :   1.0752
B( 28-C , 29-H ) :   0.9792 B( 28-C , 30-H ) :   0.9748 B( 28-C , 31-H ) :   0.9732

Dispersion correction           -0.013811219
FINAL SINGLE POINT ENERGY     -1339.839229206634

DIPOLE MOMENT
-------------
                                X             Y             Z
Electronic contribution:     -0.03723     -11.79099       0.32038
Nuclear contribution   :     -0.25886      11.88389      -0.10417
                        -----------------------------------------
Total Dipole Moment    :     -0.29609       0.09291       0.21620
                        -----------------------------------------
Magnitude (a.u.)       :      0.37821
Magnitude (Debye)      :      0.96133

Rotational constants in cm-1:     0.025792     0.006919     0.005745
Rotational constants in MHz :   773.220109   207.419279   172.228481

                             ****ORCA TERMINATED NORMALLY****
TOTAL RUN TIME: 0 days 0 hours 0 minutes 30 seconds 612 msec
