                         Program Version 4.2.1 -  RELEASE  -
|  1> ! wB97X-D3 SP def2-SVP
|  2> %pal
|  3> nprocs 16
|  4> end
|  5>
|  6> * xyz 0 1
|  7> S 	 -3.21054 	 78.2293 	 55.5727
|  8> C 	 -2.88994 	 76.9614 	 56.7666
|  9> C 	 -2.44588 	 75.813 	 56.2067
| 10> C 	 -2.26905 	 75.9363 	 54.7738
| 11> C 	 -2.66638 	 77.1786 	 54.2917
| 12> H 	 -2.06852 	 75.0926 	 54.1256
| 13> C 	 -2.00442 	 74.6327 	 57.0182
| 14> H 	 -1.89962 	 74.9522 	 58.0528
| 15> H 	 -1.00628 	 74.4754 	 56.5994
| 16> C 	 -2.7084 	 73.2208 	 56.8743
| 17> H 	 -3.75421 	 73.3161 	 57.073
| 18> H 	 -2.68545 	 72.8052 	 55.8751
| 19> C 	 -2.16429 	 72.162 	 57.8305
| 20> H 	 -2.83834 	 71.3284 	 57.8507
| 21> H 	 -1.22019 	 71.6974 	 57.5376
| 22> H 	 -2.07345 	 72.5983 	 58.7925
| 23> S 	 -4.12113 	 78.2675 	 52.4554
| 24> C 	 -3.47643 	 78.6901 	 50.8406
| 25> C 	 -2.12968 	 78.3057 	 50.713
| 26> C 	 -1.66291 	 77.6352 	 51.9083
| 27> C 	 -2.63322 	 77.6715 	 52.927
| 28> H 	 -1.58105 	 78.4536 	 49.8048
| 29> C 	 -0.244295 	 77.2022 	 52.0496
| 30> H 	 0.087804 	 76.6583 	 51.237
| 31> H 	 -0.107954 	 76.5353 	 52.9113
| 32> C 	 0.812708 	 78.3487 	 52.0661
| 33> H 	 0.603208 	 78.8748 	 51.1461
| 34> H 	 1.85217 	 77.9345 	 52.1328
| 35> C 	 0.630318 	 79.2514 	 53.284
| 36> H 	 1.55386 	 79.5795 	 53.6911
| 37> H 	 0.163956 	 78.683 	 54.098
| 38> H 	 -0.105252 	 80.108 	 53.1127
| 39> H 	 -2.98173 	 77.1859 	 57.8397
| 40> H 	 -4.05578 	 79.0415 	 50.0149
| 41> *
| 42>
| 43>                          ****END OF INPUT****

CARTESIAN COORDINATES (ANGSTROEM)
---------------------------------
  S     -3.210540   78.229300   55.572700
  C     -2.889940   76.961400   56.766600
  C     -2.445880   75.813000   56.206700
  C     -2.269050   75.936300   54.773800
  C     -2.666380   77.178600   54.291700
  H     -2.068520   75.092600   54.125600
  C     -2.004420   74.632700   57.018200
  H     -1.899620   74.952200   58.052800
  H     -1.006280   74.475400   56.599400
  C     -2.708400   73.220800   56.874300
  H     -3.754210   73.316100   57.073000
  H     -2.685450   72.805200   55.875100
  C     -2.164290   72.162000   57.830500
  H     -2.838340   71.328400   57.850700
  H     -1.220190   71.697400   57.537600
  H     -2.073450   72.598300   58.792500
  S     -4.121130   78.267500   52.455400
  C     -3.476430   78.690100   50.840600
  C     -2.129680   78.305700   50.713000
  C     -1.662910   77.635200   51.908300
  C     -2.633220   77.671500   52.927000
  H     -1.581050   78.453600   49.804800
  C     -0.244295   77.202200   52.049600
  H      0.087804   76.658300   51.237000
  H     -0.107954   76.535300   52.911300
  C      0.812708   78.348700   52.066100
  H      0.603208   78.874800   51.146100
  H      1.852170   77.934500   52.132800
  C      0.630318   79.251400   53.284000
  H      1.553860   79.579500   53.691100
  H      0.163956   78.683000   54.098000
  H     -0.105252   80.108000   53.112700
  H     -2.981730   77.185900   57.839700
  H     -4.055780   79.041500   50.014900

 Total Charge           Charge          ....    0
 Multiplicity           Mult            ....    1
 Number of Electrons    NEL             ....  134
 Basis Dimension        Dim             ....  322

ORBITAL ENERGIES
----------------

  NO   OCC          E(Eh)            E(eV)
   0   2.0000     -88.967740     -2420.9353
   1   2.0000     -88.964608     -2420.8500
   2   2.0000     -10.330861      -281.1170
   3   2.0000     -10.323037      -280.9041
   4   2.0000     -10.319259      -280.8013
   5   2.0000     -10.312041      -280.6049
   6   2.0000     -10.305496      -280.4268
   7   2.0000     -10.299896      -280.2744
   8   2.0000     -10.299815      -280.2722
   9   2.0000     -10.295176      -280.1460
  10   2.0000     -10.295128      -280.1447
  11   2.0000     -10.287637      -279.9408
  12   2.0000     -10.285541      -279.8838
  13   2.0000     -10.280783      -279.7543
  14   2.0000     -10.274397      -279.5806
  15   2.0000     -10.267978      -279.4059
  16   2.0000      -8.083274      -219.9571
  17   2.0000      -8.079460      -219.8533
  18   2.0000      -6.041672      -164.4022
  19   2.0000      -6.038026      -164.3030
  20   2.0000      -6.037552      -164.2901
  21   2.0000      -6.034194      -164.1988
  22   2.0000      -6.033992      -164.1933
  23   2.0000      -6.030091      -164.0871
  24   2.0000      -1.011590       -27.5268
  25   2.0000      -0.982922       -26.7467
  26   2.0000      -0.912075       -24.8188
  27   2.0000      -0.906844       -24.6765
  28   2.0000      -0.873758       -23.7762
  29   2.0000      -0.848904       -23.0998
  30   2.0000      -0.844201       -22.9719
  31   2.0000      -0.814763       -22.1708
  32   2.0000      -0.781650       -21.2698
  33   2.0000      -0.770672       -20.9711
  34   2.0000      -0.710350       -19.3296
  35   2.0000      -0.697742       -18.9865
  36   2.0000      -0.690674       -18.7942
  37   2.0000      -0.664566       -18.0838
  38   2.0000      -0.639957       -17.4141
  39   2.0000      -0.620929       -16.8963
  40   2.0000      -0.597755       -16.2657
  41   2.0000      -0.566087       -15.4040
  42   2.0000      -0.562613       -15.3095
  43   2.0000      -0.548785       -14.9332
  44   2.0000      -0.547070       -14.8865
  45   2.0000      -0.525538       -14.3006
  46   2.0000      -0.515621       -14.0308
  47   2.0000      -0.508005       -13.8235
  48   2.0000      -0.506468       -13.7817
  49   2.0000      -0.496764       -13.5176
  50   2.0000      -0.492324       -13.3968
  51   2.0000      -0.479611       -13.0509
  52   2.0000      -0.465694       -12.6722
  53   2.0000      -0.460561       -12.5325
  54   2.0000      -0.460493       -12.5306
  55   2.0000      -0.450263       -12.2523
  56   2.0000      -0.446802       -12.1581
  57   2.0000      -0.437119       -11.8946
  58   2.0000      -0.429118       -11.6769
  59   2.0000      -0.425316       -11.5734
  60   2.0000      -0.422294       -11.4912
  61   2.0000      -0.419134       -11.4052
  62   2.0000      -0.412592       -11.2272
  63   2.0000      -0.349754        -9.5173
  64   2.0000      -0.329752        -8.9730
  65   2.0000      -0.327198        -8.9035
  66   2.0000      -0.289944        -7.8898
  67   0.0000       0.033076         0.9000
  68   0.0000       0.069861         1.9010
  69   0.0000       0.106907         2.9091
  70   0.0000       0.113228         3.0811
  71   0.0000       0.128570         3.4986

MULLIKEN ATOMIC CHARGES
-----------------------
   0 S :    0.103359
   1 C :   -0.155103
   2 C :   -0.054604
   3 C :    0.034745
   4 C :   -0.155213
   5 H :    0.020735
   6 C :    0.050064
   7 H :    0.018991
   8 H :    0.031038
   9 C :   -0.060446
  10 H :    0.024222
  11 H :    0.023567
  12 C :   -0.029692
  13 H :    0.026115
  14 H :    0.029269
  15 H :    0.022878
  16 S :    0.117419
  17 C :   -0.090019
  18 C :   -0.042726
  19 C :   -0.017426
  20 C :   -0.152788
  21 H :    0.022440
  22 C :    0.083921
  23 H :    0.001403
  24 H :    0.018066
  25 C :   -0.088371
  26 H :    0.025644
  27 H :    0.040043
  28 C :   -0.050125
  29 H :    0.023401
  30 H :    0.023248
  31 H :    0.048763
  32 H :    0.056743
  33 H :    0.050437
Sum of atomic charges:    0.0000000

LOEWDIN ATOMIC CHARGES
----------------------
   0 S :    0.392340
   1 C :   -0.194517
   2 C :   -0.063782
   3 C :   -0.067445
   4 C :   -0.192982
   5 H :    0.032039
   6 C :   -0.031480
   7 H :    0.029461
   8 H :    0.036940
   9 C :   -0.036509
  10 H :    0.020679
  11 H :    0.022764
  12 C :   -0.058503
  13 H :    0.026047
  14 H :    0.024685
  15 H :    0.019576
  16 S :    0.436612
  17 C :   -0.179604
  18 C :   -0.057994
  19 C :   -0.056480
  20 C :   -0.222258
  21 H :    0.030434
  22 C :   -0.034081
  23 H :    0.020768
  24 H :    0.028075
  25 C :   -0.035641
  26 H :    0.019458
  27 H :    0.031016
  28 C :   -0.074369
  29 H :    0.017860
  30 H :    0.026029
  31 H :    0.036595
  32 H :    0.031007
  33 H :    0.023261

  Mayer bond orders larger than 0.100000
B(  0-S ,  1-C ) :   1.1098 B(  0-S ,  4-C ) :   1.1544 B(  1-C ,  2-C ) :   1.6398
B(  1-C , 32-H ) :   0.9668 B(  2-C ,  3-C ) :   1.2121 B(  2-C ,  6-C ) :   1.0268
B(  3-C ,  4-C ) :   1.5961 B(  3-C ,  5-H ) :   0.9919 B(  4-C , 20-C ) :   1.0090
B(  6-C ,  7-H ) :   0.9464 B(  6-C ,  8-H ) :   0.9350 B(  6-C ,  9-C ) :   1.0516
B(  9-C , 10-H ) :   0.9574 B(  9-C , 11-H ) :   0.9547 B(  9-C , 12-C ) :   1.0899
B( 12-C , 13-H ) :   0.9728 B( 12-C , 14-H ) :   0.9761 B( 12-C , 15-H ) :   0.9755
B( 16-S , 17-C ) :   1.1454 B( 16-S , 20-C ) :   1.1829 B( 17-C , 18-C ) :   1.6019
B( 17-C , 20-C ) :   0.1019 B( 17-C , 33-H ) :   0.9730 B( 18-C , 19-C ) :   1.2332
B( 18-C , 21-H ) :   0.9889 B( 19-C , 20-C ) :   1.5579 B( 19-C , 22-C ) :   1.0705
B( 22-C , 23-H ) :   0.9202 B( 22-C , 24-H ) :   0.9338 B( 22-C , 25-C ) :   1.0772
B( 25-C , 26-H ) :   0.9570 B( 25-C , 27-H ) :   0.9582 B( 25-C , 28-C ) :   1.0673
B( 28-C , 29-H ) :   0.9771 B( 28-C , 30-H ) :   0.9776 B( 28-C , 31-H ) :   0.9721

Dispersion correction           -0.014519937
FINAL SINGLE POINT ENERGY     -1339.878203494999

DIPOLE MOMENT
-------------
                                X             Y             Z
Electronic contribution:    -17.25403      15.43382      -7.33157
Nuclear contribution   :     17.62523     -15.94245       7.30020
                        -----------------------------------------
Total Dipole Moment    :      0.37120      -0.50863      -0.03137
                        -----------------------------------------
Magnitude (a.u.)       :      0.63046
Magnitude (Debye)      :      1.60250

Rotational constants in cm-1:     0.021157     0.007599     0.006900
Rotational constants in MHz :   634.284296   227.809789   206.869272

                             ****ORCA TERMINATED NORMALLY****
TOTAL RUN TIME: 0 days 0 hours 0 minutes 34 seconds 246 msec
