                         Program Version 4.2.1 -  RELEASE  -
|  1> ! wB97X-D3 SP def2-SVP
|  2> %pal
|  3> nprocs 16
|  4> end
|  5>
|  6> * xyz 0 1
|  7> S 	 12.979 	 -2.34488 	 62.9966
|  8> C 	 13.6233 	 -3.20336 	 61.551
|  9> C 	 14.9396 	 -3.61792 	 61.7502
| 10> C 	 15.4659 	 -3.08927 	 62.9606
| 11> C 	 14.5531 	 -2.39031 	 63.7386
| 12> H 	 16.4219 	 -3.37096 	 63.326
| 13> C 	 15.6905 	 -4.68131 	 60.9754
| 14> H 	 16.6748 	 -4.83985 	 61.3995
| 15> H 	 15.6963 	 -4.41244 	 59.9068
| 16> C 	 14.807 	 -6.03877 	 60.9634
| 17> H 	 14.8324 	 -6.43587 	 62.0119
| 18> H 	 13.8003 	 -5.75889 	 60.7028
| 19> C 	 15.4033 	 -7.1102 	 60.1341
| 20> H 	 15.6278 	 -6.82637 	 59.1096
| 21> H 	 16.2927 	 -7.58326 	 60.576
| 22> H 	 14.6857 	 -7.90987 	 59.9334
| 23> S 	 13.6948 	 -2.73383 	 66.3504
| 24> C 	 14.8366 	 -2.09665 	 67.6013
| 25> C 	 15.9756 	 -1.49894 	 67.1017
| 26> C 	 15.9156 	 -1.41102 	 65.6961
| 27> C 	 14.7991 	 -1.97527 	 65.1263
| 28> H 	 16.6573 	 -1.09387 	 67.7937
| 29> C 	 16.9132 	 -0.747466 	 64.8477
| 30> H 	 16.4416 	 -0.0853754 	 64.1175
| 31> H 	 17.4202 	 -1.50246 	 64.2417
| 32> C 	 17.9203 	 0.0833246 	 65.5768
| 33> H 	 18.5914 	 0.42134 	 64.8362
| 34> H 	 18.4803 	 -0.398344 	 66.3483
| 35> C 	 17.2633 	 1.34376 	 66.3522
| 36> H 	 18.0656 	 1.75604 	 66.9984
| 37> H 	 16.5503 	 1.13892 	 67.1409
| 38> H 	 16.7822 	 2.0873 	 65.6354
| 39> H 	 13.1576 	 -3.66158 	 60.7981
| 40> H 	 14.6881 	 -2.24141 	 68.6649
| 41> *
| 42>
| 43>                          ****END OF INPUT****

CARTESIAN COORDINATES (ANGSTROEM)
---------------------------------
  S     12.979000   -2.344880   62.996600
  C     13.623300   -3.203360   61.551000
  C     14.939600   -3.617920   61.750200
  C     15.465900   -3.089270   62.960600
  C     14.553100   -2.390310   63.738600
  H     16.421900   -3.370960   63.326000
  C     15.690500   -4.681310   60.975400
  H     16.674800   -4.839850   61.399500
  H     15.696300   -4.412440   59.906800
  C     14.807000   -6.038770   60.963400
  H     14.832400   -6.435870   62.011900
  H     13.800300   -5.758890   60.702800
  C     15.403300   -7.110200   60.134100
  H     15.627800   -6.826370   59.109600
  H     16.292700   -7.583260   60.576000
  H     14.685700   -7.909870   59.933400
  S     13.694800   -2.733830   66.350400
  C     14.836600   -2.096650   67.601300
  C     15.975600   -1.498940   67.101700
  C     15.915600   -1.411020   65.696100
  C     14.799100   -1.975270   65.126300
  H     16.657300   -1.093870   67.793700
  C     16.913200   -0.747466   64.847700
  H     16.441600   -0.085375   64.117500
  H     17.420200   -1.502460   64.241700
  C     17.920300    0.083325   65.576800
  H     18.591400    0.421340   64.836200
  H     18.480300   -0.398344   66.348300
  C     17.263300    1.343760   66.352200
  H     18.065600    1.756040   66.998400
  H     16.550300    1.138920   67.140900
  H     16.782200    2.087300   65.635400
  H     13.157600   -3.661580   60.798100
  H     14.688100   -2.241410   68.664900

 Total Charge           Charge          ....    0
 Multiplicity           Mult            ....    1
 Number of Electrons    NEL             ....  134
 Basis Dimension        Dim             ....  322

ORBITAL ENERGIES
----------------

  NO   OCC          E(Eh)            E(eV)
   0   2.0000     -88.971262     -2421.0311
   1   2.0000     -88.965286     -2420.8685
   2   2.0000     -10.329860      -281.0898
   3   2.0000     -10.325286      -280.9653
   4   2.0000     -10.321366      -280.8586
   5   2.0000     -10.306078      -280.4426
   6   2.0000     -10.299496      -280.2635
   7   2.0000     -10.299289      -280.2579
   8   2.0000     -10.298151      -280.2269
   9   2.0000     -10.292963      -280.0858
  10   2.0000     -10.292540      -280.0743
  11   2.0000     -10.288786      -279.9721
  12   2.0000     -10.285391      -279.8797
  13   2.0000     -10.284872      -279.8656
  14   2.0000     -10.284262      -279.8490
  15   2.0000     -10.277277      -279.6589
  16   2.0000      -8.084775      -219.9979
  17   2.0000      -8.078351      -219.8231
  18   2.0000      -6.043438      -164.4503
  19   2.0000      -6.039524      -164.3438
  20   2.0000      -6.036921      -164.2730
  21   2.0000      -6.035379      -164.2310
  22   2.0000      -6.033332      -164.1753
  23   2.0000      -6.028917      -164.0552
  24   2.0000      -1.001503       -27.2523
  25   2.0000      -0.978358       -26.6225
  26   2.0000      -0.912510       -24.8306
  27   2.0000      -0.909145       -24.7391
  28   2.0000      -0.869218       -23.6526
  29   2.0000      -0.851613       -23.1736
  30   2.0000      -0.839640       -22.8478
  31   2.0000      -0.815102       -22.1800
  32   2.0000      -0.783342       -21.3158
  33   2.0000      -0.772771       -21.0282
  34   2.0000      -0.712731       -19.3944
  35   2.0000      -0.703181       -19.1345
  36   2.0000      -0.694935       -18.9101
  37   2.0000      -0.660636       -17.9768
  38   2.0000      -0.638780       -17.3821
  39   2.0000      -0.619074       -16.8459
  40   2.0000      -0.602292       -16.3892
  41   2.0000      -0.578004       -15.7283
  42   2.0000      -0.566198       -15.4070
  43   2.0000      -0.555741       -15.1225
  44   2.0000      -0.529869       -14.4185
  45   2.0000      -0.520947       -14.1757
  46   2.0000      -0.517640       -14.0857
  47   2.0000      -0.512431       -13.9440
  48   2.0000      -0.507184       -13.8012
  49   2.0000      -0.495345       -13.4790
  50   2.0000      -0.486538       -13.2394
  51   2.0000      -0.480950       -13.0873
  52   2.0000      -0.470841       -12.8122
  53   2.0000      -0.467592       -12.7238
  54   2.0000      -0.456461       -12.4209
  55   2.0000      -0.450777       -12.2663
  56   2.0000      -0.447216       -12.1694
  57   2.0000      -0.437301       -11.8996
  58   2.0000      -0.433135       -11.7862
  59   2.0000      -0.427707       -11.6385
  60   2.0000      -0.420032       -11.4296
  61   2.0000      -0.414969       -11.2919
  62   2.0000      -0.412698       -11.2301
  63   2.0000      -0.344618        -9.3775
  64   2.0000      -0.331645        -9.0245
  65   2.0000      -0.328285        -8.9331
  66   2.0000      -0.286332        -7.7915
  67   0.0000       0.022167         0.6032
  68   0.0000       0.064323         1.7503
  69   0.0000       0.098976         2.6933
  70   0.0000       0.118336         3.2201
  71   0.0000       0.127494         3.4693

MULLIKEN ATOMIC CHARGES
-----------------------
   0 S :    0.113065
   1 C :   -0.052697
   2 C :   -0.103942
   3 C :    0.031800
   4 C :   -0.149908
   5 H :   -0.001549
   6 C :    0.061507
   7 H :    0.027960
   8 H :    0.036460
   9 C :   -0.102070
  10 H :    0.043179
  11 H :    0.027852
  12 C :   -0.026870
  13 H :    0.016269
  14 H :    0.037382
  15 H :    0.028658
  16 S :    0.080931
  17 C :   -0.086638
  18 C :   -0.022685
  19 C :   -0.051434
  20 C :   -0.118650
  21 H :    0.007668
  22 C :    0.089903
  23 H :    0.039354
  24 H :    0.029394
  25 C :   -0.046494
  26 H :    0.023438
  27 H :    0.020136
  28 C :   -0.108584
  29 H :    0.031537
  30 H :    0.036714
  31 H :    0.052564
  32 H :   -0.014824
  33 H :    0.050575
Sum of atomic charges:   -0.0000000

LOEWDIN ATOMIC CHARGES
----------------------
   0 S :    0.399470
   1 C :   -0.178688
   2 C :   -0.050821
   3 C :   -0.060673
   4 C :   -0.195672
   5 H :    0.022164
   6 C :   -0.025481
   7 H :    0.027876
   8 H :    0.034215
   9 C :   -0.035809
  10 H :    0.033463
  11 H :    0.019069
  12 C :   -0.074065
  13 H :    0.020565
  14 H :    0.029617
  15 H :    0.030371
  16 S :    0.349733
  17 C :   -0.153344
  18 C :   -0.064383
  19 C :   -0.055078
  20 C :   -0.175198
  21 H :    0.028568
  22 C :   -0.036868
  23 H :    0.040395
  24 H :    0.033615
  25 C :   -0.032266
  26 H :    0.024100
  27 H :    0.017734
  28 C :   -0.078749
  29 H :    0.028979
  30 H :    0.021647
  31 H :    0.033303
  32 H :   -0.003135
  33 H :    0.025346

  Mayer bond orders larger than 0.100000
B(  0-S ,  1-C ) :   1.1202 B(  0-S ,  4-C ) :   1.1521 B(  1-C ,  2-C ) :   1.6128
B(  1-C , 32-H ) :   0.9738 B(  2-C ,  3-C ) :   1.2705 B(  2-C ,  6-C ) :   1.0318
B(  3-C ,  4-C ) :   1.5518 B(  3-C ,  5-H ) :   0.9891 B(  4-C , 20-C ) :   1.0312
B(  6-C ,  7-H ) :   0.9490 B(  6-C ,  8-H ) :   0.9343 B(  6-C ,  9-C ) :   1.0512
B(  9-C , 10-H ) :   0.9558 B(  9-C , 11-H ) :   0.9595 B(  9-C , 12-C ) :   1.0945
B( 12-C , 13-H ) :   0.9692 B( 12-C , 14-H ) :   0.9727 B( 12-C , 15-H ) :   0.9671
B( 16-S , 17-C ) :   1.1424 B( 16-S , 20-C ) :   1.1067 B( 17-C , 18-C ) :   1.6361
B( 17-C , 33-H ) :   0.9605 B( 18-C , 19-C ) :   1.2087 B( 18-C , 21-H ) :   0.9956
B( 19-C , 20-C ) :   1.6403 B( 19-C , 22-C ) :   1.0376 B( 22-C , 23-H ) :   0.9300
B( 22-C , 24-H ) :   0.9122 B( 22-C , 25-C ) :   1.1008 B( 25-C , 26-H ) :   0.9505
B( 25-C , 27-H ) :   0.9505 B( 25-C , 28-C ) :   1.0643 B( 28-C , 29-H ) :   0.9756
B( 28-C , 30-H ) :   0.9748 B( 28-C , 31-H ) :   0.9749

Dispersion correction           -0.014033937
FINAL SINGLE POINT ENERGY     -1339.851153550336

DIPOLE MOMENT
-------------
                                X             Y             Z
Electronic contribution:    -18.20210       3.30538       8.94010
Nuclear contribution   :     18.88233      -3.64733      -8.99276
                        -----------------------------------------
Total Dipole Moment    :      0.68022      -0.34195      -0.05267
                        -----------------------------------------
Magnitude (a.u.)       :      0.76315
Magnitude (Debye)      :      1.93978

Rotational constants in cm-1:     0.022607     0.007134     0.006438
Rotational constants in MHz :   677.731426   213.876062   193.003295

                             ****ORCA TERMINATED NORMALLY****
TOTAL RUN TIME: 0 days 0 hours 0 minutes 34 seconds 899 msec
