                         Program Version 4.2.1 -  RELEASE  -
|  1> ! wB97X-D3 SP def2-SVP
|  2> %pal
|  3> nprocs 16
|  4> end
|  5>
|  6> * xyz 0 1
|  7> S 	 -15.9288 	 -6.33037 	 82.8952
|  8> C 	 -15.7903 	 -4.90966 	 81.8298
|  9> C 	 -15.179 	 -3.84851 	 82.4205
| 10> C 	 -14.9657 	 -4.08393 	 83.8192
| 11> C 	 -15.3163 	 -5.36143 	 84.2281
| 12> H 	 -14.6023 	 -3.41545 	 84.4862
| 13> C 	 -14.7757 	 -2.65513 	 81.6928
| 14> H 	 -14.6097 	 -1.98555 	 82.5202
| 15> H 	 -15.6069 	 -2.25401 	 81.1791
| 16> C 	 -13.6563 	 -2.67273 	 80.7248
| 17> H 	 -13.9865 	 -3.14773 	 79.826
| 18> H 	 -13.6407 	 -1.61368 	 80.492
| 19> C 	 -12.3358 	 -3.00534 	 81.395
| 20> H 	 -12.2601 	 -4.06607 	 81.5496
| 21> H 	 -11.5094 	 -2.66952 	 80.7578
| 22> H 	 -12.4118 	 -2.5298 	 82.3681
| 23> S 	 -14.2402 	 -7.36053 	 85.9228
| 24> C 	 -14.5322 	 -7.24462 	 87.5936
| 25> C 	 -15.21 	 -6.06144 	 87.9053
| 26> C 	 -15.737 	 -5.39009 	 86.7613
| 27> C 	 -15.1571 	 -5.84827 	 85.5916
| 28> H 	 -15.4197 	 -6.01068 	 89.0159
| 29> C 	 -16.6674 	 -4.20568 	 86.878
| 30> H 	 -16.2564 	 -3.4668 	 86.1618
| 31> H 	 -16.5259 	 -3.75587 	 87.8838
| 32> C 	 -18.0921 	 -4.47703 	 86.4522
| 33> H 	 -18.5684 	 -4.94224 	 87.3079
| 34> H 	 -18.0682 	 -5.15878 	 85.594
| 35> C 	 -18.8562 	 -3.22897 	 86.2156
| 36> H 	 -19.8554 	 -3.398 	 85.8534
| 37> H 	 -18.3957 	 -2.66294 	 85.4091
| 38> H 	 -18.9906 	 -2.5694 	 87.1582
| 39> H 	 -16.151 	 -5.00642 	 80.8331
| 40> H 	 -14.0388 	 -7.79128 	 88.3657
| 41> *
| 42>
| 43>                          ****END OF INPUT****

CARTESIAN COORDINATES (ANGSTROEM)
---------------------------------
  S    -15.928800   -6.330370   82.895200
  C    -15.790300   -4.909660   81.829800
  C    -15.179000   -3.848510   82.420500
  C    -14.965700   -4.083930   83.819200
  C    -15.316300   -5.361430   84.228100
  H    -14.602300   -3.415450   84.486200
  C    -14.775700   -2.655130   81.692800
  H    -14.609700   -1.985550   82.520200
  H    -15.606900   -2.254010   81.179100
  C    -13.656300   -2.672730   80.724800
  H    -13.986500   -3.147730   79.826000
  H    -13.640700   -1.613680   80.492000
  C    -12.335800   -3.005340   81.395000
  H    -12.260100   -4.066070   81.549600
  H    -11.509400   -2.669520   80.757800
  H    -12.411800   -2.529800   82.368100
  S    -14.240200   -7.360530   85.922800
  C    -14.532200   -7.244620   87.593600
  C    -15.210000   -6.061440   87.905300
  C    -15.737000   -5.390090   86.761300
  C    -15.157100   -5.848270   85.591600
  H    -15.419700   -6.010680   89.015900
  C    -16.667400   -4.205680   86.878000
  H    -16.256400   -3.466800   86.161800
  H    -16.525900   -3.755870   87.883800
  C    -18.092100   -4.477030   86.452200
  H    -18.568400   -4.942240   87.307900
  H    -18.068200   -5.158780   85.594000
  C    -18.856200   -3.228970   86.215600
  H    -19.855400   -3.398000   85.853400
  H    -18.395700   -2.662940   85.409100
  H    -18.990600   -2.569400   87.158200
  H    -16.151000   -5.006420   80.833100
  H    -14.038800   -7.791280   88.365700

 Total Charge           Charge          ....    0
 Multiplicity           Mult            ....    1
 Number of Electrons    NEL             ....  134
 Basis Dimension        Dim             ....  322

ORBITAL ENERGIES
----------------

  NO   OCC          E(Eh)            E(eV)
   0   2.0000     -88.966476     -2420.9009
   1   2.0000     -88.964191     -2420.8387
   2   2.0000     -10.330206      -281.0992
   3   2.0000     -10.326240      -280.9913
   4   2.0000     -10.311256      -280.5835
   5   2.0000     -10.310728      -280.5692
   6   2.0000     -10.303373      -280.3690
   7   2.0000     -10.295102      -280.1440
   8   2.0000     -10.295041      -280.1423
   9   2.0000     -10.289405      -279.9889
  10   2.0000     -10.288639      -279.9681
  11   2.0000     -10.279236      -279.7122
  12   2.0000     -10.278192      -279.6838
  13   2.0000     -10.277526      -279.6657
  14   2.0000     -10.276049      -279.6255
  15   2.0000     -10.274919      -279.5947
  16   2.0000      -8.080714      -219.8874
  17   2.0000      -8.079054      -219.8422
  18   2.0000      -6.039190      -164.3347
  19   2.0000      -6.037480      -164.2882
  20   2.0000      -6.035363      -164.2306
  21   2.0000      -6.033488      -164.1796
  22   2.0000      -6.031478      -164.1249
  23   2.0000      -6.029957      -164.0835
  24   2.0000      -1.004997       -27.3473
  25   2.0000      -0.984912       -26.8008
  26   2.0000      -0.928669       -25.2704
  27   2.0000      -0.915008       -24.8986
  28   2.0000      -0.870391       -23.6846
  29   2.0000      -0.855755       -23.2863
  30   2.0000      -0.847429       -23.0597
  31   2.0000      -0.814083       -22.1523
  32   2.0000      -0.786004       -21.3882
  33   2.0000      -0.773191       -21.0396
  34   2.0000      -0.712802       -19.3963
  35   2.0000      -0.705905       -19.2087
  36   2.0000      -0.689257       -18.7556
  37   2.0000      -0.658853       -17.9283
  38   2.0000      -0.645859       -17.5747
  39   2.0000      -0.614022       -16.7084
  40   2.0000      -0.590181       -16.0596
  41   2.0000      -0.579914       -15.7803
  42   2.0000      -0.571693       -15.5565
  43   2.0000      -0.562267       -15.3001
  44   2.0000      -0.544446       -14.8151
  45   2.0000      -0.522839       -14.2272
  46   2.0000      -0.516961       -14.0672
  47   2.0000      -0.513671       -13.9777
  48   2.0000      -0.511106       -13.9079
  49   2.0000      -0.496081       -13.4991
  50   2.0000      -0.493395       -13.4260
  51   2.0000      -0.476781       -12.9739
  52   2.0000      -0.472912       -12.8686
  53   2.0000      -0.468531       -12.7494
  54   2.0000      -0.454114       -12.3571
  55   2.0000      -0.446258       -12.1433
  56   2.0000      -0.443953       -12.0806
  57   2.0000      -0.437163       -11.8958
  58   2.0000      -0.432243       -11.7619
  59   2.0000      -0.426770       -11.6130
  60   2.0000      -0.419359       -11.4113
  61   2.0000      -0.412658       -11.2290
  62   2.0000      -0.410069       -11.1586
  63   2.0000      -0.342921        -9.3314
  64   2.0000      -0.332432        -9.0459
  65   2.0000      -0.328974        -8.9518
  66   2.0000      -0.291417        -7.9299
  67   0.0000       0.030398         0.8272
  68   0.0000       0.062306         1.6954
  69   0.0000       0.111609         3.0370
  70   0.0000       0.118823         3.2333
  71   0.0000       0.131524         3.5790

MULLIKEN ATOMIC CHARGES
-----------------------
   0 S :    0.107594
   1 C :   -0.141177
   2 C :   -0.054337
   3 C :    0.060864
   4 C :   -0.152786
   5 H :   -0.026498
   6 C :    0.056561
   7 H :    0.000669
   8 H :    0.015556
   9 C :   -0.022407
  10 H :    0.018885
  11 H :    0.018896
  12 C :   -0.023562
  13 H :    0.042777
  14 H :    0.042408
  15 H :    0.023417
  16 S :    0.110326
  17 C :   -0.093534
  18 C :   -0.072027
  19 C :   -0.042443
  20 C :   -0.168799
  21 H :    0.042213
  22 C :    0.068023
  23 H :    0.006971
  24 H :    0.026344
  25 C :   -0.038534
  26 H :    0.023270
  27 H :    0.043026
  28 C :   -0.055750
  29 H :    0.026655
  30 H :    0.025650
  31 H :    0.040396
  32 H :    0.036986
  33 H :    0.054366
Sum of atomic charges:   -0.0000000

LOEWDIN ATOMIC CHARGES
----------------------
   0 S :    0.386490
   1 C :   -0.173530
   2 C :   -0.063738
   3 C :   -0.046709
   4 C :   -0.188196
   5 H :    0.012070
   6 C :   -0.038991
   7 H :    0.025984
   8 H :    0.031080
   9 C :   -0.034834
  10 H :    0.019263
  11 H :    0.029090
  12 C :   -0.056533
  13 H :    0.026837
  14 H :    0.029776
  15 H :    0.027587
  16 S :    0.405410
  17 C :   -0.202096
  18 C :   -0.086815
  19 C :   -0.052384
  20 C :   -0.191614
  21 H :    0.042341
  22 C :   -0.033820
  23 H :    0.028863
  24 H :    0.032550
  25 C :   -0.041302
  26 H :    0.025689
  27 H :    0.031131
  28 C :   -0.069410
  29 H :    0.023170
  30 H :    0.021913
  31 H :    0.035040
  32 H :    0.018512
  33 H :    0.027179

  Mayer bond orders larger than 0.100000
B(  0-S ,  1-C ) :   1.1269 B(  0-S ,  4-C ) :   1.1414 B(  1-C ,  2-C ) :   1.6038
B(  1-C , 32-H ) :   0.9793 B(  2-C ,  3-C ) :   1.2209 B(  2-C ,  6-C ) :   1.0195
B(  3-C ,  4-C ) :   1.5766 B(  3-C ,  5-H ) :   1.0058 B(  4-C , 20-C ) :   1.0472
B(  6-C ,  7-H ) :   0.9303 B(  6-C ,  8-H ) :   0.9222 B(  6-C ,  9-C ) :   1.0971
B(  9-C , 10-H ) :   0.9502 B(  9-C , 11-H ) :   0.9457 B(  9-C , 12-C ) :   1.0672
B( 12-C , 13-H ) :   0.9752 B( 12-C , 14-H ) :   0.9739 B( 12-C , 15-H ) :   0.9723
B( 16-S , 17-C ) :   1.1754 B( 16-S , 20-C ) :   1.1275 B( 17-C , 18-C ) :   1.6210
B( 17-C , 20-C ) :   0.1021 B( 17-C , 33-H ) :   0.9616 B( 18-C , 19-C ) :   1.2383
B( 18-C , 21-H ) :   0.9761 B( 19-C , 20-C ) :   1.5910 B( 19-C , 22-C ) :   1.0377
B( 22-C , 23-H ) :   0.9332 B( 22-C , 24-H ) :   0.9319 B( 22-C , 25-C ) :   1.0570
B( 25-C , 26-H ) :   0.9463 B( 25-C , 27-H ) :   0.9550 B( 25-C , 28-C ) :   1.0966
B( 28-C , 29-H ) :   0.9702 B( 28-C , 30-H ) :   0.9719 B( 28-C , 31-H ) :   0.9697

Dispersion correction           -0.014754186
FINAL SINGLE POINT ENERGY     -1339.865208113084

DIPOLE MOMENT
-------------
                                X             Y             Z
Electronic contribution:      3.98303     -22.29091       3.66209
Nuclear contribution   :     -4.05453      22.90680      -3.70148
                        -----------------------------------------
Total Dipole Moment    :     -0.07150       0.61588      -0.03939
                        -----------------------------------------
Magnitude (a.u.)       :      0.62127
Magnitude (Debye)      :      1.57914

Rotational constants in cm-1:     0.018571     0.008914     0.007391
Rotational constants in MHz :   556.747671   267.222377   221.575628

                             ****ORCA TERMINATED NORMALLY****
TOTAL RUN TIME: 0 days 0 hours 0 minutes 34 seconds 719 msec
