                         Program Version 4.2.1 -  RELEASE  -
|  1> ! wB97X-D3 SP def2-SVP
|  2> %pal
|  3> nprocs 16
|  4> end
|  5>
|  6> * xyz 0 1
|  7> S 	 -67.9994 	 39.0751 	 134.711
|  8> C 	 -67.9086 	 39.3134 	 132.982
|  9> C 	 -67.6182 	 38.1463 	 132.348
| 10> C 	 -67.4997 	 37.0234 	 133.234
| 11> C 	 -67.8626 	 37.3408 	 134.556
| 12> H 	 -67.2101 	 36.0785 	 132.877
| 13> C 	 -67.6873 	 37.9628 	 130.849
| 14> H 	 -68.7371 	 38.1121 	 130.662
| 15> H 	 -67.4065 	 36.9212 	 130.676
| 16> C 	 -66.8181 	 39.0208 	 130.177
| 17> H 	 -67.0997 	 39.1299 	 129.149
| 18> H 	 -66.8737 	 40.0562 	 130.638
| 19> C 	 -65.4145 	 38.5317 	 129.967
| 20> H 	 -65.0003 	 38.1381 	 130.906
| 21> H 	 -65.3333 	 37.7104 	 129.282
| 22> H 	 -64.7183 	 39.2907 	 129.494
| 23> S 	 -66.794 	 36.7784 	 137.043
| 24> C 	 -67.5286 	 35.4651 	 137.979
| 25> C 	 -68.5475 	 34.7969 	 137.292
| 26> C 	 -68.8387 	 35.4657 	 136.078
| 27> C 	 -67.9268 	 36.4626 	 135.735
| 28> H 	 -69.0067 	 33.9982 	 137.823
| 29> C 	 -69.8397 	 34.9579 	 135.051
| 30> H 	 -69.9193 	 35.7377 	 134.268
| 31> H 	 -70.7913 	 34.8585 	 135.519
| 32> C 	 -69.5723 	 33.6541 	 134.235
| 33> H 	 -69.0296 	 33.9342 	 133.377
| 34> H 	 -70.5007 	 33.2925 	 133.844
| 35> C 	 -69.0604 	 32.4591 	 134.937
| 36> H 	 -68.1197 	 32.7654 	 135.458
| 37> H 	 -68.7851 	 31.6326 	 134.228
| 38> H 	 -69.7389 	 32.0785 	 135.749
| 39> H 	 -68.2204 	 40.3042 	 132.534
| 40> H 	 -67.2569 	 35.1209 	 138.921
| 41> *
| 42>
| 43>                          ****END OF INPUT****

CARTESIAN COORDINATES (ANGSTROEM)
---------------------------------
  S    -67.999400   39.075100  134.711000
  C    -67.908600   39.313400  132.982000
  C    -67.618200   38.146300  132.348000
  C    -67.499700   37.023400  133.234000
  C    -67.862600   37.340800  134.556000
  H    -67.210100   36.078500  132.877000
  C    -67.687300   37.962800  130.849000
  H    -68.737100   38.112100  130.662000
  H    -67.406500   36.921200  130.676000
  C    -66.818100   39.020800  130.177000
  H    -67.099700   39.129900  129.149000
  H    -66.873700   40.056200  130.638000
  C    -65.414500   38.531700  129.967000
  H    -65.000300   38.138100  130.906000
  H    -65.333300   37.710400  129.282000
  H    -64.718300   39.290700  129.494000
  S    -66.794000   36.778400  137.043000
  C    -67.528600   35.465100  137.979000
  C    -68.547500   34.796900  137.292000
  C    -68.838700   35.465700  136.078000
  C    -67.926800   36.462600  135.735000
  H    -69.006700   33.998200  137.823000
  C    -69.839700   34.957900  135.051000
  H    -69.919300   35.737700  134.268000
  H    -70.791300   34.858500  135.519000
  C    -69.572300   33.654100  134.235000
  H    -69.029600   33.934200  133.377000
  H    -70.500700   33.292500  133.844000
  C    -69.060400   32.459100  134.937000
  H    -68.119700   32.765400  135.458000
  H    -68.785100   31.632600  134.228000
  H    -69.738900   32.078500  135.749000
  H    -68.220400   40.304200  132.534000
  H    -67.256900   35.120900  138.921000

 Total Charge           Charge          ....    0
 Multiplicity           Mult            ....    1
 Number of Electrons    NEL             ....  134
 Basis Dimension        Dim             ....  322

ORBITAL ENERGIES
----------------

  NO   OCC          E(Eh)            E(eV)
   0   2.0000     -88.968518     -2420.9564
   1   2.0000     -88.964623     -2420.8505
   2   2.0000     -10.334428      -281.2141
   3   2.0000     -10.327600      -281.0283
   4   2.0000     -10.315477      -280.6984
   5   2.0000     -10.314780      -280.6794
   6   2.0000     -10.304409      -280.3972
   7   2.0000     -10.296967      -280.1947
   8   2.0000     -10.296115      -280.1715
   9   2.0000     -10.294189      -280.1191
  10   2.0000     -10.292481      -280.0727
  11   2.0000     -10.287027      -279.9242
  12   2.0000     -10.285667      -279.8872
  13   2.0000     -10.280026      -279.7337
  14   2.0000     -10.276986      -279.6510
  15   2.0000     -10.275696      -279.6159
  16   2.0000      -8.082589      -219.9384
  17   2.0000      -8.079621      -219.8577
  18   2.0000      -6.041090      -164.3864
  19   2.0000      -6.038111      -164.3054
  20   2.0000      -6.037153      -164.2793
  21   2.0000      -6.034039      -164.1946
  22   2.0000      -6.033424      -164.1778
  23   2.0000      -6.030426      -164.0962
  24   2.0000      -1.005369       -27.3575
  25   2.0000      -0.983826       -26.7713
  26   2.0000      -0.919070       -25.0092
  27   2.0000      -0.907113       -24.6838
  28   2.0000      -0.868789       -23.6410
  29   2.0000      -0.851834       -23.1796
  30   2.0000      -0.848441       -23.0873
  31   2.0000      -0.816566       -22.2199
  32   2.0000      -0.782687       -21.2980
  33   2.0000      -0.769747       -20.9459
  34   2.0000      -0.709316       -19.3015
  35   2.0000      -0.700497       -19.0615
  36   2.0000      -0.688613       -18.7381
  37   2.0000      -0.663770       -18.0621
  38   2.0000      -0.640384       -17.4257
  39   2.0000      -0.615341       -16.7443
  40   2.0000      -0.583421       -15.8757
  41   2.0000      -0.577891       -15.7252
  42   2.0000      -0.562499       -15.3064
  43   2.0000      -0.561884       -15.2896
  44   2.0000      -0.542760       -14.7693
  45   2.0000      -0.537038       -14.6135
  46   2.0000      -0.522550       -14.2193
  47   2.0000      -0.514600       -14.0030
  48   2.0000      -0.500092       -13.6082
  49   2.0000      -0.493115       -13.4183
  50   2.0000      -0.485728       -13.2173
  51   2.0000      -0.478690       -13.0258
  52   2.0000      -0.474058       -12.8998
  53   2.0000      -0.470358       -12.7991
  54   2.0000      -0.460054       -12.5187
  55   2.0000      -0.447319       -12.1722
  56   2.0000      -0.440636       -11.9903
  57   2.0000      -0.435136       -11.8406
  58   2.0000      -0.429521       -11.6879
  59   2.0000      -0.427690       -11.6380
  60   2.0000      -0.424110       -11.5406
  61   2.0000      -0.406276       -11.0553
  62   2.0000      -0.403530       -10.9806
  63   2.0000      -0.340473        -9.2647
  64   2.0000      -0.330593        -8.9959
  65   2.0000      -0.327924        -8.9233
  66   2.0000      -0.297608        -8.0983
  67   0.0000       0.032515         0.8848
  68   0.0000       0.056938         1.5494
  69   0.0000       0.112638         3.0650
  70   0.0000       0.122933         3.3452
  71   0.0000       0.128211         3.4888

MULLIKEN ATOMIC CHARGES
-----------------------
   0 S :    0.114963
   1 C :   -0.167373
   2 C :   -0.110210
   3 C :    0.062805
   4 C :   -0.164807
   5 H :   -0.006347
   6 C :    0.090243
   7 H :    0.044650
   8 H :    0.019317
   9 C :   -0.061943
  10 H :    0.016576
  11 H :    0.047359
  12 C :   -0.065092
  13 H :    0.026998
  14 H :    0.018093
  15 H :    0.041573
  16 S :    0.116210
  17 C :   -0.069813
  18 C :   -0.034784
  19 C :   -0.014905
  20 C :   -0.164344
  21 H :    0.014957
  22 C :    0.065399
  23 H :    0.033821
  24 H :    0.016241
  25 C :   -0.023833
  26 H :    0.008262
  27 H :    0.012077
  28 C :   -0.090690
  29 H :    0.040247
  30 H :    0.044568
  31 H :    0.035959
  32 H :    0.078345
  33 H :    0.025479
Sum of atomic charges:   -0.0000000

LOEWDIN ATOMIC CHARGES
----------------------
   0 S :    0.411102
   1 C :   -0.210117
   2 C :   -0.069061
   3 C :   -0.055429
   4 C :   -0.193515
   5 H :    0.020880
   6 C :   -0.022632
   7 H :    0.037136
   8 H :    0.030105
   9 C :   -0.047116
  10 H :    0.020471
  11 H :    0.033677
  12 C :   -0.068131
  13 H :    0.021519
  14 H :    0.019085
  15 H :    0.033148
  16 S :    0.399251
  17 C :   -0.165164
  18 C :   -0.064917
  19 C :   -0.053927
  20 C :   -0.201496
  21 H :    0.031341
  22 C :   -0.029532
  23 H :    0.035975
  24 H :    0.023857
  25 C :   -0.040793
  26 H :    0.015452
  27 H :    0.023971
  28 C :   -0.076437
  29 H :    0.026132
  30 H :    0.033574
  31 H :    0.027342
  32 H :    0.040341
  33 H :    0.013908

  Mayer bond orders larger than 0.100000
B(  0-S ,  1-C ) :   1.1402 B(  0-S ,  4-C ) :   1.1718 B(  1-C ,  2-C ) :   1.6082
B(  1-C , 32-H ) :   0.9576 B(  2-C ,  3-C ) :   1.2562 B(  2-C ,  6-C ) :   1.0002
B(  3-C ,  4-C ) :   1.5391 B(  3-C ,  5-H ) :   1.0023 B(  4-C , 20-C ) :   1.0242
B(  6-C ,  7-H ) :   0.9392 B(  6-C ,  8-H ) :   0.9463 B(  6-C ,  9-C ) :   1.0612
B(  9-C , 10-H ) :   0.9523 B(  9-C , 11-H ) :   0.9569 B(  9-C , 12-C ) :   1.0756
B( 12-C , 13-H ) :   0.9764 B( 12-C , 14-H ) :   0.9744 B( 12-C , 15-H ) :   0.9716
B( 16-S , 17-C ) :   1.1540 B( 16-S , 20-C ) :   1.1380 B( 17-C , 18-C ) :   1.6255
B( 17-C , 20-C ) :   0.1031 B( 17-C , 33-H ) :   0.9700 B( 18-C , 19-C ) :   1.2137
B( 18-C , 21-H ) :   0.9965 B( 19-C , 20-C ) :   1.5949 B( 19-C , 22-C ) :   1.0578
B( 22-C , 23-H ) :   0.9339 B( 22-C , 24-H ) :   0.9301 B( 22-C , 25-C ) :   1.0687
B( 25-C , 26-H ) :   0.9548 B( 25-C , 27-H ) :   0.9461 B( 25-C , 28-C ) :   1.0938
B( 28-C , 29-H ) :   0.9675 B( 28-C , 30-H ) :   0.9684 B( 28-C , 31-H ) :   0.9718

Dispersion correction           -0.014576943
FINAL SINGLE POINT ENERGY     -1339.865586538211

DIPOLE MOMENT
-------------
                                X             Y             Z
Electronic contribution:      2.05548      12.37117      21.66236
Nuclear contribution   :     -2.31567     -12.73270     -22.17366
                        -----------------------------------------
Total Dipole Moment    :     -0.26018      -0.36152      -0.51130
                        -----------------------------------------
Magnitude (a.u.)       :      0.67810
Magnitude (Debye)      :      1.72360

Rotational constants in cm-1:     0.021079     0.008094     0.006629
Rotational constants in MHz :   631.920877   242.666941   198.723756

                             ****ORCA TERMINATED NORMALLY****
TOTAL RUN TIME: 0 days 0 hours 0 minutes 36 seconds 212 msec
