                         Program Version 4.2.1 -  RELEASE  -
|  1> ! wB97X-D3 SP def2-SVP
|  2> %pal
|  3> nprocs 16
|  4> end
|  5>
|  6> * xyz 0 1
|  7> S 	 -16.0725 	 49.3687 	 43.289
|  8> C 	 -17.0612 	 49.272 	 41.8233
|  9> C 	 -16.4089 	 48.4644 	 40.8933
| 10> C 	 -15.3039 	 47.7206 	 41.3873
| 11> C 	 -15.0086 	 48.0885 	 42.6956
| 12> H 	 -14.69 	 46.9204 	 40.9017
| 13> C 	 -16.8518 	 48.1927 	 39.5274
| 14> H 	 -16.1592 	 48.5437 	 38.8169
| 15> H 	 -17.6327 	 48.9503 	 39.4633
| 16> C 	 -17.2966 	 46.7855 	 39.1672
| 17> H 	 -16.5321 	 46.0416 	 39.2174
| 18> H 	 -18.0665 	 46.3963 	 39.7838
| 19> C 	 -17.8628 	 46.7795 	 37.7787
| 20> H 	 -18.0619 	 45.7064 	 37.4888
| 21> H 	 -18.7875 	 47.3263 	 37.6255
| 22> H 	 -17.2151 	 47.261 	 36.9707
| 23> S 	 -14.6681 	 46.9428 	 45.1662
| 24> C 	 -13.1381 	 46.0241 	 45.4753
| 25> C 	 -12.2996 	 46.1236 	 44.417
| 26> C 	 -12.7938 	 46.7958 	 43.2373
| 27> C 	 -14.1297 	 47.2499 	 43.4957
| 28> H 	 -11.3502 	 45.6446 	 44.4657
| 29> C 	 -11.9025 	 47.1005 	 42.0308
| 30> H 	 -12.4997 	 47.0866 	 41.1291
| 31> H 	 -11.2384 	 46.2364 	 41.9764
| 32> C 	 -11.2045 	 48.4359 	 42.0153
| 33> H 	 -10.3178 	 48.4375 	 42.6641
| 34> H 	 -11.7515 	 49.2856 	 42.4273
| 35> C 	 -10.7441 	 48.7565 	 40.6131
| 36> H 	 -9.98187 	 49.4646 	 40.6055
| 37> H 	 -11.611 	 49.0322 	 39.9664
| 38> H 	 -10.2688 	 47.9477 	 40.1416
| 39> H 	 -18.075 	 49.6316 	 41.639
| 40> H 	 -12.9374 	 45.2666 	 46.3202
| 41> *
| 42>
| 43>                          ****END OF INPUT****

CARTESIAN COORDINATES (ANGSTROEM)
---------------------------------
  S    -16.072500   49.368700   43.289000
  C    -17.061200   49.272000   41.823300
  C    -16.408900   48.464400   40.893300
  C    -15.303900   47.720600   41.387300
  C    -15.008600   48.088500   42.695600
  H    -14.690000   46.920400   40.901700
  C    -16.851800   48.192700   39.527400
  H    -16.159200   48.543700   38.816900
  H    -17.632700   48.950300   39.463300
  C    -17.296600   46.785500   39.167200
  H    -16.532100   46.041600   39.217400
  H    -18.066500   46.396300   39.783800
  C    -17.862800   46.779500   37.778700
  H    -18.061900   45.706400   37.488800
  H    -18.787500   47.326300   37.625500
  H    -17.215100   47.261000   36.970700
  S    -14.668100   46.942800   45.166200
  C    -13.138100   46.024100   45.475300
  C    -12.299600   46.123600   44.417000
  C    -12.793800   46.795800   43.237300
  C    -14.129700   47.249900   43.495700
  H    -11.350200   45.644600   44.465700
  C    -11.902500   47.100500   42.030800
  H    -12.499700   47.086600   41.129100
  H    -11.238400   46.236400   41.976400
  C    -11.204500   48.435900   42.015300
  H    -10.317800   48.437500   42.664100
  H    -11.751500   49.285600   42.427300
  C    -10.744100   48.756500   40.613100
  H     -9.981870   49.464600   40.605500
  H    -11.611000   49.032200   39.966400
  H    -10.268800   47.947700   40.141600
  H    -18.075000   49.631600   41.639000
  H    -12.937400   45.266600   46.320200

 Total Charge           Charge          ....    0
 Multiplicity           Mult            ....    1
 Number of Electrons    NEL             ....  134
 Basis Dimension        Dim             ....  322

ORBITAL ENERGIES
----------------

  NO   OCC          E(Eh)            E(eV)
   0   2.0000     -88.970561     -2421.0120
   1   2.0000     -88.966494     -2420.9014
   2   2.0000     -10.334834      -281.2251
   3   2.0000     -10.329458      -281.0788
   4   2.0000     -10.322695      -280.8948
   5   2.0000     -10.316525      -280.7269
   6   2.0000     -10.309742      -280.5423
   7   2.0000     -10.296571      -280.1839
   8   2.0000     -10.294828      -280.1365
   9   2.0000     -10.293152      -280.0909
  10   2.0000     -10.291377      -280.0426
  11   2.0000     -10.282549      -279.8024
  12   2.0000     -10.282515      -279.8015
  13   2.0000     -10.281124      -279.7636
  14   2.0000     -10.280448      -279.7452
  15   2.0000     -10.268415      -279.4178
  16   2.0000      -8.084216      -219.9827
  17   2.0000      -8.079690      -219.8595
  18   2.0000      -6.042910      -164.4360
  19   2.0000      -6.038924      -164.3275
  20   2.0000      -6.038367      -164.3123
  21   2.0000      -6.034783      -164.2148
  22   2.0000      -6.034520      -164.2076
  23   2.0000      -6.030242      -164.0912
  24   2.0000      -1.000682       -27.2300
  25   2.0000      -0.975536       -26.5457
  26   2.0000      -0.920243       -25.0411
  27   2.0000      -0.913918       -24.8690
  28   2.0000      -0.870976       -23.7005
  29   2.0000      -0.853776       -23.2324
  30   2.0000      -0.847621       -23.0649
  31   2.0000      -0.814969       -22.1764
  32   2.0000      -0.779461       -21.2102
  33   2.0000      -0.766490       -20.8573
  34   2.0000      -0.713159       -19.4061
  35   2.0000      -0.705550       -19.1990
  36   2.0000      -0.695104       -18.9147
  37   2.0000      -0.657143       -17.8818
  38   2.0000      -0.635056       -17.2808
  39   2.0000      -0.617050       -16.7908
  40   2.0000      -0.593636       -16.1537
  41   2.0000      -0.575150       -15.6506
  42   2.0000      -0.567618       -15.4457
  43   2.0000      -0.555599       -15.1186
  44   2.0000      -0.536402       -14.5962
  45   2.0000      -0.526206       -14.3188
  46   2.0000      -0.515671       -14.0321
  47   2.0000      -0.509285       -13.8584
  48   2.0000      -0.502789       -13.6816
  49   2.0000      -0.500911       -13.6305
  50   2.0000      -0.493516       -13.4292
  51   2.0000      -0.476025       -12.9533
  52   2.0000      -0.472524       -12.8580
  53   2.0000      -0.462869       -12.5953
  54   2.0000      -0.454103       -12.3568
  55   2.0000      -0.449662       -12.2359
  56   2.0000      -0.443886       -12.0788
  57   2.0000      -0.440682       -11.9916
  58   2.0000      -0.432994       -11.7824
  59   2.0000      -0.423951       -11.5363
  60   2.0000      -0.421054       -11.4575
  61   2.0000      -0.413856       -11.2616
  62   2.0000      -0.412281       -11.2187
  63   2.0000      -0.351583        -9.5671
  64   2.0000      -0.331796        -9.0286
  65   2.0000      -0.327657        -8.9160
  66   2.0000      -0.281842        -7.6693
  67   0.0000       0.017716         0.4821
  68   0.0000       0.072405         1.9702
  69   0.0000       0.102446         2.7877
  70   0.0000       0.114841         3.1250
  71   0.0000       0.136031         3.7016

MULLIKEN ATOMIC CHARGES
-----------------------
   0 S :    0.111875
   1 C :   -0.132735
   2 C :   -0.082594
   3 C :   -0.024115
   4 C :   -0.116220
   5 H :    0.047570
   6 C :    0.085580
   7 H :    0.018311
   8 H :   -0.005311
   9 C :   -0.003267
  10 H :    0.021676
  11 H :    0.021191
  12 C :   -0.092110
  13 H :    0.038077
  14 H :    0.027941
  15 H :    0.029432
  16 S :    0.093291
  17 C :   -0.121897
  18 C :   -0.019015
  19 C :   -0.060918
  20 C :   -0.162090
  21 H :    0.007358
  22 C :    0.097126
  23 H :    0.001043
  24 H :    0.026197
  25 C :   -0.052301
  26 H :    0.017976
  27 H :    0.039135
  28 C :   -0.019832
  29 H :    0.013161
  30 H :    0.043757
  31 H :    0.007198
  32 H :    0.057274
  33 H :    0.087236
Sum of atomic charges:    0.0000000

LOEWDIN ATOMIC CHARGES
----------------------
   0 S :    0.389240
   1 C :   -0.206572
   2 C :   -0.060841
   3 C :   -0.065949
   4 C :   -0.188374
   5 H :    0.041595
   6 C :   -0.036206
   7 H :    0.028904
   8 H :    0.029784
   9 C :   -0.034100
  10 H :    0.022382
  11 H :    0.026077
  12 C :   -0.072002
  13 H :    0.030721
  14 H :    0.021164
  15 H :    0.027451
  16 S :    0.367405
  17 C :   -0.188802
  18 C :   -0.070242
  19 C :   -0.055998
  20 C :   -0.175558
  21 H :    0.026539
  22 C :   -0.029167
  23 H :    0.025458
  24 H :    0.034039
  25 C :   -0.039703
  26 H :    0.024113
  27 H :    0.031047
  28 C :   -0.058790
  29 H :    0.018524
  30 H :    0.031969
  31 H :    0.017611
  32 H :    0.036057
  33 H :    0.052219

  Mayer bond orders larger than 0.100000
B(  0-S ,  1-C ) :   1.1082 B(  0-S ,  4-C ) :   1.1416 B(  1-C ,  2-C ) :   1.6153
B(  1-C , 32-H ) :   0.9622 B(  2-C ,  3-C ) :   1.2232 B(  2-C ,  6-C ) :   1.0446
B(  3-C ,  4-C ) :   1.5655 B(  3-C ,  5-H ) :   0.9819 B(  4-C , 20-C ) :   1.0727
B(  6-C ,  7-H ) :   0.9247 B(  6-C ,  8-H ) :   0.9343 B(  6-C ,  9-C ) :   1.0651
B(  9-C , 10-H ) :   0.9488 B(  9-C , 11-H ) :   0.9487 B(  9-C , 12-C ) :   1.0880
B( 12-C , 13-H ) :   0.9733 B( 12-C , 14-H ) :   0.9754 B( 12-C , 15-H ) :   0.9721
B( 16-S , 17-C ) :   1.1129 B( 16-S , 20-C ) :   1.1360 B( 17-C , 18-C ) :   1.6529
B( 17-C , 33-H ) :   0.9520 B( 18-C , 19-C ) :   1.2383 B( 18-C , 21-H ) :   0.9837
B( 19-C , 20-C ) :   1.5654 B( 19-C , 22-C ) :   1.0417 B( 22-C , 23-H ) :   0.9344
B( 22-C , 24-H ) :   0.9216 B( 22-C , 25-C ) :   1.0605 B( 25-C , 26-H ) :   0.9490
B( 25-C , 27-H ) :   0.9576 B( 25-C , 28-C ) :   1.0905 B( 28-C , 29-H ) :   0.9695
B( 28-C , 30-H ) :   0.9725 B( 28-C , 31-H ) :   0.9690

Dispersion correction           -0.013850722
FINAL SINGLE POINT ENERGY     -1339.853740215653

DIPOLE MOMENT
-------------
                                X             Y             Z
Electronic contribution:     -6.03104       3.02517      27.60288
Nuclear contribution   :      6.32634      -3.34483     -28.18477
                        -----------------------------------------
Total Dipole Moment    :      0.29530      -0.31966      -0.58190
                        -----------------------------------------
Magnitude (a.u.)       :      0.72663
Magnitude (Debye)      :      1.84694

Rotational constants in cm-1:     0.016838     0.008651     0.007089
Rotational constants in MHz :   504.804922   259.342536   212.535154

                             ****ORCA TERMINATED NORMALLY****
TOTAL RUN TIME: 0 days 0 hours 0 minutes 31 seconds 468 msec
