                         Program Version 4.2.1 -  RELEASE  -
|  1> ! wB97X-D3 SP def2-SVP
|  2> %pal
|  3> nprocs 16
|  4> end
|  5>
|  6> * xyz 0 1
|  7> S 	 -40.0253 	 58.2121 	 103.207
|  8> C 	 -41.4669 	 59.0176 	 102.697
|  9> C 	 -42.165 	 58.2291 	 101.773
| 10> C 	 -41.6381 	 56.8975 	 101.676
| 11> C 	 -40.5199 	 56.6881 	 102.405
| 12> H 	 -42.0303 	 56.0385 	 101.104
| 13> C 	 -43.3033 	 58.7052 	 100.973
| 14> H 	 -42.8711 	 58.6665 	 99.9505
| 15> H 	 -43.5305 	 59.8135 	 101.085
| 16> C 	 -44.5696 	 57.8765 	 100.969
| 17> H 	 -45.2284 	 58.2566 	 100.253
| 18> H 	 -44.1635 	 56.9368 	 100.54
| 19> C 	 -45.2474 	 57.654 	 102.324
| 20> H 	 -45.6459 	 58.5934 	 102.702
| 21> H 	 -46.0626 	 57.0035 	 102.219
| 22> H 	 -44.6134 	 57.217 	 103.057
| 23> S 	 -38.0139 	 55.7202 	 101.859
| 24> C 	 -37.749 	 53.9991 	 102.002
| 25> C 	 -38.8932 	 53.2964 	 102.403
| 26> C 	 -39.9896 	 54.0902 	 102.603
| 27> C 	 -39.6454 	 55.4776 	 102.498
| 28> H 	 -38.8319 	 52.2249 	 102.564
| 29> C 	 -41.3376 	 53.5509 	 103.171
| 30> H 	 -42.0793 	 54.3718 	 103.17
| 31> H 	 -41.1999 	 53.2335 	 104.212
| 32> C 	 -41.9515 	 52.3872 	 102.315
| 33> H 	 -41.184 	 51.561 	 102.272
| 34> H 	 -42.0686 	 52.765 	 101.302
| 35> C 	 -43.3067 	 51.9286 	 102.696
| 36> H 	 -44.0005 	 52.754 	 102.822
| 37> H 	 -43.2222 	 51.3268 	 103.565
| 38> H 	 -43.7696 	 51.2955 	 101.916
| 39> H 	 -41.746 	 60.0002 	 103.051
| 40> H 	 -36.7867 	 53.4755 	 101.95
| 41> *
| 42>
| 43>                          ****END OF INPUT****

CARTESIAN COORDINATES (ANGSTROEM)
---------------------------------
  S    -40.025300   58.212100  103.207000
  C    -41.466900   59.017600  102.697000
  C    -42.165000   58.229100  101.773000
  C    -41.638100   56.897500  101.676000
  C    -40.519900   56.688100  102.405000
  H    -42.030300   56.038500  101.104000
  C    -43.303300   58.705200  100.973000
  H    -42.871100   58.666500   99.950500
  H    -43.530500   59.813500  101.085000
  C    -44.569600   57.876500  100.969000
  H    -45.228400   58.256600  100.253000
  H    -44.163500   56.936800  100.540000
  C    -45.247400   57.654000  102.324000
  H    -45.645900   58.593400  102.702000
  H    -46.062600   57.003500  102.219000
  H    -44.613400   57.217000  103.057000
  S    -38.013900   55.720200  101.859000
  C    -37.749000   53.999100  102.002000
  C    -38.893200   53.296400  102.403000
  C    -39.989600   54.090200  102.603000
  C    -39.645400   55.477600  102.498000
  H    -38.831900   52.224900  102.564000
  C    -41.337600   53.550900  103.171000
  H    -42.079300   54.371800  103.170000
  H    -41.199900   53.233500  104.212000
  C    -41.951500   52.387200  102.315000
  H    -41.184000   51.561000  102.272000
  H    -42.068600   52.765000  101.302000
  C    -43.306700   51.928600  102.696000
  H    -44.000500   52.754000  102.822000
  H    -43.222200   51.326800  103.565000
  H    -43.769600   51.295500  101.916000
  H    -41.746000   60.000200  103.051000
  H    -36.786700   53.475500  101.950000

 Total Charge           Charge          ....    0
 Multiplicity           Mult            ....    1
 Number of Electrons    NEL             ....  134
 Basis Dimension        Dim             ....  322

ORBITAL ENERGIES
----------------

  NO   OCC          E(Eh)            E(eV)
   0   2.0000     -88.972774     -2421.0723
   1   2.0000     -88.960057     -2420.7262
   2   2.0000     -10.333018      -281.1757
   3   2.0000     -10.330062      -281.0953
   4   2.0000     -10.318807      -280.7890
   5   2.0000     -10.313164      -280.6355
   6   2.0000     -10.307624      -280.4847
   7   2.0000     -10.302066      -280.3335
   8   2.0000     -10.299452      -280.2623
   9   2.0000     -10.294721      -280.1336
  10   2.0000     -10.291679      -280.0508
  11   2.0000     -10.291428      -280.0440
  12   2.0000     -10.289146      -279.9819
  13   2.0000     -10.282811      -279.8095
  14   2.0000     -10.275447      -279.6091
  15   2.0000     -10.269657      -279.4516
  16   2.0000      -8.086796      -220.0529
  17   2.0000      -8.074898      -219.7292
  18   2.0000      -6.045140      -164.4966
  19   2.0000      -6.041401      -164.3949
  20   2.0000      -6.037773      -164.2961
  21   2.0000      -6.033468      -164.1790
  22   2.0000      -6.029382      -164.0678
  23   2.0000      -6.025607      -163.9651
  24   2.0000      -1.003231       -27.2993
  25   2.0000      -0.983716       -26.7683
  26   2.0000      -0.915477       -24.9114
  27   2.0000      -0.908413       -24.7192
  28   2.0000      -0.865975       -23.5644
  29   2.0000      -0.858460       -23.3599
  30   2.0000      -0.846103       -23.0236
  31   2.0000      -0.815145       -22.1812
  32   2.0000      -0.785187       -21.3660
  33   2.0000      -0.771138       -20.9837
  34   2.0000      -0.706992       -19.2382
  35   2.0000      -0.693593       -18.8736
  36   2.0000      -0.691778       -18.8242
  37   2.0000      -0.654404       -17.8072
  38   2.0000      -0.641181       -17.4474
  39   2.0000      -0.621590       -16.9143
  40   2.0000      -0.593945       -16.1621
  41   2.0000      -0.572260       -15.5720
  42   2.0000      -0.564491       -15.3606
  43   2.0000      -0.551168       -14.9981
  44   2.0000      -0.543493       -14.7892
  45   2.0000      -0.520727       -14.1697
  46   2.0000      -0.519058       -14.1243
  47   2.0000      -0.510479       -13.8908
  48   2.0000      -0.506437       -13.7809
  49   2.0000      -0.496014       -13.4972
  50   2.0000      -0.492083       -13.3903
  51   2.0000      -0.485545       -13.2124
  52   2.0000      -0.472336       -12.8529
  53   2.0000      -0.465587       -12.6693
  54   2.0000      -0.463673       -12.6172
  55   2.0000      -0.452673       -12.3179
  56   2.0000      -0.445646       -12.1267
  57   2.0000      -0.440915       -11.9979
  58   2.0000      -0.433245       -11.7892
  59   2.0000      -0.420522       -11.4430
  60   2.0000      -0.419725       -11.4213
  61   2.0000      -0.415702       -11.3118
  62   2.0000      -0.407213       -11.0808
  63   2.0000      -0.348560        -9.4848
  64   2.0000      -0.337989        -9.1971
  65   2.0000      -0.322722        -8.7817
  66   2.0000      -0.287902        -7.8342
  67   0.0000       0.028466         0.7746
  68   0.0000       0.064444         1.7536
  69   0.0000       0.111396         3.0312
  70   0.0000       0.118716         3.2304
  71   0.0000       0.125121         3.4047

MULLIKEN ATOMIC CHARGES
-----------------------
   0 S :    0.089017
   1 C :   -0.113952
   2 C :   -0.081330
   3 C :    0.025010
   4 C :   -0.167228
   5 H :    0.025989
   6 C :    0.019135
   7 H :    0.042301
   8 H :    0.024216
   9 C :   -0.056130
  10 H :    0.017224
  11 H :    0.015602
  12 C :    0.000708
  13 H :    0.023536
  14 H :    0.018342
  15 H :    0.032107
  16 S :    0.123923
  17 C :   -0.098229
  18 C :   -0.051378
  19 C :   -0.011178
  20 C :   -0.148070
  21 H :    0.022300
  22 C :    0.056294
  23 H :    0.021561
  24 H :    0.045834
  25 C :   -0.120614
  26 H :    0.033470
  27 H :    0.023663
  28 C :   -0.010144
  29 H :    0.027964
  30 H :    0.023702
  31 H :    0.035549
  32 H :    0.050039
  33 H :    0.060769
Sum of atomic charges:   -0.0000000

LOEWDIN ATOMIC CHARGES
----------------------
   0 S :    0.384000
   1 C :   -0.199541
   2 C :   -0.064653
   3 C :   -0.070633
   4 C :   -0.181507
   5 H :    0.038446
   6 C :   -0.044280
   7 H :    0.042815
   8 H :    0.030658
   9 C :   -0.038194
  10 H :    0.018181
  11 H :    0.023552
  12 C :   -0.055284
  13 H :    0.026355
  14 H :    0.020485
  15 H :    0.024027
  16 S :    0.419602
  17 C :   -0.192750
  18 C :   -0.073038
  19 C :   -0.055693
  20 C :   -0.196339
  21 H :    0.033260
  22 C :   -0.025769
  23 H :    0.027813
  24 H :    0.032995
  25 C :   -0.048065
  26 H :    0.024621
  27 H :    0.022712
  28 C :   -0.063329
  29 H :    0.026191
  30 H :    0.020165
  31 H :    0.032732
  32 H :    0.028222
  33 H :    0.032242

  Mayer bond orders larger than 0.100000
B(  0-S ,  1-C ) :   1.1360 B(  0-S ,  4-C ) :   1.1399 B(  1-C ,  2-C ) :   1.6001
B(  1-C , 32-H ) :   0.9741 B(  2-C ,  3-C ) :   1.2022 B(  2-C ,  6-C ) :   1.0320
B(  3-C ,  4-C ) :   1.6234 B(  3-C ,  5-H ) :   0.9846 B(  4-C , 20-C ) :   0.9920
B(  6-C ,  7-H ) :   0.9318 B(  6-C ,  8-H ) :   0.9437 B(  6-C ,  9-C ) :   1.0751
B(  9-C , 10-H ) :   0.9516 B(  9-C , 11-H ) :   0.9500 B(  9-C , 12-C ) :   1.0810
B( 12-C , 13-H ) :   0.9727 B( 12-C , 14-H ) :   0.9721 B( 12-C , 15-H ) :   0.9726
B( 16-S , 17-C ) :   1.1714 B( 16-S , 20-C ) :   1.1712 B( 17-C , 18-C ) :   1.5758
B( 17-C , 20-C ) :   0.1207 B( 17-C , 33-H ) :   0.9616 B( 18-C , 19-C ) :   1.2900
B( 18-C , 21-H ) :   0.9873 B( 19-C , 20-C ) :   1.5455 B( 19-C , 22-C ) :   1.0311
B( 22-C , 23-H ) :   0.9386 B( 22-C , 24-H ) :   0.9453 B( 22-C , 25-C ) :   1.0482
B( 25-C , 26-H ) :   0.9550 B( 25-C , 27-H ) :   0.9563 B( 25-C , 28-C ) :   1.0994
B( 28-C , 29-H ) :   0.9683 B( 28-C , 30-H ) :   0.9720 B( 28-C , 31-H ) :   0.9718

Dispersion correction           -0.014151827
FINAL SINGLE POINT ENERGY     -1339.877764140255

DIPOLE MOMENT
-------------
                                X             Y             Z
Electronic contribution:     28.80858      11.30165       2.63405
Nuclear contribution   :    -29.37937     -11.67823      -2.83990
                        -----------------------------------------
Total Dipole Moment    :     -0.57078      -0.37659      -0.20586
                        -----------------------------------------
Magnitude (a.u.)       :      0.71413
Magnitude (Debye)      :      1.81518

Rotational constants in cm-1:     0.015775     0.010094     0.006711
Rotational constants in MHz :   472.909022   302.621629   201.203474

                             ****ORCA TERMINATED NORMALLY****
TOTAL RUN TIME: 0 days 0 hours 0 minutes 30 seconds 383 msec
