                         Program Version 4.2.1 -  RELEASE  -
|  1> ! wB97X-D3 SP def2-SVP
|  2> %pal
|  3> nprocs 16
|  4> end
|  5>
|  6> * xyz 0 1
|  7> S 	 -65.4338 	 50.9457 	 128.212
|  8> C 	 -66.5849 	 51.162 	 129.428
|  9> C 	 -66.9895 	 52.4566 	 129.579
| 10> C 	 -66.3285 	 53.3592 	 128.675
| 11> C 	 -65.4521 	 52.6672 	 127.867
| 12> H 	 -66.334 	 54.4633 	 128.705
| 13> C 	 -67.8501 	 52.9666 	 130.784
| 14> H 	 -67.1573 	 53.2441 	 131.561
| 15> H 	 -68.2805 	 52.0647 	 131.291
| 16> C 	 -68.9076 	 54.1308 	 130.566
| 17> H 	 -69.2475 	 54.0699 	 129.541
| 18> H 	 -69.7056 	 53.943 	 131.252
| 19> C 	 -68.2553 	 55.4615 	 130.808
| 20> H 	 -68.0628 	 55.5797 	 131.875
| 21> H 	 -67.2447 	 55.525 	 130.302
| 22> H 	 -68.8484 	 56.3108 	 130.532
| 23> S 	 -62.9119 	 52.8058 	 126.892
| 24> C 	 -62.6237 	 53.7645 	 125.43
| 25> C 	 -63.7865 	 54.2199 	 124.9
| 26> C 	 -64.969 	 53.9151 	 125.705
| 27> C 	 -64.6074 	 53.2004 	 126.839
| 28> H 	 -63.8834 	 54.816 	 123.955
| 29> C 	 -66.3265 	 54.3778 	 125.374
| 30> H 	 -66.2374 	 55.2993 	 124.812
| 31> H 	 -66.9002 	 54.5482 	 126.318
| 32> C 	 -67.1003 	 53.2453 	 124.742
| 33> H 	 -67.1746 	 52.3712 	 125.443
| 34> H 	 -66.489 	 52.9343 	 123.868
| 35> C 	 -68.4967 	 53.5135 	 124.257
| 36> H 	 -68.5155 	 54.3813 	 123.581
| 37> H 	 -69.1413 	 53.6911 	 125.093
| 38> H 	 -68.8884 	 52.6554 	 123.736
| 39> H 	 -66.9437 	 50.3278 	 129.995
| 40> H 	 -61.7195 	 53.8875 	 124.868
| 41> *
| 42>
| 43>                          ****END OF INPUT****

CARTESIAN COORDINATES (ANGSTROEM)
---------------------------------
  S    -65.433800   50.945700  128.212000
  C    -66.584900   51.162000  129.428000
  C    -66.989500   52.456600  129.579000
  C    -66.328500   53.359200  128.675000
  C    -65.452100   52.667200  127.867000
  H    -66.334000   54.463300  128.705000
  C    -67.850100   52.966600  130.784000
  H    -67.157300   53.244100  131.561000
  H    -68.280500   52.064700  131.291000
  C    -68.907600   54.130800  130.566000
  H    -69.247500   54.069900  129.541000
  H    -69.705600   53.943000  131.252000
  C    -68.255300   55.461500  130.808000
  H    -68.062800   55.579700  131.875000
  H    -67.244700   55.525000  130.302000
  H    -68.848400   56.310800  130.532000
  S    -62.911900   52.805800  126.892000
  C    -62.623700   53.764500  125.430000
  C    -63.786500   54.219900  124.900000
  C    -64.969000   53.915100  125.705000
  C    -64.607400   53.200400  126.839000
  H    -63.883400   54.816000  123.955000
  C    -66.326500   54.377800  125.374000
  H    -66.237400   55.299300  124.812000
  H    -66.900200   54.548200  126.318000
  C    -67.100300   53.245300  124.742000
  H    -67.174600   52.371200  125.443000
  H    -66.489000   52.934300  123.868000
  C    -68.496700   53.513500  124.257000
  H    -68.515500   54.381300  123.581000
  H    -69.141300   53.691100  125.093000
  H    -68.888400   52.655400  123.736000
  H    -66.943700   50.327800  129.995000
  H    -61.719500   53.887500  124.868000

 Total Charge           Charge          ....    0
 Multiplicity           Mult            ....    1
 Number of Electrons    NEL             ....  134
 Basis Dimension        Dim             ....  322

ORBITAL ENERGIES
----------------

  NO   OCC          E(Eh)            E(eV)
   0   2.0000     -88.966174     -2420.8927
   1   2.0000     -88.965517     -2420.8748
   2   2.0000     -10.325854      -280.9808
   3   2.0000     -10.319642      -280.8117
   4   2.0000     -10.314576      -280.6739
   5   2.0000     -10.305883      -280.4373
   6   2.0000     -10.302544      -280.3465
   7   2.0000     -10.299356      -280.2597
   8   2.0000     -10.297302      -280.2038
   9   2.0000     -10.296564      -280.1837
  10   2.0000     -10.296525      -280.1827
  11   2.0000     -10.287808      -279.9455
  12   2.0000     -10.286666      -279.9144
  13   2.0000     -10.281316      -279.7688
  14   2.0000     -10.279752      -279.7263
  15   2.0000     -10.269603      -279.4501
  16   2.0000      -8.082120      -219.9257
  17   2.0000      -8.079985      -219.8676
  18   2.0000      -6.040405      -164.3678
  19   2.0000      -6.038659      -164.3203
  20   2.0000      -6.036493      -164.2613
  21   2.0000      -6.034592      -164.2096
  22   2.0000      -6.033002      -164.1663
  23   2.0000      -6.030528      -164.0990
  24   2.0000      -1.011741       -27.5309
  25   2.0000      -0.985697       -26.8222
  26   2.0000      -0.915287       -24.9062
  27   2.0000      -0.906531       -24.6680
  28   2.0000      -0.874949       -23.8086
  29   2.0000      -0.853927       -23.2365
  30   2.0000      -0.847621       -23.0649
  31   2.0000      -0.817687       -22.2504
  32   2.0000      -0.781640       -21.2695
  33   2.0000      -0.767522       -20.8853
  34   2.0000      -0.707872       -19.2622
  35   2.0000      -0.697630       -18.9835
  36   2.0000      -0.684663       -18.6306
  37   2.0000      -0.661969       -18.0131
  38   2.0000      -0.645982       -17.5781
  39   2.0000      -0.621078       -16.9004
  40   2.0000      -0.595445       -16.2029
  41   2.0000      -0.568360       -15.4659
  42   2.0000      -0.564937       -15.3727
  43   2.0000      -0.547120       -14.8879
  44   2.0000      -0.534303       -14.5391
  45   2.0000      -0.526265       -14.3204
  46   2.0000      -0.514335       -13.9958
  47   2.0000      -0.512319       -13.9409
  48   2.0000      -0.507523       -13.8104
  49   2.0000      -0.503708       -13.7066
  50   2.0000      -0.495071       -13.4716
  51   2.0000      -0.487615       -13.2687
  52   2.0000      -0.470666       -12.8075
  53   2.0000      -0.463827       -12.6214
  54   2.0000      -0.456291       -12.4163
  55   2.0000      -0.451550       -12.2873
  56   2.0000      -0.441686       -12.0189
  57   2.0000      -0.434420       -11.8212
  58   2.0000      -0.430660       -11.7189
  59   2.0000      -0.425988       -11.5917
  60   2.0000      -0.421229       -11.4622
  61   2.0000      -0.420014       -11.4292
  62   2.0000      -0.407515       -11.0890
  63   2.0000      -0.349458        -9.5092
  64   2.0000      -0.331603        -9.0234
  65   2.0000      -0.327584        -8.9140
  66   2.0000      -0.291674        -7.9368
  67   0.0000       0.034162         0.9296
  68   0.0000       0.071880         1.9559
  69   0.0000       0.112581         3.0635
  70   0.0000       0.124783         3.3955
  71   0.0000       0.130759         3.5581

MULLIKEN ATOMIC CHARGES
-----------------------
   0 S :    0.127389
   1 C :   -0.124457
   2 C :   -0.049869
   3 C :    0.009726
   4 C :   -0.176822
   5 H :    0.041185
   6 C :    0.003072
   7 H :    0.034816
   8 H :    0.014227
   9 C :   -0.023675
  10 H :    0.033729
  11 H :    0.031669
  12 C :   -0.065189
  13 H :    0.027539
  14 H :    0.034364
  15 H :    0.033423
  16 S :    0.107600
  17 C :   -0.068929
  18 C :   -0.049273
  19 C :   -0.050758
  20 C :   -0.173003
  21 H :    0.033199
  22 C :    0.109250
  23 H :    0.021288
  24 H :    0.015400
  25 C :   -0.137427
  26 H :    0.046868
  27 H :    0.021474
  28 C :    0.008754
  29 H :    0.023022
  30 H :    0.019936
  31 H :    0.032220
  32 H :    0.040684
  33 H :    0.048566
Sum of atomic charges:    0.0000000

LOEWDIN ATOMIC CHARGES
----------------------
   0 S :    0.427765
   1 C :   -0.214612
   2 C :   -0.062916
   3 C :   -0.068763
   4 C :   -0.190395
   5 H :    0.038502
   6 C :   -0.034360
   7 H :    0.029597
   8 H :    0.030368
   9 C :   -0.035612
  10 H :    0.024425
  11 H :    0.025260
  12 C :   -0.068110
  13 H :    0.025395
  14 H :    0.029099
  15 H :    0.022152
  16 S :    0.397244
  17 C :   -0.181517
  18 C :   -0.073020
  19 C :   -0.049863
  20 C :   -0.207418
  21 H :    0.038248
  22 C :   -0.038285
  23 H :    0.028933
  24 H :    0.035329
  25 C :   -0.045429
  26 H :    0.032705
  27 H :    0.021824
  28 C :   -0.062329
  29 H :    0.023675
  30 H :    0.020144
  31 H :    0.027704
  32 H :    0.023967
  33 H :    0.030295

  Mayer bond orders larger than 0.100000
B(  0-S ,  1-C ) :   1.1422 B(  0-S ,  4-C ) :   1.1583 B(  1-C ,  2-C ) :   1.6234
B(  1-C , 32-H ) :   0.9688 B(  2-C ,  3-C ) :   1.2256 B(  2-C ,  6-C ) :   1.0203
B(  3-C ,  4-C ) :   1.6008 B(  3-C ,  5-H ) :   0.9765 B(  4-C , 20-C ) :   1.0403
B(  6-C ,  7-H ) :   0.9462 B(  6-C ,  8-H ) :   0.9433 B(  6-C ,  9-C ) :   1.0385
B(  9-C , 10-H ) :   0.9649 B(  9-C , 11-H ) :   0.9579 B(  9-C , 12-C ) :   1.0763
B( 12-C , 13-H ) :   0.9710 B( 12-C , 14-H ) :   0.9747 B( 12-C , 15-H ) :   0.9716
B( 16-S , 17-C ) :   1.1258 B( 16-S , 20-C ) :   1.1318 B( 17-C , 18-C ) :   1.6451
B( 17-C , 33-H ) :   0.9669 B( 18-C , 19-C ) :   1.2265 B( 18-C , 21-H ) :   0.9747
B( 19-C , 20-C ) :   1.6031 B( 19-C , 22-C ) :   1.0607 B( 22-C , 23-H ) :   0.9278
B( 22-C , 24-H ) :   0.9189 B( 22-C , 25-C ) :   1.0563 B( 25-C , 26-H ) :   0.9542
B( 25-C , 27-H ) :   0.9535 B( 25-C , 28-C ) :   1.0949 B( 28-C , 29-H ) :   0.9709
B( 28-C , 30-H ) :   0.9694 B( 28-C , 31-H ) :   0.9706

Dispersion correction           -0.014719040
FINAL SINGLE POINT ENERGY     -1339.889373936149

DIPOLE MOMENT
-------------
                                X             Y             Z
Electronic contribution:     23.89578     -13.40162      -1.25479
Nuclear contribution   :    -24.34911      13.73596       1.31415
                        -----------------------------------------
Total Dipole Moment    :     -0.45333       0.33434       0.05936
                        -----------------------------------------
Magnitude (a.u.)       :      0.56641
Magnitude (Debye)      :      1.43969

Rotational constants in cm-1:     0.017299     0.009328     0.007769
Rotational constants in MHz :   518.624719   279.647280   232.906021

                             ****ORCA TERMINATED NORMALLY****
TOTAL RUN TIME: 0 days 0 hours 0 minutes 32 seconds 853 msec
