                         Program Version 4.2.1 -  RELEASE  -
|  1> ! wB97X-D3 SP def2-SVP
|  2> %pal
|  3> nprocs 16
|  4> end
|  5>
|  6> * xyz 0 1
|  7> S 	 5.58226 	 -5.07436 	 71.1944
|  8> C 	 3.85989 	 -5.2187 	 71.0537
|  9> C 	 3.17884 	 -4.61849 	 72.1125
| 10> C 	 4.07676 	 -3.9074 	 72.9449
| 11> C 	 5.40416 	 -4.14021 	 72.6605
| 12> H 	 3.82683 	 -3.29633 	 73.7905
| 13> C 	 1.70416 	 -4.59878 	 72.4392
| 14> H 	 1.33648 	 -3.76502 	 71.9378
| 15> H 	 1.59868 	 -4.52954 	 73.486
| 16> C 	 0.75125 	 -5.72793 	 72.0247
| 17> H 	 1.23606 	 -6.65437 	 72.4633
| 18> H 	 -0.177958 	 -5.66674 	 72.6018
| 19> C 	 0.43679 	 -5.8823 	 70.5358
| 20> H 	 -0.367633 	 -6.61096 	 70.5022
| 21> H 	 0.000186309 	 -4.96033 	 70.0891
| 22> H 	 1.31602 	 -6.1079 	 69.91
| 23> S 	 7.84165 	 -4.7563 	 73.6817
| 24> C 	 8.79152 	 -3.58831 	 74.501
| 25> C 	 8.10573 	 -2.38168 	 74.6083
| 26> C 	 6.82338 	 -2.41134 	 73.8901
| 27> C 	 6.5533 	 -3.68092 	 73.3853
| 28> H 	 8.54537 	 -1.53023 	 75.0527
| 29> C 	 6.05116 	 -1.13073 	 73.6413
| 30> H 	 6.07362 	 -0.649722 	 74.6734
| 31> H 	 4.97171 	 -1.32976 	 73.4677
| 32> C 	 6.49268 	 -0.284529 	 72.4092
| 33> H 	 5.90605 	 0.631549 	 72.5148
| 34> H 	 6.25393 	 -0.653136 	 71.4261
| 35> C 	 8.04773 	 0.00722271 	 72.3044
| 36> H 	 8.49155 	 -0.613981 	 71.6131
| 37> H 	 8.60545 	 -0.178425 	 73.1941
| 38> H 	 8.18722 	 1.02539 	 72.0711
| 39> H 	 3.33345 	 -5.8699 	 70.302
| 40> H 	 9.78619 	 -3.79088 	 74.8887
| 41> *
| 42>
| 43>                          ****END OF INPUT****

CARTESIAN COORDINATES (ANGSTROEM)
---------------------------------
  S      5.582260   -5.074360   71.194400
  C      3.859890   -5.218700   71.053700
  C      3.178840   -4.618490   72.112500
  C      4.076760   -3.907400   72.944900
  C      5.404160   -4.140210   72.660500
  H      3.826830   -3.296330   73.790500
  C      1.704160   -4.598780   72.439200
  H      1.336480   -3.765020   71.937800
  H      1.598680   -4.529540   73.486000
  C      0.751250   -5.727930   72.024700
  H      1.236060   -6.654370   72.463300
  H     -0.177958   -5.666740   72.601800
  C      0.436790   -5.882300   70.535800
  H     -0.367633   -6.610960   70.502200
  H      0.000186   -4.960330   70.089100
  H      1.316020   -6.107900   69.910000
  S      7.841650   -4.756300   73.681700
  C      8.791520   -3.588310   74.501000
  C      8.105730   -2.381680   74.608300
  C      6.823380   -2.411340   73.890100
  C      6.553300   -3.680920   73.385300
  H      8.545370   -1.530230   75.052700
  C      6.051160   -1.130730   73.641300
  H      6.073620   -0.649722   74.673400
  H      4.971710   -1.329760   73.467700
  C      6.492680   -0.284529   72.409200
  H      5.906050    0.631549   72.514800
  H      6.253930   -0.653136   71.426100
  C      8.047730    0.007223   72.304400
  H      8.491550   -0.613981   71.613100
  H      8.605450   -0.178425   73.194100
  H      8.187220    1.025390   72.071100
  H      3.333450   -5.869900   70.302000
  H      9.786190   -3.790880   74.888700

 Total Charge           Charge          ....    0
 Multiplicity           Mult            ....    1
 Number of Electrons    NEL             ....  134
 Basis Dimension        Dim             ....  322

ORBITAL ENERGIES
----------------

  NO   OCC          E(Eh)            E(eV)
   0   2.0000     -88.966489     -2420.9012
   1   2.0000     -88.963809     -2420.8283
   2   2.0000     -10.324489      -280.9436
   3   2.0000     -10.319564      -280.8096
   4   2.0000     -10.316374      -280.7228
   5   2.0000     -10.314783      -280.6795
   6   2.0000     -10.302791      -280.3532
   7   2.0000     -10.300799      -280.2990
   8   2.0000     -10.299201      -280.2555
   9   2.0000     -10.294822      -280.1363
  10   2.0000     -10.291595      -280.0485
  11   2.0000     -10.288759      -279.9714
  12   2.0000     -10.288570      -279.9662
  13   2.0000     -10.285152      -279.8732
  14   2.0000     -10.282831      -279.8101
  15   2.0000     -10.261326      -279.2249
  16   2.0000      -8.081409      -219.9063
  17   2.0000      -8.080089      -219.8704
  18   2.0000      -6.039857      -164.3529
  19   2.0000      -6.038498      -164.3159
  20   2.0000      -6.035943      -164.2464
  21   2.0000      -6.034201      -164.1990
  22   2.0000      -6.032182      -164.1440
  23   2.0000      -6.031042      -164.1130
  24   2.0000      -1.011629       -27.5278
  25   2.0000      -0.986501       -26.8440
  26   2.0000      -0.913893       -24.8683
  27   2.0000      -0.900637       -24.5076
  28   2.0000      -0.869573       -23.6623
  29   2.0000      -0.854389       -23.2491
  30   2.0000      -0.842417       -22.9233
  31   2.0000      -0.811903       -22.0930
  32   2.0000      -0.789285       -21.4775
  33   2.0000      -0.776378       -21.1263
  34   2.0000      -0.708934       -19.2911
  35   2.0000      -0.702088       -19.1048
  36   2.0000      -0.689453       -18.7610
  37   2.0000      -0.666846       -18.1458
  38   2.0000      -0.637667       -17.3518
  39   2.0000      -0.614389       -16.7184
  40   2.0000      -0.587797       -15.9948
  41   2.0000      -0.571719       -15.5573
  42   2.0000      -0.559677       -15.2296
  43   2.0000      -0.549258       -14.9461
  44   2.0000      -0.543545       -14.7906
  45   2.0000      -0.535339       -14.5673
  46   2.0000      -0.523872       -14.2553
  47   2.0000      -0.509945       -13.8763
  48   2.0000      -0.503265       -13.6945
  49   2.0000      -0.496240       -13.5034
  50   2.0000      -0.487634       -13.2692
  51   2.0000      -0.485503       -13.2112
  52   2.0000      -0.474104       -12.9010
  53   2.0000      -0.470529       -12.8037
  54   2.0000      -0.458125       -12.4662
  55   2.0000      -0.450851       -12.2683
  56   2.0000      -0.443483       -12.0678
  57   2.0000      -0.441032       -12.0011
  58   2.0000      -0.434167       -11.8143
  59   2.0000      -0.430036       -11.7019
  60   2.0000      -0.421217       -11.4619
  61   2.0000      -0.405267       -11.0279
  62   2.0000      -0.402274       -10.9464
  63   2.0000      -0.349774        -9.5178
  64   2.0000      -0.330474        -8.9927
  65   2.0000      -0.327412        -8.9093
  66   2.0000      -0.286953        -7.8084
  67   0.0000       0.031775         0.8647
  68   0.0000       0.077949         2.1211
  69   0.0000       0.117267         3.1910
  70   0.0000       0.118275         3.2184
  71   0.0000       0.135314         3.6821

MULLIKEN ATOMIC CHARGES
-----------------------
   0 S :    0.118031
   1 C :   -0.150545
   2 C :   -0.080305
   3 C :    0.006753
   4 C :   -0.142636
   5 H :    0.009658
   6 C :    0.112243
   7 H :    0.020117
   8 H :    0.022745
   9 C :   -0.106145
  10 H :    0.031992
  11 H :    0.028992
  12 C :   -0.051165
  13 H :    0.038207
  14 H :    0.030696
  15 H :    0.036428
  16 S :    0.118794
  17 C :   -0.101364
  18 C :   -0.026516
  19 C :   -0.056473
  20 C :   -0.149360
  21 H :    0.013621
  22 C :    0.032949
  23 H :    0.045232
  24 H :    0.021763
  25 C :   -0.058564
  26 H :    0.032513
  27 H :    0.035878
  28 C :   -0.007725
  29 H :    0.022278
  30 H :    0.004607
  31 H :    0.022083
  32 H :    0.062833
  33 H :    0.062386
Sum of atomic charges:    0.0000000

LOEWDIN ATOMIC CHARGES
----------------------
   0 S :    0.412822
   1 C :   -0.221509
   2 C :   -0.057457
   3 C :   -0.060661
   4 C :   -0.190446
   5 H :    0.028715
   6 C :   -0.027748
   7 H :    0.026913
   8 H :    0.029514
   9 C :   -0.046447
  10 H :    0.028918
  11 H :    0.027806
  12 C :   -0.068641
  13 H :    0.029883
  14 H :    0.028287
  15 H :    0.024157
  16 S :    0.439250
  17 C :   -0.199686
  18 C :   -0.065789
  19 C :   -0.059803
  20 C :   -0.221846
  21 H :    0.021959
  22 C :   -0.042667
  23 H :    0.041425
  24 H :    0.031783
  25 C :   -0.030581
  26 H :    0.026049
  27 H :    0.027602
  28 C :   -0.057296
  29 H :    0.018857
  30 H :    0.018954
  31 H :    0.022332
  32 H :    0.034020
  33 H :    0.031331

  Mayer bond orders larger than 0.100000
B(  0-S ,  1-C ) :   1.1347 B(  0-S ,  4-C ) :   1.1518 B(  1-C ,  2-C ) :   1.6065
B(  1-C ,  4-C ) :   0.1002 B(  1-C , 32-H ) :   0.9544 B(  2-C ,  3-C ) :   1.2525
B(  2-C ,  6-C ) :   1.0082 B(  3-C ,  4-C ) :   1.5769 B(  3-C ,  5-H ) :   0.9938
B(  4-C , 20-C ) :   1.0519 B(  6-C ,  7-H ) :   0.9264 B(  6-C ,  8-H ) :   0.9420
B(  6-C ,  9-C ) :   1.0793 B(  9-C , 10-H ) :   0.9555 B(  9-C , 11-H ) :   0.9533
B(  9-C , 12-C ) :   1.0755 B( 12-C , 13-H ) :   0.9721 B( 12-C , 14-H ) :   0.9705
B( 12-C , 15-H ) :   0.9747 B( 16-S , 17-C ) :   1.1679 B( 16-S , 20-C ) :   1.1572
B( 17-C , 18-C ) :   1.5807 B( 17-C , 33-H ) :   0.9706 B( 18-C , 19-C ) :   1.2471
B( 18-C , 21-H ) :   0.9910 B( 19-C , 20-C ) :   1.5682 B( 19-C , 22-C ) :   1.0495
B( 22-C , 23-H ) :   0.9389 B( 22-C , 24-H ) :   0.9307 B( 22-C , 25-C ) :   1.0614
B( 25-C , 26-H ) :   0.9618 B( 25-C , 27-H ) :   0.9622 B( 25-C , 28-C ) :   1.0620
B( 28-C , 29-H ) :   0.9775 B( 28-C , 30-H ) :   0.9766 B( 28-C , 31-H ) :   0.9744

Dispersion correction           -0.014507463
FINAL SINGLE POINT ENERGY     -1339.873535817734

DIPOLE MOMENT
-------------
                                X             Y             Z
Electronic contribution:     16.92608     -11.97371       3.59144
Nuclear contribution   :    -17.34172      12.37670      -3.44746
                        -----------------------------------------
Total Dipole Moment    :     -0.41563       0.40299       0.14398
                        -----------------------------------------
Magnitude (a.u.)       :      0.59656
Magnitude (Debye)      :      1.51633

Rotational constants in cm-1:     0.025044     0.007307     0.006490
Rotational constants in MHz :   750.785414   219.062468   194.565359

                             ****ORCA TERMINATED NORMALLY****
TOTAL RUN TIME: 0 days 0 hours 0 minutes 35 seconds 258 msec
