                         Program Version 4.2.1 -  RELEASE  -
|  1> ! wB97X-D3 SP def2-SVP
|  2> %pal
|  3> nprocs 16
|  4> end
|  5>
|  6> * xyz 0 1
|  7> S 	 57.0369 	 4.38643 	 78.4661
|  8> C 	 55.5213 	 3.96337 	 77.7075
|  9> C 	 54.6961 	 3.20425 	 78.5638
| 10> C 	 55.3717 	 2.93213 	 79.7997
| 11> C 	 56.6014 	 3.54371 	 79.9265
| 12> H 	 54.9738 	 2.29476 	 80.5624
| 13> C 	 53.4019 	 2.61401 	 78.1298
| 14> H 	 52.8928 	 3.25592 	 77.3849
| 15> H 	 52.7918 	 2.59269 	 79.0613
| 16> C 	 53.2816 	 1.10523 	 77.6513
| 17> H 	 52.288 	 0.722055 	 77.7204
| 18> H 	 53.7194 	 0.927842 	 76.5579
| 19> C 	 54.031 	 0.151337 	 78.6211
| 20> H 	 53.8854 	 -0.896681 	 78.1922
| 21> H 	 55.0736 	 0.481353 	 78.6329
| 22> H 	 53.6481 	 0.124885 	 79.6308
| 23> S 	 57.7495 	 5.07374 	 81.9835
| 24> C 	 58.8089 	 4.3556 	 83.1138
| 25> C 	 58.7711 	 2.96805 	 83.0445
| 26> C 	 58.1004 	 2.54384 	 81.8948
| 27> C 	 57.4877 	 3.57085 	 81.1157
| 28> H 	 59.2749 	 2.41917 	 83.8795
| 29> C 	 57.8954 	 1.09126 	 81.7523
| 30> H 	 58.8383 	 0.533726 	 81.8799
| 31> H 	 57.6239 	 0.916587 	 80.6609
| 32> C 	 56.8424 	 0.599606 	 82.7765
| 33> H 	 55.9232 	 1.21343 	 82.8517
| 34> H 	 57.2179 	 0.815651 	 83.778
| 35> C 	 56.6231 	 -0.914629 	 82.5405
| 36> H 	 56.2014 	 -1.23415 	 81.5999
| 37> H 	 56.0837 	 -1.33969 	 83.4027
| 38> H 	 57.5634 	 -1.51148 	 82.5341
| 39> H 	 55.2288 	 4.23802 	 76.7182
| 40> H 	 59.3005 	 4.88262 	 83.9318
| 41> *
| 42>
| 43>                          ****END OF INPUT****

CARTESIAN COORDINATES (ANGSTROEM)
---------------------------------
  S     57.036900    4.386430   78.466100
  C     55.521300    3.963370   77.707500
  C     54.696100    3.204250   78.563800
  C     55.371700    2.932130   79.799700
  C     56.601400    3.543710   79.926500
  H     54.973800    2.294760   80.562400
  C     53.401900    2.614010   78.129800
  H     52.892800    3.255920   77.384900
  H     52.791800    2.592690   79.061300
  C     53.281600    1.105230   77.651300
  H     52.288000    0.722055   77.720400
  H     53.719400    0.927842   76.557900
  C     54.031000    0.151337   78.621100
  H     53.885400   -0.896681   78.192200
  H     55.073600    0.481353   78.632900
  H     53.648100    0.124885   79.630800
  S     57.749500    5.073740   81.983500
  C     58.808900    4.355600   83.113800
  C     58.771100    2.968050   83.044500
  C     58.100400    2.543840   81.894800
  C     57.487700    3.570850   81.115700
  H     59.274900    2.419170   83.879500
  C     57.895400    1.091260   81.752300
  H     58.838300    0.533726   81.879900
  H     57.623900    0.916587   80.660900
  C     56.842400    0.599606   82.776500
  H     55.923200    1.213430   82.851700
  H     57.217900    0.815651   83.778000
  C     56.623100   -0.914629   82.540500
  H     56.201400   -1.234150   81.599900
  H     56.083700   -1.339690   83.402700
  H     57.563400   -1.511480   82.534100
  H     55.228800    4.238020   76.718200
  H     59.300500    4.882620   83.931800

 Total Charge           Charge          ....    0
 Multiplicity           Mult            ....    1
 Number of Electrons    NEL             ....  134
 Basis Dimension        Dim             ....  322

ORBITAL ENERGIES
----------------

  NO   OCC          E(Eh)            E(eV)
   0   2.0000     -88.969019     -2420.9701
   1   2.0000     -88.965295     -2420.8687
   2   2.0000     -10.331991      -281.1478
   3   2.0000     -10.329124      -281.0698
   4   2.0000     -10.316563      -280.7279
   5   2.0000     -10.314226      -280.6643
   6   2.0000     -10.304358      -280.3958
   7   2.0000     -10.300344      -280.2866
   8   2.0000     -10.299701      -280.2691
   9   2.0000     -10.299080      -280.2522
  10   2.0000     -10.296011      -280.1687
  11   2.0000     -10.293408      -280.0979
  12   2.0000     -10.292128      -280.0631
  13   2.0000     -10.290564      -280.0205
  14   2.0000     -10.281379      -279.7705
  15   2.0000     -10.280983      -279.7598
  16   2.0000      -8.083725      -219.9693
  17   2.0000      -8.080488      -219.8812
  18   2.0000      -6.042171      -164.4158
  19   2.0000      -6.038838      -164.3251
  20   2.0000      -6.038101      -164.3051
  21   2.0000      -6.034803      -164.2153
  22   2.0000      -6.034690      -164.2123
  23   2.0000      -6.031521      -164.1260
  24   2.0000      -1.006380       -27.3850
  25   2.0000      -0.987291       -26.8655
  26   2.0000      -0.910472       -24.7752
  27   2.0000      -0.906942       -24.6791
  28   2.0000      -0.864749       -23.5310
  29   2.0000      -0.849115       -23.1056
  30   2.0000      -0.846351       -23.0304
  31   2.0000      -0.815067       -22.1791
  32   2.0000      -0.779093       -21.2002
  33   2.0000      -0.764680       -20.8080
  34   2.0000      -0.709678       -19.3113
  35   2.0000      -0.696463       -18.9517
  36   2.0000      -0.695326       -18.9208
  37   2.0000      -0.655809       -17.8455
  38   2.0000      -0.641303       -17.4507
  39   2.0000      -0.618439       -16.8286
  40   2.0000      -0.593131       -16.1399
  41   2.0000      -0.571641       -15.5551
  42   2.0000      -0.557136       -15.1605
  43   2.0000      -0.548093       -14.9144
  44   2.0000      -0.540230       -14.7004
  45   2.0000      -0.527559       -14.3556
  46   2.0000      -0.512347       -13.9417
  47   2.0000      -0.510041       -13.8789
  48   2.0000      -0.506770       -13.7899
  49   2.0000      -0.496368       -13.5069
  50   2.0000      -0.489181       -13.3113
  51   2.0000      -0.479018       -13.0347
  52   2.0000      -0.471562       -12.8318
  53   2.0000      -0.465118       -12.6565
  54   2.0000      -0.461464       -12.5571
  55   2.0000      -0.445822       -12.1314
  56   2.0000      -0.444510       -12.0957
  57   2.0000      -0.435984       -11.8637
  58   2.0000      -0.433706       -11.8017
  59   2.0000      -0.423678       -11.5289
  60   2.0000      -0.416436       -11.3318
  61   2.0000      -0.412876       -11.2349
  62   2.0000      -0.410803       -11.1785
  63   2.0000      -0.340260        -9.2589
  64   2.0000      -0.327521        -8.9123
  65   2.0000      -0.326136        -8.8746
  66   2.0000      -0.297119        -8.0850
  67   0.0000       0.033318         0.9066
  68   0.0000       0.062065         1.6889
  69   0.0000       0.116111         3.1596
  70   0.0000       0.119001         3.2382
  71   0.0000       0.122450         3.3320

MULLIKEN ATOMIC CHARGES
-----------------------
   0 S :    0.130186
   1 C :   -0.103217
   2 C :   -0.097479
   3 C :    0.050604
   4 C :   -0.169166
   5 H :   -0.001501
   6 C :    0.049248
   7 H :    0.037277
   8 H :    0.027364
   9 C :   -0.083159
  10 H :    0.032668
  11 H :    0.049576
  12 C :   -0.111363
  13 H :    0.045322
  14 H :    0.059940
  15 H :    0.032224
  16 S :    0.120564
  17 C :   -0.098922
  18 C :   -0.077724
  19 C :   -0.016855
  20 C :   -0.152991
  21 H :    0.043166
  22 C :    0.029552
  23 H :    0.029120
  24 H :    0.036962
  25 C :   -0.069062
  26 H :    0.034750
  27 H :    0.018269
  28 C :   -0.032284
  29 H :    0.034735
  30 H :    0.033911
  31 H :    0.020635
  32 H :    0.037989
  33 H :    0.059660
Sum of atomic charges:    0.0000000

LOEWDIN ATOMIC CHARGES
----------------------
   0 S :    0.422945
   1 C :   -0.189050
   2 C :   -0.068911
   3 C :   -0.053625
   4 C :   -0.204214
   5 H :    0.027865
   6 C :   -0.042933
   7 H :    0.034420
   8 H :    0.036755
   9 C :   -0.041342
  10 H :    0.020549
  11 H :    0.034334
  12 C :   -0.075769
  13 H :    0.034740
  14 H :    0.026140
  15 H :    0.017845
  16 S :    0.431747
  17 C :   -0.198652
  18 C :   -0.085785
  19 C :   -0.057647
  20 C :   -0.216470
  21 H :    0.043718
  22 C :   -0.039688
  23 H :    0.031891
  24 H :    0.034236
  25 C :   -0.038441
  26 H :    0.028172
  27 H :    0.024692
  28 C :   -0.071797
  29 H :    0.024229
  30 H :    0.027368
  31 H :    0.029054
  32 H :    0.022614
  33 H :    0.031006

  Mayer bond orders larger than 0.100000
B(  0-S ,  1-C ) :   1.1565 B(  0-S ,  4-C ) :   1.1642 B(  1-C ,  2-C ) :   1.5774
B(  1-C , 32-H ) :   0.9722 B(  2-C ,  3-C ) :   1.2447 B(  2-C ,  6-C ) :   1.0452
B(  3-C ,  4-C ) :   1.5633 B(  3-C ,  5-H ) :   0.9996 B(  4-C , 20-C ) :   1.0148
B(  6-C ,  7-H ) :   0.9434 B(  6-C ,  8-H ) :   0.9317 B(  6-C ,  9-C ) :   1.0569
B(  9-C , 10-H ) :   0.9588 B(  9-C , 11-H ) :   0.9565 B(  9-C , 12-C ) :   1.0722
B( 12-C , 13-H ) :   0.9731 B( 12-C , 14-H ) :   0.9717 B( 12-C , 15-H ) :   0.9748
B( 16-S , 17-C ) :   1.1981 B( 16-S , 20-C ) :   1.1573 B( 17-C , 18-C ) :   1.5578
B( 17-C , 20-C ) :   0.1104 B( 17-C , 33-H ) :   0.9639 B( 18-C , 19-C ) :   1.2758
B( 18-C , 21-H ) :   0.9878 B( 19-C , 20-C ) :   1.5353 B( 19-C , 22-C ) :   1.0699
B( 22-C , 23-H ) :   0.9316 B( 22-C , 24-H ) :   0.9370 B( 22-C , 25-C ) :   1.0451
B( 25-C , 26-H ) :   0.9553 B( 25-C , 27-H ) :   0.9501 B( 25-C , 28-C ) :   1.0709
B( 28-C , 29-H ) :   0.9776 B( 28-C , 30-H ) :   0.9741 B( 28-C , 31-H ) :   0.9696

Dispersion correction           -0.015251483
FINAL SINGLE POINT ENERGY     -1339.872384968605

DIPOLE MOMENT
-------------
                                X             Y             Z
Electronic contribution:     13.30251      27.90300      -1.22695
Nuclear contribution   :    -13.61834     -28.47900       1.47634
                        -----------------------------------------
Total Dipole Moment    :     -0.31583      -0.57600       0.24939
                        -----------------------------------------
Magnitude (a.u.)       :      0.70266
Magnitude (Debye)      :      1.78601

Rotational constants in cm-1:     0.017429     0.010217     0.006975
Rotational constants in MHz :   522.497336   306.283057   209.102230

                             ****ORCA TERMINATED NORMALLY****
TOTAL RUN TIME: 0 days 0 hours 0 minutes 31 seconds 250 msec
