                         Program Version 4.2.1 -  RELEASE  -
|  1> ! wB97X-D3 SP def2-SVP
|  2> %pal
|  3> nprocs 16
|  4> end
|  5>
|  6> * xyz 0 1
|  7> S 	 -29.2929 	 62.8068 	 110.805
|  8> C 	 -29.4919 	 61.1834 	 110.16
|  9> C 	 -30.1012 	 60.3602 	 111.117
| 10> C 	 -30.0881 	 60.9346 	 112.427
| 11> C 	 -29.8271 	 62.3099 	 112.403
| 12> H 	 -30.3084 	 60.5694 	 113.431
| 13> C 	 -30.7426 	 59.0105 	 110.841
| 14> H 	 -30.9537 	 59.109 	 109.789
| 15> H 	 -31.7673 	 58.9756 	 111.259
| 16> C 	 -29.8664 	 57.8173 	 111.284
| 17> H 	 -29.5262 	 57.8059 	 112.336
| 18> H 	 -30.5002 	 56.9187 	 111.334
| 19> C 	 -28.657 	 57.6581 	 110.335
| 20> H 	 -28.0237 	 58.4688 	 110.523
| 21> H 	 -28.054 	 56.7622 	 110.497
| 22> H 	 -29.0621 	 57.574 	 109.401
| 23> S 	 -30.6375 	 64.7962 	 113.329
| 24> C 	 -30.3101 	 65.1725 	 114.988
| 25> C 	 -29.7107 	 64.1894 	 115.634
| 26> C 	 -29.3417 	 63.0772 	 114.821
| 27> C 	 -29.789 	 63.2543 	 113.506
| 28> H 	 -29.4969 	 64.2462 	 116.696
| 29> C 	 -28.4823 	 61.8661 	 115.306
| 30> H 	 -28.6939 	 61.0282 	 114.748
| 31> H 	 -28.7701 	 61.5627 	 116.281
| 32> C 	 -26.9597 	 61.9273 	 115.38
| 33> H 	 -26.6812 	 62.8616 	 115.789
| 34> H 	 -26.5621 	 61.9986 	 114.377
| 35> C 	 -26.289 	 60.6407 	 116.005
| 36> H 	 -26.3771 	 59.8761 	 115.166
| 37> H 	 -26.9489 	 60.2953 	 116.788
| 38> H 	 -25.2534 	 60.6906 	 116.263
| 39> H 	 -29.2825 	 60.8313 	 109.166
| 40> H 	 -30.6306 	 66.0889 	 115.465
| 41> *
| 42>
| 43>                          ****END OF INPUT****

CARTESIAN COORDINATES (ANGSTROEM)
---------------------------------
  S    -29.292900   62.806800  110.805000
  C    -29.491900   61.183400  110.160000
  C    -30.101200   60.360200  111.117000
  C    -30.088100   60.934600  112.427000
  C    -29.827100   62.309900  112.403000
  H    -30.308400   60.569400  113.431000
  C    -30.742600   59.010500  110.841000
  H    -30.953700   59.109000  109.789000
  H    -31.767300   58.975600  111.259000
  C    -29.866400   57.817300  111.284000
  H    -29.526200   57.805900  112.336000
  H    -30.500200   56.918700  111.334000
  C    -28.657000   57.658100  110.335000
  H    -28.023700   58.468800  110.523000
  H    -28.054000   56.762200  110.497000
  H    -29.062100   57.574000  109.401000
  S    -30.637500   64.796200  113.329000
  C    -30.310100   65.172500  114.988000
  C    -29.710700   64.189400  115.634000
  C    -29.341700   63.077200  114.821000
  C    -29.789000   63.254300  113.506000
  H    -29.496900   64.246200  116.696000
  C    -28.482300   61.866100  115.306000
  H    -28.693900   61.028200  114.748000
  H    -28.770100   61.562700  116.281000
  C    -26.959700   61.927300  115.380000
  H    -26.681200   62.861600  115.789000
  H    -26.562100   61.998600  114.377000
  C    -26.289000   60.640700  116.005000
  H    -26.377100   59.876100  115.166000
  H    -26.948900   60.295300  116.788000
  H    -25.253400   60.690600  116.263000
  H    -29.282500   60.831300  109.166000
  H    -30.630600   66.088900  115.465000

 Total Charge           Charge          ....    0
 Multiplicity           Mult            ....    1
 Number of Electrons    NEL             ....  134
 Basis Dimension        Dim             ....  322

ORBITAL ENERGIES
----------------

  NO   OCC          E(Eh)            E(eV)
   0   2.0000     -88.966093     -2420.8905
   1   2.0000     -88.965189     -2420.8659
   2   2.0000     -10.329543      -281.0812
   3   2.0000     -10.329349      -281.0759
   4   2.0000     -10.316491      -280.7260
   5   2.0000     -10.310834      -280.5721
   6   2.0000     -10.308117      -280.4981
   7   2.0000     -10.305243      -280.4199
   8   2.0000     -10.296504      -280.1821
   9   2.0000     -10.294788      -280.1354
  10   2.0000     -10.290939      -280.0307
  11   2.0000     -10.288583      -279.9666
  12   2.0000     -10.285204      -279.8746
  13   2.0000     -10.285150      -279.8731
  14   2.0000     -10.280074      -279.7350
  15   2.0000     -10.266575      -279.3677
  16   2.0000      -8.080425      -219.8796
  17   2.0000      -8.080339      -219.8772
  18   2.0000      -6.039008      -164.3298
  19   2.0000      -6.038828      -164.3249
  20   2.0000      -6.034934      -164.2189
  21   2.0000      -6.034888      -164.2177
  22   2.0000      -6.031184      -164.1169
  23   2.0000      -6.030993      -164.1117
  24   2.0000      -1.007316       -27.4105
  25   2.0000      -0.984573       -26.7916
  26   2.0000      -0.911614       -24.8063
  27   2.0000      -0.907062       -24.6824
  28   2.0000      -0.870916       -23.6988
  29   2.0000      -0.850177       -23.1345
  30   2.0000      -0.843815       -22.9614
  31   2.0000      -0.815613       -22.1940
  32   2.0000      -0.786169       -21.3927
  33   2.0000      -0.774850       -21.0847
  34   2.0000      -0.713792       -19.4233
  35   2.0000      -0.702836       -19.1251
  36   2.0000      -0.696801       -18.9609
  37   2.0000      -0.659133       -17.9359
  38   2.0000      -0.642434       -17.4815
  39   2.0000      -0.616574       -16.7778
  40   2.0000      -0.602706       -16.4005
  41   2.0000      -0.570618       -15.5273
  42   2.0000      -0.562906       -15.3175
  43   2.0000      -0.551066       -14.9953
  44   2.0000      -0.540460       -14.7067
  45   2.0000      -0.529201       -14.4003
  46   2.0000      -0.523571       -14.2471
  47   2.0000      -0.512694       -13.9511
  48   2.0000      -0.502984       -13.6869
  49   2.0000      -0.493987       -13.4421
  50   2.0000      -0.492199       -13.3934
  51   2.0000      -0.477730       -12.9997
  52   2.0000      -0.467962       -12.7339
  53   2.0000      -0.465045       -12.6545
  54   2.0000      -0.459150       -12.4941
  55   2.0000      -0.455078       -12.3833
  56   2.0000      -0.445425       -12.1206
  57   2.0000      -0.442417       -12.0388
  58   2.0000      -0.435827       -11.8595
  59   2.0000      -0.426547       -11.6069
  60   2.0000      -0.419986       -11.4284
  61   2.0000      -0.411427       -11.1955
  62   2.0000      -0.410956       -11.1827
  63   2.0000      -0.352009        -9.5787
  64   2.0000      -0.334157        -9.0929
  65   2.0000      -0.328086        -8.9277
  66   2.0000      -0.288567        -7.8523
  67   0.0000       0.027631         0.7519
  68   0.0000       0.072504         1.9729
  69   0.0000       0.109272         2.9734
  70   0.0000       0.118404         3.2219
  71   0.0000       0.128213         3.4889

MULLIKEN ATOMIC CHARGES
-----------------------
   0 S :    0.108967
   1 C :   -0.102965
   2 C :   -0.123497
   3 C :    0.036793
   4 C :   -0.169751
   5 H :    0.024831
   6 C :    0.064004
   7 H :    0.015644
   8 H :    0.042258
   9 C :   -0.078450
  10 H :    0.029255
  11 H :    0.021591
  12 C :    0.001943
  13 H :    0.033036
  14 H :    0.027859
  15 H :    0.010908
  16 S :    0.104047
  17 C :   -0.074727
  18 C :   -0.023341
  19 C :   -0.049174
  20 C :   -0.143750
  21 H :    0.016283
  22 C :    0.119994
  23 H :   -0.028997
  24 H :   -0.002832
  25 C :   -0.038262
  26 H :    0.009728
  27 H :    0.022354
  28 C :   -0.063516
  29 H :    0.036845
  30 H :    0.029259
  31 H :    0.046848
  32 H :    0.043927
  33 H :    0.052888
Sum of atomic charges:    0.0000000

LOEWDIN ATOMIC CHARGES
----------------------
   0 S :    0.400957
   1 C :   -0.200532
   2 C :   -0.059488
   3 C :   -0.062089
   4 C :   -0.191512
   5 H :    0.033953
   6 C :   -0.032630
   7 H :    0.028874
   8 H :    0.038546
   9 C :   -0.041126
  10 H :    0.025489
  11 H :    0.021339
  12 C :   -0.050679
  13 H :    0.021411
  14 H :    0.028376
  15 H :    0.012420
  16 S :    0.400343
  17 C :   -0.183893
  18 C :   -0.073191
  19 C :   -0.050416
  20 C :   -0.192167
  21 H :    0.034442
  22 C :   -0.024017
  23 H :    0.014020
  24 H :    0.022734
  25 C :   -0.034582
  26 H :    0.012458
  27 H :    0.023006
  28 C :   -0.061615
  29 H :    0.034626
  30 H :    0.020553
  31 H :    0.026289
  32 H :    0.026782
  33 H :    0.031317

  Mayer bond orders larger than 0.100000
B(  0-S ,  1-C ) :   1.1339 B(  0-S ,  4-C ) :   1.1470 B(  1-C ,  2-C ) :   1.6067
B(  1-C ,  4-C ) :   0.1056 B(  1-C , 32-H ) :   0.9689 B(  2-C ,  3-C ) :   1.2195
B(  2-C ,  6-C ) :   1.0129 B(  3-C ,  4-C ) :   1.5944 B(  3-C ,  5-H ) :   0.9824
B(  4-C , 20-C ) :   1.0323 B(  6-C ,  7-H ) :   0.9455 B(  6-C ,  8-H ) :   0.9442
B(  6-C ,  9-C ) :   1.0529 B(  9-C , 10-H ) :   0.9620 B(  9-C , 11-H ) :   0.9570
B(  9-C , 12-C ) :   1.0625 B( 12-C , 13-H ) :   0.9779 B( 12-C , 14-H ) :   0.9727
B( 12-C , 15-H ) :   0.9778 B( 16-S , 17-C ) :   1.1351 B( 16-S , 20-C ) :   1.1414
B( 17-C , 18-C ) :   1.6383 B( 17-C , 33-H ) :   0.9649 B( 18-C , 19-C ) :   1.2371
B( 18-C , 21-H ) :   0.9913 B( 19-C , 20-C ) :   1.6031 B( 19-C , 22-C ) :   1.0363
B( 22-C , 23-H ) :   0.9263 B( 22-C , 24-H ) :   0.9275 B( 22-C , 25-C ) :   1.0653
B( 25-C , 26-H ) :   0.9583 B( 25-C , 27-H ) :   0.9565 B( 25-C , 28-C ) :   1.0569
B( 28-C , 29-H ) :   0.9785 B( 28-C , 30-H ) :   0.9801 B( 28-C , 31-H ) :   0.9759

Dispersion correction           -0.014149956
FINAL SINGLE POINT ENERGY     -1339.860269804060

DIPOLE MOMENT
-------------
                                X             Y             Z
Electronic contribution:    -11.56228      26.75993      -6.56611
Nuclear contribution   :     11.61276     -27.33286       6.91413
                        -----------------------------------------
Total Dipole Moment    :      0.05048      -0.57293       0.34801
                        -----------------------------------------
Magnitude (a.u.)       :      0.67225
Magnitude (Debye)      :      1.70871

Rotational constants in cm-1:     0.017492     0.009090     0.006768
Rotational constants in MHz :   524.408061   272.499401   202.906305

                             ****ORCA TERMINATED NORMALLY****
TOTAL RUN TIME: 0 days 0 hours 0 minutes 30 seconds 134 msec
