                         Program Version 4.2.1 -  RELEASE  -
|  1> ! wB97X-D3 SP def2-SVP
|  2> %pal
|  3> nprocs 16
|  4> end
|  5>
|  6> * xyz 0 1
|  7> S 	 -93.6467 	 55.6743 	 121.854
|  8> C 	 -93.4781 	 54.4649 	 120.749
|  9> C 	 -94.6816 	 53.7984 	 120.518
| 10> C 	 -95.6695 	 54.2599 	 121.459
| 11> C 	 -95.3075 	 55.3552 	 122.233
| 12> H 	 -96.6889 	 53.883 	 121.475
| 13> C 	 -94.8396 	 52.6515 	 119.541
| 14> H 	 -93.7861 	 52.3682 	 119.361
| 15> H 	 -95.2466 	 53.0385 	 118.598
| 16> C 	 -95.6616 	 51.5629 	 120.176
| 17> H 	 -95.1891 	 51.4115 	 121.166
| 18> H 	 -96.7233 	 51.8134 	 120.268
| 19> C 	 -95.5265 	 50.2155 	 119.433
| 20> H 	 -96.0468 	 50.3436 	 118.414
| 21> H 	 -94.5263 	 49.8632 	 119.373
| 22> H 	 -96.15 	 49.5395 	 120.014
| 23> S 	 -96.371 	 57.8148 	 122.895
| 24> C 	 -97.5055 	 58.0324 	 124.138
| 25> C 	 -97.8164 	 56.7561 	 124.681
| 26> C 	 -97.0764 	 55.6508 	 124.132
| 27> C 	 -96.1246 	 56.0503 	 123.201
| 28> H 	 -98.3846 	 56.5798 	 125.605
| 29> C 	 -97.1893 	 54.1577 	 124.597
| 30> H 	 -96.7463 	 53.5924 	 123.854
| 31> H 	 -98.2119 	 53.8227 	 124.709
| 32> C 	 -96.4385 	 53.9544 	 125.906
| 33> H 	 -96.6331 	 52.866 	 126.086
| 34> H 	 -96.9448 	 54.4297 	 126.73
| 35> C 	 -94.9247 	 54.1866 	 125.926
| 36> H 	 -94.5624 	 53.9481 	 126.903
| 37> H 	 -94.5941 	 55.2072 	 125.587
| 38> H 	 -94.4301 	 53.5085 	 125.248
| 39> H 	 -92.5831 	 54.2519 	 120.21
| 40> H 	 -97.9408 	 58.9833 	 124.416
| 41> *
| 42>
| 43>                          ****END OF INPUT****

CARTESIAN COORDINATES (ANGSTROEM)
---------------------------------
  S    -93.646700   55.674300  121.854000
  C    -93.478100   54.464900  120.749000
  C    -94.681600   53.798400  120.518000
  C    -95.669500   54.259900  121.459000
  C    -95.307500   55.355200  122.233000
  H    -96.688900   53.883000  121.475000
  C    -94.839600   52.651500  119.541000
  H    -93.786100   52.368200  119.361000
  H    -95.246600   53.038500  118.598000
  C    -95.661600   51.562900  120.176000
  H    -95.189100   51.411500  121.166000
  H    -96.723300   51.813400  120.268000
  C    -95.526500   50.215500  119.433000
  H    -96.046800   50.343600  118.414000
  H    -94.526300   49.863200  119.373000
  H    -96.150000   49.539500  120.014000
  S    -96.371000   57.814800  122.895000
  C    -97.505500   58.032400  124.138000
  C    -97.816400   56.756100  124.681000
  C    -97.076400   55.650800  124.132000
  C    -96.124600   56.050300  123.201000
  H    -98.384600   56.579800  125.605000
  C    -97.189300   54.157700  124.597000
  H    -96.746300   53.592400  123.854000
  H    -98.211900   53.822700  124.709000
  C    -96.438500   53.954400  125.906000
  H    -96.633100   52.866000  126.086000
  H    -96.944800   54.429700  126.730000
  C    -94.924700   54.186600  125.926000
  H    -94.562400   53.948100  126.903000
  H    -94.594100   55.207200  125.587000
  H    -94.430100   53.508500  125.248000
  H    -92.583100   54.251900  120.210000
  H    -97.940800   58.983300  124.416000

 Total Charge           Charge          ....    0
 Multiplicity           Mult            ....    1
 Number of Electrons    NEL             ....  134
 Basis Dimension        Dim             ....  322

ORBITAL ENERGIES
----------------

  NO   OCC          E(Eh)            E(eV)
   0   2.0000     -88.964288     -2420.8413
   1   2.0000     -88.961038     -2420.7529
   2   2.0000     -10.328569      -281.0547
   3   2.0000     -10.327054      -281.0134
   4   2.0000     -10.322043      -280.8771
   5   2.0000     -10.306736      -280.4605
   6   2.0000     -10.306089      -280.4429
   7   2.0000     -10.298193      -280.2281
   8   2.0000     -10.297894      -280.2199
   9   2.0000     -10.293551      -280.1018
  10   2.0000     -10.293090      -280.0892
  11   2.0000     -10.288987      -279.9776
  12   2.0000     -10.287488      -279.9368
  13   2.0000     -10.284105      -279.8447
  14   2.0000     -10.282488      -279.8007
  15   2.0000     -10.271953      -279.5141
  16   2.0000      -8.081185      -219.9002
  17   2.0000      -8.076080      -219.7613
  18   2.0000      -6.039438      -164.3415
  19   2.0000      -6.035089      -164.2231
  20   2.0000      -6.034501      -164.2071
  21   2.0000      -6.032373      -164.1492
  22   2.0000      -6.030343      -164.0940
  23   2.0000      -6.027088      -164.0054
  24   2.0000      -1.012680       -27.5564
  25   2.0000      -0.986052       -26.8318
  26   2.0000      -0.918150       -24.9841
  27   2.0000      -0.908415       -24.7192
  28   2.0000      -0.873271       -23.7629
  29   2.0000      -0.849189       -23.1076
  30   2.0000      -0.840617       -22.8744
  31   2.0000      -0.810124       -22.0446
  32   2.0000      -0.787038       -21.4164
  33   2.0000      -0.772104       -21.0100
  34   2.0000      -0.709539       -19.3075
  35   2.0000      -0.695515       -18.9259
  36   2.0000      -0.687576       -18.7099
  37   2.0000      -0.654629       -17.8134
  38   2.0000      -0.644151       -17.5283
  39   2.0000      -0.618342       -16.8259
  40   2.0000      -0.597222       -16.2512
  41   2.0000      -0.580990       -15.8095
  42   2.0000      -0.564909       -15.3720
  43   2.0000      -0.553060       -15.0495
  44   2.0000      -0.536824       -14.6077
  45   2.0000      -0.525127       -14.2894
  46   2.0000      -0.519556       -14.1378
  47   2.0000      -0.511173       -13.9097
  48   2.0000      -0.507827       -13.8187
  49   2.0000      -0.502973       -13.6866
  50   2.0000      -0.491635       -13.3781
  51   2.0000      -0.479569       -13.0497
  52   2.0000      -0.471834       -12.8393
  53   2.0000      -0.466884       -12.7046
  54   2.0000      -0.464017       -12.6265
  55   2.0000      -0.441732       -12.0202
  56   2.0000      -0.441039       -12.0013
  57   2.0000      -0.437365       -11.9013
  58   2.0000      -0.432178       -11.7602
  59   2.0000      -0.425624       -11.5818
  60   2.0000      -0.424059       -11.5392
  61   2.0000      -0.412356       -11.2208
  62   2.0000      -0.400895       -10.9089
  63   2.0000      -0.350171        -9.5286
  64   2.0000      -0.328946        -8.9511
  65   2.0000      -0.324360        -8.8263
  66   2.0000      -0.290526        -7.9056
  67   0.0000       0.031441         0.8556
  68   0.0000       0.070881         1.9288
  69   0.0000       0.114601         3.1184
  70   0.0000       0.126082         3.4309
  71   0.0000       0.136114         3.7039

MULLIKEN ATOMIC CHARGES
-----------------------
   0 S :    0.134744
   1 C :   -0.106671
   2 C :   -0.143251
   3 C :    0.015180
   4 C :   -0.150988
   5 H :    0.016906
   6 C :    0.118071
   7 H :    0.013914
   8 H :    0.040639
   9 C :   -0.146313
  10 H :    0.040495
  11 H :    0.045385
  12 C :   -0.028249
  13 H :    0.038527
  14 H :    0.035578
  15 H :    0.030577
  16 S :    0.093921
  17 C :   -0.082817
  18 C :   -0.045751
  19 C :   -0.078626
  20 C :   -0.155133
  21 H :    0.025289
  22 C :    0.139213
  23 H :   -0.012096
  24 H :    0.025526
  25 C :   -0.095854
  26 H :    0.024416
  27 H :    0.022168
  28 C :   -0.027552
  29 H :    0.028131
  30 H :    0.052022
  31 H :    0.022473
  32 H :    0.041655
  33 H :    0.068469
Sum of atomic charges:   -0.0000000

LOEWDIN ATOMIC CHARGES
----------------------
   0 S :    0.462912
   1 C :   -0.228594
   2 C :   -0.069406
   3 C :   -0.063772
   4 C :   -0.218573
   5 H :    0.028473
   6 C :   -0.032557
   7 H :    0.032583
   8 H :    0.032982
   9 C :   -0.046471
  10 H :    0.030185
  11 H :    0.026740
  12 C :   -0.061966
  13 H :    0.033156
  14 H :    0.019101
  15 H :    0.025119
  16 S :    0.408766
  17 C :   -0.197840
  18 C :   -0.083993
  19 C :   -0.049592
  20 C :   -0.190764
  21 H :    0.030748
  22 C :   -0.017576
  23 H :    0.016433
  24 H :    0.031882
  25 C :   -0.040588
  26 H :    0.028502
  27 H :    0.017502
  28 C :   -0.063666
  29 H :    0.024257
  30 H :    0.032857
  31 H :    0.023873
  32 H :    0.025702
  33 H :    0.033586

  Mayer bond orders larger than 0.100000
B(  0-S ,  1-C ) :   1.1908 B(  0-S ,  4-C ) :   1.1688 B(  1-C ,  2-C ) :   1.5574
B(  1-C , 32-H ) :   0.9687 B(  2-C ,  3-C ) :   1.2955 B(  2-C ,  6-C ) :   1.0147
B(  3-C ,  4-C ) :   1.5250 B(  3-C ,  5-H ) :   0.9889 B(  4-C , 20-C ) :   1.0338
B(  6-C ,  7-H ) :   0.9430 B(  6-C ,  8-H ) :   0.9221 B(  6-C ,  9-C ) :   1.0784
B(  9-C , 10-H ) :   0.9589 B(  9-C , 11-H ) :   0.9459 B(  9-C , 12-C ) :   1.0917
B( 12-C , 13-H ) :   0.9715 B( 12-C , 14-H ) :   0.9766 B( 12-C , 15-H ) :   0.9745
B( 16-S , 17-C ) :   1.1880 B( 16-S , 20-C ) :   1.1357 B( 17-C , 18-C ) :   1.5448
B( 17-C , 20-C ) :   0.1114 B( 17-C , 33-H ) :   0.9727 B( 18-C , 19-C ) :   1.2761
B( 18-C , 21-H ) :   0.9812 B( 19-C , 20-C ) :   1.5841 B( 19-C , 22-C ) :   1.0323
B( 22-C , 23-H ) :   0.9262 B( 22-C , 24-H ) :   0.9347 B( 22-C , 25-C ) :   1.0816
B( 25-C , 26-H ) :   0.9513 B( 25-C , 27-H ) :   0.9586 B( 25-C , 28-C ) :   1.0766
B( 28-C , 29-H ) :   0.9718 B( 28-C , 30-H ) :   0.9723 B( 28-C , 31-H ) :   0.9724

Dispersion correction           -0.014872937
FINAL SINGLE POINT ENERGY     -1339.880587210225

DIPOLE MOMENT
-------------
                                X             Y             Z
Electronic contribution:      3.25700      26.37025      -1.81448
Nuclear contribution   :     -3.47593     -27.02310       1.81000
                        -----------------------------------------
Total Dipole Moment    :     -0.21894      -0.65285      -0.00447
                        -----------------------------------------
Magnitude (a.u.)       :      0.68859
Magnitude (Debye)      :      1.75027

Rotational constants in cm-1:     0.019706     0.008503     0.007322
Rotational constants in MHz :   590.774367   254.907017   219.498035

                             ****ORCA TERMINATED NORMALLY****
TOTAL RUN TIME: 0 days 0 hours 0 minutes 34 seconds 562 msec
