                         Program Version 4.2.1 -  RELEASE  -
|  1> ! wB97X-D3 SP def2-SVP
|  2> %pal
|  3> nprocs 16
|  4> end
|  5>
|  6> * xyz 0 1
|  7> S 	 -6.2626 	 49.6239 	 33.3718
|  8> C 	 -6.19361 	 47.9705 	 33.8094
|  9> C 	 -7.34131 	 47.5889 	 34.4366
| 10> C 	 -8.27914 	 48.6225 	 34.6294
| 11> C 	 -7.8358 	 49.8214 	 34.0782
| 12> H 	 -9.17949 	 48.6357 	 35.2419
| 13> C 	 -7.53805 	 46.2194 	 35.0702
| 14> H 	 -6.67487 	 45.6212 	 34.9761
| 15> H 	 -8.28008 	 45.6677 	 34.5239
| 16> C 	 -8.0672 	 46.2258 	 36.5787
| 17> H 	 -7.79185 	 47.1901 	 37.0984
| 18> H 	 -9.14137 	 46.1056 	 36.5244
| 19> C 	 -7.60128 	 44.9792 	 37.3578
| 20> H 	 -7.84728 	 44.0159 	 36.8741
| 21> H 	 -6.52011 	 44.943 	 37.4721
| 22> H 	 -7.89419 	 44.8887 	 38.4186
| 23> S 	 -7.80821 	 52.6114 	 33.9546
| 24> C 	 -9.29652 	 53.5166 	 33.8693
| 25> C 	 -10.3892 	 52.69 	 33.7562
| 26> C 	 -10.0299 	 51.2559 	 33.7026
| 27> C 	 -8.65249 	 51.0266 	 33.935
| 28> H 	 -11.356 	 53.0748 	 33.6531
| 29> C 	 -11.1046 	 50.2642 	 33.6151
| 30> H 	 -10.6041 	 49.4058 	 33.2231
| 31> H 	 -11.9169 	 50.5025 	 32.9235
| 32> C 	 -11.75 	 49.8429 	 34.9238
| 33> H 	 -12.1464 	 50.6772 	 35.4285
| 34> H 	 -11.0997 	 49.4668 	 35.7322
| 35> C 	 -12.824 	 48.6904 	 34.7424
| 36> H 	 -12.4317 	 47.7412 	 34.2937
| 37> H 	 -13.5854 	 48.9729 	 34.0299
| 38> H 	 -13.2873 	 48.4399 	 35.7379
| 39> H 	 -5.36219 	 47.3281 	 33.8409
| 40> H 	 -9.33654 	 54.6291 	 33.7455
| 41> *
| 42>
| 43>                          ****END OF INPUT****

CARTESIAN COORDINATES (ANGSTROEM)
---------------------------------
  S     -6.262600   49.623900   33.371800
  C     -6.193610   47.970500   33.809400
  C     -7.341310   47.588900   34.436600
  C     -8.279140   48.622500   34.629400
  C     -7.835800   49.821400   34.078200
  H     -9.179490   48.635700   35.241900
  C     -7.538050   46.219400   35.070200
  H     -6.674870   45.621200   34.976100
  H     -8.280080   45.667700   34.523900
  C     -8.067200   46.225800   36.578700
  H     -7.791850   47.190100   37.098400
  H     -9.141370   46.105600   36.524400
  C     -7.601280   44.979200   37.357800
  H     -7.847280   44.015900   36.874100
  H     -6.520110   44.943000   37.472100
  H     -7.894190   44.888700   38.418600
  S     -7.808210   52.611400   33.954600
  C     -9.296520   53.516600   33.869300
  C    -10.389200   52.690000   33.756200
  C    -10.029900   51.255900   33.702600
  C     -8.652490   51.026600   33.935000
  H    -11.356000   53.074800   33.653100
  C    -11.104600   50.264200   33.615100
  H    -10.604100   49.405800   33.223100
  H    -11.916900   50.502500   32.923500
  C    -11.750000   49.842900   34.923800
  H    -12.146400   50.677200   35.428500
  H    -11.099700   49.466800   35.732200
  C    -12.824000   48.690400   34.742400
  H    -12.431700   47.741200   34.293700
  H    -13.585400   48.972900   34.029900
  H    -13.287300   48.439900   35.737900
  H     -5.362190   47.328100   33.840900
  H     -9.336540   54.629100   33.745500

 Total Charge           Charge          ....    0
 Multiplicity           Mult            ....    1
 Number of Electrons    NEL             ....  134
 Basis Dimension        Dim             ....  322

ORBITAL ENERGIES
----------------

  NO   OCC          E(Eh)            E(eV)
   0   2.0000     -88.968429     -2420.9540
   1   2.0000     -88.962751     -2420.7995
   2   2.0000     -10.335744      -281.2499
   3   2.0000     -10.331130      -281.1243
   4   2.0000     -10.322533      -280.8904
   5   2.0000     -10.310622      -280.5663
   6   2.0000     -10.306183      -280.4455
   7   2.0000     -10.297318      -280.2043
   8   2.0000     -10.296580      -280.1842
   9   2.0000     -10.293662      -280.1048
  10   2.0000     -10.292915      -280.0845
  11   2.0000     -10.289279      -279.9855
  12   2.0000     -10.288896      -279.9751
  13   2.0000     -10.288590      -279.9668
  14   2.0000     -10.286955      -279.9223
  15   2.0000     -10.282227      -279.7936
  16   2.0000      -8.083869      -219.9733
  17   2.0000      -8.077211      -219.7921
  18   2.0000      -6.042335      -164.4203
  19   2.0000      -6.038266      -164.3096
  20   2.0000      -6.035920      -164.2457
  21   2.0000      -6.034628      -164.2106
  22   2.0000      -6.031732      -164.1318
  23   2.0000      -6.027801      -164.0248
  24   2.0000      -1.010117       -27.4867
  25   2.0000      -0.982733       -26.7415
  26   2.0000      -0.913254       -24.8509
  27   2.0000      -0.905535       -24.6409
  28   2.0000      -0.870966       -23.7002
  29   2.0000      -0.851390       -23.1675
  30   2.0000      -0.843906       -22.9639
  31   2.0000      -0.817431       -22.2434
  32   2.0000      -0.781370       -21.2622
  33   2.0000      -0.770736       -20.9728
  34   2.0000      -0.715017       -19.4566
  35   2.0000      -0.705122       -19.1874
  36   2.0000      -0.693683       -18.8761
  37   2.0000      -0.664406       -18.0794
  38   2.0000      -0.641819       -17.4648
  39   2.0000      -0.622598       -16.9417
  40   2.0000      -0.598594       -16.2886
  41   2.0000      -0.575257       -15.6535
  42   2.0000      -0.564213       -15.3530
  43   2.0000      -0.555541       -15.1170
  44   2.0000      -0.525540       -14.3007
  45   2.0000      -0.521595       -14.1933
  46   2.0000      -0.515947       -14.0396
  47   2.0000      -0.512747       -13.9526
  48   2.0000      -0.504906       -13.7392
  49   2.0000      -0.503608       -13.7039
  50   2.0000      -0.496390       -13.5075
  51   2.0000      -0.478652       -13.0248
  52   2.0000      -0.471135       -12.8202
  53   2.0000      -0.467942       -12.7334
  54   2.0000      -0.457473       -12.4485
  55   2.0000      -0.453009       -12.3270
  56   2.0000      -0.447637       -12.1808
  57   2.0000      -0.438800       -11.9403
  58   2.0000      -0.430351       -11.7104
  59   2.0000      -0.428666       -11.6646
  60   2.0000      -0.420498       -11.4423
  61   2.0000      -0.416112       -11.3230
  62   2.0000      -0.413580       -11.2541
  63   2.0000      -0.354734        -9.6528
  64   2.0000      -0.333641        -9.0788
  65   2.0000      -0.326047        -8.8722
  66   2.0000      -0.289346        -7.8735
  67   0.0000       0.021989         0.5983
  68   0.0000       0.082196         2.2367
  69   0.0000       0.109435         2.9779
  70   0.0000       0.122500         3.3334
  71   0.0000       0.127210         3.4616

MULLIKEN ATOMIC CHARGES
-----------------------
   0 S :    0.123290
   1 C :   -0.088695
   2 C :   -0.091102
   3 C :   -0.009760
   4 C :   -0.107516
   5 H :    0.011504
   6 C :    0.102471
   7 H :   -0.001994
   8 H :    0.027612
   9 C :   -0.096585
  10 H :    0.059017
  11 H :    0.035617
  12 C :   -0.077045
  13 H :    0.032851
  14 H :    0.023621
  15 H :    0.036347
  16 S :    0.081285
  17 C :   -0.091027
  18 C :   -0.012850
  19 C :   -0.044507
  20 C :   -0.150781
  21 H :    0.000731
  22 C :    0.076088
  23 H :    0.017682
  24 H :    0.026115
  25 C :   -0.060577
  26 H :    0.008879
  27 H :    0.026696
  28 C :   -0.074198
  29 H :    0.035735
  30 H :    0.027286
  31 H :    0.046795
  32 H :    0.027628
  33 H :    0.079388
Sum of atomic charges:   -0.0000000

LOEWDIN ATOMIC CHARGES
----------------------
   0 S :    0.430303
   1 C :   -0.205394
   2 C :   -0.063295
   3 C :   -0.066678
   4 C :   -0.195678
   5 H :    0.033944
   6 C :   -0.024090
   7 H :    0.018358
   8 H :    0.031977
   9 C :   -0.040885
  10 H :    0.033022
  11 H :    0.023336
  12 C :   -0.077607
  13 H :    0.026930
  14 H :    0.021534
  15 H :    0.029535
  16 S :    0.379468
  17 C :   -0.186337
  18 C :   -0.067730
  19 C :   -0.045052
  20 C :   -0.182445
  21 H :    0.021859
  22 C :   -0.039959
  23 H :    0.030169
  24 H :    0.035722
  25 C :   -0.036818
  26 H :    0.016645
  27 H :    0.024009
  28 C :   -0.070818
  29 H :    0.028392
  30 H :    0.019045
  31 H :    0.032963
  32 H :    0.023379
  33 H :    0.042197

  Mayer bond orders larger than 0.100000
B(  0-S ,  1-C ) :   1.1369 B(  0-S ,  4-C ) :   1.1656 B(  1-C ,  2-C ) :   1.6109
B(  1-C , 32-H ) :   0.9677 B(  2-C ,  3-C ) :   1.2483 B(  2-C ,  6-C ) :   1.0350
B(  3-C ,  4-C ) :   1.5358 B(  3-C ,  5-H ) :   0.9991 B(  4-C , 20-C ) :   1.0669
B(  6-C ,  7-H ) :   0.9491 B(  6-C ,  8-H ) :   0.9276 B(  6-C ,  9-C ) :   1.0397
B(  9-C , 10-H ) :   0.9656 B(  9-C , 11-H ) :   0.9539 B(  9-C , 12-C ) :   1.0806
B( 12-C , 13-H ) :   0.9744 B( 12-C , 14-H ) :   0.9753 B( 12-C , 15-H ) :   0.9744
B( 16-S , 17-C ) :   1.1497 B( 16-S , 20-C ) :   1.1163 B( 17-C , 18-C ) :   1.6224
B( 17-C , 33-H ) :   0.9590 B( 18-C , 19-C ) :   1.2116 B( 18-C , 21-H ) :   0.9989
B( 19-C , 20-C ) :   1.5774 B( 19-C , 22-C ) :   1.0786 B( 22-C , 23-H ) :   0.9192
B( 22-C , 24-H ) :   0.9276 B( 22-C , 25-C ) :   1.0595 B( 25-C , 26-H ) :   0.9486
B( 25-C , 27-H ) :   0.9501 B( 25-C , 28-C ) :   1.0692 B( 28-C , 29-H ) :   0.9766
B( 28-C , 30-H ) :   0.9766 B( 28-C , 31-H ) :   0.9755

Dispersion correction           -0.014190897
FINAL SINGLE POINT ENERGY     -1339.877583722401

DIPOLE MOMENT
-------------
                                X             Y             Z
Electronic contribution:     18.13722      23.82275     -13.29035
Nuclear contribution   :    -18.69220     -24.22887      13.52719
                        -----------------------------------------
Total Dipole Moment    :     -0.55498      -0.40613       0.23684
                        -----------------------------------------
Magnitude (a.u.)       :      0.72735
Magnitude (Debye)      :      1.84877

Rotational constants in cm-1:     0.017224     0.009248     0.006569
Rotational constants in MHz :   516.376298   277.247256   196.931799

                             ****ORCA TERMINATED NORMALLY****
TOTAL RUN TIME: 0 days 0 hours 0 minutes 34 seconds 293 msec
