                         Program Version 4.2.1 -  RELEASE  -
|  1> ! wB97X-D3 SP def2-SVP
|  2> %pal
|  3> nprocs 16
|  4> end
|  5>
|  6> * xyz 0 1
|  7> S 	 57.3238 	 8.51853 	 71.7864
|  8> C 	 56.6218 	 10.04 	 72.3989
|  9> C 	 55.3413 	 10.2521 	 71.8811
| 10> C 	 54.9916 	 9.16331 	 71.0182
| 11> C 	 55.9719 	 8.20846 	 70.7399
| 12> H 	 53.9866 	 8.99614 	 70.5477
| 13> C 	 54.3852 	 11.3147 	 72.4585
| 14> H 	 54.9483 	 12.241 	 72.8126
| 15> H 	 53.7362 	 10.9394 	 73.2925
| 16> C 	 53.4685 	 11.8962 	 71.4858
| 17> H 	 54.0508 	 12.0928 	 70.5805
| 18> H 	 52.6212 	 11.2305 	 71.2234
| 19> C 	 52.7527 	 13.1666 	 72.0322
| 20> H 	 52.2283 	 12.9657 	 72.9649
| 21> H 	 53.4452 	 14.0651 	 72.0968
| 22> H 	 51.9497 	 13.5301 	 71.3696
| 23> S 	 56.0367 	 5.49057 	 70.8904
| 24> C 	 56.157 	 4.47768 	 69.5098
| 25> C 	 55.9379 	 5.24825 	 68.3413
| 26> C 	 55.6593 	 6.62252 	 68.6606
| 27> C 	 55.8478 	 6.94016 	 70.0036
| 28> H 	 55.9214 	 4.78152 	 67.3418
| 29> C 	 55.3885 	 7.61675 	 67.5993
| 30> H 	 55.8359 	 8.59182 	 67.9615
| 31> H 	 54.3 	 7.7335 	 67.4763
| 32> C 	 56.0401 	 7.32051 	 66.2007
| 33> H 	 55.9438 	 6.25822 	 65.8695
| 34> H 	 57.1408 	 7.4854 	 66.4697
| 35> C 	 55.4085 	 8.20259 	 65.1754
| 36> H 	 55.7413 	 8.1295 	 64.1482
| 37> H 	 55.6443 	 9.23864 	 65.5149
| 38> H 	 54.3762 	 8.11818 	 65.0438
| 39> H 	 57.107 	 10.6951 	 73.1602
| 40> H 	 56.2436 	 3.37719 	 69.4799
| 41> *
| 42>
| 43>                          ****END OF INPUT****

CARTESIAN COORDINATES (ANGSTROEM)
---------------------------------
  S     57.323800    8.518530   71.786400
  C     56.621800   10.040000   72.398900
  C     55.341300   10.252100   71.881100
  C     54.991600    9.163310   71.018200
  C     55.971900    8.208460   70.739900
  H     53.986600    8.996140   70.547700
  C     54.385200   11.314700   72.458500
  H     54.948300   12.241000   72.812600
  H     53.736200   10.939400   73.292500
  C     53.468500   11.896200   71.485800
  H     54.050800   12.092800   70.580500
  H     52.621200   11.230500   71.223400
  C     52.752700   13.166600   72.032200
  H     52.228300   12.965700   72.964900
  H     53.445200   14.065100   72.096800
  H     51.949700   13.530100   71.369600
  S     56.036700    5.490570   70.890400
  C     56.157000    4.477680   69.509800
  C     55.937900    5.248250   68.341300
  C     55.659300    6.622520   68.660600
  C     55.847800    6.940160   70.003600
  H     55.921400    4.781520   67.341800
  C     55.388500    7.616750   67.599300
  H     55.835900    8.591820   67.961500
  H     54.300000    7.733500   67.476300
  C     56.040100    7.320510   66.200700
  H     55.943800    6.258220   65.869500
  H     57.140800    7.485400   66.469700
  C     55.408500    8.202590   65.175400
  H     55.741300    8.129500   64.148200
  H     55.644300    9.238640   65.514900
  H     54.376200    8.118180   65.043800
  H     57.107000   10.695100   73.160200
  H     56.243600    3.377190   69.479900

 Total Charge           Charge          ....    0
 Multiplicity           Mult            ....    1
 Number of Electrons    NEL             ....  134
 Basis Dimension        Dim             ....  322

ORBITAL ENERGIES
----------------

  NO   OCC          E(Eh)            E(eV)
   0   2.0000     -88.968508     -2420.9562
   1   2.0000     -88.965439     -2420.8727
   2   2.0000     -10.333273      -281.1827
   3   2.0000     -10.324593      -280.9465
   4   2.0000     -10.324340      -280.9396
   5   2.0000     -10.320176      -280.8263
   6   2.0000     -10.308446      -280.5071
   7   2.0000     -10.302122      -280.3350
   8   2.0000     -10.301870      -280.3281
   9   2.0000     -10.299798      -280.2718
  10   2.0000     -10.297773      -280.2167
  11   2.0000     -10.293486      -280.1000
  12   2.0000     -10.291533      -280.0468
  13   2.0000     -10.286425      -279.9079
  14   2.0000     -10.284789      -279.8633
  15   2.0000     -10.272945      -279.5410
  16   2.0000      -8.082717      -219.9419
  17   2.0000      -8.081171      -219.8998
  18   2.0000      -6.041200      -164.3894
  19   2.0000      -6.039575      -164.3452
  20   2.0000      -6.037203      -164.2806
  21   2.0000      -6.035290      -164.2286
  22   2.0000      -6.033591      -164.1823
  23   2.0000      -6.032213      -164.1449
  24   2.0000      -1.009561       -27.4716
  25   2.0000      -0.984717       -26.7955
  26   2.0000      -0.919940       -25.0328
  27   2.0000      -0.911028       -24.7903
  28   2.0000      -0.868632       -23.6367
  29   2.0000      -0.853719       -23.2309
  30   2.0000      -0.840081       -22.8598
  31   2.0000      -0.811642       -22.0859
  32   2.0000      -0.780550       -21.2398
  33   2.0000      -0.769603       -20.9420
  34   2.0000      -0.706243       -19.2179
  35   2.0000      -0.698490       -19.0069
  36   2.0000      -0.683133       -18.5890
  37   2.0000      -0.650896       -17.7118
  38   2.0000      -0.642310       -17.4782
  39   2.0000      -0.615307       -16.7434
  40   2.0000      -0.596724       -16.2377
  41   2.0000      -0.581740       -15.8300
  42   2.0000      -0.569223       -15.4894
  43   2.0000      -0.565000       -15.3744
  44   2.0000      -0.525065       -14.2878
  45   2.0000      -0.524041       -14.2599
  46   2.0000      -0.514245       -13.9933
  47   2.0000      -0.506834       -13.7917
  48   2.0000      -0.504477       -13.7275
  49   2.0000      -0.501760       -13.6536
  50   2.0000      -0.496661       -13.5148
  51   2.0000      -0.474615       -12.9149
  52   2.0000      -0.469353       -12.7717
  53   2.0000      -0.463526       -12.6132
  54   2.0000      -0.458794       -12.4844
  55   2.0000      -0.451090       -12.2748
  56   2.0000      -0.444017       -12.0823
  57   2.0000      -0.431706       -11.7473
  58   2.0000      -0.428803       -11.6683
  59   2.0000      -0.420946       -11.4545
  60   2.0000      -0.416761       -11.3406
  61   2.0000      -0.414989       -11.2924
  62   2.0000      -0.409448       -11.1416
  63   2.0000      -0.341002        -9.2791
  64   2.0000      -0.334156        -9.0929
  65   2.0000      -0.325272        -8.8511
  66   2.0000      -0.296823        -8.0770
  67   0.0000       0.029996         0.8162
  68   0.0000       0.063352         1.7239
  69   0.0000       0.115937         3.1548
  70   0.0000       0.121299         3.3007
  71   0.0000       0.130467         3.5502

MULLIKEN ATOMIC CHARGES
-----------------------
   0 S :    0.111495
   1 C :   -0.140623
   2 C :   -0.055310
   3 C :    0.013394
   4 C :   -0.163507
   5 H :    0.032118
   6 C :    0.046617
   7 H :    0.032315
   8 H :    0.051195
   9 C :   -0.108459
  10 H :    0.034341
  11 H :    0.033759
  12 C :   -0.073807
  13 H :    0.032736
  14 H :    0.042462
  15 H :    0.032826
  16 S :    0.124814
  17 C :   -0.102906
  18 C :   -0.058517
  19 C :   -0.023054
  20 C :   -0.166133
  21 H :    0.031754
  22 C :    0.020283
  23 H :    0.046441
  24 H :    0.039894
  25 C :   -0.123793
  26 H :    0.037097
  27 H :    0.053761
  28 C :   -0.011278
  29 H :    0.025999
  30 H :    0.025878
  31 H :    0.019629
  32 H :    0.068734
  33 H :    0.069845
Sum of atomic charges:    0.0000000

LOEWDIN ATOMIC CHARGES
----------------------
   0 S :    0.406596
   1 C :   -0.185171
   2 C :   -0.071514
   3 C :   -0.064703
   4 C :   -0.208752
   5 H :    0.037907
   6 C :   -0.039119
   7 H :    0.039498
   8 H :    0.038955
   9 C :   -0.053798
  10 H :    0.025727
  11 H :    0.024331
  12 C :   -0.072473
  13 H :    0.024521
  14 H :    0.029842
  15 H :    0.027792
  16 S :    0.446128
  17 C :   -0.205813
  18 C :   -0.078395
  19 C :   -0.060905
  20 C :   -0.224125
  21 H :    0.035052
  22 C :   -0.038418
  23 H :    0.039942
  24 H :    0.031785
  25 C :   -0.048353
  26 H :    0.020292
  27 H :    0.037774
  28 C :   -0.067298
  29 H :    0.025353
  30 H :    0.031716
  31 H :    0.018847
  32 H :    0.038519
  33 H :    0.038262

  Mayer bond orders larger than 0.100000
B(  0-S ,  1-C ) :   1.1557 B(  0-S ,  4-C ) :   1.1523 B(  1-C ,  2-C ) :   1.5877
B(  1-C ,  4-C ) :   0.1019 B(  1-C , 32-H ) :   0.9640 B(  2-C ,  3-C ) :   1.2533
B(  2-C ,  6-C ) :   1.0231 B(  3-C ,  4-C ) :   1.5677 B(  3-C ,  5-H ) :   0.9827
B(  4-C , 20-C ) :   1.0248 B(  6-C ,  7-H ) :   0.9459 B(  6-C ,  8-H ) :   0.9358
B(  6-C ,  9-C ) :   1.0662 B(  9-C , 10-H ) :   0.9597 B(  9-C , 11-H ) :   0.9448
B(  9-C , 12-C ) :   1.0869 B( 12-C , 13-H ) :   0.9714 B( 12-C , 14-H ) :   0.9732
B( 12-C , 15-H ) :   0.9749 B( 16-S , 17-C ) :   1.1857 B( 16-S , 20-C ) :   1.1661
B( 17-C , 18-C ) :   1.5539 B( 17-C , 20-C ) :   0.1035 B( 17-C , 33-H ) :   0.9641
B( 18-C , 19-C ) :   1.2849 B( 18-C , 21-H ) :   0.9849 B( 19-C , 20-C ) :   1.5474
B( 19-C , 22-C ) :   1.0491 B( 22-C , 23-H ) :   0.9358 B( 22-C , 24-H ) :   0.9290
B( 22-C , 25-C ) :   1.0526 B( 25-C , 26-H ) :   0.9536 B( 25-C , 27-H ) :   0.9600
B( 25-C , 28-C ) :   1.0777 B( 28-C , 29-H ) :   0.9710 B( 28-C , 30-H ) :   0.9702
B( 28-C , 31-H ) :   0.9734

Dispersion correction           -0.013142482
FINAL SINGLE POINT ENERGY     -1339.869299974654

DIPOLE MOMENT
-------------
                                X             Y             Z
Electronic contribution:     14.23414     -20.28994      14.58678
Nuclear contribution   :    -14.70418      20.55061     -14.83885
                        -----------------------------------------
Total Dipole Moment    :     -0.47004       0.26067      -0.25207
                        -----------------------------------------
Magnitude (a.u.)       :      0.59365
Magnitude (Debye)      :      1.50894

Rotational constants in cm-1:     0.017533     0.007832     0.006086
Rotational constants in MHz :   525.623275   234.809536   182.449782

                             ****ORCA TERMINATED NORMALLY****
TOTAL RUN TIME: 0 days 0 hours 0 minutes 28 seconds 652 msec
