                         Program Version 4.2.1 -  RELEASE  -
|  1> ! wB97X-D3 SP def2-SVP
|  2> %pal
|  3> nprocs 16
|  4> end
|  5>
|  6> * xyz 0 1
|  7> S 	 -30.033 	 30.8542 	 43.059
|  8> C 	 -28.4703 	 30.145 	 42.5792
|  9> C 	 -27.4393 	 31.038 	 42.7317
| 10> C 	 -27.9042 	 32.3474 	 43.12
| 11> C 	 -29.2768 	 32.4471 	 43.1574
| 12> H 	 -27.2776 	 33.2284 	 43.3201
| 13> C 	 -26.0328 	 30.6425 	 42.1889
| 14> H 	 -25.5998 	 31.5563 	 41.758
| 15> H 	 -26.2283 	 29.9737 	 41.359
| 16> C 	 -25.2184 	 29.9686 	 43.305
| 17> H 	 -24.9196 	 30.7471 	 44.1036
| 18> H 	 -25.7704 	 29.2074 	 43.7673
| 19> C 	 -23.9527 	 29.2513 	 42.7352
| 20> H 	 -23.4755 	 28.6979 	 43.5793
| 21> H 	 -24.2313 	 28.5147 	 42.0095
| 22> H 	 -23.2732 	 29.8685 	 42.1376
| 23> S 	 -31.4778 	 33.2876 	 44.5165
| 24> C 	 -31.7585 	 34.9533 	 44.6901
| 25> C 	 -30.829 	 35.7662 	 44.0828
| 26> C 	 -29.9032 	 34.9542 	 43.3237
| 27> C 	 -30.0891 	 33.6089 	 43.5618
| 28> H 	 -31.0023 	 36.831 	 43.9814
| 29> C 	 -28.9014 	 35.456 	 42.4225
| 30> H 	 -29.3536 	 35.5228 	 41.445
| 31> H 	 -28.1308 	 34.7556 	 42.305
| 32> C 	 -28.3527 	 36.8916 	 42.5973
| 33> H 	 -29.1501 	 37.6254 	 42.5686
| 34> H 	 -27.6963 	 37.1383 	 41.8431
| 35> C 	 -27.6532 	 37.1225 	 43.9232
| 36> H 	 -28.4229 	 37.5179 	 44.62
| 37> H 	 -27.0256 	 37.9651 	 43.7037
| 38> H 	 -26.9965 	 36.2919 	 44.2813
| 39> H 	 -28.3487 	 29.0927 	 42.3128
| 40> H 	 -32.5476 	 35.2304 	 45.29
| 41> *
| 42>
| 43>                          ****END OF INPUT****

CARTESIAN COORDINATES (ANGSTROEM)
---------------------------------
  S    -30.033000   30.854200   43.059000
  C    -28.470300   30.145000   42.579200
  C    -27.439300   31.038000   42.731700
  C    -27.904200   32.347400   43.120000
  C    -29.276800   32.447100   43.157400
  H    -27.277600   33.228400   43.320100
  C    -26.032800   30.642500   42.188900
  H    -25.599800   31.556300   41.758000
  H    -26.228300   29.973700   41.359000
  C    -25.218400   29.968600   43.305000
  H    -24.919600   30.747100   44.103600
  H    -25.770400   29.207400   43.767300
  C    -23.952700   29.251300   42.735200
  H    -23.475500   28.697900   43.579300
  H    -24.231300   28.514700   42.009500
  H    -23.273200   29.868500   42.137600
  S    -31.477800   33.287600   44.516500
  C    -31.758500   34.953300   44.690100
  C    -30.829000   35.766200   44.082800
  C    -29.903200   34.954200   43.323700
  C    -30.089100   33.608900   43.561800
  H    -31.002300   36.831000   43.981400
  C    -28.901400   35.456000   42.422500
  H    -29.353600   35.522800   41.445000
  H    -28.130800   34.755600   42.305000
  C    -28.352700   36.891600   42.597300
  H    -29.150100   37.625400   42.568600
  H    -27.696300   37.138300   41.843100
  C    -27.653200   37.122500   43.923200
  H    -28.422900   37.517900   44.620000
  H    -27.025600   37.965100   43.703700
  H    -26.996500   36.291900   44.281300
  H    -28.348700   29.092700   42.312800
  H    -32.547600   35.230400   45.290000

 Total Charge           Charge          ....    0
 Multiplicity           Mult            ....    1
 Number of Electrons    NEL             ....  134
 Basis Dimension        Dim             ....  322

ORBITAL ENERGIES
----------------

  NO   OCC          E(Eh)            E(eV)
   0   2.0000     -88.963269     -2420.8136
   1   2.0000     -88.962708     -2420.7984
   2   2.0000     -10.330727      -281.1134
   3   2.0000     -10.318136      -280.7708
   4   2.0000     -10.313064      -280.6327
   5   2.0000     -10.308420      -280.5064
   6   2.0000     -10.301748      -280.3248
   7   2.0000     -10.298385      -280.2333
   8   2.0000     -10.296575      -280.1841
   9   2.0000     -10.296158      -280.1727
  10   2.0000     -10.294910      -280.1387
  11   2.0000     -10.291799      -280.0541
  12   2.0000     -10.279823      -279.7282
  13   2.0000     -10.278854      -279.7018
  14   2.0000     -10.277342      -279.6607
  15   2.0000     -10.275364      -279.6069
  16   2.0000      -8.080058      -219.8695
  17   2.0000      -8.077025      -219.7870
  18   2.0000      -6.038254      -164.3093
  19   2.0000      -6.035684      -164.2393
  20   2.0000      -6.034369      -164.2035
  21   2.0000      -6.031774      -164.1329
  22   2.0000      -6.030937      -164.1101
  23   2.0000      -6.027490      -164.0164
  24   2.0000      -1.012717       -27.5574
  25   2.0000      -0.983522       -26.7630
  26   2.0000      -0.920167       -25.0390
  27   2.0000      -0.907415       -24.6920
  28   2.0000      -0.868369       -23.6295
  29   2.0000      -0.858928       -23.3726
  30   2.0000      -0.839840       -22.8532
  31   2.0000      -0.817608       -22.2482
  32   2.0000      -0.787024       -21.4160
  33   2.0000      -0.769851       -20.9487
  34   2.0000      -0.706822       -19.2336
  35   2.0000      -0.699876       -19.0446
  36   2.0000      -0.696710       -18.9584
  37   2.0000      -0.660685       -17.9782
  38   2.0000      -0.637884       -17.3577
  39   2.0000      -0.621454       -16.9106
  40   2.0000      -0.604768       -16.4566
  41   2.0000      -0.567330       -15.4378
  42   2.0000      -0.554980       -15.1018
  43   2.0000      -0.554107       -15.0780
  44   2.0000      -0.546556       -14.8725
  45   2.0000      -0.530959       -14.4481
  46   2.0000      -0.526065       -14.3150
  47   2.0000      -0.504145       -13.7185
  48   2.0000      -0.503230       -13.6936
  49   2.0000      -0.500882       -13.6297
  50   2.0000      -0.493285       -13.4230
  51   2.0000      -0.482516       -13.1299
  52   2.0000      -0.471920       -12.8416
  53   2.0000      -0.465693       -12.6721
  54   2.0000      -0.458882       -12.4868
  55   2.0000      -0.451593       -12.2885
  56   2.0000      -0.447014       -12.1639
  57   2.0000      -0.441372       -12.0104
  58   2.0000      -0.428643       -11.6640
  59   2.0000      -0.426757       -11.6126
  60   2.0000      -0.424246       -11.5443
  61   2.0000      -0.419080       -11.4037
  62   2.0000      -0.407371       -11.0851
  63   2.0000      -0.354303        -9.6411
  64   2.0000      -0.333056        -9.0629
  65   2.0000      -0.324491        -8.8299
  66   2.0000      -0.282878        -7.6975
  67   0.0000       0.028121         0.7652
  68   0.0000       0.078343         2.1318
  69   0.0000       0.098192         2.6719
  70   0.0000       0.114425         3.1137
  71   0.0000       0.134139         3.6501

MULLIKEN ATOMIC CHARGES
-----------------------
   0 S :    0.080336
   1 C :   -0.125524
   2 C :   -0.079076
   3 C :    0.000514
   4 C :   -0.128663
   5 H :    0.029915
   6 C :    0.050639
   7 H :    0.030965
   8 H :    0.026340
   9 C :   -0.070871
  10 H :    0.047546
  11 H :    0.021662
  12 C :   -0.047801
  13 H :    0.044513
  14 H :    0.015959
  15 H :    0.030190
  16 S :    0.111498
  17 C :   -0.062360
  18 C :   -0.019173
  19 C :   -0.063400
  20 C :   -0.136170
  21 H :    0.025346
  22 C :    0.100074
  23 H :    0.032489
  24 H :   -0.011477
  25 C :   -0.057333
  26 H :    0.015348
  27 H :    0.009421
  28 C :   -0.055610
  29 H :    0.038233
  30 H :    0.019514
  31 H :    0.046002
  32 H :    0.053875
  33 H :    0.027080
Sum of atomic charges:    0.0000000

LOEWDIN ATOMIC CHARGES
----------------------
   0 S :    0.368828
   1 C :   -0.189033
   2 C :   -0.059650
   3 C :   -0.074688
   4 C :   -0.173921
   5 H :    0.034039
   6 C :   -0.025092
   7 H :    0.030864
   8 H :    0.029234
   9 C :   -0.037594
  10 H :    0.035152
  11 H :    0.017475
  12 C :   -0.071986
  13 H :    0.032249
  14 H :    0.018718
  15 H :    0.023838
  16 S :    0.437653
  17 C :   -0.177135
  18 C :   -0.071672
  19 C :   -0.051213
  20 C :   -0.213065
  21 H :    0.033493
  22 C :   -0.034300
  23 H :    0.042630
  24 H :    0.020469
  25 C :   -0.032182
  26 H :    0.021994
  27 H :    0.013919
  28 C :   -0.070440
  29 H :    0.030442
  30 H :    0.023291
  31 H :    0.029571
  32 H :    0.029230
  33 H :    0.008881

  Mayer bond orders larger than 0.100000
B(  0-S ,  1-C ) :   1.1149 B(  0-S ,  4-C ) :   1.1382 B(  1-C ,  2-C ) :   1.6449
B(  1-C , 32-H ) :   0.9656 B(  2-C ,  3-C ) :   1.2266 B(  2-C ,  6-C ) :   1.0006
B(  3-C ,  4-C ) :   1.5946 B(  3-C ,  5-H ) :   0.9799 B(  4-C , 20-C ) :   1.0415
B(  6-C ,  7-H ) :   0.9471 B(  6-C ,  8-H ) :   0.9544 B(  6-C ,  9-C ) :   1.0536
B(  9-C , 10-H ) :   0.9562 B(  9-C , 11-H ) :   0.9598 B(  9-C , 12-C ) :   1.0776
B( 12-C , 13-H ) :   0.9757 B( 12-C , 14-H ) :   0.9737 B( 12-C , 15-H ) :   0.9751
B( 16-S , 17-C ) :   1.1875 B( 16-S , 20-C ) :   1.1418 B( 17-C , 18-C ) :   1.5899
B( 17-C , 33-H ) :   0.9762 B( 18-C , 19-C ) :   1.2362 B( 18-C , 21-H ) :   0.9876
B( 19-C , 20-C ) :   1.5945 B( 19-C , 22-C ) :   1.0664 B( 22-C , 23-H ) :   0.9030
B( 22-C , 24-H ) :   0.9257 B( 22-C , 25-C ) :   1.0926 B( 25-C , 26-H ) :   0.9460
B( 25-C , 27-H ) :   0.9565 B( 25-C , 28-C ) :   1.0803 B( 28-C , 29-H ) :   0.9753
B( 28-C , 30-H ) :   0.9747 B( 28-C , 31-H ) :   0.9762

Dispersion correction           -0.013832144
FINAL SINGLE POINT ENERGY     -1339.867107226460

DIPOLE MOMENT
-------------
                                X             Y             Z
Electronic contribution:    -27.27438      -6.64791       4.80416
Nuclear contribution   :     27.75024       6.98284      -5.05722
                        -----------------------------------------
Total Dipole Moment    :      0.47586       0.33494      -0.25306
                        -----------------------------------------
Magnitude (a.u.)       :      0.63456
Magnitude (Debye)      :      1.61292

Rotational constants in cm-1:     0.020103     0.007943     0.006061
Rotational constants in MHz :   602.684583   238.121346   181.712834

                             ****ORCA TERMINATED NORMALLY****
TOTAL RUN TIME: 0 days 0 hours 0 minutes 33 seconds 759 msec
