                         Program Version 4.2.1 -  RELEASE  -
|  1> ! wB97X-D3 SP def2-SVP
|  2> %pal
|  3> nprocs 16
|  4> end
|  5>
|  6> * xyz 0 1
|  7> S 	 34.6953 	 -0.51914 	 70.6202
|  8> C 	 34.884 	 1.16881 	 70.2957
|  9> C 	 34.8542 	 1.9089 	 71.4195
| 10> C 	 34.7727 	 1.08463 	 72.5513
| 11> C 	 34.6214 	 -0.301641 	 72.329
| 12> H 	 34.9129 	 1.46724 	 73.564
| 13> C 	 34.8531 	 3.42173 	 71.4155
| 14> H 	 34.8137 	 3.93796 	 70.4328
| 15> H 	 35.874 	 3.76011 	 71.8981
| 16> C 	 33.7585 	 4.02397 	 72.3165
| 17> H 	 33.6779 	 3.63421 	 73.3221
| 18> H 	 34.0837 	 5.04076 	 72.3565
| 19> C 	 32.3593 	 3.99852 	 71.757
| 20> H 	 32.0397 	 2.97687 	 71.7631
| 21> H 	 31.8897 	 4.59146 	 72.4929
| 22> H 	 32.239 	 4.41577 	 70.74
| 23> S 	 33.1551 	 -2.4828 	 72.9141
| 24> C 	 33.2329 	 -3.18162 	 74.4987
| 25> C 	 34.3094 	 -2.76498 	 75.2317
| 26> C 	 35.02 	 -1.72038 	 74.575
| 27> C 	 34.4672 	 -1.39744 	 73.3024
| 28> H 	 34.4028 	 -3.15894 	 76.186
| 29> C 	 36.207 	 -0.98882 	 75.1765
| 30> H 	 36.7859 	 -0.439536 	 74.4025
| 31> H 	 36.9788 	 -1.7657 	 75.5684
| 32> C 	 35.9575 	 -0.0815549 	 76.3829
| 33> H 	 36.8453 	 0.522842 	 76.5544
| 34> H 	 36.0158 	 -0.77512 	 77.2432
| 35> C 	 34.7513 	 0.802282 	 76.3682
| 36> H 	 34.9685 	 1.52014 	 77.1935
| 37> H 	 33.784 	 0.277636 	 76.6249
| 38> H 	 34.6937 	 1.3439 	 75.483
| 39> H 	 34.8224 	 1.53677 	 69.2706
| 40> H 	 32.6171 	 -4.00803 	 74.817
| 41> *
| 42>
| 43>                          ****END OF INPUT****

CARTESIAN COORDINATES (ANGSTROEM)
---------------------------------
  S     34.695300   -0.519140   70.620200
  C     34.884000    1.168810   70.295700
  C     34.854200    1.908900   71.419500
  C     34.772700    1.084630   72.551300
  C     34.621400   -0.301641   72.329000
  H     34.912900    1.467240   73.564000
  C     34.853100    3.421730   71.415500
  H     34.813700    3.937960   70.432800
  H     35.874000    3.760110   71.898100
  C     33.758500    4.023970   72.316500
  H     33.677900    3.634210   73.322100
  H     34.083700    5.040760   72.356500
  C     32.359300    3.998520   71.757000
  H     32.039700    2.976870   71.763100
  H     31.889700    4.591460   72.492900
  H     32.239000    4.415770   70.740000
  S     33.155100   -2.482800   72.914100
  C     33.232900   -3.181620   74.498700
  C     34.309400   -2.764980   75.231700
  C     35.020000   -1.720380   74.575000
  C     34.467200   -1.397440   73.302400
  H     34.402800   -3.158940   76.186000
  C     36.207000   -0.988820   75.176500
  H     36.785900   -0.439536   74.402500
  H     36.978800   -1.765700   75.568400
  C     35.957500   -0.081555   76.382900
  H     36.845300    0.522842   76.554400
  H     36.015800   -0.775120   77.243200
  C     34.751300    0.802282   76.368200
  H     34.968500    1.520140   77.193500
  H     33.784000    0.277636   76.624900
  H     34.693700    1.343900   75.483000
  H     34.822400    1.536770   69.270600
  H     32.617100   -4.008030   74.817000

 Total Charge           Charge          ....    0
 Multiplicity           Mult            ....    1
 Number of Electrons    NEL             ....  134
 Basis Dimension        Dim             ....  322

ORBITAL ENERGIES
----------------

  NO   OCC          E(Eh)            E(eV)
   0   2.0000     -88.965952     -2420.8866
   1   2.0000     -88.963058     -2420.8079
   2   2.0000     -10.333387      -281.1857
   3   2.0000     -10.332651      -281.1657
   4   2.0000     -10.314817      -280.6804
   5   2.0000     -10.311598      -280.5928
   6   2.0000     -10.307166      -280.4723
   7   2.0000     -10.302683      -280.3503
   8   2.0000     -10.296437      -280.1803
   9   2.0000     -10.294641      -280.1314
  10   2.0000     -10.293269      -280.0941
  11   2.0000     -10.290596      -280.0214
  12   2.0000     -10.284048      -279.8432
  13   2.0000     -10.279606      -279.7223
  14   2.0000     -10.277239      -279.6579
  15   2.0000     -10.267865      -279.4028
  16   2.0000      -8.081288      -219.9030
  17   2.0000      -8.078752      -219.8340
  18   2.0000      -6.039599      -164.3458
  19   2.0000      -6.037167      -164.2797
  20   2.0000      -6.035763      -164.2414
  21   2.0000      -6.033026      -164.1670
  22   2.0000      -6.032155      -164.1433
  23   2.0000      -6.029652      -164.0752
  24   2.0000      -1.010813       -27.5056
  25   2.0000      -0.990313       -26.9478
  26   2.0000      -0.915322       -24.9072
  27   2.0000      -0.910191       -24.7675
  28   2.0000      -0.875027       -23.8107
  29   2.0000      -0.850894       -23.1540
  30   2.0000      -0.847505       -23.0618
  31   2.0000      -0.817126       -22.2351
  32   2.0000      -0.785573       -21.3765
  33   2.0000      -0.775839       -21.1117
  34   2.0000      -0.711730       -19.3672
  35   2.0000      -0.689998       -18.7758
  36   2.0000      -0.685985       -18.6666
  37   2.0000      -0.658614       -17.9218
  38   2.0000      -0.638694       -17.3797
  39   2.0000      -0.628730       -17.1086
  40   2.0000      -0.592831       -16.1318
  41   2.0000      -0.577194       -15.7063
  42   2.0000      -0.553072       -15.0499
  43   2.0000      -0.552406       -15.0317
  44   2.0000      -0.547013       -14.8850
  45   2.0000      -0.537964       -14.6387
  46   2.0000      -0.518625       -14.1125
  47   2.0000      -0.514440       -13.9986
  48   2.0000      -0.505321       -13.7505
  49   2.0000      -0.501772       -13.6539
  50   2.0000      -0.494589       -13.4585
  51   2.0000      -0.480370       -13.0715
  52   2.0000      -0.472981       -12.8705
  53   2.0000      -0.467170       -12.7124
  54   2.0000      -0.465118       -12.6565
  55   2.0000      -0.451507       -12.2861
  56   2.0000      -0.439801       -11.9676
  57   2.0000      -0.435464       -11.8496
  58   2.0000      -0.428373       -11.6566
  59   2.0000      -0.424204       -11.5432
  60   2.0000      -0.418349       -11.3839
  61   2.0000      -0.406738       -11.0679
  62   2.0000      -0.404531       -11.0078
  63   2.0000      -0.351203        -9.5567
  64   2.0000      -0.331025        -9.0076
  65   2.0000      -0.328789        -8.9468
  66   2.0000      -0.290103        -7.8941
  67   0.0000       0.028728         0.7817
  68   0.0000       0.072931         1.9846
  69   0.0000       0.113637         3.0922
  70   0.0000       0.122790         3.3413
  71   0.0000       0.126591         3.4447

MULLIKEN ATOMIC CHARGES
-----------------------
   0 S :    0.104489
   1 C :   -0.145934
   2 C :   -0.040443
   3 C :    0.025257
   4 C :   -0.127487
   5 H :   -0.023879
   6 C :    0.031584
   7 H :    0.029753
   8 H :    0.046089
   9 C :   -0.098607
  10 H :    0.031567
  11 H :    0.017518
  12 C :   -0.017886
  13 H :    0.038524
  14 H :    0.028488
  15 H :    0.030189
  16 S :    0.107155
  17 C :   -0.089331
  18 C :   -0.012943
  19 C :   -0.004177
  20 C :   -0.157287
  21 H :   -0.003979
  22 C :    0.000150
  23 H :    0.037241
  24 H :    0.041479
  25 C :   -0.082655
  26 H :    0.023685
  27 H :    0.019610
  28 C :   -0.004162
  29 H :    0.031786
  30 H :    0.053549
  31 H :    0.004980
  32 H :    0.051011
  33 H :    0.054665
Sum of atomic charges:   -0.0000000

LOEWDIN ATOMIC CHARGES
----------------------
   0 S :    0.421124
   1 C :   -0.201591
   2 C :   -0.077134
   3 C :   -0.069768
   4 C :   -0.205538
   5 H :    0.022387
   6 C :   -0.033801
   7 H :    0.033352
   8 H :    0.042259
   9 C :   -0.042309
  10 H :    0.023961
  11 H :    0.019579
  12 C :   -0.057638
  13 H :    0.025123
  14 H :    0.024940
  15 H :    0.025227
  16 S :    0.418462
  17 C :   -0.181613
  18 C :   -0.064500
  19 C :   -0.050346
  20 C :   -0.197952
  21 H :    0.024315
  22 C :   -0.046662
  23 H :    0.030790
  24 H :    0.043084
  25 C :   -0.051707
  26 H :    0.026067
  27 H :    0.023219
  28 C :   -0.063291
  29 H :    0.035319
  30 H :    0.037498
  31 H :    0.010384
  32 H :    0.029455
  33 H :    0.027304

  Mayer bond orders larger than 0.100000
B(  0-S ,  1-C ) :   1.1496 B(  0-S ,  4-C ) :   1.1754 B(  1-C ,  2-C ) :   1.5870
B(  1-C , 32-H ) :   0.9675 B(  2-C ,  3-C ) :   1.2826 B(  2-C ,  6-C ) :   1.0200
B(  3-C ,  4-C ) :   1.5285 B(  3-C ,  5-H ) :   0.9940 B(  4-C , 20-C ) :   1.0274
B(  6-C ,  7-H ) :   0.9487 B(  6-C ,  8-H ) :   0.9341 B(  6-C ,  9-C ) :   1.0718
B(  9-C , 10-H ) :   0.9562 B(  9-C , 11-H ) :   0.9561 B(  9-C , 12-C ) :   1.0713
B( 12-C , 13-H ) :   0.9766 B( 12-C , 14-H ) :   0.9744 B( 12-C , 15-H ) :   0.9738
B( 16-S , 17-C ) :   1.1664 B( 16-S , 20-C ) :   1.1547 B( 17-C , 18-C ) :   1.6110
B( 17-C , 20-C ) :   0.1013 B( 17-C , 33-H ) :   0.9642 B( 18-C , 19-C ) :   1.2277
B( 18-C , 21-H ) :   1.0078 B( 19-C , 20-C ) :   1.5650 B( 19-C , 22-C ) :   1.0502
B( 22-C , 23-H ) :   0.9402 B( 22-C , 24-H ) :   0.9412 B( 22-C , 25-C ) :   1.0658
B( 25-C , 26-H ) :   0.9545 B( 25-C , 27-H ) :   0.9525 B( 25-C , 28-C ) :   1.0837
B( 28-C , 29-H ) :   0.9660 B( 28-C , 30-H ) :   0.9647 B( 28-C , 31-H ) :   0.9778

Dispersion correction           -0.015158358
FINAL SINGLE POINT ENERGY     -1339.871192484778

DIPOLE MOMENT
-------------
                                X             Y             Z
Electronic contribution:     -1.94814     -22.95155     -14.18001
Nuclear contribution   :      2.05110      23.38889      14.69879
                        -----------------------------------------
Total Dipole Moment    :      0.10296       0.43734       0.51878
                        -----------------------------------------
Magnitude (a.u.)       :      0.68630
Magnitude (Debye)      :      1.74443

Rotational constants in cm-1:     0.018596     0.009564     0.007609
Rotational constants in MHz :   557.501850   286.728203   228.115092

                             ****ORCA TERMINATED NORMALLY****
TOTAL RUN TIME: 0 days 0 hours 0 minutes 32 seconds 173 msec
