                         Program Version 4.2.1 -  RELEASE  -
|  1> ! wB97X-D3 SP def2-SVP
|  2> %pal
|  3> nprocs 16
|  4> end
|  5>
|  6> * xyz 0 1
|  7> S 	 1.88671 	 18.2687 	 52.2065
|  8> C 	 1.69498 	 16.9736 	 50.9748
|  9> C 	 0.437723 	 16.9692 	 50.3197
| 10> C 	 -0.42217 	 17.991 	 50.899
| 11> C 	 0.111492 	 18.6464 	 51.9858
| 12> H 	 -1.42119 	 18.0647 	 50.6344
| 13> C 	 0.0940584 	 16.206 	 49.0519
| 14> H 	 -0.839315 	 15.7219 	 49.1664
| 15> H 	 0.78369 	 15.4 	 48.7777
| 16> C 	 -0.113432 	 17.0967 	 47.802
| 17> H 	 -0.816235 	 17.9346 	 48.0528
| 18> H 	 0.846793 	 17.5666 	 47.5578
| 19> C 	 -0.54124 	 16.3283 	 46.5744
| 20> H 	 -0.232441 	 16.8256 	 45.6707
| 21> H 	 -0.196074 	 15.3079 	 46.6124
| 22> H 	 -1.58564 	 16.3891 	 46.6138
| 23> S 	 -1.88 	 19.2223 	 53.7192
| 24> C 	 -1.90872 	 20.7767 	 54.5229
| 25> C 	 -0.885888 	 21.5463 	 54.1291
| 26> C 	 -0.16025 	 21.0441 	 53.0737
| 27> C 	 -0.546669 	 19.7447 	 52.7084
| 28> H 	 -0.716278 	 22.5053 	 54.5466
| 29> C 	 1.07851 	 21.759 	 52.5253
| 30> H 	 0.767636 	 22.4826 	 51.7893
| 31> H 	 1.56876 	 20.9987 	 51.9121
| 32> C 	 1.9768 	 22.4001 	 53.6239
| 33> H 	 1.53982 	 23.1435 	 54.2721
| 34> H 	 2.72802 	 23.0728 	 53.1493
| 35> C 	 2.73946 	 21.5175 	 54.5199
| 36> H 	 2.9533 	 21.9374 	 55.5191
| 37> H 	 3.63124 	 21.1134 	 54.0558
| 38> H 	 2.04897 	 20.6835 	 54.8285
| 39> H 	 2.48234 	 16.2524 	 50.7495
| 40> H 	 -2.56618 	 20.9506 	 55.3386
| 41> *
| 42>
| 43>                          ****END OF INPUT****

CARTESIAN COORDINATES (ANGSTROEM)
---------------------------------
  S      1.886710   18.268700   52.206500
  C      1.694980   16.973600   50.974800
  C      0.437723   16.969200   50.319700
  C     -0.422170   17.991000   50.899000
  C      0.111492   18.646400   51.985800
  H     -1.421190   18.064700   50.634400
  C      0.094058   16.206000   49.051900
  H     -0.839315   15.721900   49.166400
  H      0.783690   15.400000   48.777700
  C     -0.113432   17.096700   47.802000
  H     -0.816235   17.934600   48.052800
  H      0.846793   17.566600   47.557800
  C     -0.541240   16.328300   46.574400
  H     -0.232441   16.825600   45.670700
  H     -0.196074   15.307900   46.612400
  H     -1.585640   16.389100   46.613800
  S     -1.880000   19.222300   53.719200
  C     -1.908720   20.776700   54.522900
  C     -0.885888   21.546300   54.129100
  C     -0.160250   21.044100   53.073700
  C     -0.546669   19.744700   52.708400
  H     -0.716278   22.505300   54.546600
  C      1.078510   21.759000   52.525300
  H      0.767636   22.482600   51.789300
  H      1.568760   20.998700   51.912100
  C      1.976800   22.400100   53.623900
  H      1.539820   23.143500   54.272100
  H      2.728020   23.072800   53.149300
  C      2.739460   21.517500   54.519900
  H      2.953300   21.937400   55.519100
  H      3.631240   21.113400   54.055800
  H      2.048970   20.683500   54.828500
  H      2.482340   16.252400   50.749500
  H     -2.566180   20.950600   55.338600

 Total Charge           Charge          ....    0
 Multiplicity           Mult            ....    1
 Number of Electrons    NEL             ....  134
 Basis Dimension        Dim             ....  322

ORBITAL ENERGIES
----------------

  NO   OCC          E(Eh)            E(eV)
   0   2.0000     -88.970213     -2421.0026
   1   2.0000     -88.962083     -2420.7814
   2   2.0000     -10.336230      -281.2631
   3   2.0000     -10.324633      -280.9476
   4   2.0000     -10.323178      -280.9080
   5   2.0000     -10.310230      -280.5556
   6   2.0000     -10.309681      -280.5407
   7   2.0000     -10.297587      -280.2116
   8   2.0000     -10.294835      -280.1367
   9   2.0000     -10.293453      -280.0991
  10   2.0000     -10.291399      -280.0432
  11   2.0000     -10.286890      -279.9205
  12   2.0000     -10.283838      -279.8375
  13   2.0000     -10.281418      -279.7716
  14   2.0000     -10.271886      -279.5122
  15   2.0000     -10.271228      -279.4943
  16   2.0000      -8.082511      -219.9363
  17   2.0000      -8.077149      -219.7904
  18   2.0000      -6.041210      -164.3897
  19   2.0000      -6.037566      -164.2905
  20   2.0000      -6.035487      -164.2340
  21   2.0000      -6.032998      -164.1662
  22   2.0000      -6.031618      -164.1287
  23   2.0000      -6.028052      -164.0316
  24   2.0000      -1.004911       -27.3450
  25   2.0000      -0.974815       -26.5261
  26   2.0000      -0.912726       -24.8365
  27   2.0000      -0.908383       -24.7183
  28   2.0000      -0.869866       -23.6703
  29   2.0000      -0.853528       -23.2257
  30   2.0000      -0.847092       -23.0506
  31   2.0000      -0.816638       -22.2219
  32   2.0000      -0.783650       -21.3242
  33   2.0000      -0.769886       -20.9497
  34   2.0000      -0.704016       -19.1573
  35   2.0000      -0.697672       -18.9846
  36   2.0000      -0.691049       -18.8044
  37   2.0000      -0.662252       -18.0208
  38   2.0000      -0.639305       -17.3964
  39   2.0000      -0.623241       -16.9592
  40   2.0000      -0.602143       -16.3851
  41   2.0000      -0.571278       -15.5453
  42   2.0000      -0.564373       -15.3574
  43   2.0000      -0.553345       -15.0573
  44   2.0000      -0.540948       -14.7199
  45   2.0000      -0.525673       -14.3043
  46   2.0000      -0.524808       -14.2807
  47   2.0000      -0.511293       -13.9130
  48   2.0000      -0.509144       -13.8545
  49   2.0000      -0.489953       -13.3323
  50   2.0000      -0.482510       -13.1298
  51   2.0000      -0.480630       -13.0786
  52   2.0000      -0.468866       -12.7585
  53   2.0000      -0.464661       -12.6441
  54   2.0000      -0.458701       -12.4819
  55   2.0000      -0.449591       -12.2340
  56   2.0000      -0.443843       -12.0776
  57   2.0000      -0.438350       -11.9281
  58   2.0000      -0.435278       -11.8445
  59   2.0000      -0.429694       -11.6926
  60   2.0000      -0.418314       -11.3829
  61   2.0000      -0.411736       -11.2039
  62   2.0000      -0.400792       -10.9061
  63   2.0000      -0.346298        -9.4233
  64   2.0000      -0.333646        -9.0790
  65   2.0000      -0.325539        -8.8584
  66   2.0000      -0.291882        -7.9425
  67   0.0000       0.030318         0.8250
  68   0.0000       0.059078         1.6076
  69   0.0000       0.096088         2.6147
  70   0.0000       0.115593         3.1454
  71   0.0000       0.129861         3.5337

MULLIKEN ATOMIC CHARGES
-----------------------
   0 S :    0.099088
   1 C :   -0.129987
   2 C :   -0.059793
   3 C :    0.041134
   4 C :   -0.122131
   5 H :   -0.001699
   6 C :    0.077024
   7 H :    0.012713
   8 H :    0.021746
   9 C :   -0.131011
  10 H :    0.037580
  11 H :    0.027189
  12 C :    0.003319
  13 H :    0.032798
  14 H :    0.030430
  15 H :    0.020389
  16 S :    0.096040
  17 C :   -0.072865
  18 C :   -0.014166
  19 C :   -0.075886
  20 C :   -0.168023
  21 H :    0.001825
  22 C :    0.131301
  23 H :    0.032494
  24 H :    0.014417
  25 C :   -0.088288
  26 H :    0.017406
  27 H :    0.020992
  28 C :   -0.052543
  29 H :    0.030184
  30 H :    0.037585
  31 H :    0.030359
  32 H :    0.054107
  33 H :    0.046273
Sum of atomic charges:   -0.0000000

LOEWDIN ATOMIC CHARGES
----------------------
   0 S :    0.360626
   1 C :   -0.179822
   2 C :   -0.053906
   3 C :   -0.045820
   4 C :   -0.169502
   5 H :    0.020612
   6 C :   -0.031977
   7 H :    0.023463
   8 H :    0.030487
   9 C :   -0.041409
  10 H :    0.026172
  11 H :    0.020653
  12 C :   -0.056952
  13 H :    0.028726
  14 H :    0.025013
  15 H :    0.021365
  16 S :    0.410083
  17 C :   -0.171323
  18 C :   -0.071127
  19 C :   -0.061817
  20 C :   -0.201100
  21 H :    0.028164
  22 C :   -0.026026
  23 H :    0.034933
  24 H :    0.022922
  25 C :   -0.054722
  26 H :    0.022731
  27 H :    0.029069
  28 C :   -0.072541
  29 H :    0.030173
  30 H :    0.023297
  31 H :    0.029708
  32 H :    0.027480
  33 H :    0.022369

  Mayer bond orders larger than 0.100000
B(  0-S ,  1-C ) :   1.1234 B(  0-S ,  4-C ) :   1.1019 B(  1-C ,  2-C ) :   1.6363
B(  1-C , 32-H ) :   0.9631 B(  2-C ,  3-C ) :   1.2050 B(  2-C ,  6-C ) :   1.0406
B(  3-C ,  4-C ) :   1.6132 B(  3-C ,  5-H ) :   0.9942 B(  4-C , 20-C ) :   1.0241
B(  6-C ,  7-H ) :   0.9326 B(  6-C ,  8-H ) :   0.9420 B(  6-C ,  9-C ) :   1.0571
B(  9-C , 10-H ) :   0.9598 B(  9-C , 11-H ) :   0.9601 B(  9-C , 12-C ) :   1.0712
B( 12-C , 13-H ) :   0.9744 B( 12-C , 14-H ) :   0.9738 B( 12-C , 15-H ) :   0.9752
B( 16-S , 17-C ) :   1.1621 B( 16-S , 20-C ) :   1.1616 B( 17-C , 18-C ) :   1.5798
B( 17-C , 20-C ) :   0.1009 B( 17-C , 33-H ) :   0.9712 B( 18-C , 19-C ) :   1.2808
B( 18-C , 21-H ) :   1.0002 B( 19-C , 20-C ) :   1.5591 B( 19-C , 22-C ) :   1.0257
B( 22-C , 23-H ) :   0.9253 B( 22-C , 24-H ) :   0.9351 B( 22-C , 25-C ) :   1.0594
B( 25-C , 26-H ) :   0.9550 B( 25-C , 27-H ) :   0.9489 B( 25-C , 28-C ) :   1.0861
B( 28-C , 29-H ) :   0.9711 B( 28-C , 30-H ) :   0.9754 B( 28-C , 31-H ) :   0.9708

Dispersion correction           -0.014575668
FINAL SINGLE POINT ENERGY     -1339.865283220814

DIPOLE MOMENT
-------------
                                X             Y             Z
Electronic contribution:     -6.64627      -2.35447      14.19868
Nuclear contribution   :      6.67099       2.47706     -14.51788
                        -----------------------------------------
Total Dipole Moment    :      0.02472       0.12259      -0.31920
                        -----------------------------------------
Magnitude (a.u.)       :      0.34282
Magnitude (Debye)      :      0.87138

Rotational constants in cm-1:     0.022670     0.007458     0.006521
Rotational constants in MHz :   679.624155   223.592903   195.483534

                             ****ORCA TERMINATED NORMALLY****
TOTAL RUN TIME: 0 days 0 hours 0 minutes 34 seconds 297 msec
