                         Program Version 4.2.1 -  RELEASE  -
|  1> ! wB97X-D3 SP def2-SVP
|  2> %pal
|  3> nprocs 16
|  4> end
|  5>
|  6> * xyz 0 1
|  7> S 	 35.8606 	 11.0448 	 85.6004
|  8> C 	 35.4419 	 10.6292 	 84.0016
|  9> C 	 35.71 	 9.29698 	 83.7387
| 10> C 	 36.3557 	 8.64727 	 84.8265
| 11> C 	 36.7034 	 9.61016 	 85.8236
| 12> H 	 36.6947 	 7.6004 	 84.9508
| 13> C 	 35.3481 	 8.57407 	 82.4683
| 14> H 	 35.776 	 7.58089 	 82.4237
| 15> H 	 35.8394 	 9.00558 	 81.6033
| 16> C 	 33.8653 	 8.51456 	 82.0926
| 17> H 	 33.3058 	 8.28968 	 83.0379
| 18> H 	 33.515 	 9.55459 	 81.8298
| 19> C 	 33.498 	 7.40638 	 81.1327
| 20> H 	 32.396 	 7.38707 	 80.9679
| 21> H 	 33.8314 	 7.60553 	 80.0956
| 22> H 	 33.71 	 6.35869 	 81.4262
| 23> S 	 36.8252 	 9.87216 	 88.5928
| 24> C 	 38.348 	 9.43648 	 89.3494
| 25> C 	 39.3626 	 9.12479 	 88.4679
| 26> C 	 38.9058 	 9.11352 	 87.1286
| 27> C 	 37.5836 	 9.47418 	 86.99
| 28> H 	 40.3395 	 8.84717 	 88.8203
| 29> C 	 39.8238 	 8.78574 	 85.9106
| 30> H 	 39.1767 	 8.59839 	 85.0678
| 31> H 	 40.4626 	 7.9577 	 86.1452
| 32> C 	 40.7187 	 10.0434 	 85.5879
| 33> H 	 41.4582 	 10.2138 	 86.3984
| 34> H 	 39.9969 	 10.8134 	 85.7152
| 35> C 	 41.3879 	 9.95797 	 84.2662
| 36> H 	 40.7342 	 10.0306 	 83.4916
| 37> H 	 42.0746 	 9.13795 	 84.0485
| 38> H 	 41.8701 	 10.8593 	 84.1204
| 39> H 	 34.8396 	 11.3283 	 83.3774
| 40> H 	 38.5319 	 9.53192 	 90.45
| 41> *
| 42>
| 43>                          ****END OF INPUT****

CARTESIAN COORDINATES (ANGSTROEM)
---------------------------------
  S     35.860600   11.044800   85.600400
  C     35.441900   10.629200   84.001600
  C     35.710000    9.296980   83.738700
  C     36.355700    8.647270   84.826500
  C     36.703400    9.610160   85.823600
  H     36.694700    7.600400   84.950800
  C     35.348100    8.574070   82.468300
  H     35.776000    7.580890   82.423700
  H     35.839400    9.005580   81.603300
  C     33.865300    8.514560   82.092600
  H     33.305800    8.289680   83.037900
  H     33.515000    9.554590   81.829800
  C     33.498000    7.406380   81.132700
  H     32.396000    7.387070   80.967900
  H     33.831400    7.605530   80.095600
  H     33.710000    6.358690   81.426200
  S     36.825200    9.872160   88.592800
  C     38.348000    9.436480   89.349400
  C     39.362600    9.124790   88.467900
  C     38.905800    9.113520   87.128600
  C     37.583600    9.474180   86.990000
  H     40.339500    8.847170   88.820300
  C     39.823800    8.785740   85.910600
  H     39.176700    8.598390   85.067800
  H     40.462600    7.957700   86.145200
  C     40.718700   10.043400   85.587900
  H     41.458200   10.213800   86.398400
  H     39.996900   10.813400   85.715200
  C     41.387900    9.957970   84.266200
  H     40.734200   10.030600   83.491600
  H     42.074600    9.137950   84.048500
  H     41.870100   10.859300   84.120400
  H     34.839600   11.328300   83.377400
  H     38.531900    9.531920   90.450000

 Total Charge           Charge          ....    0
 Multiplicity           Mult            ....    1
 Number of Electrons    NEL             ....  134
 Basis Dimension        Dim             ....  322

ORBITAL ENERGIES
----------------

  NO   OCC          E(Eh)            E(eV)
   0   2.0000     -88.966208     -2420.8936
   1   2.0000     -88.965009     -2420.8610
   2   2.0000     -10.327575      -281.0276
   3   2.0000     -10.326351      -280.9943
   4   2.0000     -10.321007      -280.8489
   5   2.0000     -10.311706      -280.5958
   6   2.0000     -10.303320      -280.3676
   7   2.0000     -10.302793      -280.3533
   8   2.0000     -10.299638      -280.2674
   9   2.0000     -10.292459      -280.0721
  10   2.0000     -10.292091      -280.0620
  11   2.0000     -10.287865      -279.9470
  12   2.0000     -10.286193      -279.9015
  13   2.0000     -10.285048      -279.8704
  14   2.0000     -10.280447      -279.7452
  15   2.0000     -10.259385      -279.1721
  16   2.0000      -8.083143      -219.9535
  17   2.0000      -8.078913      -219.8384
  18   2.0000      -6.041247      -164.3907
  19   2.0000      -6.037444      -164.2872
  20   2.0000      -6.037300      -164.2833
  21   2.0000      -6.034236      -164.1999
  22   2.0000      -6.033716      -164.1858
  23   2.0000      -6.029545      -164.0723
  24   2.0000      -1.012508       -27.5517
  25   2.0000      -0.983431       -26.7605
  26   2.0000      -0.913053       -24.8454
  27   2.0000      -0.906193       -24.6588
  28   2.0000      -0.866688       -23.5838
  29   2.0000      -0.854823       -23.2609
  30   2.0000      -0.848386       -23.0858
  31   2.0000      -0.810267       -22.0485
  32   2.0000      -0.786454       -21.4005
  33   2.0000      -0.772236       -21.0136
  34   2.0000      -0.701351       -19.0847
  35   2.0000      -0.699642       -19.0382
  36   2.0000      -0.690154       -18.7800
  37   2.0000      -0.661789       -18.0082
  38   2.0000      -0.642949       -17.4955
  39   2.0000      -0.614484       -16.7209
  40   2.0000      -0.590864       -16.0782
  41   2.0000      -0.571800       -15.5595
  42   2.0000      -0.565163       -15.3789
  43   2.0000      -0.556357       -15.1392
  44   2.0000      -0.524402       -14.2697
  45   2.0000      -0.521784       -14.1985
  46   2.0000      -0.517273       -14.0757
  47   2.0000      -0.506985       -13.7958
  48   2.0000      -0.502240       -13.6666
  49   2.0000      -0.501410       -13.6441
  50   2.0000      -0.492781       -13.4093
  51   2.0000      -0.487585       -13.2679
  52   2.0000      -0.471232       -12.8229
  53   2.0000      -0.470568       -12.8048
  54   2.0000      -0.458615       -12.4795
  55   2.0000      -0.455826       -12.4037
  56   2.0000      -0.449469       -12.2307
  57   2.0000      -0.432776       -11.7764
  58   2.0000      -0.426801       -11.6138
  59   2.0000      -0.425885       -11.5889
  60   2.0000      -0.420279       -11.4364
  61   2.0000      -0.413943       -11.2640
  62   2.0000      -0.405919       -11.0456
  63   2.0000      -0.339424        -9.2362
  64   2.0000      -0.333267        -9.0687
  65   2.0000      -0.331660        -9.0249
  66   2.0000      -0.289005        -7.8642
  67   0.0000       0.031130         0.8471
  68   0.0000       0.062530         1.7015
  69   0.0000       0.105081         2.8594
  70   0.0000       0.124694         3.3931
  71   0.0000       0.132397         3.6027

MULLIKEN ATOMIC CHARGES
-----------------------
   0 S :    0.134390
   1 C :   -0.134947
   2 C :   -0.080481
   3 C :    0.037284
   4 C :   -0.192395
   5 H :    0.032522
   6 C :    0.090725
   7 H :    0.003637
   8 H :    0.025217
   9 C :   -0.100518
  10 H :    0.034868
  11 H :    0.035171
  12 C :   -0.066153
  13 H :    0.031174
  14 H :    0.030509
  15 H :    0.045107
  16 S :    0.090034
  17 C :   -0.098197
  18 C :   -0.030302
  19 C :   -0.049129
  20 C :   -0.166394
  21 H :    0.013042
  22 C :    0.106059
  23 H :    0.017400
  24 H :    0.019648
  25 C :   -0.099644
  26 H :    0.027108
  27 H :    0.025410
  28 C :    0.051489
  29 H :   -0.003090
  30 H :    0.034614
  31 H :    0.003141
  32 H :    0.062018
  33 H :    0.070682
Sum of atomic charges:    0.0000000

LOEWDIN ATOMIC CHARGES
----------------------
   0 S :    0.463989
   1 C :   -0.223016
   2 C :   -0.063410
   3 C :   -0.066728
   4 C :   -0.220440
   5 H :    0.039616
   6 C :   -0.039428
   7 H :    0.026787
   8 H :    0.032567
   9 C :   -0.049423
  10 H :    0.028360
  11 H :    0.027503
  12 C :   -0.077326
  13 H :    0.032242
  14 H :    0.025361
  15 H :    0.031213
  16 S :    0.366122
  17 C :   -0.179972
  18 C :   -0.073582
  19 C :   -0.050981
  20 C :   -0.185663
  21 H :    0.031359
  22 C :   -0.017478
  23 H :    0.025630
  24 H :    0.022591
  25 C :   -0.033666
  26 H :    0.023804
  27 H :    0.023167
  28 C :   -0.060272
  29 H :    0.016389
  30 H :    0.030424
  31 H :    0.024026
  32 H :    0.033495
  33 H :    0.036741

  Mayer bond orders larger than 0.100000
B(  0-S ,  1-C ) :   1.1630 B(  0-S ,  4-C ) :   1.2172 B(  1-C ,  2-C ) :   1.5546
B(  1-C ,  4-C ) :   0.1060 B(  1-C , 32-H ) :   0.9703 B(  2-C ,  3-C ) :   1.2773
B(  2-C ,  6-C ) :   1.0330 B(  3-C ,  4-C ) :   1.4991 B(  3-C ,  5-H ) :   0.9935
B(  4-C , 20-C ) :   1.0165 B(  6-C ,  7-H ) :   0.9414 B(  6-C ,  8-H ) :   0.9300
B(  6-C ,  9-C ) :   1.0525 B(  9-C , 10-H ) :   0.9598 B(  9-C , 11-H ) :   0.9518
B(  9-C , 12-C ) :   1.0899 B( 12-C , 13-H ) :   0.9705 B( 12-C , 14-H ) :   0.9722
B( 12-C , 15-H ) :   0.9724 B( 16-S , 17-C ) :   1.1493 B( 16-S , 20-C ) :   1.1144
B( 17-C , 18-C ) :   1.6325 B( 17-C , 20-C ) :   0.1006 B( 17-C , 33-H ) :   0.9574
B( 18-C , 19-C ) :   1.2146 B( 18-C , 21-H ) :   0.9937 B( 19-C , 20-C ) :   1.6439
B( 19-C , 22-C ) :   1.0436 B( 22-C , 23-H ) :   0.9340 B( 22-C , 24-H ) :   0.9317
B( 22-C , 25-C ) :   1.0588 B( 25-C , 26-H ) :   0.9559 B( 25-C , 27-H ) :   0.9550
B( 25-C , 28-C ) :   1.0970 B( 28-C , 29-H ) :   0.9606 B( 28-C , 30-H ) :   0.9710
B( 28-C , 31-H ) :   0.9577

Dispersion correction           -0.013895030
FINAL SINGLE POINT ENERGY     -1339.868081023305

DIPOLE MOMENT
-------------
                                X             Y             Z
Electronic contribution:     -5.97636       9.38753      24.10926
Nuclear contribution   :      6.23547      -9.61058     -24.54957
                        -----------------------------------------
Total Dipole Moment    :      0.25911      -0.22305      -0.44031
                        -----------------------------------------
Magnitude (a.u.)       :      0.55746
Magnitude (Debye)      :      1.41695

Rotational constants in cm-1:     0.019775     0.007738     0.006377
Rotational constants in MHz :   592.840131   231.969082   191.191880

                             ****ORCA TERMINATED NORMALLY****
TOTAL RUN TIME: 0 days 0 hours 0 minutes 29 seconds 762 msec
