                         Program Version 4.2.1 -  RELEASE  -
|  1> ! wB97X-D3 SP def2-SVP
|  2> %pal
|  3> nprocs 16
|  4> end
|  5>
|  6> * xyz 0 1
|  7> S 	 50.4415 	 22.2495 	 43.5386
|  8> C 	 50.5434 	 20.8126 	 42.4911
|  9> C 	 49.2585 	 20.2708 	 42.1868
| 10> C 	 48.2317 	 21.0238 	 42.879
| 11> C 	 48.6805 	 22.0808 	 43.6678
| 12> H 	 47.1978 	 20.7501 	 42.762
| 13> C 	 49.0527 	 19.0497 	 41.3473
| 14> H 	 49.842 	 18.2802 	 41.7376
| 15> H 	 49.4119 	 19.3556 	 40.3674
| 16> C 	 47.5691 	 18.4417 	 41.2782
| 17> H 	 47.3443 	 18.0925 	 42.274
| 18> H 	 46.7604 	 19.2375 	 41.2078
| 19> C 	 47.2606 	 17.3057 	 40.3087
| 20> H 	 46.8233 	 17.6096 	 39.355
| 21> H 	 48.1264 	 16.65 	 40.0743
| 22> H 	 46.6124 	 16.507 	 40.8607
| 23> S 	 47.7973 	 24.6833 	 43.9605
| 24> C 	 46.7439 	 25.14 	 45.2598
| 25> C 	 46.2198 	 23.9828 	 45.8372
| 26> C 	 46.8561 	 22.8008 	 45.4401
| 27> C 	 47.8125 	 22.9613 	 44.4419
| 28> H 	 45.4506 	 24.0943 	 46.5758
| 29> C 	 46.5763 	 21.4441 	 46.0009
| 30> H 	 46.0749 	 20.8092 	 45.281
| 31> H 	 45.7595 	 21.5326 	 46.7654
| 32> C 	 47.8293 	 20.678 	 46.5966
| 33> H 	 48.5187 	 20.5098 	 45.8839
| 34> H 	 47.5464 	 19.6878 	 46.7612
| 35> C 	 48.4295 	 21.3574 	 47.8923
| 36> H 	 47.6728 	 21.3259 	 48.6634
| 37> H 	 48.5034 	 22.3613 	 47.642
| 38> H 	 49.4878 	 20.9861 	 48.1152
| 39> H 	 51.3464 	 20.4594 	 41.9615
| 40> H 	 46.3159 	 26.0857 	 45.399
| 41> *
| 42>
| 43>                          ****END OF INPUT****

CARTESIAN COORDINATES (ANGSTROEM)
---------------------------------
  S     50.441500   22.249500   43.538600
  C     50.543400   20.812600   42.491100
  C     49.258500   20.270800   42.186800
  C     48.231700   21.023800   42.879000
  C     48.680500   22.080800   43.667800
  H     47.197800   20.750100   42.762000
  C     49.052700   19.049700   41.347300
  H     49.842000   18.280200   41.737600
  H     49.411900   19.355600   40.367400
  C     47.569100   18.441700   41.278200
  H     47.344300   18.092500   42.274000
  H     46.760400   19.237500   41.207800
  C     47.260600   17.305700   40.308700
  H     46.823300   17.609600   39.355000
  H     48.126400   16.650000   40.074300
  H     46.612400   16.507000   40.860700
  S     47.797300   24.683300   43.960500
  C     46.743900   25.140000   45.259800
  C     46.219800   23.982800   45.837200
  C     46.856100   22.800800   45.440100
  C     47.812500   22.961300   44.441900
  H     45.450600   24.094300   46.575800
  C     46.576300   21.444100   46.000900
  H     46.074900   20.809200   45.281000
  H     45.759500   21.532600   46.765400
  C     47.829300   20.678000   46.596600
  H     48.518700   20.509800   45.883900
  H     47.546400   19.687800   46.761200
  C     48.429500   21.357400   47.892300
  H     47.672800   21.325900   48.663400
  H     48.503400   22.361300   47.642000
  H     49.487800   20.986100   48.115200
  H     51.346400   20.459400   41.961500
  H     46.315900   26.085700   45.399000

 Total Charge           Charge          ....    0
 Multiplicity           Mult            ....    1
 Number of Electrons    NEL             ....  134
 Basis Dimension        Dim             ....  322

ORBITAL ENERGIES
----------------

  NO   OCC          E(Eh)            E(eV)
   0   2.0000     -88.973500     -2421.0920
   1   2.0000     -88.962271     -2420.7865
   2   2.0000     -10.335001      -281.2297
   3   2.0000     -10.327621      -281.0289
   4   2.0000     -10.313708      -280.6503
   5   2.0000     -10.313706      -280.6502
   6   2.0000     -10.309719      -280.5417
   7   2.0000     -10.308169      -280.4995
   8   2.0000     -10.302748      -280.3520
   9   2.0000     -10.301331      -280.3135
  10   2.0000     -10.297490      -280.2089
  11   2.0000     -10.293659      -280.1047
  12   2.0000     -10.292166      -280.0641
  13   2.0000     -10.291563      -280.0477
  14   2.0000     -10.272401      -279.5262
  15   2.0000     -10.270705      -279.4801
  16   2.0000      -8.086486      -220.0445
  17   2.0000      -8.076783      -219.7804
  18   2.0000      -6.045128      -164.4963
  19   2.0000      -6.041156      -164.3882
  20   2.0000      -6.037281      -164.2828
  21   2.0000      -6.035197      -164.2260
  22   2.0000      -6.031210      -164.1176
  23   2.0000      -6.027759      -164.0237
  24   2.0000      -1.001481       -27.2517
  25   2.0000      -0.977939       -26.6111
  26   2.0000      -0.905615       -24.6430
  27   2.0000      -0.900798       -24.5120
  28   2.0000      -0.867659       -23.6102
  29   2.0000      -0.847904       -23.0727
  30   2.0000      -0.843629       -22.9563
  31   2.0000      -0.814520       -22.1642
  32   2.0000      -0.779291       -21.2056
  33   2.0000      -0.769529       -20.9400
  34   2.0000      -0.720418       -19.6036
  35   2.0000      -0.706330       -19.2202
  36   2.0000      -0.694345       -18.8941
  37   2.0000      -0.663508       -18.0550
  38   2.0000      -0.636425       -17.3180
  39   2.0000      -0.620265       -16.8783
  40   2.0000      -0.590356       -16.0644
  41   2.0000      -0.566258       -15.4087
  42   2.0000      -0.561215       -15.2714
  43   2.0000      -0.543491       -14.7891
  44   2.0000      -0.541844       -14.7443
  45   2.0000      -0.523171       -14.2362
  46   2.0000      -0.515378       -14.0242
  47   2.0000      -0.506466       -13.7816
  48   2.0000      -0.504387       -13.7251
  49   2.0000      -0.500851       -13.6288
  50   2.0000      -0.483927       -13.1683
  51   2.0000      -0.479157       -13.0385
  52   2.0000      -0.472753       -12.8643
  53   2.0000      -0.468754       -12.7555
  54   2.0000      -0.458221       -12.4688
  55   2.0000      -0.453474       -12.3397
  56   2.0000      -0.436811       -11.8862
  57   2.0000      -0.432956       -11.7813
  58   2.0000      -0.426558       -11.6072
  59   2.0000      -0.425701       -11.5839
  60   2.0000      -0.423777       -11.5316
  61   2.0000      -0.416796       -11.3416
  62   2.0000      -0.411653       -11.2017
  63   2.0000      -0.339248        -9.2314
  64   2.0000      -0.328895        -8.9497
  65   2.0000      -0.325695        -8.8626
  66   2.0000      -0.294175        -8.0049
  67   0.0000       0.024047         0.6543
  68   0.0000       0.058269         1.5856
  69   0.0000       0.113209         3.0806
  70   0.0000       0.119596         3.2544
  71   0.0000       0.128915         3.5080

MULLIKEN ATOMIC CHARGES
-----------------------
   0 S :    0.131186
   1 C :   -0.083621
   2 C :   -0.124489
   3 C :    0.041776
   4 C :   -0.152178
   5 H :    0.004704
   6 C :    0.043301
   7 H :    0.060978
   8 H :    0.042514
   9 C :   -0.100149
  10 H :    0.026781
  11 H :    0.045594
  12 C :   -0.072208
  13 H :    0.052054
  14 H :    0.032771
  15 H :    0.044103
  16 S :    0.097600
  17 C :   -0.068678
  18 C :   -0.052287
  19 C :   -0.001362
  20 C :   -0.171396
  21 H :    0.011972
  22 C :    0.023364
  23 H :    0.028227
  24 H :    0.012089
  25 C :    0.003436
  26 H :    0.004639
  27 H :   -0.002725
  28 C :   -0.030726
  29 H :    0.025817
  30 H :    0.018373
  31 H :    0.053052
  32 H :    0.011467
  33 H :    0.044020
Sum of atomic charges:    0.0000000

LOEWDIN ATOMIC CHARGES
----------------------
   0 S :    0.401010
   1 C :   -0.186416
   2 C :   -0.056890
   3 C :   -0.057713
   4 C :   -0.198176
   5 H :    0.026484
   6 C :   -0.041935
   7 H :    0.050103
   8 H :    0.033719
   9 C :   -0.053957
  10 H :    0.023875
  11 H :    0.032931
  12 C :   -0.079070
  13 H :    0.027324
  14 H :    0.029305
  15 H :    0.042300
  16 S :    0.403706
  17 C :   -0.180849
  18 C :   -0.072353
  19 C :   -0.062202
  20 C :   -0.186871
  21 H :    0.028562
  22 C :   -0.032082
  23 H :    0.029737
  24 H :    0.029530
  25 C :   -0.022791
  26 H :    0.008216
  27 H :    0.015473
  28 C :   -0.059603
  29 H :    0.023425
  30 H :    0.015835
  31 H :    0.039337
  32 H :    0.009240
  33 H :    0.020796

  Mayer bond orders larger than 0.100000
B(  0-S ,  1-C ) :   1.1391 B(  0-S ,  4-C ) :   1.1396 B(  1-C ,  2-C ) :   1.5980
B(  1-C ,  4-C ) :   0.1062 B(  1-C , 32-H ) :   0.9754 B(  2-C ,  3-C ) :   1.2710
B(  2-C ,  6-C ) :   1.0036 B(  3-C ,  4-C ) :   1.5435 B(  3-C ,  5-H ) :   0.9888
B(  4-C , 20-C ) :   1.0517 B(  6-C ,  7-H ) :   0.9426 B(  6-C ,  8-H ) :   0.9345
B(  6-C ,  9-C ) :   1.0579 B(  9-C , 10-H ) :   0.9592 B(  9-C , 11-H ) :   0.9529
B(  9-C , 12-C ) :   1.0740 B( 12-C , 13-H ) :   0.9780 B( 12-C , 14-H ) :   0.9742
B( 12-C , 15-H ) :   0.9751 B( 16-S , 17-C ) :   1.1776 B( 16-S , 20-C ) :   1.1495
B( 17-C , 18-C ) :   1.5675 B( 17-C , 20-C ) :   0.1135 B( 17-C , 33-H ) :   0.9714
B( 18-C , 19-C ) :   1.2706 B( 18-C , 21-H ) :   0.9943 B( 19-C , 20-C ) :   1.5511
B( 19-C , 22-C ) :   1.0444 B( 22-C , 23-H ) :   0.9307 B( 22-C , 24-H ) :   0.9381
B( 22-C , 25-C ) :   1.0706 B( 25-C , 26-H ) :   0.9534 B( 25-C , 27-H ) :   0.9475
B( 25-C , 28-C ) :   1.0577 B( 28-C , 29-H ) :   0.9763 B( 28-C , 30-H ) :   0.9799
B( 28-C , 31-H ) :   0.9738

Dispersion correction           -0.014926526
FINAL SINGLE POINT ENERGY     -1339.848450503320

DIPOLE MOMENT
-------------
                                X             Y             Z
Electronic contribution:      8.24629      24.73501      -1.30459
Nuclear contribution   :     -8.66357     -25.36947       1.12198
                        -----------------------------------------
Total Dipole Moment    :     -0.41728      -0.63446      -0.18262
                        -----------------------------------------
Magnitude (a.u.)       :      0.78103
Magnitude (Debye)      :      1.98523

Rotational constants in cm-1:     0.018991     0.008093     0.007489
Rotational constants in MHz :   569.327047   242.619972   224.506414

                             ****ORCA TERMINATED NORMALLY****
TOTAL RUN TIME: 0 days 0 hours 0 minutes 32 seconds 421 msec
