                         Program Version 4.2.1 -  RELEASE  -
|  1> ! wB97X-D3 SP def2-SVP
|  2> %pal
|  3> nprocs 16
|  4> end
|  5>
|  6> * xyz 0 1
|  7> S 	 -76.2169 	 44.7846 	 123.144
|  8> C 	 -77.5837 	 44.6781 	 122.07
|  9> C 	 -78.6864 	 45.3265 	 122.547
| 10> C 	 -78.462 	 45.6191 	 123.91
| 11> C 	 -77.1934 	 45.3569 	 124.38
| 12> H 	 -79.3005 	 45.8665 	 124.613
| 13> C 	 -80.028 	 45.3974 	 121.854
| 14> H 	 -79.8008 	 45.135 	 120.785
| 15> H 	 -80.533 	 46.3503 	 121.883
| 16> C 	 -81.0626 	 44.3328 	 122.307
| 17> H 	 -81.0569 	 44.2689 	 123.403
| 18> H 	 -81.9892 	 44.7368 	 122.165
| 19> C 	 -81.0635 	 43.0226 	 121.602
| 20> H 	 -81.133 	 43.1665 	 120.532
| 21> H 	 -80.1517 	 42.3809 	 121.735
| 22> H 	 -81.9398 	 42.4234 	 121.918
| 23> S 	 -75.7717 	 47.1498 	 125.849
| 24> C 	 -75.4888 	 46.7674 	 127.529
| 25> C 	 -75.9719 	 45.5135 	 127.862
| 26> C 	 -76.5452 	 44.8169 	 126.757
| 27> C 	 -76.5416 	 45.6074 	 125.637
| 28> H 	 -75.6867 	 45.0917 	 128.832
| 29> C 	 -77.2245 	 43.4129 	 126.93
| 30> H 	 -77.5081 	 43.0522 	 125.958
| 31> H 	 -78.1327 	 43.5153 	 127.538
| 32> C 	 -76.336 	 42.3022 	 127.507
| 33> H 	 -76.1191 	 42.554 	 128.521
| 34> H 	 -75.3453 	 42.3416 	 127.101
| 35> C 	 -76.9402 	 40.8953 	 127.408
| 36> H 	 -77.8451 	 40.7837 	 127.893
| 37> H 	 -76.2612 	 40.153 	 127.897
| 38> H 	 -77.0359 	 40.5236 	 126.408
| 39> H 	 -77.5473 	 44.1737 	 121.127
| 40> H 	 -74.9794 	 47.419 	 128.267
| 41> *
| 42>
| 43>                          ****END OF INPUT****

CARTESIAN COORDINATES (ANGSTROEM)
---------------------------------
  S    -76.216900   44.784600  123.144000
  C    -77.583700   44.678100  122.070000
  C    -78.686400   45.326500  122.547000
  C    -78.462000   45.619100  123.910000
  C    -77.193400   45.356900  124.380000
  H    -79.300500   45.866500  124.613000
  C    -80.028000   45.397400  121.854000
  H    -79.800800   45.135000  120.785000
  H    -80.533000   46.350300  121.883000
  C    -81.062600   44.332800  122.307000
  H    -81.056900   44.268900  123.403000
  H    -81.989200   44.736800  122.165000
  C    -81.063500   43.022600  121.602000
  H    -81.133000   43.166500  120.532000
  H    -80.151700   42.380900  121.735000
  H    -81.939800   42.423400  121.918000
  S    -75.771700   47.149800  125.849000
  C    -75.488800   46.767400  127.529000
  C    -75.971900   45.513500  127.862000
  C    -76.545200   44.816900  126.757000
  C    -76.541600   45.607400  125.637000
  H    -75.686700   45.091700  128.832000
  C    -77.224500   43.412900  126.930000
  H    -77.508100   43.052200  125.958000
  H    -78.132700   43.515300  127.538000
  C    -76.336000   42.302200  127.507000
  H    -76.119100   42.554000  128.521000
  H    -75.345300   42.341600  127.101000
  C    -76.940200   40.895300  127.408000
  H    -77.845100   40.783700  127.893000
  H    -76.261200   40.153000  127.897000
  H    -77.035900   40.523600  126.408000
  H    -77.547300   44.173700  121.127000
  H    -74.979400   47.419000  128.267000

 Total Charge           Charge          ....    0
 Multiplicity           Mult            ....    1
 Number of Electrons    NEL             ....  134
 Basis Dimension        Dim             ....  322

ORBITAL ENERGIES
----------------

  NO   OCC          E(Eh)            E(eV)
   0   2.0000     -88.965923     -2420.8858
   1   2.0000     -88.960749     -2420.7451
   2   2.0000     -10.318573      -280.7826
   3   2.0000     -10.318152      -280.7712
   4   2.0000     -10.315212      -280.6912
   5   2.0000     -10.306592      -280.4566
   6   2.0000     -10.302602      -280.3480
   7   2.0000     -10.295695      -280.1601
   8   2.0000     -10.295321      -280.1499
   9   2.0000     -10.291952      -280.0583
  10   2.0000     -10.291724      -280.0520
  11   2.0000     -10.290898      -280.0296
  12   2.0000     -10.279961      -279.7320
  13   2.0000     -10.279950      -279.7317
  14   2.0000     -10.277851      -279.6745
  15   2.0000     -10.273150      -279.5466
  16   2.0000      -8.081022      -219.8958
  17   2.0000      -8.077387      -219.7969
  18   2.0000      -6.039440      -164.3415
  19   2.0000      -6.035656      -164.2386
  20   2.0000      -6.035542      -164.2355
  21   2.0000      -6.031781      -164.1331
  22   2.0000      -6.031593      -164.1280
  23   2.0000      -6.028311      -164.0387
  24   2.0000      -1.016004       -27.6469
  25   2.0000      -0.988651       -26.9025
  26   2.0000      -0.916669       -24.9438
  27   2.0000      -0.904818       -24.6213
  28   2.0000      -0.873503       -23.7692
  29   2.0000      -0.849688       -23.1212
  30   2.0000      -0.846177       -23.0256
  31   2.0000      -0.810684       -22.0598
  32   2.0000      -0.787330       -21.4243
  33   2.0000      -0.775343       -21.0982
  34   2.0000      -0.711206       -19.3529
  35   2.0000      -0.703165       -19.1341
  36   2.0000      -0.690888       -18.8000
  37   2.0000      -0.655006       -17.8236
  38   2.0000      -0.642492       -17.4831
  39   2.0000      -0.618678       -16.8351
  40   2.0000      -0.596070       -16.2199
  41   2.0000      -0.571889       -15.5619
  42   2.0000      -0.564843       -15.3702
  43   2.0000      -0.549734       -14.9590
  44   2.0000      -0.537690       -14.6313
  45   2.0000      -0.522881       -14.2283
  46   2.0000      -0.516001       -14.0411
  47   2.0000      -0.515510       -14.0277
  48   2.0000      -0.501341       -13.6422
  49   2.0000      -0.495248       -13.4764
  50   2.0000      -0.482960       -13.1420
  51   2.0000      -0.480933       -13.0868
  52   2.0000      -0.477604       -12.9963
  53   2.0000      -0.467921       -12.7328
  54   2.0000      -0.461471       -12.5573
  55   2.0000      -0.446797       -12.1580
  56   2.0000      -0.439900       -11.9703
  57   2.0000      -0.436732       -11.8841
  58   2.0000      -0.433222       -11.7886
  59   2.0000      -0.429469       -11.6864
  60   2.0000      -0.425505       -11.5786
  61   2.0000      -0.415726       -11.3125
  62   2.0000      -0.414240       -11.2721
  63   2.0000      -0.337091        -9.1727
  64   2.0000      -0.329435        -8.9644
  65   2.0000      -0.318838        -8.6760
  66   2.0000      -0.309420        -8.4198
  67   0.0000       0.053802         1.4640
  68   0.0000       0.056709         1.5431
  69   0.0000       0.117575         3.1994
  70   0.0000       0.124139         3.3780
  71   0.0000       0.130083         3.5397

MULLIKEN ATOMIC CHARGES
-----------------------
   0 S :    0.124565
   1 C :   -0.127615
   2 C :   -0.055082
   3 C :    0.022843
   4 C :   -0.202800
   5 H :    0.025081
   6 C :    0.044452
   7 H :    0.019816
   8 H :    0.035170
   9 C :   -0.025556
  10 H :    0.018921
  11 H :   -0.003441
  12 C :   -0.060068
  13 H :    0.023095
  14 H :    0.039485
  15 H :    0.039557
  16 S :    0.134728
  17 C :   -0.112909
  18 C :   -0.043192
  19 C :   -0.004782
  20 C :   -0.187678
  21 H :    0.027479
  22 C :    0.095884
  23 H :    0.017398
  24 H :    0.039909
  25 C :   -0.076183
  26 H :    0.012067
  27 H :    0.023427
  28 C :   -0.023528
  29 H :    0.016092
  30 H :    0.030588
  31 H :    0.030570
  32 H :    0.034965
  33 H :    0.066741
Sum of atomic charges:   -0.0000000

LOEWDIN ATOMIC CHARGES
----------------------
   0 S :    0.443295
   1 C :   -0.192557
   2 C :   -0.068028
   3 C :   -0.067342
   4 C :   -0.227091
   5 H :    0.036402
   6 C :   -0.026635
   7 H :    0.034138
   8 H :    0.032886
   9 C :   -0.040968
  10 H :    0.025412
  11 H :    0.013757
  12 C :   -0.068026
  13 H :    0.021879
  14 H :    0.028319
  15 H :    0.032718
  16 S :    0.417958
  17 C :   -0.191096
  18 C :   -0.077350
  19 C :   -0.050636
  20 C :   -0.217541
  21 H :    0.033114
  22 C :   -0.021692
  23 H :    0.024944
  24 H :    0.034079
  25 C :   -0.040737
  26 H :    0.016125
  27 H :    0.024361
  28 C :   -0.057874
  29 H :    0.014586
  30 H :    0.034401
  31 H :    0.023830
  32 H :    0.019451
  33 H :    0.035920

  Mayer bond orders larger than 0.100000
B(  0-S ,  1-C ) :   1.1570 B(  0-S ,  4-C ) :   1.1813 B(  1-C ,  2-C ) :   1.6014
B(  1-C ,  4-C ) :   0.1036 B(  1-C , 32-H ) :   0.9689 B(  2-C ,  3-C ) :   1.2444
B(  2-C ,  6-C ) :   1.0385 B(  3-C ,  4-C ) :   1.5960 B(  3-C ,  5-H ) :   0.9903
B(  4-C , 20-C ) :   0.9850 B(  6-C ,  7-H ) :   0.9438 B(  6-C ,  8-H ) :   0.9404
B(  6-C ,  9-C ) :   1.0658 B(  9-C , 10-H ) :   0.9497 B(  9-C , 11-H ) :   0.9463
B(  9-C , 12-C ) :   1.0935 B( 12-C , 13-H ) :   0.9694 B( 12-C , 14-H ) :   0.9751
B( 12-C , 15-H ) :   0.9707 B( 16-S , 17-C ) :   1.1510 B( 16-S , 20-C ) :   1.1538
B( 17-C , 18-C ) :   1.6338 B( 17-C , 33-H ) :   0.9617 B( 18-C , 19-C ) :   1.2275
B( 18-C , 21-H ) :   0.9817 B( 19-C , 20-C ) :   1.6306 B( 19-C , 22-C ) :   1.0359
B( 22-C , 23-H ) :   0.9336 B( 22-C , 24-H ) :   0.9402 B( 22-C , 25-C ) :   1.0579
B( 25-C , 26-H ) :   0.9511 B( 25-C , 27-H ) :   0.9560 B( 25-C , 28-C ) :   1.0931
B( 28-C , 29-H ) :   0.9736 B( 28-C , 30-H ) :   0.9717 B( 28-C , 31-H ) :   0.9753

Dispersion correction           -0.013950466
FINAL SINGLE POINT ENERGY     -1339.876690873287

DIPOLE MOMENT
-------------
                                X             Y             Z
Electronic contribution:     17.86728      20.93434      -0.42124
Nuclear contribution   :    -18.35924     -21.29991       0.59069
                        -----------------------------------------
Total Dipole Moment    :     -0.49197      -0.36557       0.16945
                        -----------------------------------------
Magnitude (a.u.)       :      0.63591
Magnitude (Debye)      :      1.61637

Rotational constants in cm-1:     0.017602     0.008686     0.006782
Rotational constants in MHz :   527.704748   260.390445   203.327738

                             ****ORCA TERMINATED NORMALLY****
TOTAL RUN TIME: 0 days 0 hours 0 minutes 32 seconds 875 msec
