                         Program Version 4.2.1 -  RELEASE  -
|  1> ! wB97X-D3 SP def2-SVP
|  2> %pal
|  3> nprocs 16
|  4> end
|  5>
|  6> * xyz 0 1
|  7> S 	 47.1704 	 21.904 	 90.697
|  8> C 	 47.1649 	 22.5226 	 92.4225
|  9> C 	 48.4388 	 22.963 	 92.8068
| 10> C 	 49.4267 	 22.5377 	 91.894
| 11> C 	 48.9359 	 22.0737 	 90.6921
| 12> H 	 50.4712 	 22.7495 	 91.8973
| 13> C 	 48.7484 	 23.8205 	 93.9585
| 14> H 	 49.0654 	 23.0107 	 94.6184
| 15> H 	 47.8279 	 24.3421 	 94.4511
| 16> C 	 49.7618 	 24.9668 	 93.6946
| 17> H 	 49.9794 	 25.3367 	 94.7159
| 18> H 	 50.7782 	 24.6307 	 93.2887
| 19> C 	 49.396 	 26.1083 	 92.6907
| 20> H 	 50.0991 	 26.9623 	 92.78
| 21> H 	 49.5645 	 25.6889 	 91.6217
| 22> H 	 48.3916 	 26.6399 	 92.6988
| 23> S 	 48.8149 	 20.2027 	 88.5414
| 24> C 	 50.0229 	 20.2658 	 87.2623
| 25> C 	 51.003 	 21.2021 	 87.537
| 26> C 	 50.7033 	 22.0323 	 88.6853
| 27> C 	 49.545 	 21.6357 	 89.4017
| 28> H 	 51.8759 	 21.1662 	 86.8435
| 29> C 	 51.651 	 23.1496 	 88.9986
| 30> H 	 52.7308 	 22.9055 	 88.794
| 31> H 	 51.5573 	 23.3312 	 90.0183
| 32> C 	 51.342 	 24.4981 	 88.2834
| 33> H 	 50.3088 	 24.7126 	 87.9729
| 34> H 	 51.8691 	 24.4958 	 87.2965
| 35> C 	 51.8105 	 25.7244 	 89.0936
| 36> H 	 52.7692 	 25.504 	 89.5616
| 37> H 	 51.1414 	 26.0372 	 89.8676
| 38> H 	 51.9043 	 26.5461 	 88.3647
| 39> H 	 46.2823 	 22.7728 	 92.9246
| 40> H 	 50.0503 	 19.4803 	 86.4015
| 41> *
| 42>
| 43>                          ****END OF INPUT****

CARTESIAN COORDINATES (ANGSTROEM)
---------------------------------
  S     47.170400   21.904000   90.697000
  C     47.164900   22.522600   92.422500
  C     48.438800   22.963000   92.806800
  C     49.426700   22.537700   91.894000
  C     48.935900   22.073700   90.692100
  H     50.471200   22.749500   91.897300
  C     48.748400   23.820500   93.958500
  H     49.065400   23.010700   94.618400
  H     47.827900   24.342100   94.451100
  C     49.761800   24.966800   93.694600
  H     49.979400   25.336700   94.715900
  H     50.778200   24.630700   93.288700
  C     49.396000   26.108300   92.690700
  H     50.099100   26.962300   92.780000
  H     49.564500   25.688900   91.621700
  H     48.391600   26.639900   92.698800
  S     48.814900   20.202700   88.541400
  C     50.022900   20.265800   87.262300
  C     51.003000   21.202100   87.537000
  C     50.703300   22.032300   88.685300
  C     49.545000   21.635700   89.401700
  H     51.875900   21.166200   86.843500
  C     51.651000   23.149600   88.998600
  H     52.730800   22.905500   88.794000
  H     51.557300   23.331200   90.018300
  C     51.342000   24.498100   88.283400
  H     50.308800   24.712600   87.972900
  H     51.869100   24.495800   87.296500
  C     51.810500   25.724400   89.093600
  H     52.769200   25.504000   89.561600
  H     51.141400   26.037200   89.867600
  H     51.904300   26.546100   88.364700
  H     46.282300   22.772800   92.924600
  H     50.050300   19.480300   86.401500

 Total Charge           Charge          ....    0
 Multiplicity           Mult            ....    1
 Number of Electrons    NEL             ....  134
 Basis Dimension        Dim             ....  322

ORBITAL ENERGIES
----------------

  NO   OCC          E(Eh)            E(eV)
   0   2.0000     -88.965770     -2420.8817
   1   2.0000     -88.963617     -2420.8231
   2   2.0000     -10.340183      -281.3707
   3   2.0000     -10.338298      -281.3194
   4   2.0000     -10.327680      -281.0305
   5   2.0000     -10.313021      -280.6316
   6   2.0000     -10.312859      -280.6272
   7   2.0000     -10.306750      -280.4609
   8   2.0000     -10.304274      -280.3935
   9   2.0000     -10.304065      -280.3879
  10   2.0000     -10.300001      -280.2773
  11   2.0000     -10.297674      -280.2139
  12   2.0000     -10.293543      -280.1015
  13   2.0000     -10.293242      -280.0933
  14   2.0000     -10.289454      -279.9903
  15   2.0000     -10.277783      -279.6727
  16   2.0000      -8.079142      -219.8446
  17   2.0000      -8.076910      -219.7839
  18   2.0000      -6.037848      -164.2982
  19   2.0000      -6.035492      -164.2341
  20   2.0000      -6.033770      -164.1872
  21   2.0000      -6.031829      -164.1344
  22   2.0000      -6.029815      -164.0796
  23   2.0000      -6.027460      -164.0155
  24   2.0000      -0.996472       -27.1154
  25   2.0000      -0.975229       -26.5373
  26   2.0000      -0.911691       -24.8084
  27   2.0000      -0.906492       -24.6669
  28   2.0000      -0.861215       -23.4348
  29   2.0000      -0.849859       -23.1259
  30   2.0000      -0.837889       -22.8001
  31   2.0000      -0.816828       -22.2270
  32   2.0000      -0.783244       -21.3132
  33   2.0000      -0.770235       -20.9592
  34   2.0000      -0.707124       -19.2418
  35   2.0000      -0.698057       -18.9951
  36   2.0000      -0.691800       -18.8248
  37   2.0000      -0.651025       -17.7153
  38   2.0000      -0.640857       -17.4386
  39   2.0000      -0.623762       -16.9734
  40   2.0000      -0.594531       -16.1780
  41   2.0000      -0.565517       -15.3885
  42   2.0000      -0.557450       -15.1690
  43   2.0000      -0.556218       -15.1355
  44   2.0000      -0.530337       -14.4312
  45   2.0000      -0.525457       -14.2984
  46   2.0000      -0.520707       -14.1692
  47   2.0000      -0.506438       -13.7809
  48   2.0000      -0.497594       -13.5402
  49   2.0000      -0.493053       -13.4167
  50   2.0000      -0.487633       -13.2692
  51   2.0000      -0.482793       -13.1375
  52   2.0000      -0.471225       -12.8227
  53   2.0000      -0.464400       -12.6370
  54   2.0000      -0.459304       -12.4983
  55   2.0000      -0.446163       -12.1407
  56   2.0000      -0.442650       -12.0451
  57   2.0000      -0.438725       -11.9383
  58   2.0000      -0.429055       -11.6752
  59   2.0000      -0.425192       -11.5701
  60   2.0000      -0.418668       -11.3925
  61   2.0000      -0.414065       -11.2673
  62   2.0000      -0.408360       -11.1120
  63   2.0000      -0.346563        -9.4305
  64   2.0000      -0.328588        -8.9413
  65   2.0000      -0.328282        -8.9330
  66   2.0000      -0.285046        -7.7565
  67   0.0000       0.019273         0.5245
  68   0.0000       0.071556         1.9471
  69   0.0000       0.089701         2.4409
  70   0.0000       0.106490         2.8977
  71   0.0000       0.123903         3.3716

MULLIKEN ATOMIC CHARGES
-----------------------
   0 S :    0.076609
   1 C :   -0.095249
   2 C :   -0.091586
   3 C :    0.047829
   4 C :   -0.150302
   5 H :    0.000271
   6 C :    0.038484
   7 H :    0.056329
   8 H :    0.047659
   9 C :   -0.095182
  10 H :    0.039207
  11 H :    0.038063
  12 C :   -0.110823
  13 H :    0.042895
  14 H :    0.061433
  15 H :    0.049203
  16 S :    0.087919
  17 C :   -0.130859
  18 C :   -0.050316
  19 C :   -0.047920
  20 C :   -0.116410
  21 H :    0.039619
  22 C :    0.100346
  23 H :    0.044295
  24 H :   -0.019360
  25 C :   -0.091878
  26 H :    0.039347
  27 H :    0.028782
  28 C :   -0.054716
  29 H :    0.028081
  30 H :    0.030245
  31 H :    0.035561
  32 H :    0.027326
  33 H :    0.095097
Sum of atomic charges:    0.0000000

LOEWDIN ATOMIC CHARGES
----------------------
   0 S :    0.360816
   1 C :   -0.173337
   2 C :   -0.056997
   3 C :   -0.071136
   4 C :   -0.161829
   5 H :    0.025122
   6 C :   -0.043666
   7 H :    0.046588
   8 H :    0.045042
   9 C :   -0.047763
  10 H :    0.027710
  11 H :    0.031187
  12 C :   -0.085509
  13 H :    0.030568
  14 H :    0.035475
  15 H :    0.031697
  16 S :    0.370027
  17 C :   -0.193459
  18 C :   -0.083871
  19 C :   -0.049370
  20 C :   -0.186819
  21 H :    0.041901
  22 C :   -0.032311
  23 H :    0.042375
  24 H :    0.014113
  25 C :   -0.041177
  26 H :    0.028020
  27 H :    0.025160
  28 C :   -0.064196
  29 H :    0.021983
  30 H :    0.018972
  31 H :    0.030976
  32 H :    0.012020
  33 H :    0.051688

  Mayer bond orders larger than 0.100000
B(  0-S ,  1-C ) :   1.1078 B(  0-S ,  4-C ) :   1.1482 B(  1-C ,  2-C ) :   1.6277
B(  1-C ,  4-C ) :   0.1058 B(  1-C , 32-H ) :   0.9742 B(  2-C ,  3-C ) :   1.2053
B(  2-C ,  6-C ) :   1.0032 B(  3-C ,  4-C ) :   1.6192 B(  3-C ,  5-H ) :   0.9811
B(  4-C , 20-C ) :   1.0309 B(  6-C ,  7-H ) :   0.9330 B(  6-C ,  8-H ) :   0.9460
B(  6-C ,  9-C ) :   1.0670 B(  9-C , 10-H ) :   0.9586 B(  9-C , 11-H ) :   0.9521
B(  9-C , 12-C ) :   1.0531 B( 12-C , 13-H ) :   0.9749 B( 12-C , 14-H ) :   0.9680
B( 12-C , 15-H ) :   0.9737 B( 16-S , 17-C ) :   1.1483 B( 16-S , 20-C ) :   1.1189
B( 17-C , 18-C ) :   1.6276 B( 17-C , 33-H ) :   0.9507 B( 18-C , 19-C ) :   1.2158
B( 18-C , 21-H ) :   0.9859 B( 19-C , 20-C ) :   1.5942 B( 19-C , 22-C ) :   1.0583
B( 22-C , 23-H ) :   0.9323 B( 22-C , 24-H ) :   0.9328 B( 22-C , 25-C ) :   1.0446
B( 25-C , 26-H ) :   0.9611 B( 25-C , 27-H ) :   0.9583 B( 25-C , 28-C ) :   1.0818
B( 28-C , 29-H ) :   0.9735 B( 28-C , 30-H ) :   0.9743 B( 28-C , 31-H ) :   0.9725

Dispersion correction           -0.015042107
FINAL SINGLE POINT ENERGY     -1339.848732088603

DIPOLE MOMENT
-------------
                                X             Y             Z
Electronic contribution:    -15.60748     -26.13826      -7.81408
Nuclear contribution   :     16.22374      26.71143       7.96070
                        -----------------------------------------
Total Dipole Moment    :      0.61627       0.57317       0.14662
                        -----------------------------------------
Magnitude (a.u.)       :      0.85429
Magnitude (Debye)      :      2.17142

Rotational constants in cm-1:     0.017217     0.010564     0.007108
Rotational constants in MHz :   516.154083   316.705274   213.077620

                             ****ORCA TERMINATED NORMALLY****
TOTAL RUN TIME: 0 days 0 hours 0 minutes 31 seconds 628 msec
