                         Program Version 4.2.1 -  RELEASE  -
|  1> ! wB97X-D3 SP def2-SVP
|  2> %pal
|  3> nprocs 16
|  4> end
|  5>
|  6> * xyz 0 1
|  7> S 	 -2.41968 	 -8.94389 	 84.5463
|  8> C 	 -2.00192 	 -10.2365 	 85.6265
|  9> C 	 -2.99453 	 -10.4638 	 86.5408
| 10> C 	 -4.0889 	 -9.56641 	 86.4127
| 11> C 	 -3.97351 	 -8.78078 	 85.3004
| 12> H 	 -4.8999 	 -9.44493 	 87.0969
| 13> C 	 -2.87905 	 -11.5315 	 87.6654
| 14> H 	 -3.14264 	 -12.5453 	 87.266
| 15> H 	 -3.72674 	 -11.2481 	 88.2897
| 16> C 	 -1.50299 	 -11.5867 	 88.3529
| 17> H 	 -1.45916 	 -12.4885 	 88.8938
| 18> H 	 -0.827006 	 -11.825 	 87.5088
| 19> C 	 -1.07692 	 -10.4398 	 89.2833
| 20> H 	 -1.86982 	 -10.2495 	 90.0211
| 21> H 	 -0.267831 	 -10.8849 	 89.811
| 22> H 	 -0.787443 	 -9.53029 	 88.7107
| 23> S 	 -6.55651 	 -8.05695 	 84.6613
| 24> C 	 -6.93545 	 -6.42087 	 84.7036
| 25> C 	 -5.85907 	 -5.60389 	 84.8877
| 26> C 	 -4.66759 	 -6.30194 	 85.039
| 27> C 	 -4.87111 	 -7.653 	 84.9316
| 28> H 	 -6.05201 	 -4.56956 	 84.9814
| 29> C 	 -3.36752 	 -5.60986 	 85.2001
| 30> H 	 -3.43481 	 -4.55555 	 85.1569
| 31> H 	 -2.67714 	 -5.75839 	 84.3824
| 32> C 	 -2.62741 	 -5.89291 	 86.4602
| 33> H 	 -1.7561 	 -5.20346 	 86.4836
| 34> H 	 -2.24085 	 -6.92996 	 86.4591
| 35> C 	 -3.47801 	 -5.69919 	 87.6841
| 36> H 	 -4.21575 	 -6.46364 	 87.8338
| 37> H 	 -3.96672 	 -4.74677 	 87.6328
| 38> H 	 -2.81641 	 -5.75967 	 88.5778
| 39> H 	 -1.04251 	 -10.6673 	 85.5427
| 40> H 	 -7.95214 	 -6.03796 	 84.5121
| 41> *
| 42>
| 43>                          ****END OF INPUT****

CARTESIAN COORDINATES (ANGSTROEM)
---------------------------------
  S     -2.419680   -8.943890   84.546300
  C     -2.001920  -10.236500   85.626500
  C     -2.994530  -10.463800   86.540800
  C     -4.088900   -9.566410   86.412700
  C     -3.973510   -8.780780   85.300400
  H     -4.899900   -9.444930   87.096900
  C     -2.879050  -11.531500   87.665400
  H     -3.142640  -12.545300   87.266000
  H     -3.726740  -11.248100   88.289700
  C     -1.502990  -11.586700   88.352900
  H     -1.459160  -12.488500   88.893800
  H     -0.827006  -11.825000   87.508800
  C     -1.076920  -10.439800   89.283300
  H     -1.869820  -10.249500   90.021100
  H     -0.267831  -10.884900   89.811000
  H     -0.787443   -9.530290   88.710700
  S     -6.556510   -8.056950   84.661300
  C     -6.935450   -6.420870   84.703600
  C     -5.859070   -5.603890   84.887700
  C     -4.667590   -6.301940   85.039000
  C     -4.871110   -7.653000   84.931600
  H     -6.052010   -4.569560   84.981400
  C     -3.367520   -5.609860   85.200100
  H     -3.434810   -4.555550   85.156900
  H     -2.677140   -5.758390   84.382400
  C     -2.627410   -5.892910   86.460200
  H     -1.756100   -5.203460   86.483600
  H     -2.240850   -6.929960   86.459100
  C     -3.478010   -5.699190   87.684100
  H     -4.215750   -6.463640   87.833800
  H     -3.966720   -4.746770   87.632800
  H     -2.816410   -5.759670   88.577800
  H     -1.042510  -10.667300   85.542700
  H     -7.952140   -6.037960   84.512100

 Total Charge           Charge          ....    0
 Multiplicity           Mult            ....    1
 Number of Electrons    NEL             ....  134
 Basis Dimension        Dim             ....  322

ORBITAL ENERGIES
----------------

  NO   OCC          E(Eh)            E(eV)
   0   2.0000     -88.965655     -2420.8785
   1   2.0000     -88.962957     -2420.8051
   2   2.0000     -10.324915      -280.9552
   3   2.0000     -10.320189      -280.8266
   4   2.0000     -10.308403      -280.5059
   5   2.0000     -10.306676      -280.4589
   6   2.0000     -10.298263      -280.2300
   7   2.0000     -10.294981      -280.1407
   8   2.0000     -10.294595      -280.1302
   9   2.0000     -10.290320      -280.0139
  10   2.0000     -10.285296      -279.8771
  11   2.0000     -10.281657      -279.7781
  12   2.0000     -10.280317      -279.7417
  13   2.0000     -10.276450      -279.6364
  14   2.0000     -10.274636      -279.5870
  15   2.0000     -10.265473      -279.3377
  16   2.0000      -8.081685      -219.9138
  17   2.0000      -8.078002      -219.8136
  18   2.0000      -6.039850      -164.3527
  19   2.0000      -6.036394      -164.2586
  20   2.0000      -6.036034      -164.2488
  21   2.0000      -6.032719      -164.1586
  22   2.0000      -6.032428      -164.1507
  23   2.0000      -6.028911      -164.0550
  24   2.0000      -1.014797       -27.6140
  25   2.0000      -0.993171       -27.0255
  26   2.0000      -0.920197       -25.0398
  27   2.0000      -0.907016       -24.6812
  28   2.0000      -0.865781       -23.5591
  29   2.0000      -0.854670       -23.2567
  30   2.0000      -0.849498       -23.1160
  31   2.0000      -0.813161       -22.1272
  32   2.0000      -0.788554       -21.4576
  33   2.0000      -0.775661       -21.1068
  34   2.0000      -0.706430       -19.2229
  35   2.0000      -0.700961       -19.0741
  36   2.0000      -0.679978       -18.5031
  37   2.0000      -0.664391       -18.0790
  38   2.0000      -0.647715       -17.6252
  39   2.0000      -0.609829       -16.5943
  40   2.0000      -0.600957       -16.3529
  41   2.0000      -0.573160       -15.5965
  42   2.0000      -0.558127       -15.1874
  43   2.0000      -0.549794       -14.9606
  44   2.0000      -0.545246       -14.8369
  45   2.0000      -0.537085       -14.6148
  46   2.0000      -0.519407       -14.1338
  47   2.0000      -0.511699       -13.9240
  48   2.0000      -0.504507       -13.7283
  49   2.0000      -0.489341       -13.3157
  50   2.0000      -0.487816       -13.2741
  51   2.0000      -0.481694       -13.1076
  52   2.0000      -0.476566       -12.9680
  53   2.0000      -0.471784       -12.8379
  54   2.0000      -0.459821       -12.5124
  55   2.0000      -0.445684       -12.1277
  56   2.0000      -0.440867       -11.9966
  57   2.0000      -0.433574       -11.7981
  58   2.0000      -0.431514       -11.7421
  59   2.0000      -0.429194       -11.6790
  60   2.0000      -0.420762       -11.4495
  61   2.0000      -0.410840       -11.1795
  62   2.0000      -0.405500       -11.0342
  63   2.0000      -0.342746        -9.3266
  64   2.0000      -0.335886        -9.1399
  65   2.0000      -0.328171        -8.9300
  66   2.0000      -0.296140        -8.0584
  67   0.0000       0.038256         1.0410
  68   0.0000       0.072521         1.9734
  69   0.0000       0.116223         3.1626
  70   0.0000       0.122313         3.3283
  71   0.0000       0.131348         3.5742

MULLIKEN ATOMIC CHARGES
-----------------------
   0 S :    0.098533
   1 C :   -0.138235
   2 C :   -0.071465
   3 C :    0.030749
   4 C :   -0.162853
   5 H :    0.008869
   6 C :    0.070636
   7 H :    0.046242
   8 H :    0.007448
   9 C :   -0.086200
  10 H :    0.009759
  11 H :    0.022929
  12 C :   -0.018680
  13 H :    0.035333
  14 H :    0.029812
  15 H :    0.055346
  16 S :    0.127913
  17 C :   -0.103264
  18 C :   -0.032112
  19 C :    0.015437
  20 C :   -0.182357
  21 H :   -0.000196
  22 C :    0.101454
  23 H :   -0.007435
  24 H :    0.027005
  25 C :   -0.094395
  26 H :    0.025762
  27 H :    0.037720
  28 C :   -0.025665
  29 H :    0.030800
  30 H :    0.014903
  31 H :    0.030865
  32 H :    0.037322
  33 H :    0.058022
Sum of atomic charges:    0.0000000

LOEWDIN ATOMIC CHARGES
----------------------
   0 S :    0.423715
   1 C :   -0.195743
   2 C :   -0.064483
   3 C :   -0.065442
   4 C :   -0.195501
   5 H :    0.028894
   6 C :   -0.031518
   7 H :    0.038995
   8 H :    0.022678
   9 C :   -0.045288
  10 H :    0.017500
  11 H :    0.025729
  12 C :   -0.059622
  13 H :    0.029748
  14 H :    0.025904
  15 H :    0.033012
  16 S :    0.441110
  17 C :   -0.206644
  18 C :   -0.072571
  19 C :   -0.052043
  20 C :   -0.200557
  21 H :    0.026882
  22 C :   -0.037755
  23 H :    0.024907
  24 H :    0.032589
  25 C :   -0.044337
  26 H :    0.025936
  27 H :    0.018063
  28 C :   -0.062521
  29 H :    0.021965
  30 H :    0.018177
  31 H :    0.030026
  32 H :    0.016123
  33 H :    0.032075

  Mayer bond orders larger than 0.100000
B(  0-S ,  1-C ) :   1.1443 B(  0-S ,  4-C ) :   1.1695 B(  1-C ,  2-C ) :   1.5961
B(  1-C , 32-H ) :   0.9802 B(  2-C ,  3-C ) :   1.2473 B(  2-C ,  6-C ) :   0.9969
B(  3-C ,  4-C ) :   1.5896 B(  3-C ,  5-H ) :   0.9956 B(  4-C , 20-C ) :   0.9776
B(  6-C ,  7-H ) :   0.9379 B(  6-C ,  8-H ) :   0.9440 B(  6-C ,  9-C ) :   1.0792
B(  9-C , 10-H ) :   0.9534 B(  9-C , 11-H ) :   0.9489 B(  9-C , 12-C ) :   1.0671
B( 12-C , 13-H ) :   0.9735 B( 12-C , 14-H ) :   0.9744 B( 12-C , 15-H ) :   0.9752
B( 16-S , 17-C ) :   1.1861 B( 16-S , 20-C ) :   1.1603 B( 17-C , 18-C ) :   1.5874
B( 17-C , 33-H ) :   0.9601 B( 18-C , 19-C ) :   1.2588 B( 18-C , 21-H ) :   1.0030
B( 19-C , 20-C ) :   1.5733 B( 19-C , 22-C ) :   1.0384 B( 22-C , 23-H ) :   0.9227
B( 22-C , 24-H ) :   0.9289 B( 22-C , 25-C ) :   1.0833 B( 25-C , 26-H ) :   0.9523
B( 25-C , 27-H ) :   0.9460 B( 25-C , 28-C ) :   1.0892 B( 28-C , 29-H ) :   0.9656
B( 28-C , 30-H ) :   0.9747 B( 28-C , 31-H ) :   0.9716

Dispersion correction           -0.016239125
FINAL SINGLE POINT ENERGY     -1339.888106416570

DIPOLE MOMENT
-------------
                                X             Y             Z
Electronic contribution:    -13.79365      -0.90561     -20.74136
Nuclear contribution   :     13.97064       0.96957      21.21614
                        -----------------------------------------
Total Dipole Moment    :      0.17699       0.06396       0.47478
                        -----------------------------------------
Magnitude (a.u.)       :      0.51072
Magnitude (Debye)      :      1.29814

Rotational constants in cm-1:     0.022660     0.008932     0.007960
Rotational constants in MHz :   679.320641   267.759833   238.621100

                             ****ORCA TERMINATED NORMALLY****
TOTAL RUN TIME: 0 days 0 hours 0 minutes 37 seconds 886 msec
