                         Program Version 4.2.1 -  RELEASE  -
|  1> ! wB97X-D3 SP def2-SVP
|  2> %pal
|  3> nprocs 16
|  4> end
|  5>
|  6> * xyz 0 1
|  7> S 	 -40.0027 	 -2.76644 	 96.0902
|  8> C 	 -40.3388 	 -4.30826 	 95.4088
|  9> C 	 -40.9912 	 -5.11998 	 96.3519
| 10> C 	 -41.3876 	 -4.51276 	 97.5524
| 11> C 	 -40.8833 	 -3.19221 	 97.5853
| 12> H 	 -42.0234 	 -4.82257 	 98.3971
| 13> C 	 -41.2423 	 -6.57472 	 95.968
| 14> H 	 -41.4916 	 -6.64705 	 94.8541
| 15> H 	 -42.207 	 -6.82686 	 96.5215
| 16> C 	 -40.0955 	 -7.54295 	 96.3649
| 17> H 	 -39.2263 	 -7.52289 	 95.6946
| 18> H 	 -39.6714 	 -7.23381 	 97.3687
| 19> C 	 -40.5118 	 -9.01029 	 96.6229
| 20> H 	 -41.2784 	 -9.11232 	 97.3532
| 21> H 	 -40.9521 	 -9.4889 	 95.7738
| 22> H 	 -39.6744 	 -9.64612 	 96.9024
| 23> S 	 -42.3548 	 -1.63458 	 99.2491
| 24> C 	 -41.5893 	 -0.811159 	 100.572
| 25> C 	 -40.2648 	 -1.14745 	 100.688
| 26> C 	 -39.7967 	 -1.98036 	 99.6471
| 27> C 	 -40.8326 	 -2.34653 	 98.7645
| 28> H 	 -39.7276 	 -0.775174 	 101.511
| 29> C 	 -38.3754 	 -2.47968 	 99.5683
| 30> H 	 -37.7658 	 -1.64737 	 99.3065
| 31> H 	 -38.1221 	 -3.15596 	 98.7353
| 32> C 	 -37.8181 	 -2.93374 	 100.936
| 33> H 	 -38.4217 	 -3.643 	 101.414
| 34> H 	 -37.7473 	 -2.08722 	 101.668
| 35> C 	 -36.3578 	 -3.46862 	 100.738
| 36> H 	 -35.8664 	 -3.96342 	 101.569
| 37> H 	 -35.6164 	 -2.67182 	 100.498
| 38> H 	 -36.2641 	 -4.20249 	 99.9711
| 39> H 	 -40.0075 	 -4.62286 	 94.4431
| 40> H 	 -42.171 	 -0.339501 	 101.342
| 41> *
| 42>
| 43>                          ****END OF INPUT****

CARTESIAN COORDINATES (ANGSTROEM)
---------------------------------
  S    -40.002700   -2.766440   96.090200
  C    -40.338800   -4.308260   95.408800
  C    -40.991200   -5.119980   96.351900
  C    -41.387600   -4.512760   97.552400
  C    -40.883300   -3.192210   97.585300
  H    -42.023400   -4.822570   98.397100
  C    -41.242300   -6.574720   95.968000
  H    -41.491600   -6.647050   94.854100
  H    -42.207000   -6.826860   96.521500
  C    -40.095500   -7.542950   96.364900
  H    -39.226300   -7.522890   95.694600
  H    -39.671400   -7.233810   97.368700
  C    -40.511800   -9.010290   96.622900
  H    -41.278400   -9.112320   97.353200
  H    -40.952100   -9.488900   95.773800
  H    -39.674400   -9.646120   96.902400
  S    -42.354800   -1.634580   99.249100
  C    -41.589300   -0.811159  100.572000
  C    -40.264800   -1.147450  100.688000
  C    -39.796700   -1.980360   99.647100
  C    -40.832600   -2.346530   98.764500
  H    -39.727600   -0.775174  101.511000
  C    -38.375400   -2.479680   99.568300
  H    -37.765800   -1.647370   99.306500
  H    -38.122100   -3.155960   98.735300
  C    -37.818100   -2.933740  100.936000
  H    -38.421700   -3.643000  101.414000
  H    -37.747300   -2.087220  101.668000
  C    -36.357800   -3.468620  100.738000
  H    -35.866400   -3.963420  101.569000
  H    -35.616400   -2.671820  100.498000
  H    -36.264100   -4.202490   99.971100
  H    -40.007500   -4.622860   94.443100
  H    -42.171000   -0.339501  101.342000

 Total Charge           Charge          ....    0
 Multiplicity           Mult            ....    1
 Number of Electrons    NEL             ....  134
 Basis Dimension        Dim             ....  322

ORBITAL ENERGIES
----------------

  NO   OCC          E(Eh)            E(eV)
   0   2.0000     -88.969100     -2420.9723
   1   2.0000     -88.962488     -2420.7924
   2   2.0000     -10.331566      -281.1362
   3   2.0000     -10.323711      -280.9225
   4   2.0000     -10.312267      -280.6110
   5   2.0000     -10.312139      -280.6076
   6   2.0000     -10.304566      -280.4015
   7   2.0000     -10.302448      -280.3439
   8   2.0000     -10.302008      -280.3319
   9   2.0000     -10.301862      -280.3279
  10   2.0000     -10.293438      -280.0987
  11   2.0000     -10.290465      -280.0178
  12   2.0000     -10.288767      -279.9716
  13   2.0000     -10.288603      -279.9671
  14   2.0000     -10.277430      -279.6631
  15   2.0000     -10.272143      -279.5192
  16   2.0000      -8.083303      -219.9579
  17   2.0000      -8.077667      -219.8045
  18   2.0000      -6.041601      -164.4003
  19   2.0000      -6.037712      -164.2945
  20   2.0000      -6.035992      -164.2477
  21   2.0000      -6.034505      -164.2072
  22   2.0000      -6.032040      -164.1401
  23   2.0000      -6.028684      -164.0488
  24   2.0000      -1.004926       -27.3454
  25   2.0000      -0.984297       -26.7841
  26   2.0000      -0.907503       -24.6944
  27   2.0000      -0.901793       -24.5390
  28   2.0000      -0.869329       -23.6556
  29   2.0000      -0.851676       -23.1753
  30   2.0000      -0.846498       -23.0344
  31   2.0000      -0.814591       -22.1661
  32   2.0000      -0.780704       -21.2440
  33   2.0000      -0.764007       -20.7897
  34   2.0000      -0.711548       -19.3622
  35   2.0000      -0.700761       -19.0687
  36   2.0000      -0.696324       -18.9479
  37   2.0000      -0.660276       -17.9670
  38   2.0000      -0.644658       -17.5420
  39   2.0000      -0.614191       -16.7130
  40   2.0000      -0.600217       -16.3327
  41   2.0000      -0.565915       -15.3993
  42   2.0000      -0.558768       -15.2048
  43   2.0000      -0.552066       -15.0225
  44   2.0000      -0.525026       -14.2867
  45   2.0000      -0.521973       -14.2036
  46   2.0000      -0.516498       -14.0546
  47   2.0000      -0.514418       -13.9980
  48   2.0000      -0.505922       -13.7668
  49   2.0000      -0.494853       -13.4656
  50   2.0000      -0.490357       -13.3433
  51   2.0000      -0.475896       -12.9498
  52   2.0000      -0.466974       -12.7070
  53   2.0000      -0.464026       -12.6268
  54   2.0000      -0.458646       -12.4804
  55   2.0000      -0.453187       -12.3318
  56   2.0000      -0.448097       -12.1933
  57   2.0000      -0.440176       -11.9778
  58   2.0000      -0.437464       -11.9040
  59   2.0000      -0.422634       -11.5005
  60   2.0000      -0.420782       -11.4501
  61   2.0000      -0.412931       -11.2364
  62   2.0000      -0.411565       -11.1993
  63   2.0000      -0.341902        -9.3036
  64   2.0000      -0.334543        -9.1034
  65   2.0000      -0.320455        -8.7200
  66   2.0000      -0.295610        -8.0440
  67   0.0000       0.034706         0.9444
  68   0.0000       0.059158         1.6098
  69   0.0000       0.115425         3.1409
  70   0.0000       0.117813         3.2058
  71   0.0000       0.133485         3.6323

MULLIKEN ATOMIC CHARGES
-----------------------
   0 S :    0.124817
   1 C :   -0.103666
   2 C :   -0.085298
   3 C :    0.048885
   4 C :   -0.176474
   5 H :    0.035706
   6 C :    0.020085
   7 H :    0.044528
   8 H :    0.030421
   9 C :   -0.069685
  10 H :    0.032095
  11 H :    0.035267
  12 C :   -0.036570
  13 H :    0.019236
  14 H :    0.015379
  15 H :    0.033864
  16 S :    0.104668
  17 C :   -0.086262
  18 C :   -0.035962
  19 C :    0.019437
  20 C :   -0.211892
  21 H :    0.001864
  22 C :    0.094682
  23 H :    0.017637
  24 H :    0.028212
  25 C :   -0.083627
  26 H :    0.028428
  27 H :    0.037965
  28 C :   -0.056012
  29 H :    0.024762
  30 H :    0.029446
  31 H :    0.020396
  32 H :    0.042349
  33 H :    0.055319
Sum of atomic charges:   -0.0000000

LOEWDIN ATOMIC CHARGES
----------------------
   0 S :    0.416887
   1 C :   -0.206561
   2 C :   -0.068140
   3 C :   -0.056857
   4 C :   -0.190917
   5 H :    0.044481
   6 C :   -0.040663
   7 H :    0.036989
   8 H :    0.034274
   9 C :   -0.045342
  10 H :    0.024366
  11 H :    0.031254
  12 C :   -0.066391
  13 H :    0.018827
  14 H :    0.018414
  15 H :    0.028293
  16 S :    0.413903
  17 C :   -0.186220
  18 C :   -0.067220
  19 C :   -0.050279
  20 C :   -0.209612
  21 H :    0.025105
  22 C :   -0.033423
  23 H :    0.032430
  24 H :    0.033057
  25 C :   -0.030640
  26 H :    0.015697
  27 H :    0.028730
  28 C :   -0.072142
  29 H :    0.024607
  30 H :    0.028920
  31 H :    0.018687
  32 H :    0.023963
  33 H :    0.025522

  Mayer bond orders larger than 0.100000
B(  0-S ,  1-C ) :   1.1538 B(  0-S ,  4-C ) :   1.1676 B(  1-C ,  2-C ) :   1.5666
B(  1-C ,  4-C ) :   0.1095 B(  1-C , 32-H ) :   0.9754 B(  2-C ,  3-C ) :   1.2700
B(  2-C ,  6-C ) :   1.0221 B(  3-C ,  4-C ) :   1.5377 B(  3-C ,  5-H ) :   0.9888
B(  4-C , 20-C ) :   1.0160 B(  6-C ,  7-H ) :   0.9446 B(  6-C ,  8-H ) :   0.9480
B(  6-C ,  9-C ) :   1.0413 B(  9-C , 10-H ) :   0.9561 B(  9-C , 11-H ) :   0.9606
B(  9-C , 12-C ) :   1.0794 B( 12-C , 13-H ) :   0.9762 B( 12-C , 14-H ) :   0.9740
B( 12-C , 15-H ) :   0.9748 B( 16-S , 17-C ) :   1.1660 B( 16-S , 20-C ) :   1.1577
B( 17-C , 18-C ) :   1.5985 B( 17-C , 20-C ) :   0.1020 B( 17-C , 33-H ) :   0.9656
B( 18-C , 19-C ) :   1.2441 B( 18-C , 21-H ) :   0.9996 B( 19-C , 20-C ) :   1.5729
B( 19-C , 22-C ) :   1.0414 B( 22-C , 23-H ) :   0.9198 B( 22-C , 24-H ) :   0.9427
B( 22-C , 25-C ) :   1.0496 B( 25-C , 26-H ) :   0.9665 B( 25-C , 27-H ) :   0.9496
B( 25-C , 28-C ) :   1.0754 B( 28-C , 29-H ) :   0.9751 B( 28-C , 30-H ) :   0.9755
B( 28-C , 31-H ) :   0.9771

Dispersion correction           -0.013808065
FINAL SINGLE POINT ENERGY     -1339.878521302864

DIPOLE MOMENT
-------------
                                X             Y             Z
Electronic contribution:    -15.44717      22.16913      -5.44168
Nuclear contribution   :     15.78042     -22.60288       5.70927
                        -----------------------------------------
Total Dipole Moment    :      0.33326      -0.43375       0.26759
                        -----------------------------------------
Magnitude (a.u.)       :      0.60894
Magnitude (Debye)      :      1.54780

Rotational constants in cm-1:     0.016917     0.008173     0.006766
Rotational constants in MHz :   507.164195   245.026830   202.826888

                             ****ORCA TERMINATED NORMALLY****
TOTAL RUN TIME: 0 days 0 hours 0 minutes 29 seconds 71 msec
