                         Program Version 4.2.1 -  RELEASE  -
|  1> ! wB97X-D3 SP def2-SVP
|  2> %pal
|  3> nprocs 16
|  4> end
|  5>
|  6> * xyz 0 1
|  7> S 	 -61.8266 	 53.0128 	 128.76
|  8> C 	 -63.5258 	 53.3057 	 129.075
|  9> C 	 -64.061 	 52.3185 	 129.897
| 10> C 	 -63.0743 	 51.3586 	 130.222
| 11> C 	 -61.8713 	 51.4946 	 129.606
| 12> H 	 -63.2323 	 50.3912 	 130.795
| 13> C 	 -65.4941 	 52.1945 	 130.424
| 14> H 	 -65.8208 	 51.2363 	 129.992
| 15> H 	 -66.0624 	 53.0497 	 129.954
| 16> C 	 -65.6616 	 52.1224 	 131.952
| 17> H 	 -65.2592 	 51.1929 	 132.293
| 18> H 	 -65.1541 	 52.9906 	 132.463
| 19> C 	 -67.1325 	 52.2046 	 132.211
| 20> H 	 -67.3533 	 52.2557 	 133.222
| 21> H 	 -67.5473 	 53.2434 	 131.923
| 22> H 	 -67.7778 	 51.5379 	 131.668
| 23> S 	 -61.1645 	 48.9039 	 130.019
| 24> C 	 -59.5049 	 48.4496 	 129.894
| 25> C 	 -58.6337 	 49.4801 	 129.572
| 26> C 	 -59.3562 	 50.6943 	 129.399
| 27> C 	 -60.7571 	 50.5539 	 129.64
| 28> H 	 -57.5701 	 49.2817 	 129.461
| 29> C 	 -58.5836 	 51.9942 	 129
| 30> H 	 -57.5831 	 51.9827 	 129.358
| 31> H 	 -59.1321 	 52.8214 	 129.42
| 32> C 	 -58.4775 	 52.091 	 127.467
| 33> H 	 -58.5486 	 53.1928 	 127.084
| 34> H 	 -59.275 	 51.5541 	 127.019
| 35> C 	 -57.1505 	 51.5224 	 126.968
| 36> H 	 -56.9786 	 51.9163 	 125.924
| 37> H 	 -57.1298 	 50.4002 	 126.951
| 38> H 	 -56.3958 	 51.9801 	 127.62
| 39> H 	 -64.0742 	 54.201 	 128.736
| 40> H 	 -59.2807 	 47.4102 	 130.082
| 41> *
| 42>
| 43>                          ****END OF INPUT****

CARTESIAN COORDINATES (ANGSTROEM)
---------------------------------
  S    -61.826600   53.012800  128.760000
  C    -63.525800   53.305700  129.075000
  C    -64.061000   52.318500  129.897000
  C    -63.074300   51.358600  130.222000
  C    -61.871300   51.494600  129.606000
  H    -63.232300   50.391200  130.795000
  C    -65.494100   52.194500  130.424000
  H    -65.820800   51.236300  129.992000
  H    -66.062400   53.049700  129.954000
  C    -65.661600   52.122400  131.952000
  H    -65.259200   51.192900  132.293000
  H    -65.154100   52.990600  132.463000
  C    -67.132500   52.204600  132.211000
  H    -67.353300   52.255700  133.222000
  H    -67.547300   53.243400  131.923000
  H    -67.777800   51.537900  131.668000
  S    -61.164500   48.903900  130.019000
  C    -59.504900   48.449600  129.894000
  C    -58.633700   49.480100  129.572000
  C    -59.356200   50.694300  129.399000
  C    -60.757100   50.553900  129.640000
  H    -57.570100   49.281700  129.461000
  C    -58.583600   51.994200  129.000000
  H    -57.583100   51.982700  129.358000
  H    -59.132100   52.821400  129.420000
  C    -58.477500   52.091000  127.467000
  H    -58.548600   53.192800  127.084000
  H    -59.275000   51.554100  127.019000
  C    -57.150500   51.522400  126.968000
  H    -56.978600   51.916300  125.924000
  H    -57.129800   50.400200  126.951000
  H    -56.395800   51.980100  127.620000
  H    -64.074200   54.201000  128.736000
  H    -59.280700   47.410200  130.082000

 Total Charge           Charge          ....    0
 Multiplicity           Mult            ....    1
 Number of Electrons    NEL             ....  134
 Basis Dimension        Dim             ....  322

ORBITAL ENERGIES
----------------

  NO   OCC          E(Eh)            E(eV)
   0   2.0000     -88.969124     -2420.9730
   1   2.0000     -88.965060     -2420.8624
   2   2.0000     -10.330995      -281.1207
   3   2.0000     -10.326797      -281.0064
   4   2.0000     -10.316692      -280.7315
   5   2.0000     -10.314431      -280.6699
   6   2.0000     -10.311102      -280.5793
   7   2.0000     -10.300327      -280.2861
   8   2.0000     -10.298076      -280.2249
   9   2.0000     -10.297814      -280.2178
  10   2.0000     -10.289767      -279.9988
  11   2.0000     -10.289630      -279.9951
  12   2.0000     -10.289011      -279.9782
  13   2.0000     -10.284103      -279.8447
  14   2.0000     -10.283126      -279.8181
  15   2.0000     -10.274872      -279.5935
  16   2.0000      -8.084359      -219.9866
  17   2.0000      -8.079525      -219.8551
  18   2.0000      -6.042705      -164.4303
  19   2.0000      -6.038822      -164.3247
  20   2.0000      -6.038098      -164.3050
  21   2.0000      -6.035277      -164.2282
  22   2.0000      -6.034116      -164.1967
  23   2.0000      -6.030198      -164.0900
  24   2.0000      -1.009174       -27.4610
  25   2.0000      -0.986021       -26.8310
  26   2.0000      -0.915043       -24.8996
  27   2.0000      -0.909189       -24.7403
  28   2.0000      -0.872006       -23.7285
  29   2.0000      -0.854059       -23.2401
  30   2.0000      -0.842894       -22.9363
  31   2.0000      -0.810666       -22.0594
  32   2.0000      -0.780481       -21.2380
  33   2.0000      -0.768866       -20.9219
  34   2.0000      -0.706046       -19.2125
  35   2.0000      -0.693749       -18.8779
  36   2.0000      -0.684792       -18.6341
  37   2.0000      -0.670447       -18.2438
  38   2.0000      -0.628609       -17.1053
  39   2.0000      -0.618401       -16.8276
  40   2.0000      -0.601356       -16.3637
  41   2.0000      -0.574330       -15.6283
  42   2.0000      -0.561917       -15.2905
  43   2.0000      -0.553523       -15.0621
  44   2.0000      -0.542680       -14.7671
  45   2.0000      -0.528345       -14.3770
  46   2.0000      -0.514293       -13.9946
  47   2.0000      -0.509514       -13.8646
  48   2.0000      -0.504449       -13.7268
  49   2.0000      -0.495931       -13.4950
  50   2.0000      -0.487246       -13.2586
  51   2.0000      -0.472582       -12.8596
  52   2.0000      -0.469019       -12.7626
  53   2.0000      -0.468382       -12.7453
  54   2.0000      -0.460480       -12.5303
  55   2.0000      -0.446871       -12.1600
  56   2.0000      -0.441026       -12.0009
  57   2.0000      -0.438705       -11.9378
  58   2.0000      -0.433025       -11.7832
  59   2.0000      -0.429421       -11.6852
  60   2.0000      -0.421321       -11.4647
  61   2.0000      -0.413278       -11.2459
  62   2.0000      -0.408526       -11.1166
  63   2.0000      -0.359773        -9.7899
  64   2.0000      -0.335649        -9.1335
  65   2.0000      -0.329489        -8.9659
  66   2.0000      -0.279571        -7.6075
  67   0.0000       0.023037         0.6269
  68   0.0000       0.084161         2.2901
  69   0.0000       0.108105         2.9417
  70   0.0000       0.118880         3.2349
  71   0.0000       0.130550         3.5525

MULLIKEN ATOMIC CHARGES
-----------------------
   0 S :    0.095691
   1 C :   -0.143169
   2 C :   -0.054718
   3 C :   -0.056922
   4 C :   -0.097188
   5 H :    0.034513
   6 C :    0.024946
   7 H :    0.041337
   8 H :    0.027227
   9 C :   -0.051011
  10 H :    0.030192
  11 H :    0.046878
  12 C :   -0.024317
  13 H :    0.014863
  14 H :    0.018135
  15 H :    0.028264
  16 S :    0.098728
  17 C :   -0.095417
  18 C :   -0.022611
  19 C :   -0.093710
  20 C :   -0.127666
  21 H :    0.028493
  22 C :    0.102456
  23 H :    0.011793
  24 H :    0.026218
  25 C :   -0.091011
  26 H :    0.043069
  27 H :    0.032167
  28 C :   -0.078342
  29 H :    0.042996
  30 H :    0.050113
  31 H :    0.028557
  32 H :    0.054765
  33 H :    0.054680
Sum of atomic charges:   -0.0000000

LOEWDIN ATOMIC CHARGES
----------------------
   0 S :    0.411235
   1 C :   -0.208221
   2 C :   -0.063995
   3 C :   -0.091572
   4 C :   -0.190472
   5 H :    0.030678
   6 C :   -0.030618
   7 H :    0.036450
   8 H :    0.033074
   9 C :   -0.036703
  10 H :    0.021101
  11 H :    0.036641
  12 C :   -0.065013
  13 H :    0.014961
  14 H :    0.032653
  15 H :    0.022767
  16 S :    0.431058
  17 C :   -0.186439
  18 C :   -0.073754
  19 C :   -0.048279
  20 C :   -0.201101
  21 H :    0.037228
  22 C :   -0.026371
  23 H :    0.023275
  24 H :    0.020379
  25 C :   -0.047069
  26 H :    0.033830
  27 H :    0.017277
  28 C :   -0.072675
  29 H :    0.032750
  30 H :    0.029159
  31 H :    0.022132
  32 H :    0.033015
  33 H :    0.022619

  Mayer bond orders larger than 0.100000
B(  0-S ,  1-C ) :   1.1282 B(  0-S ,  4-C ) :   1.1374 B(  1-C ,  2-C ) :   1.6118
B(  1-C , 32-H ) :   0.9645 B(  2-C ,  3-C ) :   1.2435 B(  2-C ,  6-C ) :   1.0114
B(  3-C ,  4-C ) :   1.5856 B(  3-C ,  5-H ) :   0.9684 B(  4-C , 20-C ) :   1.0754
B(  6-C ,  7-H ) :   0.9342 B(  6-C ,  8-H ) :   0.9504 B(  6-C ,  9-C ) :   1.0659
B(  9-C , 10-H ) :   0.9462 B(  9-C , 11-H ) :   0.9550 B(  9-C , 12-C ) :   1.0966
B( 12-C , 13-H ) :   0.9702 B( 12-C , 14-H ) :   0.9688 B( 12-C , 15-H ) :   0.9716
B( 16-S , 17-C ) :   1.1801 B( 16-S , 20-C ) :   1.1549 B( 17-C , 18-C ) :   1.5710
B( 17-C , 20-C ) :   0.1003 B( 17-C , 33-H ) :   0.9691 B( 18-C , 19-C ) :   1.2647
B( 18-C , 21-H ) :   0.9932 B( 19-C , 20-C ) :   1.5377 B( 19-C , 22-C ) :   1.0463
B( 22-C , 23-H ) :   0.9429 B( 22-C , 24-H ) :   0.9316 B( 22-C , 25-C ) :   1.0419
B( 25-C , 26-H ) :   0.9577 B( 25-C , 27-H ) :   0.9567 B( 25-C , 28-C ) :   1.0808
B( 28-C , 29-H ) :   0.9738 B( 28-C , 30-H ) :   0.9719 B( 28-C , 31-H ) :   0.9769

Dispersion correction           -0.013978517
FINAL SINGLE POINT ENERGY     -1339.881794612032

DIPOLE MOMENT
-------------
                                X             Y             Z
Electronic contribution:      4.33835      -6.56556      -1.06525
Nuclear contribution   :     -4.42126       6.51346       1.18505
                        -----------------------------------------
Total Dipole Moment    :     -0.08291      -0.05209       0.11980
                        -----------------------------------------
Magnitude (a.u.)       :      0.15473
Magnitude (Debye)      :      0.39328

Rotational constants in cm-1:     0.025955     0.007337     0.005937
Rotational constants in MHz :   778.110318   219.954034   178.000859

                             ****ORCA TERMINATED NORMALLY****
TOTAL RUN TIME: 0 days 0 hours 0 minutes 31 seconds 499 msec
