                         Program Version 4.2.1 -  RELEASE  -
|  1> ! wB97X-D3 SP def2-SVP
|  2> %pal
|  3> nprocs 16
|  4> end
|  5>
|  6> * xyz 0 1
|  7> S 	 55.2802 	 7.52802 	 64.7738
|  8> C 	 54.7835 	 8.9394 	 65.6193
|  9> C 	 53.8246 	 9.66377 	 64.9396
| 10> C 	 53.5641 	 9.08991 	 63.6861
| 11> C 	 54.381 	 8.06811 	 63.3868
| 12> H 	 52.9123 	 9.45377 	 62.8901
| 13> C 	 52.9974 	 10.8826 	 65.4388
| 14> H 	 53.0985 	 10.8627 	 66.5531
| 15> H 	 51.9257 	 10.6709 	 65.4049
| 16> C 	 53.3361 	 12.3264 	 65.0399
| 17> H 	 54.3712 	 12.606 	 65.2979
| 18> H 	 53.1444 	 12.348 	 64.0119
| 19> C 	 52.3441 	 13.3463 	 65.7008
| 20> H 	 51.3227 	 13.1921 	 65.3214
| 21> H 	 52.2298 	 13.2617 	 66.789
| 22> H 	 52.6359 	 14.3958 	 65.5857
| 23> S 	 53.3023 	 5.77586 	 62.5739
| 24> C 	 53.2349 	 5.39857 	 60.9102
| 25> C 	 53.8349 	 6.38276 	 60.1183
| 26> C 	 54.4341 	 7.41157 	 60.9164
| 27> C 	 54.2054 	 7.22703 	 62.2653
| 28> H 	 53.6792 	 6.40453 	 59.0415
| 29> C 	 54.9394 	 8.70207 	 60.321
| 30> H 	 55.4374 	 8.55253 	 59.3356
| 31> H 	 55.5743 	 9.21956 	 61.1036
| 32> C 	 53.7878 	 9.62734 	 59.9006
| 33> H 	 53.0766 	 9.53902 	 60.711
| 34> H 	 53.2451 	 9.18422 	 59.0533
| 35> C 	 54.2114 	 11.0241 	 59.4158
| 36> H 	 53.362 	 11.5636 	 58.8909
| 37> H 	 55.029 	 10.9686 	 58.6938
| 38> H 	 54.6032 	 11.6508 	 60.2132
| 39> H 	 55.1035 	 9.12363 	 66.6167
| 40> H 	 52.5785 	 4.6708 	 60.5535
| 41> *
| 42>
| 43>                          ****END OF INPUT****

CARTESIAN COORDINATES (ANGSTROEM)
---------------------------------
  S     55.280200    7.528020   64.773800
  C     54.783500    8.939400   65.619300
  C     53.824600    9.663770   64.939600
  C     53.564100    9.089910   63.686100
  C     54.381000    8.068110   63.386800
  H     52.912300    9.453770   62.890100
  C     52.997400   10.882600   65.438800
  H     53.098500   10.862700   66.553100
  H     51.925700   10.670900   65.404900
  C     53.336100   12.326400   65.039900
  H     54.371200   12.606000   65.297900
  H     53.144400   12.348000   64.011900
  C     52.344100   13.346300   65.700800
  H     51.322700   13.192100   65.321400
  H     52.229800   13.261700   66.789000
  H     52.635900   14.395800   65.585700
  S     53.302300    5.775860   62.573900
  C     53.234900    5.398570   60.910200
  C     53.834900    6.382760   60.118300
  C     54.434100    7.411570   60.916400
  C     54.205400    7.227030   62.265300
  H     53.679200    6.404530   59.041500
  C     54.939400    8.702070   60.321000
  H     55.437400    8.552530   59.335600
  H     55.574300    9.219560   61.103600
  C     53.787800    9.627340   59.900600
  H     53.076600    9.539020   60.711000
  H     53.245100    9.184220   59.053300
  C     54.211400   11.024100   59.415800
  H     53.362000   11.563600   58.890900
  H     55.029000   10.968600   58.693800
  H     54.603200   11.650800   60.213200
  H     55.103500    9.123630   66.616700
  H     52.578500    4.670800   60.553500

 Total Charge           Charge          ....    0
 Multiplicity           Mult            ....    1
 Number of Electrons    NEL             ....  134
 Basis Dimension        Dim             ....  322

ORBITAL ENERGIES
----------------

  NO   OCC          E(Eh)            E(eV)
   0   2.0000     -88.966383     -2420.8984
   1   2.0000     -88.962588     -2420.7951
   2   2.0000     -10.316161      -280.7170
   3   2.0000     -10.315811      -280.7075
   4   2.0000     -10.312215      -280.6096
   5   2.0000     -10.310000      -280.5494
   6   2.0000     -10.302367      -280.3417
   7   2.0000     -10.300724      -280.2970
   8   2.0000     -10.296750      -280.1888
   9   2.0000     -10.294935      -280.1394
  10   2.0000     -10.294884      -280.1380
  11   2.0000     -10.290006      -280.0053
  12   2.0000     -10.287516      -279.9375
  13   2.0000     -10.286211      -279.9020
  14   2.0000     -10.285058      -279.8707
  15   2.0000     -10.283837      -279.8374
  16   2.0000      -8.082207      -219.9280
  17   2.0000      -8.078646      -219.8311
  18   2.0000      -6.040517      -164.3708
  19   2.0000      -6.036934      -164.2733
  20   2.0000      -6.036686      -164.2666
  21   2.0000      -6.032984      -164.1658
  22   2.0000      -6.032941      -164.1647
  23   2.0000      -6.029578      -164.0732
  24   2.0000      -1.019069       -27.7303
  25   2.0000      -0.990525       -26.9536
  26   2.0000      -0.910989       -24.7893
  27   2.0000      -0.906996       -24.6806
  28   2.0000      -0.876112       -23.8402
  29   2.0000      -0.854546       -23.2534
  30   2.0000      -0.849284       -23.1102
  31   2.0000      -0.811691       -22.0872
  32   2.0000      -0.781430       -21.2638
  33   2.0000      -0.770748       -20.9731
  34   2.0000      -0.707497       -19.2520
  35   2.0000      -0.701678       -19.0936
  36   2.0000      -0.694915       -18.9096
  37   2.0000      -0.665896       -18.1200
  38   2.0000      -0.651689       -17.7334
  39   2.0000      -0.619936       -16.8693
  40   2.0000      -0.596733       -16.2379
  41   2.0000      -0.571105       -15.5406
  42   2.0000      -0.568131       -15.4596
  43   2.0000      -0.556370       -15.1396
  44   2.0000      -0.527382       -14.3508
  45   2.0000      -0.517508       -14.0821
  46   2.0000      -0.516373       -14.0512
  47   2.0000      -0.511718       -13.9245
  48   2.0000      -0.503858       -13.7107
  49   2.0000      -0.498919       -13.5763
  50   2.0000      -0.492691       -13.4068
  51   2.0000      -0.481871       -13.1124
  52   2.0000      -0.472040       -12.8449
  53   2.0000      -0.467405       -12.7187
  54   2.0000      -0.461181       -12.5494
  55   2.0000      -0.451021       -12.2729
  56   2.0000      -0.444151       -12.0860
  57   2.0000      -0.440850       -11.9961
  58   2.0000      -0.432398       -11.7662
  59   2.0000      -0.427177       -11.6241
  60   2.0000      -0.425674       -11.5832
  61   2.0000      -0.415203       -11.2982
  62   2.0000      -0.412019       -11.2116
  63   2.0000      -0.345381        -9.3983
  64   2.0000      -0.327999        -8.9253
  65   2.0000      -0.327506        -8.9119
  66   2.0000      -0.301182        -8.1956
  67   0.0000       0.042095         1.1455
  68   0.0000       0.057216         1.5569
  69   0.0000       0.115272         3.1367
  70   0.0000       0.123775         3.3681
  71   0.0000       0.128718         3.5026

MULLIKEN ATOMIC CHARGES
-----------------------
   0 S :    0.119711
   1 C :   -0.105441
   2 C :   -0.042334
   3 C :    0.030648
   4 C :   -0.167870
   5 H :    0.017318
   6 C :    0.005812
   7 H :    0.007096
   8 H :    0.032284
   9 C :   -0.003666
  10 H :    0.040384
  11 H :    0.020510
  12 C :   -0.083219
  13 H :    0.031985
  14 H :    0.026119
  15 H :    0.039998
  16 S :    0.122697
  17 C :   -0.073331
  18 C :   -0.052746
  19 C :   -0.012551
  20 C :   -0.187873
  21 H :    0.026134
  22 C :    0.036702
  23 H :    0.027294
  24 H :    0.050021
  25 C :   -0.080696
  26 H :    0.011800
  27 H :    0.020514
  28 C :   -0.039832
  29 H :    0.046917
  30 H :    0.025895
  31 H :    0.034697
  32 H :    0.034379
  33 H :    0.040645
Sum of atomic charges:    0.0000000

LOEWDIN ATOMIC CHARGES
----------------------
   0 S :    0.424856
   1 C :   -0.190635
   2 C :   -0.065234
   3 C :   -0.054591
   4 C :   -0.210358
   5 H :    0.034301
   6 C :   -0.041542
   7 H :    0.028983
   8 H :    0.033130
   9 C :   -0.030606
  10 H :    0.029736
  11 H :    0.016787
  12 C :   -0.071319
  13 H :    0.026309
  14 H :    0.023268
  15 H :    0.028315
  16 S :    0.433369
  17 C :   -0.190412
  18 C :   -0.070141
  19 C :   -0.057058
  20 C :   -0.210266
  21 H :    0.032397
  22 C :   -0.036305
  23 H :    0.033448
  24 H :    0.038527
  25 C :   -0.045037
  26 H :    0.014125
  27 H :    0.023676
  28 C :   -0.068701
  29 H :    0.035747
  30 H :    0.025514
  31 H :    0.023951
  32 H :    0.020124
  33 H :    0.015644

  Mayer bond orders larger than 0.100000
B(  0-S ,  1-C ) :   1.1572 B(  0-S ,  4-C ) :   1.1473 B(  1-C ,  2-C ) :   1.6077
B(  1-C , 32-H ) :   0.9710 B(  2-C ,  3-C ) :   1.2416 B(  2-C ,  6-C ) :   1.0083
B(  3-C ,  4-C ) :   1.5928 B(  3-C ,  5-H ) :   0.9909 B(  4-C , 20-C ) :   1.0222
B(  6-C ,  7-H ) :   0.9386 B(  6-C ,  8-H ) :   0.9484 B(  6-C ,  9-C ) :   1.0578
B(  9-C , 10-H ) :   0.9572 B(  9-C , 11-H ) :   0.9569 B(  9-C , 12-C ) :   1.0710
B( 12-C , 13-H ) :   0.9760 B( 12-C , 14-H ) :   0.9777 B( 12-C , 15-H ) :   0.9763
B( 16-S , 17-C ) :   1.1762 B( 16-S , 20-C ) :   1.1610 B( 17-C , 18-C ) :   1.5935
B( 17-C , 33-H ) :   0.9737 B( 18-C , 19-C ) :   1.2364 B( 18-C , 21-H ) :   0.9897
B( 19-C , 20-C ) :   1.5965 B( 19-C , 22-C ) :   1.0783 B( 22-C , 23-H ) :   0.9281
B( 22-C , 24-H ) :   0.9329 B( 22-C , 25-C ) :   1.0565 B( 25-C , 26-H ) :   0.9544
B( 25-C , 27-H ) :   0.9507 B( 25-C , 28-C ) :   1.0736 B( 28-C , 29-H ) :   0.9745
B( 28-C , 30-H ) :   0.9696 B( 28-C , 31-H ) :   0.9760

Dispersion correction           -0.014249093
FINAL SINGLE POINT ENERGY     -1339.875033588678

DIPOLE MOMENT
-------------
                                X             Y             Z
Electronic contribution:      6.68171     -30.33057       6.17270
Nuclear contribution   :     -7.10688      30.90968      -6.34369
                        -----------------------------------------
Total Dipole Moment    :     -0.42517       0.57911      -0.17100
                        -----------------------------------------
Magnitude (a.u.)       :      0.73850
Magnitude (Debye)      :      1.87711

Rotational constants in cm-1:     0.017413     0.009132     0.006786
Rotational constants in MHz :   522.041412   273.780772   203.450278

                             ****ORCA TERMINATED NORMALLY****
TOTAL RUN TIME: 0 days 0 hours 0 minutes 30 seconds 337 msec
