                         Program Version 4.2.1 -  RELEASE  -
|  1> ! wB97X-D3 SP def2-SVP
|  2> %pal
|  3> nprocs 16
|  4> end
|  5>
|  6> * xyz 0 1
|  7> S 	 -8.22457 	 75.6234 	 43.9373
|  8> C 	 -8.0411 	 76.8144 	 45.1201
|  9> C 	 -7.48786 	 76.3195 	 46.3079
| 10> C 	 -7.19983 	 74.9132 	 46.1137
| 11> C 	 -7.56137 	 74.3407 	 44.8607
| 12> H 	 -6.75257 	 74.2221 	 46.8603
| 13> C 	 -7.28625 	 77.1657 	 47.5563
| 14> H 	 -7.0382 	 76.5071 	 48.4006
| 15> H 	 -8.2518 	 77.602 	 47.8358
| 16> C 	 -6.3512 	 78.3139 	 47.3737
| 17> H 	 -5.40186 	 78.0079 	 46.9096
| 18> H 	 -6.84336 	 78.9923 	 46.5797
| 19> C 	 -6.10583 	 79.1451 	 48.6671
| 20> H 	 -5.90039 	 78.5239 	 49.5527
| 21> H 	 -5.22117 	 79.8063 	 48.5932
| 22> H 	 -6.9425 	 79.8247 	 48.8989
| 23> S 	 -7.68012 	 71.7473 	 45.4787
| 24> C 	 -7.51743 	 70.5325 	 44.2064
| 25> C 	 -7.03942 	 71.0871 	 43.0355
| 26> C 	 -7.06442 	 72.5104 	 43.084
| 27> C 	 -7.36021 	 73.0127 	 44.355
| 28> H 	 -6.77581 	 70.5141 	 42.1376
| 29> C 	 -6.67461 	 73.2826 	 41.875
| 30> H 	 -5.59594 	 73.2924 	 41.9635
| 31> H 	 -7.06295 	 74.2963 	 41.9243
| 32> C 	 -7.1466 	 72.7823 	 40.4802
| 33> H 	 -8.20426 	 72.4967 	 40.3839
| 34> H 	 -6.51647 	 71.873 	 40.2832
| 35> C 	 -6.92161 	 73.8681 	 39.4225
| 36> H 	 -7.07438 	 73.5751 	 38.3864
| 37> H 	 -5.83585 	 74.0896 	 39.4207
| 38> H 	 -7.42111 	 74.86 	 39.5895
| 39> H 	 -8.41319 	 77.852 	 44.983
| 40> H 	 -7.61713 	 69.5025 	 44.2767
| 41> *
| 42>
| 43>                          ****END OF INPUT****

CARTESIAN COORDINATES (ANGSTROEM)
---------------------------------
  S     -8.224570   75.623400   43.937300
  C     -8.041100   76.814400   45.120100
  C     -7.487860   76.319500   46.307900
  C     -7.199830   74.913200   46.113700
  C     -7.561370   74.340700   44.860700
  H     -6.752570   74.222100   46.860300
  C     -7.286250   77.165700   47.556300
  H     -7.038200   76.507100   48.400600
  H     -8.251800   77.602000   47.835800
  C     -6.351200   78.313900   47.373700
  H     -5.401860   78.007900   46.909600
  H     -6.843360   78.992300   46.579700
  C     -6.105830   79.145100   48.667100
  H     -5.900390   78.523900   49.552700
  H     -5.221170   79.806300   48.593200
  H     -6.942500   79.824700   48.898900
  S     -7.680120   71.747300   45.478700
  C     -7.517430   70.532500   44.206400
  C     -7.039420   71.087100   43.035500
  C     -7.064420   72.510400   43.084000
  C     -7.360210   73.012700   44.355000
  H     -6.775810   70.514100   42.137600
  C     -6.674610   73.282600   41.875000
  H     -5.595940   73.292400   41.963500
  H     -7.062950   74.296300   41.924300
  C     -7.146600   72.782300   40.480200
  H     -8.204260   72.496700   40.383900
  H     -6.516470   71.873000   40.283200
  C     -6.921610   73.868100   39.422500
  H     -7.074380   73.575100   38.386400
  H     -5.835850   74.089600   39.420700
  H     -7.421110   74.860000   39.589500
  H     -8.413190   77.852000   44.983000
  H     -7.617130   69.502500   44.276700

 Total Charge           Charge          ....    0
 Multiplicity           Mult            ....    1
 Number of Electrons    NEL             ....  134
 Basis Dimension        Dim             ....  322

ORBITAL ENERGIES
----------------

  NO   OCC          E(Eh)            E(eV)
   0   2.0000     -88.967099     -2420.9178
   1   2.0000     -88.965766     -2420.8816
   2   2.0000     -10.328223      -281.0452
   3   2.0000     -10.324978      -280.9569
   4   2.0000     -10.314285      -280.6660
   5   2.0000     -10.312435      -280.6156
   6   2.0000     -10.305320      -280.4220
   7   2.0000     -10.301229      -280.3107
   8   2.0000     -10.300094      -280.2798
   9   2.0000     -10.294779      -280.1352
  10   2.0000     -10.294169      -280.1186
  11   2.0000     -10.294076      -280.1160
  12   2.0000     -10.293210      -280.0925
  13   2.0000     -10.287680      -279.9420
  14   2.0000     -10.284627      -279.8589
  15   2.0000     -10.282017      -279.7879
  16   2.0000      -8.081858      -219.9185
  17   2.0000      -8.081552      -219.9102
  18   2.0000      -6.040528      -164.3711
  19   2.0000      -6.039891      -164.3538
  20   2.0000      -6.036345      -164.2573
  21   2.0000      -6.035588      -164.2367
  22   2.0000      -6.032765      -164.1599
  23   2.0000      -6.032471      -164.1519
  24   2.0000      -1.011496       -27.5242
  25   2.0000      -0.988117       -26.8880
  26   2.0000      -0.914394       -24.8819
  27   2.0000      -0.910566       -24.7778
  28   2.0000      -0.872953       -23.7543
  29   2.0000      -0.852954       -23.2101
  30   2.0000      -0.842528       -22.9264
  31   2.0000      -0.811838       -22.0912
  32   2.0000      -0.782995       -21.3064
  33   2.0000      -0.768152       -20.9025
  34   2.0000      -0.705490       -19.1974
  35   2.0000      -0.699990       -19.0477
  36   2.0000      -0.697073       -18.9683
  37   2.0000      -0.664171       -18.0730
  38   2.0000      -0.637953       -17.3596
  39   2.0000      -0.611245       -16.6328
  40   2.0000      -0.597753       -16.2657
  41   2.0000      -0.574863       -15.6428
  42   2.0000      -0.567951       -15.4547
  43   2.0000      -0.558744       -15.2042
  44   2.0000      -0.525904       -14.3106
  45   2.0000      -0.522486       -14.2176
  46   2.0000      -0.517979       -14.0949
  47   2.0000      -0.514865       -14.0102
  48   2.0000      -0.506058       -13.7705
  49   2.0000      -0.496215       -13.5027
  50   2.0000      -0.493441       -13.4272
  51   2.0000      -0.476886       -12.9767
  52   2.0000      -0.471520       -12.8307
  53   2.0000      -0.464093       -12.6286
  54   2.0000      -0.462586       -12.5876
  55   2.0000      -0.454985       -12.3808
  56   2.0000      -0.442215       -12.0333
  57   2.0000      -0.438576       -11.9343
  58   2.0000      -0.431324       -11.7369
  59   2.0000      -0.426856       -11.6153
  60   2.0000      -0.420386       -11.4393
  61   2.0000      -0.414286       -11.2733
  62   2.0000      -0.406193       -11.0531
  63   2.0000      -0.356936        -9.7127
  64   2.0000      -0.329280        -8.9602
  65   2.0000      -0.327864        -8.9216
  66   2.0000      -0.281393        -7.6571
  67   0.0000       0.027179         0.7396
  68   0.0000       0.078226         2.1286
  69   0.0000       0.107885         2.9357
  70   0.0000       0.128067         3.4849
  71   0.0000       0.133812         3.6412

MULLIKEN ATOMIC CHARGES
-----------------------
   0 S :    0.126046
   1 C :   -0.149712
   2 C :   -0.079940
   3 C :   -0.009102
   4 C :   -0.154102
   5 H :    0.018446
   6 C :    0.095558
   7 H :    0.019957
   8 H :    0.029562
   9 C :   -0.114886
  10 H :    0.039395
  11 H :    0.035482
  12 C :   -0.055329
  13 H :    0.034174
  14 H :    0.036820
  15 H :    0.036540
  16 S :    0.109581
  17 C :   -0.051269
  18 C :   -0.046040
  19 C :   -0.058876
  20 C :   -0.125703
  21 H :    0.030085
  22 C :    0.051984
  23 H :    0.049294
  24 H :    0.015877
  25 C :   -0.096738
  26 H :    0.045238
  27 H :    0.036336
  28 C :   -0.064993
  29 H :    0.032802
  30 H :    0.020492
  31 H :    0.049111
  32 H :    0.066204
  33 H :    0.027707
Sum of atomic charges:   -0.0000000

LOEWDIN ATOMIC CHARGES
----------------------
   0 S :    0.464959
   1 C :   -0.225803
   2 C :   -0.063782
   3 C :   -0.078293
   4 C :   -0.216202
   5 H :    0.028294
   6 C :   -0.035813
   7 H :    0.029832
   8 H :    0.035129
   9 C :   -0.047103
  10 H :    0.025573
  11 H :    0.030853
  12 C :   -0.073153
  13 H :    0.026055
  14 H :    0.030324
  15 H :    0.027385
  16 S :    0.420505
  17 C :   -0.168165
  18 C :   -0.066764
  19 C :   -0.057758
  20 C :   -0.211350
  21 H :    0.036176
  22 C :   -0.037398
  23 H :    0.041187
  24 H :    0.016332
  25 C :   -0.043231
  26 H :    0.028086
  27 H :    0.025665
  28 C :   -0.075861
  29 H :    0.025055
  30 H :    0.026294
  31 H :    0.032369
  32 H :    0.034691
  33 H :    0.015914

  Mayer bond orders larger than 0.100000
B(  0-S ,  1-C ) :   1.1890 B(  0-S ,  4-C ) :   1.1784 B(  1-C ,  2-C ) :   1.5401
B(  1-C ,  4-C ) :   0.1011 B(  1-C , 32-H ) :   0.9635 B(  2-C ,  3-C ) :   1.3039
B(  2-C ,  6-C ) :   1.0221 B(  3-C ,  4-C ) :   1.5066 B(  3-C ,  5-H ) :   0.9839
B(  4-C , 20-C ) :   1.0698 B(  6-C ,  7-H ) :   0.9406 B(  6-C ,  8-H ) :   0.9358
B(  6-C ,  9-C ) :   1.0599 B(  9-C , 10-H ) :   0.9610 B(  9-C , 11-H ) :   0.9529
B(  9-C , 12-C ) :   1.0725 B( 12-C , 13-H ) :   0.9760 B( 12-C , 14-H ) :   0.9764
B( 12-C , 15-H ) :   0.9751 B( 16-S , 17-C ) :   1.1531 B( 16-S , 20-C ) :   1.1348
B( 17-C , 18-C ) :   1.6069 B( 17-C , 33-H ) :   0.9732 B( 18-C , 19-C ) :   1.2492
B( 18-C , 21-H ) :   0.9820 B( 19-C , 20-C ) :   1.5705 B( 19-C , 22-C ) :   1.0437
B( 22-C , 23-H ) :   0.9234 B( 22-C , 24-H ) :   0.9365 B( 22-C , 25-C ) :   1.0525
B( 25-C , 26-H ) :   0.9637 B( 25-C , 27-H ) :   0.9468 B( 25-C , 28-C ) :   1.0882
B( 28-C , 29-H ) :   0.9740 B( 28-C , 30-H ) :   0.9703 B( 28-C , 31-H ) :   0.9728

Dispersion correction           -0.013296917
FINAL SINGLE POINT ENERGY     -1339.884784991435

DIPOLE MOMENT
-------------
                                X             Y             Z
Electronic contribution:     -8.08713     -15.44175       3.82752
Nuclear contribution   :      8.30318      15.59474      -3.97042
                        -----------------------------------------
Total Dipole Moment    :      0.21605       0.15299      -0.14290
                        -----------------------------------------
Magnitude (a.u.)       :      0.30084
Magnitude (Debye)      :      0.76466

Rotational constants in cm-1:     0.022618     0.006970     0.005656
Rotational constants in MHz :   678.072342   208.968315   169.559573

                             ****ORCA TERMINATED NORMALLY****
TOTAL RUN TIME: 0 days 0 hours 0 minutes 32 seconds 511 msec
