                         Program Version 4.2.1 -  RELEASE  -
|  1> ! wB97X-D3 SP def2-SVP
|  2> %pal
|  3> nprocs 16
|  4> end
|  5>
|  6> * xyz 0 1
|  7> S 	 -50.1419 	 32.9238 	 91.2863
|  8> C 	 -50.4624 	 31.2667 	 90.934
|  9> C 	 -51.1034 	 30.6165 	 91.937
| 10> C 	 -51.4733 	 31.5207 	 93.011
| 11> C 	 -51.0291 	 32.8553 	 92.7928
| 12> H 	 -51.8578 	 31.2418 	 93.9758
| 13> C 	 -51.4951 	 29.1158 	 91.9621
| 14> H 	 -50.9585 	 28.4794 	 92.6827
| 15> H 	 -50.9153 	 28.8422 	 91.0759
| 16> C 	 -52.9428 	 28.6166 	 91.6756
| 17> H 	 -53.3267 	 29.0218 	 90.8202
| 18> H 	 -52.7753 	 27.5532 	 91.4286
| 19> C 	 -53.8591 	 28.836 	 92.875
| 20> H 	 -53.8951 	 29.7941 	 93.334
| 21> H 	 -54.8911 	 28.5909 	 92.6928
| 22> H 	 -53.5955 	 28.1575 	 93.723
| 23> S 	 -51.4768 	 35.4768 	 93.0879
| 24> C 	 -51.3393 	 36.3133 	 94.6402
| 25> C 	 -51.0492 	 35.4165 	 95.6538
| 26> C 	 -50.7893 	 34.0668 	 95.1544
| 27> C 	 -50.9882 	 33.9691 	 93.7327
| 28> H 	 -50.9462 	 35.8739 	 96.7029
| 29> C 	 -50.4301 	 32.9484 	 96.1359
| 30> H 	 -49.5463 	 33.4036 	 96.6779
| 31> H 	 -49.9532 	 32.0948 	 95.552
| 32> C 	 -51.5113 	 32.3268 	 96.9248
| 33> H 	 -51.1799 	 31.3181 	 97.3183
| 34> H 	 -52.3717 	 32.1556 	 96.2315
| 35> C 	 -51.9116 	 33.1309 	 98.0934
| 36> H 	 -52.6142 	 32.5169 	 98.721
| 37> H 	 -52.4458 	 33.9914 	 97.8483
| 38> H 	 -51.2682 	 33.328 	 98.8871
| 39> H 	 -50.0951 	 30.8031 	 90.0212
| 40> H 	 -51.5513 	 37.3887 	 94.8134
| 41> *
| 42>
| 43>                          ****END OF INPUT****

CARTESIAN COORDINATES (ANGSTROEM)
---------------------------------
  S    -50.141900   32.923800   91.286300
  C    -50.462400   31.266700   90.934000
  C    -51.103400   30.616500   91.937000
  C    -51.473300   31.520700   93.011000
  C    -51.029100   32.855300   92.792800
  H    -51.857800   31.241800   93.975800
  C    -51.495100   29.115800   91.962100
  H    -50.958500   28.479400   92.682700
  H    -50.915300   28.842200   91.075900
  C    -52.942800   28.616600   91.675600
  H    -53.326700   29.021800   90.820200
  H    -52.775300   27.553200   91.428600
  C    -53.859100   28.836000   92.875000
  H    -53.895100   29.794100   93.334000
  H    -54.891100   28.590900   92.692800
  H    -53.595500   28.157500   93.723000
  S    -51.476800   35.476800   93.087900
  C    -51.339300   36.313300   94.640200
  C    -51.049200   35.416500   95.653800
  C    -50.789300   34.066800   95.154400
  C    -50.988200   33.969100   93.732700
  H    -50.946200   35.873900   96.702900
  C    -50.430100   32.948400   96.135900
  H    -49.546300   33.403600   96.677900
  H    -49.953200   32.094800   95.552000
  C    -51.511300   32.326800   96.924800
  H    -51.179900   31.318100   97.318300
  H    -52.371700   32.155600   96.231500
  C    -51.911600   33.130900   98.093400
  H    -52.614200   32.516900   98.721000
  H    -52.445800   33.991400   97.848300
  H    -51.268200   33.328000   98.887100
  H    -50.095100   30.803100   90.021200
  H    -51.551300   37.388700   94.813400

 Total Charge           Charge          ....    0
 Multiplicity           Mult            ....    1
 Number of Electrons    NEL             ....  134
 Basis Dimension        Dim             ....  322

ORBITAL ENERGIES
----------------

  NO   OCC          E(Eh)            E(eV)
   0   2.0000     -88.966794     -2420.9095
   1   2.0000     -88.964955     -2420.8595
   2   2.0000     -10.333383      -281.1857
   3   2.0000     -10.331234      -281.1272
   4   2.0000     -10.320866      -280.8450
   5   2.0000     -10.314145      -280.6622
   6   2.0000     -10.313763      -280.6518
   7   2.0000     -10.304956      -280.4121
   8   2.0000     -10.304357      -280.3958
   9   2.0000     -10.298191      -280.2280
  10   2.0000     -10.295802      -280.1630
  11   2.0000     -10.293617      -280.1036
  12   2.0000     -10.290166      -280.0096
  13   2.0000     -10.287145      -279.9274
  14   2.0000     -10.273849      -279.5656
  15   2.0000     -10.265387      -279.3354
  16   2.0000      -8.082127      -219.9258
  17   2.0000      -8.080099      -219.8707
  18   2.0000      -6.040588      -164.3728
  19   2.0000      -6.038563      -164.3177
  20   2.0000      -6.036513      -164.2619
  21   2.0000      -6.034406      -164.2045
  22   2.0000      -6.032921      -164.1641
  23   2.0000      -6.031009      -164.1121
  24   2.0000      -1.005497       -27.3610
  25   2.0000      -0.982150       -26.7257
  26   2.0000      -0.918497       -24.9936
  27   2.0000      -0.907213       -24.6865
  28   2.0000      -0.871580       -23.7169
  29   2.0000      -0.848625       -23.0922
  30   2.0000      -0.843849       -22.9623
  31   2.0000      -0.815650       -22.1950
  32   2.0000      -0.786300       -21.3963
  33   2.0000      -0.774299       -21.0697
  34   2.0000      -0.711844       -19.3703
  35   2.0000      -0.704356       -19.1665
  36   2.0000      -0.686848       -18.6901
  37   2.0000      -0.658279       -17.9127
  38   2.0000      -0.638646       -17.3784
  39   2.0000      -0.615363       -16.7449
  40   2.0000      -0.592555       -16.1242
  41   2.0000      -0.573709       -15.6114
  42   2.0000      -0.553789       -15.0694
  43   2.0000      -0.547135       -14.8883
  44   2.0000      -0.538703       -14.6589
  45   2.0000      -0.536905       -14.6099
  46   2.0000      -0.517509       -14.0821
  47   2.0000      -0.510778       -13.8990
  48   2.0000      -0.504616       -13.7313
  49   2.0000      -0.501660       -13.6509
  50   2.0000      -0.493563       -13.4305
  51   2.0000      -0.486356       -13.2344
  52   2.0000      -0.477370       -12.9899
  53   2.0000      -0.465125       -12.6567
  54   2.0000      -0.461469       -12.5572
  55   2.0000      -0.440468       -11.9858
  56   2.0000      -0.439124       -11.9492
  57   2.0000      -0.436927       -11.8894
  58   2.0000      -0.428515       -11.6605
  59   2.0000      -0.420195       -11.4341
  60   2.0000      -0.415653       -11.3105
  61   2.0000      -0.410053       -11.1581
  62   2.0000      -0.405837       -11.0434
  63   2.0000      -0.351440        -9.5632
  64   2.0000      -0.332288        -9.0420
  65   2.0000      -0.326672        -8.8892
  66   2.0000      -0.291880        -7.9425
  67   0.0000       0.026599         0.7238
  68   0.0000       0.073859         2.0098
  69   0.0000       0.114106         3.1050
  70   0.0000       0.116153         3.1607
  71   0.0000       0.124215         3.3800

MULLIKEN ATOMIC CHARGES
-----------------------
   0 S :    0.116163
   1 C :   -0.119851
   2 C :   -0.090545
   3 C :    0.041118
   4 C :   -0.143303
   5 H :    0.002269
   6 C :    0.021011
   7 H :    0.040621
   8 H :   -0.000533
   9 C :    0.016973
  10 H :    0.006180
  11 H :    0.032064
  12 C :   -0.051317
  13 H :    0.029070
  14 H :    0.024202
  15 H :    0.020968
  16 S :    0.103806
  17 C :   -0.114134
  18 C :   -0.065522
  19 C :   -0.056777
  20 C :   -0.142497
  21 H :    0.056781
  22 C :    0.010027
  23 H :    0.042426
  24 H :    0.034183
  25 C :   -0.047710
  26 H :    0.035525
  27 H :    0.043119
  28 C :   -0.015942
  29 H :    0.013077
  30 H :    0.023352
  31 H :    0.011198
  32 H :    0.051542
  33 H :    0.072456
Sum of atomic charges:    0.0000000

LOEWDIN ATOMIC CHARGES
----------------------
   0 S :    0.420614
   1 C :   -0.200836
   2 C :   -0.066791
   3 C :   -0.058239
   4 C :   -0.200941
   5 H :    0.024257
   6 C :   -0.040704
   7 H :    0.034813
   8 H :    0.030616
   9 C :   -0.023606
  10 H :    0.012680
  11 H :    0.034016
  12 C :   -0.071498
  13 H :    0.021394
  14 H :    0.023401
  15 H :    0.028928
  16 S :    0.419175
  17 C :   -0.193771
  18 C :   -0.085233
  19 C :   -0.056465
  20 C :   -0.216673
  21 H :    0.049588
  22 C :   -0.049970
  23 H :    0.038853
  24 H :    0.037270
  25 C :   -0.047051
  26 H :    0.033172
  27 H :    0.033796
  28 C :   -0.068109
  29 H :    0.033489
  30 H :    0.017117
  31 H :    0.018578
  32 H :    0.029964
  33 H :    0.038169

  Mayer bond orders larger than 0.100000
B(  0-S ,  1-C ) :   1.1465 B(  0-S ,  4-C ) :   1.1636 B(  1-C ,  2-C ) :   1.6263
B(  1-C , 32-H ) :   0.9608 B(  2-C ,  3-C ) :   1.2422 B(  2-C ,  6-C ) :   1.0080
B(  3-C ,  4-C ) :   1.5540 B(  3-C ,  5-H ) :   0.9945 B(  4-C , 20-C ) :   1.0300
B(  6-C ,  7-H ) :   0.9438 B(  6-C ,  8-H ) :   0.9313 B(  6-C ,  9-C ) :   1.0722
B(  9-C , 10-H ) :   0.9553 B(  9-C , 11-H ) :   0.9513 B(  9-C , 12-C ) :   1.0756
B( 12-C , 13-H ) :   0.9760 B( 12-C , 14-H ) :   0.9735 B( 12-C , 15-H ) :   0.9745
B( 16-S , 17-C ) :   1.1531 B( 16-S , 20-C ) :   1.1644 B( 17-C , 18-C ) :   1.6177
B( 17-C , 33-H ) :   0.9623 B( 18-C , 19-C ) :   1.2418 B( 18-C , 21-H ) :   0.9723
B( 19-C , 20-C ) :   1.5579 B( 19-C , 22-C ) :   1.0400 B( 22-C , 23-H ) :   0.9386
B( 22-C , 24-H ) :   0.9339 B( 22-C , 25-C ) :   1.0670 B( 25-C , 26-H ) :   0.9523
B( 25-C , 27-H ) :   0.9401 B( 25-C , 28-C ) :   1.1024 B( 28-C , 29-H ) :   0.9618
B( 28-C , 30-H ) :   0.9687 B( 28-C , 31-H ) :   0.9698

Dispersion correction           -0.014433602
FINAL SINGLE POINT ENERGY     -1339.855127215372

DIPOLE MOMENT
-------------
                                X             Y             Z
Electronic contribution:      9.70016      21.51041     -17.00630
Nuclear contribution   :     -9.76917     -21.99208      17.44763
                        -----------------------------------------
Total Dipole Moment    :     -0.06901      -0.48167       0.44134
                        -----------------------------------------
Magnitude (a.u.)       :      0.65692
Magnitude (Debye)      :      1.66977

Rotational constants in cm-1:     0.017673     0.009138     0.006744
Rotational constants in MHz :   529.833675   273.956029   202.180729

                             ****ORCA TERMINATED NORMALLY****
TOTAL RUN TIME: 0 days 0 hours 0 minutes 30 seconds 37 msec
