                         Program Version 4.2.1 -  RELEASE  -
|  1> ! wB97X-D3 SP def2-SVP
|  2> %pal
|  3> nprocs 16
|  4> end
|  5>
|  6> * xyz 0 1
|  7> S 	 -94.9232 	 61.0679 	 123.794
|  8> C 	 -94.9803 	 60.2931 	 122.268
|  9> C 	 -96.0056 	 59.4414 	 122.213
| 10> C 	 -96.7812 	 59.4363 	 123.399
| 11> C 	 -96.2948 	 60.2974 	 124.398
| 12> H 	 -97.6782 	 58.8138 	 123.369
| 13> C 	 -96.3478 	 58.5661 	 121.018
| 14> H 	 -95.6804 	 59.1184 	 120.351
| 15> H 	 -97.3931 	 58.6897 	 120.727
| 16> C 	 -95.9012 	 57.1344 	 120.969
| 17> H 	 -94.8266 	 57.0268 	 121.106
| 18> H 	 -96.3128 	 56.5693 	 121.781
| 19> C 	 -96.2426 	 56.4495 	 119.605
| 20> H 	 -96.4605 	 57.1885 	 118.874
| 21> H 	 -95.4619 	 55.8312 	 119.225
| 22> H 	 -97.0623 	 55.835 	 119.947
| 23> S 	 -98.4263 	 59.7216 	 126.072
| 24> C 	 -98.4032 	 60.0567 	 127.78
| 25> C 	 -97.1886 	 60.7213 	 128.089
| 26> C 	 -96.332 	 60.901 	 126.945
| 27> C 	 -96.832 	 60.4332 	 125.775
| 28> H 	 -96.8938 	 60.9473 	 129.083
| 29> C 	 -94.9138 	 61.3767 	 127.066
| 30> H 	 -94.2595 	 60.664 	 126.566
| 31> H 	 -94.6949 	 61.0262 	 128.078
| 32> C 	 -94.5783 	 62.8923 	 126.903
| 33> H 	 -95.3016 	 63.447 	 127.429
| 34> H 	 -94.6831 	 63.1226 	 125.859
| 35> C 	 -93.1899 	 63.2779 	 127.29
| 36> H 	 -92.4007 	 62.8177 	 126.631
| 37> H 	 -92.9091 	 63.0377 	 128.331
| 38> H 	 -92.8494 	 64.2748 	 127.189
| 39> H 	 -94.1672 	 60.3539 	 121.59
| 40> H 	 -99.2048 	 59.7769 	 128.421
| 41> *
| 42>
| 43>                          ****END OF INPUT****

CARTESIAN COORDINATES (ANGSTROEM)
---------------------------------
  S    -94.923200   61.067900  123.794000
  C    -94.980300   60.293100  122.268000
  C    -96.005600   59.441400  122.213000
  C    -96.781200   59.436300  123.399000
  C    -96.294800   60.297400  124.398000
  H    -97.678200   58.813800  123.369000
  C    -96.347800   58.566100  121.018000
  H    -95.680400   59.118400  120.351000
  H    -97.393100   58.689700  120.727000
  C    -95.901200   57.134400  120.969000
  H    -94.826600   57.026800  121.106000
  H    -96.312800   56.569300  121.781000
  C    -96.242600   56.449500  119.605000
  H    -96.460500   57.188500  118.874000
  H    -95.461900   55.831200  119.225000
  H    -97.062300   55.835000  119.947000
  S    -98.426300   59.721600  126.072000
  C    -98.403200   60.056700  127.780000
  C    -97.188600   60.721300  128.089000
  C    -96.332000   60.901000  126.945000
  C    -96.832000   60.433200  125.775000
  H    -96.893800   60.947300  129.083000
  C    -94.913800   61.376700  127.066000
  H    -94.259500   60.664000  126.566000
  H    -94.694900   61.026200  128.078000
  C    -94.578300   62.892300  126.903000
  H    -95.301600   63.447000  127.429000
  H    -94.683100   63.122600  125.859000
  C    -93.189900   63.277900  127.290000
  H    -92.400700   62.817700  126.631000
  H    -92.909100   63.037700  128.331000
  H    -92.849400   64.274800  127.189000
  H    -94.167200   60.353900  121.590000
  H    -99.204800   59.776900  128.421000

 Total Charge           Charge          ....    0
 Multiplicity           Mult            ....    1
 Number of Electrons    NEL             ....  134
 Basis Dimension        Dim             ....  322

ORBITAL ENERGIES
----------------

  NO   OCC          E(Eh)            E(eV)
   0   2.0000     -88.967359     -2420.9249
   1   2.0000     -88.962733     -2420.7990
   2   2.0000     -10.334651      -281.2202
   3   2.0000     -10.328996      -281.0663
   4   2.0000     -10.323455      -280.9155
   5   2.0000     -10.304013      -280.3864
   6   2.0000     -10.300040      -280.2783
   7   2.0000     -10.298769      -280.2438
   8   2.0000     -10.291798      -280.0541
   9   2.0000     -10.290547      -280.0200
  10   2.0000     -10.289556      -279.9931
  11   2.0000     -10.288529      -279.9651
  12   2.0000     -10.281998      -279.7874
  13   2.0000     -10.281450      -279.7725
  14   2.0000     -10.274888      -279.5939
  15   2.0000     -10.272391      -279.5260
  16   2.0000      -8.083361      -219.9594
  17   2.0000      -8.077343      -219.7957
  18   2.0000      -6.041790      -164.4055
  19   2.0000      -6.037505      -164.2889
  20   2.0000      -6.035908      -164.2454
  21   2.0000      -6.034311      -164.2020
  22   2.0000      -6.031778      -164.1330
  23   2.0000      -6.028156      -164.0345
  24   2.0000      -1.017082       -27.6762
  25   2.0000      -0.990468       -26.9520
  26   2.0000      -0.917002       -24.9529
  27   2.0000      -0.908288       -24.7158
  28   2.0000      -0.872647       -23.7459
  29   2.0000      -0.856236       -23.2994
  30   2.0000      -0.850978       -23.1563
  31   2.0000      -0.813197       -22.1282
  32   2.0000      -0.784142       -21.3376
  33   2.0000      -0.776295       -21.1241
  34   2.0000      -0.712156       -19.3788
  35   2.0000      -0.704986       -19.1836
  36   2.0000      -0.696123       -18.9425
  37   2.0000      -0.676848       -18.4180
  38   2.0000      -0.642583       -17.4856
  39   2.0000      -0.616661       -16.7802
  40   2.0000      -0.596425       -16.2295
  41   2.0000      -0.580695       -15.8015
  42   2.0000      -0.565622       -15.3914
  43   2.0000      -0.560824       -15.2608
  44   2.0000      -0.531922       -14.4743
  45   2.0000      -0.525113       -14.2891
  46   2.0000      -0.522887       -14.2285
  47   2.0000      -0.515787       -14.0353
  48   2.0000      -0.511028       -13.9058
  49   2.0000      -0.508588       -13.8394
  50   2.0000      -0.495033       -13.4705
  51   2.0000      -0.477858       -13.0032
  52   2.0000      -0.476315       -12.9612
  53   2.0000      -0.468475       -12.7479
  54   2.0000      -0.460260       -12.5243
  55   2.0000      -0.454479       -12.3670
  56   2.0000      -0.451025       -12.2730
  57   2.0000      -0.432701       -11.7744
  58   2.0000      -0.424876       -11.5615
  59   2.0000      -0.420906       -11.4534
  60   2.0000      -0.411524       -11.1981
  61   2.0000      -0.408065       -11.1040
  62   2.0000      -0.406254       -11.0547
  63   2.0000      -0.364217        -9.9108
  64   2.0000      -0.333383        -9.0718
  65   2.0000      -0.328636        -8.9427
  66   2.0000      -0.287692        -7.8285
  67   0.0000       0.023008         0.6261
  68   0.0000       0.087114         2.3705
  69   0.0000       0.116374         3.1667
  70   0.0000       0.127480         3.4689
  71   0.0000       0.135202         3.6790

MULLIKEN ATOMIC CHARGES
-----------------------
   0 S :    0.102475
   1 C :   -0.118591
   2 C :   -0.095242
   3 C :   -0.006960
   4 C :   -0.093175
   5 H :    0.013925
   6 C :    0.054621
   7 H :    0.009919
   8 H :    0.039058
   9 C :   -0.061531
  10 H :    0.017840
  11 H :    0.019372
  12 C :   -0.029294
  13 H :    0.030664
  14 H :    0.030683
  15 H :    0.039369
  16 S :    0.080223
  17 C :   -0.084548
  18 C :   -0.002437
  19 C :   -0.099389
  20 C :   -0.077091
  21 H :    0.007146
  22 C :    0.007227
  23 H :    0.028127
  24 H :    0.001581
  25 C :    0.037664
  26 H :    0.016783
  27 H :    0.021074
  28 C :   -0.056225
  29 H :    0.024789
  30 H :    0.025237
  31 H :    0.019947
  32 H :    0.037188
  33 H :    0.059572
Sum of atomic charges:    0.0000000

LOEWDIN ATOMIC CHARGES
----------------------
   0 S :    0.466302
   1 C :   -0.209017
   2 C :   -0.067277
   3 C :   -0.079119
   4 C :   -0.204837
   5 H :    0.028414
   6 C :   -0.034184
   7 H :    0.033651
   8 H :    0.032461
   9 C :   -0.038651
  10 H :    0.022309
  11 H :    0.016192
  12 C :   -0.057069
  13 H :    0.021215
  14 H :    0.023535
  15 H :    0.031823
  16 S :    0.403318
  17 C :   -0.177796
  18 C :   -0.065077
  19 C :   -0.069360
  20 C :   -0.178567
  21 H :    0.024313
  22 C :   -0.044266
  23 H :    0.027859
  24 H :    0.031083
  25 C :   -0.031228
  26 H :    0.021139
  27 H :    0.018428
  28 C :   -0.073646
  29 H :    0.032083
  30 H :    0.024267
  31 H :    0.022072
  32 H :    0.023234
  33 H :    0.026397

  Mayer bond orders larger than 0.100000
B(  0-S ,  1-C ) :   1.1433 B(  0-S ,  4-C ) :   1.1882 B(  1-C ,  2-C ) :   1.6077
B(  1-C , 32-H ) :   0.9663 B(  2-C ,  3-C ) :   1.3129 B(  2-C ,  6-C ) :   1.0002
B(  3-C ,  4-C ) :   1.4832 B(  3-C ,  5-H ) :   0.9866 B(  4-C , 20-C ) :   1.0502
B(  6-C ,  7-H ) :   0.9352 B(  6-C ,  8-H ) :   0.9409 B(  6-C ,  9-C ) :   1.0789
B(  9-C , 10-H ) :   0.9542 B(  9-C , 11-H ) :   0.9662 B(  9-C , 12-C ) :   1.0533
B( 12-C , 13-H ) :   0.9795 B( 12-C , 14-H ) :   0.9801 B( 12-C , 15-H ) :   0.9827
B( 16-S , 17-C ) :   1.1710 B( 16-S , 20-C ) :   1.1298 B( 17-C , 18-C ) :   1.5639
B( 17-C , 33-H ) :   0.9772 B( 18-C , 19-C ) :   1.2577 B( 18-C , 21-H ) :   0.9948
B( 19-C , 20-C ) :   1.6058 B( 19-C , 22-C ) :   1.0324 B( 22-C , 23-H ) :   0.9360
B( 22-C , 24-H ) :   0.9265 B( 22-C , 25-C ) :   1.0442 B( 25-C , 26-H ) :   0.9518
B( 25-C , 27-H ) :   0.9480 B( 25-C , 28-C ) :   1.0905 B( 28-C , 29-H ) :   0.9694
B( 28-C , 30-H ) :   0.9749 B( 28-C , 31-H ) :   0.9722

Dispersion correction           -0.013612977
FINAL SINGLE POINT ENERGY     -1339.864734208503

DIPOLE MOMENT
-------------
                                X             Y             Z
Electronic contribution:    -11.17616       3.79973       8.06448
Nuclear contribution   :     11.43518      -4.02507      -8.07871
                        -----------------------------------------
Total Dipole Moment    :      0.25902      -0.22533      -0.01424
                        -----------------------------------------
Magnitude (a.u.)       :      0.34361
Magnitude (Debye)      :      0.87340

Rotational constants in cm-1:     0.021287     0.007726     0.005908
Rotational constants in MHz :   638.159536   231.609129   177.114219

                             ****ORCA TERMINATED NORMALLY****
TOTAL RUN TIME: 0 days 0 hours 0 minutes 33 seconds 201 msec
