                         Program Version 4.2.1 -  RELEASE  -
|  1> ! wB97X-D3 SP def2-SVP
|  2> %pal
|  3> nprocs 16
|  4> end
|  5>
|  6> * xyz 0 1
|  7> S 	 38.5862 	 11.0254 	 89.0918
|  8> C 	 39.903 	 12.1816 	 88.9768
|  9> C 	 41.0418 	 11.6198 	 88.3967
| 10> C 	 40.8538 	 10.2607 	 87.9381
| 11> C 	 39.6138 	 9.79998 	 88.326
| 12> H 	 41.5068 	 9.5662 	 87.4239
| 13> C 	 42.2862 	 12.3905 	 88.1617
| 14> H 	 42.9976 	 11.7209 	 87.8026
| 15> H 	 42.8157 	 12.6238 	 89.1356
| 16> C 	 42.2974 	 13.6434 	 87.2948
| 17> H 	 41.53 	 14.3419 	 87.5321
| 18> H 	 43.1948 	 14.2729 	 87.5946
| 19> C 	 42.4446 	 13.2561 	 85.778
| 20> H 	 41.5711 	 12.702 	 85.3475
| 21> H 	 42.701 	 14.0852 	 85.1717
| 22> H 	 43.2802 	 12.4949 	 85.6628
| 23> S 	 39.8299 	 7.02184 	 88.5313
| 24> C 	 38.8925 	 6.03349 	 87.4266
| 25> C 	 38.0666 	 6.85224 	 86.6659
| 26> C 	 38.1469 	 8.25326 	 86.9038
| 27> C 	 39.1238 	 8.53349 	 87.836
| 28> H 	 37.3467 	 6.35352 	 85.9732
| 29> C 	 37.342 	 9.24026 	 86.0207
| 30> H 	 36.9538 	 10.0216 	 86.7009
| 31> H 	 36.4933 	 8.69161 	 85.5563
| 32> C 	 38.0521 	 9.94763 	 84.8681
| 33> H 	 39.0429 	 10.1905 	 85.199
| 34> H 	 37.6743 	 11.0099 	 84.7637
| 35> C 	 38.0509 	 9.26213 	 83.4594
| 36> H 	 37.0487 	 9.04435 	 83.0776
| 37> H 	 38.5505 	 8.30041 	 83.5637
| 38> H 	 38.4304 	 9.91288 	 82.6232
| 39> H 	 39.8891 	 13.2048 	 89.3973
| 40> H 	 38.6743 	 4.94513 	 87.5567
| 41> *
| 42>
| 43>                          ****END OF INPUT****

CARTESIAN COORDINATES (ANGSTROEM)
---------------------------------
  S     38.586200   11.025400   89.091800
  C     39.903000   12.181600   88.976800
  C     41.041800   11.619800   88.396700
  C     40.853800   10.260700   87.938100
  C     39.613800    9.799980   88.326000
  H     41.506800    9.566200   87.423900
  C     42.286200   12.390500   88.161700
  H     42.997600   11.720900   87.802600
  H     42.815700   12.623800   89.135600
  C     42.297400   13.643400   87.294800
  H     41.530000   14.341900   87.532100
  H     43.194800   14.272900   87.594600
  C     42.444600   13.256100   85.778000
  H     41.571100   12.702000   85.347500
  H     42.701000   14.085200   85.171700
  H     43.280200   12.494900   85.662800
  S     39.829900    7.021840   88.531300
  C     38.892500    6.033490   87.426600
  C     38.066600    6.852240   86.665900
  C     38.146900    8.253260   86.903800
  C     39.123800    8.533490   87.836000
  H     37.346700    6.353520   85.973200
  C     37.342000    9.240260   86.020700
  H     36.953800   10.021600   86.700900
  H     36.493300    8.691610   85.556300
  C     38.052100    9.947630   84.868100
  H     39.042900   10.190500   85.199000
  H     37.674300   11.009900   84.763700
  C     38.050900    9.262130   83.459400
  H     37.048700    9.044350   83.077600
  H     38.550500    8.300410   83.563700
  H     38.430400    9.912880   82.623200
  H     39.889100   13.204800   89.397300
  H     38.674300    4.945130   87.556700

 Total Charge           Charge          ....    0
 Multiplicity           Mult            ....    1
 Number of Electrons    NEL             ....  134
 Basis Dimension        Dim             ....  322

ORBITAL ENERGIES
----------------

  NO   OCC          E(Eh)            E(eV)
   0   2.0000     -88.973245     -2421.0851
   1   2.0000     -88.965723     -2420.8804
   2   2.0000     -10.328690      -281.0579
   3   2.0000     -10.328136      -281.0429
   4   2.0000     -10.319597      -280.8105
   5   2.0000     -10.319235      -280.8007
   6   2.0000     -10.304762      -280.4068
   7   2.0000     -10.304176      -280.3909
   8   2.0000     -10.298868      -280.2464
   9   2.0000     -10.297165      -280.2001
  10   2.0000     -10.295690      -280.1600
  11   2.0000     -10.293619      -280.1036
  12   2.0000     -10.286568      -279.9117
  13   2.0000     -10.286215      -279.9021
  14   2.0000     -10.284767      -279.8627
  15   2.0000     -10.282520      -279.8016
  16   2.0000      -8.086918      -220.0562
  17   2.0000      -8.079506      -219.8545
  18   2.0000      -6.045479      -164.5058
  19   2.0000      -6.041562      -164.3993
  20   2.0000      -6.038089      -164.3048
  21   2.0000      -6.037709      -164.2944
  22   2.0000      -6.034110      -164.1965
  23   2.0000      -6.030263      -164.0918
  24   2.0000      -1.003315       -27.3016
  25   2.0000      -0.979210       -26.6457
  26   2.0000      -0.911750       -24.8100
  27   2.0000      -0.899965       -24.4893
  28   2.0000      -0.868408       -23.6306
  29   2.0000      -0.849297       -23.1105
  30   2.0000      -0.842441       -22.9240
  31   2.0000      -0.808438       -21.9987
  32   2.0000      -0.782172       -21.2840
  33   2.0000      -0.770709       -20.9720
  34   2.0000      -0.713079       -19.4039
  35   2.0000      -0.706053       -19.2127
  36   2.0000      -0.687368       -18.7042
  37   2.0000      -0.657731       -17.8978
  38   2.0000      -0.642931       -17.4950
  39   2.0000      -0.607248       -16.5240
  40   2.0000      -0.588431       -16.0120
  41   2.0000      -0.567510       -15.4427
  42   2.0000      -0.552241       -15.0272
  43   2.0000      -0.550453       -14.9786
  44   2.0000      -0.536194       -14.5906
  45   2.0000      -0.527433       -14.3522
  46   2.0000      -0.513355       -13.9691
  47   2.0000      -0.507170       -13.8008
  48   2.0000      -0.503649       -13.7050
  49   2.0000      -0.488857       -13.3025
  50   2.0000      -0.484158       -13.1746
  51   2.0000      -0.478370       -13.0171
  52   2.0000      -0.472661       -12.8618
  53   2.0000      -0.464354       -12.6357
  54   2.0000      -0.459995       -12.5171
  55   2.0000      -0.447045       -12.1647
  56   2.0000      -0.445368       -12.1191
  57   2.0000      -0.442971       -12.0538
  58   2.0000      -0.430926       -11.7261
  59   2.0000      -0.425523       -11.5791
  60   2.0000      -0.419912       -11.4264
  61   2.0000      -0.412880       -11.2350
  62   2.0000      -0.400539       -10.8992
  63   2.0000      -0.345061        -9.3896
  64   2.0000      -0.331755        -9.0275
  65   2.0000      -0.327799        -8.9199
  66   2.0000      -0.297050        -8.0831
  67   0.0000       0.031210         0.8493
  68   0.0000       0.055458         1.5091
  69   0.0000       0.106481         2.8975
  70   0.0000       0.111326         3.0293
  71   0.0000       0.121211         3.2983

MULLIKEN ATOMIC CHARGES
-----------------------
   0 S :    0.122867
   1 C :   -0.138794
   2 C :   -0.063851
   3 C :    0.029714
   4 C :   -0.145768
   5 H :    0.026626
   6 C :    0.064757
   7 H :   -0.012939
   8 H :    0.037988
   9 C :   -0.048660
  10 H :    0.020994
  11 H :    0.027153
  12 C :   -0.067920
  13 H :    0.049081
  14 H :    0.034053
  15 H :    0.027171
  16 S :    0.100386
  17 C :   -0.111035
  18 C :   -0.072739
  19 C :    0.000372
  20 C :   -0.217180
  21 H :    0.030410
  22 C :    0.079085
  23 H :    0.030448
  24 H :    0.023104
  25 C :   -0.061209
  26 H :    0.018746
  27 H :    0.026908
  28 C :   -0.063879
  29 H :    0.022456
  30 H :    0.042000
  31 H :    0.045267
  32 H :    0.062506
  33 H :    0.081883
Sum of atomic charges:    0.0000000

LOEWDIN ATOMIC CHARGES
----------------------
   0 S :    0.403007
   1 C :   -0.199391
   2 C :   -0.061532
   3 C :   -0.050931
   4 C :   -0.192260
   5 H :    0.037274
   6 C :   -0.044702
   7 H :    0.020135
   8 H :    0.043087
   9 C :   -0.038633
  10 H :    0.017100
  11 H :    0.032648
  12 C :   -0.068964
  13 H :    0.031516
  14 H :    0.018519
  15 H :    0.029685
  16 S :    0.382762
  17 C :   -0.204175
  18 C :   -0.077201
  19 C :   -0.061491
  20 C :   -0.179622
  21 H :    0.034723
  22 C :   -0.031006
  23 H :    0.032829
  24 H :    0.032497
  25 C :   -0.048044
  26 H :    0.021062
  27 H :    0.031268
  28 C :   -0.073354
  29 H :    0.021496
  30 H :    0.026447
  31 H :    0.035360
  32 H :    0.035813
  33 H :    0.044077

  Mayer bond orders larger than 0.100000
B(  0-S ,  1-C ) :   1.1295 B(  0-S ,  4-C ) :   1.1428 B(  1-C ,  2-C ) :   1.6140
B(  1-C , 32-H ) :   0.9653 B(  2-C ,  3-C ) :   1.2145 B(  2-C ,  6-C ) :   1.0392
B(  3-C ,  4-C ) :   1.5859 B(  3-C ,  5-H ) :   0.9897 B(  4-C , 20-C ) :   1.0338
B(  6-C ,  7-H ) :   0.9323 B(  6-C ,  8-H ) :   0.9261 B(  6-C ,  9-C ) :   1.0732
B(  9-C , 10-H ) :   0.9591 B(  9-C , 11-H ) :   0.9509 B(  9-C , 12-C ) :   1.0637
B( 12-C , 13-H ) :   0.9789 B( 12-C , 14-H ) :   0.9772 B( 12-C , 15-H ) :   0.9751
B( 16-S , 17-C ) :   1.1406 B( 16-S , 20-C ) :   1.1410 B( 17-C , 18-C ) :   1.6252
B( 17-C , 20-C ) :   0.1021 B( 17-C , 33-H ) :   0.9567 B( 18-C , 19-C ) :   1.2435
B( 18-C , 21-H ) :   0.9758 B( 19-C , 20-C ) :   1.5924 B( 19-C , 22-C ) :   1.0419
B( 22-C , 23-H ) :   0.9239 B( 22-C , 24-H ) :   0.9408 B( 22-C , 25-C ) :   1.0652
B( 25-C , 26-H ) :   0.9548 B( 25-C , 27-H ) :   0.9539 B( 25-C , 28-C ) :   1.0714
B( 28-C , 29-H ) :   0.9746 B( 28-C , 30-H ) :   0.9775 B( 28-C , 31-H ) :   0.9742

Dispersion correction           -0.015050744
FINAL SINGLE POINT ENERGY     -1339.871177398197

DIPOLE MOMENT
-------------
                                X             Y             Z
Electronic contribution:     -6.22906     -14.63015      21.44737
Nuclear contribution   :      6.33405      14.97071     -21.80884
                        -----------------------------------------
Total Dipole Moment    :      0.10498       0.34056      -0.36147
                        -----------------------------------------
Magnitude (a.u.)       :      0.50761
Magnitude (Debye)      :      1.29023

Rotational constants in cm-1:     0.018083     0.008917     0.007508
Rotational constants in MHz :   542.112344   267.324591   225.088608

                             ****ORCA TERMINATED NORMALLY****
TOTAL RUN TIME: 0 days 0 hours 0 minutes 30 seconds 371 msec
