                         Program Version 4.2.1 -  RELEASE  -
|  1> ! wB97X-D3 SP def2-SVP
|  2> %pal
|  3> nprocs 16
|  4> end
|  5>
|  6> * xyz 0 1
|  7> S 	 7.58553 	 28.934 	 69.9196
|  8> C 	 6.31904 	 28.5685 	 68.724
|  9> C 	 6.89313 	 27.8981 	 67.6725
| 10> C 	 8.34753 	 27.9268 	 67.7057
| 11> C 	 8.8244 	 28.5432 	 68.8198
| 12> H 	 9.03869 	 27.3929 	 67.0236
| 13> C 	 6.14427 	 27.3084 	 66.5547
| 14> H 	 6.49286 	 27.5999 	 65.6116
| 15> H 	 5.14134 	 27.6706 	 66.6551
| 16> C 	 6.01454 	 25.8035 	 66.6598
| 17> H 	 6.81521 	 25.2984 	 66.3398
| 18> H 	 5.99152 	 25.5616 	 67.7035
| 19> C 	 4.64303 	 25.4236 	 66.0279
| 20> H 	 3.8116 	 25.6225 	 66.7359
| 21> H 	 4.37867 	 26.0459 	 65.1309
| 22> H 	 4.67305 	 24.3961 	 65.692
| 23> S 	 10.7367 	 27.0348 	 70.1418
| 24> C 	 12.3518 	 27.659 	 70.4256
| 25> C 	 12.6113 	 28.7399 	 69.6425
| 26> C 	 11.4373 	 29.1336 	 68.9222
| 27> C 	 10.2292 	 28.4591 	 69.2598
| 28> H 	 13.5689 	 29.1876 	 69.5476
| 29> C 	 11.5307 	 30.3831 	 67.987
| 30> H 	 10.9233 	 30.28 	 67.0784
| 31> H 	 12.5732 	 30.3236 	 67.7163
| 32> C 	 11.2857 	 31.773 	 68.679
| 33> H 	 11.6789 	 31.8579 	 69.6803
| 34> H 	 10.2275 	 31.883 	 68.8217
| 35> C 	 11.5663 	 32.9621 	 67.8023
| 36> H 	 12.5556 	 33.2817 	 67.5153
| 37> H 	 11.0115 	 33.7891 	 68.191
| 38> H 	 11.0357 	 32.7272 	 66.9159
| 39> H 	 5.29515 	 28.5268 	 68.8458
| 40> H 	 13.0473 	 27.2361 	 71.1199
| 41> *
| 42>
| 43>                          ****END OF INPUT****

CARTESIAN COORDINATES (ANGSTROEM)
---------------------------------
  S      7.585530   28.934000   69.919600
  C      6.319040   28.568500   68.724000
  C      6.893130   27.898100   67.672500
  C      8.347530   27.926800   67.705700
  C      8.824400   28.543200   68.819800
  H      9.038690   27.392900   67.023600
  C      6.144270   27.308400   66.554700
  H      6.492860   27.599900   65.611600
  H      5.141340   27.670600   66.655100
  C      6.014540   25.803500   66.659800
  H      6.815210   25.298400   66.339800
  H      5.991520   25.561600   67.703500
  C      4.643030   25.423600   66.027900
  H      3.811600   25.622500   66.735900
  H      4.378670   26.045900   65.130900
  H      4.673050   24.396100   65.692000
  S     10.736700   27.034800   70.141800
  C     12.351800   27.659000   70.425600
  C     12.611300   28.739900   69.642500
  C     11.437300   29.133600   68.922200
  C     10.229200   28.459100   69.259800
  H     13.568900   29.187600   69.547600
  C     11.530700   30.383100   67.987000
  H     10.923300   30.280000   67.078400
  H     12.573200   30.323600   67.716300
  C     11.285700   31.773000   68.679000
  H     11.678900   31.857900   69.680300
  H     10.227500   31.883000   68.821700
  C     11.566300   32.962100   67.802300
  H     12.555600   33.281700   67.515300
  H     11.011500   33.789100   68.191000
  H     11.035700   32.727200   66.915900
  H      5.295150   28.526800   68.845800
  H     13.047300   27.236100   71.119900

 Total Charge           Charge          ....    0
 Multiplicity           Mult            ....    1
 Number of Electrons    NEL             ....  134
 Basis Dimension        Dim             ....  322

ORBITAL ENERGIES
----------------

  NO   OCC          E(Eh)            E(eV)
   0   2.0000     -88.965372     -2420.8708
   1   2.0000     -88.960861     -2420.7481
   2   2.0000     -10.328169      -281.0438
   3   2.0000     -10.326615      -281.0015
   4   2.0000     -10.314726      -280.6780
   5   2.0000     -10.309991      -280.5491
   6   2.0000     -10.307499      -280.4813
   7   2.0000     -10.298343      -280.2322
   8   2.0000     -10.294948      -280.1398
   9   2.0000     -10.290848      -280.0282
  10   2.0000     -10.290497      -280.0187
  11   2.0000     -10.284942      -279.8675
  12   2.0000     -10.278999      -279.7058
  13   2.0000     -10.278541      -279.6933
  14   2.0000     -10.274549      -279.5847
  15   2.0000     -10.265247      -279.3316
  16   2.0000      -8.080549      -219.8829
  17   2.0000      -8.075727      -219.7517
  18   2.0000      -6.039225      -164.3357
  19   2.0000      -6.035038      -164.2217
  20   2.0000      -6.034244      -164.2001
  21   2.0000      -6.031018      -164.1124
  22   2.0000      -6.030241      -164.0912
  23   2.0000      -6.026443      -163.9878
  24   2.0000      -1.008982       -27.4558
  25   2.0000      -0.985395       -26.8140
  26   2.0000      -0.924577       -25.1590
  27   2.0000      -0.901922       -24.5425
  28   2.0000      -0.872340       -23.7376
  29   2.0000      -0.847795       -23.0697
  30   2.0000      -0.845799       -23.0154
  31   2.0000      -0.818432       -22.2707
  32   2.0000      -0.779890       -21.2219
  33   2.0000      -0.767537       -20.8857
  34   2.0000      -0.716837       -19.5061
  35   2.0000      -0.705003       -19.1841
  36   2.0000      -0.692934       -18.8557
  37   2.0000      -0.660809       -17.9815
  38   2.0000      -0.645567       -17.5668
  39   2.0000      -0.618765       -16.8375
  40   2.0000      -0.593578       -16.1521
  41   2.0000      -0.582778       -15.8582
  42   2.0000      -0.571166       -15.5422
  43   2.0000      -0.557929       -15.1820
  44   2.0000      -0.524162       -14.2632
  45   2.0000      -0.522456       -14.2167
  46   2.0000      -0.514903       -14.0112
  47   2.0000      -0.512380       -13.9426
  48   2.0000      -0.504822       -13.7369
  49   2.0000      -0.504475       -13.7275
  50   2.0000      -0.497374       -13.5342
  51   2.0000      -0.476790       -12.9741
  52   2.0000      -0.475114       -12.9285
  53   2.0000      -0.466900       -12.7050
  54   2.0000      -0.460671       -12.5355
  55   2.0000      -0.448935       -12.2161
  56   2.0000      -0.447141       -12.1673
  57   2.0000      -0.440378       -11.9833
  58   2.0000      -0.429226       -11.6798
  59   2.0000      -0.424340       -11.5469
  60   2.0000      -0.417719       -11.3667
  61   2.0000      -0.416410       -11.3311
  62   2.0000      -0.406373       -11.0580
  63   2.0000      -0.337179        -9.1751
  64   2.0000      -0.324024        -8.8171
  65   2.0000      -0.323303        -8.7975
  66   2.0000      -0.308546        -8.3960
  67   0.0000       0.039553         1.0763
  68   0.0000       0.054152         1.4736
  69   0.0000       0.108629         2.9560
  70   0.0000       0.122069         3.3217
  71   0.0000       0.129801         3.5321

MULLIKEN ATOMIC CHARGES
-----------------------
   0 S :    0.107948
   1 C :   -0.063454
   2 C :   -0.143959
   3 C :    0.029998
   4 C :   -0.136994
   5 H :    0.030933
   6 C :    0.106002
   7 H :    0.020866
   8 H :   -0.002070
   9 C :   -0.008782
  10 H :   -0.001134
  11 H :    0.022386
  12 C :   -0.087851
  13 H :    0.043959
  14 H :    0.037464
  15 H :    0.035796
  16 S :    0.100197
  17 C :   -0.077355
  18 C :   -0.008954
  19 C :   -0.067715
  20 C :   -0.163232
  21 H :    0.012367
  22 C :    0.066655
  23 H :    0.030890
  24 H :    0.011164
  25 C :   -0.053407
  26 H :    0.023188
  27 H :    0.019711
  28 C :   -0.010517
  29 H :    0.031587
  30 H :    0.019984
  31 H :    0.005454
  32 H :    0.018135
  33 H :    0.050739
Sum of atomic charges:    0.0000000

LOEWDIN ATOMIC CHARGES
----------------------
   0 S :    0.417648
   1 C :   -0.182797
   2 C :   -0.053732
   3 C :   -0.063709
   4 C :   -0.214121
   5 H :    0.038677
   6 C :   -0.024699
   7 H :    0.024345
   8 H :    0.027577
   9 C :   -0.024407
  10 H :    0.004741
  11 H :    0.026211
  12 C :   -0.065414
  13 H :    0.029952
  14 H :    0.027903
  15 H :    0.023225
  16 S :    0.401346
  17 C :   -0.172290
  18 C :   -0.072099
  19 C :   -0.051246
  20 C :   -0.208195
  21 H :    0.030186
  22 C :   -0.029984
  23 H :    0.029683
  24 H :    0.024361
  25 C :   -0.037690
  26 H :    0.020311
  27 H :    0.027091
  28 C :   -0.062342
  29 H :    0.019007
  30 H :    0.026610
  31 H :    0.022542
  32 H :    0.015094
  33 H :    0.026215

  Mayer bond orders larger than 0.100000
B(  0-S ,  1-C ) :   1.1154 B(  0-S ,  4-C ) :   1.1615 B(  1-C ,  2-C ) :   1.6412
B(  1-C , 32-H ) :   0.9705 B(  2-C ,  3-C ) :   1.1999 B(  2-C ,  6-C ) :   1.0507
B(  3-C ,  4-C ) :   1.6006 B(  3-C ,  5-H ) :   0.9939 B(  4-C , 20-C ) :   1.0010
B(  6-C ,  7-H ) :   0.9340 B(  6-C ,  8-H ) :   0.9378 B(  6-C ,  9-C ) :   1.0472
B(  9-C , 10-H ) :   0.9577 B(  9-C , 11-H ) :   0.9558 B(  9-C , 12-C ) :   1.0721
B( 12-C , 13-H ) :   0.9760 B( 12-C , 14-H ) :   0.9780 B( 12-C , 15-H ) :   0.9758
B( 16-S , 17-C ) :   1.1648 B( 16-S , 20-C ) :   1.1423 B( 17-C , 18-C ) :   1.5929
B( 17-C , 20-C ) :   0.1023 B( 17-C , 33-H ) :   0.9694 B( 18-C , 19-C ) :   1.2561
B( 18-C , 21-H ) :   0.9970 B( 19-C , 20-C ) :   1.5793 B( 19-C , 22-C ) :   1.0413
B( 22-C , 23-H ) :   0.9372 B( 22-C , 24-H ) :   0.9374 B( 22-C , 25-C ) :   1.0658
B( 25-C , 26-H ) :   0.9591 B( 25-C , 27-H ) :   0.9520 B( 25-C , 28-C ) :   1.0788
B( 28-C , 29-H ) :   0.9783 B( 28-C , 30-H ) :   0.9716 B( 28-C , 31-H ) :   0.9677

Dispersion correction           -0.013577940
FINAL SINGLE POINT ENERGY     -1339.846328574611

DIPOLE MOMENT
-------------
                                X             Y             Z
Electronic contribution:      5.72557      -6.02440      17.41231
Nuclear contribution   :     -5.73344       5.91960     -17.87612
                        -----------------------------------------
Total Dipole Moment    :     -0.00787      -0.10479      -0.46380
                        -----------------------------------------
Magnitude (a.u.)       :      0.47556
Magnitude (Debye)      :      1.20878

Rotational constants in cm-1:     0.020386     0.007388     0.006382
Rotational constants in MHz :   611.147635   221.492975   191.316292

                             ****ORCA TERMINATED NORMALLY****
TOTAL RUN TIME: 0 days 0 hours 0 minutes 33 seconds 445 msec
