                         Program Version 4.2.1 -  RELEASE  -
|  1> ! wB97X-D3 SP def2-SVP
|  2> %pal
|  3> nprocs 16
|  4> end
|  5>
|  6> * xyz 0 1
|  7> S 	 -38.804 	 42.1032 	 96.8523
|  8> C 	 -39.3858 	 42.9169 	 95.4331
|  9> C 	 -39.5923 	 42.0396 	 94.399
| 10> C 	 -39.1058 	 40.7641 	 94.7021
| 11> C 	 -38.6461 	 40.6845 	 95.9954
| 12> H 	 -38.8435 	 39.9967 	 94.0334
| 13> C 	 -40.2998 	 42.3983 	 93.1083
| 14> H 	 -39.7826 	 41.9828 	 92.1976
| 15> H 	 -40.3728 	 43.5542 	 93.1937
| 16> C 	 -41.7608 	 41.8347 	 93.327
| 17> H 	 -41.8399 	 40.7637 	 93.2268
| 18> H 	 -42.1922 	 42.1126 	 94.2832
| 19> C 	 -42.57 	 42.3871 	 92.181
| 20> H 	 -43.6179 	 42.4962 	 92.468
| 21> H 	 -42.3093 	 43.4688 	 92.0169
| 22> H 	 -42.4255 	 41.9736 	 91.1712
| 23> S 	 -36.0524 	 39.9638 	 96.6023
| 24> C 	 -35.7915 	 38.4285 	 97.2488
| 25> C 	 -36.78 	 37.5898 	 96.8249
| 26> C 	 -37.9825 	 38.2602 	 96.4152
| 27> C 	 -37.7528 	 39.6034 	 96.3468
| 28> H 	 -36.7128 	 36.5234 	 96.9547
| 29> C 	 -39.3036 	 37.5637 	 96.1014
| 30> H 	 -39.0961 	 36.516 	 96.0199
| 31> H 	 -39.6361 	 37.9095 	 95.0883
| 32> C 	 -40.3118 	 37.7908 	 97.2985
| 33> H 	 -40.7129 	 38.786 	 97.4432
| 34> H 	 -39.7648 	 37.655 	 98.2244
| 35> C 	 -41.4881 	 36.753 	 97.2609
| 36> H 	 -42.0658 	 36.8676 	 96.3201
| 37> H 	 -42.0502 	 37.0454 	 98.162
| 38> H 	 -41.1524 	 35.7181 	 97.4296
| 39> H 	 -39.617 	 44.0035 	 95.3454
| 40> H 	 -34.977 	 38.1235 	 97.8653
| 41> *
| 42>
| 43>                          ****END OF INPUT****

CARTESIAN COORDINATES (ANGSTROEM)
---------------------------------
  S    -38.804000   42.103200   96.852300
  C    -39.385800   42.916900   95.433100
  C    -39.592300   42.039600   94.399000
  C    -39.105800   40.764100   94.702100
  C    -38.646100   40.684500   95.995400
  H    -38.843500   39.996700   94.033400
  C    -40.299800   42.398300   93.108300
  H    -39.782600   41.982800   92.197600
  H    -40.372800   43.554200   93.193700
  C    -41.760800   41.834700   93.327000
  H    -41.839900   40.763700   93.226800
  H    -42.192200   42.112600   94.283200
  C    -42.570000   42.387100   92.181000
  H    -43.617900   42.496200   92.468000
  H    -42.309300   43.468800   92.016900
  H    -42.425500   41.973600   91.171200
  S    -36.052400   39.963800   96.602300
  C    -35.791500   38.428500   97.248800
  C    -36.780000   37.589800   96.824900
  C    -37.982500   38.260200   96.415200
  C    -37.752800   39.603400   96.346800
  H    -36.712800   36.523400   96.954700
  C    -39.303600   37.563700   96.101400
  H    -39.096100   36.516000   96.019900
  H    -39.636100   37.909500   95.088300
  C    -40.311800   37.790800   97.298500
  H    -40.712900   38.786000   97.443200
  H    -39.764800   37.655000   98.224400
  C    -41.488100   36.753000   97.260900
  H    -42.065800   36.867600   96.320100
  H    -42.050200   37.045400   98.162000
  H    -41.152400   35.718100   97.429600
  H    -39.617000   44.003500   95.345400
  H    -34.977000   38.123500   97.865300

 Total Charge           Charge          ....    0
 Multiplicity           Mult            ....    1
 Number of Electrons    NEL             ....  134
 Basis Dimension        Dim             ....  322

ORBITAL ENERGIES
----------------

  NO   OCC          E(Eh)            E(eV)
   0   2.0000     -88.966544     -2420.9027
   1   2.0000     -88.955205     -2420.5942
   2   2.0000     -10.312838      -280.6266
   3   2.0000     -10.312534      -280.6183
   4   2.0000     -10.310670      -280.5676
   5   2.0000     -10.307582      -280.4836
   6   2.0000     -10.303973      -280.3854
   7   2.0000     -10.295063      -280.1429
   8   2.0000     -10.294227      -280.1202
   9   2.0000     -10.293445      -280.0989
  10   2.0000     -10.288581      -279.9665
  11   2.0000     -10.286216      -279.9022
  12   2.0000     -10.284772      -279.8629
  13   2.0000     -10.281904      -279.7848
  14   2.0000     -10.281339      -279.7695
  15   2.0000     -10.277099      -279.6541
  16   2.0000      -8.083003      -219.9497
  17   2.0000      -8.071567      -219.6385
  18   2.0000      -6.041285      -164.3917
  19   2.0000      -6.037255      -164.2820
  20   2.0000      -6.033903      -164.1909
  21   2.0000      -6.029926      -164.0826
  22   2.0000      -6.026124      -163.9792
  23   2.0000      -6.022097      -163.8696
  24   2.0000      -1.018868       -27.7248
  25   2.0000      -0.993466       -27.0336
  26   2.0000      -0.915841       -24.9213
  27   2.0000      -0.900652       -24.5080
  28   2.0000      -0.869298       -23.6548
  29   2.0000      -0.855679       -23.2842
  30   2.0000      -0.843578       -22.9549
  31   2.0000      -0.809222       -22.0201
  32   2.0000      -0.777194       -21.1485
  33   2.0000      -0.766173       -20.8486
  34   2.0000      -0.704910       -19.1816
  35   2.0000      -0.698592       -19.0097
  36   2.0000      -0.691281       -18.8107
  37   2.0000      -0.659223       -17.9384
  38   2.0000      -0.643601       -17.5133
  39   2.0000      -0.614836       -16.7305
  40   2.0000      -0.591248       -16.0887
  41   2.0000      -0.577415       -15.7123
  42   2.0000      -0.559023       -15.2118
  43   2.0000      -0.554171       -15.0798
  44   2.0000      -0.525570       -14.3015
  45   2.0000      -0.523980       -14.2582
  46   2.0000      -0.519466       -14.1354
  47   2.0000      -0.510486       -13.8910
  48   2.0000      -0.507967       -13.8225
  49   2.0000      -0.496264       -13.5040
  50   2.0000      -0.489770       -13.3273
  51   2.0000      -0.481275       -13.0962
  52   2.0000      -0.469126       -12.7656
  53   2.0000      -0.463302       -12.6071
  54   2.0000      -0.458487       -12.4761
  55   2.0000      -0.450299       -12.2532
  56   2.0000      -0.443817       -12.0769
  57   2.0000      -0.438992       -11.9456
  58   2.0000      -0.428698       -11.6655
  59   2.0000      -0.426380       -11.6024
  60   2.0000      -0.423467       -11.5231
  61   2.0000      -0.412428       -11.2227
  62   2.0000      -0.409309       -11.1379
  63   2.0000      -0.336923        -9.1681
  64   2.0000      -0.326871        -8.8946
  65   2.0000      -0.318131        -8.6568
  66   2.0000      -0.294541        -8.0149
  67   0.0000       0.031689         0.8623
  68   0.0000       0.078393         2.1332
  69   0.0000       0.113788         3.0963
  70   0.0000       0.126419         3.4400
  71   0.0000       0.130963         3.5637

MULLIKEN ATOMIC CHARGES
-----------------------
   0 S :    0.135907
   1 C :   -0.151991
   2 C :   -0.083319
   3 C :    0.041298
   4 C :   -0.164595
   5 H :    0.007454
   6 C :    0.023603
   7 H :    0.054881
   8 H :    0.039836
   9 C :   -0.059385
  10 H :    0.036882
  11 H :    0.037326
  12 C :   -0.053966
  13 H :    0.030449
  14 H :    0.012311
  15 H :    0.039515
  16 S :    0.116323
  17 C :   -0.087998
  18 C :   -0.029931
  19 C :   -0.068902
  20 C :   -0.178033
  21 H :    0.006060
  22 C :    0.125977
  23 H :    0.004823
  24 H :    0.031869
  25 C :   -0.092364
  26 H :    0.037667
  27 H :    0.025791
  28 C :   -0.063089
  29 H :    0.046781
  30 H :    0.036203
  31 H :    0.037209
  32 H :    0.056121
  33 H :    0.049289
Sum of atomic charges:    0.0000000

LOEWDIN ATOMIC CHARGES
----------------------
   0 S :    0.451734
   1 C :   -0.217079
   2 C :   -0.068391
   3 C :   -0.054283
   4 C :   -0.229504
   5 H :    0.025100
   6 C :   -0.028419
   7 H :    0.039454
   8 H :    0.040017
   9 C :   -0.034220
  10 H :    0.025269
  11 H :    0.029310
  12 C :   -0.078789
  13 H :    0.025083
  14 H :    0.023599
  15 H :    0.027207
  16 S :    0.413271
  17 C :   -0.198335
  18 C :   -0.074686
  19 C :   -0.061427
  20 C :   -0.196768
  21 H :    0.023569
  22 C :   -0.025409
  23 H :    0.025230
  24 H :    0.032511
  25 C :   -0.035355
  26 H :    0.024335
  27 H :    0.024715
  28 C :   -0.070559
  29 H :    0.028355
  30 H :    0.029781
  31 H :    0.023802
  32 H :    0.033937
  33 H :    0.026945

  Mayer bond orders larger than 0.100000
B(  0-S ,  1-C ) :   1.1417 B(  0-S ,  4-C ) :   1.1826 B(  1-C ,  2-C ) :   1.6060
B(  1-C , 32-H ) :   0.9595 B(  2-C ,  3-C ) :   1.2564 B(  2-C ,  6-C ) :   1.0224
B(  3-C ,  4-C ) :   1.5444 B(  3-C ,  5-H ) :   0.9939 B(  4-C , 20-C ) :   1.0339
B(  6-C ,  7-H ) :   0.9406 B(  6-C ,  8-H ) :   0.9432 B(  6-C ,  9-C ) :   1.0543
B(  9-C , 10-H ) :   0.9547 B(  9-C , 11-H ) :   0.9580 B(  9-C , 12-C ) :   1.0837
B( 12-C , 13-H ) :   0.9723 B( 12-C , 14-H ) :   0.9715 B( 12-C , 15-H ) :   0.9729
B( 16-S , 17-C ) :   1.1601 B( 16-S , 20-C ) :   1.1417 B( 17-C , 18-C ) :   1.6008
B( 17-C , 33-H ) :   0.9743 B( 18-C , 19-C ) :   1.2411 B( 18-C , 21-H ) :   0.9889
B( 19-C , 20-C ) :   1.6130 B( 19-C , 22-C ) :   1.0464 B( 22-C , 23-H ) :   0.9320
B( 22-C , 24-H ) :   0.9286 B( 22-C , 25-C ) :   1.0468 B( 25-C , 26-H ) :   0.9599
B( 25-C , 27-H ) :   0.9564 B( 25-C , 28-C ) :   1.0826 B( 28-C , 29-H ) :   0.9753
B( 28-C , 30-H ) :   0.9756 B( 28-C , 31-H ) :   0.9772

Dispersion correction           -0.014366304
FINAL SINGLE POINT ENERGY     -1339.851644022601

DIPOLE MOMENT
-------------
                                X             Y             Z
Electronic contribution:     24.53031       7.44359      11.35507
Nuclear contribution   :    -24.92088      -7.63786     -11.64831
                        -----------------------------------------
Total Dipole Moment    :     -0.39057      -0.19427      -0.29324
                        -----------------------------------------
Magnitude (a.u.)       :      0.52562
Magnitude (Debye)      :      1.33602

Rotational constants in cm-1:     0.018285     0.009018     0.007010
Rotational constants in MHz :   548.169193   270.349913   210.165689

                             ****ORCA TERMINATED NORMALLY****
TOTAL RUN TIME: 0 days 0 hours 0 minutes 30 seconds 605 msec
