                         Program Version 4.2.1 -  RELEASE  -
|  1> ! wB97X-D3 SP def2-SVP
|  2> %pal
|  3> nprocs 16
|  4> end
|  5>
|  6> * xyz 0 1
|  7> S 	 6.97185 	 -10.5665 	 95.2535
|  8> C 	 8.23795 	 -9.45828 	 95.9331
|  9> C 	 9.19852 	 -9.255 	 94.9782
| 10> C 	 8.81867 	 -9.72813 	 93.6885
| 11> C 	 7.61128 	 -10.4241 	 93.676
| 12> H 	 9.41549 	 -9.46695 	 92.8125
| 13> C 	 10.4584 	 -8.41357 	 95.2007
| 14> H 	 11.351 	 -9.07141 	 95.0288
| 15> H 	 10.627 	 -8.11315 	 96.2836
| 16> C 	 10.3946 	 -7.15901 	 94.3359
| 17> H 	 11.3257 	 -6.59546 	 94.4717
| 18> H 	 10.3848 	 -7.50249 	 93.3003
| 19> C 	 9.29314 	 -6.17099 	 94.732
| 20> H 	 8.3908 	 -6.32719 	 94.1263
| 21> H 	 9.10932 	 -6.28275 	 95.8431
| 22> H 	 9.59225 	 -5.13073 	 94.61
| 23> S 	 7.06083 	 -12.7054 	 92.2696
| 24> C 	 5.77264 	 -12.5737 	 91.0733
| 25> C 	 5.38849 	 -11.2885 	 90.8714
| 26> C 	 6.00526 	 -10.3759 	 91.7295
| 27> C 	 6.90652 	 -11.0086 	 92.5676
| 28> H 	 4.71769 	 -11.035 	 90.0549
| 29> C 	 5.65729 	 -8.9373 	 91.7442
| 30> H 	 5.52288 	 -8.70752 	 90.6828
| 31> H 	 6.47476 	 -8.25933 	 92.0877
| 32> C 	 4.33 	 -8.57231 	 92.4658
| 33> H 	 3.54102 	 -9.2427 	 92.2061
| 34> H 	 4.06647 	 -7.48821 	 92.3899
| 35> C 	 4.52037 	 -8.665 	 93.987
| 36> H 	 4.6689 	 -9.70144 	 94.3454
| 37> H 	 3.68116 	 -8.29347 	 94.5754
| 38> H 	 5.32576 	 -8.14161 	 94.3784
| 39> H 	 8.37722 	 -9.15209 	 96.9834
| 40> H 	 5.45135 	 -13.4008 	 90.532
| 41> *
| 42>
| 43>                          ****END OF INPUT****

CARTESIAN COORDINATES (ANGSTROEM)
---------------------------------
  S      6.971850  -10.566500   95.253500
  C      8.237950   -9.458280   95.933100
  C      9.198520   -9.255000   94.978200
  C      8.818670   -9.728130   93.688500
  C      7.611280  -10.424100   93.676000
  H      9.415490   -9.466950   92.812500
  C     10.458400   -8.413570   95.200700
  H     11.351000   -9.071410   95.028800
  H     10.627000   -8.113150   96.283600
  C     10.394600   -7.159010   94.335900
  H     11.325700   -6.595460   94.471700
  H     10.384800   -7.502490   93.300300
  C      9.293140   -6.170990   94.732000
  H      8.390800   -6.327190   94.126300
  H      9.109320   -6.282750   95.843100
  H      9.592250   -5.130730   94.610000
  S      7.060830  -12.705400   92.269600
  C      5.772640  -12.573700   91.073300
  C      5.388490  -11.288500   90.871400
  C      6.005260  -10.375900   91.729500
  C      6.906520  -11.008600   92.567600
  H      4.717690  -11.035000   90.054900
  C      5.657290   -8.937300   91.744200
  H      5.522880   -8.707520   90.682800
  H      6.474760   -8.259330   92.087700
  C      4.330000   -8.572310   92.465800
  H      3.541020   -9.242700   92.206100
  H      4.066470   -7.488210   92.389900
  C      4.520370   -8.665000   93.987000
  H      4.668900   -9.701440   94.345400
  H      3.681160   -8.293470   94.575400
  H      5.325760   -8.141610   94.378400
  H      8.377220   -9.152090   96.983400
  H      5.451350  -13.400800   90.532000

 Total Charge           Charge          ....    0
 Multiplicity           Mult            ....    1
 Number of Electrons    NEL             ....  134
 Basis Dimension        Dim             ....  322

ORBITAL ENERGIES
----------------

  NO   OCC          E(Eh)            E(eV)
   0   2.0000     -88.966266     -2420.8952
   1   2.0000     -88.963381     -2420.8167
   2   2.0000     -10.325036      -280.9585
   3   2.0000     -10.318968      -280.7934
   4   2.0000     -10.316021      -280.7132
   5   2.0000     -10.311841      -280.5995
   6   2.0000     -10.300311      -280.2857
   7   2.0000     -10.298160      -280.2272
   8   2.0000     -10.297237      -280.2021
   9   2.0000     -10.293863      -280.1102
  10   2.0000     -10.291014      -280.0327
  11   2.0000     -10.289768      -279.9988
  12   2.0000     -10.287355      -279.9332
  13   2.0000     -10.285491      -279.8824
  14   2.0000     -10.282040      -279.7885
  15   2.0000     -10.257655      -279.1250
  16   2.0000      -8.081390      -219.9058
  17   2.0000      -8.077515      -219.8004
  18   2.0000      -6.039730      -164.3494
  19   2.0000      -6.036126      -164.2513
  20   2.0000      -6.035907      -164.2454
  21   2.0000      -6.032243      -164.1457
  22   2.0000      -6.032023      -164.1397
  23   2.0000      -6.028236      -164.0366
  24   2.0000      -1.011827       -27.5332
  25   2.0000      -0.985489       -26.8165
  26   2.0000      -0.914228       -24.8774
  27   2.0000      -0.908083       -24.7102
  28   2.0000      -0.870531       -23.6884
  29   2.0000      -0.850003       -23.1298
  30   2.0000      -0.839806       -22.8523
  31   2.0000      -0.811140       -22.0722
  32   2.0000      -0.784220       -21.3397
  33   2.0000      -0.770981       -20.9795
  34   2.0000      -0.710678       -19.3385
  35   2.0000      -0.696147       -18.9431
  36   2.0000      -0.689271       -18.7560
  37   2.0000      -0.663173       -18.0459
  38   2.0000      -0.633351       -17.2344
  39   2.0000      -0.622645       -16.9430
  40   2.0000      -0.604327       -16.4446
  41   2.0000      -0.567867       -15.4525
  42   2.0000      -0.551898       -15.0179
  43   2.0000      -0.551012       -14.9938
  44   2.0000      -0.543568       -14.7912
  45   2.0000      -0.537707       -14.6318
  46   2.0000      -0.515795       -14.0355
  47   2.0000      -0.503892       -13.7116
  48   2.0000      -0.498793       -13.5728
  49   2.0000      -0.494009       -13.4427
  50   2.0000      -0.490856       -13.3569
  51   2.0000      -0.476156       -12.9569
  52   2.0000      -0.467603       -12.7241
  53   2.0000      -0.464780       -12.6473
  54   2.0000      -0.461427       -12.5561
  55   2.0000      -0.446147       -12.1403
  56   2.0000      -0.442644       -12.0449
  57   2.0000      -0.435501       -11.8506
  58   2.0000      -0.432129       -11.7588
  59   2.0000      -0.426066       -11.5939
  60   2.0000      -0.423702       -11.5295
  61   2.0000      -0.410270       -11.1640
  62   2.0000      -0.402071       -10.9409
  63   2.0000      -0.338986        -9.2243
  64   2.0000      -0.327250        -8.9049
  65   2.0000      -0.319688        -8.6991
  66   2.0000      -0.308599        -8.3974
  67   0.0000       0.046785         1.2731
  68   0.0000       0.052016         1.4154
  69   0.0000       0.111024         3.0211
  70   0.0000       0.114531         3.1165
  71   0.0000       0.124779         3.3954

MULLIKEN ATOMIC CHARGES
-----------------------
   0 S :    0.109239
   1 C :   -0.139345
   2 C :   -0.077313
   3 C :    0.043744
   4 C :   -0.166695
   5 H :    0.013412
   6 C :    0.022683
   7 H :    0.046031
   8 H :    0.023937
   9 C :   -0.080323
  10 H :    0.028197
  11 H :    0.030907
  12 C :   -0.055452
  13 H :    0.048057
  14 H :    0.033598
  15 H :    0.035107
  16 S :    0.123373
  17 C :   -0.072206
  18 C :   -0.027748
  19 C :    0.002384
  20 C :   -0.195277
  21 H :    0.019464
  22 C :    0.064756
  23 H :    0.021037
  24 H :    0.033155
  25 C :   -0.038066
  26 H :    0.026781
  27 H :    0.039313
  28 C :   -0.057309
  29 H :    0.031885
  30 H :    0.020018
  31 H :    0.007923
  32 H :    0.054060
  33 H :    0.030674
Sum of atomic charges:    0.0000000

LOEWDIN ATOMIC CHARGES
----------------------
   0 S :    0.427178
   1 C :   -0.189671
   2 C :   -0.065957
   3 C :   -0.065650
   4 C :   -0.203916
   5 H :    0.031431
   6 C :   -0.037719
   7 H :    0.037491
   8 H :    0.030084
   9 C :   -0.047100
  10 H :    0.025499
  11 H :    0.021269
  12 C :   -0.067734
  13 H :    0.028851
  14 H :    0.032535
  15 H :    0.026062
  16 S :    0.413468
  17 C :   -0.163818
  18 C :   -0.068016
  19 C :   -0.055482
  20 C :   -0.215279
  21 H :    0.035428
  22 C :   -0.034616
  23 H :    0.032210
  24 H :    0.035572
  25 C :   -0.032276
  26 H :    0.021191
  27 H :    0.032749
  28 C :   -0.074959
  29 H :    0.010693
  30 H :    0.022805
  31 H :    0.009310
  32 H :    0.034154
  33 H :    0.014214

  Mayer bond orders larger than 0.100000
B(  0-S ,  1-C ) :   1.1191 B(  0-S ,  4-C ) :   1.1759 B(  1-C ,  2-C ) :   1.6279
B(  1-C , 32-H ) :   0.9650 B(  2-C ,  3-C ) :   1.2318 B(  2-C ,  6-C ) :   1.0168
B(  3-C ,  4-C ) :   1.5771 B(  3-C ,  5-H ) :   0.9939 B(  4-C , 20-C ) :   1.0119
B(  6-C ,  7-H ) :   0.9403 B(  6-C ,  8-H ) :   0.9464 B(  6-C ,  9-C ) :   1.0776
B(  9-C , 10-H ) :   0.9564 B(  9-C , 11-H ) :   0.9586 B(  9-C , 12-C ) :   1.0578
B( 12-C , 13-H ) :   0.9744 B( 12-C , 14-H ) :   0.9747 B( 12-C , 15-H ) :   0.9781
B( 16-S , 17-C ) :   1.1515 B( 16-S , 20-C ) :   1.1615 B( 17-C , 18-C ) :   1.6072
B( 17-C , 33-H ) :   0.9759 B( 18-C , 19-C ) :   1.2500 B( 18-C , 21-H ) :   0.9884
B( 19-C , 20-C ) :   1.5835 B( 19-C , 22-C ) :   1.0451 B( 22-C , 23-H ) :   0.9236
B( 22-C , 24-H ) :   0.9332 B( 22-C , 25-C ) :   1.0770 B( 25-C , 26-H ) :   0.9559
B( 25-C , 27-H ) :   0.9566 B( 25-C , 28-C ) :   1.0715 B( 28-C , 29-H ) :   0.9685
B( 28-C , 30-H ) :   0.9704 B( 28-C , 31-H ) :   0.9743

Dispersion correction           -0.016477438
FINAL SINGLE POINT ENERGY     -1339.881954729088

DIPOLE MOMENT
-------------
                                X             Y             Z
Electronic contribution:     -1.29784     -24.66495      -2.18289
Nuclear contribution   :      1.46421      25.15975       1.97619
                        -----------------------------------------
Total Dipole Moment    :      0.16636       0.49481      -0.20670
                        -----------------------------------------
Magnitude (a.u.)       :      0.56146
Magnitude (Debye)      :      1.42712

Rotational constants in cm-1:     0.021373     0.009488     0.008334
Rotational constants in MHz :   640.746817   284.448163   249.832149

                             ****ORCA TERMINATED NORMALLY****
TOTAL RUN TIME: 0 days 0 hours 0 minutes 37 seconds 446 msec
