                         Program Version 4.2.1 -  RELEASE  -
|  1> ! wB97X-D3 SP def2-SVP
|  2> %pal
|  3> nprocs 16
|  4> end
|  5>
|  6> * xyz 0 1
|  7> S 	 -15.8802 	 30.4274 	 36.1423
|  8> C 	 -15.9182 	 30.2691 	 37.8259
|  9> C 	 -14.9947 	 31.1371 	 38.4216
| 10> C 	 -14.1955 	 31.8072 	 37.4838
| 11> C 	 -14.6116 	 31.6071 	 36.1867
| 12> H 	 -13.3723 	 32.4818 	 37.6393
| 13> C 	 -14.9363 	 31.3759 	 39.884
| 14> H 	 -13.8854 	 31.5659 	 40.1499
| 15> H 	 -15.283 	 30.4993 	 40.4305
| 16> C 	 -15.7124 	 32.5868 	 40.4327
| 17> H 	 -16.7853 	 32.4112 	 40.3826
| 18> H 	 -15.3534 	 32.7619 	 41.4069
| 19> C 	 -15.5767 	 33.8938 	 39.6852
| 20> H 	 -14.6092 	 34.4626 	 39.8331
| 21> H 	 -15.6877 	 33.7465 	 38.631
| 22> H 	 -16.3612 	 34.6 	 40.0418
| 23> S 	 -13.4643 	 30.6857 	 33.7965
| 24> C 	 -12.8209 	 31.7719 	 32.6248
| 25> C 	 -12.9642 	 33.052 	 33.1137
| 26> C 	 -13.5917 	 33.1689 	 34.3771
| 27> C 	 -13.9503 	 31.9431 	 34.9411
| 28> H 	 -12.6028 	 33.8789 	 32.5395
| 29> C 	 -13.6452 	 34.5265 	 35.0985
| 30> H 	 -13.0617 	 34.466 	 36.0577
| 31> H 	 -14.7058 	 34.6779 	 35.3638
| 32> C 	 -13.0564 	 35.7201 	 34.2504
| 33> H 	 -13.5225 	 35.8603 	 33.2366
| 34> H 	 -12.0709 	 35.481 	 33.9375
| 35> C 	 -13.0813 	 37.1867 	 34.8933
| 36> H 	 -12.4692 	 37.784 	 34.3368
| 37> H 	 -12.5196 	 37.1797 	 35.8156
| 38> H 	 -14.0734 	 37.6363 	 34.9542
| 39> H 	 -16.4813 	 29.6152 	 38.4293
| 40> H 	 -12.1632 	 31.5649 	 31.7742
| 41> *
| 42>
| 43>                          ****END OF INPUT****

CARTESIAN COORDINATES (ANGSTROEM)
---------------------------------
  S    -15.880200   30.427400   36.142300
  C    -15.918200   30.269100   37.825900
  C    -14.994700   31.137100   38.421600
  C    -14.195500   31.807200   37.483800
  C    -14.611600   31.607100   36.186700
  H    -13.372300   32.481800   37.639300
  C    -14.936300   31.375900   39.884000
  H    -13.885400   31.565900   40.149900
  H    -15.283000   30.499300   40.430500
  C    -15.712400   32.586800   40.432700
  H    -16.785300   32.411200   40.382600
  H    -15.353400   32.761900   41.406900
  C    -15.576700   33.893800   39.685200
  H    -14.609200   34.462600   39.833100
  H    -15.687700   33.746500   38.631000
  H    -16.361200   34.600000   40.041800
  S    -13.464300   30.685700   33.796500
  C    -12.820900   31.771900   32.624800
  C    -12.964200   33.052000   33.113700
  C    -13.591700   33.168900   34.377100
  C    -13.950300   31.943100   34.941100
  H    -12.602800   33.878900   32.539500
  C    -13.645200   34.526500   35.098500
  H    -13.061700   34.466000   36.057700
  H    -14.705800   34.677900   35.363800
  C    -13.056400   35.720100   34.250400
  H    -13.522500   35.860300   33.236600
  H    -12.070900   35.481000   33.937500
  C    -13.081300   37.186700   34.893300
  H    -12.469200   37.784000   34.336800
  H    -12.519600   37.179700   35.815600
  H    -14.073400   37.636300   34.954200
  H    -16.481300   29.615200   38.429300
  H    -12.163200   31.564900   31.774200

 Total Charge           Charge          ....    0
 Multiplicity           Mult            ....    1
 Number of Electrons    NEL             ....  134
 Basis Dimension        Dim             ....  322

ORBITAL ENERGIES
----------------

  NO   OCC          E(Eh)            E(eV)
   0   2.0000     -88.967715     -2420.9346
   1   2.0000     -88.964283     -2420.8412
   2   2.0000     -10.327076      -281.0140
   3   2.0000     -10.326485      -280.9979
   4   2.0000     -10.315446      -280.6976
   5   2.0000     -10.308912      -280.5198
   6   2.0000     -10.302362      -280.3415
   7   2.0000     -10.302108      -280.3346
   8   2.0000     -10.296780      -280.1896
   9   2.0000     -10.295082      -280.1434
  10   2.0000     -10.292627      -280.0766
  11   2.0000     -10.289093      -279.9805
  12   2.0000     -10.286927      -279.9215
  13   2.0000     -10.280355      -279.7427
  14   2.0000     -10.276232      -279.6305
  15   2.0000     -10.275468      -279.6097
  16   2.0000      -8.083556      -219.9647
  17   2.0000      -8.078921      -219.8386
  18   2.0000      -6.041822      -164.4063
  19   2.0000      -6.037695      -164.2940
  20   2.0000      -6.037453      -164.2875
  21   2.0000      -6.034712      -164.2129
  22   2.0000      -6.033203      -164.1718
  23   2.0000      -6.029855      -164.0807
  24   2.0000      -1.014302       -27.6006
  25   2.0000      -0.990231       -26.9455
  26   2.0000      -0.916259       -24.9327
  27   2.0000      -0.897871       -24.4323
  28   2.0000      -0.873213       -23.7613
  29   2.0000      -0.853853       -23.2345
  30   2.0000      -0.844081       -22.9686
  31   2.0000      -0.819381       -22.2965
  32   2.0000      -0.784300       -21.3419
  33   2.0000      -0.773249       -21.0412
  34   2.0000      -0.711646       -19.3649
  35   2.0000      -0.703859       -19.1530
  36   2.0000      -0.697391       -18.9770
  37   2.0000      -0.652294       -17.7498
  38   2.0000      -0.643720       -17.5165
  39   2.0000      -0.616757       -16.7828
  40   2.0000      -0.593640       -16.1538
  41   2.0000      -0.580781       -15.8038
  42   2.0000      -0.560985       -15.2652
  43   2.0000      -0.556033       -15.1304
  44   2.0000      -0.545402       -14.8411
  45   2.0000      -0.526747       -14.3335
  46   2.0000      -0.514458       -13.9991
  47   2.0000      -0.512953       -13.9582
  48   2.0000      -0.507050       -13.7975
  49   2.0000      -0.504539       -13.7292
  50   2.0000      -0.492020       -13.3885
  51   2.0000      -0.477271       -12.9872
  52   2.0000      -0.473258       -12.8780
  53   2.0000      -0.468864       -12.7584
  54   2.0000      -0.460172       -12.5219
  55   2.0000      -0.449175       -12.2227
  56   2.0000      -0.443222       -12.0607
  57   2.0000      -0.434944       -11.8354
  58   2.0000      -0.432192       -11.7605
  59   2.0000      -0.423651       -11.5281
  60   2.0000      -0.422482       -11.4963
  61   2.0000      -0.416030       -11.3207
  62   2.0000      -0.409348       -11.1389
  63   2.0000      -0.350449        -9.5362
  64   2.0000      -0.329638        -8.9699
  65   2.0000      -0.327987        -8.9250
  66   2.0000      -0.292090        -7.9482
  67   0.0000       0.029673         0.8074
  68   0.0000       0.066733         1.8159
  69   0.0000       0.122225         3.3259
  70   0.0000       0.127046         3.4571
  71   0.0000       0.128425         3.4946

MULLIKEN ATOMIC CHARGES
-----------------------
   0 S :    0.131464
   1 C :   -0.084836
   2 C :   -0.112096
   3 C :    0.039905
   4 C :   -0.175852
   5 H :    0.007963
   6 C :    0.076442
   7 H :    0.021224
   8 H :    0.021503
   9 C :   -0.030395
  10 H :    0.027062
  11 H :    0.023568
  12 C :   -0.098631
  13 H :    0.028046
  14 H :    0.043438
  15 H :    0.037782
  16 S :    0.112770
  17 C :   -0.080639
  18 C :   -0.060560
  19 C :   -0.041183
  20 C :   -0.158339
  21 H :    0.009125
  22 C :    0.079946
  23 H :    0.047267
  24 H :    0.044613
  25 C :   -0.151434
  26 H :    0.037389
  27 H :    0.022640
  28 C :    0.016936
  29 H :    0.001972
  30 H :    0.020573
  31 H :    0.048571
  32 H :    0.026645
  33 H :    0.067122
Sum of atomic charges:   -0.0000000

LOEWDIN ATOMIC CHARGES
----------------------
   0 S :    0.449775
   1 C :   -0.208848
   2 C :   -0.068947
   3 C :   -0.055063
   4 C :   -0.203491
   5 H :    0.031525
   6 C :   -0.033761
   7 H :    0.031571
   8 H :    0.031097
   9 C :   -0.035078
  10 H :    0.025856
  11 H :    0.020824
  12 C :   -0.073915
  13 H :    0.024225
  14 H :    0.020389
  15 H :    0.031446
  16 S :    0.416656
  17 C :   -0.202132
  18 C :   -0.079331
  19 C :   -0.059425
  20 C :   -0.204486
  21 H :    0.025907
  22 C :   -0.032379
  23 H :    0.036999
  24 H :    0.036951
  25 C :   -0.045766
  26 H :    0.027781
  27 H :    0.015576
  28 C :   -0.056299
  29 H :    0.014937
  30 H :    0.024899
  31 H :    0.029784
  32 H :    0.021678
  33 H :    0.041044

  Mayer bond orders larger than 0.100000
B(  0-S ,  1-C ) :   1.1682 B(  0-S ,  4-C ) :   1.1710 B(  1-C ,  2-C ) :   1.5578
B(  1-C , 32-H ) :   0.9739 B(  2-C ,  3-C ) :   1.2688 B(  2-C ,  6-C ) :   1.0445
B(  3-C ,  4-C ) :   1.5401 B(  3-C ,  5-H ) :   0.9973 B(  4-C , 20-C ) :   1.0448
B(  6-C ,  7-H ) :   0.9350 B(  6-C ,  8-H ) :   0.9363 B(  6-C ,  9-C ) :   1.0760
B(  9-C , 10-H ) :   0.9537 B(  9-C , 11-H ) :   0.9538 B(  9-C , 12-C ) :   1.0904
B( 12-C , 13-H ) :   0.9741 B( 12-C , 14-H ) :   0.9673 B( 12-C , 15-H ) :   0.9728
B( 16-S , 17-C ) :   1.1706 B( 16-S , 20-C ) :   1.1511 B( 17-C , 18-C ) :   1.5660
B( 17-C , 20-C ) :   0.1050 B( 17-C , 33-H ) :   0.9591 B( 18-C , 19-C ) :   1.3011
B( 18-C , 21-H ) :   0.9825 B( 19-C , 20-C ) :   1.5636 B( 19-C , 22-C ) :   1.0235
B( 22-C , 23-H ) :   0.9398 B( 22-C , 24-H ) :   0.9275 B( 22-C , 25-C ) :   1.0745
B( 25-C , 26-H ) :   0.9544 B( 25-C , 27-H ) :   0.9482 B( 25-C , 28-C ) :   1.0801
B( 28-C , 29-H ) :   0.9675 B( 28-C , 30-H ) :   0.9714 B( 28-C , 31-H ) :   0.9781

Dispersion correction           -0.014158396
FINAL SINGLE POINT ENERGY     -1339.874587373561

DIPOLE MOMENT
-------------
                                X             Y             Z
Electronic contribution:     -2.49514     -26.22278     -14.71759
Nuclear contribution   :      2.78389      26.76090      15.05093
                        -----------------------------------------
Total Dipole Moment    :      0.28874       0.53813       0.33333
                        -----------------------------------------
Magnitude (a.u.)       :      0.69575
Magnitude (Debye)      :      1.76845

Rotational constants in cm-1:     0.016835     0.009570     0.006462
Rotational constants in MHz :   504.686844   286.895315   193.732631

                             ****ORCA TERMINATED NORMALLY****
TOTAL RUN TIME: 0 days 0 hours 0 minutes 34 seconds 157 msec
