                         Program Version 4.2.1 -  RELEASE  -
|  1> ! wB97X-D3 SP def2-SVP
|  2> %pal
|  3> nprocs 16
|  4> end
|  5>
|  6> * xyz 0 1
|  7> S 	 -37.3859 	 13.1028 	 79.057
|  8> C 	 -36.2258 	 12.9842 	 77.7411
|  9> C 	 -36.7298 	 13.5058 	 76.5261
| 10> C 	 -38.0434 	 13.9498 	 76.7252
| 11> C 	 -38.5855 	 13.8782 	 78.0053
| 12> H 	 -38.5498 	 14.5637 	 75.9807
| 13> C 	 -35.9648 	 13.8112 	 75.2864
| 14> H 	 -36.7588 	 14.1251 	 74.5426
| 15> H 	 -35.6032 	 12.9032 	 74.8909
| 16> C 	 -34.8842 	 14.9278 	 75.4918
| 17> H 	 -34.0087 	 14.4803 	 75.8691
| 18> H 	 -34.6232 	 15.3152 	 74.5103
| 19> C 	 -35.1925 	 15.9909 	 76.5029
| 20> H 	 -35.0283 	 15.6509 	 77.5728
| 21> H 	 -34.4523 	 16.7658 	 76.4373
| 22> H 	 -36.145 	 16.4965 	 76.4367
| 23> S 	 -40.2519 	 14.955 	 80.0464
| 24> C 	 -41.9295 	 15.1465 	 79.6767
| 25> C 	 -42.2747 	 14.6743 	 78.4433
| 26> C 	 -41.209 	 14.1093 	 77.7176
| 27> C 	 -39.9521 	 14.206 	 78.4166
| 28> H 	 -43.3088 	 14.6642 	 78.1469
| 29> C 	 -41.547 	 13.3658 	 76.3892
| 30> H 	 -40.6852 	 13.6779 	 75.7832
| 31> H 	 -42.4462 	 13.6979 	 75.8247
| 32> C 	 -41.3921 	 11.8286 	 76.5091
| 33> H 	 -40.388 	 11.5583 	 76.9789
| 34> H 	 -41.3813 	 11.4794 	 75.5553
| 35> C 	 -42.3388 	 11.0721 	 77.4456
| 36> H 	 -42.3053 	 10.0026 	 77.5853
| 37> H 	 -43.396 	 11.2936 	 77.1661
| 38> H 	 -42.2216 	 11.4477 	 78.4132
| 39> H 	 -35.2428 	 12.65 	 78.0058
| 40> H 	 -42.633 	 15.6856 	 80.4214
| 41> *
| 42>
| 43>                          ****END OF INPUT****

CARTESIAN COORDINATES (ANGSTROEM)
---------------------------------
  S    -37.385900   13.102800   79.057000
  C    -36.225800   12.984200   77.741100
  C    -36.729800   13.505800   76.526100
  C    -38.043400   13.949800   76.725200
  C    -38.585500   13.878200   78.005300
  H    -38.549800   14.563700   75.980700
  C    -35.964800   13.811200   75.286400
  H    -36.758800   14.125100   74.542600
  H    -35.603200   12.903200   74.890900
  C    -34.884200   14.927800   75.491800
  H    -34.008700   14.480300   75.869100
  H    -34.623200   15.315200   74.510300
  C    -35.192500   15.990900   76.502900
  H    -35.028300   15.650900   77.572800
  H    -34.452300   16.765800   76.437300
  H    -36.145000   16.496500   76.436700
  S    -40.251900   14.955000   80.046400
  C    -41.929500   15.146500   79.676700
  C    -42.274700   14.674300   78.443300
  C    -41.209000   14.109300   77.717600
  C    -39.952100   14.206000   78.416600
  H    -43.308800   14.664200   78.146900
  C    -41.547000   13.365800   76.389200
  H    -40.685200   13.677900   75.783200
  H    -42.446200   13.697900   75.824700
  C    -41.392100   11.828600   76.509100
  H    -40.388000   11.558300   76.978900
  H    -41.381300   11.479400   75.555300
  C    -42.338800   11.072100   77.445600
  H    -42.305300   10.002600   77.585300
  H    -43.396000   11.293600   77.166100
  H    -42.221600   11.447700   78.413200
  H    -35.242800   12.650000   78.005800
  H    -42.633000   15.685600   80.421400

 Total Charge           Charge          ....    0
 Multiplicity           Mult            ....    1
 Number of Electrons    NEL             ....  134
 Basis Dimension        Dim             ....  322

ORBITAL ENERGIES
----------------

  NO   OCC          E(Eh)            E(eV)
   0   2.0000     -88.967977     -2420.9417
   1   2.0000     -88.966616     -2420.9047
   2   2.0000     -10.338607      -281.3278
   3   2.0000     -10.332779      -281.1692
   4   2.0000     -10.322739      -280.8960
   5   2.0000     -10.316795      -280.7343
   6   2.0000     -10.312106      -280.6067
   7   2.0000     -10.300674      -280.2956
   8   2.0000     -10.300230      -280.2835
   9   2.0000     -10.293154      -280.0910
  10   2.0000     -10.290651      -280.0229
  11   2.0000     -10.288759      -279.9714
  12   2.0000     -10.285211      -279.8748
  13   2.0000     -10.281413      -279.7715
  14   2.0000     -10.273539      -279.5572
  15   2.0000     -10.266684      -279.3707
  16   2.0000      -8.082091      -219.9249
  17   2.0000      -8.080791      -219.8895
  18   2.0000      -6.040512      -164.3707
  19   2.0000      -6.039242      -164.3361
  20   2.0000      -6.036712      -164.2673
  21   2.0000      -6.035233      -164.2270
  22   2.0000      -6.032965      -164.1653
  23   2.0000      -6.031818      -164.1341
  24   2.0000      -0.998971       -27.1834
  25   2.0000      -0.980573       -26.6827
  26   2.0000      -0.912977       -24.8434
  27   2.0000      -0.902932       -24.5700
  28   2.0000      -0.863687       -23.5021
  29   2.0000      -0.851137       -23.1606
  30   2.0000      -0.845836       -23.0164
  31   2.0000      -0.809168       -22.0186
  32   2.0000      -0.787400       -21.4262
  33   2.0000      -0.771974       -21.0065
  34   2.0000      -0.707370       -19.2485
  35   2.0000      -0.705543       -19.1988
  36   2.0000      -0.684763       -18.6334
  37   2.0000      -0.656747       -17.8710
  38   2.0000      -0.638518       -17.3750
  39   2.0000      -0.616783       -16.7835
  40   2.0000      -0.590790       -16.0762
  41   2.0000      -0.569966       -15.5096
  42   2.0000      -0.558417       -15.1953
  43   2.0000      -0.548841       -14.9347
  44   2.0000      -0.544826       -14.8255
  45   2.0000      -0.535403       -14.5690
  46   2.0000      -0.509276       -13.8581
  47   2.0000      -0.507821       -13.8185
  48   2.0000      -0.496336       -13.5060
  49   2.0000      -0.490204       -13.3391
  50   2.0000      -0.489255       -13.3133
  51   2.0000      -0.475309       -12.9338
  52   2.0000      -0.469455       -12.7745
  53   2.0000      -0.467173       -12.7124
  54   2.0000      -0.462142       -12.5755
  55   2.0000      -0.448623       -12.2077
  56   2.0000      -0.440887       -11.9971
  57   2.0000      -0.439661       -11.9638
  58   2.0000      -0.429124       -11.6771
  59   2.0000      -0.425120       -11.5681
  60   2.0000      -0.415898       -11.3172
  61   2.0000      -0.412217       -11.2170
  62   2.0000      -0.403400       -10.9771
  63   2.0000      -0.349646        -9.5143
  64   2.0000      -0.335566        -9.1312
  65   2.0000      -0.332100        -9.0369
  66   2.0000      -0.279338        -7.6012
  67   0.0000       0.016833         0.4580
  68   0.0000       0.070551         1.9198
  69   0.0000       0.104853         2.8532
  70   0.0000       0.125054         3.4029
  71   0.0000       0.130072         3.5394

MULLIKEN ATOMIC CHARGES
-----------------------
   0 S :    0.098940
   1 C :   -0.142967
   2 C :   -0.092823
   3 C :   -0.014407
   4 C :   -0.130194
   5 H :    0.025887
   6 C :    0.096470
   7 H :    0.023895
   8 H :    0.025225
   9 C :   -0.045659
  10 H :    0.015661
  11 H :    0.030466
  12 C :   -0.038881
  13 H :    0.038712
  14 H :    0.020259
  15 H :    0.032787
  16 S :    0.101016
  17 C :   -0.122795
  18 C :   -0.025923
  19 C :   -0.044869
  20 C :   -0.163812
  21 H :    0.014495
  22 C :    0.064408
  23 H :    0.016079
  24 H :    0.042352
  25 C :   -0.045135
  26 H :    0.045175
  27 H :    0.009184
  28 C :   -0.038516
  29 H :    0.034747
  30 H :    0.012236
  31 H :    0.022279
  32 H :    0.045463
  33 H :    0.090244
Sum of atomic charges:   -0.0000000

LOEWDIN ATOMIC CHARGES
----------------------
   0 S :    0.396810
   1 C :   -0.188441
   2 C :   -0.063203
   3 C :   -0.071782
   4 C :   -0.192047
   5 H :    0.029705
   6 C :   -0.029525
   7 H :    0.035786
   8 H :    0.027260
   9 C :   -0.033993
  10 H :    0.021456
  11 H :    0.025509
  12 C :   -0.069207
  13 H :    0.035771
  14 H :    0.024942
  15 H :    0.023063
  16 S :    0.390550
  17 C :   -0.198332
  18 C :   -0.083052
  19 C :   -0.044503
  20 C :   -0.188618
  21 H :    0.032224
  22 C :   -0.029588
  23 H :    0.034593
  24 H :    0.035420
  25 C :   -0.031834
  26 H :    0.039146
  27 H :    0.007622
  28 C :   -0.069637
  29 H :    0.027148
  30 H :    0.020891
  31 H :    0.019360
  32 H :    0.018367
  33 H :    0.048136

  Mayer bond orders larger than 0.100000
B(  0-S ,  1-C ) :   1.1625 B(  0-S ,  4-C ) :   1.1468 B(  1-C ,  2-C ) :   1.5323
B(  1-C ,  4-C ) :   0.1136 B(  1-C , 32-H ) :   0.9781 B(  2-C ,  3-C ) :   1.3038
B(  2-C ,  6-C ) :   1.0278 B(  3-C ,  4-C ) :   1.5494 B(  3-C ,  5-H ) :   0.9752
B(  4-C , 20-C ) :   1.0725 B(  6-C ,  7-H ) :   0.9403 B(  6-C ,  8-H ) :   0.9336
B(  6-C ,  9-C ) :   1.0537 B(  9-C , 10-H ) :   0.9493 B(  9-C , 11-H ) :   0.9601
B(  9-C , 12-C ) :   1.0969 B( 12-C , 13-H ) :   0.9650 B( 12-C , 14-H ) :   0.9671
B( 12-C , 15-H ) :   0.9759 B( 16-S , 17-C ) :   1.1691 B( 16-S , 20-C ) :   1.1342
B( 17-C , 18-C ) :   1.5848 B( 17-C , 20-C ) :   0.1066 B( 17-C , 33-H ) :   0.9518
B( 18-C , 19-C ) :   1.2717 B( 18-C , 21-H ) :   0.9962 B( 19-C , 20-C ) :   1.5464
B( 19-C , 22-C ) :   1.0175 B( 22-C , 23-H ) :   0.9249 B( 22-C , 24-H ) :   0.9467
B( 22-C , 25-C ) :   1.0728 B( 25-C , 26-H ) :   0.9567 B( 25-C , 27-H ) :   0.9591
B( 25-C , 28-C ) :   1.0631 B( 28-C , 29-H ) :   0.9769 B( 28-C , 30-H ) :   0.9738
B( 28-C , 31-H ) :   0.9743

Dispersion correction           -0.015559566
FINAL SINGLE POINT ENERGY     -1339.863175670434

DIPOLE MOMENT
-------------
                                X             Y             Z
Electronic contribution:     -1.86095       2.99641      18.04198
Nuclear contribution   :      1.88322      -2.89229     -18.58277
                        -----------------------------------------
Total Dipole Moment    :      0.02227       0.10412      -0.54080
                        -----------------------------------------
Magnitude (a.u.)       :      0.55118
Magnitude (Debye)      :      1.40098

Rotational constants in cm-1:     0.021104     0.008467     0.007415
Rotational constants in MHz :   632.674519   253.824531   222.282198

                             ****ORCA TERMINATED NORMALLY****
TOTAL RUN TIME: 0 days 0 hours 0 minutes 31 seconds 711 msec
