                         Program Version 4.2.1 -  RELEASE  -
|  1> ! wB97X-D3 SP def2-SVP
|  2> %pal
|  3> nprocs 16
|  4> end
|  5>
|  6> * xyz 0 1
|  7> S 	 47.6377 	 12.0373 	 84.6689
|  8> C 	 46.5507 	 12.8399 	 83.4851
|  9> C 	 47.197 	 13.5219 	 82.5186
| 10> C 	 48.6199 	 13.5704 	 82.7927
| 11> C 	 49.0279 	 12.8182 	 83.9002
| 12> H 	 49.2936 	 13.9679 	 82.0893
| 13> C 	 46.5678 	 14.0803 	 81.2809
| 14> H 	 45.5953 	 13.6075 	 81.0091
| 15> H 	 47.2523 	 13.749 	 80.4972
| 16> C 	 46.4945 	 15.6235 	 81.1133
| 17> H 	 47.4932 	 16.0713 	 81.0404
| 18> H 	 46.061 	 15.8375 	 80.1898
| 19> C 	 45.5297 	 16.3384 	 82.0501
| 20> H 	 45.7204 	 17.3997 	 82.1054
| 21> H 	 44.5783 	 16.255 	 81.5958
| 22> H 	 45.5043 	 15.9328 	 83.0472
| 23> S 	 50.9808 	 12.8587 	 85.7904
| 24> C 	 52.4478 	 12.0384 	 85.4697
| 25> C 	 52.5582 	 11.6867 	 84.1142
| 26> C 	 51.3367 	 11.8963 	 83.3537
| 27> C 	 50.377 	 12.4476 	 84.1757
| 28> H 	 53.4568 	 11.2305 	 83.6745
| 29> C 	 51.3033 	 11.4386 	 81.9399
| 30> H 	 50.4001 	 11.6516 	 81.4173
| 31> H 	 51.3757 	 10.3517 	 81.8731
| 32> C 	 52.3883 	 12.0354 	 81.0661
| 33> H 	 52.5325 	 11.3976 	 80.2639
| 34> H 	 53.4448 	 11.8601 	 81.3709
| 35> C 	 52.1425 	 13.4679 	 80.6135
| 36> H 	 52.3019 	 14.1568 	 81.4392
| 37> H 	 51.0703 	 13.6104 	 80.3097
| 38> H 	 52.8161 	 13.9129 	 79.8819
| 39> H 	 45.5014 	 12.6046 	 83.4615
| 40> H 	 53.24 	 11.8496 	 86.1406
| 41> *
| 42>
| 43>                          ****END OF INPUT****

CARTESIAN COORDINATES (ANGSTROEM)
---------------------------------
  S     47.637700   12.037300   84.668900
  C     46.550700   12.839900   83.485100
  C     47.197000   13.521900   82.518600
  C     48.619900   13.570400   82.792700
  C     49.027900   12.818200   83.900200
  H     49.293600   13.967900   82.089300
  C     46.567800   14.080300   81.280900
  H     45.595300   13.607500   81.009100
  H     47.252300   13.749000   80.497200
  C     46.494500   15.623500   81.113300
  H     47.493200   16.071300   81.040400
  H     46.061000   15.837500   80.189800
  C     45.529700   16.338400   82.050100
  H     45.720400   17.399700   82.105400
  H     44.578300   16.255000   81.595800
  H     45.504300   15.932800   83.047200
  S     50.980800   12.858700   85.790400
  C     52.447800   12.038400   85.469700
  C     52.558200   11.686700   84.114200
  C     51.336700   11.896300   83.353700
  C     50.377000   12.447600   84.175700
  H     53.456800   11.230500   83.674500
  C     51.303300   11.438600   81.939900
  H     50.400100   11.651600   81.417300
  H     51.375700   10.351700   81.873100
  C     52.388300   12.035400   81.066100
  H     52.532500   11.397600   80.263900
  H     53.444800   11.860100   81.370900
  C     52.142500   13.467900   80.613500
  H     52.301900   14.156800   81.439200
  H     51.070300   13.610400   80.309700
  H     52.816100   13.912900   79.881900
  H     45.501400   12.604600   83.461500
  H     53.240000   11.849600   86.140600

 Total Charge           Charge          ....    0
 Multiplicity           Mult            ....    1
 Number of Electrons    NEL             ....  134
 Basis Dimension        Dim             ....  322

ORBITAL ENERGIES
----------------

  NO   OCC          E(Eh)            E(eV)
   0   2.0000     -88.964209     -2420.8392
   1   2.0000     -88.963180     -2420.8112
   2   2.0000     -10.327309      -281.0204
   3   2.0000     -10.322212      -280.8817
   4   2.0000     -10.313611      -280.6476
   5   2.0000     -10.311274      -280.5840
   6   2.0000     -10.303801      -280.3807
   7   2.0000     -10.298602      -280.2392
   8   2.0000     -10.297471      -280.2084
   9   2.0000     -10.294780      -280.1352
  10   2.0000     -10.292890      -280.0838
  11   2.0000     -10.291309      -280.0408
  12   2.0000     -10.283788      -279.8361
  13   2.0000     -10.282264      -279.7946
  14   2.0000     -10.281914      -279.7851
  15   2.0000     -10.267163      -279.3837
  16   2.0000      -8.079390      -219.8514
  17   2.0000      -8.077174      -219.7911
  18   2.0000      -6.037886      -164.2992
  19   2.0000      -6.035807      -164.2427
  20   2.0000      -6.033870      -164.1899
  21   2.0000      -6.031937      -164.1374
  22   2.0000      -6.030112      -164.0877
  23   2.0000      -6.027691      -164.0218
  24   2.0000      -1.003561       -27.3083
  25   2.0000      -0.978964       -26.6390
  26   2.0000      -0.919227       -25.0134
  27   2.0000      -0.911471       -24.8024
  28   2.0000      -0.871030       -23.7019
  29   2.0000      -0.852267       -23.1914
  30   2.0000      -0.843681       -22.9577
  31   2.0000      -0.808054       -21.9883
  32   2.0000      -0.788653       -21.4603
  33   2.0000      -0.778927       -21.1957
  34   2.0000      -0.717839       -19.5334
  35   2.0000      -0.703426       -19.1412
  36   2.0000      -0.696697       -18.9581
  37   2.0000      -0.659171       -17.9369
  38   2.0000      -0.638293       -17.3688
  39   2.0000      -0.621335       -16.9074
  40   2.0000      -0.604355       -16.4453
  41   2.0000      -0.566279       -15.4092
  42   2.0000      -0.563792       -15.3416
  43   2.0000      -0.549222       -14.9451
  44   2.0000      -0.547599       -14.9009
  45   2.0000      -0.531522       -14.4635
  46   2.0000      -0.516800       -14.0628
  47   2.0000      -0.510060       -13.8794
  48   2.0000      -0.499120       -13.5818
  49   2.0000      -0.496640       -13.5143
  50   2.0000      -0.492356       -13.3977
  51   2.0000      -0.476991       -12.9796
  52   2.0000      -0.469250       -12.7689
  53   2.0000      -0.464232       -12.6324
  54   2.0000      -0.461318       -12.5531
  55   2.0000      -0.449098       -12.2206
  56   2.0000      -0.445849       -12.1322
  57   2.0000      -0.440623       -11.9900
  58   2.0000      -0.437577       -11.9071
  59   2.0000      -0.429211       -11.6794
  60   2.0000      -0.424306       -11.5460
  61   2.0000      -0.416757       -11.3405
  62   2.0000      -0.405500       -11.0342
  63   2.0000      -0.336666        -9.1612
  64   2.0000      -0.330174        -8.9845
  65   2.0000      -0.325355        -8.8534
  66   2.0000      -0.297160        -8.0861
  67   0.0000       0.032564         0.8861
  68   0.0000       0.068916         1.8753
  69   0.0000       0.104461         2.8425
  70   0.0000       0.111411         3.0316
  71   0.0000       0.126410         3.4398

MULLIKEN ATOMIC CHARGES
-----------------------
   0 S :    0.097795
   1 C :   -0.129541
   2 C :   -0.064911
   3 C :    0.062211
   4 C :   -0.136476
   5 H :   -0.023849
   6 C :    0.046119
   7 H :    0.027449
   8 H :    0.024677
   9 C :   -0.050892
  10 H :    0.027719
  11 H :    0.008641
  12 C :   -0.028195
  13 H :    0.029837
  14 H :    0.013743
  15 H :    0.036686
  16 S :    0.121036
  17 C :   -0.064055
  18 C :   -0.066211
  19 C :    0.018868
  20 C :   -0.201487
  21 H :    0.024172
  22 C :    0.090478
  23 H :    0.008229
  24 H :    0.037509
  25 C :   -0.057144
  26 H :   -0.005266
  27 H :    0.014889
  28 C :   -0.048752
  29 H :    0.033927
  30 H :    0.034404
  31 H :    0.035246
  32 H :    0.040944
  33 H :    0.042201
Sum of atomic charges:   -0.0000000

LOEWDIN ATOMIC CHARGES
----------------------
   0 S :    0.373571
   1 C :   -0.175613
   2 C :   -0.066042
   3 C :   -0.047738
   4 C :   -0.190935
   5 H :    0.018186
   6 C :   -0.031337
   7 H :    0.034000
   8 H :    0.035731
   9 C :   -0.038005
  10 H :    0.023119
  11 H :    0.018474
  12 C :   -0.060484
  13 H :    0.027790
  14 H :    0.020191
  15 H :    0.023167
  16 S :    0.413544
  17 C :   -0.190749
  18 C :   -0.068700
  19 C :   -0.047335
  20 C :   -0.199340
  21 H :    0.030003
  22 C :   -0.024874
  23 H :    0.026907
  24 H :    0.040529
  25 C :   -0.047458
  26 H :    0.016357
  27 H :    0.028591
  28 C :   -0.070227
  29 H :    0.027565
  30 H :    0.026601
  31 H :    0.029327
  32 H :    0.023176
  33 H :    0.022006

  Mayer bond orders larger than 0.100000
B(  0-S ,  1-C ) :   1.1150 B(  0-S ,  4-C ) :   1.1372 B(  1-C ,  2-C ) :   1.6490
B(  1-C , 32-H ) :   0.9672 B(  2-C ,  3-C ) :   1.2090 B(  2-C ,  6-C ) :   1.0224
B(  3-C ,  4-C ) :   1.5852 B(  3-C ,  5-H ) :   1.0017 B(  4-C , 20-C ) :   1.0465
B(  6-C ,  7-H ) :   0.9470 B(  6-C ,  8-H ) :   0.9294 B(  6-C ,  9-C ) :   1.0845
B(  9-C , 10-H ) :   0.9580 B(  9-C , 11-H ) :   0.9552 B(  9-C , 12-C ) :   1.0662
B( 12-C , 13-H ) :   0.9730 B( 12-C , 14-H ) :   0.9788 B( 12-C , 15-H ) :   0.9806
B( 16-S , 17-C ) :   1.1540 B( 16-S , 20-C ) :   1.1356 B( 17-C , 18-C ) :   1.6139
B( 17-C , 33-H ) :   0.9733 B( 18-C , 19-C ) :   1.2151 B( 18-C , 21-H ) :   0.9826
B( 19-C , 20-C ) :   1.6039 B( 19-C , 22-C ) :   1.0575 B( 22-C , 23-H ) :   0.9299
B( 22-C , 24-H ) :   0.9254 B( 22-C , 25-C ) :   1.0840 B( 25-C , 26-H ) :   0.9419
B( 25-C , 27-H ) :   0.9423 B( 25-C , 28-C ) :   1.0673 B( 28-C , 29-H ) :   0.9744
B( 28-C , 30-H ) :   0.9695 B( 28-C , 31-H ) :   0.9710

Dispersion correction           -0.014893988
FINAL SINGLE POINT ENERGY     -1339.869626343516

DIPOLE MOMENT
-------------
                                X             Y             Z
Electronic contribution:      1.90093     -10.96231      25.17337
Nuclear contribution   :     -1.72312      10.91827     -26.07219
                        -----------------------------------------
Total Dipole Moment    :      0.17781      -0.04405      -0.89882
                        -----------------------------------------
Magnitude (a.u.)       :      0.91729
Magnitude (Debye)      :      2.33158

Rotational constants in cm-1:     0.019206     0.008813     0.006961
Rotational constants in MHz :   575.795492   264.206925   208.686495

                             ****ORCA TERMINATED NORMALLY****
TOTAL RUN TIME: 0 days 0 hours 0 minutes 30 seconds 913 msec
