                         Program Version 4.2.1 -  RELEASE  -
|  1> ! wB97X-D3 SP def2-SVP
|  2> %pal
|  3> nprocs 16
|  4> end
|  5>
|  6> * xyz 0 1
|  7> S 	 -73.7053 	 48.2632 	 137.079
|  8> C 	 -74.4225 	 49.8339 	 137.051
|  9> C 	 -73.4975 	 50.8496 	 137.032
| 10> C 	 -72.128 	 50.3387 	 136.978
| 11> C 	 -72.0923 	 48.9728 	 136.976
| 12> H 	 -71.2127 	 50.9513 	 136.982
| 13> C 	 -73.703 	 52.3843 	 137.079
| 14> H 	 -74.6814 	 52.4752 	 136.511
| 15> H 	 -72.9685 	 52.9167 	 136.496
| 16> C 	 -73.6694 	 52.9997 	 138.475
| 17> H 	 -74.4292 	 52.3406 	 139.004
| 18> H 	 -72.7289 	 53.0471 	 139.027
| 19> C 	 -74.1857 	 54.4574 	 138.42
| 20> H 	 -75.2629 	 54.4676 	 138.225
| 21> H 	 -74.0766 	 54.8795 	 139.427
| 22> H 	 -73.6794 	 55.007 	 137.641
| 23> S 	 -70.9799 	 47.557 	 139.16
| 24> C 	 -69.3082 	 47.1176 	 139.062
| 25> C 	 -68.778 	 47.3492 	 137.719
| 26> C 	 -69.7505 	 47.898 	 136.845
| 27> C 	 -70.91 	 48.2209 	 137.495
| 28> H 	 -67.7152 	 47.137 	 137.615
| 29> C 	 -69.5068 	 48.1271 	 135.367
| 30> H 	 -70.324 	 48.7868 	 134.976
| 31> H 	 -69.4128 	 47.1291 	 134.898
| 32> C 	 -68.1393 	 48.8283 	 135.117
| 33> H 	 -67.3424 	 48.3238 	 135.589
| 34> H 	 -68.1429 	 49.8101 	 135.513
| 35> C 	 -67.839 	 48.9745 	 133.59
| 36> H 	 -67.5226 	 48.0734 	 133.116
| 37> H 	 -67.0799 	 49.7492 	 133.366
| 38> H 	 -68.7534 	 49.3771 	 133.006
| 39> H 	 -75.4575 	 50.1204 	 136.999
| 40> H 	 -68.7442 	 46.8073 	 139.925
| 41> *
| 42>
| 43>                          ****END OF INPUT****

CARTESIAN COORDINATES (ANGSTROEM)
---------------------------------
  S    -73.705300   48.263200  137.079000
  C    -74.422500   49.833900  137.051000
  C    -73.497500   50.849600  137.032000
  C    -72.128000   50.338700  136.978000
  C    -72.092300   48.972800  136.976000
  H    -71.212700   50.951300  136.982000
  C    -73.703000   52.384300  137.079000
  H    -74.681400   52.475200  136.511000
  H    -72.968500   52.916700  136.496000
  C    -73.669400   52.999700  138.475000
  H    -74.429200   52.340600  139.004000
  H    -72.728900   53.047100  139.027000
  C    -74.185700   54.457400  138.420000
  H    -75.262900   54.467600  138.225000
  H    -74.076600   54.879500  139.427000
  H    -73.679400   55.007000  137.641000
  S    -70.979900   47.557000  139.160000
  C    -69.308200   47.117600  139.062000
  C    -68.778000   47.349200  137.719000
  C    -69.750500   47.898000  136.845000
  C    -70.910000   48.220900  137.495000
  H    -67.715200   47.137000  137.615000
  C    -69.506800   48.127100  135.367000
  H    -70.324000   48.786800  134.976000
  H    -69.412800   47.129100  134.898000
  C    -68.139300   48.828300  135.117000
  H    -67.342400   48.323800  135.589000
  H    -68.142900   49.810100  135.513000
  C    -67.839000   48.974500  133.590000
  H    -67.522600   48.073400  133.116000
  H    -67.079900   49.749200  133.366000
  H    -68.753400   49.377100  133.006000
  H    -75.457500   50.120400  136.999000
  H    -68.744200   46.807300  139.925000

 Total Charge           Charge          ....    0
 Multiplicity           Mult            ....    1
 Number of Electrons    NEL             ....  134
 Basis Dimension        Dim             ....  322

ORBITAL ENERGIES
----------------

  NO   OCC          E(Eh)            E(eV)
   0   2.0000     -88.968007     -2420.9425
   1   2.0000     -88.965906     -2420.8854
   2   2.0000     -10.327100      -281.0147
   3   2.0000     -10.325107      -280.9604
   4   2.0000     -10.320915      -280.8464
   5   2.0000     -10.314061      -280.6599
   6   2.0000     -10.302672      -280.3499
   7   2.0000     -10.300021      -280.2778
   8   2.0000     -10.299328      -280.2590
   9   2.0000     -10.298667      -280.2410
  10   2.0000     -10.297018      -280.1961
  11   2.0000     -10.295990      -280.1681
  12   2.0000     -10.291976      -280.0589
  13   2.0000     -10.282802      -279.8093
  14   2.0000     -10.282003      -279.7875
  15   2.0000     -10.279318      -279.7145
  16   2.0000      -8.082802      -219.9442
  17   2.0000      -8.080102      -219.8708
  18   2.0000      -6.041467      -164.3967
  19   2.0000      -6.038494      -164.3158
  20   2.0000      -6.037359      -164.2849
  21   2.0000      -6.034719      -164.2130
  22   2.0000      -6.033320      -164.1750
  23   2.0000      -6.030994      -164.1117
  24   2.0000      -1.002807       -27.2878
  25   2.0000      -0.979251       -26.6468
  26   2.0000      -0.909445       -24.7473
  27   2.0000      -0.904878       -24.6230
  28   2.0000      -0.863850       -23.5066
  29   2.0000      -0.849455       -23.1148
  30   2.0000      -0.845164       -22.9981
  31   2.0000      -0.805651       -21.9229
  32   2.0000      -0.777806       -21.1652
  33   2.0000      -0.769567       -20.9410
  34   2.0000      -0.703555       -19.1447
  35   2.0000      -0.694735       -18.9047
  36   2.0000      -0.693751       -18.8779
  37   2.0000      -0.656535       -17.8652
  38   2.0000      -0.640268       -17.4226
  39   2.0000      -0.612844       -16.6763
  40   2.0000      -0.590506       -16.0685
  41   2.0000      -0.575443       -15.6586
  42   2.0000      -0.569409       -15.4944
  43   2.0000      -0.557711       -15.1761
  44   2.0000      -0.529859       -14.4182
  45   2.0000      -0.522100       -14.2071
  46   2.0000      -0.511756       -13.9256
  47   2.0000      -0.506486       -13.7822
  48   2.0000      -0.503181       -13.6922
  49   2.0000      -0.495865       -13.4932
  50   2.0000      -0.489483       -13.3195
  51   2.0000      -0.473247       -12.8777
  52   2.0000      -0.466006       -12.6807
  53   2.0000      -0.461815       -12.5666
  54   2.0000      -0.459169       -12.4946
  55   2.0000      -0.447666       -12.1816
  56   2.0000      -0.441643       -12.0177
  57   2.0000      -0.437400       -11.9023
  58   2.0000      -0.432662       -11.7733
  59   2.0000      -0.427788       -11.6407
  60   2.0000      -0.421057       -11.4575
  61   2.0000      -0.420288       -11.4366
  62   2.0000      -0.406468       -11.0606
  63   2.0000      -0.343216        -9.3394
  64   2.0000      -0.332463        -9.0468
  65   2.0000      -0.322571        -8.7776
  66   2.0000      -0.294520        -8.0143
  67   0.0000       0.039909         1.0860
  68   0.0000       0.052195         1.4203
  69   0.0000       0.116202         3.1620
  70   0.0000       0.120833         3.2880
  71   0.0000       0.127164         3.4603

MULLIKEN ATOMIC CHARGES
-----------------------
   0 S :    0.111824
   1 C :   -0.093436
   2 C :   -0.115757
   3 C :    0.040174
   4 C :   -0.160696
   5 H :    0.030085
   6 C :    0.035353
   7 H :    0.035629
   8 H :    0.018916
   9 C :   -0.087319
  10 H :    0.035326
  11 H :    0.045113
  12 C :   -0.042701
  13 H :    0.028473
  14 H :    0.039015
  15 H :    0.032452
  16 S :    0.119449
  17 C :   -0.120447
  18 C :   -0.060556
  19 C :   -0.011453
  20 C :   -0.172369
  21 H :    0.029255
  22 C :    0.078372
  23 H :    0.045263
  24 H :    0.046225
  25 C :   -0.074011
  26 H :    0.023143
  27 H :    0.020305
  28 C :   -0.073524
  29 H :    0.031287
  30 H :    0.034212
  31 H :    0.034615
  32 H :    0.036289
  33 H :    0.061496
Sum of atomic charges:   -0.0000000

LOEWDIN ATOMIC CHARGES
----------------------
   0 S :    0.406460
   1 C :   -0.203822
   2 C :   -0.064895
   3 C :   -0.049550
   4 C :   -0.198594
   5 H :    0.037571
   6 C :   -0.036855
   7 H :    0.038004
   8 H :    0.023168
   9 C :   -0.044651
  10 H :    0.031067
  11 H :    0.027880
  12 C :   -0.064453
  13 H :    0.024871
  14 H :    0.028421
  15 H :    0.021781
  16 S :    0.399864
  17 C :   -0.192196
  18 C :   -0.075324
  19 C :   -0.063237
  20 C :   -0.189151
  21 H :    0.031490
  22 C :   -0.024575
  23 H :    0.037668
  24 H :    0.040049
  25 C :   -0.034454
  26 H :    0.015837
  27 H :    0.019565
  28 C :   -0.072859
  29 H :    0.017229
  30 H :    0.027153
  31 H :    0.032883
  32 H :    0.028535
  33 H :    0.025121

  Mayer bond orders larger than 0.100000
B(  0-S ,  1-C ) :   1.1261 B(  0-S ,  4-C ) :   1.1411 B(  1-C ,  2-C ) :   1.6501
B(  1-C , 32-H ) :   0.9624 B(  2-C ,  3-C ) :   1.2257 B(  2-C ,  6-C ) :   1.0156
B(  3-C ,  4-C ) :   1.5994 B(  3-C ,  5-H ) :   0.9861 B(  4-C , 20-C ) :   0.9952
B(  6-C ,  7-H ) :   0.9489 B(  6-C ,  8-H ) :   0.9413 B(  6-C ,  9-C ) :   1.0526
B(  9-C , 10-H ) :   0.9575 B(  9-C , 11-H ) :   0.9588 B(  9-C , 12-C ) :   1.0770
B( 12-C , 13-H ) :   0.9770 B( 12-C , 14-H ) :   0.9757 B( 12-C , 15-H ) :   0.9740
B( 16-S , 17-C ) :   1.1778 B( 16-S , 20-C ) :   1.1331 B( 17-C , 18-C ) :   1.5818
B( 17-C , 20-C ) :   0.1032 B( 17-C , 33-H ) :   0.9696 B( 18-C , 19-C ) :   1.2237
B( 18-C , 21-H ) :   0.9932 B( 19-C , 20-C ) :   1.6231 B( 19-C , 22-C ) :   1.0406
B( 22-C , 23-H ) :   0.9298 B( 22-C , 24-H ) :   0.9328 B( 22-C , 25-C ) :   1.0654
B( 25-C , 26-H ) :   0.9553 B( 25-C , 27-H ) :   0.9577 B( 25-C , 28-C ) :   1.0810
B( 28-C , 29-H ) :   0.9778 B( 28-C , 30-H ) :   0.9764 B( 28-C , 31-H ) :   0.9736

Dispersion correction           -0.013502451
FINAL SINGLE POINT ENERGY     -1339.866139498020

DIPOLE MOMENT
-------------
                                X             Y             Z
Electronic contribution:     -7.42169     -21.41591      10.86870
Nuclear contribution   :      7.69998      21.99364     -10.93643
                        -----------------------------------------
Total Dipole Moment    :      0.27830       0.57773      -0.06773
                        -----------------------------------------
Magnitude (a.u.)       :      0.64483
Magnitude (Debye)      :      1.63903

Rotational constants in cm-1:     0.017410     0.007656     0.006586
Rotational constants in MHz :   521.926739   229.527926   197.443910

                             ****ORCA TERMINATED NORMALLY****
TOTAL RUN TIME: 0 days 0 hours 0 minutes 33 seconds 428 msec
