                         Program Version 4.2.1 -  RELEASE  -
|  1> ! wB97X-D3 SP def2-SVP
|  2> %pal
|  3> nprocs 16
|  4> end
|  5>
|  6> * xyz 0 1
|  7> S 	 -109.759 	 42.1349 	 132.612
|  8> C 	 -108.804 	 42.6411 	 133.957
|  9> C 	 -107.745 	 43.458 	 133.608
| 10> C 	 -107.876 	 43.8391 	 132.238
| 11> C 	 -108.936 	 43.2372 	 131.554
| 12> H 	 -107.229 	 44.5298 	 131.736
| 13> C 	 -106.666 	 44.0131 	 134.564
| 14> H 	 -106.807 	 43.6155 	 135.566
| 15> H 	 -106.713 	 45.0414 	 134.667
| 16> C 	 -105.238 	 43.4785 	 134.332
| 17> H 	 -104.704 	 43.7573 	 135.235
| 18> H 	 -105.129 	 42.4031 	 134.265
| 19> C 	 -104.495 	 44.142 	 133.162
| 20> H 	 -104.722 	 43.7236 	 132.162
| 21> H 	 -104.796 	 45.1832 	 133.077
| 22> H 	 -103.45 	 44.1504 	 133.22
| 23> S 	 -109.534 	 44.5723 	 129.231
| 24> C 	 -109.388 	 43.757 	 127.685
| 25> C 	 -108.76 	 42.5221 	 127.922
| 26> C 	 -108.638 	 42.1277 	 129.288
| 27> C 	 -108.969 	 43.1482 	 130.148
| 28> H 	 -108.476 	 41.7807 	 127.164
| 29> C 	 -108.061 	 40.7516 	 129.75
| 30> H 	 -107.771 	 40.3587 	 128.74
| 31> H 	 -108.878 	 40.3064 	 130.346
| 32> C 	 -106.756 	 40.6977 	 130.592
| 33> H 	 -106.633 	 39.6867 	 131.017
| 34> H 	 -106.806 	 41.2692 	 131.538
| 35> C 	 -105.476 	 41.0534 	 129.868
| 36> H 	 -105.239 	 40.3788 	 129.085
| 37> H 	 -104.589 	 41.0979 	 130.545
| 38> H 	 -105.48 	 42.0521 	 129.442
| 39> H 	 -108.795 	 42.1834 	 134.911
| 40> H 	 -109.718 	 44.1626 	 126.717
| 41> *
| 42>
| 43>                          ****END OF INPUT****

CARTESIAN COORDINATES (ANGSTROEM)
---------------------------------
  S    -109.759000   42.134900  132.612000
  C    -108.804000   42.641100  133.957000
  C    -107.745000   43.458000  133.608000
  C    -107.876000   43.839100  132.238000
  C    -108.936000   43.237200  131.554000
  H    -107.229000   44.529800  131.736000
  C    -106.666000   44.013100  134.564000
  H    -106.807000   43.615500  135.566000
  H    -106.713000   45.041400  134.667000
  C    -105.238000   43.478500  134.332000
  H    -104.704000   43.757300  135.235000
  H    -105.129000   42.403100  134.265000
  C    -104.495000   44.142000  133.162000
  H    -104.722000   43.723600  132.162000
  H    -104.796000   45.183200  133.077000
  H    -103.450000   44.150400  133.220000
  S    -109.534000   44.572300  129.231000
  C    -109.388000   43.757000  127.685000
  C    -108.760000   42.522100  127.922000
  C    -108.638000   42.127700  129.288000
  C    -108.969000   43.148200  130.148000
  H    -108.476000   41.780700  127.164000
  C    -108.061000   40.751600  129.750000
  H    -107.771000   40.358700  128.740000
  H    -108.878000   40.306400  130.346000
  C    -106.756000   40.697700  130.592000
  H    -106.633000   39.686700  131.017000
  H    -106.806000   41.269200  131.538000
  C    -105.476000   41.053400  129.868000
  H    -105.239000   40.378800  129.085000
  H    -104.589000   41.097900  130.545000
  H    -105.480000   42.052100  129.442000
  H    -108.795000   42.183400  134.911000
  H    -109.718000   44.162600  126.717000

 Total Charge           Charge          ....    0
 Multiplicity           Mult            ....    1
 Number of Electrons    NEL             ....  134
 Basis Dimension        Dim             ....  322

ORBITAL ENERGIES
----------------

  NO   OCC          E(Eh)            E(eV)
   0   2.0000     -88.972335     -2421.0603
   1   2.0000     -88.961783     -2420.7732
   2   2.0000     -10.323370      -280.9132
   3   2.0000     -10.323305      -280.9114
   4   2.0000     -10.320854      -280.8447
   5   2.0000     -10.312576      -280.6195
   6   2.0000     -10.304170      -280.3907
   7   2.0000     -10.301663      -280.3225
   8   2.0000     -10.299477      -280.2630
   9   2.0000     -10.296796      -280.1901
  10   2.0000     -10.294749      -280.1344
  11   2.0000     -10.294446      -280.1261
  12   2.0000     -10.289880      -280.0019
  13   2.0000     -10.285291      -279.8770
  14   2.0000     -10.273310      -279.5510
  15   2.0000     -10.272217      -279.5212
  16   2.0000      -8.087113      -220.0615
  17   2.0000      -8.076041      -219.7602
  18   2.0000      -6.045540      -164.5075
  19   2.0000      -6.041521      -164.3981
  20   2.0000      -6.038054      -164.3038
  21   2.0000      -6.034631      -164.2106
  22   2.0000      -6.030476      -164.0976
  23   2.0000      -6.026878      -163.9997
  24   2.0000      -1.009750       -27.4767
  25   2.0000      -0.981691       -26.7132
  26   2.0000      -0.913989       -24.8709
  27   2.0000      -0.900514       -24.5042
  28   2.0000      -0.873467       -23.7682
  29   2.0000      -0.850208       -23.1353
  30   2.0000      -0.845909       -23.0183
  31   2.0000      -0.810098       -22.0439
  32   2.0000      -0.787448       -21.4276
  33   2.0000      -0.774691       -21.0804
  34   2.0000      -0.709035       -19.2938
  35   2.0000      -0.705237       -19.1905
  36   2.0000      -0.689952       -18.7745
  37   2.0000      -0.666187       -18.1279
  38   2.0000      -0.644336       -17.5333
  39   2.0000      -0.616345       -16.7716
  40   2.0000      -0.584907       -15.9161
  41   2.0000      -0.572220       -15.5709
  42   2.0000      -0.558771       -15.2049
  43   2.0000      -0.546557       -14.8726
  44   2.0000      -0.543949       -14.8016
  45   2.0000      -0.537259       -14.6196
  46   2.0000      -0.521633       -14.1944
  47   2.0000      -0.512424       -13.9438
  48   2.0000      -0.504579       -13.7303
  49   2.0000      -0.494020       -13.4430
  50   2.0000      -0.490385       -13.3440
  51   2.0000      -0.479787       -13.0557
  52   2.0000      -0.474243       -12.9048
  53   2.0000      -0.465861       -12.6767
  54   2.0000      -0.459305       -12.4983
  55   2.0000      -0.447727       -12.1833
  56   2.0000      -0.442624       -12.0444
  57   2.0000      -0.438670       -11.9368
  58   2.0000      -0.428792       -11.6680
  59   2.0000      -0.427142       -11.6231
  60   2.0000      -0.422836       -11.5060
  61   2.0000      -0.418764       -11.3951
  62   2.0000      -0.397315       -10.8115
  63   2.0000      -0.340940        -9.2774
  64   2.0000      -0.332158        -9.0385
  65   2.0000      -0.328787        -8.9468
  66   2.0000      -0.295565        -8.0427
  67   0.0000       0.033081         0.9002
  68   0.0000       0.055771         1.5176
  69   0.0000       0.111339         3.0297
  70   0.0000       0.121522         3.3068
  71   0.0000       0.131765         3.5855

MULLIKEN ATOMIC CHARGES
-----------------------
   0 S :    0.123842
   1 C :   -0.095350
   2 C :   -0.083611
   3 C :    0.031121
   4 C :   -0.148168
   5 H :    0.006911
   6 C :    0.089999
   7 H :    0.009631
   8 H :    0.027996
   9 C :   -0.074208
  10 H :    0.025981
  11 H :    0.033056
  12 C :   -0.046042
  13 H :    0.033593
  14 H :    0.016036
  15 H :    0.022696
  16 S :    0.098750
  17 C :   -0.101866
  18 C :   -0.036157
  19 C :   -0.067329
  20 C :   -0.179291
  21 H :    0.020332
  22 C :    0.084239
  23 H :    0.020711
  24 H :    0.049116
  25 C :   -0.056004
  26 H :    0.024115
  27 H :    0.032890
  28 C :   -0.057639
  29 H :    0.022805
  30 H :    0.031557
  31 H :    0.032067
  32 H :    0.034099
  33 H :    0.074124
Sum of atomic charges:   -0.0000000

LOEWDIN ATOMIC CHARGES
----------------------
   0 S :    0.435539
   1 C :   -0.197719
   2 C :   -0.061460
   3 C :   -0.045901
   4 C :   -0.214603
   5 H :    0.026225
   6 C :   -0.018721
   7 H :    0.033450
   8 H :    0.023494
   9 C :   -0.035076
  10 H :    0.025775
  11 H :    0.025520
  12 C :   -0.070868
  13 H :    0.026705
  14 H :    0.022470
  15 H :    0.018062
  16 S :    0.392572
  17 C :   -0.191614
  18 C :   -0.078349
  19 C :   -0.065939
  20 C :   -0.191395
  21 H :    0.029531
  22 C :   -0.028591
  23 H :    0.034940
  24 H :    0.036313
  25 C :   -0.049131
  26 H :    0.028101
  27 H :    0.027612
  28 C :   -0.069401
  29 H :    0.017301
  30 H :    0.031389
  31 H :    0.024688
  32 H :    0.021190
  33 H :    0.037890

  Mayer bond orders larger than 0.100000
B(  0-S ,  1-C ) :   1.1610 B(  0-S ,  4-C ) :   1.1484 B(  1-C ,  2-C ) :   1.6070
B(  1-C , 32-H ) :   0.9619 B(  2-C ,  3-C ) :   1.2660 B(  2-C ,  6-C ) :   1.0186
B(  3-C ,  4-C ) :   1.5504 B(  3-C ,  5-H ) :   0.9947 B(  4-C , 20-C ) :   1.0377
B(  6-C ,  7-H ) :   0.9370 B(  6-C ,  8-H ) :   0.9462 B(  6-C ,  9-C ) :   1.0776
B(  9-C , 10-H ) :   0.9573 B(  9-C , 11-H ) :   0.9553 B(  9-C , 12-C ) :   1.0763
B( 12-C , 13-H ) :   0.9727 B( 12-C , 14-H ) :   0.9730 B( 12-C , 15-H ) :   0.9736
B( 16-S , 17-C ) :   1.1595 B( 16-S , 20-C ) :   1.1366 B( 17-C , 18-C ) :   1.5698
B( 17-C , 20-C ) :   0.1072 B( 17-C , 33-H ) :   0.9694 B( 18-C , 19-C ) :   1.2792
B( 18-C , 21-H ) :   0.9734 B( 19-C , 20-C ) :   1.5922 B( 19-C , 22-C ) :   1.0136
B( 22-C , 23-H ) :   0.9350 B( 22-C , 24-H ) :   0.9299 B( 22-C , 25-C ) :   1.0745
B( 25-C , 26-H ) :   0.9492 B( 25-C , 27-H ) :   0.9515 B( 25-C , 28-C ) :   1.0826
B( 28-C , 29-H ) :   0.9731 B( 28-C , 30-H ) :   0.9707 B( 28-C , 31-H ) :   0.9758

Dispersion correction           -0.016709332
FINAL SINGLE POINT ENERGY     -1339.870164708588

DIPOLE MOMENT
-------------
                                X             Y             Z
Electronic contribution:    -25.94930       6.04005      -6.24531
Nuclear contribution   :     26.62095      -6.25632       6.52650
                        -----------------------------------------
Total Dipole Moment    :      0.67164      -0.21627       0.28118
                        -----------------------------------------
Magnitude (a.u.)       :      0.75957
Magnitude (Debye)      :      1.93066

Rotational constants in cm-1:     0.018705     0.009817     0.008801
Rotational constants in MHz :   560.767879   294.311867   263.855287

                             ****ORCA TERMINATED NORMALLY****
TOTAL RUN TIME: 0 days 0 hours 0 minutes 39 seconds 25 msec
