                         Program Version 4.2.1 -  RELEASE  -
|  1> ! wB97X-D3 SP def2-SVP
|  2> %pal
|  3> nprocs 16
|  4> end
|  5>
|  6> * xyz 0 1
|  7> S 	 41.4747 	 9.25674 	 77.7377
|  8> C 	 41.5716 	 8.79332 	 79.4033
|  9> C 	 40.6019 	 9.33718 	 80.1594
| 10> C 	 39.9138 	 10.3285 	 79.4637
| 11> C 	 40.2621 	 10.4532 	 78.1175
| 12> H 	 39.222 	 11.0246 	 79.8846
| 13> C 	 40.3679 	 9.20541 	 81.6466
| 14> H 	 40.7176 	 8.20305 	 81.9242
| 15> H 	 39.3142 	 9.23395 	 81.8176
| 16> C 	 41.0061 	 10.1862 	 82.6749
| 17> H 	 40.8761 	 11.1725 	 82.3081
| 18> H 	 40.5833 	 10.067 	 83.6831
| 19> C 	 42.5001 	 10.0114 	 82.8691
| 20> H 	 42.687 	 9.14697 	 83.421
| 21> H 	 43.2156 	 10.1538 	 82.0663
| 22> H 	 42.8454 	 10.8431 	 83.4447
| 23> S 	 40.6609 	 12.0569 	 75.8906
| 24> C 	 39.379 	 12.9603 	 75.1926
| 25> C 	 38.2327 	 12.7552 	 75.8789
| 26> C 	 38.362 	 11.7925 	 76.9558
| 27> C 	 39.6655 	 11.3752 	 77.1724
| 28> H 	 37.3431 	 13.3602 	 75.5857
| 29> C 	 37.1638 	 11.2466 	 77.7294
| 30> H 	 37.4385 	 10.2091 	 78.1195
| 31> H 	 36.338 	 11.0504 	 77.0721
| 32> C 	 36.6289 	 12.0282 	 78.9945
| 33> H 	 37.3582 	 11.9791 	 79.8137
| 34> H 	 35.8009 	 11.4441 	 79.437
| 35> C 	 36.0476 	 13.4469 	 78.6132
| 36> H 	 36.8018 	 13.9308 	 77.9488
| 37> H 	 35.9169 	 13.9835 	 79.5379
| 38> H 	 35.0673 	 13.2778 	 78.1894
| 39> H 	 42.2971 	 8.14161 	 79.8357
| 40> H 	 39.4784 	 13.6681 	 74.4423
| 41> *
| 42>
| 43>                          ****END OF INPUT****

CARTESIAN COORDINATES (ANGSTROEM)
---------------------------------
  S     41.474700    9.256740   77.737700
  C     41.571600    8.793320   79.403300
  C     40.601900    9.337180   80.159400
  C     39.913800   10.328500   79.463700
  C     40.262100   10.453200   78.117500
  H     39.222000   11.024600   79.884600
  C     40.367900    9.205410   81.646600
  H     40.717600    8.203050   81.924200
  H     39.314200    9.233950   81.817600
  C     41.006100   10.186200   82.674900
  H     40.876100   11.172500   82.308100
  H     40.583300   10.067000   83.683100
  C     42.500100   10.011400   82.869100
  H     42.687000    9.146970   83.421000
  H     43.215600   10.153800   82.066300
  H     42.845400   10.843100   83.444700
  S     40.660900   12.056900   75.890600
  C     39.379000   12.960300   75.192600
  C     38.232700   12.755200   75.878900
  C     38.362000   11.792500   76.955800
  C     39.665500   11.375200   77.172400
  H     37.343100   13.360200   75.585700
  C     37.163800   11.246600   77.729400
  H     37.438500   10.209100   78.119500
  H     36.338000   11.050400   77.072100
  C     36.628900   12.028200   78.994500
  H     37.358200   11.979100   79.813700
  H     35.800900   11.444100   79.437000
  C     36.047600   13.446900   78.613200
  H     36.801800   13.930800   77.948800
  H     35.916900   13.983500   79.537900
  H     35.067300   13.277800   78.189400
  H     42.297100    8.141610   79.835700
  H     39.478400   13.668100   74.442300

 Total Charge           Charge          ....    0
 Multiplicity           Mult            ....    1
 Number of Electrons    NEL             ....  134
 Basis Dimension        Dim             ....  322

ORBITAL ENERGIES
----------------

  NO   OCC          E(Eh)            E(eV)
   0   2.0000     -88.969188     -2420.9747
   1   2.0000     -88.961312     -2420.7604
   2   2.0000     -10.329573      -281.0820
   3   2.0000     -10.328887      -281.0633
   4   2.0000     -10.310118      -280.5526
   5   2.0000     -10.308624      -280.5119
   6   2.0000     -10.307473      -280.4806
   7   2.0000     -10.296056      -280.1699
   8   2.0000     -10.294298      -280.1221
   9   2.0000     -10.293097      -280.0894
  10   2.0000     -10.292792      -280.0811
  11   2.0000     -10.290145      -280.0091
  12   2.0000     -10.288159      -279.9550
  13   2.0000     -10.287753      -279.9440
  14   2.0000     -10.281106      -279.7631
  15   2.0000     -10.266423      -279.3636
  16   2.0000      -8.084181      -219.9818
  17   2.0000      -8.076897      -219.7836
  18   2.0000      -6.042638      -164.4285
  19   2.0000      -6.038720      -164.3219
  20   2.0000      -6.035395      -164.2315
  21   2.0000      -6.034898      -164.2179
  22   2.0000      -6.031206      -164.1175
  23   2.0000      -6.027684      -164.0216
  24   2.0000      -1.012872       -27.5616
  25   2.0000      -0.992481       -27.0068
  26   2.0000      -0.912808       -24.8388
  27   2.0000      -0.898774       -24.4569
  28   2.0000      -0.876058       -23.8388
  29   2.0000      -0.856019       -23.2934
  30   2.0000      -0.841357       -22.8945
  31   2.0000      -0.817942       -22.2573
  32   2.0000      -0.787981       -21.4421
  33   2.0000      -0.775560       -21.1040
  34   2.0000      -0.713759       -19.4224
  35   2.0000      -0.702663       -19.1204
  36   2.0000      -0.693529       -18.8719
  37   2.0000      -0.662732       -18.0339
  38   2.0000      -0.640697       -17.4343
  39   2.0000      -0.623761       -16.9734
  40   2.0000      -0.591794       -16.1035
  41   2.0000      -0.576745       -15.6940
  42   2.0000      -0.556106       -15.1324
  43   2.0000      -0.547847       -14.9077
  44   2.0000      -0.544816       -14.8252
  45   2.0000      -0.541731       -14.7412
  46   2.0000      -0.521345       -14.1865
  47   2.0000      -0.510310       -13.8862
  48   2.0000      -0.505691       -13.7606
  49   2.0000      -0.499206       -13.5841
  50   2.0000      -0.492969       -13.4144
  51   2.0000      -0.483100       -13.1458
  52   2.0000      -0.474789       -12.9197
  53   2.0000      -0.469518       -12.7762
  54   2.0000      -0.463990       -12.6258
  55   2.0000      -0.447000       -12.1635
  56   2.0000      -0.437322       -11.9001
  57   2.0000      -0.433744       -11.8028
  58   2.0000      -0.427780       -11.6405
  59   2.0000      -0.425587       -11.5808
  60   2.0000      -0.422964       -11.5094
  61   2.0000      -0.414510       -11.2794
  62   2.0000      -0.410705       -11.1759
  63   2.0000      -0.356109        -9.6902
  64   2.0000      -0.335370        -9.1259
  65   2.0000      -0.328120        -8.9286
  66   2.0000      -0.291508        -7.9323
  67   0.0000       0.024896         0.6774
  68   0.0000       0.081511         2.2180
  69   0.0000       0.111101         3.0232
  70   0.0000       0.126453         3.4410
  71   0.0000       0.129684         3.5289

MULLIKEN ATOMIC CHARGES
-----------------------
   0 S :    0.127427
   1 C :   -0.115643
   2 C :   -0.051288
   3 C :    0.007380
   4 C :   -0.123044
   5 H :   -0.016949
   6 C :    0.079537
   7 H :    0.008336
   8 H :    0.019832
   9 C :   -0.036074
  10 H :    0.017093
  11 H :    0.036945
  12 C :   -0.045263
  13 H :    0.018675
  14 H :    0.031048
  15 H :    0.014041
  16 S :    0.090441
  17 C :   -0.052098
  18 C :   -0.054780
  19 C :   -0.033653
  20 C :   -0.144128
  21 H :    0.038639
  22 C :    0.020472
  23 H :    0.040782
  24 H :    0.023197
  25 C :   -0.090796
  26 H :    0.025840
  27 H :    0.025632
  28 C :   -0.048251
  29 H :    0.052200
  30 H :    0.033582
  31 H :    0.036251
  32 H :    0.032092
  33 H :    0.032523
Sum of atomic charges:   -0.0000000

LOEWDIN ATOMIC CHARGES
----------------------
   0 S :    0.418427
   1 C :   -0.189353
   2 C :   -0.071780
   3 C :   -0.054365
   4 C :   -0.194830
   5 H :    0.023437
   6 C :   -0.028657
   7 H :    0.026697
   8 H :    0.028039
   9 C :   -0.029338
  10 H :    0.018332
  11 H :    0.032759
  12 C :   -0.069812
  13 H :    0.014937
  14 H :    0.027228
  15 H :    0.027574
  16 S :    0.405704
  17 C :   -0.179534
  18 C :   -0.081422
  19 C :   -0.058686
  20 C :   -0.191021
  21 H :    0.039790
  22 C :   -0.039283
  23 H :    0.039374
  24 H :    0.026264
  25 C :   -0.041698
  26 H :    0.014892
  27 H :    0.024875
  28 C :   -0.065623
  29 H :    0.031623
  30 H :    0.025003
  31 H :    0.025850
  32 H :    0.025256
  33 H :    0.019342

  Mayer bond orders larger than 0.100000
B(  0-S ,  1-C ) :   1.1427 B(  0-S ,  4-C ) :   1.1471 B(  1-C ,  2-C ) :   1.6060
B(  1-C , 32-H ) :   0.9668 B(  2-C ,  3-C ) :   1.2481 B(  2-C ,  6-C ) :   1.0354
B(  3-C ,  4-C ) :   1.5437 B(  3-C ,  5-H ) :   1.0049 B(  4-C , 20-C ) :   1.0773
B(  6-C ,  7-H ) :   0.9359 B(  6-C ,  8-H ) :   0.9342 B(  6-C ,  9-C ) :   1.0706
B(  9-C , 10-H ) :   0.9564 B(  9-C , 11-H ) :   0.9529 B(  9-C , 12-C ) :   1.0895
B( 12-C , 13-H ) :   0.9763 B( 12-C , 14-H ) :   0.9725 B( 12-C , 15-H ) :   0.9665
B( 16-S , 17-C ) :   1.1562 B( 16-S , 20-C ) :   1.1275 B( 17-C , 18-C ) :   1.6269
B( 17-C , 33-H ) :   0.9742 B( 18-C , 19-C ) :   1.2161 B( 18-C , 21-H ) :   0.9831
B( 19-C , 20-C ) :   1.5928 B( 19-C , 22-C ) :   1.0440 B( 22-C , 23-H ) :   0.9314
B( 22-C , 24-H ) :   0.9410 B( 22-C , 25-C ) :   1.0686 B( 25-C , 26-H ) :   0.9575
B( 25-C , 27-H ) :   0.9520 B( 25-C , 28-C ) :   1.0620 B( 28-C , 29-H ) :   0.9771
B( 28-C , 30-H ) :   0.9747 B( 28-C , 31-H ) :   0.9770

Dispersion correction           -0.014574193
FINAL SINGLE POINT ENERGY     -1339.876160984850

DIPOLE MOMENT
-------------
                                X             Y             Z
Electronic contribution:     12.09231      -3.91377     -24.30100
Nuclear contribution   :    -12.50088       4.07845      24.84659
                        -----------------------------------------
Total Dipole Moment    :     -0.40857       0.16468       0.54559
                        -----------------------------------------
Magnitude (a.u.)       :      0.70123
Magnitude (Debye)      :      1.78237

Rotational constants in cm-1:     0.019029     0.008817     0.006747
Rotational constants in MHz :   570.467594   264.323449   202.263391

                             ****ORCA TERMINATED NORMALLY****
TOTAL RUN TIME: 0 days 0 hours 0 minutes 30 seconds 382 msec
