                         Program Version 4.2.1 -  RELEASE  -
|  1> ! wB97X-D3 SP def2-SVP
|  2> %pal
|  3> nprocs 16
|  4> end
|  5>
|  6> * xyz 0 1
|  7> S 	 37.5806 	 30.2575 	 92.1733
|  8> C 	 36.2863 	 30.776 	 91.1987
|  9> C 	 35.019 	 30.6238 	 91.7129
| 10> C 	 35.1433 	 30.2072 	 93.0843
| 11> C 	 36.4632 	 29.8554 	 93.3876
| 12> H 	 34.5016 	 30.0586 	 93.9285
| 13> C 	 33.7739 	 30.986 	 90.8938
| 14> H 	 33.9584 	 30.7463 	 89.8247
| 15> H 	 33.839 	 32.1103 	 90.9057
| 16> C 	 32.3896 	 30.6075 	 91.405
| 17> H 	 32.1173 	 31.2128 	 92.2467
| 18> H 	 31.7792 	 31.0697 	 90.6403
| 19> C 	 32.0982 	 29.105 	 91.6106
| 20> H 	 32.9144 	 28.7381 	 92.2037
| 21> H 	 31.2799 	 28.99 	 92.2337
| 22> H 	 31.9727 	 28.5749 	 90.6745
| 23> S 	 37.68 	 30.5086 	 95.6451
| 24> C 	 37.9495 	 29.3365 	 96.9691
| 25> C 	 37.2743 	 28.16 	 96.648
| 26> C 	 36.6282 	 28.1974 	 95.3911
| 27> C 	 36.9218 	 29.3204 	 94.6556
| 28> H 	 37.2372 	 27.2983 	 97.3661
| 29> C 	 35.8663 	 26.9459 	 94.8156
| 30> H 	 36.57 	 26.1003 	 94.8786
| 31> H 	 35.7694 	 27.0438 	 93.7637
| 32> C 	 34.4944 	 26.6488 	 95.4551
| 33> H 	 33.7397 	 27.3809 	 95.222
| 34> H 	 34.5745 	 26.7583 	 96.5138
| 35> C 	 33.9717 	 25.2889 	 95.0617
| 36> H 	 33.4199 	 24.867 	 95.9498
| 37> H 	 34.7784 	 24.621 	 94.8844
| 38> H 	 33.4565 	 25.3189 	 94.1562
| 39> H 	 36.3051 	 31.1307 	 90.1774
| 40> H 	 38.4788 	 29.4018 	 97.8647
| 41> *
| 42>
| 43>                          ****END OF INPUT****

CARTESIAN COORDINATES (ANGSTROEM)
---------------------------------
  S     37.580600   30.257500   92.173300
  C     36.286300   30.776000   91.198700
  C     35.019000   30.623800   91.712900
  C     35.143300   30.207200   93.084300
  C     36.463200   29.855400   93.387600
  H     34.501600   30.058600   93.928500
  C     33.773900   30.986000   90.893800
  H     33.958400   30.746300   89.824700
  H     33.839000   32.110300   90.905700
  C     32.389600   30.607500   91.405000
  H     32.117300   31.212800   92.246700
  H     31.779200   31.069700   90.640300
  C     32.098200   29.105000   91.610600
  H     32.914400   28.738100   92.203700
  H     31.279900   28.990000   92.233700
  H     31.972700   28.574900   90.674500
  S     37.680000   30.508600   95.645100
  C     37.949500   29.336500   96.969100
  C     37.274300   28.160000   96.648000
  C     36.628200   28.197400   95.391100
  C     36.921800   29.320400   94.655600
  H     37.237200   27.298300   97.366100
  C     35.866300   26.945900   94.815600
  H     36.570000   26.100300   94.878600
  H     35.769400   27.043800   93.763700
  C     34.494400   26.648800   95.455100
  H     33.739700   27.380900   95.222000
  H     34.574500   26.758300   96.513800
  C     33.971700   25.288900   95.061700
  H     33.419900   24.867000   95.949800
  H     34.778400   24.621000   94.884400
  H     33.456500   25.318900   94.156200
  H     36.305100   31.130700   90.177400
  H     38.478800   29.401800   97.864700

 Total Charge           Charge          ....    0
 Multiplicity           Mult            ....    1
 Number of Electrons    NEL             ....  134
 Basis Dimension        Dim             ....  322

ORBITAL ENERGIES
----------------

  NO   OCC          E(Eh)            E(eV)
   0   2.0000     -88.969289     -2420.9774
   1   2.0000     -88.962153     -2420.7833
   2   2.0000     -10.320152      -280.8256
   3   2.0000     -10.318916      -280.7920
   4   2.0000     -10.314884      -280.6823
   5   2.0000     -10.302612      -280.3483
   6   2.0000     -10.302041      -280.3328
   7   2.0000     -10.300724      -280.2970
   8   2.0000     -10.300493      -280.2907
   9   2.0000     -10.295726      -280.1609
  10   2.0000     -10.295062      -280.1429
  11   2.0000     -10.289541      -279.9926
  12   2.0000     -10.285952      -279.8950
  13   2.0000     -10.279177      -279.7106
  14   2.0000     -10.271851      -279.5113
  15   2.0000     -10.270477      -279.4739
  16   2.0000      -8.085476      -220.0170
  17   2.0000      -8.076776      -219.7803
  18   2.0000      -6.043686      -164.4571
  19   2.0000      -6.039848      -164.3526
  20   2.0000      -6.036400      -164.2588
  21   2.0000      -6.035416      -164.2320
  22   2.0000      -6.031202      -164.1174
  23   2.0000      -6.027474      -164.0159
  24   2.0000      -1.013959       -27.5912
  25   2.0000      -0.986193       -26.8357
  26   2.0000      -0.913059       -24.8456
  27   2.0000      -0.905819       -24.6486
  28   2.0000      -0.871935       -23.7266
  29   2.0000      -0.851784       -23.1782
  30   2.0000      -0.846800       -23.0426
  31   2.0000      -0.816783       -22.2258
  32   2.0000      -0.787286       -21.4231
  33   2.0000      -0.771199       -20.9854
  34   2.0000      -0.713506       -19.4155
  35   2.0000      -0.703574       -19.1452
  36   2.0000      -0.690590       -18.7919
  37   2.0000      -0.659700       -17.9513
  38   2.0000      -0.646019       -17.5791
  39   2.0000      -0.613019       -16.6811
  40   2.0000      -0.591065       -16.0837
  41   2.0000      -0.568014       -15.4565
  42   2.0000      -0.561979       -15.2922
  43   2.0000      -0.553588       -15.0639
  44   2.0000      -0.539685       -14.6856
  45   2.0000      -0.527106       -14.3433
  46   2.0000      -0.516444       -14.0532
  47   2.0000      -0.512208       -13.9379
  48   2.0000      -0.505175       -13.7465
  49   2.0000      -0.493460       -13.4277
  50   2.0000      -0.489878       -13.3303
  51   2.0000      -0.482326       -13.1248
  52   2.0000      -0.473345       -12.8804
  53   2.0000      -0.468909       -12.7597
  54   2.0000      -0.462855       -12.5949
  55   2.0000      -0.448193       -12.1960
  56   2.0000      -0.443843       -12.0776
  57   2.0000      -0.440380       -11.9833
  58   2.0000      -0.436574       -11.8798
  59   2.0000      -0.432641       -11.7728
  60   2.0000      -0.419052       -11.4030
  61   2.0000      -0.417992       -11.3741
  62   2.0000      -0.407173       -11.0797
  63   2.0000      -0.339865        -9.2482
  64   2.0000      -0.326628        -8.8880
  65   2.0000      -0.322294        -8.7701
  66   2.0000      -0.300841        -8.1863
  67   0.0000       0.039356         1.0709
  68   0.0000       0.065196         1.7741
  69   0.0000       0.118006         3.2111
  70   0.0000       0.124361         3.3840
  71   0.0000       0.127858         3.4792

MULLIKEN ATOMIC CHARGES
-----------------------
   0 S :    0.156894
   1 C :   -0.103405
   2 C :   -0.080550
   3 C :    0.050591
   4 C :   -0.217940
   5 H :    0.004013
   6 C :    0.003459
   7 H :    0.034775
   8 H :    0.049604
   9 C :   -0.049929
  10 H :    0.020735
  11 H :    0.018834
  12 C :    0.010534
  13 H :    0.023175
  14 H :    0.015263
  15 H :    0.039933
  16 S :    0.106315
  17 C :   -0.062375
  18 C :   -0.061948
  19 C :   -0.012590
  20 C :   -0.174550
  21 H :    0.036101
  22 C :    0.047318
  23 H :    0.029871
  24 H :    0.015265
  25 C :   -0.056427
  26 H :    0.020053
  27 H :    0.012412
  28 C :   -0.014949
  29 H :    0.042558
  30 H :    0.009971
  31 H :    0.027579
  32 H :    0.028083
  33 H :    0.031331
Sum of atomic charges:    0.0000000

LOEWDIN ATOMIC CHARGES
----------------------
   0 S :    0.457890
   1 C :   -0.220763
   2 C :   -0.062066
   3 C :   -0.059829
   4 C :   -0.224532
   5 H :    0.029492
   6 C :   -0.040576
   7 H :    0.033514
   8 H :    0.046279
   9 C :   -0.044505
  10 H :    0.023783
  11 H :    0.027815
  12 C :   -0.054129
  13 H :    0.025707
  14 H :    0.018799
  15 H :    0.029135
  16 S :    0.407720
  17 C :   -0.173312
  18 C :   -0.073779
  19 C :   -0.061803
  20 C :   -0.212601
  21 H :    0.038614
  22 C :   -0.025471
  23 H :    0.031533
  24 H :    0.022789
  25 C :   -0.040586
  26 H :    0.022750
  27 H :    0.017426
  28 C :   -0.059484
  29 H :    0.037978
  30 H :    0.018845
  31 H :    0.019409
  32 H :    0.024449
  33 H :    0.019508

  Mayer bond orders larger than 0.100000
B(  0-S ,  1-C ) :   1.1521 B(  0-S ,  4-C ) :   1.1760 B(  1-C ,  2-C ) :   1.6302
B(  1-C , 32-H ) :   0.9621 B(  2-C ,  3-C ) :   1.2081 B(  2-C ,  6-C ) :   0.9977
B(  3-C ,  4-C ) :   1.5756 B(  3-C ,  5-H ) :   0.9963 B(  4-C , 20-C ) :   0.9946
B(  6-C ,  7-H ) :   0.9423 B(  6-C ,  8-H ) :   0.9370 B(  6-C ,  9-C ) :   1.0892
B(  9-C , 10-H ) :   0.9472 B(  9-C , 11-H ) :   0.9465 B(  9-C , 12-C ) :   1.0730
B( 12-C , 13-H ) :   0.9749 B( 12-C , 14-H ) :   0.9713 B( 12-C , 15-H ) :   0.9750
B( 16-S , 17-C ) :   1.1412 B( 16-S , 20-C ) :   1.1600 B( 17-C , 18-C ) :   1.6118
B( 17-C , 20-C ) :   0.1092 B( 17-C , 33-H ) :   0.9763 B( 18-C , 19-C ) :   1.2452
B( 18-C , 21-H ) :   0.9784 B( 19-C , 20-C ) :   1.6106 B( 19-C , 22-C ) :   1.0270
B( 22-C , 23-H ) :   0.9480 B( 22-C , 24-H ) :   0.9396 B( 22-C , 25-C ) :   1.0559
B( 25-C , 26-H ) :   0.9493 B( 25-C , 27-H ) :   0.9634 B( 25-C , 28-C ) :   1.0798
B( 28-C , 29-H ) :   0.9742 B( 28-C , 30-H ) :   0.9742 B( 28-C , 31-H ) :   0.9757

Dispersion correction           -0.014446929
FINAL SINGLE POINT ENERGY     -1339.858700428764

DIPOLE MOMENT
-------------
                                X             Y             Z
Electronic contribution:     25.93179      15.04909       3.98624
Nuclear contribution   :    -26.52499     -15.29505      -4.06375
                        -----------------------------------------
Total Dipole Moment    :     -0.59320      -0.24595      -0.07751
                        -----------------------------------------
Magnitude (a.u.)       :      0.64683
Magnitude (Debye)      :      1.64411

Rotational constants in cm-1:     0.015778     0.010347     0.007090
Rotational constants in MHz :   472.998524   310.207320   212.540926

                             ****ORCA TERMINATED NORMALLY****
TOTAL RUN TIME: 0 days 0 hours 0 minutes 30 seconds 969 msec
