                         Program Version 4.2.1 -  RELEASE  -
|  1> ! wB97X-D3 SP def2-SVP
|  2> %pal
|  3> nprocs 16
|  4> end
|  5>
|  6> * xyz 0 1
|  7> S 	 -24.8916 	 -3.71721 	 98.6155
|  8> C 	 -24.3332 	 -3.54837 	 100.275
|  9> C 	 -25.3126 	 -3.08429 	 101.114
| 10> C 	 -26.5722 	 -3.11352 	 100.421
| 11> C 	 -26.5864 	 -3.49926 	 99.1137
| 12> H 	 -27.5381 	 -2.83635 	 100.849
| 13> C 	 -25.1553 	 -2.79919 	 102.633
| 14> H 	 -25.6301 	 -1.91042 	 102.874
| 15> H 	 -24.0911 	 -2.66576 	 102.592
| 16> C 	 -25.6395 	 -3.81263 	 103.737
| 17> H 	 -25.115 	 -4.76289 	 103.763
| 18> H 	 -25.5572 	 -3.37648 	 104.725
| 19> C 	 -27.1635 	 -4.1743 	 103.644
| 20> H 	 -27.4562 	 -4.58586 	 102.702
| 21> H 	 -27.5169 	 -4.91716 	 104.326
| 22> H 	 -27.8498 	 -3.36967 	 103.829
| 23> S 	 -27.54 	 -2.57974 	 96.6775
| 24> C 	 -29.216 	 -2.89553 	 96.2856
| 25> C 	 -29.8632 	 -3.48676 	 97.3427
| 26> C 	 -28.9518 	 -4.01134 	 98.3368
| 27> C 	 -27.6408 	 -3.53825 	 98.1112
| 28> H 	 -30.9495 	 -3.41174 	 97.1944
| 29> C 	 -29.564 	 -4.56758 	 99.5772
| 30> H 	 -28.7311 	 -5.02895 	 100.132
| 31> H 	 -30.2322 	 -5.32617 	 99.3132
| 32> C 	 -30.3099 	 -3.62258 	 100.489
| 33> H 	 -31.1883 	 -3.22789 	 99.9465
| 34> H 	 -29.8275 	 -2.69549 	 100.691
| 35> C 	 -30.751 	 -4.31048 	 101.806
| 36> H 	 -29.9405 	 -4.80516 	 102.378
| 37> H 	 -31.5727 	 -5.01813 	 101.695
| 38> H 	 -31.0831 	 -3.58078 	 102.536
| 39> H 	 -23.247 	 -3.50844 	 100.456
| 40> H 	 -29.7286 	 -2.4119 	 95.44
| 41> *
| 42>
| 43>                          ****END OF INPUT****

CARTESIAN COORDINATES (ANGSTROEM)
---------------------------------
  S    -24.891600   -3.717210   98.615500
  C    -24.333200   -3.548370  100.275000
  C    -25.312600   -3.084290  101.114000
  C    -26.572200   -3.113520  100.421000
  C    -26.586400   -3.499260   99.113700
  H    -27.538100   -2.836350  100.849000
  C    -25.155300   -2.799190  102.633000
  H    -25.630100   -1.910420  102.874000
  H    -24.091100   -2.665760  102.592000
  C    -25.639500   -3.812630  103.737000
  H    -25.115000   -4.762890  103.763000
  H    -25.557200   -3.376480  104.725000
  C    -27.163500   -4.174300  103.644000
  H    -27.456200   -4.585860  102.702000
  H    -27.516900   -4.917160  104.326000
  H    -27.849800   -3.369670  103.829000
  S    -27.540000   -2.579740   96.677500
  C    -29.216000   -2.895530   96.285600
  C    -29.863200   -3.486760   97.342700
  C    -28.951800   -4.011340   98.336800
  C    -27.640800   -3.538250   98.111200
  H    -30.949500   -3.411740   97.194400
  C    -29.564000   -4.567580   99.577200
  H    -28.731100   -5.028950  100.132000
  H    -30.232200   -5.326170   99.313200
  C    -30.309900   -3.622580  100.489000
  H    -31.188300   -3.227890   99.946500
  H    -29.827500   -2.695490  100.691000
  C    -30.751000   -4.310480  101.806000
  H    -29.940500   -4.805160  102.378000
  H    -31.572700   -5.018130  101.695000
  H    -31.083100   -3.580780  102.536000
  H    -23.247000   -3.508440  100.456000
  H    -29.728600   -2.411900   95.440000

 Total Charge           Charge          ....    0
 Multiplicity           Mult            ....    1
 Number of Electrons    NEL             ....  134
 Basis Dimension        Dim             ....  322

ORBITAL ENERGIES
----------------

  NO   OCC          E(Eh)            E(eV)
   0   2.0000     -88.966867     -2420.9115
   1   2.0000     -88.959699     -2420.7165
   2   2.0000     -10.330009      -281.0938
   3   2.0000     -10.329223      -281.0725
   4   2.0000     -10.318404      -280.7780
   5   2.0000     -10.316784      -280.7340
   6   2.0000     -10.306854      -280.4637
   7   2.0000     -10.305741      -280.4335
   8   2.0000     -10.296007      -280.1686
   9   2.0000     -10.295962      -280.1674
  10   2.0000     -10.295459      -280.1537
  11   2.0000     -10.294127      -280.1174
  12   2.0000     -10.288948      -279.9765
  13   2.0000     -10.283992      -279.8417
  14   2.0000     -10.282666      -279.8056
  15   2.0000     -10.273194      -279.5478
  16   2.0000      -8.082063      -219.9241
  17   2.0000      -8.074501      -219.7184
  18   2.0000      -6.040546      -164.3716
  19   2.0000      -6.036560      -164.2631
  20   2.0000      -6.033042      -164.1674
  21   2.0000      -6.032750      -164.1595
  22   2.0000      -6.029100      -164.0602
  23   2.0000      -6.025123      -163.9519
  24   2.0000      -1.007472       -27.4147
  25   2.0000      -0.984361       -26.7858
  26   2.0000      -0.915134       -24.9021
  27   2.0000      -0.904632       -24.6163
  28   2.0000      -0.871355       -23.7108
  29   2.0000      -0.851396       -23.1677
  30   2.0000      -0.841176       -22.8896
  31   2.0000      -0.820073       -22.3153
  32   2.0000      -0.788013       -21.4429
  33   2.0000      -0.774958       -21.0877
  34   2.0000      -0.713571       -19.4172
  35   2.0000      -0.709772       -19.3139
  36   2.0000      -0.696233       -18.9455
  37   2.0000      -0.659881       -17.9563
  38   2.0000      -0.640364       -17.4252
  39   2.0000      -0.618487       -16.8299
  40   2.0000      -0.596372       -16.2281
  41   2.0000      -0.577752       -15.7214
  42   2.0000      -0.567832       -15.4515
  43   2.0000      -0.542877       -14.7724
  44   2.0000      -0.540953       -14.7201
  45   2.0000      -0.523179       -14.2364
  46   2.0000      -0.515367       -14.0238
  47   2.0000      -0.509675       -13.8690
  48   2.0000      -0.507555       -13.8113
  49   2.0000      -0.496090       -13.4993
  50   2.0000      -0.488712       -13.2985
  51   2.0000      -0.483634       -13.1604
  52   2.0000      -0.473486       -12.8842
  53   2.0000      -0.465917       -12.6782
  54   2.0000      -0.460158       -12.5215
  55   2.0000      -0.444851       -12.1050
  56   2.0000      -0.443222       -12.0607
  57   2.0000      -0.442025       -12.0281
  58   2.0000      -0.434207       -11.8154
  59   2.0000      -0.429567       -11.6891
  60   2.0000      -0.425067       -11.5667
  61   2.0000      -0.417078       -11.3493
  62   2.0000      -0.413478       -11.2513
  63   2.0000      -0.350216        -9.5299
  64   2.0000      -0.329264        -8.9597
  65   2.0000      -0.328545        -8.9402
  66   2.0000      -0.294981        -8.0269
  67   0.0000       0.027831         0.7573
  68   0.0000       0.069019         1.8781
  69   0.0000       0.103293         2.8108
  70   0.0000       0.121896         3.3170
  71   0.0000       0.126890         3.4529

MULLIKEN ATOMIC CHARGES
-----------------------
   0 S :    0.079898
   1 C :   -0.129733
   2 C :   -0.107207
   3 C :    0.028855
   4 C :   -0.163170
   5 H :   -0.007025
   6 C :    0.126180
   7 H :    0.013864
   8 H :    0.016458
   9 C :   -0.025141
  10 H :    0.034969
  11 H :    0.032594
  12 C :   -0.086427
  13 H :    0.031292
  14 H :    0.022874
  15 H :    0.018248
  16 S :    0.113668
  17 C :   -0.118565
  18 C :   -0.062725
  19 C :   -0.035701
  20 C :   -0.101172
  21 H :    0.036423
  22 C :    0.094938
  23 H :    0.025371
  24 H :    0.012193
  25 C :   -0.063630
  26 H :    0.019724
  27 H :    0.021390
  28 C :   -0.050695
  29 H :    0.029461
  30 H :    0.035990
  31 H :    0.025912
  32 H :    0.063469
  33 H :    0.067424
Sum of atomic charges:   -0.0000000

LOEWDIN ATOMIC CHARGES
----------------------
   0 S :    0.376832
   1 C :   -0.185779
   2 C :   -0.067163
   3 C :   -0.061420
   4 C :   -0.181872
   5 H :    0.028572
   6 C :   -0.018677
   7 H :    0.023355
   8 H :    0.031359
   9 C :   -0.026830
  10 H :    0.025930
  11 H :    0.027789
  12 C :   -0.072582
  13 H :    0.017955
  14 H :    0.024896
  15 H :    0.019117
  16 S :    0.416168
  17 C :   -0.191548
  18 C :   -0.074193
  19 C :   -0.051239
  20 C :   -0.209610
  21 H :    0.040177
  22 C :   -0.034303
  23 H :    0.031051
  24 H :    0.026500
  25 C :   -0.037966
  26 H :    0.027387
  27 H :    0.017322
  28 C :   -0.067154
  29 H :    0.028293
  30 H :    0.025921
  31 H :    0.026804
  32 H :    0.031226
  33 H :    0.033680

  Mayer bond orders larger than 0.100000
B(  0-S ,  1-C ) :   1.1479 B(  0-S ,  4-C ) :   1.1216 B(  1-C ,  2-C ) :   1.6325
B(  1-C , 32-H ) :   0.9578 B(  2-C ,  3-C ) :   1.2125 B(  2-C ,  6-C ) :   1.0112
B(  3-C ,  4-C ) :   1.6133 B(  3-C ,  5-H ) :   0.9902 B(  4-C , 20-C ) :   1.0344
B(  6-C ,  7-H ) :   0.9372 B(  6-C ,  8-H ) :   0.9398 B(  6-C ,  9-C ) :   1.0626
B(  9-C , 10-H ) :   0.9596 B(  9-C , 11-H ) :   0.9555 B(  9-C , 12-C ) :   1.0742
B( 12-C , 13-H ) :   0.9708 B( 12-C , 14-H ) :   0.9715 B( 12-C , 15-H ) :   0.9754
B( 16-S , 17-C ) :   1.1481 B( 16-S , 20-C ) :   1.1597 B( 17-C , 18-C ) :   1.6374
B( 17-C , 33-H ) :   0.9634 B( 18-C , 19-C ) :   1.2024 B( 18-C , 21-H ) :   0.9861
B( 19-C , 20-C ) :   1.5660 B( 19-C , 22-C ) :   1.0761 B( 22-C , 23-H ) :   0.9290
B( 22-C , 24-H ) :   0.9203 B( 22-C , 25-C ) :   1.0627 B( 25-C , 26-H ) :   0.9411
B( 25-C , 27-H ) :   0.9540 B( 25-C , 28-C ) :   1.0798 B( 28-C , 29-H ) :   0.9736
B( 28-C , 30-H ) :   0.9751 B( 28-C , 31-H ) :   0.9723

Dispersion correction           -0.015826405
FINAL SINGLE POINT ENERGY     -1339.863511638219

DIPOLE MOMENT
-------------
                                X             Y             Z
Electronic contribution:     14.06967       4.46997     -29.41823
Nuclear contribution   :    -14.61293      -4.21740      30.09383
                        -----------------------------------------
Total Dipole Moment    :     -0.54326       0.25257       0.67561
                        -----------------------------------------
Magnitude (a.u.)       :      0.90298
Magnitude (Debye)      :      2.29519

Rotational constants in cm-1:     0.017105     0.010897     0.007020
Rotational constants in MHz :   512.798418   326.676711   210.467770

                             ****ORCA TERMINATED NORMALLY****
TOTAL RUN TIME: 0 days 0 hours 0 minutes 32 seconds 437 msec
