                         Program Version 4.2.1 -  RELEASE  -
|  1> ! wB97X-D3 SP def2-SVP
|  2> %pal
|  3> nprocs 16
|  4> end
|  5>
|  6> * xyz 0 1
|  7> S 	 -105.422 	 41.2958 	 126.756
|  8> C 	 -103.937 	 40.5506 	 126.333
|  9> C 	 -102.883 	 41.4727 	 126.312
| 10> C 	 -103.363 	 42.8055 	 126.558
| 11> C 	 -104.698 	 42.904 	 126.768
| 12> H 	 -102.678 	 43.6582 	 126.589
| 13> C 	 -101.385 	 41.2344 	 126.153
| 14> H 	 -100.87 	 42.1733 	 126.406
| 15> H 	 -101.096 	 41.0069 	 125.132
| 16> C 	 -100.866 	 40.1204 	 126.997
| 17> H 	 -101.248 	 39.1494 	 126.607
| 18> H 	 -99.778 	 39.9988 	 126.789
| 19> C 	 -101.182 	 40.2857 	 128.484
| 20> H 	 -101.136 	 41.3914 	 128.695
| 21> H 	 -102.219 	 40.0394 	 128.583
| 22> H 	 -100.635 	 39.7244 	 129.191
| 23> S 	 -106.608 	 43.9599 	 128.51
| 24> C 	 -106.946 	 45.6403 	 128.472
| 25> C 	 -106.272 	 46.2604 	 127.474
| 26> C 	 -105.459 	 45.4022 	 126.728
| 27> C 	 -105.475 	 44.0999 	 127.168
| 28> H 	 -106.582 	 47.2868 	 127.296
| 29> C 	 -104.779 	 45.8258 	 125.422
| 30> H 	 -103.811 	 45.481 	 125.141
| 31> H 	 -104.658 	 46.8741 	 125.644
| 32> C 	 -105.747 	 45.6322 	 124.252
| 33> H 	 -106.65 	 45.9855 	 124.723
| 34> H 	 -105.882 	 44.647 	 123.878
| 35> C 	 -105.312 	 46.5651 	 123.176
| 36> H 	 -104.344 	 46.3101 	 122.87
| 37> H 	 -105.227 	 47.6217 	 123.514
| 38> H 	 -105.846 	 46.4299 	 122.223
| 39> H 	 -103.922 	 39.4606 	 126.136
| 40> H 	 -107.759 	 46.1506 	 128.908
| 41> *
| 42>
| 43>                          ****END OF INPUT****

CARTESIAN COORDINATES (ANGSTROEM)
---------------------------------
  S    -105.422000   41.295800  126.756000
  C    -103.937000   40.550600  126.333000
  C    -102.883000   41.472700  126.312000
  C    -103.363000   42.805500  126.558000
  C    -104.698000   42.904000  126.768000
  H    -102.678000   43.658200  126.589000
  C    -101.385000   41.234400  126.153000
  H    -100.870000   42.173300  126.406000
  H    -101.096000   41.006900  125.132000
  C    -100.866000   40.120400  126.997000
  H    -101.248000   39.149400  126.607000
  H    -99.778000   39.998800  126.789000
  C    -101.182000   40.285700  128.484000
  H    -101.136000   41.391400  128.695000
  H    -102.219000   40.039400  128.583000
  H    -100.635000   39.724400  129.191000
  S    -106.608000   43.959900  128.510000
  C    -106.946000   45.640300  128.472000
  C    -106.272000   46.260400  127.474000
  C    -105.459000   45.402200  126.728000
  C    -105.475000   44.099900  127.168000
  H    -106.582000   47.286800  127.296000
  C    -104.779000   45.825800  125.422000
  H    -103.811000   45.481000  125.141000
  H    -104.658000   46.874100  125.644000
  C    -105.747000   45.632200  124.252000
  H    -106.650000   45.985500  124.723000
  H    -105.882000   44.647000  123.878000
  C    -105.312000   46.565100  123.176000
  H    -104.344000   46.310100  122.870000
  H    -105.227000   47.621700  123.514000
  H    -105.846000   46.429900  122.223000
  H    -103.922000   39.460600  126.136000
  H    -107.759000   46.150600  128.908000

 Total Charge           Charge          ....    0
 Multiplicity           Mult            ....    1
 Number of Electrons    NEL             ....  134
 Basis Dimension        Dim             ....  322

ORBITAL ENERGIES
----------------

  NO   OCC          E(Eh)            E(eV)
   0   2.0000     -88.966816     -2420.9101
   1   2.0000     -88.963402     -2420.8172
   2   2.0000     -10.330357      -281.1033
   3   2.0000     -10.325866      -280.9811
   4   2.0000     -10.319321      -280.8030
   5   2.0000     -10.307308      -280.4761
   6   2.0000     -10.304567      -280.4015
   7   2.0000     -10.299307      -280.2584
   8   2.0000     -10.293897      -280.1112
   9   2.0000     -10.292030      -280.0604
  10   2.0000     -10.288372      -279.9608
  11   2.0000     -10.286179      -279.9012
  12   2.0000     -10.284735      -279.8619
  13   2.0000     -10.274367      -279.5797
  14   2.0000     -10.269897      -279.4581
  15   2.0000     -10.269840      -279.4566
  16   2.0000      -8.082091      -219.9249
  17   2.0000      -8.078690      -219.8323
  18   2.0000      -6.040645      -164.3743
  19   2.0000      -6.037114      -164.2782
  20   2.0000      -6.036426      -164.2595
  21   2.0000      -6.033068      -164.1681
  22   2.0000      -6.032881      -164.1630
  23   2.0000      -6.029555      -164.0725
  24   2.0000      -1.011586       -27.5267
  25   2.0000      -0.991822       -26.9888
  26   2.0000      -0.918610       -24.9966
  27   2.0000      -0.917405       -24.9639
  28   2.0000      -0.869970       -23.6731
  29   2.0000      -0.854874       -23.2623
  30   2.0000      -0.846621       -23.0377
  31   2.0000      -0.815479       -22.1903
  32   2.0000      -0.784009       -21.3340
  33   2.0000      -0.772938       -21.0327
  34   2.0000      -0.705706       -19.2032
  35   2.0000      -0.701969       -19.1016
  36   2.0000      -0.694405       -18.8957
  37   2.0000      -0.663231       -18.0474
  38   2.0000      -0.641071       -17.4444
  39   2.0000      -0.618486       -16.8299
  40   2.0000      -0.601406       -16.3651
  41   2.0000      -0.575413       -15.6578
  42   2.0000      -0.570925       -15.5357
  43   2.0000      -0.562125       -15.2962
  44   2.0000      -0.541336       -14.7305
  45   2.0000      -0.523452       -14.2438
  46   2.0000      -0.513269       -13.9668
  47   2.0000      -0.508887       -13.8475
  48   2.0000      -0.503921       -13.7124
  49   2.0000      -0.497687       -13.5428
  50   2.0000      -0.490077       -13.3357
  51   2.0000      -0.477720       -12.9994
  52   2.0000      -0.474325       -12.9071
  53   2.0000      -0.466636       -12.6978
  54   2.0000      -0.462657       -12.5895
  55   2.0000      -0.449753       -12.2384
  56   2.0000      -0.445611       -12.1257
  57   2.0000      -0.443675       -12.0730
  58   2.0000      -0.436539       -11.8788
  59   2.0000      -0.426022       -11.5926
  60   2.0000      -0.418265       -11.3816
  61   2.0000      -0.408067       -11.1041
  62   2.0000      -0.402287       -10.9468
  63   2.0000      -0.355750        -9.6804
  64   2.0000      -0.334525        -9.1029
  65   2.0000      -0.329676        -8.9709
  66   2.0000      -0.291239        -7.9250
  67   0.0000       0.028956         0.7879
  68   0.0000       0.073062         1.9881
  69   0.0000       0.112423         3.0592
  70   0.0000       0.126701         3.4477
  71   0.0000       0.138058         3.7568

MULLIKEN ATOMIC CHARGES
-----------------------
   0 S :    0.107472
   1 C :   -0.147349
   2 C :   -0.102860
   3 C :    0.012331
   4 C :   -0.126405
   5 H :    0.020759
   6 C :    0.091172
   7 H :    0.020647
   8 H :    0.035643
   9 C :   -0.112531
  10 H :    0.021079
  11 H :    0.027458
  12 C :   -0.009409
  13 H :    0.026309
  14 H :    0.029343
  15 H :    0.031808
  16 S :    0.102495
  17 C :   -0.063251
  18 C :   -0.065628
  19 C :   -0.036475
  20 C :   -0.141572
  21 H :    0.020302
  22 C :    0.053616
  23 H :    0.012547
  24 H :    0.012710
  25 C :   -0.008695
  26 H :    0.014822
  27 H :    0.034054
  28 C :   -0.028826
  29 H :   -0.001602
  30 H :    0.031066
  31 H :    0.029523
  32 H :    0.068844
  33 H :    0.040604
Sum of atomic charges:    0.0000000

LOEWDIN ATOMIC CHARGES
----------------------
   0 S :    0.414461
   1 C :   -0.209956
   2 C :   -0.063159
   3 C :   -0.061695
   4 C :   -0.189489
   5 H :    0.033935
   6 C :   -0.031877
   7 H :    0.029647
   8 H :    0.034471
   9 C :   -0.049074
  10 H :    0.020956
  11 H :    0.024877
  12 C :   -0.062310
  13 H :    0.031650
  14 H :    0.025404
  15 H :    0.019224
  16 S :    0.411015
  17 C :   -0.189857
  18 C :   -0.079311
  19 C :   -0.062432
  20 C :   -0.190760
  21 H :    0.035113
  22 C :   -0.021863
  23 H :    0.019472
  24 H :    0.028244
  25 C :   -0.029581
  26 H :    0.022958
  27 H :    0.025186
  28 C :   -0.065770
  29 H :    0.014575
  30 H :    0.029024
  31 H :    0.027054
  32 H :    0.034459
  33 H :    0.025406

  Mayer bond orders larger than 0.100000
B(  0-S ,  1-C ) :   1.1576 B(  0-S ,  4-C ) :   1.1489 B(  1-C ,  2-C ) :   1.5794
B(  1-C , 32-H ) :   0.9676 B(  2-C ,  3-C ) :   1.2628 B(  2-C ,  6-C ) :   1.0096
B(  3-C ,  4-C ) :   1.5796 B(  3-C ,  5-H ) :   0.9902 B(  4-C , 20-C ) :   1.0285
B(  6-C ,  7-H ) :   0.9423 B(  6-C ,  8-H ) :   0.9303 B(  6-C ,  9-C ) :   1.0928
B(  9-C , 10-H ) :   0.9505 B(  9-C , 11-H ) :   0.9545 B(  9-C , 12-C ) :   1.0632
B( 12-C , 13-H ) :   0.9767 B( 12-C , 14-H ) :   0.9666 B( 12-C , 15-H ) :   0.9765
B( 16-S , 17-C ) :   1.1642 B( 16-S , 20-C ) :   1.1407 B( 17-C , 18-C ) :   1.6235
B( 17-C , 33-H ) :   0.9629 B( 18-C , 19-C ) :   1.2516 B( 18-C , 21-H ) :   0.9876
B( 19-C , 20-C ) :   1.5987 B( 19-C , 22-C ) :   1.0297 B( 22-C , 23-H ) :   0.9408
B( 22-C , 24-H ) :   0.9382 B( 22-C , 25-C ) :   1.0552 B( 25-C , 26-H ) :   0.9534
B( 25-C , 27-H ) :   0.9546 B( 25-C , 28-C ) :   1.0912 B( 28-C , 29-H ) :   0.9653
B( 28-C , 30-H ) :   0.9740 B( 28-C , 31-H ) :   0.9689

Dispersion correction           -0.014393541
FINAL SINGLE POINT ENERGY     -1339.876570515775

DIPOLE MOMENT
-------------
                                X             Y             Z
Electronic contribution:    -16.96232      -4.13532      11.57875
Nuclear contribution   :     17.32607       4.30951     -11.93144
                        -----------------------------------------
Total Dipole Moment    :      0.36375       0.17418      -0.35269
                        -----------------------------------------
Magnitude (a.u.)       :      0.53577
Magnitude (Debye)      :      1.36181

Rotational constants in cm-1:     0.020345     0.008278     0.006899
Rotational constants in MHz :   609.936075   248.172905   206.831661

                             ****ORCA TERMINATED NORMALLY****
TOTAL RUN TIME: 0 days 0 hours 0 minutes 34 seconds 493 msec
