                         Program Version 4.2.1 -  RELEASE  -
|  1> ! wB97X-D3 SP def2-SVP
|  2> %pal
|  3> nprocs 16
|  4> end
|  5>
|  6> * xyz 0 1
|  7> S 	 -37.0103 	 52.4467 	 111.191
|  8> C 	 -37.9492 	 53.9328 	 111.297
|  9> C 	 -39.3289 	 53.6323 	 111.292
| 10> C 	 -39.5512 	 52.2888 	 110.791
| 11> C 	 -38.3844 	 51.603 	 110.69
| 12> H 	 -40.539 	 51.9356 	 110.639
| 13> C 	 -40.4884 	 54.6345 	 111.497
| 14> H 	 -40.1531 	 55.625 	 111.604
| 15> H 	 -40.8322 	 54.4474 	 112.424
| 16> C 	 -41.6622 	 54.6535 	 110.467
| 17> H 	 -42.0095 	 53.6513 	 110.499
| 18> H 	 -42.4524 	 55.2572 	 110.724
| 19> C 	 -41.2935 	 54.9846 	 109.026
| 20> H 	 -41.0202 	 55.9705 	 109.026
| 21> H 	 -40.3971 	 54.4302 	 108.724
| 22> H 	 -42.025 	 54.8478 	 108.243
| 23> S 	 -36.8707 	 49.262 	 110.792
| 24> C 	 -37.3455 	 47.889 	 109.863
| 25> C 	 -38.593 	 48.0354 	 109.303
| 26> C 	 -39.1015 	 49.3685 	 109.562
| 27> C 	 -38.2253 	 50.2215 	 110.244
| 28> H 	 -39.0269 	 47.1916 	 108.894
| 29> C 	 -40.5669 	 49.4938 	 109.087
| 30> H 	 -40.6801 	 48.8044 	 108.269
| 31> H 	 -40.8611 	 50.4801 	 108.703
| 32> C 	 -41.598 	 49.0794 	 110.157
| 33> H 	 -41.4033 	 49.7524 	 110.953
| 34> H 	 -41.3537 	 48.0512 	 110.495
| 35> C 	 -43.0229 	 49.2248 	 109.661
| 36> H 	 -43.8039 	 49.2193 	 110.423
| 37> H 	 -43.3112 	 48.3482 	 109.01
| 38> H 	 -43.1511 	 50.0918 	 109.015
| 39> H 	 -37.551 	 54.8356 	 111.524
| 40> H 	 -36.8461 	 46.9765 	 109.836
| 41> *
| 42>
| 43>                          ****END OF INPUT****

CARTESIAN COORDINATES (ANGSTROEM)
---------------------------------
  S    -37.010300   52.446700  111.191000
  C    -37.949200   53.932800  111.297000
  C    -39.328900   53.632300  111.292000
  C    -39.551200   52.288800  110.791000
  C    -38.384400   51.603000  110.690000
  H    -40.539000   51.935600  110.639000
  C    -40.488400   54.634500  111.497000
  H    -40.153100   55.625000  111.604000
  H    -40.832200   54.447400  112.424000
  C    -41.662200   54.653500  110.467000
  H    -42.009500   53.651300  110.499000
  H    -42.452400   55.257200  110.724000
  C    -41.293500   54.984600  109.026000
  H    -41.020200   55.970500  109.026000
  H    -40.397100   54.430200  108.724000
  H    -42.025000   54.847800  108.243000
  S    -36.870700   49.262000  110.792000
  C    -37.345500   47.889000  109.863000
  C    -38.593000   48.035400  109.303000
  C    -39.101500   49.368500  109.562000
  C    -38.225300   50.221500  110.244000
  H    -39.026900   47.191600  108.894000
  C    -40.566900   49.493800  109.087000
  H    -40.680100   48.804400  108.269000
  H    -40.861100   50.480100  108.703000
  C    -41.598000   49.079400  110.157000
  H    -41.403300   49.752400  110.953000
  H    -41.353700   48.051200  110.495000
  C    -43.022900   49.224800  109.661000
  H    -43.803900   49.219300  110.423000
  H    -43.311200   48.348200  109.010000
  H    -43.151100   50.091800  109.015000
  H    -37.551000   54.835600  111.524000
  H    -36.846100   46.976500  109.836000

 Total Charge           Charge          ....    0
 Multiplicity           Mult            ....    1
 Number of Electrons    NEL             ....  134
 Basis Dimension        Dim             ....  322

ORBITAL ENERGIES
----------------

  NO   OCC          E(Eh)            E(eV)
   0   2.0000     -88.967499     -2420.9287
   1   2.0000     -88.965720     -2420.8803
   2   2.0000     -10.329746      -281.0867
   3   2.0000     -10.327346      -281.0214
   4   2.0000     -10.310751      -280.5698
   5   2.0000     -10.310173      -280.5541
   6   2.0000     -10.309944      -280.5478
   7   2.0000     -10.307228      -280.4739
   8   2.0000     -10.291416      -280.0437
   9   2.0000     -10.291272      -280.0397
  10   2.0000     -10.288203      -279.9562
  11   2.0000     -10.285704      -279.8882
  12   2.0000     -10.285109      -279.8720
  13   2.0000     -10.282869      -279.8111
  14   2.0000     -10.279845      -279.7288
  15   2.0000     -10.265735      -279.3449
  16   2.0000      -8.083371      -219.9597
  17   2.0000      -8.080994      -219.8950
  18   2.0000      -6.041875      -164.4078
  19   2.0000      -6.039591      -164.3456
  20   2.0000      -6.037880      -164.2991
  21   2.0000      -6.035457      -164.2331
  22   2.0000      -6.033911      -164.1911
  23   2.0000      -6.031621      -164.1288
  24   2.0000      -1.013537       -27.5797
  25   2.0000      -0.987451       -26.8699
  26   2.0000      -0.914732       -24.8911
  27   2.0000      -0.910493       -24.7758
  28   2.0000      -0.872239       -23.7348
  29   2.0000      -0.854055       -23.2400
  30   2.0000      -0.846115       -23.0240
  31   2.0000      -0.819958       -22.3122
  32   2.0000      -0.790930       -21.5223
  33   2.0000      -0.774275       -21.0691
  34   2.0000      -0.714851       -19.4521
  35   2.0000      -0.704982       -19.1835
  36   2.0000      -0.693412       -18.8687
  37   2.0000      -0.668107       -18.1801
  38   2.0000      -0.643425       -17.5085
  39   2.0000      -0.635981       -17.3059
  40   2.0000      -0.598324       -16.2812
  41   2.0000      -0.575002       -15.6466
  42   2.0000      -0.564812       -15.3693
  43   2.0000      -0.556844       -15.1525
  44   2.0000      -0.552892       -15.0450
  45   2.0000      -0.519491       -14.1361
  46   2.0000      -0.517160       -14.0726
  47   2.0000      -0.514985       -14.0134
  48   2.0000      -0.506409       -13.7801
  49   2.0000      -0.503447       -13.6995
  50   2.0000      -0.495968       -13.4960
  51   2.0000      -0.483945       -13.1688
  52   2.0000      -0.471158       -12.8209
  53   2.0000      -0.467843       -12.7307
  54   2.0000      -0.461380       -12.5548
  55   2.0000      -0.457109       -12.4386
  56   2.0000      -0.451323       -12.2811
  57   2.0000      -0.440089       -11.9754
  58   2.0000      -0.434517       -11.8238
  59   2.0000      -0.425305       -11.5731
  60   2.0000      -0.419361       -11.4114
  61   2.0000      -0.417724       -11.3669
  62   2.0000      -0.412165       -11.2156
  63   2.0000      -0.360414        -9.8074
  64   2.0000      -0.335164        -9.1203
  65   2.0000      -0.326353        -8.8805
  66   2.0000      -0.283772        -7.7218
  67   0.0000       0.023070         0.6278
  68   0.0000       0.079537         2.1643
  69   0.0000       0.098090         2.6692
  70   0.0000       0.122507         3.3336
  71   0.0000       0.125773         3.4224

MULLIKEN ATOMIC CHARGES
-----------------------
   0 S :    0.108160
   1 C :   -0.076561
   2 C :   -0.107133
   3 C :   -0.022889
   4 C :   -0.069220
   5 H :   -0.013091
   6 C :    0.138857
   7 H :   -0.003917
   8 H :    0.005592
   9 C :   -0.044037
  10 H :    0.008083
  11 H :    0.012319
  12 C :   -0.023153
  13 H :    0.003127
  14 H :    0.033124
  15 H :    0.033558
  16 S :    0.095043
  17 C :   -0.057161
  18 C :   -0.018415
  19 C :   -0.062686
  20 C :   -0.089669
  21 H :   -0.002627
  22 C :    0.025748
  23 H :    0.013377
  24 H :    0.021621
  25 C :   -0.041089
  26 H :    0.017046
  27 H :    0.028905
  28 C :   -0.046146
  29 H :    0.037461
  30 H :    0.031032
  31 H :    0.027698
  32 H :    0.004803
  33 H :    0.032241
Sum of atomic charges:   -0.0000000

LOEWDIN ATOMIC CHARGES
----------------------
   0 S :    0.424569
   1 C :   -0.179528
   2 C :   -0.038773
   3 C :   -0.067029
   4 C :   -0.196186
   5 H :    0.023126
   6 C :   -0.016849
   7 H :    0.022607
   8 H :    0.021597
   9 C :   -0.027066
  10 H :    0.014457
  11 H :    0.015930
  12 C :   -0.059088
  13 H :    0.012211
  14 H :    0.029639
  15 H :    0.026511
  16 S :    0.408855
  17 C :   -0.177378
  18 C :   -0.061988
  19 C :   -0.051277
  20 C :   -0.199834
  21 H :    0.022262
  22 C :   -0.029265
  23 H :    0.023640
  24 H :    0.022353
  25 C :   -0.038376
  26 H :    0.015588
  27 H :    0.027502
  28 C :   -0.070492
  29 H :    0.026817
  30 H :    0.031465
  31 H :    0.023943
  32 H :    0.002522
  33 H :    0.017533

  Mayer bond orders larger than 0.100000
B(  0-S ,  1-C ) :   1.1296 B(  0-S ,  4-C ) :   1.1594 B(  1-C ,  2-C ) :   1.6020
B(  1-C , 32-H ) :   0.9839 B(  2-C ,  3-C ) :   1.2263 B(  2-C ,  6-C ) :   1.0151
B(  3-C ,  4-C ) :   1.5637 B(  3-C ,  5-H ) :   1.0004 B(  4-C , 20-C ) :   1.0607
B(  6-C ,  7-H ) :   0.9402 B(  6-C ,  8-H ) :   0.9204 B(  6-C ,  9-C ) :   1.0738
B(  9-C , 10-H ) :   0.9539 B(  9-C , 11-H ) :   0.9533 B(  9-C , 12-C ) :   1.0761
B( 12-C , 13-H ) :   0.9735 B( 12-C , 14-H ) :   0.9733 B( 12-C , 15-H ) :   0.9756
B( 16-S , 17-C ) :   1.1626 B( 16-S , 20-C ) :   1.1250 B( 17-C , 18-C ) :   1.6129
B( 17-C , 33-H ) :   0.9712 B( 18-C , 19-C ) :   1.2324 B( 18-C , 21-H ) :   1.0028
B( 19-C , 20-C ) :   1.6012 B( 19-C , 22-C ) :   1.0438 B( 22-C , 23-H ) :   0.9376
B( 22-C , 24-H ) :   0.9362 B( 22-C , 25-C ) :   1.0636 B( 25-C , 26-H ) :   0.9549
B( 25-C , 27-H ) :   0.9508 B( 25-C , 28-C ) :   1.0789 B( 28-C , 29-H ) :   0.9742
B( 28-C , 30-H ) :   0.9731 B( 28-C , 31-H ) :   0.9722

Dispersion correction           -0.014571666
FINAL SINGLE POINT ENERGY     -1339.850043245025

DIPOLE MOMENT
-------------
                                X             Y             Z
Electronic contribution:     30.12839      -6.93176       7.56451
Nuclear contribution   :    -30.85337       6.93844      -7.56676
                        -----------------------------------------
Total Dipole Moment    :     -0.72499       0.00668      -0.00225
                        -----------------------------------------
Magnitude (a.u.)       :      0.72502
Magnitude (Debye)      :      1.84285

Rotational constants in cm-1:     0.016691     0.010494     0.006890
Rotational constants in MHz :   500.393566   314.604863   206.570835

                             ****ORCA TERMINATED NORMALLY****
TOTAL RUN TIME: 0 days 0 hours 0 minutes 31 seconds 750 msec
