                         Program Version 4.2.1 -  RELEASE  -
|  1> ! wB97X-D3 SP def2-SVP
|  2> %pal
|  3> nprocs 16
|  4> end
|  5>
|  6> * xyz 0 1
|  7> S 	 -80.9272 	 44.7977 	 130.149
|  8> C 	 -82.5664 	 45.0991 	 129.633
|  9> C 	 -83.1732 	 46.0701 	 130.396
| 10> C 	 -82.3422 	 46.6367 	 131.394
| 11> C 	 -81.0333 	 46.1341 	 131.333
| 12> H 	 -82.5307 	 47.4879 	 132.064
| 13> C 	 -84.6202 	 46.5789 	 130.149
| 14> H 	 -85.0569 	 46.5489 	 131.109
| 15> H 	 -85.2029 	 45.8906 	 129.57
| 16> C 	 -84.8205 	 48.0439 	 129.646
| 17> H 	 -85.7989 	 48.4058 	 129.807
| 18> H 	 -84.1799 	 48.7891 	 130.198
| 19> C 	 -84.2917 	 48.2675 	 128.197
| 20> H 	 -84.1327 	 49.2388 	 127.97
| 21> H 	 -83.391 	 47.7741 	 127.938
| 22> H 	 -85.0285 	 47.8155 	 127.449
| 23> S 	 -78.6835 	 47.5145 	 131.041
| 24> C 	 -77.8263 	 48.0157 	 132.424
| 25> C 	 -78.3581 	 47.4592 	 133.536
| 26> C 	 -79.5485 	 46.6971 	 133.386
| 27> C 	 -79.867 	 46.6188 	 132.036
| 28> H 	 -77.7746 	 47.4866 	 134.401
| 29> C 	 -80.3586 	 46.1572 	 134.516
| 30> H 	 -79.7143 	 45.6111 	 135.204
| 31> H 	 -81.0011 	 45.3689 	 134.042
| 32> C 	 -81.2734 	 47.1537 	 135.263
| 33> H 	 -81.7314 	 47.8694 	 134.637
| 34> H 	 -80.7049 	 47.7477 	 136.04
| 35> C 	 -82.5067 	 46.5001 	 135.944
| 36> H 	 -83.1815 	 47.2801 	 136.381
| 37> H 	 -82.2436 	 45.8564 	 136.75
| 38> H 	 -83.1137 	 45.8723 	 135.317
| 39> H 	 -83.0083 	 44.8733 	 128.645
| 40> H 	 -77.0577 	 48.744 	 132.439
| 41> *
| 42>
| 43>                          ****END OF INPUT****

CARTESIAN COORDINATES (ANGSTROEM)
---------------------------------
  S    -80.927200   44.797700  130.149000
  C    -82.566400   45.099100  129.633000
  C    -83.173200   46.070100  130.396000
  C    -82.342200   46.636700  131.394000
  C    -81.033300   46.134100  131.333000
  H    -82.530700   47.487900  132.064000
  C    -84.620200   46.578900  130.149000
  H    -85.056900   46.548900  131.109000
  H    -85.202900   45.890600  129.570000
  C    -84.820500   48.043900  129.646000
  H    -85.798900   48.405800  129.807000
  H    -84.179900   48.789100  130.198000
  C    -84.291700   48.267500  128.197000
  H    -84.132700   49.238800  127.970000
  H    -83.391000   47.774100  127.938000
  H    -85.028500   47.815500  127.449000
  S    -78.683500   47.514500  131.041000
  C    -77.826300   48.015700  132.424000
  C    -78.358100   47.459200  133.536000
  C    -79.548500   46.697100  133.386000
  C    -79.867000   46.618800  132.036000
  H    -77.774600   47.486600  134.401000
  C    -80.358600   46.157200  134.516000
  H    -79.714300   45.611100  135.204000
  H    -81.001100   45.368900  134.042000
  C    -81.273400   47.153700  135.263000
  H    -81.731400   47.869400  134.637000
  H    -80.704900   47.747700  136.040000
  C    -82.506700   46.500100  135.944000
  H    -83.181500   47.280100  136.381000
  H    -82.243600   45.856400  136.750000
  H    -83.113700   45.872300  135.317000
  H    -83.008300   44.873300  128.645000
  H    -77.057700   48.744000  132.439000

 Total Charge           Charge          ....    0
 Multiplicity           Mult            ....    1
 Number of Electrons    NEL             ....  134
 Basis Dimension        Dim             ....  322

ORBITAL ENERGIES
----------------

  NO   OCC          E(Eh)            E(eV)
   0   2.0000     -88.965975     -2420.8872
   1   2.0000     -88.962927     -2420.8043
   2   2.0000     -10.332299      -281.1561
   3   2.0000     -10.325816      -280.9797
   4   2.0000     -10.311978      -280.6032
   5   2.0000     -10.310350      -280.5589
   6   2.0000     -10.303954      -280.3848
   7   2.0000     -10.302535      -280.3462
   8   2.0000     -10.298815      -280.2450
   9   2.0000     -10.296097      -280.1710
  10   2.0000     -10.292093      -280.0621
  11   2.0000     -10.290969      -280.0315
  12   2.0000     -10.290934      -280.0306
  13   2.0000     -10.282746      -279.8077
  14   2.0000     -10.277392      -279.6621
  15   2.0000     -10.268484      -279.4196
  16   2.0000      -8.080138      -219.8717
  17   2.0000      -8.078331      -219.8226
  18   2.0000      -6.038672      -164.3206
  19   2.0000      -6.036747      -164.2682
  20   2.0000      -6.034689      -164.2122
  21   2.0000      -6.032668      -164.1573
  22   2.0000      -6.030942      -164.1103
  23   2.0000      -6.029201      -164.0629
  24   2.0000      -1.007018       -27.4023
  25   2.0000      -0.984236       -26.7824
  26   2.0000      -0.909282       -24.7428
  27   2.0000      -0.903202       -24.5774
  28   2.0000      -0.869618       -23.6635
  29   2.0000      -0.853432       -23.2231
  30   2.0000      -0.844860       -22.9898
  31   2.0000      -0.813603       -22.1393
  32   2.0000      -0.786667       -21.4063
  33   2.0000      -0.775050       -21.0902
  34   2.0000      -0.712314       -19.3830
  35   2.0000      -0.703671       -19.1479
  36   2.0000      -0.696544       -18.9539
  37   2.0000      -0.661838       -18.0095
  38   2.0000      -0.637424       -17.3452
  39   2.0000      -0.616948       -16.7880
  40   2.0000      -0.599414       -16.3109
  41   2.0000      -0.566727       -15.4214
  42   2.0000      -0.560140       -15.2422
  43   2.0000      -0.548950       -14.9377
  44   2.0000      -0.534856       -14.5542
  45   2.0000      -0.529289       -14.4027
  46   2.0000      -0.521402       -14.1881
  47   2.0000      -0.513218       -13.9654
  48   2.0000      -0.510278       -13.8854
  49   2.0000      -0.497437       -13.5360
  50   2.0000      -0.483709       -13.1624
  51   2.0000      -0.480109       -13.0644
  52   2.0000      -0.473867       -12.8946
  53   2.0000      -0.463999       -12.6261
  54   2.0000      -0.458564       -12.4782
  55   2.0000      -0.448496       -12.2042
  56   2.0000      -0.444241       -12.0884
  57   2.0000      -0.438236       -11.9250
  58   2.0000      -0.435729       -11.8568
  59   2.0000      -0.425799       -11.5866
  60   2.0000      -0.421258       -11.4630
  61   2.0000      -0.419035       -11.4025
  62   2.0000      -0.407674       -11.0934
  63   2.0000      -0.339711        -9.2440
  64   2.0000      -0.330005        -8.9799
  65   2.0000      -0.328209        -8.9310
  66   2.0000      -0.299584        -8.1521
  67   0.0000       0.031603         0.8600
  68   0.0000       0.059332         1.6145
  69   0.0000       0.116959         3.1826
  70   0.0000       0.125226         3.4076
  71   0.0000       0.130995         3.5645

MULLIKEN ATOMIC CHARGES
-----------------------
   0 S :    0.109823
   1 C :   -0.116254
   2 C :   -0.112715
   3 C :    0.048122
   4 C :   -0.191752
   5 H :    0.027278
   6 C :    0.104769
   7 H :    0.016889
   8 H :    0.015299
   9 C :   -0.072840
  10 H :    0.026452
  11 H :    0.028045
  12 C :   -0.031436
  13 H :    0.011582
  14 H :    0.023322
  15 H :    0.023658
  16 S :    0.111964
  17 C :   -0.068471
  18 C :   -0.026950
  19 C :   -0.002675
  20 C :   -0.190926
  21 H :   -0.003429
  22 C :    0.067755
  23 H :    0.030316
  24 H :    0.033108
  25 C :   -0.049145
  26 H :    0.020320
  27 H :    0.037997
  28 C :   -0.066005
  29 H :    0.037146
  30 H :    0.020759
  31 H :    0.028721
  32 H :    0.063168
  33 H :    0.046106
Sum of atomic charges:    0.0000000

LOEWDIN ATOMIC CHARGES
----------------------
   0 S :    0.391249
   1 C :   -0.213296
   2 C :   -0.062213
   3 C :   -0.059955
   4 C :   -0.184476
   5 H :    0.037600
   6 C :   -0.023247
   7 H :    0.028531
   8 H :    0.025427
   9 C :   -0.036207
  10 H :    0.018854
  11 H :    0.028946
  12 C :   -0.061129
  13 H :    0.008986
  14 H :    0.022095
  15 H :    0.028079
  16 S :    0.413148
  17 C :   -0.185624
  18 C :   -0.073402
  19 C :   -0.048046
  20 C :   -0.197066
  21 H :    0.020710
  22 C :   -0.034365
  23 H :    0.033920
  24 H :    0.039274
  25 C :   -0.036024
  26 H :    0.017421
  27 H :    0.031475
  28 C :   -0.066196
  29 H :    0.032236
  30 H :    0.017606
  31 H :    0.021377
  32 H :    0.038193
  33 H :    0.026119

  Mayer bond orders larger than 0.100000
B(  0-S ,  1-C ) :   1.1288 B(  0-S ,  4-C ) :   1.1481 B(  1-C ,  2-C ) :   1.6351
B(  1-C , 32-H ) :   0.9546 B(  2-C ,  3-C ) :   1.2313 B(  2-C ,  6-C ) :   1.0190
B(  3-C ,  4-C ) :   1.5804 B(  3-C ,  5-H ) :   0.9878 B(  4-C , 20-C ) :   1.0324
B(  6-C ,  7-H ) :   0.9317 B(  6-C ,  8-H ) :   0.9484 B(  6-C ,  9-C ) :   1.0656
B(  9-C , 10-H ) :   0.9596 B(  9-C , 11-H ) :   0.9604 B(  9-C , 12-C ) :   1.0632
B( 12-C , 13-H ) :   0.9787 B( 12-C , 14-H ) :   0.9768 B( 12-C , 15-H ) :   0.9752
B( 16-S , 17-C ) :   1.1626 B( 16-S , 20-C ) :   1.1434 B( 17-C , 18-C ) :   1.6131
B( 17-C , 33-H ) :   0.9701 B( 18-C , 19-C ) :   1.2284 B( 18-C , 21-H ) :   0.9962
B( 19-C , 20-C ) :   1.5907 B( 19-C , 22-C ) :   1.0642 B( 22-C , 23-H ) :   0.9276
B( 22-C , 24-H ) :   0.9319 B( 22-C , 25-C ) :   1.0513 B( 25-C , 26-H ) :   0.9603
B( 25-C , 27-H ) :   0.9517 B( 25-C , 28-C ) :   1.0817 B( 28-C , 29-H ) :   0.9758
B( 28-C , 30-H ) :   0.9765 B( 28-C , 31-H ) :   0.9755

Dispersion correction           -0.014650465
FINAL SINGLE POINT ENERGY     -1339.866620614244

DIPOLE MOMENT
-------------
                                X             Y             Z
Electronic contribution:     21.35537      -7.64607      -9.29115
Nuclear contribution   :    -21.65987       8.07396       9.70218
                        -----------------------------------------
Total Dipole Moment    :     -0.30449       0.42788       0.41103
                        -----------------------------------------
Magnitude (a.u.)       :      0.66689
Magnitude (Debye)      :      1.69511

Rotational constants in cm-1:     0.016960     0.009019     0.007402
Rotational constants in MHz :   508.437875   270.373872   221.905039

                             ****ORCA TERMINATED NORMALLY****
TOTAL RUN TIME: 0 days 0 hours 0 minutes 33 seconds 47 msec
