                         Program Version 4.2.1 -  RELEASE  -
|  1> ! wB97X-D3 SP def2-SVP
|  2> %pal
|  3> nprocs 16
|  4> end
|  5>
|  6> * xyz 0 1
|  7> S 	 -19.082 	 4.07684 	 83.177
|  8> C 	 -17.8344 	 3.94911 	 84.4012
|  9> C 	 -17.8701 	 2.74626 	 85.104
| 10> C 	 -19.016 	 1.97517 	 84.7073
| 11> C 	 -19.8061 	 2.54152 	 83.7381
| 12> H 	 -19.1674 	 0.933321 	 84.9306
| 13> C 	 -16.9433 	 2.36629 	 86.2944
| 14> H 	 -17.5873 	 2.1035 	 87.1023
| 15> H 	 -16.3306 	 3.22793 	 86.628
| 16> C 	 -15.904 	 1.30734 	 85.8527
| 17> H 	 -16.3514 	 0.46485 	 85.4569
| 18> H 	 -15.3108 	 1.76047 	 85.0676
| 19> C 	 -15.1223 	 0.8912 	 87.1299
| 20> H 	 -14.3187 	 0.106111 	 86.8655
| 21> H 	 -14.7273 	 1.66836 	 87.7619
| 22> H 	 -15.9282 	 0.425973 	 87.6969
| 23> S 	 -22.4226 	 2.22167 	 84.0989
| 24> C 	 -23.345 	 1.38145 	 82.8995
| 25> C 	 -22.6633 	 1.10135 	 81.7537
| 26> C 	 -21.2661 	 1.37605 	 81.8124
| 27> C 	 -20.9644 	 2.00262 	 83.0555
| 28> H 	 -23.2145 	 0.726507 	 80.9286
| 29> C 	 -20.301 	 1.13984 	 80.6481
| 30> H 	 -19.9959 	 2.08781 	 80.164
| 31> H 	 -20.7808 	 0.689884 	 79.8372
| 32> C 	 -19.1157 	 0.272585 	 81.0117
| 33> H 	 -19.4089 	 -0.763251 	 81.2112
| 34> H 	 -18.6565 	 0.670007 	 81.8884
| 35> C 	 -18.0918 	 0.234063 	 79.9002
| 36> H 	 -17.3008 	 -0.418236 	 80.4666
| 37> H 	 -17.5177 	 1.1895 	 79.6776
| 38> H 	 -18.5118 	 -0.21814 	 79.0726
| 39> H 	 -17.0864 	 4.69201 	 84.7246
| 40> H 	 -24.4288 	 1.33637 	 82.9222
| 41> *
| 42>
| 43>                          ****END OF INPUT****

CARTESIAN COORDINATES (ANGSTROEM)
---------------------------------
  S    -19.082000    4.076840   83.177000
  C    -17.834400    3.949110   84.401200
  C    -17.870100    2.746260   85.104000
  C    -19.016000    1.975170   84.707300
  C    -19.806100    2.541520   83.738100
  H    -19.167400    0.933321   84.930600
  C    -16.943300    2.366290   86.294400
  H    -17.587300    2.103500   87.102300
  H    -16.330600    3.227930   86.628000
  C    -15.904000    1.307340   85.852700
  H    -16.351400    0.464850   85.456900
  H    -15.310800    1.760470   85.067600
  C    -15.122300    0.891200   87.129900
  H    -14.318700    0.106111   86.865500
  H    -14.727300    1.668360   87.761900
  H    -15.928200    0.425973   87.696900
  S    -22.422600    2.221670   84.098900
  C    -23.345000    1.381450   82.899500
  C    -22.663300    1.101350   81.753700
  C    -21.266100    1.376050   81.812400
  C    -20.964400    2.002620   83.055500
  H    -23.214500    0.726507   80.928600
  C    -20.301000    1.139840   80.648100
  H    -19.995900    2.087810   80.164000
  H    -20.780800    0.689884   79.837200
  C    -19.115700    0.272585   81.011700
  H    -19.408900   -0.763251   81.211200
  H    -18.656500    0.670007   81.888400
  C    -18.091800    0.234063   79.900200
  H    -17.300800   -0.418236   80.466600
  H    -17.517700    1.189500   79.677600
  H    -18.511800   -0.218140   79.072600
  H    -17.086400    4.692010   84.724600
  H    -24.428800    1.336370   82.922200

 Total Charge           Charge          ....    0
 Multiplicity           Mult            ....    1
 Number of Electrons    NEL             ....  134
 Basis Dimension        Dim             ....  322

ORBITAL ENERGIES
----------------

  NO   OCC          E(Eh)            E(eV)
   0   2.0000     -88.965382     -2420.8711
   1   2.0000     -88.964878     -2420.8574
   2   2.0000     -10.330804      -281.1155
   3   2.0000     -10.328917      -281.0641
   4   2.0000     -10.315675      -280.7038
   5   2.0000     -10.312291      -280.6117
   6   2.0000     -10.311495      -280.5900
   7   2.0000     -10.302011      -280.3320
   8   2.0000     -10.296035      -280.1693
   9   2.0000     -10.293393      -280.0975
  10   2.0000     -10.288641      -279.9681
  11   2.0000     -10.286897      -279.9207
  12   2.0000     -10.284568      -279.8573
  13   2.0000     -10.283361      -279.8245
  14   2.0000     -10.280077      -279.7351
  15   2.0000     -10.277608      -279.6679
  16   2.0000      -8.079332      -219.8498
  17   2.0000      -8.079285      -219.8485
  18   2.0000      -6.037917      -164.3001
  19   2.0000      -6.037657      -164.2930
  20   2.0000      -6.033947      -164.1920
  21   2.0000      -6.033917      -164.1912
  22   2.0000      -6.030115      -164.0878
  23   2.0000      -6.030058      -164.0862
  24   2.0000      -1.000000       -27.2114
  25   2.0000      -0.977941       -26.6111
  26   2.0000      -0.913836       -24.8667
  27   2.0000      -0.910405       -24.7734
  28   2.0000      -0.868214       -23.6253
  29   2.0000      -0.851880       -23.1808
  30   2.0000      -0.843567       -22.9546
  31   2.0000      -0.810679       -22.0597
  32   2.0000      -0.781963       -21.2783
  33   2.0000      -0.765316       -20.8253
  34   2.0000      -0.707864       -19.2620
  35   2.0000      -0.701362       -19.0850
  36   2.0000      -0.689785       -18.7700
  37   2.0000      -0.657823       -17.9003
  38   2.0000      -0.638616       -17.3776
  39   2.0000      -0.617734       -16.8094
  40   2.0000      -0.598604       -16.2888
  41   2.0000      -0.572507       -15.5787
  42   2.0000      -0.571481       -15.5508
  43   2.0000      -0.558552       -15.1990
  44   2.0000      -0.527376       -14.3506
  45   2.0000      -0.522005       -14.2045
  46   2.0000      -0.514441       -13.9987
  47   2.0000      -0.503273       -13.6948
  48   2.0000      -0.501236       -13.6393
  49   2.0000      -0.497892       -13.5483
  50   2.0000      -0.491422       -13.3723
  51   2.0000      -0.481764       -13.1095
  52   2.0000      -0.468630       -12.7521
  53   2.0000      -0.466367       -12.6905
  54   2.0000      -0.453748       -12.3471
  55   2.0000      -0.448452       -12.2030
  56   2.0000      -0.443706       -12.0739
  57   2.0000      -0.438652       -11.9363
  58   2.0000      -0.434847       -11.8328
  59   2.0000      -0.430565       -11.7163
  60   2.0000      -0.422995       -11.5103
  61   2.0000      -0.410064       -11.1584
  62   2.0000      -0.406652       -11.0656
  63   2.0000      -0.337033        -9.1711
  64   2.0000      -0.331036        -9.0079
  65   2.0000      -0.321108        -8.7378
  66   2.0000      -0.302256        -8.2248
  67   0.0000       0.039310         1.0697
  68   0.0000       0.052729         1.4348
  69   0.0000       0.105857         2.8805
  70   0.0000       0.113073         3.0769
  71   0.0000       0.125121         3.4047

MULLIKEN ATOMIC CHARGES
-----------------------
   0 S :    0.113539
   1 C :   -0.112951
   2 C :   -0.109133
   3 C :    0.066591
   4 C :   -0.181170
   5 H :    0.014301
   6 C :    0.038396
   7 H :    0.032992
   8 H :    0.022513
   9 C :   -0.043798
  10 H :    0.014666
  11 H :    0.028840
  12 C :   -0.058310
  13 H :    0.051430
  14 H :    0.033842
  15 H :    0.025199
  16 S :    0.110139
  17 C :   -0.073321
  18 C :   -0.048282
  19 C :    0.020090
  20 C :   -0.214949
  21 H :    0.005850
  22 C :    0.117268
  23 H :    0.034025
  24 H :   -0.017552
  25 C :   -0.089220
  26 H :    0.030376
  27 H :    0.032536
  28 C :   -0.060921
  29 H :    0.039595
  30 H :    0.049538
  31 H :    0.024646
  32 H :    0.049702
  33 H :    0.053533
Sum of atomic charges:    0.0000000

LOEWDIN ATOMIC CHARGES
----------------------
   0 S :    0.386697
   1 C :   -0.201927
   2 C :   -0.065434
   3 C :   -0.060484
   4 C :   -0.199300
   5 H :    0.030823
   6 C :   -0.023559
   7 H :    0.025555
   8 H :    0.032055
   9 C :   -0.029361
  10 H :    0.012515
  11 H :    0.022843
  12 C :   -0.069318
  13 H :    0.035110
  14 H :    0.020504
  15 H :    0.026631
  16 S :    0.403825
  17 C :   -0.189438
  18 C :   -0.072760
  19 C :   -0.040589
  20 C :   -0.185808
  21 H :    0.027537
  22 C :   -0.032144
  23 H :    0.037397
  24 H :    0.018706
  25 C :   -0.038727
  26 H :    0.027613
  27 H :    0.020660
  28 C :   -0.065716
  29 H :    0.041490
  30 H :    0.032835
  31 H :    0.010342
  32 H :    0.033948
  33 H :    0.027478

  Mayer bond orders larger than 0.100000
B(  0-S ,  1-C ) :   1.1344 B(  0-S ,  4-C ) :   1.1220 B(  1-C ,  2-C ) :   1.6436
B(  1-C , 32-H ) :   0.9571 B(  2-C ,  3-C ) :   1.2242 B(  2-C ,  6-C ) :   1.0125
B(  3-C ,  4-C ) :   1.6172 B(  3-C ,  5-H ) :   0.9878 B(  4-C , 20-C ) :   1.0244
B(  6-C ,  7-H ) :   0.9512 B(  6-C ,  8-H ) :   0.9469 B(  6-C ,  9-C ) :   1.0522
B(  9-C , 10-H ) :   0.9628 B(  9-C , 11-H ) :   0.9562 B(  9-C , 12-C ) :   1.0649
B( 12-C , 13-H ) :   0.9741 B( 12-C , 14-H ) :   0.9770 B( 12-C , 15-H ) :   0.9759
B( 16-S , 17-C ) :   1.1535 B( 16-S , 20-C ) :   1.1562 B( 17-C , 18-C ) :   1.6340
B( 17-C , 20-C ) :   0.1053 B( 17-C , 33-H ) :   0.9598 B( 18-C , 19-C ) :   1.2317
B( 18-C , 21-H ) :   0.9917 B( 19-C , 20-C ) :   1.5739 B( 19-C , 22-C ) :   1.0373
B( 22-C , 23-H ) :   0.9353 B( 22-C , 24-H ) :   0.9197 B( 22-C , 25-C ) :   1.0614
B( 25-C , 26-H ) :   0.9515 B( 25-C , 27-H ) :   0.9611 B( 25-C , 28-C ) :   1.0854
B( 28-C , 29-H ) :   0.9755 B( 28-C , 30-H ) :   0.9736 B( 28-C , 31-H ) :   0.9744

Dispersion correction           -0.014203065
FINAL SINGLE POINT ENERGY     -1339.859222576710

DIPOLE MOMENT
-------------
                                X             Y             Z
Electronic contribution:    -22.60829      14.19907       0.47769
Nuclear contribution   :     22.84732     -14.54528      -0.56433
                        -----------------------------------------
Total Dipole Moment    :      0.23903      -0.34621      -0.08664
                        -----------------------------------------
Magnitude (a.u.)       :      0.42954
Magnitude (Debye)      :      1.09181

Rotational constants in cm-1:     0.018129     0.008237     0.007004
Rotational constants in MHz :   543.502371   246.931450   209.962833

                             ****ORCA TERMINATED NORMALLY****
TOTAL RUN TIME: 0 days 0 hours 0 minutes 33 seconds 366 msec
