                         Program Version 4.2.1 -  RELEASE  -
|  1> ! wB97X-D3 SP def2-SVP
|  2> %pal
|  3> nprocs 16
|  4> end
|  5>
|  6> * xyz 0 1
|  7> S 	 11.3923 	 -17.5949 	 89.3072
|  8> C 	 13.1859 	 -17.6226 	 88.9663
|  9> C 	 13.7355 	 -16.3526 	 89.0361
| 10> C 	 12.755 	 -15.3405 	 89.2373
| 11> C 	 11.4366 	 -15.7458 	 89.3336
| 12> H 	 13.0017 	 -14.2865 	 89.0885
| 13> C 	 15.1169 	 -15.9882 	 88.7275
| 14> H 	 15.8139 	 -16.6191 	 89.2653
| 15> H 	 15.2879 	 -14.9515 	 89.1301
| 16> C 	 15.5008 	 -16.0027 	 87.2735
| 17> H 	 15.5211 	 -17.0188 	 86.9093
| 18> H 	 14.7397 	 -15.5384 	 86.7549
| 19> C 	 16.6815 	 -15.1855 	 86.8811
| 20> H 	 16.8082 	 -15.1401 	 85.7846
| 21> H 	 16.7243 	 -14.1461 	 87.2869
| 22> H 	 17.5006 	 -15.7024 	 87.3812
| 23> S 	 9.1036 	 -15.3918 	 90.7967
| 24> C 	 8.04097 	 -14.0384 	 90.5673
| 25> C 	 8.54321 	 -13.3521 	 89.4997
| 26> C 	 9.78962 	 -13.7858 	 88.9231
| 27> C 	 10.2415 	 -14.9346 	 89.5137
| 28> H 	 7.84049 	 -12.6256 	 89.0902
| 29> C 	 10.4258 	 -13.1479 	 87.6812
| 30> H 	 9.59143 	 -13.086 	 86.9183
| 31> H 	 11.1094 	 -13.8737 	 87.3645
| 32> C 	 11.0921 	 -11.8037 	 87.9046
| 33> H 	 11.8588 	 -11.993 	 88.6468
| 34> H 	 10.3618 	 -11.1677 	 88.4296
| 35> C 	 11.72 	 -11.2102 	 86.6404
| 36> H 	 11.0955 	 -10.7822 	 85.913
| 37> H 	 12.1471 	 -12.049 	 86.1954
| 38> H 	 12.3798 	 -10.3805 	 86.9754
| 39> H 	 13.8482 	 -18.5295 	 89.0971
| 40> H 	 7.06566 	 -13.8726 	 91.0039
| 41> *
| 42>
| 43>                          ****END OF INPUT****

CARTESIAN COORDINATES (ANGSTROEM)
---------------------------------
  S     11.392300  -17.594900   89.307200
  C     13.185900  -17.622600   88.966300
  C     13.735500  -16.352600   89.036100
  C     12.755000  -15.340500   89.237300
  C     11.436600  -15.745800   89.333600
  H     13.001700  -14.286500   89.088500
  C     15.116900  -15.988200   88.727500
  H     15.813900  -16.619100   89.265300
  H     15.287900  -14.951500   89.130100
  C     15.500800  -16.002700   87.273500
  H     15.521100  -17.018800   86.909300
  H     14.739700  -15.538400   86.754900
  C     16.681500  -15.185500   86.881100
  H     16.808200  -15.140100   85.784600
  H     16.724300  -14.146100   87.286900
  H     17.500600  -15.702400   87.381200
  S      9.103600  -15.391800   90.796700
  C      8.040970  -14.038400   90.567300
  C      8.543210  -13.352100   89.499700
  C      9.789620  -13.785800   88.923100
  C     10.241500  -14.934600   89.513700
  H      7.840490  -12.625600   89.090200
  C     10.425800  -13.147900   87.681200
  H      9.591430  -13.086000   86.918300
  H     11.109400  -13.873700   87.364500
  C     11.092100  -11.803700   87.904600
  H     11.858800  -11.993000   88.646800
  H     10.361800  -11.167700   88.429600
  C     11.720000  -11.210200   86.640400
  H     11.095500  -10.782200   85.913000
  H     12.147100  -12.049000   86.195400
  H     12.379800  -10.380500   86.975400
  H     13.848200  -18.529500   89.097100
  H      7.065660  -13.872600   91.003900

 Total Charge           Charge          ....    0
 Multiplicity           Mult            ....    1
 Number of Electrons    NEL             ....  134
 Basis Dimension        Dim             ....  322

ORBITAL ENERGIES
----------------

  NO   OCC          E(Eh)            E(eV)
   0   2.0000     -88.969091     -2420.9721
   1   2.0000     -88.960703     -2420.7438
   2   2.0000     -10.343035      -281.4483
   3   2.0000     -10.331151      -281.1249
   4   2.0000     -10.325960      -280.9837
   5   2.0000     -10.318172      -280.7717
   6   2.0000     -10.306393      -280.4512
   7   2.0000     -10.301587      -280.3204
   8   2.0000     -10.299506      -280.2638
   9   2.0000     -10.293359      -280.0965
  10   2.0000     -10.291200      -280.0378
  11   2.0000     -10.291043      -280.0335
  12   2.0000     -10.286708      -279.9156
  13   2.0000     -10.281376      -279.7705
  14   2.0000     -10.274709      -279.5890
  15   2.0000     -10.274619      -279.5866
  16   2.0000      -8.081143      -219.8991
  17   2.0000      -8.075654      -219.7497
  18   2.0000      -6.040012      -164.3571
  19   2.0000      -6.036164      -164.2524
  20   2.0000      -6.034230      -164.1997
  21   2.0000      -6.031528      -164.1262
  22   2.0000      -6.030055      -164.0861
  23   2.0000      -6.026345      -163.9852
  24   2.0000      -1.004649       -27.3379
  25   2.0000      -0.979861       -26.6634
  26   2.0000      -0.923068       -25.1180
  27   2.0000      -0.914621       -24.8881
  28   2.0000      -0.875540       -23.8246
  29   2.0000      -0.854283       -23.2462
  30   2.0000      -0.844166       -22.9709
  31   2.0000      -0.818367       -22.2689
  32   2.0000      -0.784271       -21.3411
  33   2.0000      -0.774144       -21.0655
  34   2.0000      -0.710909       -19.3448
  35   2.0000      -0.705161       -19.1884
  36   2.0000      -0.702112       -19.1055
  37   2.0000      -0.659209       -17.9380
  38   2.0000      -0.639322       -17.3968
  39   2.0000      -0.620903       -16.8956
  40   2.0000      -0.597754       -16.2657
  41   2.0000      -0.571798       -15.5594
  42   2.0000      -0.569896       -15.5077
  43   2.0000      -0.563769       -15.3409
  44   2.0000      -0.540841       -14.7170
  45   2.0000      -0.531173       -14.4540
  46   2.0000      -0.524107       -14.2617
  47   2.0000      -0.522103       -14.2072
  48   2.0000      -0.506456       -13.7814
  49   2.0000      -0.498595       -13.5675
  50   2.0000      -0.494218       -13.4484
  51   2.0000      -0.484860       -13.1937
  52   2.0000      -0.473662       -12.8890
  53   2.0000      -0.466614       -12.6972
  54   2.0000      -0.456794       -12.4300
  55   2.0000      -0.446315       -12.1449
  56   2.0000      -0.440905       -11.9976
  57   2.0000      -0.440014       -11.9734
  58   2.0000      -0.436905       -11.8888
  59   2.0000      -0.422954       -11.5092
  60   2.0000      -0.419822       -11.4239
  61   2.0000      -0.410468       -11.1694
  62   2.0000      -0.408153       -11.1064
  63   2.0000      -0.351853        -9.5744
  64   2.0000      -0.332845        -9.0572
  65   2.0000      -0.327174        -8.9029
  66   2.0000      -0.297278        -8.0893
  67   0.0000       0.018516         0.5038
  68   0.0000       0.065022         1.7693
  69   0.0000       0.102792         2.7971
  70   0.0000       0.117533         3.1982
  71   0.0000       0.122583         3.3357

MULLIKEN ATOMIC CHARGES
-----------------------
   0 S :    0.086257
   1 C :   -0.132733
   2 C :   -0.095156
   3 C :    0.041350
   4 C :   -0.144699
   5 H :    0.013779
   6 C :    0.044612
   7 H :    0.021445
   8 H :    0.019263
   9 C :   -0.010808
  10 H :    0.025147
  11 H :   -0.002860
  12 C :   -0.060289
  13 H :    0.047360
  14 H :    0.034908
  15 H :    0.020521
  16 S :    0.085292
  17 C :   -0.086837
  18 C :   -0.050577
  19 C :   -0.044091
  20 C :   -0.142280
  21 H :    0.021493
  22 C :    0.061859
  23 H :    0.038806
  24 H :    0.008173
  25 C :   -0.079477
  26 H :    0.019374
  27 H :    0.026272
  28 C :    0.011999
  29 H :    0.021785
  30 H :    0.015015
  31 H :    0.043704
  32 H :    0.076391
  33 H :    0.065001
Sum of atomic charges:   -0.0000000

LOEWDIN ATOMIC CHARGES
----------------------
   0 S :    0.337767
   1 C :   -0.182938
   2 C :   -0.066031
   3 C :   -0.058502
   4 C :   -0.156218
   5 H :    0.031787
   6 C :   -0.034272
   7 H :    0.028250
   8 H :    0.034344
   9 C :   -0.040054
  10 H :    0.026082
  11 H :    0.013550
  12 C :   -0.064662
  13 H :    0.032406
  14 H :    0.029017
  15 H :    0.022625
  16 S :    0.394635
  17 C :   -0.186285
  18 C :   -0.079847
  19 C :   -0.055615
  20 C :   -0.189447
  21 H :    0.030796
  22 C :   -0.028716
  23 H :    0.037569
  24 H :    0.017727
  25 C :   -0.040160
  26 H :    0.021705
  27 H :    0.023221
  28 C :   -0.055993
  29 H :    0.019496
  30 H :    0.020136
  31 H :    0.036486
  32 H :    0.043670
  33 H :    0.037472

  Mayer bond orders larger than 0.100000
B(  0-S ,  1-C ) :   1.1112 B(  0-S ,  4-C ) :   1.1128 B(  1-C ,  2-C ) :   1.6333
B(  1-C ,  4-C ) :   0.1013 B(  1-C , 32-H ) :   0.9518 B(  2-C ,  3-C ) :   1.2366
B(  2-C ,  6-C ) :   1.0497 B(  3-C ,  4-C ) :   1.5918 B(  3-C ,  5-H ) :   0.9811
B(  4-C , 20-C ) :   1.0564 B(  6-C ,  7-H ) :   0.9244 B(  6-C ,  8-H ) :   0.9374
B(  6-C ,  9-C ) :   1.0673 B(  9-C , 10-H ) :   0.9458 B(  9-C , 11-H ) :   0.9480
B(  9-C , 12-C ) :   1.0881 B( 12-C , 13-H ) :   0.9725 B( 12-C , 14-H ) :   0.9717
B( 12-C , 15-H ) :   0.9743 B( 16-S , 17-C ) :   1.1467 B( 16-S , 20-C ) :   1.1289
B( 17-C , 18-C ) :   1.6273 B( 17-C , 33-H ) :   0.9679 B( 18-C , 19-C ) :   1.2193
B( 18-C , 21-H ) :   0.9847 B( 19-C , 20-C ) :   1.6067 B( 19-C , 22-C ) :   1.0415
B( 22-C , 23-H ) :   0.9375 B( 22-C , 24-H ) :   0.9239 B( 22-C , 25-C ) :   1.0697
B( 25-C , 26-H ) :   0.9491 B( 25-C , 27-H ) :   0.9555 B( 25-C , 28-C ) :   1.0721
B( 28-C , 29-H ) :   0.9758 B( 28-C , 30-H ) :   0.9705 B( 28-C , 31-H ) :   0.9742

Dispersion correction           -0.013866449
FINAL SINGLE POINT ENERGY     -1339.860695582771

DIPOLE MOMENT
-------------
                                X             Y             Z
Electronic contribution:    -21.63955     -17.41690      17.54289
Nuclear contribution   :     21.96949      17.96490     -17.97498
                        -----------------------------------------
Total Dipole Moment    :      0.32994       0.54801      -0.43209
                        -----------------------------------------
Magnitude (a.u.)       :      0.77193
Magnitude (Debye)      :      1.96208

Rotational constants in cm-1:     0.017042     0.009261     0.006318
Rotational constants in MHz :   510.903924   277.643015   189.406490

                             ****ORCA TERMINATED NORMALLY****
TOTAL RUN TIME: 0 days 0 hours 0 minutes 33 seconds 583 msec
