                         Program Version 4.2.1 -  RELEASE  -
|  1> ! wB97X-D3 SP def2-SVP
|  2> %pal
|  3> nprocs 16
|  4> end
|  5>
|  6> * xyz 0 1
|  7> S 	 -41.1895 	 34.2945 	 86.5167
|  8> C 	 -42.801 	 34.8742 	 86.5835
|  9> C 	 -43.6965 	 34.0856 	 85.8874
| 10> C 	 -43.0472 	 32.9783 	 85.3283
| 11> C 	 -41.6817 	 32.8549 	 85.5957
| 12> H 	 -43.6016 	 32.2482 	 84.7613
| 13> C 	 -45.1485 	 34.3786 	 85.8203
| 14> H 	 -45.4966 	 34.0875 	 86.8464
| 15> H 	 -45.5112 	 33.5395 	 85.1936
| 16> C 	 -45.5838 	 35.8166 	 85.3977
| 17> H 	 -45.9842 	 36.3877 	 86.2322
| 18> H 	 -44.7202 	 36.464 	 85.1159
| 19> C 	 -46.6057 	 35.7161 	 84.2879
| 20> H 	 -46.2221 	 35.2487 	 83.4072
| 21> H 	 -47.3689 	 35.0844 	 84.6773
| 22> H 	 -46.958 	 36.7164 	 83.9653
| 23> S 	 -39.4407 	 32.27 	 84.1281
| 24> C 	 -38.9167 	 30.5845 	 84.0104
| 25> C 	 -39.861 	 29.7222 	 84.592
| 26> C 	 -40.9701 	 30.3773 	 85.16
| 27> C 	 -40.8104 	 31.7776 	 85.1907
| 28> H 	 -39.6897 	 28.6175 	 84.4025
| 29> C 	 -42.0115 	 29.5258 	 85.8997
| 30> H 	 -42.7411 	 30.2558 	 86.2792
| 31> H 	 -41.4921 	 29.1666 	 86.7839
| 32> C 	 -42.6837 	 28.2564 	 85.1556
| 33> H 	 -43.4144 	 27.8519 	 85.9231
| 34> H 	 -42.0115 	 27.3759 	 85.0053
| 35> C 	 -43.3115 	 28.5577 	 83.837
| 36> H 	 -43.0305 	 29.5177 	 83.4021
| 37> H 	 -44.4404 	 28.5848 	 84.0234
| 38> H 	 -42.9875 	 27.8387 	 83.1315
| 39> H 	 -43.0136 	 35.7551 	 87.1727
| 40> H 	 -38.0451 	 30.2729 	 83.3828
| 41> *
| 42>
| 43>                          ****END OF INPUT****

CARTESIAN COORDINATES (ANGSTROEM)
---------------------------------
  S    -41.189500   34.294500   86.516700
  C    -42.801000   34.874200   86.583500
  C    -43.696500   34.085600   85.887400
  C    -43.047200   32.978300   85.328300
  C    -41.681700   32.854900   85.595700
  H    -43.601600   32.248200   84.761300
  C    -45.148500   34.378600   85.820300
  H    -45.496600   34.087500   86.846400
  H    -45.511200   33.539500   85.193600
  C    -45.583800   35.816600   85.397700
  H    -45.984200   36.387700   86.232200
  H    -44.720200   36.464000   85.115900
  C    -46.605700   35.716100   84.287900
  H    -46.222100   35.248700   83.407200
  H    -47.368900   35.084400   84.677300
  H    -46.958000   36.716400   83.965300
  S    -39.440700   32.270000   84.128100
  C    -38.916700   30.584500   84.010400
  C    -39.861000   29.722200   84.592000
  C    -40.970100   30.377300   85.160000
  C    -40.810400   31.777600   85.190700
  H    -39.689700   28.617500   84.402500
  C    -42.011500   29.525800   85.899700
  H    -42.741100   30.255800   86.279200
  H    -41.492100   29.166600   86.783900
  C    -42.683700   28.256400   85.155600
  H    -43.414400   27.851900   85.923100
  H    -42.011500   27.375900   85.005300
  C    -43.311500   28.557700   83.837000
  H    -43.030500   29.517700   83.402100
  H    -44.440400   28.584800   84.023400
  H    -42.987500   27.838700   83.131500
  H    -43.013600   35.755100   87.172700
  H    -38.045100   30.272900   83.382800

 Total Charge           Charge          ....    0
 Multiplicity           Mult            ....    1
 Number of Electrons    NEL             ....  134
 Basis Dimension        Dim             ....  322

ORBITAL ENERGIES
----------------

  NO   OCC          E(Eh)            E(eV)
   0   2.0000     -88.965587     -2420.8767
   1   2.0000     -88.964143     -2420.8374
   2   2.0000     -10.331318      -281.1295
   3   2.0000     -10.329069      -281.0682
   4   2.0000     -10.322999      -280.9031
   5   2.0000     -10.307876      -280.4916
   6   2.0000     -10.307678      -280.4862
   7   2.0000     -10.298784      -280.2442
   8   2.0000     -10.297573      -280.2112
   9   2.0000     -10.297256      -280.2026
  10   2.0000     -10.296684      -280.1870
  11   2.0000     -10.293318      -280.0954
  12   2.0000     -10.291611      -280.0490
  13   2.0000     -10.291196      -280.0377
  14   2.0000     -10.276740      -279.6443
  15   2.0000     -10.274901      -279.5943
  16   2.0000      -8.080408      -219.8791
  17   2.0000      -8.077902      -219.8109
  18   2.0000      -6.038773      -164.3234
  19   2.0000      -6.036346      -164.2573
  20   2.0000      -6.034794      -164.2151
  21   2.0000      -6.032663      -164.1571
  22   2.0000      -6.031437      -164.1238
  23   2.0000      -6.028664      -164.0483
  24   2.0000      -1.002814       -27.2880
  25   2.0000      -0.979562       -26.6552
  26   2.0000      -0.912967       -24.8431
  27   2.0000      -0.899788       -24.4845
  28   2.0000      -0.867783       -23.6136
  29   2.0000      -0.856278       -23.3005
  30   2.0000      -0.849827       -23.1250
  31   2.0000      -0.809521       -22.0282
  32   2.0000      -0.780514       -21.2389
  33   2.0000      -0.765225       -20.8228
  34   2.0000      -0.711647       -19.3649
  35   2.0000      -0.702262       -19.1095
  36   2.0000      -0.689178       -18.7535
  37   2.0000      -0.654941       -17.8219
  38   2.0000      -0.638858       -17.3842
  39   2.0000      -0.614972       -16.7342
  40   2.0000      -0.586607       -15.9624
  41   2.0000      -0.566587       -15.4176
  42   2.0000      -0.558020       -15.1845
  43   2.0000      -0.552500       -15.0343
  44   2.0000      -0.535029       -14.5589
  45   2.0000      -0.534835       -14.5536
  46   2.0000      -0.523076       -14.2336
  47   2.0000      -0.512820       -13.9545
  48   2.0000      -0.498103       -13.5541
  49   2.0000      -0.494250       -13.4492
  50   2.0000      -0.488682       -13.2977
  51   2.0000      -0.475557       -12.9406
  52   2.0000      -0.472527       -12.8581
  53   2.0000      -0.461146       -12.5484
  54   2.0000      -0.456950       -12.4343
  55   2.0000      -0.447883       -12.1875
  56   2.0000      -0.443935       -12.0801
  57   2.0000      -0.440451       -11.9853
  58   2.0000      -0.431989       -11.7550
  59   2.0000      -0.424404       -11.5486
  60   2.0000      -0.419768       -11.4225
  61   2.0000      -0.415937       -11.3182
  62   2.0000      -0.405196       -11.0259
  63   2.0000      -0.343777        -9.3546
  64   2.0000      -0.329982        -8.9793
  65   2.0000      -0.328640        -8.9427
  66   2.0000      -0.285164        -7.7597
  67   0.0000       0.025237         0.6867
  68   0.0000       0.063313         1.7228
  69   0.0000       0.105158         2.8615
  70   0.0000       0.124880         3.3982
  71   0.0000       0.127856         3.4791

MULLIKEN ATOMIC CHARGES
-----------------------
   0 S :    0.121533
   1 C :   -0.137647
   2 C :   -0.111491
   3 C :    0.036614
   4 C :   -0.165662
   5 H :    0.000590
   6 C :    0.061511
   7 H :    0.050738
   8 H :    0.017240
   9 C :   -0.059670
  10 H :    0.026899
  11 H :    0.040656
  12 C :   -0.042288
  13 H :    0.031373
  14 H :    0.031176
  15 H :    0.033763
  16 S :    0.091123
  17 C :   -0.116005
  18 C :   -0.057857
  19 C :   -0.029029
  20 C :   -0.150963
  21 H :    0.044600
  22 C :    0.056156
  23 H :    0.025126
  24 H :    0.044166
  25 C :   -0.119554
  26 H :    0.044024
  27 H :    0.033977
  28 C :   -0.043177
  29 H :    0.042208
  30 H :    0.045969
  31 H :    0.029213
  32 H :    0.048661
  33 H :    0.076024
Sum of atomic charges:   -0.0000000

LOEWDIN ATOMIC CHARGES
----------------------
   0 S :    0.417480
   1 C :   -0.204553
   2 C :   -0.074898
   3 C :   -0.060303
   4 C :   -0.201580
   5 H :    0.026660
   6 C :   -0.037027
   7 H :    0.045208
   8 H :    0.032027
   9 C :   -0.042940
  10 H :    0.024626
  11 H :    0.027902
  12 C :   -0.057607
  13 H :    0.021991
  14 H :    0.022401
  15 H :    0.028012
  16 S :    0.380501
  17 C :   -0.185892
  18 C :   -0.083110
  19 C :   -0.059030
  20 C :   -0.185340
  21 H :    0.043697
  22 C :   -0.031045
  23 H :    0.029459
  24 H :    0.036798
  25 C :   -0.049989
  26 H :    0.033564
  27 H :    0.025116
  28 C :   -0.074651
  29 H :    0.027514
  30 H :    0.038894
  31 H :    0.023822
  32 H :    0.024767
  33 H :    0.037526

  Mayer bond orders larger than 0.100000
B(  0-S ,  1-C ) :   1.1696 B(  0-S ,  4-C ) :   1.1586 B(  1-C ,  2-C ) :   1.5514
B(  1-C ,  4-C ) :   0.1041 B(  1-C , 32-H ) :   0.9719 B(  2-C ,  3-C ) :   1.3113
B(  2-C ,  6-C ) :   1.0159 B(  3-C ,  4-C ) :   1.5173 B(  3-C ,  5-H ) :   0.9900
B(  4-C , 20-C ) :   1.0563 B(  6-C ,  7-H ) :   0.9287 B(  6-C ,  8-H ) :   0.9457
B(  6-C ,  9-C ) :   1.0202 B(  9-C , 10-H ) :   0.9518 B(  9-C , 11-H ) :   0.9679
B(  9-C , 12-C ) :   1.0866 B( 12-C , 13-H ) :   0.9776 B( 12-C , 14-H ) :   0.9777
B( 12-C , 15-H ) :   0.9722 B( 16-S , 17-C ) :   1.1563 B( 16-S , 20-C ) :   1.1409
B( 17-C , 18-C ) :   1.6024 B( 17-C , 20-C ) :   0.1123 B( 17-C , 33-H ) :   0.9616
B( 18-C , 19-C ) :   1.2400 B( 18-C , 21-H ) :   0.9807 B( 19-C , 20-C ) :   1.5677
B( 19-C , 22-C ) :   1.0345 B( 22-C , 23-H ) :   0.9409 B( 22-C , 24-H ) :   0.9413
B( 22-C , 25-C ) :   1.0543 B( 25-C , 26-H ) :   0.9626 B( 25-C , 27-H ) :   0.9649
B( 25-C , 28-C ) :   1.0546 B( 28-C , 29-H ) :   0.9782 B( 28-C , 30-H ) :   0.9773
B( 28-C , 31-H ) :   0.9779

Dispersion correction           -0.014038686
FINAL SINGLE POINT ENERGY     -1339.865732645815

DIPOLE MOMENT
-------------
                                X             Y             Z
Electronic contribution:     26.11070       7.33353       3.84080
Nuclear contribution   :    -26.73624      -7.67400      -3.88083
                        -----------------------------------------
Total Dipole Moment    :     -0.62554      -0.34048      -0.04004
                        -----------------------------------------
Magnitude (a.u.)       :      0.71332
Magnitude (Debye)      :      1.81311

Rotational constants in cm-1:     0.018938     0.007981     0.006349
Rotational constants in MHz :   567.746853   239.252301   190.350325

                             ****ORCA TERMINATED NORMALLY****
TOTAL RUN TIME: 0 days 0 hours 0 minutes 30 seconds 217 msec
