                         Program Version 4.2.1 -  RELEASE  -
|  1> ! wB97X-D3 SP def2-SVP
|  2> %pal
|  3> nprocs 16
|  4> end
|  5>
|  6> * xyz 0 1
|  7> S 	 62.6839 	 22.2723 	 76.171
|  8> C 	 63.6495 	 22.8725 	 74.8465
|  9> C 	 65.0339 	 22.818 	 75.1769
| 10> C 	 65.2771 	 22.3174 	 76.4924
| 11> C 	 64.1122 	 21.902 	 77.1146
| 12> H 	 66.3239 	 22.0917 	 76.8951
| 13> C 	 66.1105 	 23.1367 	 74.1986
| 14> H 	 66.3703 	 24.24 	 74.1822
| 15> H 	 65.6574 	 22.8826 	 73.2654
| 16> C 	 67.4771 	 22.4209 	 74.2795
| 17> H 	 67.8463 	 22.6034 	 75.3122
| 18> H 	 67.5347 	 21.3483 	 74.3174
| 19> C 	 68.4428 	 22.9937 	 73.2579
| 20> H 	 68.0977 	 22.8928 	 72.2765
| 21> H 	 68.4719 	 24.0756 	 73.5259
| 22> H 	 69.4336 	 22.55 	 73.291
| 23> S 	 63.8762 	 22.9487 	 79.6034
| 24> C 	 63.7247 	 21.8997 	 81.0346
| 25> C 	 63.6831 	 20.6119 	 80.665
| 26> C 	 63.8904 	 20.4194 	 79.2473
| 27> C 	 64.071 	 21.5668 	 78.5063
| 28> H 	 63.477 	 19.8114 	 81.3908
| 29> C 	 64.1069 	 18.986 	 78.6677
| 30> H 	 65.0679 	 18.5284 	 78.9828
| 31> H 	 64.1233 	 18.9953 	 77.5964
| 32> C 	 63.074 	 18.0303 	 79.1162
| 33> H 	 63.146 	 17.9156 	 80.2187
| 34> H 	 63.3177 	 17.0401 	 78.6537
| 35> C 	 61.6738 	 18.2162 	 78.7343
| 36> H 	 61.0819 	 18.9546 	 79.2438
| 37> H 	 61.2025 	 17.2956 	 79.2022
| 38> H 	 61.4002 	 18.5197 	 77.6954
| 39> H 	 63.3832 	 23.1824 	 73.8883
| 40> H 	 63.4811 	 22.2776 	 82.0091
| 41> *
| 42>
| 43>                          ****END OF INPUT****

CARTESIAN COORDINATES (ANGSTROEM)
---------------------------------
  S     62.683900   22.272300   76.171000
  C     63.649500   22.872500   74.846500
  C     65.033900   22.818000   75.176900
  C     65.277100   22.317400   76.492400
  C     64.112200   21.902000   77.114600
  H     66.323900   22.091700   76.895100
  C     66.110500   23.136700   74.198600
  H     66.370300   24.240000   74.182200
  H     65.657400   22.882600   73.265400
  C     67.477100   22.420900   74.279500
  H     67.846300   22.603400   75.312200
  H     67.534700   21.348300   74.317400
  C     68.442800   22.993700   73.257900
  H     68.097700   22.892800   72.276500
  H     68.471900   24.075600   73.525900
  H     69.433600   22.550000   73.291000
  S     63.876200   22.948700   79.603400
  C     63.724700   21.899700   81.034600
  C     63.683100   20.611900   80.665000
  C     63.890400   20.419400   79.247300
  C     64.071000   21.566800   78.506300
  H     63.477000   19.811400   81.390800
  C     64.106900   18.986000   78.667700
  H     65.067900   18.528400   78.982800
  H     64.123300   18.995300   77.596400
  C     63.074000   18.030300   79.116200
  H     63.146000   17.915600   80.218700
  H     63.317700   17.040100   78.653700
  C     61.673800   18.216200   78.734300
  H     61.081900   18.954600   79.243800
  H     61.202500   17.295600   79.202200
  H     61.400200   18.519700   77.695400
  H     63.383200   23.182400   73.888300
  H     63.481100   22.277600   82.009100

 Total Charge           Charge          ....    0
 Multiplicity           Mult            ....    1
 Number of Electrons    NEL             ....  134
 Basis Dimension        Dim             ....  322

ORBITAL ENERGIES
----------------

  NO   OCC          E(Eh)            E(eV)
   0   2.0000     -88.973912     -2421.1032
   1   2.0000     -88.956455     -2420.6282
   2   2.0000     -10.327815      -281.0341
   3   2.0000     -10.323797      -280.9248
   4   2.0000     -10.315822      -280.7078
   5   2.0000     -10.314391      -280.6688
   6   2.0000     -10.305314      -280.4218
   7   2.0000     -10.302575      -280.3473
   8   2.0000     -10.300096      -280.2799
   9   2.0000     -10.293773      -280.1078
  10   2.0000     -10.293690      -280.1055
  11   2.0000     -10.287525      -279.9378
  12   2.0000     -10.285985      -279.8959
  13   2.0000     -10.281339      -279.7695
  14   2.0000     -10.276881      -279.6482
  15   2.0000     -10.272784      -279.5367
  16   2.0000      -8.087912      -220.0833
  17   2.0000      -8.071027      -219.6238
  18   2.0000      -6.046436      -164.5319
  19   2.0000      -6.042424      -164.4227
  20   2.0000      -6.038792      -164.3239
  21   2.0000      -6.029709      -164.0767
  22   2.0000      -6.025549      -163.9635
  23   2.0000      -6.021587      -163.8557
  24   2.0000      -1.005495       -27.3609
  25   2.0000      -0.981174       -26.6991
  26   2.0000      -0.916416       -24.9369
  27   2.0000      -0.914677       -24.8896
  28   2.0000      -0.875860       -23.8334
  29   2.0000      -0.852312       -23.1926
  30   2.0000      -0.840617       -22.8743
  31   2.0000      -0.818331       -22.2679
  32   2.0000      -0.784159       -21.3381
  33   2.0000      -0.771201       -20.9855
  34   2.0000      -0.716796       -19.5050
  35   2.0000      -0.697380       -18.9767
  36   2.0000      -0.687059       -18.6958
  37   2.0000      -0.655826       -17.8459
  38   2.0000      -0.636139       -17.3102
  39   2.0000      -0.616412       -16.7734
  40   2.0000      -0.602594       -16.3974
  41   2.0000      -0.579038       -15.7564
  42   2.0000      -0.563864       -15.3435
  43   2.0000      -0.554531       -15.0896
  44   2.0000      -0.541146       -14.7253
  45   2.0000      -0.528057       -14.3692
  46   2.0000      -0.519590       -14.1388
  47   2.0000      -0.512300       -13.9404
  48   2.0000      -0.507020       -13.7967
  49   2.0000      -0.499883       -13.6025
  50   2.0000      -0.491975       -13.3873
  51   2.0000      -0.480449       -13.0737
  52   2.0000      -0.474817       -12.9204
  53   2.0000      -0.464510       -12.6399
  54   2.0000      -0.457442       -12.4476
  55   2.0000      -0.448083       -12.1930
  56   2.0000      -0.437516       -11.9054
  57   2.0000      -0.435064       -11.8387
  58   2.0000      -0.429309       -11.6821
  59   2.0000      -0.425258       -11.5719
  60   2.0000      -0.419743       -11.4218
  61   2.0000      -0.409045       -11.1307
  62   2.0000      -0.392303       -10.6751
  63   2.0000      -0.340549        -9.2668
  64   2.0000      -0.328189        -8.9305
  65   2.0000      -0.318245        -8.6599
  66   2.0000      -0.309829        -8.4309
  67   0.0000       0.039765         1.0821
  68   0.0000       0.049711         1.3527
  69   0.0000       0.113636         3.0922
  70   0.0000       0.119769         3.2591
  71   0.0000       0.129474         3.5232

MULLIKEN ATOMIC CHARGES
-----------------------
   0 S :    0.142237
   1 C :   -0.084615
   2 C :   -0.092064
   3 C :    0.000315
   4 C :   -0.158404
   5 H :    0.053261
   6 C :    0.052703
   7 H :    0.049124
   8 H :    0.014986
   9 C :   -0.098919
  10 H :    0.021719
  11 H :    0.023605
  12 C :   -0.022699
  13 H :    0.021516
  14 H :    0.030847
  15 H :    0.036046
  16 S :    0.083634
  17 C :   -0.078608
  18 C :   -0.032608
  19 C :   -0.030623
  20 C :   -0.176102
  21 H :    0.031524
  22 C :    0.114288
  23 H :    0.038307
  24 H :    0.012770
  25 C :   -0.114890
  26 H :    0.025408
  27 H :    0.031233
  28 C :   -0.054929
  29 H :    0.013524
  30 H :    0.034158
  31 H :    0.041276
  32 H :    0.018422
  33 H :    0.053561
Sum of atomic charges:    0.0000000

LOEWDIN ATOMIC CHARGES
----------------------
   0 S :    0.426432
   1 C :   -0.196333
   2 C :   -0.060355
   3 C :   -0.061738
   4 C :   -0.210818
   5 H :    0.048929
   6 C :   -0.037511
   7 H :    0.042491
   8 H :    0.026456
   9 C :   -0.047536
  10 H :    0.022233
  11 H :    0.019288
  12 C :   -0.057148
  13 H :    0.016382
  14 H :    0.031125
  15 H :    0.028255
  16 S :    0.375200
  17 C :   -0.162808
  18 C :   -0.078035
  19 C :   -0.051471
  20 C :   -0.193764
  21 H :    0.036731
  22 C :   -0.029505
  23 H :    0.037807
  24 H :    0.024237
  25 C :   -0.058111
  26 H :    0.024672
  27 H :    0.031798
  28 C :   -0.083211
  29 H :    0.018523
  30 H :    0.040475
  31 H :    0.032892
  32 H :    0.016458
  33 H :    0.027963

  Mayer bond orders larger than 0.100000
B(  0-S ,  1-C ) :   1.1451 B(  0-S ,  4-C ) :   1.1602 B(  1-C ,  2-C ) :   1.5863
B(  1-C ,  4-C ) :   0.1032 B(  1-C , 32-H ) :   0.9739 B(  2-C ,  3-C ) :   1.2704
B(  2-C ,  6-C ) :   1.0209 B(  3-C ,  4-C ) :   1.5498 B(  3-C ,  5-H ) :   0.9754
B(  4-C , 20-C ) :   1.0440 B(  6-C ,  7-H ) :   0.9294 B(  6-C ,  8-H ) :   0.9430
B(  6-C ,  9-C ) :   1.0620 B(  9-C , 10-H ) :   0.9461 B(  9-C , 11-H ) :   0.9582
B(  9-C , 12-C ) :   1.0834 B( 12-C , 13-H ) :   0.9775 B( 12-C , 14-H ) :   0.9740
B( 12-C , 15-H ) :   0.9716 B( 16-S , 17-C ) :   1.1418 B( 16-S , 20-C ) :   1.1182
B( 17-C , 18-C ) :   1.6480 B( 17-C , 33-H ) :   0.9665 B( 18-C , 19-C ) :   1.2059
B( 18-C , 21-H ) :   0.9850 B( 19-C , 20-C ) :   1.6357 B( 19-C , 22-C ) :   1.0287
B( 22-C , 23-H ) :   0.9408 B( 22-C , 24-H ) :   0.9329 B( 22-C , 25-C ) :   1.0847
B( 25-C , 26-H ) :   0.9464 B( 25-C , 27-H ) :   0.9526 B( 25-C , 28-C ) :   1.0839
B( 28-C , 29-H ) :   0.9655 B( 28-C , 30-H ) :   0.9689 B( 28-C , 31-H ) :   0.9707

Dispersion correction           -0.013822430
FINAL SINGLE POINT ENERGY     -1339.856350890265

DIPOLE MOMENT
-------------
                                X             Y             Z
Electronic contribution:    -11.27906      12.50875       9.95484
Nuclear contribution   :     11.58255     -12.84930     -10.09668
                        -----------------------------------------
Total Dipole Moment    :      0.30349      -0.34055      -0.14184
                        -----------------------------------------
Magnitude (a.u.)       :      0.47770
Magnitude (Debye)      :      1.21423

Rotational constants in cm-1:     0.021244     0.007208     0.006859
Rotational constants in MHz :   636.884340   216.088040   205.621305

                             ****ORCA TERMINATED NORMALLY****
TOTAL RUN TIME: 0 days 0 hours 0 minutes 27 seconds 835 msec
