                         Program Version 4.2.1 -  RELEASE  -
|  1> ! wB97X-D3 SP def2-SVP
|  2> %pal
|  3> nprocs 16
|  4> end
|  5>
|  6> * xyz 0 1
|  7> S 	 -11.0873 	 66.7569 	 51.5075
|  8> C 	 -11.4501 	 65.2243 	 50.758
|  9> C 	 -10.4105 	 64.3428 	 50.9467
| 10> C 	 -9.36893 	 64.8572 	 51.7706
| 11> C 	 -9.52965 	 66.1799 	 52.1498
| 12> H 	 -8.40421 	 64.3881 	 52.0679
| 13> C 	 -10.447 	 62.9252 	 50.3623
| 14> H 	 -11.4671 	 62.5054 	 50.5199
| 15> H 	 -9.86892 	 62.2906 	 50.9681
| 16> C 	 -10.1629 	 62.8068 	 48.8361
| 17> H 	 -10.4507 	 61.7838 	 48.4622
| 18> H 	 -10.7062 	 63.6373 	 48.3641
| 19> C 	 -8.73061 	 62.9799 	 48.5842
| 20> H 	 -8.15647 	 62.2032 	 49.1609
| 21> H 	 -8.47406 	 62.7367 	 47.4912
| 22> H 	 -8.36687 	 63.9941 	 48.7816
| 23> S 	 -9.38072 	 67.8808 	 54.2909
| 24> C 	 -7.83335 	 68.3798 	 54.9022
| 25> C 	 -6.85147 	 67.9322 	 54.0877
| 26> C 	 -7.31584 	 67.3058 	 52.916
| 27> C 	 -8.67222 	 67.012 	 52.953
| 28> H 	 -5.84562 	 68.0711 	 54.3299
| 29> C 	 -6.29768 	 66.6668 	 51.9835
| 30> H 	 -6.81851 	 66.2243 	 51.1317
| 31> H 	 -5.77258 	 65.8126 	 52.4637
| 32> C 	 -5.19038 	 67.6433 	 51.5254
| 33> H 	 -4.74836 	 68.2551 	 52.3304
| 34> H 	 -5.66782 	 68.3528 	 50.823
| 35> C 	 -3.96594 	 66.908 	 50.9311
| 36> H 	 -3.40536 	 66.3546 	 51.7436
| 37> H 	 -3.27001 	 67.6839 	 50.4901
| 38> H 	 -4.143 	 66.1854 	 50.0754
| 39> H 	 -12.3238 	 65.1377 	 50.1135
| 40> H 	 -7.70373 	 68.8904 	 55.8306
| 41> *
| 42>
| 43>                          ****END OF INPUT****

CARTESIAN COORDINATES (ANGSTROEM)
---------------------------------
  S    -11.087300   66.756900   51.507500
  C    -11.450100   65.224300   50.758000
  C    -10.410500   64.342800   50.946700
  C     -9.368930   64.857200   51.770600
  C     -9.529650   66.179900   52.149800
  H     -8.404210   64.388100   52.067900
  C    -10.447000   62.925200   50.362300
  H    -11.467100   62.505400   50.519900
  H     -9.868920   62.290600   50.968100
  C    -10.162900   62.806800   48.836100
  H    -10.450700   61.783800   48.462200
  H    -10.706200   63.637300   48.364100
  C     -8.730610   62.979900   48.584200
  H     -8.156470   62.203200   49.160900
  H     -8.474060   62.736700   47.491200
  H     -8.366870   63.994100   48.781600
  S     -9.380720   67.880800   54.290900
  C     -7.833350   68.379800   54.902200
  C     -6.851470   67.932200   54.087700
  C     -7.315840   67.305800   52.916000
  C     -8.672220   67.012000   52.953000
  H     -5.845620   68.071100   54.329900
  C     -6.297680   66.666800   51.983500
  H     -6.818510   66.224300   51.131700
  H     -5.772580   65.812600   52.463700
  C     -5.190380   67.643300   51.525400
  H     -4.748360   68.255100   52.330400
  H     -5.667820   68.352800   50.823000
  C     -3.965940   66.908000   50.931100
  H     -3.405360   66.354600   51.743600
  H     -3.270010   67.683900   50.490100
  H     -4.143000   66.185400   50.075400
  H    -12.323800   65.137700   50.113500
  H     -7.703730   68.890400   55.830600

 Total Charge           Charge          ....    0
 Multiplicity           Mult            ....    1
 Number of Electrons    NEL             ....  134
 Basis Dimension        Dim             ....  322

ORBITAL ENERGIES
----------------

  NO   OCC          E(Eh)            E(eV)
   0   2.0000     -88.964300     -2420.8417
   1   2.0000     -88.961939     -2420.7774
   2   2.0000     -10.332559      -281.1632
   3   2.0000     -10.327152      -281.0161
   4   2.0000     -10.316911      -280.7374
   5   2.0000     -10.313497      -280.6445
   6   2.0000     -10.304838      -280.4089
   7   2.0000     -10.300893      -280.3016
   8   2.0000     -10.300627      -280.2943
   9   2.0000     -10.293197      -280.0921
  10   2.0000     -10.292025      -280.0602
  11   2.0000     -10.291814      -280.0545
  12   2.0000     -10.289885      -280.0020
  13   2.0000     -10.289248      -279.9847
  14   2.0000     -10.285189      -279.8742
  15   2.0000     -10.280242      -279.7396
  16   2.0000      -8.078900      -219.8380
  17   2.0000      -8.077451      -219.7986
  18   2.0000      -6.037366      -164.2851
  19   2.0000      -6.035907      -164.2454
  20   2.0000      -6.033309      -164.1747
  21   2.0000      -6.031756      -164.1324
  22   2.0000      -6.029820      -164.0797
  23   2.0000      -6.028296      -164.0383
  24   2.0000      -1.011013       -27.5111
  25   2.0000      -0.988257       -26.8919
  26   2.0000      -0.914530       -24.8856
  27   2.0000      -0.906030       -24.6543
  28   2.0000      -0.876679       -23.8557
  29   2.0000      -0.850245       -23.1363
  30   2.0000      -0.844359       -22.9762
  31   2.0000      -0.819049       -22.2875
  32   2.0000      -0.778916       -21.1954
  33   2.0000      -0.767778       -20.8923
  34   2.0000      -0.705478       -19.1970
  35   2.0000      -0.697960       -18.9925
  36   2.0000      -0.691387       -18.8136
  37   2.0000      -0.661958       -18.0128
  38   2.0000      -0.645692       -17.5702
  39   2.0000      -0.614591       -16.7239
  40   2.0000      -0.602051       -16.3826
  41   2.0000      -0.582671       -15.8553
  42   2.0000      -0.562255       -15.2997
  43   2.0000      -0.548582       -14.9277
  44   2.0000      -0.541716       -14.7408
  45   2.0000      -0.524602       -14.2751
  46   2.0000      -0.516483       -14.0542
  47   2.0000      -0.514247       -13.9934
  48   2.0000      -0.505327       -13.7506
  49   2.0000      -0.502919       -13.6851
  50   2.0000      -0.489527       -13.3207
  51   2.0000      -0.481814       -13.1108
  52   2.0000      -0.468999       -12.7621
  53   2.0000      -0.462533       -12.5862
  54   2.0000      -0.461987       -12.5713
  55   2.0000      -0.450093       -12.2477
  56   2.0000      -0.437617       -11.9082
  57   2.0000      -0.433813       -11.8046
  58   2.0000      -0.429143       -11.6776
  59   2.0000      -0.424854       -11.5609
  60   2.0000      -0.420307       -11.4371
  61   2.0000      -0.414451       -11.2778
  62   2.0000      -0.410129       -11.1602
  63   2.0000      -0.351365        -9.5611
  64   2.0000      -0.332027        -9.0349
  65   2.0000      -0.329659        -8.9705
  66   2.0000      -0.293899        -7.9974
  67   0.0000       0.026994         0.7346
  68   0.0000       0.068384         1.8608
  69   0.0000       0.116164         3.1610
  70   0.0000       0.119655         3.2560
  71   0.0000       0.129120         3.5135

MULLIKEN ATOMIC CHARGES
-----------------------
   0 S :    0.101536
   1 C :   -0.129074
   2 C :   -0.085850
   3 C :    0.025806
   4 C :   -0.166425
   5 H :    0.029497
   6 C :    0.064129
   7 H :    0.030049
   8 H :    0.003505
   9 C :   -0.045918
  10 H :    0.039034
  11 H :    0.031667
  12 C :   -0.084686
  13 H :    0.027511
  14 H :    0.036744
  15 H :    0.044791
  16 S :    0.101174
  17 C :   -0.073182
  18 C :   -0.017883
  19 C :   -0.000087
  20 C :   -0.157189
  21 H :   -0.000720
  22 C :    0.039050
  23 H :    0.029136
  24 H :    0.035777
  25 C :   -0.099051
  26 H :    0.036328
  27 H :    0.040402
  28 C :   -0.100608
  29 H :    0.044350
  30 H :    0.043376
  31 H :    0.042826
  32 H :    0.062937
  33 H :    0.051047
Sum of atomic charges:    0.0000000

LOEWDIN ATOMIC CHARGES
----------------------
   0 S :    0.393725
   1 C :   -0.190760
   2 C :   -0.069106
   3 C :   -0.066245
   4 C :   -0.186446
   5 H :    0.040480
   6 C :   -0.029896
   7 H :    0.035424
   8 H :    0.017963
   9 C :   -0.043876
  10 H :    0.031380
  11 H :    0.026729
  12 C :   -0.075773
  13 H :    0.025926
  14 H :    0.030397
  15 H :    0.024974
  16 S :    0.411309
  17 C :   -0.175997
  18 C :   -0.064568
  19 C :   -0.059073
  20 C :   -0.200038
  21 H :    0.021851
  22 C :   -0.035443
  23 H :    0.029374
  24 H :    0.031816
  25 C :   -0.046246
  26 H :    0.026039
  27 H :    0.028662
  28 C :   -0.081287
  29 H :    0.029430
  30 H :    0.032298
  31 H :    0.027720
  32 H :    0.031875
  33 H :    0.027380

  Mayer bond orders larger than 0.100000
B(  0-S ,  1-C ) :   1.1479 B(  0-S ,  4-C ) :   1.1483 B(  1-C ,  2-C ) :   1.5945
B(  1-C ,  4-C ) :   0.1021 B(  1-C , 32-H ) :   0.9706 B(  2-C ,  3-C ) :   1.2398
B(  2-C ,  6-C ) :   1.0126 B(  3-C ,  4-C ) :   1.5742 B(  3-C ,  5-H ) :   0.9889
B(  4-C , 20-C ) :   1.0597 B(  6-C ,  7-H ) :   0.9440 B(  6-C ,  8-H ) :   0.9450
B(  6-C ,  9-C ) :   1.0625 B(  9-C , 10-H ) :   0.9527 B(  9-C , 11-H ) :   0.9531
B(  9-C , 12-C ) :   1.0899 B( 12-C , 13-H ) :   0.9718 B( 12-C , 14-H ) :   0.9705
B( 12-C , 15-H ) :   0.9742 B( 16-S , 17-C ) :   1.1545 B( 16-S , 20-C ) :   1.1471
B( 17-C , 18-C ) :   1.6040 B( 17-C , 33-H ) :   0.9729 B( 18-C , 19-C ) :   1.2341
B( 18-C , 21-H ) :   1.0001 B( 19-C , 20-C ) :   1.5673 B( 19-C , 22-C ) :   1.0559
B( 22-C , 23-H ) :   0.9325 B( 22-C , 24-H ) :   0.9462 B( 22-C , 25-C ) :   1.0450
B( 25-C , 26-H ) :   0.9592 B( 25-C , 27-H ) :   0.9563 B( 25-C , 28-C ) :   1.0745
B( 28-C , 29-H ) :   0.9732 B( 28-C , 30-H ) :   0.9740 B( 28-C , 31-H ) :   0.9749

Dispersion correction           -0.013879539
FINAL SINGLE POINT ENERGY     -1339.888765973614

DIPOLE MOMENT
-------------
                                X             Y             Z
Electronic contribution:    -19.98482      14.81802      17.62050
Nuclear contribution   :     20.48520     -15.21498     -17.80452
                        -----------------------------------------
Total Dipole Moment    :      0.50039      -0.39696      -0.18402
                        -----------------------------------------
Magnitude (a.u.)       :      0.66470
Magnitude (Debye)      :      1.68953

Rotational constants in cm-1:     0.016986     0.009151     0.006398
Rotational constants in MHz :   509.228163   274.345008   191.810604

                             ****ORCA TERMINATED NORMALLY****
TOTAL RUN TIME: 0 days 0 hours 0 minutes 33 seconds 504 msec
