                         Program Version 4.2.1 -  RELEASE  -
|  1> ! wB97X-D3 SP def2-SVP
|  2> %pal
|  3> nprocs 16
|  4> end
|  5>
|  6> * xyz 0 1
|  7> S 	 -42.6793 	 28.0259 	 81.002
|  8> C 	 -42.0543 	 28.5183 	 79.4845
|  9> C 	 -41.2189 	 27.5182 	 78.9242
| 10> C 	 -41.0838 	 26.3388 	 79.7555
| 11> C 	 -41.747 	 26.5125 	 80.9323
| 12> H 	 -40.6161 	 25.432 	 79.4899
| 13> C 	 -40.6836 	 27.4425 	 77.5345
| 14> H 	 -39.7415 	 26.9492 	 77.488
| 15> H 	 -40.3796 	 28.478 	 77.3043
| 16> C 	 -41.7844 	 27.1142 	 76.4399
| 17> H 	 -41.2645 	 26.859 	 75.4787
| 18> H 	 -42.3591 	 26.2475 	 76.8805
| 19> C 	 -42.8175 	 28.1403 	 76.1523
| 20> H 	 -43.6467 	 28.2791 	 76.8485
| 21> H 	 -42.2024 	 29.0574 	 76.1937
| 22> H 	 -43.1507 	 28.066 	 75.1477
| 23> S 	 -42.9858 	 24.6777 	 82.4096
| 24> C 	 -42.1558 	 23.7799 	 83.6327
| 25> C 	 -40.9279 	 24.3508 	 83.9007
| 26> C 	 -40.6087 	 25.428 	 83.0025
| 27> C 	 -41.601 	 25.6935 	 82.113
| 28> H 	 -40.2967 	 23.9187 	 84.6939
| 29> C 	 -39.278 	 26.0711 	 83.0436
| 30> H 	 -39.0249 	 26.2849 	 84.1241
| 31> H 	 -39.2646 	 27.0251 	 82.457
| 32> C 	 -38.073 	 25.28 	 82.5529
| 33> H 	 -37.9133 	 24.3441 	 83.0896
| 34> H 	 -37.1896 	 25.7652 	 82.7021
| 35> C 	 -38.0921 	 24.9892 	 81.0799
| 36> H 	 -38.2143 	 25.8365 	 80.4706
| 37> H 	 -38.9433 	 24.4008 	 80.8008
| 38> H 	 -37.1688 	 24.5502 	 80.734
| 39> H 	 -42.2619 	 29.5307 	 78.98
| 40> H 	 -42.5204 	 22.8334 	 84.0795
| 41> *
| 42>
| 43>                          ****END OF INPUT****

CARTESIAN COORDINATES (ANGSTROEM)
---------------------------------
  S    -42.679300   28.025900   81.002000
  C    -42.054300   28.518300   79.484500
  C    -41.218900   27.518200   78.924200
  C    -41.083800   26.338800   79.755500
  C    -41.747000   26.512500   80.932300
  H    -40.616100   25.432000   79.489900
  C    -40.683600   27.442500   77.534500
  H    -39.741500   26.949200   77.488000
  H    -40.379600   28.478000   77.304300
  C    -41.784400   27.114200   76.439900
  H    -41.264500   26.859000   75.478700
  H    -42.359100   26.247500   76.880500
  C    -42.817500   28.140300   76.152300
  H    -43.646700   28.279100   76.848500
  H    -42.202400   29.057400   76.193700
  H    -43.150700   28.066000   75.147700
  S    -42.985800   24.677700   82.409600
  C    -42.155800   23.779900   83.632700
  C    -40.927900   24.350800   83.900700
  C    -40.608700   25.428000   83.002500
  C    -41.601000   25.693500   82.113000
  H    -40.296700   23.918700   84.693900
  C    -39.278000   26.071100   83.043600
  H    -39.024900   26.284900   84.124100
  H    -39.264600   27.025100   82.457000
  C    -38.073000   25.280000   82.552900
  H    -37.913300   24.344100   83.089600
  H    -37.189600   25.765200   82.702100
  C    -38.092100   24.989200   81.079900
  H    -38.214300   25.836500   80.470600
  H    -38.943300   24.400800   80.800800
  H    -37.168800   24.550200   80.734000
  H    -42.261900   29.530700   78.980000
  H    -42.520400   22.833400   84.079500

 Total Charge           Charge          ....    0
 Multiplicity           Mult            ....    1
 Number of Electrons    NEL             ....  134
 Basis Dimension        Dim             ....  322

ORBITAL ENERGIES
----------------

  NO   OCC          E(Eh)            E(eV)
   0   2.0000     -88.967934     -2420.9406
   1   2.0000     -88.958689     -2420.6890
   2   2.0000     -10.326278      -280.9923
   3   2.0000     -10.323287      -280.9109
   4   2.0000     -10.318651      -280.7848
   5   2.0000     -10.317725      -280.7596
   6   2.0000     -10.302900      -280.3562
   7   2.0000     -10.300661      -280.2952
   8   2.0000     -10.294658      -280.1319
   9   2.0000     -10.293539      -280.1014
  10   2.0000     -10.292157      -280.0638
  11   2.0000     -10.291779      -280.0535
  12   2.0000     -10.289502      -279.9916
  13   2.0000     -10.273714      -279.5620
  14   2.0000     -10.273025      -279.5432
  15   2.0000     -10.262447      -279.2554
  16   2.0000      -8.082810      -219.9444
  17   2.0000      -8.074495      -219.7182
  18   2.0000      -6.041233      -164.3903
  19   2.0000      -6.037276      -164.2826
  20   2.0000      -6.033665      -164.1844
  21   2.0000      -6.032967      -164.1654
  22   2.0000      -6.028734      -164.0502
  23   2.0000      -6.025338      -163.9578
  24   2.0000      -1.010033       -27.4844
  25   2.0000      -0.985230       -26.8095
  26   2.0000      -0.915028       -24.8992
  27   2.0000      -0.911055       -24.7911
  28   2.0000      -0.870782       -23.6952
  29   2.0000      -0.856092       -23.2954
  30   2.0000      -0.852848       -23.2072
  31   2.0000      -0.815356       -22.1870
  32   2.0000      -0.782067       -21.2811
  33   2.0000      -0.770230       -20.9590
  34   2.0000      -0.709835       -19.3156
  35   2.0000      -0.694027       -18.8854
  36   2.0000      -0.688993       -18.7485
  37   2.0000      -0.660596       -17.9757
  38   2.0000      -0.645320       -17.5600
  39   2.0000      -0.619997       -16.8710
  40   2.0000      -0.595892       -16.2150
  41   2.0000      -0.571966       -15.5640
  42   2.0000      -0.557734       -15.1767
  43   2.0000      -0.549555       -14.9541
  44   2.0000      -0.547469       -14.8974
  45   2.0000      -0.538726       -14.6595
  46   2.0000      -0.517775       -14.0894
  47   2.0000      -0.507767       -13.8170
  48   2.0000      -0.503119       -13.6906
  49   2.0000      -0.498276       -13.5588
  50   2.0000      -0.497895       -13.5484
  51   2.0000      -0.483182       -13.1481
  52   2.0000      -0.472705       -12.8630
  53   2.0000      -0.463266       -12.6061
  54   2.0000      -0.457603       -12.4520
  55   2.0000      -0.446287       -12.1441
  56   2.0000      -0.445512       -12.1230
  57   2.0000      -0.436651       -11.8819
  58   2.0000      -0.432853       -11.7785
  59   2.0000      -0.422431       -11.4949
  60   2.0000      -0.420610       -11.4454
  61   2.0000      -0.412300       -11.2193
  62   2.0000      -0.400607       -10.9011
  63   2.0000      -0.341192        -9.2843
  64   2.0000      -0.327536        -8.9127
  65   2.0000      -0.323815        -8.8115
  66   2.0000      -0.300397        -8.1742
  67   0.0000       0.044157         1.2016
  68   0.0000       0.054371         1.4795
  69   0.0000       0.117016         3.1842
  70   0.0000       0.118867         3.2345
  71   0.0000       0.123324         3.3558

MULLIKEN ATOMIC CHARGES
-----------------------
   0 S :    0.127987
   1 C :   -0.146645
   2 C :   -0.125178
   3 C :    0.066627
   4 C :   -0.148862
   5 H :    0.006896
   6 C :    0.071330
   7 H :    0.019401
   8 H :    0.008380
   9 C :   -0.087234
  10 H :    0.042370
  11 H :    0.035893
  12 C :   -0.023928
  13 H :    0.047303
  14 H :    0.003176
  15 H :    0.031383
  16 S :    0.098288
  17 C :   -0.103412
  18 C :   -0.053870
  19 C :    0.011845
  20 C :   -0.190484
  21 H :    0.029660
  22 C :    0.031800
  23 H :    0.034305
  24 H :    0.038132
  25 C :   -0.016897
  26 H :    0.015571
  27 H :    0.001784
  28 C :   -0.033668
  29 H :    0.004767
  30 H :    0.026329
  31 H :    0.024128
  32 H :    0.082442
  33 H :    0.070382
Sum of atomic charges:   -0.0000000

LOEWDIN ATOMIC CHARGES
----------------------
   0 S :    0.413790
   1 C :   -0.224813
   2 C :   -0.066417
   3 C :   -0.045178
   4 C :   -0.193311
   5 H :    0.029395
   6 C :   -0.041404
   7 H :    0.026964
   8 H :    0.027444
   9 C :   -0.041250
  10 H :    0.031513
  11 H :    0.028935
  12 C :   -0.068624
  13 H :    0.027200
  14 H :    0.022974
  15 H :    0.026525
  16 S :    0.411211
  17 C :   -0.191941
  18 C :   -0.076147
  19 C :   -0.058568
  20 C :   -0.205568
  21 H :    0.036197
  22 C :   -0.033511
  23 H :    0.040571
  24 H :    0.038006
  25 C :   -0.034414
  26 H :    0.022854
  27 H :    0.013573
  28 C :   -0.060492
  29 H :    0.014772
  30 H :    0.018912
  31 H :    0.025542
  32 H :    0.047819
  33 H :    0.037440

  Mayer bond orders larger than 0.100000
B(  0-S ,  1-C ) :   1.1484 B(  0-S ,  4-C ) :   1.1492 B(  1-C ,  2-C ) :   1.5965
B(  1-C , 32-H ) :   0.9550 B(  2-C ,  3-C ) :   1.2263 B(  2-C ,  6-C ) :   1.0466
B(  3-C ,  4-C ) :   1.5952 B(  3-C ,  5-H ) :   1.0015 B(  4-C , 20-C ) :   0.9851
B(  6-C ,  7-H ) :   0.9413 B(  6-C ,  8-H ) :   0.9312 B(  6-C ,  9-C ) :   1.0484
B(  9-C , 10-H ) :   0.9562 B(  9-C , 11-H ) :   0.9551 B(  9-C , 12-C ) :   1.0839
B( 12-C , 13-H ) :   0.9704 B( 12-C , 14-H ) :   0.9689 B( 12-C , 15-H ) :   0.9693
B( 16-S , 17-C ) :   1.1640 B( 16-S , 20-C ) :   1.1405 B( 17-C , 18-C ) :   1.6156
B( 17-C , 33-H ) :   0.9641 B( 18-C , 19-C ) :   1.2020 B( 18-C , 21-H ) :   0.9908
B( 19-C , 20-C ) :   1.6325 B( 19-C , 22-C ) :   1.0690 B( 22-C , 23-H ) :   0.9249
B( 22-C , 24-H ) :   0.9348 B( 22-C , 25-C ) :   1.0858 B( 25-C , 26-H ) :   0.9480
B( 25-C , 27-H ) :   0.9489 B( 25-C , 28-C ) :   1.0872 B( 28-C , 29-H ) :   0.9662
B( 28-C , 30-H ) :   0.9727 B( 28-C , 31-H ) :   0.9670

Dispersion correction           -0.015841783
FINAL SINGLE POINT ENERGY     -1339.865132305298

DIPOLE MOMENT
-------------
                                X             Y             Z
Electronic contribution:    -16.23625      -1.09831      16.71163
Nuclear contribution   :     16.79751       0.99779     -16.99325
                        -----------------------------------------
Total Dipole Moment    :      0.56127      -0.10052      -0.28163
                        -----------------------------------------
Magnitude (a.u.)       :      0.63596
Magnitude (Debye)      :      1.61648

Rotational constants in cm-1:     0.021908     0.008664     0.007325
Rotational constants in MHz :   656.786903   259.742818   219.585028

                             ****ORCA TERMINATED NORMALLY****
TOTAL RUN TIME: 0 days 0 hours 0 minutes 31 seconds 999 msec
