                         Program Version 4.2.1 -  RELEASE  -
|  1> ! wB97X-D3 SP def2-SVP
|  2> %pal
|  3> nprocs 16
|  4> end
|  5>
|  6> * xyz 0 1
|  7> S 	 -96.1169 	 51.3186 	 123.777
|  8> C 	 -94.6488 	 50.3389 	 123.698
|  9> C 	 -94.9157 	 48.9811 	 123.738
| 10> C 	 -96.3165 	 48.7183 	 123.882
| 11> C 	 -97.0937 	 49.8806 	 123.836
| 12> H 	 -96.7444 	 47.744 	 123.853
| 13> C 	 -93.8569 	 47.822 	 123.666
| 14> H 	 -94.3132 	 46.925 	 124.14
| 15> H 	 -93.0535 	 48.1722 	 124.323
| 16> C 	 -93.4627 	 47.3638 	 122.181
| 17> H 	 -92.7348 	 48.0076 	 121.831
| 18> H 	 -92.9415 	 46.3944 	 122.279
| 19> C 	 -94.6662 	 47.1984 	 121.195
| 20> H 	 -95.2634 	 48.0999 	 121.007
| 21> H 	 -94.0857 	 46.9459 	 120.299
| 22> H 	 -95.3133 	 46.3058 	 121.268
| 23> S 	 -99.5413 	 50.0129 	 125.174
| 24> C 	 -100.972 	 50.3598 	 124.192
| 25> C 	 -100.681 	 50.6018 	 122.892
| 26> C 	 -99.3047 	 50.2942 	 122.601
| 27> C 	 -98.5111 	 50.0109 	 123.73
| 28> H 	 -101.524 	 50.8088 	 122.2
| 29> C 	 -98.8147 	 50.4503 	 121.179
| 30> H 	 -98.9064 	 49.5212 	 120.807
| 31> H 	 -97.7272 	 50.6338 	 121.314
| 32> C 	 -99.4131 	 51.4778 	 120.152
| 33> H 	 -99.2245 	 52.5389 	 120.464
| 34> H 	 -100.515 	 51.2477 	 120.073
| 35> C 	 -98.7743 	 51.4912 	 118.725
| 36> H 	 -98.8601 	 50.5571 	 118.148
| 37> H 	 -97.6536 	 51.7838 	 118.687
| 38> H 	 -99.3499 	 52.1586 	 118.155
| 39> H 	 -93.6212 	 50.7201 	 123.508
| 40> H 	 -101.886 	 50.6282 	 124.661
| 41> *
| 42>
| 43>                          ****END OF INPUT****

CARTESIAN COORDINATES (ANGSTROEM)
---------------------------------
  S    -96.116900   51.318600  123.777000
  C    -94.648800   50.338900  123.698000
  C    -94.915700   48.981100  123.738000
  C    -96.316500   48.718300  123.882000
  C    -97.093700   49.880600  123.836000
  H    -96.744400   47.744000  123.853000
  C    -93.856900   47.822000  123.666000
  H    -94.313200   46.925000  124.140000
  H    -93.053500   48.172200  124.323000
  C    -93.462700   47.363800  122.181000
  H    -92.734800   48.007600  121.831000
  H    -92.941500   46.394400  122.279000
  C    -94.666200   47.198400  121.195000
  H    -95.263400   48.099900  121.007000
  H    -94.085700   46.945900  120.299000
  H    -95.313300   46.305800  121.268000
  S    -99.541300   50.012900  125.174000
  C    -100.972000   50.359800  124.192000
  C    -100.681000   50.601800  122.892000
  C    -99.304700   50.294200  122.601000
  C    -98.511100   50.010900  123.730000
  H    -101.524000   50.808800  122.200000
  C    -98.814700   50.450300  121.179000
  H    -98.906400   49.521200  120.807000
  H    -97.727200   50.633800  121.314000
  C    -99.413100   51.477800  120.152000
  H    -99.224500   52.538900  120.464000
  H    -100.515000   51.247700  120.073000
  C    -98.774300   51.491200  118.725000
  H    -98.860100   50.557100  118.148000
  H    -97.653600   51.783800  118.687000
  H    -99.349900   52.158600  118.155000
  H    -93.621200   50.720100  123.508000
  H    -101.886000   50.628200  124.661000

 Total Charge           Charge          ....    0
 Multiplicity           Mult            ....    1
 Number of Electrons    NEL             ....  134
 Basis Dimension        Dim             ....  322

ORBITAL ENERGIES
----------------

  NO   OCC          E(Eh)            E(eV)
   0   2.0000     -88.968369     -2420.9524
   1   2.0000     -88.960790     -2420.7462
   2   2.0000     -10.325929      -280.9828
   3   2.0000     -10.323578      -280.9188
   4   2.0000     -10.316366      -280.7226
   5   2.0000     -10.312589      -280.6198
   6   2.0000     -10.305940      -280.4389
   7   2.0000     -10.302077      -280.3338
   8   2.0000     -10.301330      -280.3134
   9   2.0000     -10.300320      -280.2859
  10   2.0000     -10.293580      -280.1025
  11   2.0000     -10.293438      -280.0987
  12   2.0000     -10.292813      -280.0817
  13   2.0000     -10.284682      -279.8604
  14   2.0000     -10.283899      -279.8391
  15   2.0000     -10.281039      -279.7613
  16   2.0000      -8.082551      -219.9374
  17   2.0000      -8.075133      -219.7355
  18   2.0000      -6.041069      -164.3858
  19   2.0000      -6.037087      -164.2775
  20   2.0000      -6.033700      -164.1853
  21   2.0000      -6.033372      -164.1764
  22   2.0000      -6.029729      -164.0773
  23   2.0000      -6.025827      -163.9711
  24   2.0000      -1.002058       -27.2674
  25   2.0000      -0.977942       -26.6112
  26   2.0000      -0.899606       -24.4795
  27   2.0000      -0.898707       -24.4550
  28   2.0000      -0.868117       -23.6227
  29   2.0000      -0.845856       -23.0169
  30   2.0000      -0.843761       -22.9599
  31   2.0000      -0.812265       -22.1028
  32   2.0000      -0.783619       -21.3234
  33   2.0000      -0.768245       -20.9050
  34   2.0000      -0.705871       -19.2077
  35   2.0000      -0.702754       -19.1229
  36   2.0000      -0.696043       -18.9403
  37   2.0000      -0.650319       -17.6961
  38   2.0000      -0.636757       -17.3270
  39   2.0000      -0.609311       -16.5802
  40   2.0000      -0.591028       -16.0827
  41   2.0000      -0.567345       -15.4382
  42   2.0000      -0.563349       -15.3295
  43   2.0000      -0.546505       -14.8712
  44   2.0000      -0.541802       -14.7432
  45   2.0000      -0.523403       -14.2425
  46   2.0000      -0.513283       -13.9672
  47   2.0000      -0.504032       -13.7154
  48   2.0000      -0.501551       -13.6479
  49   2.0000      -0.494960       -13.4686
  50   2.0000      -0.488013       -13.2795
  51   2.0000      -0.475982       -12.9521
  52   2.0000      -0.466168       -12.6851
  53   2.0000      -0.463549       -12.6138
  54   2.0000      -0.456605       -12.4248
  55   2.0000      -0.450961       -12.2713
  56   2.0000      -0.446300       -12.1444
  57   2.0000      -0.436057       -11.8657
  58   2.0000      -0.426268       -11.5993
  59   2.0000      -0.422363       -11.4931
  60   2.0000      -0.420535       -11.4433
  61   2.0000      -0.414840       -11.2884
  62   2.0000      -0.409822       -11.1518
  63   2.0000      -0.334180        -9.0935
  64   2.0000      -0.332442        -9.0462
  65   2.0000      -0.317053        -8.6274
  66   2.0000      -0.305393        -8.3102
  67   0.0000       0.041250         1.1225
  68   0.0000       0.053905         1.4668
  69   0.0000       0.113238         3.0814
  70   0.0000       0.122997         3.3469
  71   0.0000       0.124128         3.3777

MULLIKEN ATOMIC CHARGES
-----------------------
   0 S :    0.128828
   1 C :   -0.136428
   2 C :   -0.118660
   3 C :    0.077853
   4 C :   -0.211093
   5 H :    0.003364
   6 C :    0.048124
   7 H :    0.028803
   8 H :    0.039718
   9 C :   -0.050228
  10 H :    0.018558
  11 H :    0.034145
  12 C :   -0.076922
  13 H :    0.062225
  14 H :    0.028879
  15 H :    0.040098
  16 S :    0.097508
  17 C :   -0.078180
  18 C :   -0.050823
  19 C :   -0.038929
  20 C :   -0.164346
  21 H :    0.040376
  22 C :    0.118123
  23 H :    0.004792
  24 H :    0.026258
  25 C :   -0.106242
  26 H :    0.047761
  27 H :    0.041236
  28 C :   -0.063664
  29 H :    0.027153
  30 H :    0.052743
  31 H :    0.024300
  32 H :    0.056891
  33 H :    0.047782
Sum of atomic charges:   -0.0000000

LOEWDIN ATOMIC CHARGES
----------------------
   0 S :    0.416147
   1 C :   -0.205401
   2 C :   -0.066470
   3 C :   -0.050035
   4 C :   -0.204062
   5 H :    0.028141
   6 C :   -0.034303
   7 H :    0.031445
   8 H :    0.031664
   9 C :   -0.029638
  10 H :    0.012237
  11 H :    0.029966
  12 C :   -0.074536
  13 H :    0.031023
  14 H :    0.032877
  15 H :    0.029008
  16 S :    0.384644
  17 C :   -0.166362
  18 C :   -0.080561
  19 C :   -0.041900
  20 C :   -0.213800
  21 H :    0.041536
  22 C :   -0.035308
  23 H :    0.018402
  24 H :    0.031139
  25 C :   -0.041030
  26 H :    0.033371
  27 H :    0.027186
  28 C :   -0.071244
  29 H :    0.022535
  30 H :    0.037532
  31 H :    0.019985
  32 H :    0.034606
  33 H :    0.021207

  Mayer bond orders larger than 0.100000
B(  0-S ,  1-C ) :   1.1359 B(  0-S ,  4-C ) :   1.1569 B(  1-C ,  2-C ) :   1.6263
B(  1-C , 32-H ) :   0.9616 B(  2-C ,  3-C ) :   1.2443 B(  2-C ,  6-C ) :   1.0029
B(  3-C ,  4-C ) :   1.5733 B(  3-C ,  5-H ) :   0.9961 B(  4-C , 20-C ) :   1.0410
B(  6-C ,  7-H ) :   0.9483 B(  6-C ,  8-H ) :   0.9510 B(  6-C ,  9-C ) :   1.0481
B(  9-C , 10-H ) :   0.9635 B(  9-C , 11-H ) :   0.9594 B(  9-C , 12-C ) :   1.0698
B( 12-C , 13-H ) :   0.9715 B( 12-C , 14-H ) :   0.9709 B( 12-C , 15-H ) :   0.9771
B( 16-S , 17-C ) :   1.1566 B( 16-S , 20-C ) :   1.1235 B( 17-C , 18-C ) :   1.6405
B( 17-C , 33-H ) :   0.9628 B( 18-C , 19-C ) :   1.2242 B( 18-C , 21-H ) :   0.9811
B( 19-C , 20-C ) :   1.6040 B( 19-C , 22-C ) :   1.0311 B( 22-C , 23-H ) :   0.9184
B( 22-C , 24-H ) :   0.9278 B( 22-C , 25-C ) :   1.0648 B( 25-C , 26-H ) :   0.9600
B( 25-C , 27-H ) :   0.9463 B( 25-C , 28-C ) :   1.0810 B( 28-C , 29-H ) :   0.9743
B( 28-C , 30-H ) :   0.9748 B( 28-C , 31-H ) :   0.9734

Dispersion correction           -0.014554633
FINAL SINGLE POINT ENERGY     -1339.859719034858

DIPOLE MOMENT
-------------
                                X             Y             Z
Electronic contribution:     -8.21793       8.02705      24.13578
Nuclear contribution   :      8.37714      -8.26938     -24.81856
                        -----------------------------------------
Total Dipole Moment    :      0.15921      -0.24233      -0.68277
                        -----------------------------------------
Magnitude (a.u.)       :      0.74179
Magnitude (Debye)      :      1.88548

Rotational constants in cm-1:     0.016816     0.009032     0.007113
Rotational constants in MHz :   504.136431   270.785538   213.237964

                             ****ORCA TERMINATED NORMALLY****
TOTAL RUN TIME: 0 days 0 hours 0 minutes 33 seconds 864 msec
