                         Program Version 4.2.1 -  RELEASE  -
|  1> ! wB97X-D3 SP def2-SVP
|  2> %pal
|  3> nprocs 16
|  4> end
|  5>
|  6> * xyz 0 1
|  7> S 	 -68.1995 	 56.2122 	 122.643
|  8> C 	 -68.5899 	 57.8184 	 122.132
|  9> C 	 -68.9825 	 58.6006 	 123.286
| 10> C 	 -68.8698 	 57.8344 	 124.454
| 11> C 	 -68.3893 	 56.5853 	 124.28
| 12> H 	 -69.189 	 58.0651 	 125.438
| 13> C 	 -69.2856 	 60.1125 	 123.341
| 14> H 	 -68.539 	 60.7534 	 122.833
| 15> H 	 -69.1993 	 60.4112 	 124.403
| 16> C 	 -70.6864 	 60.604 	 123.009
| 17> H 	 -70.8737 	 60.142 	 122.044
| 18> H 	 -71.454 	 60.1557 	 123.717
| 19> C 	 -70.9119 	 62.1298 	 122.952
| 20> H 	 -70.1016 	 62.5501 	 122.281
| 21> H 	 -71.8194 	 62.4548 	 122.477
| 22> H 	 -70.9 	 62.5769 	 123.944
| 23> S 	 -69.6011 	 54.901 	 126.12
| 24> C 	 -68.5416 	 53.8304 	 127.031
| 25> C 	 -67.2367 	 54.2282 	 126.973
| 26> C 	 -67.0704 	 55.1974 	 125.987
| 27> C 	 -68.2176 	 55.6031 	 125.312
| 28> H 	 -66.4813 	 53.6841 	 127.613
| 29> C 	 -65.6832 	 55.7489 	 125.737
| 30> H 	 -65.165 	 56.0688 	 126.684
| 31> H 	 -65.8468 	 56.6534 	 125.157
| 32> C 	 -64.6782 	 54.8303 	 124.987
| 33> H 	 -65.0125 	 54.7563 	 123.952
| 34> H 	 -64.573 	 53.8798 	 125.506
| 35> C 	 -63.2587 	 55.4201 	 124.969
| 36> H 	 -62.6253 	 54.6716 	 124.48
| 37> H 	 -62.8328 	 55.5064 	 126.005
| 38> H 	 -63.2175 	 56.4406 	 124.473
| 39> H 	 -68.5111 	 58.2352 	 121.186
| 40> H 	 -68.9182 	 53.0189 	 127.63
| 41> *
| 42>
| 43>                          ****END OF INPUT****

CARTESIAN COORDINATES (ANGSTROEM)
---------------------------------
  S    -68.199500   56.212200  122.643000
  C    -68.589900   57.818400  122.132000
  C    -68.982500   58.600600  123.286000
  C    -68.869800   57.834400  124.454000
  C    -68.389300   56.585300  124.280000
  H    -69.189000   58.065100  125.438000
  C    -69.285600   60.112500  123.341000
  H    -68.539000   60.753400  122.833000
  H    -69.199300   60.411200  124.403000
  C    -70.686400   60.604000  123.009000
  H    -70.873700   60.142000  122.044000
  H    -71.454000   60.155700  123.717000
  C    -70.911900   62.129800  122.952000
  H    -70.101600   62.550100  122.281000
  H    -71.819400   62.454800  122.477000
  H    -70.900000   62.576900  123.944000
  S    -69.601100   54.901000  126.120000
  C    -68.541600   53.830400  127.031000
  C    -67.236700   54.228200  126.973000
  C    -67.070400   55.197400  125.987000
  C    -68.217600   55.603100  125.312000
  H    -66.481300   53.684100  127.613000
  C    -65.683200   55.748900  125.737000
  H    -65.165000   56.068800  126.684000
  H    -65.846800   56.653400  125.157000
  C    -64.678200   54.830300  124.987000
  H    -65.012500   54.756300  123.952000
  H    -64.573000   53.879800  125.506000
  C    -63.258700   55.420100  124.969000
  H    -62.625300   54.671600  124.480000
  H    -62.832800   55.506400  126.005000
  H    -63.217500   56.440600  124.473000
  H    -68.511100   58.235200  121.186000
  H    -68.918200   53.018900  127.630000

 Total Charge           Charge          ....    0
 Multiplicity           Mult            ....    1
 Number of Electrons    NEL             ....  134
 Basis Dimension        Dim             ....  322

ORBITAL ENERGIES
----------------

  NO   OCC          E(Eh)            E(eV)
   0   2.0000     -88.970988     -2421.0237
   1   2.0000     -88.964192     -2420.8387
   2   2.0000     -10.322065      -280.8777
   3   2.0000     -10.317527      -280.7542
   4   2.0000     -10.316406      -280.7237
   5   2.0000     -10.316028      -280.7134
   6   2.0000     -10.308438      -280.5069
   7   2.0000     -10.299581      -280.2659
   8   2.0000     -10.295648      -280.1588
   9   2.0000     -10.293747      -280.1071
  10   2.0000     -10.288058      -279.9523
  11   2.0000     -10.287228      -279.9297
  12   2.0000     -10.285052      -279.8705
  13   2.0000     -10.283893      -279.8389
  14   2.0000     -10.283325      -279.8235
  15   2.0000     -10.283021      -279.8152
  16   2.0000      -8.086532      -220.0457
  17   2.0000      -8.079022      -219.8414
  18   2.0000      -6.044830      -164.4882
  19   2.0000      -6.040699      -164.3758
  20   2.0000      -6.037692      -164.2939
  21   2.0000      -6.037421      -164.2866
  22   2.0000      -6.033647      -164.1839
  23   2.0000      -6.029765      -164.0782
  24   2.0000      -1.016386       -27.6573
  25   2.0000      -0.990957       -26.9653
  26   2.0000      -0.908815       -24.7301
  27   2.0000      -0.902714       -24.5641
  28   2.0000      -0.873622       -23.7725
  29   2.0000      -0.854325       -23.2474
  30   2.0000      -0.848581       -23.0911
  31   2.0000      -0.814921       -22.1751
  32   2.0000      -0.782786       -21.3007
  33   2.0000      -0.765221       -20.8227
  34   2.0000      -0.704107       -19.1597
  35   2.0000      -0.696140       -18.9429
  36   2.0000      -0.687731       -18.7141
  37   2.0000      -0.662147       -18.0179
  38   2.0000      -0.647645       -17.6233
  39   2.0000      -0.618627       -16.8337
  40   2.0000      -0.596573       -16.2336
  41   2.0000      -0.573675       -15.6105
  42   2.0000      -0.565093       -15.3770
  43   2.0000      -0.562059       -15.2944
  44   2.0000      -0.528443       -14.3797
  45   2.0000      -0.524161       -14.2631
  46   2.0000      -0.515743       -14.0341
  47   2.0000      -0.506992       -13.7960
  48   2.0000      -0.503504       -13.7010
  49   2.0000      -0.500208       -13.6114
  50   2.0000      -0.497402       -13.5350
  51   2.0000      -0.476426       -12.9642
  52   2.0000      -0.471136       -12.8203
  53   2.0000      -0.463550       -12.6138
  54   2.0000      -0.457811       -12.4577
  55   2.0000      -0.452316       -12.3081
  56   2.0000      -0.444671       -12.1001
  57   2.0000      -0.433549       -11.7975
  58   2.0000      -0.428284       -11.6542
  59   2.0000      -0.422070       -11.4851
  60   2.0000      -0.420531       -11.4432
  61   2.0000      -0.415813       -11.3148
  62   2.0000      -0.405671       -11.0389
  63   2.0000      -0.339140        -9.2285
  64   2.0000      -0.335801        -9.1376
  65   2.0000      -0.322183        -8.7670
  66   2.0000      -0.303866        -8.2686
  67   0.0000       0.040374         1.0986
  68   0.0000       0.052675         1.4334
  69   0.0000       0.102925         2.8007
  70   0.0000       0.126320         3.4373
  71   0.0000       0.129610         3.5269

MULLIKEN ATOMIC CHARGES
-----------------------
   0 S :    0.145666
   1 C :   -0.093206
   2 C :   -0.063628
   3 C :    0.044131
   4 C :   -0.195032
   5 H :   -0.003912
   6 C :    0.036156
   7 H :    0.034599
   8 H :    0.017179
   9 C :   -0.090544
  10 H :    0.019230
  11 H :    0.035737
  12 C :   -0.047000
  13 H :    0.030758
  14 H :    0.034944
  15 H :    0.038733
  16 S :    0.108093
  17 C :   -0.098943
  18 C :   -0.036025
  19 C :    0.001465
  20 C :   -0.161073
  21 H :    0.045237
  22 C :    0.034934
  23 H :    0.028072
  24 H :    0.023855
  25 C :   -0.061844
  26 H :    0.033932
  27 H :    0.027567
  28 C :   -0.082046
  29 H :    0.038762
  30 H :    0.031416
  31 H :    0.047060
  32 H :    0.023460
  33 H :    0.052265
Sum of atomic charges:   -0.0000000

LOEWDIN ATOMIC CHARGES
----------------------
   0 S :    0.460246
   1 C :   -0.198030
   2 C :   -0.054557
   3 C :   -0.059623
   4 C :   -0.225321
   5 H :    0.027444
   6 C :   -0.039718
   7 H :    0.032306
   8 H :    0.030978
   9 C :   -0.050167
  10 H :    0.017807
  11 H :    0.028775
  12 C :   -0.067707
  13 H :    0.030628
  14 H :    0.026214
  15 H :    0.025558
  16 S :    0.399720
  17 C :   -0.168536
  18 C :   -0.078696
  19 C :   -0.054027
  20 C :   -0.210450
  21 H :    0.047144
  22 C :   -0.037655
  23 H :    0.033745
  24 H :    0.026779
  25 C :   -0.038579
  26 H :    0.025067
  27 H :    0.022184
  28 C :   -0.074302
  29 H :    0.027030
  30 H :    0.024916
  31 H :    0.031274
  32 H :    0.014404
  33 H :    0.025149

  Mayer bond orders larger than 0.100000
B(  0-S ,  1-C ) :   1.1763 B(  0-S ,  4-C ) :   1.1797 B(  1-C ,  2-C ) :   1.5337
B(  1-C ,  4-C ) :   0.1106 B(  1-C , 32-H ) :   0.9836 B(  2-C ,  3-C ) :   1.2841
B(  2-C ,  6-C ) :   1.0146 B(  3-C ,  4-C ) :   1.5633 B(  3-C ,  5-H ) :   1.0006
B(  4-C , 20-C ) :   1.0140 B(  6-C ,  7-H ) :   0.9456 B(  6-C ,  8-H ) :   0.9448
B(  6-C ,  9-C ) :   1.0561 B(  9-C , 10-H ) :   0.9587 B(  9-C , 11-H ) :   0.9544
B(  9-C , 12-C ) :   1.0781 B( 12-C , 13-H ) :   0.9724 B( 12-C , 14-H ) :   0.9743
B( 12-C , 15-H ) :   0.9765 B( 16-S , 17-C ) :   1.1682 B( 16-S , 20-C ) :   1.1281
B( 17-C , 18-C ) :   1.5993 B( 17-C , 20-C ) :   0.1041 B( 17-C , 33-H ) :   0.9686
B( 18-C , 19-C ) :   1.2448 B( 18-C , 21-H ) :   0.9859 B( 19-C , 20-C ) :   1.5931
B( 19-C , 22-C ) :   1.0487 B( 22-C , 23-H ) :   0.9423 B( 22-C , 24-H ) :   0.9258
B( 22-C , 25-C ) :   1.0690 B( 25-C , 26-H ) :   0.9505 B( 25-C , 27-H ) :   0.9566
B( 25-C , 28-C ) :   1.0884 B( 28-C , 29-H ) :   0.9738 B( 28-C , 30-H ) :   0.9725
B( 28-C , 31-H ) :   0.9735

Dispersion correction           -0.013705354
FINAL SINGLE POINT ENERGY     -1339.872988677719

DIPOLE MOMENT
-------------
                                X             Y             Z
Electronic contribution:    -10.01259     -17.83113       1.86239
Nuclear contribution   :     10.24964      18.07202      -1.67744
                        -----------------------------------------
Total Dipole Moment    :      0.23704       0.24089       0.18496
                        -----------------------------------------
Magnitude (a.u.)       :      0.38526
Magnitude (Debye)      :      0.97926

Rotational constants in cm-1:     0.020291     0.007263     0.006172
Rotational constants in MHz :   608.299999   217.754219   185.040971

                             ****ORCA TERMINATED NORMALLY****
TOTAL RUN TIME: 0 days 0 hours 0 minutes 31 seconds 197 msec
