                         Program Version 4.2.1 -  RELEASE  -
|  1> ! wB97X-D3 SP def2-SVP
|  2> %pal
|  3> nprocs 16
|  4> end
|  5>
|  6> * xyz 0 1
|  7> S 	 9.39242 	 -5.31255 	 89.3291
|  8> C 	 9.04036 	 -3.81734 	 90.2085
|  9> C 	 9.8027 	 -2.76183 	 89.8541
| 10> C 	 10.5246 	 -3.12338 	 88.65
| 11> C 	 10.3952 	 -4.45238 	 88.2911
| 12> H 	 11.0829 	 -2.50543 	 87.9978
| 13> C 	 9.8098 	 -1.35208 	 90.4433
| 14> H 	 10.6889 	 -0.740488 	 90.0421
| 15> H 	 10.1905 	 -1.34311 	 91.4734
| 16> C 	 8.60856 	 -0.434844 	 90.1948
| 17> H 	 8.62516 	 -0.332237 	 89.1244
| 18> H 	 7.66253 	 -0.863281 	 90.528
| 19> C 	 8.68921 	 0.881965 	 90.8848
| 20> H 	 8.59687 	 0.595114 	 91.8958
| 21> H 	 9.71552 	 1.23151 	 90.6333
| 22> H 	 7.90715 	 1.62795 	 90.6926
| 23> S 	 12.1043 	 -6.34815 	 87.3356
| 24> C 	 12.6476 	 -6.20762 	 85.6853
| 25> C 	 11.9689 	 -5.27991 	 84.9337
| 26> C 	 11.0161 	 -4.60526 	 85.7287
| 27> C 	 11.0276 	 -5.00342 	 87.0987
| 28> H 	 12.2303 	 -5.11457 	 83.898
| 29> C 	 10.1873 	 -3.40586 	 85.1855
| 30> H 	 10.8024 	 -2.53333 	 85.4906
| 31> H 	 9.22742 	 -3.48057 	 85.8219
| 32> C 	 9.82892 	 -3.25013 	 83.7211
| 33> H 	 9.21787 	 -4.04382 	 83.3574
| 34> H 	 10.7344 	 -3.18422 	 83.1199
| 35> C 	 8.95694 	 -1.94838 	 83.4546
| 36> H 	 8.54702 	 -1.81668 	 82.439
| 37> H 	 9.66202 	 -1.1467 	 83.6812
| 38> H 	 8.04213 	 -1.86761 	 84.1232
| 39> H 	 8.50386 	 -3.63996 	 91.1023
| 40> H 	 13.5296 	 -6.69114 	 85.3372
| 41> *
| 42>
| 43>                          ****END OF INPUT****

CARTESIAN COORDINATES (ANGSTROEM)
---------------------------------
  S      9.392420   -5.312550   89.329100
  C      9.040360   -3.817340   90.208500
  C      9.802700   -2.761830   89.854100
  C     10.524600   -3.123380   88.650000
  C     10.395200   -4.452380   88.291100
  H     11.082900   -2.505430   87.997800
  C      9.809800   -1.352080   90.443300
  H     10.688900   -0.740488   90.042100
  H     10.190500   -1.343110   91.473400
  C      8.608560   -0.434844   90.194800
  H      8.625160   -0.332237   89.124400
  H      7.662530   -0.863281   90.528000
  C      8.689210    0.881965   90.884800
  H      8.596870    0.595114   91.895800
  H      9.715520    1.231510   90.633300
  H      7.907150    1.627950   90.692600
  S     12.104300   -6.348150   87.335600
  C     12.647600   -6.207620   85.685300
  C     11.968900   -5.279910   84.933700
  C     11.016100   -4.605260   85.728700
  C     11.027600   -5.003420   87.098700
  H     12.230300   -5.114570   83.898000
  C     10.187300   -3.405860   85.185500
  H     10.802400   -2.533330   85.490600
  H      9.227420   -3.480570   85.821900
  C      9.828920   -3.250130   83.721100
  H      9.217870   -4.043820   83.357400
  H     10.734400   -3.184220   83.119900
  C      8.956940   -1.948380   83.454600
  H      8.547020   -1.816680   82.439000
  H      9.662020   -1.146700   83.681200
  H      8.042130   -1.867610   84.123200
  H      8.503860   -3.639960   91.102300
  H     13.529600   -6.691140   85.337200

 Total Charge           Charge          ....    0
 Multiplicity           Mult            ....    1
 Number of Electrons    NEL             ....  134
 Basis Dimension        Dim             ....  322

ORBITAL ENERGIES
----------------

  NO   OCC          E(Eh)            E(eV)
   0   2.0000     -88.970019     -2420.9973
   1   2.0000     -88.966075     -2420.8900
   2   2.0000     -10.325779      -280.9787
   3   2.0000     -10.321783      -280.8700
   4   2.0000     -10.312419      -280.6152
   5   2.0000     -10.308549      -280.5099
   6   2.0000     -10.307390      -280.4783
   7   2.0000     -10.301930      -280.3298
   8   2.0000     -10.301618      -280.3213
   9   2.0000     -10.299950      -280.2759
  10   2.0000     -10.292149      -280.0636
  11   2.0000     -10.289635      -279.9952
  12   2.0000     -10.288195      -279.9560
  13   2.0000     -10.287743      -279.9437
  14   2.0000     -10.283215      -279.8205
  15   2.0000     -10.277250      -279.6582
  16   2.0000      -8.085555      -220.0191
  17   2.0000      -8.081275      -219.9027
  18   2.0000      -6.044127      -164.4691
  19   2.0000      -6.039998      -164.3567
  20   2.0000      -6.039551      -164.3445
  21   2.0000      -6.036150      -164.2520
  22   2.0000      -6.035750      -164.2411
  23   2.0000      -6.032237      -164.1455
  24   2.0000      -1.011767       -27.5316
  25   2.0000      -0.987033       -26.8585
  26   2.0000      -0.919882       -25.0313
  27   2.0000      -0.903385       -24.5823
  28   2.0000      -0.876952       -23.8631
  29   2.0000      -0.851702       -23.1760
  30   2.0000      -0.848349       -23.0847
  31   2.0000      -0.811680       -22.0869
  32   2.0000      -0.785828       -21.3835
  33   2.0000      -0.768649       -20.9160
  34   2.0000      -0.705969       -19.2104
  35   2.0000      -0.699551       -19.0358
  36   2.0000      -0.694864       -18.9082
  37   2.0000      -0.655198       -17.8288
  38   2.0000      -0.640773       -17.4363
  39   2.0000      -0.615950       -16.7609
  40   2.0000      -0.592961       -16.1353
  41   2.0000      -0.583205       -15.8698
  42   2.0000      -0.572961       -15.5911
  43   2.0000      -0.568627       -15.4731
  44   2.0000      -0.530177       -14.4268
  45   2.0000      -0.523157       -14.2358
  46   2.0000      -0.516463       -14.0537
  47   2.0000      -0.509473       -13.8635
  48   2.0000      -0.500968       -13.6320
  49   2.0000      -0.495006       -13.4698
  50   2.0000      -0.486741       -13.2449
  51   2.0000      -0.483147       -13.1471
  52   2.0000      -0.474889       -12.9224
  53   2.0000      -0.462265       -12.5789
  54   2.0000      -0.458160       -12.4672
  55   2.0000      -0.453426       -12.3383
  56   2.0000      -0.445167       -12.1136
  57   2.0000      -0.439747       -11.9661
  58   2.0000      -0.432507       -11.7691
  59   2.0000      -0.426733       -11.6120
  60   2.0000      -0.423391       -11.5210
  61   2.0000      -0.412473       -11.2240
  62   2.0000      -0.407643       -11.0925
  63   2.0000      -0.347147        -9.4463
  64   2.0000      -0.336021        -9.1436
  65   2.0000      -0.327673        -8.9164
  66   2.0000      -0.290778        -7.9125
  67   0.0000       0.036996         1.0067
  68   0.0000       0.065830         1.7913
  69   0.0000       0.106465         2.8971
  70   0.0000       0.126853         3.4519
  71   0.0000       0.128930         3.5084

MULLIKEN ATOMIC CHARGES
-----------------------
   0 S :    0.133302
   1 C :   -0.087411
   2 C :   -0.054222
   3 C :    0.029704
   4 C :   -0.151766
   5 H :   -0.012580
   6 C :    0.001482
   7 H :    0.018789
   8 H :    0.027387
   9 C :   -0.041594
  10 H :    0.026213
  11 H :    0.022826
  12 C :   -0.033872
  13 H :    0.020368
  14 H :    0.026335
  15 H :    0.047862
  16 S :    0.113625
  17 C :   -0.077932
  18 C :   -0.047433
  19 C :   -0.009869
  20 C :   -0.179172
  21 H :    0.022521
  22 C :   -0.006590
  23 H :    0.047103
  24 H :    0.056957
  25 C :   -0.050919
  26 H :    0.030590
  27 H :    0.031835
  28 C :   -0.086263
  29 H :    0.043948
  30 H :    0.030879
  31 H :    0.043247
  32 H :    0.020074
  33 H :    0.044576
Sum of atomic charges:   -0.0000000

LOEWDIN ATOMIC CHARGES
----------------------
   0 S :    0.428604
   1 C :   -0.186026
   2 C :   -0.057704
   3 C :   -0.054109
   4 C :   -0.224911
   5 H :    0.020829
   6 C :   -0.043229
   7 H :    0.037356
   8 H :    0.029600
   9 C :   -0.039922
  10 H :    0.021467
  11 H :    0.020054
  12 C :   -0.061688
  13 H :    0.021317
  14 H :    0.026513
  15 H :    0.031719
  16 S :    0.416946
  17 C :   -0.179160
  18 C :   -0.074934
  19 C :   -0.052803
  20 C :   -0.210257
  21 H :    0.034951
  22 C :   -0.042434
  23 H :    0.034605
  24 H :    0.044831
  25 C :   -0.041129
  26 H :    0.020897
  27 H :    0.022624
  28 C :   -0.069248
  29 H :    0.027996
  30 H :    0.022578
  31 H :    0.031567
  32 H :    0.022174
  33 H :    0.020925

  Mayer bond orders larger than 0.100000
B(  0-S ,  1-C ) :   1.1231 B(  0-S ,  4-C ) :   1.1513 B(  1-C ,  2-C ) :   1.6704
B(  1-C , 32-H ) :   0.9599 B(  2-C ,  3-C ) :   1.2076 B(  2-C ,  6-C ) :   1.0192
B(  3-C ,  4-C ) :   1.5912 B(  3-C ,  5-H ) :   1.0029 B(  4-C , 20-C ) :   1.0237
B(  6-C ,  7-H ) :   0.9374 B(  6-C ,  8-H ) :   0.9371 B(  6-C ,  9-C ) :   1.0557
B(  9-C , 10-H ) :   0.9543 B(  9-C , 11-H ) :   0.9585 B(  9-C , 12-C ) :   1.0709
B( 12-C , 13-H ) :   0.9767 B( 12-C , 14-H ) :   0.9738 B( 12-C , 15-H ) :   0.9725
B( 16-S , 17-C ) :   1.1713 B( 16-S , 20-C ) :   1.1550 B( 17-C , 18-C ) :   1.5975
B( 17-C , 20-C ) :   0.1067 B( 17-C , 33-H ) :   0.9663 B( 18-C , 19-C ) :   1.2527
B( 18-C , 21-H ) :   0.9951 B( 19-C , 20-C ) :   1.5741 B( 19-C , 22-C ) :   1.0172
B( 22-C , 23-H ) :   0.9370 B( 22-C , 24-H ) :   0.9385 B( 22-C , 25-C ) :   1.0762
B( 25-C , 26-H ) :   0.9583 B( 25-C , 27-H ) :   0.9474 B( 25-C , 28-C ) :   1.0710
B( 28-C , 29-H ) :   0.9765 B( 28-C , 30-H ) :   0.9790 B( 28-C , 31-H ) :   0.9770

Dispersion correction           -0.013434150
FINAL SINGLE POINT ENERGY     -1339.857148932663

DIPOLE MOMENT
-------------
                                X             Y             Z
Electronic contribution:      9.69983     -29.70208       6.55511
Nuclear contribution   :     -9.67047      30.38819      -6.78979
                        -----------------------------------------
Total Dipole Moment    :      0.02936       0.68611      -0.23468
                        -----------------------------------------
Magnitude (a.u.)       :      0.72573
Magnitude (Debye)      :      1.84465

Rotational constants in cm-1:     0.016538     0.008356     0.006141
Rotational constants in MHz :   495.796753   250.504997   184.113019

                             ****ORCA TERMINATED NORMALLY****
TOTAL RUN TIME: 0 days 0 hours 0 minutes 32 seconds 907 msec
