                         Program Version 4.2.1 -  RELEASE  -
|  1> ! wB97X-D3 SP def2-SVP
|  2> %pal
|  3> nprocs 16
|  4> end
|  5>
|  6> * xyz 0 1
|  7> S 	 -104.302 	 46.6698 	 122.421
|  8> C 	 -103.769 	 47.9652 	 123.54
|  9> C 	 -102.403 	 47.7723 	 123.828
| 10> C 	 -101.894 	 46.6311 	 123.171
| 11> C 	 -102.683 	 45.9513 	 122.315
| 12> H 	 -100.945 	 46.1465 	 123.332
| 13> C 	 -101.553 	 48.6788 	 124.659
| 14> H 	 -100.672 	 48.0619 	 124.948
| 15> H 	 -102.188 	 48.9718 	 125.545
| 16> C 	 -100.963 	 49.9174 	 123.901
| 17> H 	 -100.16 	 50.452 	 124.512
| 18> H 	 -100.469 	 49.6351 	 123.011
| 19> C 	 -102.03 	 50.9075 	 123.531
| 20> H 	 -101.563 	 51.9193 	 123.31
| 21> H 	 -102.537 	 50.4399 	 122.702
| 22> H 	 -102.831 	 50.9804 	 124.309
| 23> S 	 -103.501 	 43.3206 	 121.848
| 24> C 	 -102.49 	 42.2698 	 120.969
| 25> C 	 -101.407 	 42.9196 	 120.509
| 26> C 	 -101.339 	 44.2949 	 120.931
| 27> C 	 -102.399 	 44.6798 	 121.72
| 28> H 	 -100.698 	 42.4063 	 119.889
| 29> C 	 -100.156 	 45.1452 	 120.5
| 30> H 	 -100.652 	 46.1259 	 120.334
| 31> H 	 -99.8626 	 44.9373 	 119.482
| 32> C 	 -99.0099 	 45.3341 	 121.469
| 33> H 	 -98.4975 	 44.3866 	 121.482
| 34> H 	 -99.1249 	 45.6894 	 122.529
| 35> C 	 -97.9549 	 46.2705 	 121.006
| 36> H 	 -98.1664 	 47.3525 	 121.049
| 37> H 	 -97.6806 	 45.9025 	 119.905
| 38> H 	 -97.0644 	 46.2616 	 121.589
| 39> H 	 -104.372 	 48.7304 	 123.925
| 40> H 	 -102.708 	 41.2554 	 120.649
| 41> *
| 42>
| 43>                          ****END OF INPUT****

CARTESIAN COORDINATES (ANGSTROEM)
---------------------------------
  S    -104.302000   46.669800  122.421000
  C    -103.769000   47.965200  123.540000
  C    -102.403000   47.772300  123.828000
  C    -101.894000   46.631100  123.171000
  C    -102.683000   45.951300  122.315000
  H    -100.945000   46.146500  123.332000
  C    -101.553000   48.678800  124.659000
  H    -100.672000   48.061900  124.948000
  H    -102.188000   48.971800  125.545000
  C    -100.963000   49.917400  123.901000
  H    -100.160000   50.452000  124.512000
  H    -100.469000   49.635100  123.011000
  C    -102.030000   50.907500  123.531000
  H    -101.563000   51.919300  123.310000
  H    -102.537000   50.439900  122.702000
  H    -102.831000   50.980400  124.309000
  S    -103.501000   43.320600  121.848000
  C    -102.490000   42.269800  120.969000
  C    -101.407000   42.919600  120.509000
  C    -101.339000   44.294900  120.931000
  C    -102.399000   44.679800  121.720000
  H    -100.698000   42.406300  119.889000
  C    -100.156000   45.145200  120.500000
  H    -100.652000   46.125900  120.334000
  H    -99.862600   44.937300  119.482000
  C    -99.009900   45.334100  121.469000
  H    -98.497500   44.386600  121.482000
  H    -99.124900   45.689400  122.529000
  C    -97.954900   46.270500  121.006000
  H    -98.166400   47.352500  121.049000
  H    -97.680600   45.902500  119.905000
  H    -97.064400   46.261600  121.589000
  H    -104.372000   48.730400  123.925000
  H    -102.708000   41.255400  120.649000

 Total Charge           Charge          ....    0
 Multiplicity           Mult            ....    1
 Number of Electrons    NEL             ....  134
 Basis Dimension        Dim             ....  322

ORBITAL ENERGIES
----------------

  NO   OCC          E(Eh)            E(eV)
   0   2.0000     -88.965966     -2420.8870
   1   2.0000     -88.963807     -2420.8282
   2   2.0000     -10.327819      -281.0342
   3   2.0000     -10.326557      -280.9999
   4   2.0000     -10.321366      -280.8586
   5   2.0000     -10.312029      -280.6046
   6   2.0000     -10.304551      -280.4011
   7   2.0000     -10.303053      -280.3603
   8   2.0000     -10.301031      -280.3053
   9   2.0000     -10.293122      -280.0901
  10   2.0000     -10.289047      -279.9792
  11   2.0000     -10.288396      -279.9615
  12   2.0000     -10.287976      -279.9501
  13   2.0000     -10.287395      -279.9342
  14   2.0000     -10.283778      -279.8358
  15   2.0000     -10.280003      -279.7331
  16   2.0000      -8.079624      -219.8577
  17   2.0000      -8.079532      -219.8552
  18   2.0000      -6.038233      -164.3087
  19   2.0000      -6.038134      -164.3060
  20   2.0000      -6.034247      -164.2002
  21   2.0000      -6.033772      -164.1873
  22   2.0000      -6.030336      -164.0938
  23   2.0000      -6.030252      -164.0915
  24   2.0000      -1.012934       -27.5633
  25   2.0000      -0.988018       -26.8853
  26   2.0000      -0.917943       -24.9785
  27   2.0000      -0.914682       -24.8898
  28   2.0000      -0.876480       -23.8502
  29   2.0000      -0.857080       -23.3223
  30   2.0000      -0.846902       -23.0454
  31   2.0000      -0.821373       -22.3507
  32   2.0000      -0.782706       -21.2985
  33   2.0000      -0.773074       -21.0364
  34   2.0000      -0.712333       -19.3836
  35   2.0000      -0.696211       -18.9449
  36   2.0000      -0.694780       -18.9059
  37   2.0000      -0.662094       -18.0165
  38   2.0000      -0.647977       -17.6323
  39   2.0000      -0.620001       -16.8711
  40   2.0000      -0.599843       -16.3226
  41   2.0000      -0.572560       -15.5802
  42   2.0000      -0.570364       -15.5204
  43   2.0000      -0.551184       -14.9985
  44   2.0000      -0.541138       -14.7251
  45   2.0000      -0.532614       -14.4932
  46   2.0000      -0.523310       -14.2400
  47   2.0000      -0.520682       -14.1685
  48   2.0000      -0.515521       -14.0280
  49   2.0000      -0.509452       -13.8629
  50   2.0000      -0.485613       -13.2142
  51   2.0000      -0.481987       -13.1155
  52   2.0000      -0.478509       -13.0209
  53   2.0000      -0.467361       -12.7175
  54   2.0000      -0.459376       -12.5003
  55   2.0000      -0.445941       -12.1347
  56   2.0000      -0.440016       -11.9735
  57   2.0000      -0.432596       -11.7715
  58   2.0000      -0.428487       -11.6597
  59   2.0000      -0.422478       -11.4962
  60   2.0000      -0.414886       -11.2896
  61   2.0000      -0.409180       -11.1343
  62   2.0000      -0.407079       -11.0772
  63   2.0000      -0.355185        -9.6651
  64   2.0000      -0.330794        -9.0014
  65   2.0000      -0.329327        -8.9614
  66   2.0000      -0.295998        -8.0545
  67   0.0000       0.025196         0.6856
  68   0.0000       0.072109         1.9622
  69   0.0000       0.114067         3.1039
  70   0.0000       0.122979         3.3464
  71   0.0000       0.127901         3.4804

MULLIKEN ATOMIC CHARGES
-----------------------
   0 S :    0.091717
   1 C :   -0.105892
   2 C :   -0.077986
   3 C :    0.019985
   4 C :   -0.145320
   5 H :   -0.005137
   6 C :    0.039320
   7 H :    0.030817
   8 H :    0.047179
   9 C :   -0.054711
  10 H :    0.037369
  11 H :    0.019885
  12 C :   -0.077369
  13 H :    0.053270
  14 H :    0.040639
  15 H :    0.024044
  16 S :    0.112366
  17 C :   -0.075421
  18 C :   -0.030660
  19 C :   -0.049178
  20 C :   -0.140014
  21 H :    0.007900
  22 C :    0.073867
  23 H :    0.023576
  24 H :    0.017869
  25 C :   -0.037993
  26 H :    0.021044
  27 H :    0.044507
  28 C :   -0.088494
  29 H :    0.035214
  30 H :    0.031744
  31 H :    0.024830
  32 H :    0.034163
  33 H :    0.056869
Sum of atomic charges:   -0.0000000

LOEWDIN ATOMIC CHARGES
----------------------
   0 S :    0.377781
   1 C :   -0.170908
   2 C :   -0.066379
   3 C :   -0.062829
   4 C :   -0.184962
   5 H :    0.028002
   6 C :   -0.034407
   7 H :    0.035636
   8 H :    0.038684
   9 C :   -0.041270
  10 H :    0.028085
  11 H :    0.018816
  12 C :   -0.074090
  13 H :    0.036352
  14 H :    0.025034
  15 H :    0.021652
  16 S :    0.420673
  17 C :   -0.195142
  18 C :   -0.076327
  19 C :   -0.052711
  20 C :   -0.198772
  21 H :    0.028364
  22 C :   -0.036470
  23 H :    0.036113
  24 H :    0.032100
  25 C :   -0.050248
  26 H :    0.025268
  27 H :    0.033174
  28 C :   -0.071293
  29 H :    0.023331
  30 H :    0.032066
  31 H :    0.020226
  32 H :    0.018656
  33 H :    0.035796

  Mayer bond orders larger than 0.100000
B(  0-S ,  1-C ) :   1.1398 B(  0-S ,  4-C ) :   1.1185 B(  1-C ,  2-C ) :   1.5749
B(  1-C ,  4-C ) :   0.1001 B(  1-C , 32-H ) :   0.9807 B(  2-C ,  3-C ) :   1.2470
B(  2-C ,  6-C ) :   1.0264 B(  3-C ,  4-C ) :   1.6008 B(  3-C ,  5-H ) :   0.9837
B(  4-C , 20-C ) :   1.0700 B(  6-C ,  7-H ) :   0.9371 B(  6-C ,  8-H ) :   0.9430
B(  6-C ,  9-C ) :   1.0658 B(  9-C , 10-H ) :   0.9599 B(  9-C , 11-H ) :   0.9539
B(  9-C , 12-C ) :   1.0715 B( 12-C , 13-H ) :   0.9708 B( 12-C , 14-H ) :   0.9731
B( 12-C , 15-H ) :   0.9759 B( 16-S , 17-C ) :   1.1601 B( 16-S , 20-C ) :   1.1247
B( 17-C , 18-C ) :   1.6152 B( 17-C , 33-H ) :   0.9627 B( 18-C , 19-C ) :   1.2441
B( 18-C , 21-H ) :   0.9971 B( 19-C , 20-C ) :   1.5995 B( 19-C , 22-C ) :   1.0413
B( 22-C , 23-H ) :   0.9241 B( 22-C , 24-H ) :   0.9324 B( 22-C , 25-C ) :   1.0615
B( 25-C , 26-H ) :   0.9461 B( 25-C , 27-H ) :   0.9467 B( 25-C , 28-C ) :   1.0891
B( 28-C , 29-H ) :   0.9738 B( 28-C , 30-H ) :   0.9692 B( 28-C , 31-H ) :   0.9712

Dispersion correction           -0.014694265
FINAL SINGLE POINT ENERGY     -1339.862779899926

DIPOLE MOMENT
-------------
                                X             Y             Z
Electronic contribution:    -23.65532     -19.26540      -1.79153
Nuclear contribution   :     24.35210      19.41301       1.80385
                        -----------------------------------------
Total Dipole Moment    :      0.69678       0.14761       0.01233
                        -----------------------------------------
Magnitude (a.u.)       :      0.71235
Magnitude (Debye)      :      1.81066

Rotational constants in cm-1:     0.018928     0.009521     0.006758
Rotational constants in MHz :   567.436921   285.420594   202.613551

                             ****ORCA TERMINATED NORMALLY****
TOTAL RUN TIME: 0 days 0 hours 0 minutes 35 seconds 152 msec
