                         Program Version 4.2.1 -  RELEASE  -
|  1> ! wB97X-D3 SP def2-SVP
|  2> %pal
|  3> nprocs 16
|  4> end
|  5>
|  6> * xyz 0 1
|  7> S 	 -76.7447 	 41.9552 	 124.357
|  8> C 	 -77.5209 	 40.4023 	 124.005
|  9> C 	 -77.6623 	 40.1416 	 122.664
| 10> C 	 -77.2326 	 41.2333 	 121.861
| 11> C 	 -76.6706 	 42.3172 	 122.611
| 12> H 	 -77.3168 	 41.2351 	 120.763
| 13> C 	 -78.4793 	 39.028 	 121.997
| 14> H 	 -77.7898 	 38.4053 	 121.573
| 15> H 	 -79.0606 	 39.3957 	 121.199
| 16> C 	 -79.397 	 38.0326 	 122.767
| 17> H 	 -79.6696 	 37.1977 	 122.141
| 18> H 	 -78.8058 	 37.587 	 123.579
| 19> C 	 -80.7239 	 38.5802 	 123.275
| 20> H 	 -81.2661 	 38.7418 	 122.327
| 21> H 	 -81.0865 	 37.7579 	 123.823
| 22> H 	 -80.6304 	 39.6098 	 123.773
| 23> S 	 -76.8931 	 44.3777 	 120.733
| 24> C 	 -75.9183 	 45.7919 	 121.173
| 25> C 	 -74.744 	 45.3679 	 121.787
| 26> C 	 -74.8718 	 44.0769 	 122.365
| 27> C 	 -76.1699 	 43.5969 	 122.14
| 28> H 	 -73.9401 	 46.0712 	 121.867
| 29> C 	 -73.8138 	 43.5354 	 123.259
| 30> H 	 -74.2726 	 43.456 	 124.304
| 31> H 	 -72.9694 	 44.2869 	 123.397
| 32> C 	 -73.3908 	 42.1913 	 122.823
| 33> H 	 -74.1192 	 41.7855 	 122.155
| 34> H 	 -73.3626 	 41.5431 	 123.652
| 35> C 	 -72.0148 	 42.108 	 122.139
| 36> H 	 -71.8497 	 41.0638 	 122.024
| 37> H 	 -71.257 	 42.489 	 122.652
| 38> H 	 -72.1652 	 42.5106 	 121.114
| 39> H 	 -77.8083 	 39.7004 	 124.791
| 40> H 	 -76.0651 	 46.72 	 120.654
| 41> *
| 42>
| 43>                          ****END OF INPUT****

CARTESIAN COORDINATES (ANGSTROEM)
---------------------------------
  S    -76.744700   41.955200  124.357000
  C    -77.520900   40.402300  124.005000
  C    -77.662300   40.141600  122.664000
  C    -77.232600   41.233300  121.861000
  C    -76.670600   42.317200  122.611000
  H    -77.316800   41.235100  120.763000
  C    -78.479300   39.028000  121.997000
  H    -77.789800   38.405300  121.573000
  H    -79.060600   39.395700  121.199000
  C    -79.397000   38.032600  122.767000
  H    -79.669600   37.197700  122.141000
  H    -78.805800   37.587000  123.579000
  C    -80.723900   38.580200  123.275000
  H    -81.266100   38.741800  122.327000
  H    -81.086500   37.757900  123.823000
  H    -80.630400   39.609800  123.773000
  S    -76.893100   44.377700  120.733000
  C    -75.918300   45.791900  121.173000
  C    -74.744000   45.367900  121.787000
  C    -74.871800   44.076900  122.365000
  C    -76.169900   43.596900  122.140000
  H    -73.940100   46.071200  121.867000
  C    -73.813800   43.535400  123.259000
  H    -74.272600   43.456000  124.304000
  H    -72.969400   44.286900  123.397000
  C    -73.390800   42.191300  122.823000
  H    -74.119200   41.785500  122.155000
  H    -73.362600   41.543100  123.652000
  C    -72.014800   42.108000  122.139000
  H    -71.849700   41.063800  122.024000
  H    -71.257000   42.489000  122.652000
  H    -72.165200   42.510600  121.114000
  H    -77.808300   39.700400  124.791000
  H    -76.065100   46.720000  120.654000

 Total Charge           Charge          ....    0
 Multiplicity           Mult            ....    1
 Number of Electrons    NEL             ....  134
 Basis Dimension        Dim             ....  322

ORBITAL ENERGIES
----------------

  NO   OCC          E(Eh)            E(eV)
   0   2.0000     -88.969611     -2420.9862
   1   2.0000     -88.963752     -2420.8268
   2   2.0000     -10.335658      -281.2476
   3   2.0000     -10.324691      -280.9491
   4   2.0000     -10.316438      -280.7245
   5   2.0000     -10.313818      -280.6532
   6   2.0000     -10.303379      -280.3692
   7   2.0000     -10.302132      -280.3353
   8   2.0000     -10.298665      -280.2409
   9   2.0000     -10.294216      -280.1199
  10   2.0000     -10.292583      -280.0754
  11   2.0000     -10.285434      -279.8809
  12   2.0000     -10.283431      -279.8264
  13   2.0000     -10.277871      -279.6751
  14   2.0000     -10.266119      -279.3553
  15   2.0000     -10.261693      -279.2349
  16   2.0000      -8.082878      -219.9463
  17   2.0000      -8.078279      -219.8211
  18   2.0000      -6.041494      -164.3974
  19   2.0000      -6.037644      -164.2927
  20   2.0000      -6.036748      -164.2683
  21   2.0000      -6.033599      -164.1826
  22   2.0000      -6.033592      -164.1824
  23   2.0000      -6.028316      -164.0388
  24   2.0000      -1.003558       -27.3082
  25   2.0000      -0.978818       -26.6350
  26   2.0000      -0.916488       -24.9389
  27   2.0000      -0.909962       -24.7613
  28   2.0000      -0.866425       -23.5766
  29   2.0000      -0.853720       -23.2309
  30   2.0000      -0.846897       -23.0452
  31   2.0000      -0.805933       -21.9306
  32   2.0000      -0.789293       -21.4778
  33   2.0000      -0.774880       -21.0856
  34   2.0000      -0.709762       -19.3136
  35   2.0000      -0.696874       -18.9629
  36   2.0000      -0.685436       -18.6517
  37   2.0000      -0.660499       -17.9731
  38   2.0000      -0.632712       -17.2170
  39   2.0000      -0.609408       -16.5828
  40   2.0000      -0.598969       -16.2988
  41   2.0000      -0.573178       -15.5970
  42   2.0000      -0.558250       -15.1908
  43   2.0000      -0.555405       -15.1133
  44   2.0000      -0.540605       -14.7106
  45   2.0000      -0.537239       -14.6190
  46   2.0000      -0.528769       -14.3885
  47   2.0000      -0.516546       -14.0559
  48   2.0000      -0.498567       -13.5667
  49   2.0000      -0.491677       -13.3792
  50   2.0000      -0.487055       -13.2534
  51   2.0000      -0.485097       -13.2002
  52   2.0000      -0.468373       -12.7451
  53   2.0000      -0.462504       -12.5854
  54   2.0000      -0.459135       -12.4937
  55   2.0000      -0.449682       -12.2365
  56   2.0000      -0.442877       -12.0513
  57   2.0000      -0.438435       -11.9304
  58   2.0000      -0.429829       -11.6962
  59   2.0000      -0.426119       -11.5953
  60   2.0000      -0.418942       -11.4000
  61   2.0000      -0.411159       -11.1882
  62   2.0000      -0.402130       -10.9425
  63   2.0000      -0.342655        -9.3241
  64   2.0000      -0.332347        -9.0436
  65   2.0000      -0.324862        -8.8399
  66   2.0000      -0.279529        -7.6064
  67   0.0000       0.013396         0.3645
  68   0.0000       0.058514         1.5923
  69   0.0000       0.094372         2.5680
  70   0.0000       0.106884         2.9084
  71   0.0000       0.136859         3.7241

MULLIKEN ATOMIC CHARGES
-----------------------
   0 S :    0.103747
   1 C :   -0.143978
   2 C :   -0.047616
   3 C :   -0.011932
   4 C :   -0.183137
   5 H :    0.022866
   6 C :    0.102894
   7 H :    0.011134
   8 H :    0.014392
   9 C :   -0.110818
  10 H :    0.022944
  11 H :    0.019447
  12 C :   -0.046574
  13 H :    0.028206
  14 H :    0.038040
  15 H :    0.058106
  16 S :    0.091369
  17 C :   -0.080009
  18 C :   -0.024373
  19 C :   -0.035407
  20 C :   -0.120275
  21 H :    0.015731
  22 C :    0.032702
  23 H :    0.051757
  24 H :    0.033994
  25 C :   -0.059983
  26 H :    0.039539
  27 H :    0.008574
  28 C :    0.016614
  29 H :    0.018023
  30 H :    0.003840
  31 H :    0.030240
  32 H :    0.051989
  33 H :    0.047954
Sum of atomic charges:   -0.0000000

LOEWDIN ATOMIC CHARGES
----------------------
   0 S :    0.392699
   1 C :   -0.198743
   2 C :   -0.060253
   3 C :   -0.071707
   4 C :   -0.175555
   5 H :    0.031966
   6 C :   -0.024232
   7 H :    0.025201
   8 H :    0.025386
   9 C :   -0.042398
  10 H :    0.025865
  11 H :    0.016965
  12 C :   -0.067850
  13 H :    0.026816
  14 H :    0.022976
  15 H :    0.036979
  16 S :    0.380071
  17 C :   -0.164125
  18 C :   -0.060334
  19 C :   -0.047578
  20 C :   -0.199092
  21 H :    0.028312
  22 C :   -0.044856
  23 H :    0.041386
  24 H :    0.036019
  25 C :   -0.040814
  26 H :    0.027897
  27 H :    0.016568
  28 C :   -0.044159
  29 H :    0.025230
  30 H :    0.001088
  31 H :    0.031408
  32 H :    0.028661
  33 H :    0.020203

  Mayer bond orders larger than 0.100000
B(  0-S ,  1-C ) :   1.1214 B(  0-S ,  4-C ) :   1.1549 B(  1-C ,  2-C ) :   1.6349
B(  1-C , 32-H ) :   0.9568 B(  2-C ,  3-C ) :   1.2560 B(  2-C ,  6-C ) :   0.9982
B(  3-C ,  4-C ) :   1.5468 B(  3-C ,  5-H ) :   0.9864 B(  4-C , 20-C ) :   1.0873
B(  6-C ,  7-H ) :   0.9185 B(  6-C ,  8-H ) :   0.9500 B(  6-C ,  9-C ) :   1.0896
B(  9-C , 10-H ) :   0.9531 B(  9-C , 11-H ) :   0.9525 B(  9-C , 12-C ) :   1.0669
B( 12-C , 13-H ) :   0.9755 B( 12-C , 14-H ) :   0.9752 B( 12-C , 15-H ) :   0.9769
B( 16-S , 17-C ) :   1.1391 B( 16-S , 20-C ) :   1.1299 B( 17-C , 18-C ) :   1.6070
B( 17-C , 20-C ) :   0.1048 B( 17-C , 33-H ) :   0.9744 B( 18-C , 19-C ) :   1.2240
B( 18-C , 21-H ) :   0.9976 B( 19-C , 20-C ) :   1.5381 B( 19-C , 22-C ) :   1.0493
B( 22-C , 23-H ) :   0.9317 B( 22-C , 24-H ) :   0.9431 B( 22-C , 25-C ) :   1.0368
B( 25-C , 26-H ) :   0.9595 B( 25-C , 27-H ) :   0.9475 B( 25-C , 28-C ) :   1.0940
B( 28-C , 29-H ) :   0.9716 B( 28-C , 30-H ) :   0.9772 B( 28-C , 31-H ) :   0.9746

Dispersion correction           -0.014801614
FINAL SINGLE POINT ENERGY     -1339.823881642777

DIPOLE MOMENT
-------------
                                X             Y             Z
Electronic contribution:     -2.31685      17.78858      -0.76710
Nuclear contribution   :      2.56673     -18.11800       0.59755
                        -----------------------------------------
Total Dipole Moment    :      0.24988      -0.32942      -0.16955
                        -----------------------------------------
Magnitude (a.u.)       :      0.44688
Magnitude (Debye)      :      1.13588

Rotational constants in cm-1:     0.022531     0.007827     0.006738
Rotational constants in MHz :   675.454317   234.656241   202.001268

                             ****ORCA TERMINATED NORMALLY****
TOTAL RUN TIME: 0 days 0 hours 0 minutes 32 seconds 213 msec
