                         Program Version 4.2.1 -  RELEASE  -
|  1> ! wB97X-D3 SP def2-SVP
|  2> %pal
|  3> nprocs 16
|  4> end
|  5>
|  6> * xyz 0 1
|  7> S 	 43.7758 	 10.8983 	 102.602
|  8> C 	 45.1923 	 11.1151 	 103.587
|  9> C 	 46.3381 	 10.5632 	 102.953
| 10> C 	 46.0786 	 10.2683 	 101.581
| 11> C 	 44.7318 	 10.548 	 101.217
| 12> H 	 46.7263 	 9.72309 	 100.875
| 13> C 	 47.5634 	 10.238 	 103.726
| 14> H 	 47.6134 	 10.7761 	 104.697
| 15> H 	 48.3733 	 10.7277 	 103.274
| 16> C 	 47.8287 	 8.74532 	 103.833
| 17> H 	 47.7176 	 8.29791 	 102.903
| 18> H 	 48.8903 	 8.57661 	 104.177
| 19> C 	 46.9505 	 8.04952 	 105.024
| 20> H 	 45.9022 	 8.29764 	 104.902
| 21> H 	 47.1764 	 7.02924 	 104.911
| 22> H 	 47.1582 	 8.35778 	 106.055
| 23> S 	 42.5462 	 9.28477 	 99.9381
| 24> C 	 42.5014 	 9.16567 	 98.1911
| 25> C 	 43.5837 	 9.84699 	 97.6537
| 26> C 	 44.5302 	 10.3548 	 98.6159
| 27> C 	 44.0741 	 10.1596 	 99.9312
| 28> H 	 43.5837 	 10.1941 	 96.6288
| 29> C 	 45.7332 	 11.2016 	 98.1941
| 30> H 	 46.2809 	 10.6722 	 97.4202
| 31> H 	 46.4787 	 11.2716 	 99.0311
| 32> C 	 45.5282 	 12.6842 	 97.6964
| 33> H 	 45.0945 	 12.5547 	 96.7053
| 34> H 	 46.4746 	 13.2315 	 97.4987
| 35> C 	 44.7248 	 13.6018 	 98.6355
| 36> H 	 44.6818 	 14.6054 	 98.1399
| 37> H 	 45.2414 	 13.6752 	 99.5998
| 38> H 	 43.7134 	 13.2493 	 98.9203
| 39> H 	 45.1135 	 11.408 	 104.656
| 40> H 	 41.6179 	 8.85533 	 97.6298
| 41> *
| 42>
| 43>                          ****END OF INPUT****

CARTESIAN COORDINATES (ANGSTROEM)
---------------------------------
  S     43.775800   10.898300  102.602000
  C     45.192300   11.115100  103.587000
  C     46.338100   10.563200  102.953000
  C     46.078600   10.268300  101.581000
  C     44.731800   10.548000  101.217000
  H     46.726300    9.723090  100.875000
  C     47.563400   10.238000  103.726000
  H     47.613400   10.776100  104.697000
  H     48.373300   10.727700  103.274000
  C     47.828700    8.745320  103.833000
  H     47.717600    8.297910  102.903000
  H     48.890300    8.576610  104.177000
  C     46.950500    8.049520  105.024000
  H     45.902200    8.297640  104.902000
  H     47.176400    7.029240  104.911000
  H     47.158200    8.357780  106.055000
  S     42.546200    9.284770   99.938100
  C     42.501400    9.165670   98.191100
  C     43.583700    9.846990   97.653700
  C     44.530200   10.354800   98.615900
  C     44.074100   10.159600   99.931200
  H     43.583700   10.194100   96.628800
  C     45.733200   11.201600   98.194100
  H     46.280900   10.672200   97.420200
  H     46.478700   11.271600   99.031100
  C     45.528200   12.684200   97.696400
  H     45.094500   12.554700   96.705300
  H     46.474600   13.231500   97.498700
  C     44.724800   13.601800   98.635500
  H     44.681800   14.605400   98.139900
  H     45.241400   13.675200   99.599800
  H     43.713400   13.249300   98.920300
  H     45.113500   11.408000  104.656000
  H     41.617900    8.855330   97.629800

 Total Charge           Charge          ....    0
 Multiplicity           Mult            ....    1
 Number of Electrons    NEL             ....  134
 Basis Dimension        Dim             ....  322

ORBITAL ENERGIES
----------------

  NO   OCC          E(Eh)            E(eV)
   0   2.0000     -88.970941     -2421.0224
   1   2.0000     -88.967638     -2420.9325
   2   2.0000     -10.335641      -281.2471
   3   2.0000     -10.334875      -281.2263
   4   2.0000     -10.320370      -280.8316
   5   2.0000     -10.318965      -280.7933
   6   2.0000     -10.307028      -280.4685
   7   2.0000     -10.306885      -280.4646
   8   2.0000     -10.303271      -280.3663
   9   2.0000     -10.296139      -280.1722
  10   2.0000     -10.295200      -280.1466
  11   2.0000     -10.292842      -280.0825
  12   2.0000     -10.289773      -279.9990
  13   2.0000     -10.286754      -279.9168
  14   2.0000     -10.277057      -279.6529
  15   2.0000     -10.276785      -279.6455
  16   2.0000      -8.086140      -220.0351
  17   2.0000      -8.082115      -219.9255
  18   2.0000      -6.044455      -164.4780
  19   2.0000      -6.040732      -164.3767
  20   2.0000      -6.040689      -164.3755
  21   2.0000      -6.036987      -164.2748
  22   2.0000      -6.036626      -164.2650
  23   2.0000      -6.032809      -164.1611
  24   2.0000      -1.005503       -27.3611
  25   2.0000      -0.982967       -26.7479
  26   2.0000      -0.912976       -24.8433
  27   2.0000      -0.897723       -24.4283
  28   2.0000      -0.860769       -23.4227
  29   2.0000      -0.847420       -23.0595
  30   2.0000      -0.840595       -22.8737
  31   2.0000      -0.810339       -22.0505
  32   2.0000      -0.783254       -21.3134
  33   2.0000      -0.771898       -21.0044
  34   2.0000      -0.711272       -19.3547
  35   2.0000      -0.693638       -18.8749
  36   2.0000      -0.689041       -18.7498
  37   2.0000      -0.655272       -17.8309
  38   2.0000      -0.640516       -17.4293
  39   2.0000      -0.620712       -16.8904
  40   2.0000      -0.592010       -16.1094
  41   2.0000      -0.568429       -15.4677
  42   2.0000      -0.550061       -14.9679
  43   2.0000      -0.542886       -14.7727
  44   2.0000      -0.541248       -14.7281
  45   2.0000      -0.532018       -14.4770
  46   2.0000      -0.516364       -14.0510
  47   2.0000      -0.507928       -13.8214
  48   2.0000      -0.499085       -13.5808
  49   2.0000      -0.494385       -13.4529
  50   2.0000      -0.487743       -13.2722
  51   2.0000      -0.480135       -13.0651
  52   2.0000      -0.471152       -12.8207
  53   2.0000      -0.461763       -12.5652
  54   2.0000      -0.459237       -12.4965
  55   2.0000      -0.453392       -12.3374
  56   2.0000      -0.444529       -12.0963
  57   2.0000      -0.438125       -11.9220
  58   2.0000      -0.431589       -11.7441
  59   2.0000      -0.430712       -11.7203
  60   2.0000      -0.419457       -11.4140
  61   2.0000      -0.406717       -11.0673
  62   2.0000      -0.403588       -10.9822
  63   2.0000      -0.351052        -9.5526
  64   2.0000      -0.332450        -9.0464
  65   2.0000      -0.327745        -8.9184
  66   2.0000      -0.285397        -7.7661
  67   0.0000       0.020258         0.5513
  68   0.0000       0.067813         1.8453
  69   0.0000       0.104007         2.8302
  70   0.0000       0.113472         3.0877
  71   0.0000       0.129927         3.5355

MULLIKEN ATOMIC CHARGES
-----------------------
   0 S :    0.113561
   1 C :   -0.132457
   2 C :   -0.102350
   3 C :    0.014229
   4 C :   -0.148478
   5 H :    0.038954
   6 C :    0.092934
   7 H :    0.015173
   8 H :    0.011144
   9 C :   -0.074090
  10 H :    0.023830
  11 H :    0.036384
  12 C :   -0.051058
  13 H :    0.036814
  14 H :    0.033481
  15 H :    0.030006
  16 S :    0.097294
  17 C :   -0.103832
  18 C :   -0.029688
  19 C :   -0.052486
  20 C :   -0.140406
  21 H :    0.028340
  22 C :    0.034625
  23 H :    0.028115
  24 H :    0.023873
  25 C :   -0.073345
  26 H :    0.019758
  27 H :    0.034196
  28 C :   -0.067735
  29 H :    0.042841
  30 H :    0.036324
  31 H :    0.046159
  32 H :    0.066509
  33 H :    0.071381
Sum of atomic charges:    0.0000000

LOEWDIN ATOMIC CHARGES
----------------------
   0 S :    0.431795
   1 C :   -0.213726
   2 C :   -0.056842
   3 C :   -0.066269
   4 C :   -0.201408
   5 H :    0.037139
   6 C :   -0.040170
   7 H :    0.035311
   8 H :    0.024406
   9 C :   -0.024310
  10 H :    0.014255
  11 H :    0.031042
  12 C :   -0.060410
  13 H :    0.023407
  14 H :    0.019585
  15 H :    0.025397
  16 S :    0.397026
  17 C :   -0.192735
  18 C :   -0.068459
  19 C :   -0.064799
  20 C :   -0.191960
  21 H :    0.031949
  22 C :   -0.040467
  23 H :    0.030027
  24 H :    0.030955
  25 C :   -0.042432
  26 H :    0.016554
  27 H :    0.030548
  28 C :   -0.072500
  29 H :    0.032234
  30 H :    0.027943
  31 H :    0.028020
  32 H :    0.033745
  33 H :    0.035149

  Mayer bond orders larger than 0.100000
B(  0-S ,  1-C ) :   1.1563 B(  0-S ,  4-C ) :   1.1887 B(  1-C ,  2-C ) :   1.5487
B(  1-C ,  4-C ) :   0.1062 B(  1-C , 32-H ) :   0.9668 B(  2-C ,  3-C ) :   1.2878
B(  2-C ,  6-C ) :   1.0372 B(  3-C ,  4-C ) :   1.5064 B(  3-C ,  5-H ) :   0.9821
B(  4-C , 20-C ) :   1.0418 B(  6-C ,  7-H ) :   0.9378 B(  6-C ,  8-H ) :   0.9263
B(  6-C ,  9-C ) :   1.0714 B(  9-C , 10-H ) :   0.9625 B(  9-C , 11-H ) :   0.9568
B(  9-C , 12-C ) :   1.0561 B( 12-C , 13-H ) :   0.9811 B( 12-C , 14-H ) :   0.9788
B( 12-C , 15-H ) :   0.9790 B( 16-S , 17-C ) :   1.1455 B( 16-S , 20-C ) :   1.1457
B( 17-C , 18-C ) :   1.6075 B( 17-C , 33-H ) :   0.9655 B( 18-C , 19-C ) :   1.2531
B( 18-C , 21-H ) :   0.9831 B( 19-C , 20-C ) :   1.5828 B( 19-C , 22-C ) :   1.0487
B( 22-C , 23-H ) :   0.9362 B( 22-C , 24-H ) :   0.9365 B( 22-C , 25-C ) :   1.0645
B( 25-C , 26-H ) :   0.9572 B( 25-C , 27-H ) :   0.9552 B( 25-C , 28-C ) :   1.0724
B( 28-C , 29-H ) :   0.9734 B( 28-C , 30-H ) :   0.9747 B( 28-C , 31-H ) :   0.9752

Dispersion correction           -0.015024093
FINAL SINGLE POINT ENERGY     -1339.869733352899

DIPOLE MOMENT
-------------
                                X             Y             Z
Electronic contribution:    -18.75051      -4.28539      -1.43961
Nuclear contribution   :     19.23216       4.33245       1.39310
                        -----------------------------------------
Total Dipole Moment    :      0.48165       0.04706      -0.04650
                        -----------------------------------------
Magnitude (a.u.)       :      0.48617
Magnitude (Debye)      :      1.23576

Rotational constants in cm-1:     0.020792     0.008288     0.007327
Rotational constants in MHz :   623.332604   248.460285   219.670307

                             ****ORCA TERMINATED NORMALLY****
TOTAL RUN TIME: 0 days 0 hours 0 minutes 30 seconds 240 msec
