                         Program Version 4.2.1 -  RELEASE  -
|  1> ! wB97X-D3 SP def2-SVP
|  2> %pal
|  3> nprocs 16
|  4> end
|  5>
|  6> * xyz 0 1
|  7> S 	 20.299 	 0.652833 	 85.6259
|  8> C 	 20.9789 	 1.23637 	 84.1543
|  9> C 	 19.9892 	 1.61774 	 83.2193
| 10> C 	 18.6939 	 1.58678 	 83.8437
| 11> C 	 18.6985 	 1.10609 	 85.1783
| 12> H 	 17.7082 	 1.80915 	 83.3683
| 13> C 	 20.3133 	 2.32103 	 81.8832
| 14> H 	 21.2954 	 2.70022 	 81.8375
| 15> H 	 19.712 	 3.21902 	 81.7516
| 16> C 	 20.2354 	 1.38578 	 80.6437
| 17> H 	 20.7967 	 0.502247 	 80.7044
| 18> H 	 19.1645 	 1.01904 	 80.6218
| 19> C 	 20.5633 	 1.99271 	 79.2638
| 20> H 	 21.5341 	 2.50129 	 79.3957
| 21> H 	 20.6234 	 1.41044 	 78.3686
| 22> H 	 19.845 	 2.74076 	 79.0023
| 23> S 	 18.0855 	 1.09208 	 87.798
| 24> C 	 16.4903 	 0.992106 	 88.4629
| 25> C 	 15.591 	 1.17669 	 87.3796
| 26> C 	 16.2199 	 1.13673 	 86.0841
| 27> C 	 17.5971 	 1.05652 	 86.1251
| 28> H 	 14.5281 	 1.23531 	 87.5234
| 29> C 	 15.3583 	 1.16994 	 84.8038
| 30> H 	 15.8092 	 2.05135 	 84.2929
| 31> H 	 14.3139 	 1.35557 	 85.032
| 32> C 	 15.3264 	 -0.209875 	 84.029
| 33> H 	 14.6144 	 -0.885297 	 84.538
| 34> H 	 16.2552 	 -0.767535 	 84.2652
| 35> C 	 14.9207 	 0.00557645 	 82.5931
| 36> H 	 13.9496 	 0.411285 	 82.4054
| 37> H 	 15.1714 	 -0.900595 	 81.9782
| 38> H 	 15.5189 	 0.818637 	 82.1518
| 39> H 	 22.0298 	 1.33636 	 84.0176
| 40> H 	 16.0798 	 1.01818 	 89.4976
| 41> *
| 42>
| 43>                          ****END OF INPUT****

CARTESIAN COORDINATES (ANGSTROEM)
---------------------------------
  S     20.299000    0.652833   85.625900
  C     20.978900    1.236370   84.154300
  C     19.989200    1.617740   83.219300
  C     18.693900    1.586780   83.843700
  C     18.698500    1.106090   85.178300
  H     17.708200    1.809150   83.368300
  C     20.313300    2.321030   81.883200
  H     21.295400    2.700220   81.837500
  H     19.712000    3.219020   81.751600
  C     20.235400    1.385780   80.643700
  H     20.796700    0.502247   80.704400
  H     19.164500    1.019040   80.621800
  C     20.563300    1.992710   79.263800
  H     21.534100    2.501290   79.395700
  H     20.623400    1.410440   78.368600
  H     19.845000    2.740760   79.002300
  S     18.085500    1.092080   87.798000
  C     16.490300    0.992106   88.462900
  C     15.591000    1.176690   87.379600
  C     16.219900    1.136730   86.084100
  C     17.597100    1.056520   86.125100
  H     14.528100    1.235310   87.523400
  C     15.358300    1.169940   84.803800
  H     15.809200    2.051350   84.292900
  H     14.313900    1.355570   85.032000
  C     15.326400   -0.209875   84.029000
  H     14.614400   -0.885297   84.538000
  H     16.255200   -0.767535   84.265200
  C     14.920700    0.005576   82.593100
  H     13.949600    0.411285   82.405400
  H     15.171400   -0.900595   81.978200
  H     15.518900    0.818637   82.151800
  H     22.029800    1.336360   84.017600
  H     16.079800    1.018180   89.497600

 Total Charge           Charge          ....    0
 Multiplicity           Mult            ....    1
 Number of Electrons    NEL             ....  134
 Basis Dimension        Dim             ....  322

ORBITAL ENERGIES
----------------

  NO   OCC          E(Eh)            E(eV)
   0   2.0000     -88.970834     -2421.0195
   1   2.0000     -88.966142     -2420.8918
   2   2.0000     -10.335062      -281.2313
   3   2.0000     -10.329291      -281.0743
   4   2.0000     -10.323056      -280.9046
   5   2.0000     -10.316282      -280.7203
   6   2.0000     -10.312073      -280.6058
   7   2.0000     -10.304751      -280.4065
   8   2.0000     -10.303878      -280.3828
   9   2.0000     -10.297638      -280.2130
  10   2.0000     -10.296099      -280.1711
  11   2.0000     -10.296083      -280.1707
  12   2.0000     -10.291327      -280.0412
  13   2.0000     -10.286348      -279.9057
  14   2.0000     -10.280603      -279.7494
  15   2.0000     -10.275829      -279.6195
  16   2.0000      -8.086184      -220.0363
  17   2.0000      -8.081043      -219.8963
  18   2.0000      -6.044622      -164.4825
  19   2.0000      -6.040425      -164.3683
  20   2.0000      -6.039710      -164.3489
  21   2.0000      -6.037172      -164.2798
  22   2.0000      -6.035346      -164.2301
  23   2.0000      -6.031772      -164.1328
  24   2.0000      -1.011356       -27.5204
  25   2.0000      -0.985394       -26.8139
  26   2.0000      -0.908402       -24.7189
  27   2.0000      -0.904527       -24.6134
  28   2.0000      -0.869874       -23.6705
  29   2.0000      -0.853513       -23.2253
  30   2.0000      -0.844772       -22.9874
  31   2.0000      -0.812833       -22.1183
  32   2.0000      -0.782051       -21.2807
  33   2.0000      -0.771796       -21.0016
  34   2.0000      -0.708471       -19.2785
  35   2.0000      -0.702254       -19.1093
  36   2.0000      -0.694199       -18.8901
  37   2.0000      -0.670061       -18.2333
  38   2.0000      -0.642787       -17.4911
  39   2.0000      -0.619631       -16.8610
  40   2.0000      -0.586605       -15.9623
  41   2.0000      -0.568130       -15.4596
  42   2.0000      -0.561912       -15.2904
  43   2.0000      -0.553495       -15.0614
  44   2.0000      -0.527233       -14.3467
  45   2.0000      -0.525697       -14.3049
  46   2.0000      -0.517920       -14.0933
  47   2.0000      -0.513109       -13.9624
  48   2.0000      -0.505878       -13.7656
  49   2.0000      -0.500975       -13.6322
  50   2.0000      -0.498286       -13.5590
  51   2.0000      -0.492547       -13.4029
  52   2.0000      -0.479536       -13.0488
  53   2.0000      -0.467445       -12.7198
  54   2.0000      -0.463545       -12.6137
  55   2.0000      -0.451467       -12.2850
  56   2.0000      -0.448386       -12.2012
  57   2.0000      -0.436542       -11.8789
  58   2.0000      -0.427767       -11.6401
  59   2.0000      -0.419721       -11.4212
  60   2.0000      -0.412012       -11.2114
  61   2.0000      -0.408083       -11.1045
  62   2.0000      -0.405381       -11.0310
  63   2.0000      -0.359246        -9.7756
  64   2.0000      -0.335018        -9.1163
  65   2.0000      -0.327350        -8.9077
  66   2.0000      -0.282243        -7.6802
  67   0.0000       0.016731         0.4553
  68   0.0000       0.083033         2.2594
  69   0.0000       0.104882         2.8540
  70   0.0000       0.110795         3.0149
  71   0.0000       0.128595         3.4992

MULLIKEN ATOMIC CHARGES
-----------------------
   0 S :    0.125088
   1 C :   -0.115787
   2 C :   -0.059457
   3 C :   -0.002409
   4 C :   -0.133417
   5 H :    0.018541
   6 C :    0.078351
   7 H :    0.003063
   8 H :    0.031585
   9 C :   -0.088936
  10 H :    0.023886
  11 H :    0.026143
  12 C :   -0.038470
  13 H :    0.023025
  14 H :    0.036268
  15 H :    0.019595
  16 S :    0.093039
  17 C :   -0.091185
  18 C :   -0.048565
  19 C :   -0.093771
  20 C :   -0.100914
  21 H :    0.013713
  22 C :    0.023001
  23 H :    0.048690
  24 H :    0.019419
  25 C :   -0.068281
  26 H :    0.027485
  27 H :    0.043991
  28 C :   -0.027262
  29 H :    0.027597
  30 H :    0.048960
  31 H :    0.013069
  32 H :    0.046555
  33 H :    0.077392
Sum of atomic charges:   -0.0000000

LOEWDIN ATOMIC CHARGES
----------------------
   0 S :    0.435870
   1 C :   -0.198566
   2 C :   -0.056026
   3 C :   -0.069362
   4 C :   -0.205980
   5 H :    0.034415
   6 C :   -0.023588
   7 H :    0.021627
   8 H :    0.033354
   9 C :   -0.041231
  10 H :    0.016956
  11 H :    0.024876
  12 C :   -0.069233
  13 H :    0.025499
  14 H :    0.026345
  15 H :    0.020379
  16 S :    0.420658
  17 C :   -0.208394
  18 C :   -0.072587
  19 C :   -0.064867
  20 C :   -0.199635
  21 H :    0.025506
  22 C :   -0.032091
  23 H :    0.032442
  24 H :    0.027878
  25 C :   -0.045618
  26 H :    0.028192
  27 H :    0.030845
  28 C :   -0.071578
  29 H :    0.024121
  30 H :    0.036704
  31 H :    0.023181
  32 H :    0.022924
  33 H :    0.046982

  Mayer bond orders larger than 0.100000
B(  0-S ,  1-C ) :   1.1651 B(  0-S ,  4-C ) :   1.1659 B(  1-C ,  2-C ) :   1.5611
B(  1-C ,  4-C ) :   0.1020 B(  1-C , 32-H ) :   0.9730 B(  2-C ,  3-C ) :   1.2798
B(  2-C ,  6-C ) :   1.0250 B(  3-C ,  4-C ) :   1.5308 B(  3-C ,  5-H ) :   0.9798
B(  4-C , 20-C ) :   1.0776 B(  6-C ,  7-H ) :   0.9443 B(  6-C ,  8-H ) :   0.9498
B(  6-C ,  9-C ) :   1.0423 B(  9-C , 10-H ) :   0.9623 B(  9-C , 11-H ) :   0.9593
B(  9-C , 12-C ) :   1.0738 B( 12-C , 13-H ) :   0.9731 B( 12-C , 14-H ) :   0.9769
B( 12-C , 15-H ) :   0.9756 B( 16-S , 17-C ) :   1.1660 B( 16-S , 20-C ) :   1.1386
B( 17-C , 18-C ) :   1.5702 B( 17-C , 20-C ) :   0.1037 B( 17-C , 33-H ) :   0.9637
B( 18-C , 19-C ) :   1.2909 B( 18-C , 21-H ) :   0.9857 B( 19-C , 20-C ) :   1.5625
B( 19-C , 22-C ) :   1.0315 B( 22-C , 23-H ) :   0.9475 B( 22-C , 24-H ) :   0.9351
B( 22-C , 25-C ) :   1.0406 B( 25-C , 26-H ) :   0.9506 B( 25-C , 27-H ) :   0.9663
B( 25-C , 28-C ) :   1.0681 B( 28-C , 29-H ) :   0.9704 B( 28-C , 30-H ) :   0.9709
B( 28-C , 31-H ) :   0.9761

Dispersion correction           -0.013982090
FINAL SINGLE POINT ENERGY     -1339.863534159804

DIPOLE MOMENT
-------------
                                X             Y             Z
Electronic contribution:      8.43104      -1.39101      31.21849
Nuclear contribution   :     -8.77627       1.59129     -31.68108
                        -----------------------------------------
Total Dipole Moment    :     -0.34523       0.20029      -0.46260
                        -----------------------------------------
Magnitude (a.u.)       :      0.61098
Magnitude (Debye)      :      1.55298

Rotational constants in cm-1:     0.019484     0.008474     0.006222
Rotational constants in MHz :   584.108253   254.051227   186.537287

                             ****ORCA TERMINATED NORMALLY****
TOTAL RUN TIME: 0 days 0 hours 0 minutes 32 seconds 528 msec
