                         Program Version 4.2.1 -  RELEASE  -
|  1> ! wB97X-D3 SP def2-SVP
|  2> %pal
|  3> nprocs 16
|  4> end
|  5>
|  6> * xyz 0 1
|  7> S 	 -43.7427 	 16.7246 	 74.6185
|  8> C 	 -42.2614 	 17.0902 	 75.4511
|  9> C 	 -42.3169 	 16.9857 	 76.7802
| 10> C 	 -43.6151 	 16.6047 	 77.2228
| 11> C 	 -44.4502 	 16.3134 	 76.1794
| 12> H 	 -43.9103 	 16.4109 	 78.2492
| 13> C 	 -41.1313 	 17.1815 	 77.6845
| 14> H 	 -40.2701 	 17.3528 	 77.1065
| 15> H 	 -40.8134 	 16.2629 	 78.1411
| 16> C 	 -41.2934 	 18.4396 	 78.5641
| 17> H 	 -41.1065 	 19.3419 	 77.9101
| 18> H 	 -42.4109 	 18.4794 	 78.7099
| 19> C 	 -40.5366 	 18.3917 	 79.8633
| 20> H 	 -40.3129 	 19.4047 	 80.1201
| 21> H 	 -41.0702 	 17.7507 	 80.6043
| 22> H 	 -39.5313 	 18.0831 	 79.5991
| 23> S 	 -46.4861 	 15.0119 	 77.5389
| 24> C 	 -48.1651 	 15.2242 	 76.9204
| 25> C 	 -48.241 	 16.0616 	 75.867
| 26> C 	 -46.9628 	 16.5013 	 75.4476
| 27> C 	 -45.8868 	 16.0721 	 76.2915
| 28> H 	 -49.171 	 16.2057 	 75.3922
| 29> C 	 -46.8828 	 17.3638 	 74.1804
| 30> H 	 -46.4783 	 16.7551 	 73.3194
| 31> H 	 -46.1878 	 18.1743 	 74.3067
| 32> C 	 -48.0692 	 18.0045 	 73.6537
| 33> H 	 -48.3844 	 18.7963 	 74.3475
| 34> H 	 -48.9299 	 17.3162 	 73.4226
| 35> C 	 -47.8882 	 18.644 	 72.2372
| 36> H 	 -47.3507 	 19.539 	 72.4402
| 37> H 	 -48.8712 	 19.0442 	 71.8728
| 38> H 	 -47.5797 	 18.0459 	 71.3998
| 39> H 	 -41.3604 	 17.3988 	 74.9158
| 40> H 	 -49.0581 	 14.799 	 77.3642
| 41> *
| 42>
| 43>                          ****END OF INPUT****

CARTESIAN COORDINATES (ANGSTROEM)
---------------------------------
  S    -43.742700   16.724600   74.618500
  C    -42.261400   17.090200   75.451100
  C    -42.316900   16.985700   76.780200
  C    -43.615100   16.604700   77.222800
  C    -44.450200   16.313400   76.179400
  H    -43.910300   16.410900   78.249200
  C    -41.131300   17.181500   77.684500
  H    -40.270100   17.352800   77.106500
  H    -40.813400   16.262900   78.141100
  C    -41.293400   18.439600   78.564100
  H    -41.106500   19.341900   77.910100
  H    -42.410900   18.479400   78.709900
  C    -40.536600   18.391700   79.863300
  H    -40.312900   19.404700   80.120100
  H    -41.070200   17.750700   80.604300
  H    -39.531300   18.083100   79.599100
  S    -46.486100   15.011900   77.538900
  C    -48.165100   15.224200   76.920400
  C    -48.241000   16.061600   75.867000
  C    -46.962800   16.501300   75.447600
  C    -45.886800   16.072100   76.291500
  H    -49.171000   16.205700   75.392200
  C    -46.882800   17.363800   74.180400
  H    -46.478300   16.755100   73.319400
  H    -46.187800   18.174300   74.306700
  C    -48.069200   18.004500   73.653700
  H    -48.384400   18.796300   74.347500
  H    -48.929900   17.316200   73.422600
  C    -47.888200   18.644000   72.237200
  H    -47.350700   19.539000   72.440200
  H    -48.871200   19.044200   71.872800
  H    -47.579700   18.045900   71.399800
  H    -41.360400   17.398800   74.915800
  H    -49.058100   14.799000   77.364200

 Total Charge           Charge          ....    0
 Multiplicity           Mult            ....    1
 Number of Electrons    NEL             ....  134
 Basis Dimension        Dim             ....  322

ORBITAL ENERGIES
----------------

  NO   OCC          E(Eh)            E(eV)
   0   2.0000     -88.967669     -2420.9333
   1   2.0000     -88.965895     -2420.8851
   2   2.0000     -10.330107      -281.0965
   3   2.0000     -10.328355      -281.0488
   4   2.0000     -10.314608      -280.6748
   5   2.0000     -10.306418      -280.4519
   6   2.0000     -10.305180      -280.4182
   7   2.0000     -10.292498      -280.0731
   8   2.0000     -10.291646      -280.0499
   9   2.0000     -10.289142      -279.9818
  10   2.0000     -10.286546      -279.9112
  11   2.0000     -10.286030      -279.8971
  12   2.0000     -10.285566      -279.8845
  13   2.0000     -10.281757      -279.7808
  14   2.0000     -10.278502      -279.6923
  15   2.0000     -10.277928      -279.6766
  16   2.0000      -8.081428      -219.9068
  17   2.0000      -8.080397      -219.8788
  18   2.0000      -6.040056      -164.3583
  19   2.0000      -6.038909      -164.3271
  20   2.0000      -6.036125      -164.2513
  21   2.0000      -6.035112      -164.2238
  22   2.0000      -6.032103      -164.1419
  23   2.0000      -6.031004      -164.1120
  24   2.0000      -1.007887       -27.4260
  25   2.0000      -0.983899       -26.7732
  26   2.0000      -0.916359       -24.9354
  27   2.0000      -0.914467       -24.8839
  28   2.0000      -0.873875       -23.7794
  29   2.0000      -0.854983       -23.2653
  30   2.0000      -0.841167       -22.8893
  31   2.0000      -0.820188       -22.3185
  32   2.0000      -0.786603       -21.4046
  33   2.0000      -0.770628       -20.9699
  34   2.0000      -0.707346       -19.2479
  35   2.0000      -0.695264       -18.9191
  36   2.0000      -0.687794       -18.7158
  37   2.0000      -0.659124       -17.9357
  38   2.0000      -0.635715       -17.2987
  39   2.0000      -0.624189       -16.9851
  40   2.0000      -0.601668       -16.3722
  41   2.0000      -0.579628       -15.7725
  42   2.0000      -0.569131       -15.4868
  43   2.0000      -0.563388       -15.3306
  44   2.0000      -0.523697       -14.2505
  45   2.0000      -0.520098       -14.1526
  46   2.0000      -0.516893       -14.0654
  47   2.0000      -0.511284       -13.9127
  48   2.0000      -0.507450       -13.8084
  49   2.0000      -0.503267       -13.6946
  50   2.0000      -0.492380       -13.3984
  51   2.0000      -0.479764       -13.0550
  52   2.0000      -0.466061       -12.6822
  53   2.0000      -0.462185       -12.5767
  54   2.0000      -0.461722       -12.5641
  55   2.0000      -0.454272       -12.3614
  56   2.0000      -0.450087       -12.2475
  57   2.0000      -0.437558       -11.9066
  58   2.0000      -0.428542       -11.6612
  59   2.0000      -0.425663       -11.5829
  60   2.0000      -0.419183       -11.4066
  61   2.0000      -0.404403       -11.0044
  62   2.0000      -0.399496       -10.8708
  63   2.0000      -0.359490        -9.7822
  64   2.0000      -0.334278        -9.0962
  65   2.0000      -0.329505        -8.9663
  66   2.0000      -0.282578        -7.6893
  67   0.0000       0.026619         0.7243
  68   0.0000       0.084508         2.2996
  69   0.0000       0.110019         2.9938
  70   0.0000       0.115383         3.1397
  71   0.0000       0.133097         3.6218

MULLIKEN ATOMIC CHARGES
-----------------------
   0 S :    0.094264
   1 C :   -0.122277
   2 C :   -0.084719
   3 C :   -0.005266
   4 C :   -0.115949
   5 H :    0.020433
   6 C :    0.117688
   7 H :   -0.013414
   8 H :    0.029044
   9 C :   -0.144109
  10 H :    0.035770
  11 H :    0.033190
  12 C :    0.016838
  13 H :    0.020417
  14 H :    0.059427
  15 H :    0.015186
  16 S :    0.095759
  17 C :   -0.079159
  18 C :   -0.017798
  19 C :   -0.046915
  20 C :   -0.128840
  21 H :    0.006937
  22 C :    0.064301
  23 H :    0.040372
  24 H :    0.025155
  25 C :   -0.123770
  26 H :    0.035360
  27 H :    0.034316
  28 C :   -0.044506
  29 H :    0.023749
  30 H :    0.023882
  31 H :    0.043188
  32 H :    0.042600
  33 H :    0.048848
Sum of atomic charges:   -0.0000000

LOEWDIN ATOMIC CHARGES
----------------------
   0 S :    0.413121
   1 C :   -0.194018
   2 C :   -0.067084
   3 C :   -0.061806
   4 C :   -0.180279
   5 H :    0.030627
   6 C :   -0.032887
   7 H :    0.021429
   8 H :    0.030247
   9 C :   -0.048148
  10 H :    0.030574
  11 H :    0.024476
  12 C :   -0.065468
  13 H :    0.026918
  14 H :    0.038246
  15 H :    0.024938
  16 S :    0.389972
  17 C :   -0.167388
  18 C :   -0.066391
  19 C :   -0.058423
  20 C :   -0.197193
  21 H :    0.029859
  22 C :   -0.054207
  23 H :    0.035743
  24 H :    0.024930
  25 C :   -0.048035
  26 H :    0.027380
  27 H :    0.023519
  28 C :   -0.063428
  29 H :    0.020208
  30 H :    0.031097
  31 H :    0.024581
  32 H :    0.027995
  33 H :    0.028896

  Mayer bond orders larger than 0.100000
B(  0-S ,  1-C ) :   1.1255 B(  0-S ,  4-C ) :   1.1410 B(  1-C ,  2-C ) :   1.6614
B(  1-C , 32-H ) :   0.9569 B(  2-C ,  3-C ) :   1.2203 B(  2-C ,  6-C ) :   1.0279
B(  3-C ,  4-C ) :   1.5845 B(  3-C ,  5-H ) :   0.9878 B(  4-C , 20-C ) :   1.0520
B(  6-C ,  7-H ) :   0.9205 B(  6-C ,  8-H ) :   0.9428 B(  6-C ,  9-C ) :   1.0300
B(  9-C , 10-H ) :   0.9536 B(  9-C , 11-H ) :   0.9719 B(  9-C , 12-C ) :   1.0690
B( 12-C , 13-H ) :   0.9676 B( 12-C , 14-H ) :   0.9752 B( 12-C , 15-H ) :   0.9671
B( 16-S , 17-C ) :   1.1351 B( 16-S , 20-C ) :   1.1430 B( 17-C , 18-C ) :   1.6296
B( 17-C , 33-H ) :   0.9574 B( 18-C , 19-C ) :   1.2566 B( 18-C , 21-H ) :   0.9921
B( 19-C , 20-C ) :   1.5635 B( 19-C , 22-C ) :   1.0191 B( 22-C , 23-H ) :   0.9260
B( 22-C , 24-H ) :   0.9271 B( 22-C , 25-C ) :   1.1031 B( 25-C , 26-H ) :   0.9512
B( 25-C , 27-H ) :   0.9408 B( 25-C , 28-C ) :   1.0814 B( 28-C , 29-H ) :   0.9751
B( 28-C , 30-H ) :   0.9725 B( 28-C , 31-H ) :   0.9753

Dispersion correction           -0.013378983
FINAL SINGLE POINT ENERGY     -1339.859451356470

DIPOLE MOMENT
-------------
                                X             Y             Z
Electronic contribution:     -4.83472     -15.34342       1.11631
Nuclear contribution   :      4.91334      15.68916      -1.17187
                        -----------------------------------------
Total Dipole Moment    :      0.07861       0.34574      -0.05557
                        -----------------------------------------
Magnitude (a.u.)       :      0.35889
Magnitude (Debye)      :      0.91223

Rotational constants in cm-1:     0.020691     0.007466     0.006109
Rotational constants in MHz :   620.300591   223.815991   183.148086

                             ****ORCA TERMINATED NORMALLY****
TOTAL RUN TIME: 0 days 0 hours 0 minutes 29 seconds 139 msec
