                         Program Version 4.2.1 -  RELEASE  -
|  1> ! wB97X-D3 SP def2-SVP
|  2> %pal
|  3> nprocs 16
|  4> end
|  5>
|  6> * xyz 0 1
|  7> S 	 -25.3475 	 46.0642 	 58.8475
|  8> C 	 -26.6907 	 46.6311 	 59.7519
|  9> C 	 -26.2303 	 47.335 	 60.8877
| 10> C 	 -24.7892 	 47.5084 	 60.8899
| 11> C 	 -24.1223 	 46.783 	 59.9136
| 12> H 	 -24.2697 	 48.1219 	 61.6118
| 13> C 	 -27.1774 	 47.7474 	 62.0169
| 14> H 	 -27.2127 	 46.9232 	 62.749
| 15> H 	 -28.2384 	 47.8533 	 61.7067
| 16> C 	 -26.8577 	 49.0291 	 62.8277
| 17> H 	 -27.683 	 49.1089 	 63.4462
| 18> H 	 -25.96 	 48.9759 	 63.4543
| 19> C 	 -26.6989 	 50.3075 	 61.9964
| 20> H 	 -25.6979 	 50.176 	 61.4991
| 21> H 	 -27.3103 	 50.2306 	 61.145
| 22> H 	 -26.7516 	 51.2705 	 62.4666
| 23> S 	 -21.6279 	 46.1097 	 60.9356
| 24> C 	 -20.2426 	 45.9865 	 59.9318
| 25> C 	 -20.5289 	 46.3114 	 58.6498
| 26> C 	 -21.8717 	 46.7357 	 58.4541
| 27> C 	 -22.6715 	 46.6832 	 59.6235
| 28> H 	 -19.7147 	 46.2394 	 57.9728
| 29> C 	 -22.3918 	 47.133 	 57.1115
| 30> H 	 -21.5142 	 47.5701 	 56.6968
| 31> H 	 -23.0559 	 47.9289 	 57.3595
| 32> C 	 -22.8974 	 45.9762 	 56.2194
| 33> H 	 -23.1246 	 46.407 	 55.2555
| 34> H 	 -23.8598 	 45.5661 	 56.464
| 35> C 	 -21.9258 	 44.8568 	 56.0477
| 36> H 	 -22.2467 	 44.1177 	 55.2937
| 37> H 	 -21.7289 	 44.1511 	 56.9001
| 38> H 	 -20.9922 	 45.2013 	 55.8125
| 39> H 	 -27.716 	 46.3583 	 59.5848
| 40> H 	 -19.2912 	 45.7268 	 60.3281
| 41> *
| 42>
| 43>                          ****END OF INPUT****

CARTESIAN COORDINATES (ANGSTROEM)
---------------------------------
  S    -25.347500   46.064200   58.847500
  C    -26.690700   46.631100   59.751900
  C    -26.230300   47.335000   60.887700
  C    -24.789200   47.508400   60.889900
  C    -24.122300   46.783000   59.913600
  H    -24.269700   48.121900   61.611800
  C    -27.177400   47.747400   62.016900
  H    -27.212700   46.923200   62.749000
  H    -28.238400   47.853300   61.706700
  C    -26.857700   49.029100   62.827700
  H    -27.683000   49.108900   63.446200
  H    -25.960000   48.975900   63.454300
  C    -26.698900   50.307500   61.996400
  H    -25.697900   50.176000   61.499100
  H    -27.310300   50.230600   61.145000
  H    -26.751600   51.270500   62.466600
  S    -21.627900   46.109700   60.935600
  C    -20.242600   45.986500   59.931800
  C    -20.528900   46.311400   58.649800
  C    -21.871700   46.735700   58.454100
  C    -22.671500   46.683200   59.623500
  H    -19.714700   46.239400   57.972800
  C    -22.391800   47.133000   57.111500
  H    -21.514200   47.570100   56.696800
  H    -23.055900   47.928900   57.359500
  C    -22.897400   45.976200   56.219400
  H    -23.124600   46.407000   55.255500
  H    -23.859800   45.566100   56.464000
  C    -21.925800   44.856800   56.047700
  H    -22.246700   44.117700   55.293700
  H    -21.728900   44.151100   56.900100
  H    -20.992200   45.201300   55.812500
  H    -27.716000   46.358300   59.584800
  H    -19.291200   45.726800   60.328100

 Total Charge           Charge          ....    0
 Multiplicity           Mult            ....    1
 Number of Electrons    NEL             ....  134
 Basis Dimension        Dim             ....  322

ORBITAL ENERGIES
----------------

  NO   OCC          E(Eh)            E(eV)
   0   2.0000     -88.966913     -2420.9128
   1   2.0000     -88.960940     -2420.7502
   2   2.0000     -10.338273      -281.3187
   3   2.0000     -10.331008      -281.1210
   4   2.0000     -10.315775      -280.7065
   5   2.0000     -10.311152      -280.5807
   6   2.0000     -10.308191      -280.5001
   7   2.0000     -10.303522      -280.3731
   8   2.0000     -10.300342      -280.2866
   9   2.0000     -10.299340      -280.2593
  10   2.0000     -10.287790      -279.9450
  11   2.0000     -10.282194      -279.7927
  12   2.0000     -10.281285      -279.7680
  13   2.0000     -10.280421      -279.7445
  14   2.0000     -10.270319      -279.4696
  15   2.0000     -10.268535      -279.4210
  16   2.0000      -8.081211      -219.9009
  17   2.0000      -8.076198      -219.7645
  18   2.0000      -6.039775      -164.3506
  19   2.0000      -6.035549      -164.2357
  20   2.0000      -6.034628      -164.2106
  21   2.0000      -6.032155      -164.1433
  22   2.0000      -6.030470      -164.0974
  23   2.0000      -6.027177      -164.0078
  24   2.0000      -1.004118       -27.3235
  25   2.0000      -0.985461       -26.8158
  26   2.0000      -0.913159       -24.8483
  27   2.0000      -0.908468       -24.7207
  28   2.0000      -0.870832       -23.6966
  29   2.0000      -0.850954       -23.1556
  30   2.0000      -0.842394       -22.9227
  31   2.0000      -0.819860       -22.3095
  32   2.0000      -0.785386       -21.3714
  33   2.0000      -0.772550       -21.0221
  34   2.0000      -0.714389       -19.4395
  35   2.0000      -0.700955       -19.0740
  36   2.0000      -0.690412       -18.7871
  37   2.0000      -0.664563       -18.0837
  38   2.0000      -0.638034       -17.3618
  39   2.0000      -0.622697       -16.9445
  40   2.0000      -0.589386       -16.0380
  41   2.0000      -0.573714       -15.6116
  42   2.0000      -0.562559       -15.3080
  43   2.0000      -0.554426       -15.0867
  44   2.0000      -0.544876       -14.8268
  45   2.0000      -0.536377       -14.5955
  46   2.0000      -0.522847       -14.2274
  47   2.0000      -0.513252       -13.9663
  48   2.0000      -0.504003       -13.7146
  49   2.0000      -0.493142       -13.4191
  50   2.0000      -0.487376       -13.2622
  51   2.0000      -0.483076       -13.1452
  52   2.0000      -0.478291       -13.0150
  53   2.0000      -0.463146       -12.6029
  54   2.0000      -0.459974       -12.5165
  55   2.0000      -0.446652       -12.1540
  56   2.0000      -0.443846       -12.0777
  57   2.0000      -0.437142       -11.8952
  58   2.0000      -0.431885       -11.7522
  59   2.0000      -0.424356       -11.5473
  60   2.0000      -0.419442       -11.4136
  61   2.0000      -0.410117       -11.1599
  62   2.0000      -0.399624       -10.8743
  63   2.0000      -0.350769        -9.5449
  64   2.0000      -0.330763        -9.0005
  65   2.0000      -0.323343        -8.7986
  66   2.0000      -0.293388        -7.9835
  67   0.0000       0.028160         0.7663
  68   0.0000       0.071213         1.9378
  69   0.0000       0.113087         3.0773
  70   0.0000       0.121289         3.3004
  71   0.0000       0.137193         3.7332

MULLIKEN ATOMIC CHARGES
-----------------------
   0 S :    0.109677
   1 C :   -0.103973
   2 C :   -0.104017
   3 C :    0.035840
   4 C :   -0.135601
   5 H :    0.017586
   6 C :    0.027934
   7 H :    0.049109
   8 H :    0.029394
   9 C :   -0.070171
  10 H :    0.012797
  11 H :    0.033153
  12 C :   -0.033186
  13 H :    0.020042
  14 H :    0.011308
  15 H :    0.045960
  16 S :    0.095395
  17 C :   -0.081535
  18 C :   -0.027114
  19 C :   -0.080763
  20 C :   -0.150540
  21 H :    0.005251
  22 C :    0.103245
  23 H :    0.009017
  24 H :    0.028123
  25 C :   -0.006237
  26 H :    0.020365
  27 H :    0.020858
  28 C :   -0.048607
  29 H :    0.029951
  30 H :    0.040800
  31 H :   -0.000985
  32 H :    0.050201
  33 H :    0.046723
Sum of atomic charges:   -0.0000000

LOEWDIN ATOMIC CHARGES
----------------------
   0 S :    0.426900
   1 C :   -0.206455
   2 C :   -0.065372
   3 C :   -0.063699
   4 C :   -0.189140
   5 H :    0.030458
   6 C :   -0.033753
   7 H :    0.039352
   8 H :    0.033522
   9 C :   -0.040121
  10 H :    0.014764
  11 H :    0.022776
  12 C :   -0.067381
  13 H :    0.032109
  14 H :    0.017441
  15 H :    0.025441
  16 S :    0.412466
  17 C :   -0.181900
  18 C :   -0.076661
  19 C :   -0.050879
  20 C :   -0.201730
  21 H :    0.028378
  22 C :   -0.030415
  23 H :    0.028883
  24 H :    0.031765
  25 C :   -0.035842
  26 H :    0.026550
  27 H :    0.014225
  28 C :   -0.066778
  29 H :    0.031934
  30 H :    0.033628
  31 H :    0.006566
  32 H :    0.028755
  33 H :    0.024211

  Mayer bond orders larger than 0.100000
B(  0-S ,  1-C ) :   1.1579 B(  0-S ,  4-C ) :   1.1486 B(  1-C ,  2-C ) :   1.5798
B(  1-C , 32-H ) :   0.9726 B(  2-C ,  3-C ) :   1.2554 B(  2-C ,  6-C ) :   1.0182
B(  3-C ,  4-C ) :   1.5604 B(  3-C ,  5-H ) :   0.9882 B(  4-C , 20-C ) :   1.0307
B(  6-C ,  7-H ) :   0.9371 B(  6-C ,  8-H ) :   0.9462 B(  6-C ,  9-C ) :   1.0821
B(  9-C , 10-H ) :   0.9534 B(  9-C , 11-H ) :   0.9554 B(  9-C , 12-C ) :   1.0756
B( 12-C , 13-H ) :   0.9682 B( 12-C , 14-H ) :   0.9728 B( 12-C , 15-H ) :   0.9776
B( 16-S , 17-C ) :   1.1787 B( 16-S , 20-C ) :   1.1439 B( 17-C , 18-C ) :   1.5869
B( 17-C , 33-H ) :   0.9694 B( 18-C , 19-C ) :   1.2461 B( 18-C , 21-H ) :   1.0024
B( 19-C , 20-C ) :   1.5567 B( 19-C , 22-C ) :   1.0303 B( 22-C , 23-H ) :   0.9288
B( 22-C , 24-H ) :   0.9327 B( 22-C , 25-C ) :   1.0663 B( 25-C , 26-H ) :   0.9496
B( 25-C , 27-H ) :   0.9491 B( 25-C , 28-C ) :   1.0881 B( 28-C , 29-H ) :   0.9678
B( 28-C , 30-H ) :   0.9658 B( 28-C , 31-H ) :   0.9737

Dispersion correction           -0.015131923
FINAL SINGLE POINT ENERGY     -1339.871789579488

DIPOLE MOMENT
-------------
                                X             Y             Z
Electronic contribution:      6.70197      -8.23289       3.81389
Nuclear contribution   :     -6.76867       8.31960      -3.86805
                        -----------------------------------------
Total Dipole Moment    :     -0.06670       0.08671      -0.05416
                        -----------------------------------------
Magnitude (a.u.)       :      0.12207
Magnitude (Debye)      :      0.31027

Rotational constants in cm-1:     0.023335     0.008068     0.006755
Rotational constants in MHz :   699.576104   241.868502   202.503318

                             ****ORCA TERMINATED NORMALLY****
TOTAL RUN TIME: 0 days 0 hours 0 minutes 35 seconds 389 msec
