                         Program Version 4.2.1 -  RELEASE  -
|  1> ! wB97X-D3 SP def2-SVP
|  2> %pal
|  3> nprocs 16
|  4> end
|  5>
|  6> * xyz 0 1
|  7> S 	 -25.7836 	 -7.33743 	 87.2363
|  8> C 	 -27.4297 	 -7.54156 	 86.6876
|  9> C 	 -28.2909 	 -6.6318 	 87.318
| 10> C 	 -27.5784 	 -5.65839 	 88.0827
| 11> C 	 -26.2505 	 -5.92377 	 88.1992
| 12> H 	 -28.0732 	 -4.83536 	 88.5525
| 13> C 	 -29.7971 	 -6.67227 	 87.1985
| 14> H 	 -30.1218 	 -6.30845 	 88.2154
| 15> H 	 -30.1385 	 -7.65871 	 87.196
| 16> C 	 -30.5736 	 -6.04864 	 86.0986
| 17> H 	 -30.2115 	 -6.32351 	 85.0633
| 18> H 	 -31.616 	 -6.28187 	 86.195
| 19> C 	 -30.7196 	 -4.533 	 86.1666
| 20> H 	 -29.7644 	 -4.10139 	 85.7993
| 21> H 	 -31.5347 	 -4.11454 	 85.5556
| 22> H 	 -30.8475 	 -4.21601 	 87.1895
| 23> S 	 -23.8755 	 -5.80852 	 89.6422
| 24> C 	 -23.2331 	 -4.29007 	 90.2299
| 25> C 	 -23.968 	 -3.24245 	 89.6986
| 26> C 	 -25.1066 	 -3.67297 	 88.9436
| 27> C 	 -25.221 	 -5.05778 	 88.812
| 28> H 	 -23.6705 	 -2.24731 	 89.8913
| 29> C 	 -25.8901 	 -2.61711 	 88.2937
| 30> H 	 -25.7534 	 -1.63675 	 88.7846
| 31> H 	 -26.8982 	 -2.83907 	 88.5531
| 32> C 	 -25.6552 	 -2.4639 	 86.7221
| 33> H 	 -26.1803 	 -3.25832 	 86.1693
| 34> H 	 -24.6405 	 -2.6109 	 86.3445
| 35> C 	 -26.1439 	 -1.14574 	 86.1411
| 36> H 	 -25.9239 	 -1.0048 	 85.1085
| 37> H 	 -25.7148 	 -0.276996 	 86.6212
| 38> H 	 -27.2198 	 -0.963092 	 86.3146
| 39> H 	 -27.8526 	 -8.22913 	 85.9702
| 40> H 	 -22.2943 	 -4.09876 	 90.6374
| 41> *
| 42>
| 43>                          ****END OF INPUT****

CARTESIAN COORDINATES (ANGSTROEM)
---------------------------------
  S    -25.783600   -7.337430   87.236300
  C    -27.429700   -7.541560   86.687600
  C    -28.290900   -6.631800   87.318000
  C    -27.578400   -5.658390   88.082700
  C    -26.250500   -5.923770   88.199200
  H    -28.073200   -4.835360   88.552500
  C    -29.797100   -6.672270   87.198500
  H    -30.121800   -6.308450   88.215400
  H    -30.138500   -7.658710   87.196000
  C    -30.573600   -6.048640   86.098600
  H    -30.211500   -6.323510   85.063300
  H    -31.616000   -6.281870   86.195000
  C    -30.719600   -4.533000   86.166600
  H    -29.764400   -4.101390   85.799300
  H    -31.534700   -4.114540   85.555600
  H    -30.847500   -4.216010   87.189500
  S    -23.875500   -5.808520   89.642200
  C    -23.233100   -4.290070   90.229900
  C    -23.968000   -3.242450   89.698600
  C    -25.106600   -3.672970   88.943600
  C    -25.221000   -5.057780   88.812000
  H    -23.670500   -2.247310   89.891300
  C    -25.890100   -2.617110   88.293700
  H    -25.753400   -1.636750   88.784600
  H    -26.898200   -2.839070   88.553100
  C    -25.655200   -2.463900   86.722100
  H    -26.180300   -3.258320   86.169300
  H    -24.640500   -2.610900   86.344500
  C    -26.143900   -1.145740   86.141100
  H    -25.923900   -1.004800   85.108500
  H    -25.714800   -0.276996   86.621200
  H    -27.219800   -0.963092   86.314600
  H    -27.852600   -8.229130   85.970200
  H    -22.294300   -4.098760   90.637400

 Total Charge           Charge          ....    0
 Multiplicity           Mult            ....    1
 Number of Electrons    NEL             ....  134
 Basis Dimension        Dim             ....  322

ORBITAL ENERGIES
----------------

  NO   OCC          E(Eh)            E(eV)
   0   2.0000     -88.971236     -2421.0304
   1   2.0000     -88.964568     -2420.8490
   2   2.0000     -10.333822      -281.1976
   3   2.0000     -10.330587      -281.1096
   4   2.0000     -10.316690      -280.7314
   5   2.0000     -10.312272      -280.6112
   6   2.0000     -10.302599      -280.3480
   7   2.0000     -10.300299      -280.2854
   8   2.0000     -10.293779      -280.1080
   9   2.0000     -10.291052      -280.0338
  10   2.0000     -10.290074      -280.0071
  11   2.0000     -10.289500      -279.9915
  12   2.0000     -10.288577      -279.9664
  13   2.0000     -10.286985      -279.9231
  14   2.0000     -10.276201      -279.6296
  15   2.0000     -10.272135      -279.5190
  16   2.0000      -8.085355      -220.0137
  17   2.0000      -8.079200      -219.8462
  18   2.0000      -6.043949      -164.4642
  19   2.0000      -6.039982      -164.3563
  20   2.0000      -6.037798      -164.2968
  21   2.0000      -6.036018      -164.2484
  22   2.0000      -6.033578      -164.1820
  23   2.0000      -6.030030      -164.0855
  24   2.0000      -1.006304       -27.3829
  25   2.0000      -0.984795       -26.7976
  26   2.0000      -0.919077       -25.0094
  27   2.0000      -0.904549       -24.6140
  28   2.0000      -0.870035       -23.6748
  29   2.0000      -0.855400       -23.2766
  30   2.0000      -0.849598       -23.1187
  31   2.0000      -0.820840       -22.3362
  32   2.0000      -0.784608       -21.3503
  33   2.0000      -0.770570       -20.9683
  34   2.0000      -0.710034       -19.3210
  35   2.0000      -0.700895       -19.0723
  36   2.0000      -0.696357       -18.9488
  37   2.0000      -0.667036       -18.1510
  38   2.0000      -0.638549       -17.3758
  39   2.0000      -0.624701       -16.9990
  40   2.0000      -0.594307       -16.1719
  41   2.0000      -0.577589       -15.7170
  42   2.0000      -0.555468       -15.1150
  43   2.0000      -0.553565       -15.0633
  44   2.0000      -0.545975       -14.8567
  45   2.0000      -0.529734       -14.4148
  46   2.0000      -0.519408       -14.1338
  47   2.0000      -0.514866       -14.0102
  48   2.0000      -0.508721       -13.8430
  49   2.0000      -0.501280       -13.6405
  50   2.0000      -0.494512       -13.4564
  51   2.0000      -0.478174       -13.0118
  52   2.0000      -0.476259       -12.9597
  53   2.0000      -0.464675       -12.6444
  54   2.0000      -0.453410       -12.3379
  55   2.0000      -0.449521       -12.2321
  56   2.0000      -0.446926       -12.1615
  57   2.0000      -0.440233       -11.9794
  58   2.0000      -0.438296       -11.9266
  59   2.0000      -0.423711       -11.5298
  60   2.0000      -0.415714       -11.3122
  61   2.0000      -0.407685       -11.0937
  62   2.0000      -0.404948       -11.0192
  63   2.0000      -0.354830        -9.6554
  64   2.0000      -0.335937        -9.1413
  65   2.0000      -0.326838        -8.8937
  66   2.0000      -0.287630        -7.8268
  67   0.0000       0.024637         0.6704
  68   0.0000       0.070176         1.9096
  69   0.0000       0.108008         2.9390
  70   0.0000       0.119352         3.2477
  71   0.0000       0.126752         3.4491

MULLIKEN ATOMIC CHARGES
-----------------------
   0 S :    0.116952
   1 C :   -0.102033
   2 C :   -0.105369
   3 C :    0.005735
   4 C :   -0.088753
   5 H :    0.005327
   6 C :    0.070108
   7 H :    0.023203
   8 H :    0.012232
   9 C :   -0.051073
  10 H :    0.036579
  11 H :    0.023172
  12 C :   -0.072486
  13 H :    0.031697
  14 H :    0.039968
  15 H :    0.017420
  16 S :    0.092480
  17 C :   -0.054039
  18 C :   -0.039031
  19 C :   -0.061286
  20 C :   -0.133231
  21 H :    0.005189
  22 C :    0.089945
  23 H :    0.014707
  24 H :    0.006764
  25 C :   -0.052247
  26 H :    0.035667
  27 H :    0.031114
  28 C :   -0.049903
  29 H :    0.029677
  30 H :    0.014887
  31 H :    0.024810
  32 H :    0.042927
  33 H :    0.038891
Sum of atomic charges:   -0.0000000

LOEWDIN ATOMIC CHARGES
----------------------
   0 S :    0.402521
   1 C :   -0.196573
   2 C :   -0.061939
   3 C :   -0.059728
   4 C :   -0.181371
   5 H :    0.029066
   6 C :   -0.037494
   7 H :    0.039053
   8 H :    0.028385
   9 C :   -0.044505
  10 H :    0.031030
  11 H :    0.025893
  12 C :   -0.069208
  13 H :    0.024214
  14 H :    0.027277
  15 H :    0.017506
  16 S :    0.405203
  17 C :   -0.179604
  18 C :   -0.060253
  19 C :   -0.061975
  20 C :   -0.197795
  21 H :    0.025079
  22 C :   -0.030716
  23 H :    0.032054
  24 H :    0.025507
  25 C :   -0.037460
  26 H :    0.029273
  27 H :    0.027699
  28 C :   -0.070553
  29 H :    0.023730
  30 H :    0.019519
  31 H :    0.025315
  32 H :    0.030373
  33 H :    0.020474

  Mayer bond orders larger than 0.100000
B(  0-S ,  1-C ) :   1.1376 B(  0-S ,  4-C ) :   1.1383 B(  1-C ,  2-C ) :   1.6146
B(  1-C , 32-H ) :   0.9671 B(  2-C ,  3-C ) :   1.2410 B(  2-C ,  6-C ) :   1.0135
B(  3-C ,  4-C ) :   1.5839 B(  3-C ,  5-H ) :   1.0009 B(  4-C , 20-C ) :   1.0296
B(  6-C ,  7-H ) :   0.9358 B(  6-C ,  8-H ) :   0.9321 B(  6-C ,  9-C ) :   1.0930
B(  9-C , 10-H ) :   0.9514 B(  9-C , 11-H ) :   0.9501 B(  9-C , 12-C ) :   1.0753
B( 12-C , 13-H ) :   0.9772 B( 12-C , 14-H ) :   0.9770 B( 12-C , 15-H ) :   0.9734
B( 16-S , 17-C ) :   1.1575 B( 16-S , 20-C ) :   1.1361 B( 17-C , 18-C ) :   1.5982
B( 17-C , 20-C ) :   0.1000 B( 17-C , 33-H ) :   0.9688 B( 18-C , 19-C ) :   1.2622
B( 18-C , 21-H ) :   0.9958 B( 19-C , 20-C ) :   1.5667 B( 19-C , 22-C ) :   1.0615
B( 22-C , 23-H ) :   0.9385 B( 22-C , 24-H ) :   0.9180 B( 22-C , 25-C ) :   1.0349
B( 25-C , 26-H ) :   0.9513 B( 25-C , 27-H ) :   0.9625 B( 25-C , 28-C ) :   1.0907
B( 28-C , 29-H ) :   0.9738 B( 28-C , 30-H ) :   0.9731 B( 28-C , 31-H ) :   0.9736

Dispersion correction           -0.014434078
FINAL SINGLE POINT ENERGY     -1339.869117412007

DIPOLE MOMENT
-------------
                                X             Y             Z
Electronic contribution:     21.54874     -19.28142      12.70906
Nuclear contribution   :    -22.04980      19.77038     -12.95401
                        -----------------------------------------
Total Dipole Moment    :     -0.50106       0.48896      -0.24496
                        -----------------------------------------
Magnitude (a.u.)       :      0.74172
Magnitude (Debye)      :      1.88529

Rotational constants in cm-1:     0.017742     0.009472     0.006899
Rotational constants in MHz :   531.884761   283.966580   206.819325

                             ****ORCA TERMINATED NORMALLY****
TOTAL RUN TIME: 0 days 0 hours 0 minutes 33 seconds 902 msec
