                         Program Version 4.2.1 -  RELEASE  -
|  1> ! wB97X-D3 SP def2-SVP
|  2> %pal
|  3> nprocs 16
|  4> end
|  5>
|  6> * xyz 0 1
|  7> S 	 -25.0502 	 57.5993 	 109.199
|  8> C 	 -24.2191 	 58.7068 	 108.116
|  9> C 	 -25.0772 	 59.6603 	 107.533
| 10> C 	 -26.3941 	 59.4911 	 108.063
| 11> C 	 -26.512 	 58.415 	 108.899
| 12> H 	 -27.262 	 60.187 	 107.867
| 13> C 	 -24.7658 	 60.8122 	 106.628
| 14> H 	 -23.6846 	 60.9665 	 106.433
| 15> H 	 -25.1209 	 61.7192 	 107.145
| 16> C 	 -25.3974 	 60.8379 	 105.198
| 17> H 	 -26.4521 	 60.6763 	 105.123
| 18> H 	 -25.2813 	 61.8421 	 104.878
| 19> C 	 -24.6321 	 59.7423 	 104.337
| 20> H 	 -25.0483 	 59.7675 	 103.388
| 21> H 	 -23.5894 	 59.9622 	 104.285
| 22> H 	 -24.803 	 58.6674 	 104.557
| 23> S 	 -28.1162 	 56.1458 	 108.964
| 24> C 	 -29.6037 	 56.152 	 109.898
| 25> C 	 -29.7403 	 57.3744 	 110.574
| 26> C 	 -28.7243 	 58.3319 	 110.261
| 27> C 	 -27.7171 	 57.8213 	 109.438
| 28> H 	 -30.5516 	 57.3818 	 111.318
| 29> C 	 -28.8488 	 59.7845 	 110.721
| 30> H 	 -27.925 	 60.2673 	 110.38
| 31> H 	 -28.9387 	 59.8988 	 111.815
| 32> C 	 -30.0867 	 60.5202 	 110.174
| 33> H 	 -30.2673 	 61.5235 	 110.617
| 34> H 	 -31.001 	 59.9111 	 110.337
| 35> C 	 -29.9746 	 60.7157 	 108.623
| 36> H 	 -28.9693 	 61.1072 	 108.383
| 37> H 	 -30.7476 	 61.2931 	 108.092
| 38> H 	 -30.0837 	 59.7209 	 108.119
| 39> H 	 -23.1673 	 58.7459 	 108.002
| 40> H 	 -30.222 	 55.2861 	 110.032
| 41> *
| 42>
| 43>                          ****END OF INPUT****

CARTESIAN COORDINATES (ANGSTROEM)
---------------------------------
  S    -25.050200   57.599300  109.199000
  C    -24.219100   58.706800  108.116000
  C    -25.077200   59.660300  107.533000
  C    -26.394100   59.491100  108.063000
  C    -26.512000   58.415000  108.899000
  H    -27.262000   60.187000  107.867000
  C    -24.765800   60.812200  106.628000
  H    -23.684600   60.966500  106.433000
  H    -25.120900   61.719200  107.145000
  C    -25.397400   60.837900  105.198000
  H    -26.452100   60.676300  105.123000
  H    -25.281300   61.842100  104.878000
  C    -24.632100   59.742300  104.337000
  H    -25.048300   59.767500  103.388000
  H    -23.589400   59.962200  104.285000
  H    -24.803000   58.667400  104.557000
  S    -28.116200   56.145800  108.964000
  C    -29.603700   56.152000  109.898000
  C    -29.740300   57.374400  110.574000
  C    -28.724300   58.331900  110.261000
  C    -27.717100   57.821300  109.438000
  H    -30.551600   57.381800  111.318000
  C    -28.848800   59.784500  110.721000
  H    -27.925000   60.267300  110.380000
  H    -28.938700   59.898800  111.815000
  C    -30.086700   60.520200  110.174000
  H    -30.267300   61.523500  110.617000
  H    -31.001000   59.911100  110.337000
  C    -29.974600   60.715700  108.623000
  H    -28.969300   61.107200  108.383000
  H    -30.747600   61.293100  108.092000
  H    -30.083700   59.720900  108.119000
  H    -23.167300   58.745900  108.002000
  H    -30.222000   55.286100  110.032000

 Total Charge           Charge          ....    0
 Multiplicity           Mult            ....    1
 Number of Electrons    NEL             ....  134
 Basis Dimension        Dim             ....  322

ORBITAL ENERGIES
----------------

  NO   OCC          E(Eh)            E(eV)
   0   2.0000     -88.968537     -2420.9570
   1   2.0000     -88.964395     -2420.8443
   2   2.0000     -10.329040      -281.0675
   3   2.0000     -10.322879      -280.8998
   4   2.0000     -10.318481      -280.7801
   5   2.0000     -10.313307      -280.6393
   6   2.0000     -10.306867      -280.4641
   7   2.0000     -10.304165      -280.3906
   8   2.0000     -10.297855      -280.2189
   9   2.0000     -10.296621      -280.1853
  10   2.0000     -10.295261      -280.1483
  11   2.0000     -10.294804      -280.1359
  12   2.0000     -10.293585      -280.1027
  13   2.0000     -10.289123      -279.9813
  14   2.0000     -10.281025      -279.7609
  15   2.0000     -10.272356      -279.5250
  16   2.0000      -8.083950      -219.9755
  17   2.0000      -8.078453      -219.8259
  18   2.0000      -6.042299      -164.4193
  19   2.0000      -6.038402      -164.3133
  20   2.0000      -6.036995      -164.2750
  21   2.0000      -6.034792      -164.2150
  22   2.0000      -6.032972      -164.1655
  23   2.0000      -6.029287      -164.0652
  24   2.0000      -1.008731       -27.4490
  25   2.0000      -0.979764       -26.6607
  26   2.0000      -0.909938       -24.7607
  27   2.0000      -0.903986       -24.5987
  28   2.0000      -0.865802       -23.5597
  29   2.0000      -0.848419       -23.0867
  30   2.0000      -0.839118       -22.8336
  31   2.0000      -0.809131       -22.0176
  32   2.0000      -0.782872       -21.3030
  33   2.0000      -0.772028       -21.0079
  34   2.0000      -0.713869       -19.4254
  35   2.0000      -0.699584       -19.0366
  36   2.0000      -0.694299       -18.8928
  37   2.0000      -0.652530       -17.7563
  38   2.0000      -0.641847       -17.4655
  39   2.0000      -0.622132       -16.9291
  40   2.0000      -0.593869       -16.1600
  41   2.0000      -0.565629       -15.3916
  42   2.0000      -0.551775       -15.0146
  43   2.0000      -0.548924       -14.9370
  44   2.0000      -0.540119       -14.6974
  45   2.0000      -0.537261       -14.6196
  46   2.0000      -0.521863       -14.2006
  47   2.0000      -0.508621       -13.8403
  48   2.0000      -0.499405       -13.5895
  49   2.0000      -0.491984       -13.3876
  50   2.0000      -0.487317       -13.2606
  51   2.0000      -0.473029       -12.8718
  52   2.0000      -0.466263       -12.6877
  53   2.0000      -0.462622       -12.5886
  54   2.0000      -0.457648       -12.4532
  55   2.0000      -0.451951       -12.2982
  56   2.0000      -0.438431       -11.9303
  57   2.0000      -0.436088       -11.8665
  58   2.0000      -0.434148       -11.8138
  59   2.0000      -0.428811       -11.6685
  60   2.0000      -0.420829       -11.4513
  61   2.0000      -0.416348       -11.3294
  62   2.0000      -0.414175       -11.2703
  63   2.0000      -0.341732        -9.2990
  64   2.0000      -0.331385        -9.0175
  65   2.0000      -0.327069        -8.9000
  66   2.0000      -0.293394        -7.9837
  67   0.0000       0.035864         0.9759
  68   0.0000       0.063215         1.7202
  69   0.0000       0.109854         2.9893
  70   0.0000       0.119618         3.2550
  71   0.0000       0.124115         3.3773

MULLIKEN ATOMIC CHARGES
-----------------------
   0 S :    0.129807
   1 C :   -0.109741
   2 C :   -0.054189
   3 C :    0.024907
   4 C :   -0.173578
   5 H :    0.010112
   6 C :    0.017806
   7 H :    0.024494
   8 H :    0.035587
   9 C :   -0.048771
  10 H :    0.026486
  11 H :    0.021859
  12 C :   -0.041960
  13 H :    0.010296
  14 H :    0.027161
  15 H :    0.048738
  16 S :    0.102168
  17 C :   -0.108324
  18 C :   -0.049025
  19 C :   -0.015527
  20 C :   -0.155476
  21 H :    0.033118
  22 C :    0.075251
  23 H :    0.025758
  24 H :    0.039148
  25 C :   -0.086278
  26 H :    0.041903
  27 H :    0.037400
  28 C :   -0.102038
  29 H :    0.038387
  30 H :    0.037573
  31 H :    0.048227
  32 H :    0.030393
  33 H :    0.058329
Sum of atomic charges:    0.0000000

LOEWDIN ATOMIC CHARGES
----------------------
   0 S :    0.433523
   1 C :   -0.192903
   2 C :   -0.057822
   3 C :   -0.064908
   4 C :   -0.214632
   5 H :    0.037924
   6 C :   -0.036794
   7 H :    0.031897
   8 H :    0.033778
   9 C :   -0.026877
  10 H :    0.019827
  11 H :    0.021535
  12 C :   -0.063665
  13 H :    0.015788
  14 H :    0.019925
  15 H :    0.037063
  16 S :    0.388963
  17 C :   -0.183639
  18 C :   -0.075103
  19 C :   -0.057297
  20 C :   -0.191509
  21 H :    0.036420
  22 C :   -0.030643
  23 H :    0.029175
  24 H :    0.035999
  25 C :   -0.041566
  26 H :    0.027190
  27 H :    0.025961
  28 C :   -0.078764
  29 H :    0.018203
  30 H :    0.026137
  31 H :    0.032634
  32 H :    0.017384
  33 H :    0.026797

  Mayer bond orders larger than 0.100000
B(  0-S ,  1-C ) :   1.1385 B(  0-S ,  4-C ) :   1.1720 B(  1-C ,  2-C ) :   1.5974
B(  1-C , 32-H ) :   0.9715 B(  2-C ,  3-C ) :   1.2443 B(  2-C ,  6-C ) :   1.0312
B(  3-C ,  4-C ) :   1.5742 B(  3-C ,  5-H ) :   0.9795 B(  4-C , 20-C ) :   1.0196
B(  6-C ,  7-H ) :   0.9462 B(  6-C ,  8-H ) :   0.9390 B(  6-C ,  9-C ) :   1.0709
B(  9-C , 10-H ) :   0.9602 B(  9-C , 11-H ) :   0.9568 B(  9-C , 12-C ) :   1.0636
B( 12-C , 13-H ) :   0.9727 B( 12-C , 14-H ) :   0.9787 B( 12-C , 15-H ) :   0.9764
B( 16-S , 17-C ) :   1.1533 B( 16-S , 20-C ) :   1.1397 B( 17-C , 18-C ) :   1.6128
B( 17-C , 20-C ) :   0.1048 B( 17-C , 33-H ) :   0.9698 B( 18-C , 19-C ) :   1.2174
B( 18-C , 21-H ) :   0.9870 B( 19-C , 20-C ) :   1.5965 B( 19-C , 22-C ) :   1.0469
B( 22-C , 23-H ) :   0.9379 B( 22-C , 24-H ) :   0.9349 B( 22-C , 25-C ) :   1.0616
B( 25-C , 26-H ) :   0.9596 B( 25-C , 27-H ) :   0.9564 B( 25-C , 28-C ) :   1.0614
B( 28-C , 29-H ) :   0.9672 B( 28-C , 30-H ) :   0.9719 B( 28-C , 31-H ) :   0.9764

Dispersion correction           -0.015235106
FINAL SINGLE POINT ENERGY     -1339.878898895188

DIPOLE MOMENT
-------------
                                X             Y             Z
Electronic contribution:      4.81036     -21.57428      12.63071
Nuclear contribution   :     -5.03228      22.11235     -12.75052
                        -----------------------------------------
Total Dipole Moment    :     -0.22193       0.53807      -0.11981
                        -----------------------------------------
Magnitude (a.u.)       :      0.59425
Magnitude (Debye)      :      1.51045

Rotational constants in cm-1:     0.019502     0.009004     0.007396
Rotational constants in MHz :   584.657154   269.942148   221.716874

                             ****ORCA TERMINATED NORMALLY****
TOTAL RUN TIME: 0 days 0 hours 0 minutes 29 seconds 744 msec
