                         Program Version 4.2.1 -  RELEASE  -
|  1> ! wB97X-D3 SP def2-SVP
|  2> %pal
|  3> nprocs 16
|  4> end
|  5>
|  6> * xyz 0 1
|  7> S 	 -0.833609 	 -28.0763 	 85.2742
|  8> C 	 -0.964158 	 -29.8009 	 85.0167
|  9> C 	 -0.331066 	 -30.4982 	 86.0102
| 10> C 	 0.244034 	 -29.6439 	 86.9468
| 11> C 	 0.119684 	 -28.3159 	 86.6936
| 12> H 	 0.660362 	 -29.9281 	 87.8722
| 13> C 	 -0.448923 	 -32.0138 	 86.1228
| 14> H 	 -1.35038 	 -32.3922 	 85.6567
| 15> H 	 -0.460147 	 -32.2592 	 87.186
| 16> C 	 0.694346 	 -32.7887 	 85.4538
| 17> H 	 0.308439 	 -33.7818 	 85.2124
| 18> H 	 0.860924 	 -32.3607 	 84.476
| 19> C 	 1.85834 	 -32.9437 	 86.4461
| 20> H 	 1.59305 	 -33.4992 	 87.3062
| 21> H 	 2.75838 	 -33.3861 	 85.9841
| 22> H 	 2.19655 	 -31.9689 	 86.7993
| 23> S 	 2.40987 	 -27.0107 	 87.5823
| 24> C 	 2.30107 	 -25.7518 	 88.7659
| 25> C 	 0.999534 	 -25.305 	 88.9845
| 26> C 	 0.0331711 	 -26.1756 	 88.2595
| 27> C 	 0.705439 	 -27.1487 	 87.4861
| 28> H 	 0.739003 	 -24.4688 	 89.591
| 29> C 	 -1.39723 	 -26.1056 	 88.4823
| 30> H 	 -1.58591 	 -26.4329 	 89.4867
| 31> H 	 -1.98457 	 -26.9108 	 88.0935
| 32> C 	 -2.13066 	 -24.7724 	 88.2099
| 33> H 	 -2.28595 	 -24.7707 	 87.1494
| 34> H 	 -1.50799 	 -23.9574 	 88.4839
| 35> C 	 -3.49548 	 -24.6961 	 88.9063
| 36> H 	 -3.58302 	 -24.7752 	 90.0052
| 37> H 	 -4.10596 	 -25.5256 	 88.4802
| 38> H 	 -4.04135 	 -23.8142 	 88.5584
| 39> H 	 -1.41852 	 -30.3002 	 84.1723
| 40> H 	 3.07454 	 -25.0583 	 89.1216
| 41> *
| 42>
| 43>                          ****END OF INPUT****

CARTESIAN COORDINATES (ANGSTROEM)
---------------------------------
  S     -0.833609  -28.076300   85.274200
  C     -0.964158  -29.800900   85.016700
  C     -0.331066  -30.498200   86.010200
  C      0.244034  -29.643900   86.946800
  C      0.119684  -28.315900   86.693600
  H      0.660362  -29.928100   87.872200
  C     -0.448923  -32.013800   86.122800
  H     -1.350380  -32.392200   85.656700
  H     -0.460147  -32.259200   87.186000
  C      0.694346  -32.788700   85.453800
  H      0.308439  -33.781800   85.212400
  H      0.860924  -32.360700   84.476000
  C      1.858340  -32.943700   86.446100
  H      1.593050  -33.499200   87.306200
  H      2.758380  -33.386100   85.984100
  H      2.196550  -31.968900   86.799300
  S      2.409870  -27.010700   87.582300
  C      2.301070  -25.751800   88.765900
  C      0.999534  -25.305000   88.984500
  C      0.033171  -26.175600   88.259500
  C      0.705439  -27.148700   87.486100
  H      0.739003  -24.468800   89.591000
  C     -1.397230  -26.105600   88.482300
  H     -1.585910  -26.432900   89.486700
  H     -1.984570  -26.910800   88.093500
  C     -2.130660  -24.772400   88.209900
  H     -2.285950  -24.770700   87.149400
  H     -1.507990  -23.957400   88.483900
  C     -3.495480  -24.696100   88.906300
  H     -3.583020  -24.775200   90.005200
  H     -4.105960  -25.525600   88.480200
  H     -4.041350  -23.814200   88.558400
  H     -1.418520  -30.300200   84.172300
  H      3.074540  -25.058300   89.121600

 Total Charge           Charge          ....    0
 Multiplicity           Mult            ....    1
 Number of Electrons    NEL             ....  134
 Basis Dimension        Dim             ....  322

ORBITAL ENERGIES
----------------

  NO   OCC          E(Eh)            E(eV)
   0   2.0000     -88.969146     -2420.9735
   1   2.0000     -88.965977     -2420.8873
   2   2.0000     -10.329273      -281.0738
   3   2.0000     -10.327930      -281.0373
   4   2.0000     -10.317599      -280.7561
   5   2.0000     -10.309744      -280.5424
   6   2.0000     -10.306585      -280.4564
   7   2.0000     -10.298224      -280.2289
   8   2.0000     -10.293995      -280.1138
   9   2.0000     -10.289168      -279.9825
  10   2.0000     -10.284218      -279.8478
  11   2.0000     -10.283542      -279.8294
  12   2.0000     -10.282882      -279.8114
  13   2.0000     -10.281862      -279.7837
  14   2.0000     -10.277860      -279.6748
  15   2.0000     -10.274963      -279.5960
  16   2.0000      -8.084317      -219.9854
  17   2.0000      -8.080871      -219.8917
  18   2.0000      -6.042845      -164.4342
  19   2.0000      -6.039222      -164.3356
  20   2.0000      -6.038688      -164.3211
  21   2.0000      -6.035313      -164.2292
  22   2.0000      -6.035112      -164.2237
  23   2.0000      -6.031835      -164.1346
  24   2.0000      -1.008925       -27.4543
  25   2.0000      -0.987966       -26.8839
  26   2.0000      -0.913254       -24.8509
  27   2.0000      -0.912286       -24.8246
  28   2.0000      -0.863552       -23.4984
  29   2.0000      -0.851380       -23.1672
  30   2.0000      -0.846653       -23.0386
  31   2.0000      -0.818853       -22.2821
  32   2.0000      -0.783058       -21.3081
  33   2.0000      -0.768714       -20.9178
  34   2.0000      -0.707733       -19.2584
  35   2.0000      -0.704075       -19.1589
  36   2.0000      -0.691670       -18.8213
  37   2.0000      -0.659516       -17.9464
  38   2.0000      -0.642642       -17.4872
  39   2.0000      -0.621559       -16.9135
  40   2.0000      -0.603131       -16.4120
  41   2.0000      -0.575929       -15.6718
  42   2.0000      -0.560366       -15.2483
  43   2.0000      -0.548011       -14.9121
  44   2.0000      -0.538263       -14.6469
  45   2.0000      -0.523866       -14.2551
  46   2.0000      -0.517626       -14.0853
  47   2.0000      -0.508874       -13.8472
  48   2.0000      -0.505214       -13.7476
  49   2.0000      -0.501376       -13.6431
  50   2.0000      -0.484647       -13.1879
  51   2.0000      -0.481210       -13.0944
  52   2.0000      -0.472008       -12.8440
  53   2.0000      -0.465577       -12.6690
  54   2.0000      -0.457858       -12.4589
  55   2.0000      -0.451427       -12.2839
  56   2.0000      -0.446812       -12.1584
  57   2.0000      -0.436785       -11.8855
  58   2.0000      -0.433512       -11.7965
  59   2.0000      -0.427370       -11.6293
  60   2.0000      -0.420735       -11.4488
  61   2.0000      -0.415091       -11.2952
  62   2.0000      -0.411852       -11.2071
  63   2.0000      -0.337912        -9.1951
  64   2.0000      -0.335125        -9.1192
  65   2.0000      -0.325257        -8.8507
  66   2.0000      -0.300102        -8.1662
  67   0.0000       0.042583         1.1587
  68   0.0000       0.065877         1.7926
  69   0.0000       0.107892         2.9359
  70   0.0000       0.122136         3.3235
  71   0.0000       0.133128         3.6226

MULLIKEN ATOMIC CHARGES
-----------------------
   0 S :    0.120644
   1 C :   -0.128137
   2 C :   -0.062888
   3 C :    0.047064
   4 C :   -0.173038
   5 H :   -0.009821
   6 C :    0.051900
   7 H :    0.019297
   8 H :    0.020476
   9 C :   -0.042484
  10 H :    0.019590
  11 H :    0.022093
  12 C :   -0.038504
  13 H :    0.025114
  14 H :    0.035775
  15 H :    0.024415
  16 S :    0.136137
  17 C :   -0.090551
  18 C :   -0.037338
  19 C :   -0.012299
  20 C :   -0.164306
  21 H :    0.019292
  22 C :    0.051454
  23 H :    0.014349
  24 H :   -0.000099
  25 C :   -0.036816
  26 H :    0.031554
  27 H :    0.021517
  28 C :   -0.077834
  29 H :    0.045389
  30 H :    0.026959
  31 H :    0.033955
  32 H :    0.042027
  33 H :    0.065116
Sum of atomic charges:    0.0000000

LOEWDIN ATOMIC CHARGES
----------------------
   0 S :    0.419832
   1 C :   -0.195265
   2 C :   -0.066934
   3 C :   -0.067087
   4 C :   -0.199615
   5 H :    0.024454
   6 C :   -0.024018
   7 H :    0.028827
   8 H :    0.029173
   9 C :   -0.037729
  10 H :    0.021565
  11 H :    0.022135
  12 C :   -0.063103
  13 H :    0.020477
  14 H :    0.028528
  15 H :    0.024103
  16 S :    0.436452
  17 C :   -0.203871
  18 C :   -0.061225
  19 C :   -0.049023
  20 C :   -0.217393
  21 H :    0.026758
  22 C :   -0.050905
  23 H :    0.034265
  24 H :    0.027266
  25 C :   -0.027225
  26 H :    0.027703
  27 H :    0.015333
  28 C :   -0.072457
  29 H :    0.027179
  30 H :    0.029152
  31 H :    0.027725
  32 H :    0.027697
  33 H :    0.037226

  Mayer bond orders larger than 0.100000
B(  0-S ,  1-C ) :   1.1496 B(  0-S ,  4-C ) :   1.1666 B(  1-C ,  2-C ) :   1.6029
B(  1-C , 32-H ) :   0.9669 B(  2-C ,  3-C ) :   1.2550 B(  2-C ,  6-C ) :   1.0192
B(  3-C ,  4-C ) :   1.5828 B(  3-C ,  5-H ) :   1.0033 B(  4-C , 20-C ) :   0.9708
B(  6-C ,  7-H ) :   0.9444 B(  6-C ,  8-H ) :   0.9443 B(  6-C ,  9-C ) :   1.0695
B(  9-C , 10-H ) :   0.9564 B(  9-C , 11-H ) :   0.9560 B(  9-C , 12-C ) :   1.0725
B( 12-C , 13-H ) :   0.9743 B( 12-C , 14-H ) :   0.9735 B( 12-C , 15-H ) :   0.9767
B( 16-S , 17-C ) :   1.1569 B( 16-S , 20-C ) :   1.1545 B( 17-C , 18-C ) :   1.6256
B( 17-C , 33-H ) :   0.9581 B( 18-C , 19-C ) :   1.2255 B( 18-C , 21-H ) :   0.9881
B( 19-C , 20-C ) :   1.5893 B( 19-C , 22-C ) :   1.0717 B( 22-C , 23-H ) :   0.9248
B( 22-C , 24-H ) :   0.9170 B( 22-C , 25-C ) :   1.0390 B( 25-C , 26-H ) :   0.9519
B( 25-C , 27-H ) :   0.9655 B( 25-C , 28-C ) :   1.0803 B( 28-C , 29-H ) :   0.9777
B( 28-C , 30-H ) :   0.9728 B( 28-C , 31-H ) :   0.9731

Dispersion correction           -0.014080390
FINAL SINGLE POINT ENERGY     -1339.876633626338

DIPOLE MOMENT
-------------
                                X             Y             Z
Electronic contribution:     10.49387       8.71248      -5.83898
Nuclear contribution   :    -10.79898      -8.88542       6.08789
                        -----------------------------------------
Total Dipole Moment    :     -0.30511      -0.17294       0.24891
                        -----------------------------------------
Magnitude (a.u.)       :      0.43007
Magnitude (Debye)      :      1.09314

Rotational constants in cm-1:     0.020775     0.007787     0.006326
Rotational constants in MHz :   622.815611   233.454264   189.637254

                             ****ORCA TERMINATED NORMALLY****
TOTAL RUN TIME: 0 days 0 hours 0 minutes 32 seconds 711 msec
