                         Program Version 4.2.1 -  RELEASE  -
|  1> ! wB97X-D3 SP def2-SVP
|  2> %pal
|  3> nprocs 16
|  4> end
|  5>
|  6> * xyz 0 1
|  7> S 	 40.3609 	 18.9517 	 83.62
|  8> C 	 38.8681 	 19.6857 	 84.1025
|  9> C 	 37.7469 	 18.9522 	 83.8624
| 10> C 	 38.0409 	 17.835 	 83.0985
| 11> C 	 39.3832 	 17.6924 	 82.8324
| 12> H 	 37.2799 	 17.3159 	 82.5541
| 13> C 	 36.3263 	 19.4556 	 84.28
| 14> H 	 36.4023 	 19.9068 	 85.2595
| 15> H 	 35.6319 	 18.6181 	 84.4871
| 16> C 	 35.7223 	 20.3976 	 83.2078
| 17> H 	 36.3564 	 21.2428 	 83.0611
| 18> H 	 35.5605 	 19.9244 	 82.222
| 19> C 	 34.3094 	 20.9421 	 83.6073
| 20> H 	 34.4415 	 21.5531 	 84.5204
| 21> H 	 33.8501 	 21.5308 	 82.8222
| 22> H 	 33.5661 	 20.1196 	 83.8002
| 23> S 	 41.2192 	 17.5071 	 80.7029
| 24> C 	 41.1447 	 16.0641 	 79.76
| 25> C 	 40.278 	 15.1299 	 80.2201
| 26> C 	 39.5805 	 15.6086 	 81.3612
| 27> C 	 39.9966 	 16.8614 	 81.784
| 28> H 	 40.2276 	 14.172 	 79.7881
| 29> C 	 38.5744 	 14.5437 	 82.0521
| 30> H 	 38.4874 	 13.6947 	 81.4483
| 31> H 	 37.5806 	 15.0369 	 81.9581
| 32> C 	 39.0027 	 14.066 	 83.4583
| 33> H 	 39.1749 	 14.8805 	 84.161
| 34> H 	 39.8958 	 13.5077 	 83.4329
| 35> C 	 37.8679 	 13.2624 	 84.0879
| 36> H 	 38.1222 	 13.2167 	 85.1135
| 37> H 	 37.9363 	 12.2287 	 83.8341
| 38> H 	 36.856 	 13.6191 	 83.8976
| 39> H 	 38.8831 	 20.48 	 84.8322
| 40> H 	 41.9512 	 15.7569 	 79.0353
| 41> *
| 42>
| 43>                          ****END OF INPUT****

CARTESIAN COORDINATES (ANGSTROEM)
---------------------------------
  S     40.360900   18.951700   83.620000
  C     38.868100   19.685700   84.102500
  C     37.746900   18.952200   83.862400
  C     38.040900   17.835000   83.098500
  C     39.383200   17.692400   82.832400
  H     37.279900   17.315900   82.554100
  C     36.326300   19.455600   84.280000
  H     36.402300   19.906800   85.259500
  H     35.631900   18.618100   84.487100
  C     35.722300   20.397600   83.207800
  H     36.356400   21.242800   83.061100
  H     35.560500   19.924400   82.222000
  C     34.309400   20.942100   83.607300
  H     34.441500   21.553100   84.520400
  H     33.850100   21.530800   82.822200
  H     33.566100   20.119600   83.800200
  S     41.219200   17.507100   80.702900
  C     41.144700   16.064100   79.760000
  C     40.278000   15.129900   80.220100
  C     39.580500   15.608600   81.361200
  C     39.996600   16.861400   81.784000
  H     40.227600   14.172000   79.788100
  C     38.574400   14.543700   82.052100
  H     38.487400   13.694700   81.448300
  H     37.580600   15.036900   81.958100
  C     39.002700   14.066000   83.458300
  H     39.174900   14.880500   84.161000
  H     39.895800   13.507700   83.432900
  C     37.867900   13.262400   84.087900
  H     38.122200   13.216700   85.113500
  H     37.936300   12.228700   83.834100
  H     36.856000   13.619100   83.897600
  H     38.883100   20.480000   84.832200
  H     41.951200   15.756900   79.035300

 Total Charge           Charge          ....    0
 Multiplicity           Mult            ....    1
 Number of Electrons    NEL             ....  134
 Basis Dimension        Dim             ....  322

ORBITAL ENERGIES
----------------

  NO   OCC          E(Eh)            E(eV)
   0   2.0000     -88.967603     -2420.9315
   1   2.0000     -88.965789     -2420.8822
   2   2.0000     -10.330477      -281.1066
   3   2.0000     -10.324651      -280.9480
   4   2.0000     -10.311783      -280.5979
   5   2.0000     -10.306928      -280.4658
   6   2.0000     -10.300918      -280.3022
   7   2.0000     -10.299983      -280.2768
   8   2.0000     -10.297006      -280.1958
   9   2.0000     -10.294998      -280.1411
  10   2.0000     -10.289431      -279.9897
  11   2.0000     -10.289212      -279.9837
  12   2.0000     -10.283944      -279.8403
  13   2.0000     -10.283485      -279.8279
  14   2.0000     -10.279240      -279.7123
  15   2.0000     -10.267474      -279.3922
  16   2.0000      -8.082394      -219.9331
  17   2.0000      -8.080814      -219.8901
  18   2.0000      -6.040708      -164.3760
  19   2.0000      -6.039323      -164.3383
  20   2.0000      -6.037092      -164.2776
  21   2.0000      -6.035362      -164.2306
  22   2.0000      -6.033190      -164.1714
  23   2.0000      -6.031475      -164.1248
  24   2.0000      -1.008739       -27.4492
  25   2.0000      -0.988081       -26.8870
  26   2.0000      -0.904569       -24.6146
  27   2.0000      -0.902952       -24.5706
  28   2.0000      -0.866131       -23.5686
  29   2.0000      -0.855134       -23.2694
  30   2.0000      -0.847373       -23.0582
  31   2.0000      -0.812018       -22.0961
  32   2.0000      -0.782275       -21.2868
  33   2.0000      -0.768725       -20.9181
  34   2.0000      -0.705743       -19.2042
  35   2.0000      -0.698765       -19.0144
  36   2.0000      -0.690564       -18.7912
  37   2.0000      -0.661724       -18.0064
  38   2.0000      -0.636509       -17.3203
  39   2.0000      -0.625847       -17.0302
  40   2.0000      -0.590326       -16.0636
  41   2.0000      -0.567670       -15.4471
  42   2.0000      -0.564119       -15.3505
  43   2.0000      -0.556307       -15.1379
  44   2.0000      -0.530884       -14.4461
  45   2.0000      -0.522477       -14.2173
  46   2.0000      -0.515926       -14.0391
  47   2.0000      -0.501845       -13.6559
  48   2.0000      -0.497743       -13.5443
  49   2.0000      -0.494269       -13.4497
  50   2.0000      -0.492569       -13.4035
  51   2.0000      -0.480184       -13.0665
  52   2.0000      -0.471884       -12.8406
  53   2.0000      -0.462077       -12.5737
  54   2.0000      -0.456973       -12.4349
  55   2.0000      -0.454405       -12.3650
  56   2.0000      -0.445872       -12.1328
  57   2.0000      -0.441226       -12.0064
  58   2.0000      -0.437487       -11.9046
  59   2.0000      -0.427114       -11.6224
  60   2.0000      -0.419949       -11.4274
  61   2.0000      -0.416807       -11.3419
  62   2.0000      -0.400836       -10.9073
  63   2.0000      -0.355566        -9.6754
  64   2.0000      -0.337562        -9.1855
  65   2.0000      -0.332854        -9.0574
  66   2.0000      -0.284211        -7.7338
  67   0.0000       0.024510         0.6670
  68   0.0000       0.079537         2.1643
  69   0.0000       0.103636         2.8201
  70   0.0000       0.127239         3.4624
  71   0.0000       0.139735         3.8024

MULLIKEN ATOMIC CHARGES
-----------------------
   0 S :    0.101153
   1 C :   -0.115900
   2 C :   -0.089566
   3 C :    0.030250
   4 C :   -0.141121
   5 H :    0.007082
   6 C :    0.062534
   7 H :    0.021716
   8 H :    0.023533
   9 C :   -0.062515
  10 H :    0.027738
  11 H :    0.035868
  12 C :   -0.074258
  13 H :    0.035592
  14 H :    0.037907
  15 H :    0.034729
  16 S :    0.112164
  17 C :   -0.104539
  18 C :   -0.019701
  19 C :   -0.062065
  20 C :   -0.131330
  21 H :    0.002976
  22 C :    0.075613
  23 H :   -0.000530
  24 H :    0.029364
  25 C :   -0.050626
  26 H :    0.036908
  27 H :    0.021474
  28 C :   -0.024491
  29 H :    0.016841
  30 H :    0.015769
  31 H :    0.036487
  32 H :    0.039600
  33 H :    0.071342
Sum of atomic charges:    0.0000000

LOEWDIN ATOMIC CHARGES
----------------------
   0 S :    0.395544
   1 C :   -0.195821
   2 C :   -0.063782
   3 C :   -0.057750
   4 C :   -0.171374
   5 H :    0.030588
   6 C :   -0.026513
   7 H :    0.028437
   8 H :    0.030760
   9 C :   -0.036781
  10 H :    0.021016
  11 H :    0.027887
  12 C :   -0.072287
  13 H :    0.025019
  14 H :    0.024449
  15 H :    0.027039
  16 S :    0.410532
  17 C :   -0.201690
  18 C :   -0.071908
  19 C :   -0.054925
  20 C :   -0.206043
  21 H :    0.026084
  22 C :   -0.019356
  23 H :    0.018035
  24 H :    0.029949
  25 C :   -0.032023
  26 H :    0.026033
  27 H :    0.021586
  28 C :   -0.061736
  29 H :    0.023814
  30 H :    0.019751
  31 H :    0.025970
  32 H :    0.019646
  33 H :    0.039851

  Mayer bond orders larger than 0.100000
B(  0-S ,  1-C ) :   1.1410 B(  0-S ,  4-C ) :   1.1473 B(  1-C ,  2-C ) :   1.6256
B(  1-C , 32-H ) :   0.9591 B(  2-C ,  3-C ) :   1.2801 B(  2-C ,  6-C ) :   1.0158
B(  3-C ,  4-C ) :   1.5676 B(  3-C ,  5-H ) :   0.9872 B(  4-C , 20-C ) :   1.0456
B(  6-C ,  7-H ) :   0.9425 B(  6-C ,  8-H ) :   0.9450 B(  6-C ,  9-C ) :   1.0548
B(  9-C , 10-H ) :   0.9581 B(  9-C , 11-H ) :   0.9595 B(  9-C , 12-C ) :   1.0773
B( 12-C , 13-H ) :   0.9772 B( 12-C , 14-H ) :   0.9761 B( 12-C , 15-H ) :   0.9757
B( 16-S , 17-C ) :   1.1574 B( 16-S , 20-C ) :   1.1292 B( 17-C , 18-C ) :   1.6195
B( 17-C , 33-H ) :   0.9505 B( 18-C , 19-C ) :   1.2537 B( 18-C , 21-H ) :   0.9977
B( 19-C , 20-C ) :   1.6140 B( 19-C , 22-C ) :   1.0126 B( 22-C , 23-H ) :   0.9417
B( 22-C , 24-H ) :   0.9401 B( 22-C , 25-C ) :   1.0622 B( 25-C , 26-H ) :   0.9638
B( 25-C , 27-H ) :   0.9535 B( 25-C , 28-C ) :   1.0809 B( 28-C , 29-H ) :   0.9718
B( 28-C , 30-H ) :   0.9730 B( 28-C , 31-H ) :   0.9772

Dispersion correction           -0.013860935
FINAL SINGLE POINT ENERGY     -1339.870532117036

DIPOLE MOMENT
-------------
                                X             Y             Z
Electronic contribution:     25.85748       6.36263      -8.95150
Nuclear contribution   :    -26.36051      -6.68376       9.06031
                        -----------------------------------------
Total Dipole Moment    :     -0.50304      -0.32113       0.10881
                        -----------------------------------------
Magnitude (a.u.)       :      0.60664
Magnitude (Debye)      :      1.54195

Rotational constants in cm-1:     0.017168     0.008336     0.006776
Rotational constants in MHz :   514.697421   249.909771   203.124388

                             ****ORCA TERMINATED NORMALLY****
TOTAL RUN TIME: 0 days 0 hours 0 minutes 29 seconds 920 msec
