                         Program Version 4.2.1 -  RELEASE  -
|  1> ! wB97X-D3 SP def2-SVP
|  2> %pal
|  3> nprocs 16
|  4> end
|  5>
|  6> * xyz 0 1
|  7> S 	 11.3459 	 -10.0442 	 96.7327
|  8> C 	 12.5374 	 -8.96439 	 97.5189
|  9> C 	 12.6755 	 -7.79863 	 96.8349
| 10> C 	 11.7649 	 -7.7699 	 95.7268
| 11> C 	 10.8501 	 -8.84962 	 95.6463
| 12> H 	 11.6579 	 -6.98602 	 95.0268
| 13> C 	 13.7013 	 -6.762 	 97.2191
| 14> H 	 14.1546 	 -6.35043 	 96.2813
| 15> H 	 14.5085 	 -7.23925 	 97.8299
| 16> C 	 13.2171 	 -5.55086 	 97.986
| 17> H 	 13.9245 	 -4.71607 	 97.7775
| 18> H 	 12.3212 	 -5.19585 	 97.451
| 19> C 	 12.7942 	 -5.87311 	 99.42
| 20> H 	 13.6359 	 -6.39401 	 99.9629
| 21> H 	 12.346 	 -5.07711 	 100.016
| 22> H 	 12.0122 	 -6.55295 	 99.2766
| 23> S 	 9.97032 	 -10.125 	 93.46
| 24> C 	 8.40803 	 -9.67865 	 92.7266
| 25> C 	 7.80192 	 -8.60254 	 93.3795
| 26> C 	 8.56881 	 -8.16388 	 94.492
| 27> C 	 9.75395 	 -8.936 	 94.6975
| 28> H 	 6.85911 	 -8.12138 	 92.9889
| 29> C 	 7.95994 	 -7.05756 	 95.3786
| 30> H 	 7.92156 	 -6.11552 	 94.8763
| 31> H 	 8.70217 	 -6.90827 	 96.1201
| 32> C 	 6.54538 	 -7.46422 	 96.0658
| 33> H 	 5.85057 	 -7.66787 	 95.1574
| 34> H 	 6.12189 	 -6.63755 	 96.6662
| 35> C 	 6.50904 	 -8.69996 	 96.9016
| 36> H 	 6.9528 	 -9.50836 	 96.2987
| 37> H 	 5.47108 	 -9.06241 	 97.1983
| 38> H 	 7.10044 	 -8.4814 	 97.7699
| 39> H 	 13.1621 	 -9.20835 	 98.3474
| 40> H 	 7.98389 	 -10.0352 	 91.807
| 41> *
| 42>
| 43>                          ****END OF INPUT****

CARTESIAN COORDINATES (ANGSTROEM)
---------------------------------
  S     11.345900  -10.044200   96.732700
  C     12.537400   -8.964390   97.518900
  C     12.675500   -7.798630   96.834900
  C     11.764900   -7.769900   95.726800
  C     10.850100   -8.849620   95.646300
  H     11.657900   -6.986020   95.026800
  C     13.701300   -6.762000   97.219100
  H     14.154600   -6.350430   96.281300
  H     14.508500   -7.239250   97.829900
  C     13.217100   -5.550860   97.986000
  H     13.924500   -4.716070   97.777500
  H     12.321200   -5.195850   97.451000
  C     12.794200   -5.873110   99.420000
  H     13.635900   -6.394010   99.962900
  H     12.346000   -5.077110  100.016000
  H     12.012200   -6.552950   99.276600
  S      9.970320  -10.125000   93.460000
  C      8.408030   -9.678650   92.726600
  C      7.801920   -8.602540   93.379500
  C      8.568810   -8.163880   94.492000
  C      9.753950   -8.936000   94.697500
  H      6.859110   -8.121380   92.988900
  C      7.959940   -7.057560   95.378600
  H      7.921560   -6.115520   94.876300
  H      8.702170   -6.908270   96.120100
  C      6.545380   -7.464220   96.065800
  H      5.850570   -7.667870   95.157400
  H      6.121890   -6.637550   96.666200
  C      6.509040   -8.699960   96.901600
  H      6.952800   -9.508360   96.298700
  H      5.471080   -9.062410   97.198300
  H      7.100440   -8.481400   97.769900
  H     13.162100   -9.208350   98.347400
  H      7.983890  -10.035200   91.807000

 Total Charge           Charge          ....    0
 Multiplicity           Mult            ....    1
 Number of Electrons    NEL             ....  134
 Basis Dimension        Dim             ....  322

ORBITAL ENERGIES
----------------

  NO   OCC          E(Eh)            E(eV)
   0   2.0000     -88.971737     -2421.0440
   1   2.0000     -88.967716     -2420.9346
   2   2.0000     -10.333433      -281.1870
   3   2.0000     -10.329591      -281.0824
   4   2.0000     -10.321011      -280.8490
   5   2.0000     -10.312888      -280.6279
   6   2.0000     -10.311196      -280.5819
   7   2.0000     -10.301156      -280.3087
   8   2.0000     -10.300127      -280.2807
   9   2.0000     -10.298537      -280.2374
  10   2.0000     -10.296430      -280.1801
  11   2.0000     -10.294329      -280.1229
  12   2.0000     -10.292983      -280.0863
  13   2.0000     -10.288455      -279.9631
  14   2.0000     -10.277929      -279.6767
  15   2.0000     -10.273857      -279.5659
  16   2.0000      -8.086055      -220.0328
  17   2.0000      -8.082846      -219.9454
  18   2.0000      -6.044563      -164.4809
  19   2.0000      -6.041295      -164.3920
  20   2.0000      -6.040514      -164.3707
  21   2.0000      -6.037248      -164.2819
  22   2.0000      -6.036938      -164.2734
  23   2.0000      -6.033671      -164.1845
  24   2.0000      -1.008903       -27.4536
  25   2.0000      -0.983779       -26.7700
  26   2.0000      -0.919239       -25.0138
  27   2.0000      -0.899783       -24.4843
  28   2.0000      -0.872191       -23.7335
  29   2.0000      -0.848199       -23.0807
  30   2.0000      -0.844739       -22.9865
  31   2.0000      -0.811960       -22.0946
  32   2.0000      -0.787262       -21.4225
  33   2.0000      -0.772918       -21.0322
  34   2.0000      -0.709867       -19.3165
  35   2.0000      -0.693722       -18.8771
  36   2.0000      -0.686141       -18.6708
  37   2.0000      -0.656126       -17.8541
  38   2.0000      -0.642523       -17.4839
  39   2.0000      -0.617859       -16.8128
  40   2.0000      -0.591921       -16.1070
  41   2.0000      -0.573312       -15.6006
  42   2.0000      -0.553882       -15.0719
  43   2.0000      -0.547014       -14.8850
  44   2.0000      -0.543452       -14.7881
  45   2.0000      -0.540288       -14.7020
  46   2.0000      -0.516086       -14.0434
  47   2.0000      -0.515626       -14.0309
  48   2.0000      -0.505322       -13.7505
  49   2.0000      -0.491776       -13.3819
  50   2.0000      -0.488023       -13.2798
  51   2.0000      -0.478771       -13.0280
  52   2.0000      -0.468925       -12.7601
  53   2.0000      -0.466458       -12.6930
  54   2.0000      -0.452564       -12.3149
  55   2.0000      -0.449020       -12.2184
  56   2.0000      -0.444422       -12.0933
  57   2.0000      -0.442149       -12.0315
  58   2.0000      -0.437817       -11.9136
  59   2.0000      -0.422177       -11.4880
  60   2.0000      -0.417346       -11.3566
  61   2.0000      -0.412870       -11.2348
  62   2.0000      -0.404268       -11.0007
  63   2.0000      -0.342487        -9.3195
  64   2.0000      -0.336221        -9.1490
  65   2.0000      -0.324602        -8.8329
  66   2.0000      -0.299318        -8.1449
  67   0.0000       0.031955         0.8695
  68   0.0000       0.058903         1.6028
  69   0.0000       0.105719         2.8767
  70   0.0000       0.117556         3.1989
  71   0.0000       0.125143         3.4053

MULLIKEN ATOMIC CHARGES
-----------------------
   0 S :    0.121123
   1 C :   -0.116932
   2 C :   -0.067187
   3 C :    0.055083
   4 C :   -0.173837
   5 H :   -0.009353
   6 C :    0.034799
   7 H :    0.036427
   8 H :    0.028229
   9 C :   -0.067976
  10 H :    0.032613
  11 H :    0.016945
  12 C :   -0.032811
  13 H :    0.032829
  14 H :    0.041658
  15 H :    0.021897
  16 S :    0.121533
  17 C :   -0.080738
  18 C :   -0.070345
  19 C :   -0.051818
  20 C :   -0.178493
  21 H :    0.050701
  22 C :    0.116118
  23 H :    0.032198
  24 H :    0.005602
  25 C :   -0.126017
  26 H :    0.030930
  27 H :    0.040368
  28 C :   -0.047541
  29 H :    0.044159
  30 H :    0.045856
  31 H :    0.031134
  32 H :    0.034051
  33 H :    0.048799
Sum of atomic charges:    0.0000000

LOEWDIN ATOMIC CHARGES
----------------------
   0 S :    0.419698
   1 C :   -0.180178
   2 C :   -0.067041
   3 C :   -0.056818
   4 C :   -0.226271
   5 H :    0.019690
   6 C :   -0.033096
   7 H :    0.040051
   8 H :    0.031789
   9 C :   -0.048385
  10 H :    0.024950
  11 H :    0.024127
  12 C :   -0.066247
  13 H :    0.028551
  14 H :    0.029315
  15 H :    0.021611
  16 S :    0.417581
  17 C :   -0.178600
  18 C :   -0.075740
  19 C :   -0.054464
  20 C :   -0.210063
  21 H :    0.044974
  22 C :   -0.026340
  23 H :    0.030691
  24 H :    0.020854
  25 C :   -0.045164
  26 H :    0.024780
  27 H :    0.024963
  28 C :   -0.071438
  29 H :    0.029752
  30 H :    0.035349
  31 H :    0.022141
  32 H :    0.023208
  33 H :    0.025771

  Mayer bond orders larger than 0.100000
B(  0-S ,  1-C ) :   1.1349 B(  0-S ,  4-C ) :   1.1711 B(  1-C ,  2-C ) :   1.6019
B(  1-C , 32-H ) :   0.9716 B(  2-C ,  3-C ) :   1.2446 B(  2-C ,  6-C ) :   1.0280
B(  3-C ,  4-C ) :   1.5434 B(  3-C ,  5-H ) :   1.0034 B(  4-C , 20-C ) :   1.0272
B(  6-C ,  7-H ) :   0.9347 B(  6-C ,  8-H ) :   0.9438 B(  6-C ,  9-C ) :   1.0739
B(  9-C , 10-H ) :   0.9570 B(  9-C , 11-H ) :   0.9528 B(  9-C , 12-C ) :   1.0580
B( 12-C , 13-H ) :   0.9763 B( 12-C , 14-H ) :   0.9737 B( 12-C , 15-H ) :   0.9721
B( 16-S , 17-C ) :   1.1523 B( 16-S , 20-C ) :   1.1676 B( 17-C , 18-C ) :   1.6095
B( 17-C , 20-C ) :   0.1095 B( 17-C , 33-H ) :   0.9668 B( 18-C , 19-C ) :   1.2530
B( 18-C , 21-H ) :   0.9755 B( 19-C , 20-C ) :   1.5672 B( 19-C , 22-C ) :   1.0384
B( 22-C , 23-H ) :   0.9388 B( 22-C , 24-H ) :   0.9324 B( 22-C , 25-C ) :   1.0448
B( 25-C , 26-H ) :   0.9569 B( 25-C , 27-H ) :   0.9595 B( 25-C , 28-C ) :   1.0772
B( 28-C , 29-H ) :   0.9711 B( 28-C , 30-H ) :   0.9710 B( 28-C , 31-H ) :   0.9747

Dispersion correction           -0.014726907
FINAL SINGLE POINT ENERGY     -1339.867120950167

DIPOLE MOMENT
-------------
                                X             Y             Z
Electronic contribution:      4.68924     -19.00272     -15.12159
Nuclear contribution   :     -4.76881      19.58899      15.13846
                        -----------------------------------------
Total Dipole Moment    :     -0.07957       0.58627       0.01687
                        -----------------------------------------
Magnitude (a.u.)       :      0.59189
Magnitude (Debye)      :      1.50446

Rotational constants in cm-1:     0.020074     0.008364     0.007084
Rotational constants in MHz :   601.811037   250.752608   212.381349

                             ****ORCA TERMINATED NORMALLY****
TOTAL RUN TIME: 0 days 0 hours 0 minutes 33 seconds 758 msec
