                         Program Version 4.2.1 -  RELEASE  -
|  1> ! wB97X-D3 SP def2-SVP
|  2> %pal
|  3> nprocs 16
|  4> end
|  5>
|  6> * xyz 0 1
|  7> S 	 -95.4037 	 43.8293 	 115.931
|  8> C 	 -95.3195 	 45.2295 	 116.899
|  9> C 	 -95.3002 	 44.8055 	 118.23
| 10> C 	 -95.1552 	 43.4073 	 118.476
| 11> C 	 -95.1627 	 42.6923 	 117.255
| 12> H 	 -95.1046 	 42.917 	 119.423
| 13> C 	 -95.3473 	 45.7513 	 119.404
| 14> H 	 -95.636 	 45.1427 	 120.207
| 15> H 	 -96.0638 	 46.4954 	 119.193
| 16> C 	 -94.0163 	 46.3682 	 119.865
| 17> H 	 -93.1818 	 45.7038 	 119.86
| 18> H 	 -93.7615 	 47.0999 	 119.146
| 19> C 	 -94.0823 	 47.0644 	 121.217
| 20> H 	 -94.917 	 47.6921 	 121.169
| 21> H 	 -94.3038 	 46.3264 	 121.997
| 22> H 	 -93.2192 	 47.5858 	 121.537
| 23> S 	 -96.1254 	 40.2801 	 118.222
| 24> C 	 -95.4157 	 38.8306 	 117.645
| 25> C 	 -94.288 	 39.0029 	 116.912
| 26> C 	 -94.2147 	 40.3889 	 116.428
| 27> C 	 -95.0886 	 41.2297 	 117.125
| 28> H 	 -93.6257 	 38.2234 	 116.544
| 29> C 	 -93.1177 	 40.7779 	 115.474
| 30> H 	 -93.5638 	 41.4858 	 114.761
| 31> H 	 -92.7522 	 39.8684 	 115.014
| 32> C 	 -91.8749 	 41.5838 	 116.13
| 33> H 	 -92.2732 	 42.5891 	 116.52
| 34> H 	 -91.1182 	 41.9033 	 115.453
| 35> C 	 -91.0974 	 40.822 	 117.168
| 36> H 	 -90.8899 	 39.8906 	 116.829
| 37> H 	 -91.7586 	 40.7634 	 118.057
| 38> H 	 -90.1536 	 41.283 	 117.424
| 39> H 	 -95.3984 	 46.3143 	 116.577
| 40> H 	 -95.837 	 37.8096 	 117.811
| 41> *
| 42>
| 43>                          ****END OF INPUT****

CARTESIAN COORDINATES (ANGSTROEM)
---------------------------------
  S    -95.403700   43.829300  115.931000
  C    -95.319500   45.229500  116.899000
  C    -95.300200   44.805500  118.230000
  C    -95.155200   43.407300  118.476000
  C    -95.162700   42.692300  117.255000
  H    -95.104600   42.917000  119.423000
  C    -95.347300   45.751300  119.404000
  H    -95.636000   45.142700  120.207000
  H    -96.063800   46.495400  119.193000
  C    -94.016300   46.368200  119.865000
  H    -93.181800   45.703800  119.860000
  H    -93.761500   47.099900  119.146000
  C    -94.082300   47.064400  121.217000
  H    -94.917000   47.692100  121.169000
  H    -94.303800   46.326400  121.997000
  H    -93.219200   47.585800  121.537000
  S    -96.125400   40.280100  118.222000
  C    -95.415700   38.830600  117.645000
  C    -94.288000   39.002900  116.912000
  C    -94.214700   40.388900  116.428000
  C    -95.088600   41.229700  117.125000
  H    -93.625700   38.223400  116.544000
  C    -93.117700   40.777900  115.474000
  H    -93.563800   41.485800  114.761000
  H    -92.752200   39.868400  115.014000
  C    -91.874900   41.583800  116.130000
  H    -92.273200   42.589100  116.520000
  H    -91.118200   41.903300  115.453000
  C    -91.097400   40.822000  117.168000
  H    -90.889900   39.890600  116.829000
  H    -91.758600   40.763400  118.057000
  H    -90.153600   41.283000  117.424000
  H    -95.398400   46.314300  116.577000
  H    -95.837000   37.809600  117.811000

 Total Charge           Charge          ....    0
 Multiplicity           Mult            ....    1
 Number of Electrons    NEL             ....  134
 Basis Dimension        Dim             ....  322

ORBITAL ENERGIES
----------------

  NO   OCC          E(Eh)            E(eV)
   0   2.0000     -88.968333     -2420.9514
   1   2.0000     -88.967662     -2420.9331
   2   2.0000     -10.335724      -281.2494
   3   2.0000     -10.331469      -281.1336
   4   2.0000     -10.319581      -280.8101
   5   2.0000     -10.316404      -280.7236
   6   2.0000     -10.309391      -280.5328
   7   2.0000     -10.298559      -280.2380
   8   2.0000     -10.296557      -280.1836
   9   2.0000     -10.296324      -280.1772
  10   2.0000     -10.294799      -280.1357
  11   2.0000     -10.285647      -279.8867
  12   2.0000     -10.278797      -279.7003
  13   2.0000     -10.274836      -279.5925
  14   2.0000     -10.267821      -279.4016
  15   2.0000     -10.262965      -279.2695
  16   2.0000      -8.082922      -219.9475
  17   2.0000      -8.082592      -219.9385
  18   2.0000      -6.041447      -164.3961
  19   2.0000      -6.041133      -164.3876
  20   2.0000      -6.037234      -164.2815
  21   2.0000      -6.037185      -164.2802
  22   2.0000      -6.033880      -164.1902
  23   2.0000      -6.033182      -164.1712
  24   2.0000      -1.005823       -27.3698
  25   2.0000      -0.987028       -26.8584
  26   2.0000      -0.913044       -24.8452
  27   2.0000      -0.902320       -24.5534
  28   2.0000      -0.870430       -23.6856
  29   2.0000      -0.854130       -23.2421
  30   2.0000      -0.849929       -23.1277
  31   2.0000      -0.814241       -22.1566
  32   2.0000      -0.782961       -21.3055
  33   2.0000      -0.767404       -20.8821
  34   2.0000      -0.706196       -19.2166
  35   2.0000      -0.703998       -19.1567
  36   2.0000      -0.685433       -18.6516
  37   2.0000      -0.664393       -18.0791
  38   2.0000      -0.641182       -17.4474
  39   2.0000      -0.612833       -16.6760
  40   2.0000      -0.588314       -16.0088
  41   2.0000      -0.570727       -15.5303
  42   2.0000      -0.564157       -15.3515
  43   2.0000      -0.550892       -14.9905
  44   2.0000      -0.546861       -14.8809
  45   2.0000      -0.529489       -14.4081
  46   2.0000      -0.519989       -14.1496
  47   2.0000      -0.512925       -13.9574
  48   2.0000      -0.507125       -13.7996
  49   2.0000      -0.501150       -13.6370
  50   2.0000      -0.488517       -13.2932
  51   2.0000      -0.478866       -13.0306
  52   2.0000      -0.472901       -12.8683
  53   2.0000      -0.469491       -12.7755
  54   2.0000      -0.461955       -12.5704
  55   2.0000      -0.450211       -12.2509
  56   2.0000      -0.441847       -12.0233
  57   2.0000      -0.439913       -11.9706
  58   2.0000      -0.429301       -11.6819
  59   2.0000      -0.424804       -11.5595
  60   2.0000      -0.418820       -11.3967
  61   2.0000      -0.410878       -11.1806
  62   2.0000      -0.405124       -11.0240
  63   2.0000      -0.349202        -9.5023
  64   2.0000      -0.330973        -9.0062
  65   2.0000      -0.326633        -8.8881
  66   2.0000      -0.288172        -7.8416
  67   0.0000       0.028573         0.7775
  68   0.0000       0.064102         1.7443
  69   0.0000       0.106827         2.9069
  70   0.0000       0.118505         3.2247
  71   0.0000       0.127106         3.4587

MULLIKEN ATOMIC CHARGES
-----------------------
   0 S :    0.119091
   1 C :   -0.137079
   2 C :   -0.123776
   3 C :    0.023422
   4 C :   -0.144932
   5 H :    0.012497
   6 C :    0.106168
   7 H :   -0.004973
   8 H :    0.016317
   9 C :   -0.042219
  10 H :    0.016571
  11 H :    0.005080
  12 C :   -0.015479
  13 H :    0.010894
  14 H :    0.021164
  15 H :    0.031008
  16 S :    0.113997
  17 C :   -0.092820
  18 C :   -0.029282
  19 C :   -0.071115
  20 C :   -0.149808
  21 H :    0.026092
  22 C :    0.074415
  23 H :    0.039171
  24 H :    0.020658
  25 C :   -0.098876
  26 H :    0.043228
  27 H :    0.019485
  28 C :   -0.008005
  29 H :   -0.001993
  30 H :    0.040471
  31 H :    0.028915
  32 H :    0.077766
  33 H :    0.073944
Sum of atomic charges:    0.0000000

LOEWDIN ATOMIC CHARGES
----------------------
   0 S :    0.428618
   1 C :   -0.235363
   2 C :   -0.062475
   3 C :   -0.068512
   4 C :   -0.190167
   5 H :    0.027843
   6 C :   -0.023289
   7 H :    0.021530
   8 H :    0.024597
   9 C :   -0.033015
  10 H :    0.018856
  11 H :    0.015003
  12 C :   -0.055985
  13 H :    0.016708
  14 H :    0.024644
  15 H :    0.022804
  16 S :    0.408288
  17 C :   -0.193014
  18 C :   -0.073875
  19 C :   -0.046781
  20 C :   -0.194603
  21 H :    0.032593
  22 C :   -0.029753
  23 H :    0.035693
  24 H :    0.026299
  25 C :   -0.040109
  26 H :    0.031141
  27 H :    0.016884
  28 C :   -0.059123
  29 H :    0.006572
  30 H :    0.031308
  31 H :    0.026810
  32 H :    0.049651
  33 H :    0.040221

  Mayer bond orders larger than 0.100000
B(  0-S ,  1-C ) :   1.1437 B(  0-S ,  4-C ) :   1.1759 B(  1-C ,  2-C ) :   1.5627
B(  1-C ,  4-C ) :   0.1018 B(  1-C , 32-H ) :   0.9648 B(  2-C ,  3-C ) :   1.2791
B(  2-C ,  6-C ) :   1.0397 B(  3-C ,  4-C ) :   1.5141 B(  3-C ,  5-H ) :   0.9955
B(  4-C , 20-C ) :   1.0521 B(  6-C ,  7-H ) :   0.9365 B(  6-C ,  8-H ) :   0.9335
B(  6-C ,  9-C ) :   1.0648 B(  9-C , 10-H ) :   0.9574 B(  9-C , 11-H ) :   0.9509
B(  9-C , 12-C ) :   1.0850 B( 12-C , 13-H ) :   0.9733 B( 12-C , 14-H ) :   0.9747
B( 12-C , 15-H ) :   0.9739 B( 16-S , 17-C ) :   1.1609 B( 16-S , 20-C ) :   1.1215
B( 17-C , 18-C ) :   1.6234 B( 17-C , 33-H ) :   0.9586 B( 18-C , 19-C ) :   1.2260
B( 18-C , 21-H ) :   0.9831 B( 19-C , 20-C ) :   1.5860 B( 19-C , 22-C ) :   1.0561
B( 22-C , 23-H ) :   0.9309 B( 22-C , 24-H ) :   0.9367 B( 22-C , 25-C ) :   1.0574
B( 25-C , 26-H ) :   0.9563 B( 25-C , 27-H ) :   0.9606 B( 25-C , 28-C ) :   1.0766
B( 28-C , 29-H ) :   0.9721 B( 28-C , 30-H ) :   0.9752 B( 28-C , 31-H ) :   0.9729

Dispersion correction           -0.014824762
FINAL SINGLE POINT ENERGY     -1339.861244126144

DIPOLE MOMENT
-------------
                                X             Y             Z
Electronic contribution:    -17.50858     -11.82102     -10.00355
Nuclear contribution   :     17.86330      11.82785      10.14340
                        -----------------------------------------
Total Dipole Moment    :      0.35471       0.00683       0.13985
                        -----------------------------------------
Magnitude (a.u.)       :      0.38135
Magnitude (Debye)      :      0.96931

Rotational constants in cm-1:     0.019768     0.007819     0.007332
Rotational constants in MHz :   592.642722   234.398138   219.794632

                             ****ORCA TERMINATED NORMALLY****
TOTAL RUN TIME: 0 days 0 hours 0 minutes 33 seconds 619 msec
