                         Program Version 4.2.1 -  RELEASE  -
|  1> ! wB97X-D3 SP def2-SVP
|  2> %pal
|  3> nprocs 16
|  4> end
|  5>
|  6> * xyz 0 1
|  7> S 	 41.2402 	 20.7284 	 82.2137
|  8> C 	 39.9432 	 21.7422 	 82.7648
|  9> C 	 40.3641 	 22.7319 	 83.6517
| 10> C 	 41.7752 	 22.7524 	 83.7583
| 11> C 	 42.4391 	 21.6724 	 83.1559
| 12> H 	 42.4449 	 23.4703 	 84.2054
| 13> C 	 39.4272 	 23.7502 	 84.4178
| 14> H 	 39.131 	 23.313 	 85.4293
| 15> H 	 38.5166 	 23.9898 	 83.8497
| 16> C 	 40.0545 	 25.0759 	 84.6791
| 17> H 	 40.8556 	 25.0622 	 85.4618
| 18> H 	 40.5468 	 25.5817 	 83.7828
| 19> C 	 38.9984 	 25.9895 	 85.3138
| 20> H 	 39.1759 	 27.026 	 85.0512
| 21> H 	 37.9566 	 25.6735 	 85.134
| 22> H 	 39.0922 	 26.0682 	 86.4172
| 23> S 	 44.5818 	 21.1436 	 81.4362
| 24> C 	 46.1248 	 20.8437 	 82.1739
| 25> C 	 46.129 	 21.0407 	 83.5782
| 26> C 	 44.8839 	 21.4826 	 84.0759
| 27> C 	 43.9009 	 21.5002 	 83.0653
| 28> H 	 47.003 	 20.8907 	 84.1868
| 29> C 	 44.4982 	 21.3209 	 85.5118
| 30> H 	 43.7252 	 20.5845 	 85.4916
| 31> H 	 44.0181 	 22.2973 	 85.8094
| 32> C 	 45.6025 	 21.1468 	 86.5806
| 33> H 	 46.3373 	 21.9599 	 86.4254
| 34> H 	 46.0664 	 20.1454 	 86.4295
| 35> C 	 45.1354 	 21.2738 	 88
| 36> H 	 45.9874 	 21.3723 	 88.6748
| 37> H 	 44.6731 	 20.3653 	 88.3693
| 38> H 	 44.4171 	 22.1197 	 88.1967
| 39> H 	 38.9206 	 21.5746 	 82.4846
| 40> H 	 47.0008 	 20.4739 	 81.6096
| 41> *
| 42>
| 43>                          ****END OF INPUT****

CARTESIAN COORDINATES (ANGSTROEM)
---------------------------------
  S     41.240200   20.728400   82.213700
  C     39.943200   21.742200   82.764800
  C     40.364100   22.731900   83.651700
  C     41.775200   22.752400   83.758300
  C     42.439100   21.672400   83.155900
  H     42.444900   23.470300   84.205400
  C     39.427200   23.750200   84.417800
  H     39.131000   23.313000   85.429300
  H     38.516600   23.989800   83.849700
  C     40.054500   25.075900   84.679100
  H     40.855600   25.062200   85.461800
  H     40.546800   25.581700   83.782800
  C     38.998400   25.989500   85.313800
  H     39.175900   27.026000   85.051200
  H     37.956600   25.673500   85.134000
  H     39.092200   26.068200   86.417200
  S     44.581800   21.143600   81.436200
  C     46.124800   20.843700   82.173900
  C     46.129000   21.040700   83.578200
  C     44.883900   21.482600   84.075900
  C     43.900900   21.500200   83.065300
  H     47.003000   20.890700   84.186800
  C     44.498200   21.320900   85.511800
  H     43.725200   20.584500   85.491600
  H     44.018100   22.297300   85.809400
  C     45.602500   21.146800   86.580600
  H     46.337300   21.959900   86.425400
  H     46.066400   20.145400   86.429500
  C     45.135400   21.273800   88.000000
  H     45.987400   21.372300   88.674800
  H     44.673100   20.365300   88.369300
  H     44.417100   22.119700   88.196700
  H     38.920600   21.574600   82.484600
  H     47.000800   20.473900   81.609600

 Total Charge           Charge          ....    0
 Multiplicity           Mult            ....    1
 Number of Electrons    NEL             ....  134
 Basis Dimension        Dim             ....  322

ORBITAL ENERGIES
----------------

  NO   OCC          E(Eh)            E(eV)
   0   2.0000     -88.969418     -2420.9809
   1   2.0000     -88.968012     -2420.9427
   2   2.0000     -10.331637      -281.1381
   3   2.0000     -10.329760      -281.0871
   4   2.0000     -10.321134      -280.8523
   5   2.0000     -10.315017      -280.6859
   6   2.0000     -10.306172      -280.4452
   7   2.0000     -10.303787      -280.3803
   8   2.0000     -10.302201      -280.3371
   9   2.0000     -10.294546      -280.1288
  10   2.0000     -10.294205      -280.1195
  11   2.0000     -10.293128      -280.0903
  12   2.0000     -10.292161      -280.0639
  13   2.0000     -10.290383      -280.0156
  14   2.0000     -10.280634      -279.7503
  15   2.0000     -10.280116      -279.7362
  16   2.0000      -8.083279      -219.9572
  17   2.0000      -8.082043      -219.9236
  18   2.0000      -6.041635      -164.4012
  19   2.0000      -6.040589      -164.3728
  20   2.0000      -6.037921      -164.3002
  21   2.0000      -6.036559      -164.2631
  22   2.0000      -6.034261      -164.2006
  23   2.0000      -6.032905      -164.1637
  24   2.0000      -0.998463       -27.1696
  25   2.0000      -0.978318       -26.6214
  26   2.0000      -0.913273       -24.8514
  27   2.0000      -0.911063       -24.7913
  28   2.0000      -0.864536       -23.5252
  29   2.0000      -0.856879       -23.3169
  30   2.0000      -0.844568       -22.9819
  31   2.0000      -0.807227       -21.9658
  32   2.0000      -0.780661       -21.2429
  33   2.0000      -0.767949       -20.8970
  34   2.0000      -0.704361       -19.1666
  35   2.0000      -0.697914       -18.9912
  36   2.0000      -0.686093       -18.6695
  37   2.0000      -0.649871       -17.6839
  38   2.0000      -0.644017       -17.5246
  39   2.0000      -0.615026       -16.7357
  40   2.0000      -0.593968       -16.1627
  41   2.0000      -0.575842       -15.6694
  42   2.0000      -0.567380       -15.4392
  43   2.0000      -0.563529       -15.3344
  44   2.0000      -0.527959       -14.3665
  45   2.0000      -0.523583       -14.2474
  46   2.0000      -0.509138       -13.8544
  47   2.0000      -0.502163       -13.6645
  48   2.0000      -0.499961       -13.6046
  49   2.0000      -0.493735       -13.4352
  50   2.0000      -0.491571       -13.3763
  51   2.0000      -0.478189       -13.0122
  52   2.0000      -0.472268       -12.8511
  53   2.0000      -0.464562       -12.6414
  54   2.0000      -0.459618       -12.5068
  55   2.0000      -0.454214       -12.3598
  56   2.0000      -0.445003       -12.1091
  57   2.0000      -0.441657       -12.0181
  58   2.0000      -0.427755       -11.6398
  59   2.0000      -0.425970       -11.5912
  60   2.0000      -0.418425       -11.3859
  61   2.0000      -0.415404       -11.3037
  62   2.0000      -0.408640       -11.1197
  63   2.0000      -0.344815        -9.3829
  64   2.0000      -0.333912        -9.0862
  65   2.0000      -0.329647        -8.9702
  66   2.0000      -0.282199        -7.6790
  67   0.0000       0.019509         0.5309
  68   0.0000       0.069402         1.8885
  69   0.0000       0.108990         2.9658
  70   0.0000       0.122159         3.3241
  71   0.0000       0.132237         3.5983

MULLIKEN ATOMIC CHARGES
-----------------------
   0 S :    0.108809
   1 C :   -0.125566
   2 C :   -0.047132
   3 C :    0.009751
   4 C :   -0.158357
   5 H :    0.019401
   6 C :    0.051442
   7 H :    0.057112
   8 H :    0.034019
   9 C :   -0.129035
  10 H :    0.035790
  11 H :    0.051311
  12 C :   -0.053090
  13 H :    0.028762
  14 H :    0.034253
  15 H :    0.029941
  16 S :    0.117428
  17 C :   -0.103423
  18 C :   -0.047482
  19 C :   -0.004317
  20 C :   -0.183578
  21 H :    0.019774
  22 C :    0.031428
  23 H :    0.046642
  24 H :    0.020340
  25 C :   -0.092491
  26 H :    0.038597
  27 H :    0.040741
  28 C :   -0.039330
  29 H :    0.029908
  30 H :    0.026880
  31 H :    0.038968
  32 H :    0.044093
  33 H :    0.068411
Sum of atomic charges:   -0.0000000

LOEWDIN ATOMIC CHARGES
----------------------
   0 S :    0.395507
   1 C :   -0.194426
   2 C :   -0.066654
   3 C :   -0.058788
   4 C :   -0.191061
   5 H :    0.031402
   6 C :   -0.032711
   7 H :    0.044092
   8 H :    0.031183
   9 C :   -0.058325
  10 H :    0.027130
  11 H :    0.032245
  12 C :   -0.071775
  13 H :    0.026994
  14 H :    0.024409
  15 H :    0.028233
  16 S :    0.400226
  17 C :   -0.194908
  18 C :   -0.071693
  19 C :   -0.059170
  20 C :   -0.187291
  21 H :    0.029401
  22 C :   -0.034012
  23 H :    0.033143
  24 H :    0.034515
  25 C :   -0.047613
  26 H :    0.029014
  27 H :    0.028796
  28 C :   -0.069246
  29 H :    0.028399
  30 H :    0.024109
  31 H :    0.030469
  32 H :    0.025166
  33 H :    0.033240

  Mayer bond orders larger than 0.100000
B(  0-S ,  1-C ) :   1.1552 B(  0-S ,  4-C ) :   1.1356 B(  1-C ,  2-C ) :   1.5951
B(  1-C , 32-H ) :   0.9722 B(  2-C ,  3-C ) :   1.2542 B(  2-C ,  6-C ) :   1.0000
B(  3-C ,  4-C ) :   1.5599 B(  3-C ,  5-H ) :   0.9880 B(  4-C , 20-C ) :   1.0713
B(  6-C ,  7-H ) :   0.9363 B(  6-C ,  8-H ) :   0.9506 B(  6-C ,  9-C ) :   1.0807
B(  9-C , 10-H ) :   0.9450 B(  9-C , 11-H ) :   0.9632 B(  9-C , 12-C ) :   1.0663
B( 12-C , 13-H ) :   0.9719 B( 12-C , 14-H ) :   0.9763 B( 12-C , 15-H ) :   0.9759
B( 16-S , 17-C ) :   1.1694 B( 16-S , 20-C ) :   1.1427 B( 17-C , 18-C ) :   1.5690
B( 17-C , 20-C ) :   0.1064 B( 17-C , 33-H ) :   0.9625 B( 18-C , 19-C ) :   1.2839
B( 18-C , 21-H ) :   0.9844 B( 19-C , 20-C ) :   1.5518 B( 19-C , 22-C ) :   1.0420
B( 22-C , 23-H ) :   0.9401 B( 22-C , 24-H ) :   0.9196 B( 22-C , 25-C ) :   1.0787
B( 25-C , 26-H ) :   0.9554 B( 25-C , 27-H ) :   0.9426 B( 25-C , 28-C ) :   1.0953
B( 28-C , 29-H ) :   0.9707 B( 28-C , 30-H ) :   0.9721 B( 28-C , 31-H ) :   0.9714

Dispersion correction           -0.013313733
FINAL SINGLE POINT ENERGY     -1339.872337850444

DIPOLE MOMENT
-------------
                                X             Y             Z
Electronic contribution:      4.46835     -14.81118     -26.81353
Nuclear contribution   :     -4.49070      15.05624      27.45166
                        -----------------------------------------
Total Dipole Moment    :     -0.02235       0.24506       0.63813
                        -----------------------------------------
Magnitude (a.u.)       :      0.68393
Magnitude (Debye)      :      1.73842

Rotational constants in cm-1:     0.015844     0.008484     0.006281
Rotational constants in MHz :   474.995870   254.354152   188.310119

                             ****ORCA TERMINATED NORMALLY****
TOTAL RUN TIME: 0 days 0 hours 0 minutes 29 seconds 329 msec
