                         Program Version 4.2.1 -  RELEASE  -
|  1> ! wB97X-D3 SP def2-SVP
|  2> %pal
|  3> nprocs 16
|  4> end
|  5>
|  6> * xyz 0 1
|  7> S 	 -38.1539 	 11.9647 	 77.8319
|  8> C 	 -37.3754 	 12.4382 	 76.3014
|  9> C 	 -38.0266 	 13.5562 	 75.7272
| 10> C 	 -39.1968 	 13.9597 	 76.5517
| 11> C 	 -39.3899 	 13.2152 	 77.6883
| 12> H 	 -39.8823 	 14.8465 	 76.3802
| 13> C 	 -37.5918 	 14.1767 	 74.4309
| 14> H 	 -38.2003 	 14.9957 	 74.1673
| 15> H 	 -37.6912 	 13.4135 	 73.6312
| 16> C 	 -36.1725 	 14.7226 	 74.3776
| 17> H 	 -35.4591 	 13.8899 	 74.6674
| 18> H 	 -35.9439 	 14.9681 	 73.3764
| 19> C 	 -35.961 	 15.9295 	 75.2345
| 20> H 	 -36.178 	 15.7408 	 76.2705
| 21> H 	 -34.8615 	 16.1785 	 75.1273
| 22> H 	 -36.6009 	 16.7542 	 74.8108
| 23> S 	 -40.0099 	 12.9256 	 80.2226
| 24> C 	 -41.598 	 13.177 	 80.7185
| 25> C 	 -42.48 	 13.3342 	 79.6678
| 26> C 	 -41.8039 	 13.4327 	 78.3974
| 27> C 	 -40.4557 	 13.2246 	 78.5862
| 28> H 	 -43.5358 	 13.5589 	 79.7995
| 29> C 	 -42.6274 	 13.651 	 77.1675
| 30> H 	 -42.0331 	 14.191 	 76.434
| 31> H 	 -43.4152 	 14.3171 	 77.4399
| 32> C 	 -43.1465 	 12.3572 	 76.4705
| 33> H 	 -42.3849 	 11.593 	 76.4705
| 34> H 	 -43.3888 	 12.6347 	 75.3902
| 35> C 	 -44.4283 	 11.7929 	 77.1094
| 36> H 	 -44.8259 	 11.1398 	 76.3971
| 37> H 	 -45.2217 	 12.5239 	 77.3488
| 38> H 	 -44.2552 	 11.1946 	 78.0398
| 39> H 	 -36.5287 	 11.9041 	 75.8471
| 40> H 	 -41.8992 	 13.0428 	 81.7718
| 41> *
| 42>
| 43>                          ****END OF INPUT****

CARTESIAN COORDINATES (ANGSTROEM)
---------------------------------
  S    -38.153900   11.964700   77.831900
  C    -37.375400   12.438200   76.301400
  C    -38.026600   13.556200   75.727200
  C    -39.196800   13.959700   76.551700
  C    -39.389900   13.215200   77.688300
  H    -39.882300   14.846500   76.380200
  C    -37.591800   14.176700   74.430900
  H    -38.200300   14.995700   74.167300
  H    -37.691200   13.413500   73.631200
  C    -36.172500   14.722600   74.377600
  H    -35.459100   13.889900   74.667400
  H    -35.943900   14.968100   73.376400
  C    -35.961000   15.929500   75.234500
  H    -36.178000   15.740800   76.270500
  H    -34.861500   16.178500   75.127300
  H    -36.600900   16.754200   74.810800
  S    -40.009900   12.925600   80.222600
  C    -41.598000   13.177000   80.718500
  C    -42.480000   13.334200   79.667800
  C    -41.803900   13.432700   78.397400
  C    -40.455700   13.224600   78.586200
  H    -43.535800   13.558900   79.799500
  C    -42.627400   13.651000   77.167500
  H    -42.033100   14.191000   76.434000
  H    -43.415200   14.317100   77.439900
  C    -43.146500   12.357200   76.470500
  H    -42.384900   11.593000   76.470500
  H    -43.388800   12.634700   75.390200
  C    -44.428300   11.792900   77.109400
  H    -44.825900   11.139800   76.397100
  H    -45.221700   12.523900   77.348800
  H    -44.255200   11.194600   78.039800
  H    -36.528700   11.904100   75.847100
  H    -41.899200   13.042800   81.771800

 Total Charge           Charge          ....    0
 Multiplicity           Mult            ....    1
 Number of Electrons    NEL             ....  134
 Basis Dimension        Dim             ....  322

ORBITAL ENERGIES
----------------

  NO   OCC          E(Eh)            E(eV)
   0   2.0000     -88.965029     -2420.8615
   1   2.0000     -88.962602     -2420.7955
   2   2.0000     -10.323364      -280.9130
   3   2.0000     -10.319305      -280.8026
   4   2.0000     -10.317074      -280.7419
   5   2.0000     -10.313651      -280.6487
   6   2.0000     -10.310346      -280.5588
   7   2.0000     -10.301012      -280.3048
   8   2.0000     -10.300660      -280.2952
   9   2.0000     -10.293057      -280.0883
  10   2.0000     -10.292044      -280.0607
  11   2.0000     -10.289187      -279.9830
  12   2.0000     -10.287491      -279.9369
  13   2.0000     -10.281722      -279.7799
  14   2.0000     -10.278204      -279.6842
  15   2.0000     -10.275576      -279.6126
  16   2.0000      -8.081990      -219.9221
  17   2.0000      -8.076821      -219.7815
  18   2.0000      -6.040304      -164.3650
  19   2.0000      -6.036214      -164.2537
  20   2.0000      -6.035516      -164.2347
  21   2.0000      -6.032790      -164.1606
  22   2.0000      -6.031360      -164.1217
  23   2.0000      -6.027456      -164.0154
  24   2.0000      -1.016711       -27.6661
  25   2.0000      -0.977879       -26.6094
  26   2.0000      -0.918271       -24.9874
  27   2.0000      -0.910762       -24.7831
  28   2.0000      -0.873043       -23.7567
  29   2.0000      -0.854773       -23.2596
  30   2.0000      -0.838728       -22.8230
  31   2.0000      -0.811116       -22.0716
  32   2.0000      -0.787302       -21.4236
  33   2.0000      -0.770799       -20.9745
  34   2.0000      -0.706692       -19.2301
  35   2.0000      -0.698182       -18.9985
  36   2.0000      -0.689533       -18.7631
  37   2.0000      -0.668280       -18.1848
  38   2.0000      -0.632617       -17.2144
  39   2.0000      -0.608690       -16.5633
  40   2.0000      -0.594914       -16.1884
  41   2.0000      -0.576830       -15.6964
  42   2.0000      -0.552440       -15.0326
  43   2.0000      -0.547620       -14.9015
  44   2.0000      -0.544454       -14.8154
  45   2.0000      -0.534762       -14.5516
  46   2.0000      -0.520776       -14.1710
  47   2.0000      -0.509722       -13.8702
  48   2.0000      -0.506115       -13.7721
  49   2.0000      -0.498167       -13.5558
  50   2.0000      -0.490116       -13.3367
  51   2.0000      -0.477892       -13.0041
  52   2.0000      -0.473953       -12.8969
  53   2.0000      -0.462796       -12.5933
  54   2.0000      -0.459762       -12.5108
  55   2.0000      -0.448990       -12.2177
  56   2.0000      -0.441552       -12.0152
  57   2.0000      -0.435385       -11.8474
  58   2.0000      -0.429924       -11.6988
  59   2.0000      -0.425753       -11.5853
  60   2.0000      -0.421182       -11.4610
  61   2.0000      -0.415448       -11.3049
  62   2.0000      -0.413534       -11.2528
  63   2.0000      -0.354304        -9.6411
  64   2.0000      -0.332631        -9.0513
  65   2.0000      -0.325197        -8.8491
  66   2.0000      -0.282741        -7.6938
  67   0.0000       0.027880         0.7586
  68   0.0000       0.071636         1.9493
  69   0.0000       0.104758         2.8506
  70   0.0000       0.113215         3.0807
  71   0.0000       0.142143         3.8679

MULLIKEN ATOMIC CHARGES
-----------------------
   0 S :    0.088825
   1 C :   -0.134220
   2 C :   -0.108403
   3 C :   -0.013735
   4 C :   -0.122734
   5 H :    0.041225
   6 C :    0.088135
   7 H :   -0.001725
   8 H :    0.042924
   9 C :   -0.080420
  10 H :    0.024685
  11 H :    0.016478
  12 C :   -0.060331
  13 H :    0.047632
  14 H :    0.042667
  15 H :    0.033676
  16 S :    0.123253
  17 C :   -0.088282
  18 C :   -0.041600
  19 C :   -0.062019
  20 C :   -0.153998
  21 H :    0.019056
  22 C :    0.102160
  23 H :    0.003459
  24 H :    0.015564
  25 C :   -0.072347
  26 H :    0.040513
  27 H :    0.040107
  28 C :   -0.053830
  29 H :    0.021748
  30 H :    0.027107
  31 H :    0.045754
  32 H :    0.063729
  33 H :    0.064945
Sum of atomic charges:    0.0000000

LOEWDIN ATOMIC CHARGES
----------------------
   0 S :    0.376238
   1 C :   -0.196357
   2 C :   -0.055850
   3 C :   -0.078680
   4 C :   -0.189733
   5 H :    0.040572
   6 C :   -0.035566
   7 H :    0.020831
   8 H :    0.039739
   9 C :   -0.043084
  10 H :    0.023514
  11 H :    0.017348
  12 C :   -0.066132
  13 H :    0.024622
  14 H :    0.034768
  15 H :    0.029171
  16 S :    0.446207
  17 C :   -0.207325
  18 C :   -0.071953
  19 C :   -0.049594
  20 C :   -0.212569
  21 H :    0.030695
  22 C :   -0.030469
  23 H :    0.026884
  24 H :    0.027667
  25 C :   -0.030090
  26 H :    0.028313
  27 H :    0.032049
  28 C :   -0.071638
  29 H :    0.019144
  30 H :    0.024362
  31 H :    0.031460
  32 H :    0.032509
  33 H :    0.032946

  Mayer bond orders larger than 0.100000
B(  0-S ,  1-C ) :   1.1199 B(  0-S ,  4-C ) :   1.1210 B(  1-C ,  2-C ) :   1.6174
B(  1-C , 32-H ) :   0.9682 B(  2-C ,  3-C ) :   1.1998 B(  2-C ,  6-C ) :   1.0294
B(  3-C ,  4-C ) :   1.6204 B(  3-C ,  5-H ) :   0.9767 B(  4-C , 20-C ) :   1.0747
B(  6-C ,  7-H ) :   0.9371 B(  6-C ,  8-H ) :   0.9336 B(  6-C ,  9-C ) :   1.0830
B(  9-C , 10-H ) :   0.9517 B(  9-C , 11-H ) :   0.9515 B(  9-C , 12-C ) :   1.0815
B( 12-C , 13-H ) :   0.9764 B( 12-C , 14-H ) :   0.9717 B( 12-C , 15-H ) :   0.9709
B( 16-S , 17-C ) :   1.1740 B( 16-S , 20-C ) :   1.1462 B( 17-C , 18-C ) :   1.5932
B( 17-C , 33-H ) :   0.9634 B( 18-C , 19-C ) :   1.2451 B( 18-C , 21-H ) :   0.9854
B( 19-C , 20-C ) :   1.5835 B( 19-C , 22-C ) :   1.0536 B( 22-C , 23-H ) :   0.9255
B( 22-C , 24-H ) :   0.9300 B( 22-C , 25-C ) :   1.0651 B( 25-C , 26-H ) :   0.9549
B( 25-C , 27-H ) :   0.9598 B( 25-C , 28-C ) :   1.0781 B( 28-C , 29-H ) :   0.9732
B( 28-C , 30-H ) :   0.9759 B( 28-C , 31-H ) :   0.9728

Dispersion correction           -0.014311067
FINAL SINGLE POINT ENERGY     -1339.884916845236

DIPOLE MOMENT
-------------
                                X             Y             Z
Electronic contribution:      5.45312      -7.81398      19.70282
Nuclear contribution   :     -5.81150       8.01614     -20.19310
                        -----------------------------------------
Total Dipole Moment    :     -0.35838       0.20215      -0.49028
                        -----------------------------------------
Magnitude (a.u.)       :      0.64006
Magnitude (Debye)      :      1.62690

Rotational constants in cm-1:     0.021852     0.007924     0.006736
Rotational constants in MHz :   655.117165   237.559382   201.950611

                             ****ORCA TERMINATED NORMALLY****
TOTAL RUN TIME: 0 days 0 hours 0 minutes 30 seconds 163 msec
