                         Program Version 4.2.1 -  RELEASE  -
|  1> ! wB97X-D3 SP def2-SVP
|  2> %pal
|  3> nprocs 16
|  4> end
|  5>
|  6> * xyz 0 1
|  7> S 	 -0.141205 	 -14.4869 	 77.4347
|  8> C 	 0.954644 	 -14.1147 	 76.1993
|  9> C 	 0.921154 	 -12.7517 	 75.9407
| 10> C 	 -0.149337 	 -12.1156 	 76.5787
| 11> C 	 -0.758782 	 -12.8773 	 77.5435
| 12> H 	 -0.531156 	 -11.1017 	 76.5214
| 13> C 	 1.76619 	 -12.1258 	 74.9505
| 14> H 	 1.39514 	 -12.5472 	 73.9711
| 15> H 	 2.74945 	 -12.5976 	 75.1327
| 16> C 	 1.82725 	 -10.6148 	 74.9352
| 17> H 	 0.893945 	 -10.1575 	 74.6967
| 18> H 	 2.14973 	 -10.2765 	 75.9281
| 19> C 	 2.80652 	 -10.0535 	 73.8563
| 20> H 	 2.44225 	 -10.2596 	 72.8505
| 21> H 	 2.91667 	 -9.04342 	 74.0201
| 22> H 	 3.79249 	 -10.4651 	 73.9687
| 23> S 	 -3.52234 	 -12.6899 	 77.3423
| 24> C 	 -4.3055 	 -11.6775 	 78.5549
| 25> C 	 -3.52776 	 -11.4196 	 79.6381
| 26> C 	 -2.23886 	 -11.9768 	 79.5283
| 27> C 	 -2.01706 	 -12.575 	 78.2401
| 28> H 	 -3.8478 	 -10.7408 	 80.3982
| 29> C 	 -1.18634 	 -11.8926 	 80.6335
| 30> H 	 -0.215629 	 -12.2592 	 80.3393
| 31> H 	 -1.53151 	 -12.3858 	 81.5018
| 32> C 	 -0.987059 	 -10.4518 	 81.1051
| 33> H 	 -1.95938 	 -10.0283 	 81.3584
| 34> H 	 -0.474787 	 -9.82533 	 80.3229
| 35> C 	 -0.0409867 	 -10.4359 	 82.3026
| 36> H 	 0.776325 	 -11.0711 	 81.9669
| 37> H 	 -0.499611 	 -10.8632 	 83.1925
| 38> H 	 0.381183 	 -9.43881 	 82.6585
| 39> H 	 1.58291 	 -14.9202 	 75.7974
| 40> H 	 -5.27038 	 -11.1227 	 78.4981
| 41> *
| 42>
| 43>                          ****END OF INPUT****

CARTESIAN COORDINATES (ANGSTROEM)
---------------------------------
  S     -0.141205  -14.486900   77.434700
  C      0.954644  -14.114700   76.199300
  C      0.921154  -12.751700   75.940700
  C     -0.149337  -12.115600   76.578700
  C     -0.758782  -12.877300   77.543500
  H     -0.531156  -11.101700   76.521400
  C      1.766190  -12.125800   74.950500
  H      1.395140  -12.547200   73.971100
  H      2.749450  -12.597600   75.132700
  C      1.827250  -10.614800   74.935200
  H      0.893945  -10.157500   74.696700
  H      2.149730  -10.276500   75.928100
  C      2.806520  -10.053500   73.856300
  H      2.442250  -10.259600   72.850500
  H      2.916670   -9.043420   74.020100
  H      3.792490  -10.465100   73.968700
  S     -3.522340  -12.689900   77.342300
  C     -4.305500  -11.677500   78.554900
  C     -3.527760  -11.419600   79.638100
  C     -2.238860  -11.976800   79.528300
  C     -2.017060  -12.575000   78.240100
  H     -3.847800  -10.740800   80.398200
  C     -1.186340  -11.892600   80.633500
  H     -0.215629  -12.259200   80.339300
  H     -1.531510  -12.385800   81.501800
  C     -0.987059  -10.451800   81.105100
  H     -1.959380  -10.028300   81.358400
  H     -0.474787   -9.825330   80.322900
  C     -0.040987  -10.435900   82.302600
  H      0.776325  -11.071100   81.966900
  H     -0.499611  -10.863200   83.192500
  H      0.381183   -9.438810   82.658500
  H      1.582910  -14.920200   75.797400
  H     -5.270380  -11.122700   78.498100

 Total Charge           Charge          ....    0
 Multiplicity           Mult            ....    1
 Number of Electrons    NEL             ....  134
 Basis Dimension        Dim             ....  322

ORBITAL ENERGIES
----------------

  NO   OCC          E(Eh)            E(eV)
   0   2.0000     -88.967460     -2420.9277
   1   2.0000     -88.959018     -2420.6979
   2   2.0000     -10.327106      -281.0148
   3   2.0000     -10.319552      -280.8093
   4   2.0000     -10.316489      -280.7259
   5   2.0000     -10.309132      -280.5257
   6   2.0000     -10.306147      -280.4445
   7   2.0000     -10.293527      -280.1011
   8   2.0000     -10.287772      -279.9445
   9   2.0000     -10.287688      -279.9422
  10   2.0000     -10.287593      -279.9396
  11   2.0000     -10.286536      -279.9109
  12   2.0000     -10.286063      -279.8980
  13   2.0000     -10.285917      -279.8940
  14   2.0000     -10.279573      -279.7214
  15   2.0000     -10.271164      -279.4926
  16   2.0000      -8.081614      -219.9119
  17   2.0000      -8.075406      -219.7430
  18   2.0000      -6.040103      -164.3596
  19   2.0000      -6.036274      -164.2554
  20   2.0000      -6.033487      -164.1795
  21   2.0000      -6.032353      -164.1487
  22   2.0000      -6.029493      -164.0709
  23   2.0000      -6.026702      -163.9949
  24   2.0000      -1.011413       -27.5220
  25   2.0000      -0.986839       -26.8532
  26   2.0000      -0.917989       -24.9797
  27   2.0000      -0.913206       -24.8496
  28   2.0000      -0.871043       -23.7023
  29   2.0000      -0.852412       -23.1953
  30   2.0000      -0.846548       -23.0357
  31   2.0000      -0.818904       -22.2835
  32   2.0000      -0.781079       -21.2542
  33   2.0000      -0.764245       -20.7962
  34   2.0000      -0.714124       -19.4323
  35   2.0000      -0.693450       -18.8697
  36   2.0000      -0.686239       -18.6735
  37   2.0000      -0.653877       -17.7929
  38   2.0000      -0.644912       -17.5489
  39   2.0000      -0.617914       -16.8143
  40   2.0000      -0.598116       -16.2756
  41   2.0000      -0.575967       -15.6729
  42   2.0000      -0.574665       -15.6374
  43   2.0000      -0.567284       -15.4366
  44   2.0000      -0.530131       -14.4256
  45   2.0000      -0.518999       -14.1227
  46   2.0000      -0.516735       -14.0611
  47   2.0000      -0.509480       -13.8637
  48   2.0000      -0.506103       -13.7718
  49   2.0000      -0.499548       -13.5934
  50   2.0000      -0.490650       -13.3513
  51   2.0000      -0.476475       -12.9656
  52   2.0000      -0.469396       -12.7729
  53   2.0000      -0.466506       -12.6943
  54   2.0000      -0.459511       -12.5039
  55   2.0000      -0.451129       -12.2758
  56   2.0000      -0.443885       -12.0787
  57   2.0000      -0.432642       -11.7728
  58   2.0000      -0.431730       -11.7480
  59   2.0000      -0.427491       -11.6326
  60   2.0000      -0.424858       -11.5610
  61   2.0000      -0.420201       -11.4343
  62   2.0000      -0.415234       -11.2991
  63   2.0000      -0.340560        -9.2671
  64   2.0000      -0.328895        -8.9497
  65   2.0000      -0.310803        -8.4574
  66   2.0000      -0.302802        -8.2397
  67   0.0000       0.042036         1.1439
  68   0.0000       0.051333         1.3968
  69   0.0000       0.116657         3.1744
  70   0.0000       0.127247         3.4626
  71   0.0000       0.136513         3.7147

MULLIKEN ATOMIC CHARGES
-----------------------
   0 S :    0.113476
   1 C :   -0.146941
   2 C :   -0.064023
   3 C :    0.011099
   4 C :   -0.170803
   5 H :    0.018295
   6 C :    0.047820
   7 H :    0.044902
   8 H :    0.027835
   9 C :   -0.088044
  10 H :    0.030403
  11 H :    0.029449
  12 C :    0.004337
  13 H :    0.031553
  14 H :    0.015573
  15 H :    0.017612
  16 S :    0.129521
  17 C :   -0.099044
  18 C :   -0.041349
  19 C :   -0.006973
  20 C :   -0.189953
  21 H :    0.015205
  22 C :    0.115592
  23 H :    0.023179
  24 H :    0.022252
  25 C :   -0.126907
  26 H :    0.027187
  27 H :    0.041380
  28 C :   -0.053472
  29 H :    0.025176
  30 H :    0.027350
  31 H :    0.043868
  32 H :    0.060108
  33 H :    0.064336
Sum of atomic charges:   -0.0000000

LOEWDIN ATOMIC CHARGES
----------------------
   0 S :    0.442092
   1 C :   -0.215516
   2 C :   -0.075467
   3 C :   -0.061128
   4 C :   -0.219666
   5 H :    0.035985
   6 C :   -0.044394
   7 H :    0.042555
   8 H :    0.036127
   9 C :   -0.035311
  10 H :    0.021256
  11 H :    0.026110
  12 C :   -0.050912
  13 H :    0.025923
  14 H :    0.015848
  15 H :    0.021283
  16 S :    0.405198
  17 C :   -0.187884
  18 C :   -0.077493
  19 C :   -0.040812
  20 C :   -0.209505
  21 H :    0.029654
  22 C :   -0.022139
  23 H :    0.027642
  24 H :    0.029314
  25 C :   -0.042544
  26 H :    0.015636
  27 H :    0.029881
  28 C :   -0.072216
  29 H :    0.024804
  30 H :    0.020806
  31 H :    0.031864
  32 H :    0.032449
  33 H :    0.040562

  Mayer bond orders larger than 0.100000
B(  0-S ,  1-C ) :   1.1879 B(  0-S ,  4-C ) :   1.1791 B(  1-C ,  2-C ) :   1.5279
B(  1-C ,  4-C ) :   0.1049 B(  1-C , 32-H ) :   0.9779 B(  2-C ,  3-C ) :   1.2708
B(  2-C ,  6-C ) :   1.0249 B(  3-C ,  4-C ) :   1.5544 B(  3-C ,  5-H ) :   0.9965
B(  4-C , 20-C ) :   1.0016 B(  6-C ,  7-H ) :   0.9279 B(  6-C ,  8-H ) :   0.9350
B(  6-C ,  9-C ) :   1.0924 B(  9-C , 10-H ) :   0.9431 B(  9-C , 11-H ) :   0.9561
B(  9-C , 12-C ) :   1.0908 B( 12-C , 13-H ) :   0.9759 B( 12-C , 14-H ) :   0.9725
B( 12-C , 15-H ) :   0.9741 B( 16-S , 17-C ) :   1.1490 B( 16-S , 20-C ) :   1.1469
B( 17-C , 18-C ) :   1.6375 B( 17-C , 33-H ) :   0.9538 B( 18-C , 19-C ) :   1.2492
B( 18-C , 21-H ) :   0.9868 B( 19-C , 20-C ) :   1.5781 B( 19-C , 22-C ) :   1.0439
B( 22-C , 23-H ) :   0.9318 B( 22-C , 24-H ) :   0.9340 B( 22-C , 25-C ) :   1.0569
B( 25-C , 26-H ) :   0.9577 B( 25-C , 27-H ) :   0.9553 B( 25-C , 28-C ) :   1.0793
B( 28-C , 29-H ) :   0.9709 B( 28-C , 30-H ) :   0.9740 B( 28-C , 31-H ) :   0.9748

Dispersion correction           -0.013463975
FINAL SINGLE POINT ENERGY     -1339.868509196160

DIPOLE MOMENT
-------------
                                X             Y             Z
Electronic contribution:    -17.44201     -18.75527      -3.53720
Nuclear contribution   :     17.73255      19.28854       3.51626
                        -----------------------------------------
Total Dipole Moment    :      0.29053       0.53326      -0.02095
                        -----------------------------------------
Magnitude (a.u.)       :      0.60763
Magnitude (Debye)      :      1.54448

Rotational constants in cm-1:     0.016647     0.007998     0.006987
Rotational constants in MHz :   499.070528   239.784825   209.469537

                             ****ORCA TERMINATED NORMALLY****
TOTAL RUN TIME: 0 days 0 hours 0 minutes 33 seconds 828 msec
