                         Program Version 4.2.1 -  RELEASE  -
|  1> ! wB97X-D3 SP def2-SVP
|  2> %pal
|  3> nprocs 16
|  4> end
|  5>
|  6> * xyz 0 1
|  7> S 	 -55.499 	 39.7265 	 114.433
|  8> C 	 -54.1192 	 39.9077 	 113.342
|  9> C 	 -54.3765 	 40.7719 	 112.276
| 10> C 	 -55.8039 	 41.0508 	 112.22
| 11> C 	 -56.5546 	 40.5551 	 113.265
| 12> H 	 -56.2286 	 41.7245 	 111.583
| 13> C 	 -53.4335 	 41.1596 	 111.268
| 14> H 	 -53.7066 	 40.6799 	 110.323
| 15> H 	 -52.4521 	 40.6689 	 111.506
| 16> C 	 -53.3016 	 42.6293 	 110.965
| 17> H 	 -52.8556 	 42.7785 	 109.961
| 18> H 	 -54.303 	 43.065 	 110.731
| 19> C 	 -52.723 	 43.4047 	 112.135
| 20> H 	 -53.2415 	 43.2207 	 113.038
| 21> H 	 -51.7161 	 43.0903 	 112.192
| 22> H 	 -52.7938 	 44.4653 	 111.963
| 23> S 	 -58.8211 	 38.9754 	 113.764
| 24> C 	 -60.4187 	 39.6531 	 114.04
| 25> C 	 -60.3583 	 41.0202 	 113.669
| 26> C 	 -59.0559 	 41.5151 	 113.343
| 27> C 	 -58.036 	 40.5184 	 113.408
| 28> H 	 -61.2517 	 41.6031 	 113.735
| 29> C 	 -58.8015 	 42.9585 	 113.231
| 30> H 	 -57.8134 	 43.1027 	 113.564
| 31> H 	 -59.3698 	 43.5138 	 113.936
| 32> C 	 -59.1722 	 43.4479 	 111.8
| 33> H 	 -59.9829 	 42.8394 	 111.401
| 34> H 	 -58.329 	 43.183 	 111.197
| 35> C 	 -59.5678 	 44.9107 	 111.542
| 36> H 	 -58.7084 	 45.5645 	 111.759
| 37> H 	 -60.4023 	 45.2609 	 112.112
| 38> H 	 -59.867 	 45.0343 	 110.506
| 39> H 	 -53.132 	 39.4887 	 113.449
| 40> H 	 -61.2467 	 39.1505 	 114.479
| 41> *
| 42>
| 43>                          ****END OF INPUT****

CARTESIAN COORDINATES (ANGSTROEM)
---------------------------------
  S    -55.499000   39.726500  114.433000
  C    -54.119200   39.907700  113.342000
  C    -54.376500   40.771900  112.276000
  C    -55.803900   41.050800  112.220000
  C    -56.554600   40.555100  113.265000
  H    -56.228600   41.724500  111.583000
  C    -53.433500   41.159600  111.268000
  H    -53.706600   40.679900  110.323000
  H    -52.452100   40.668900  111.506000
  C    -53.301600   42.629300  110.965000
  H    -52.855600   42.778500  109.961000
  H    -54.303000   43.065000  110.731000
  C    -52.723000   43.404700  112.135000
  H    -53.241500   43.220700  113.038000
  H    -51.716100   43.090300  112.192000
  H    -52.793800   44.465300  111.963000
  S    -58.821100   38.975400  113.764000
  C    -60.418700   39.653100  114.040000
  C    -60.358300   41.020200  113.669000
  C    -59.055900   41.515100  113.343000
  C    -58.036000   40.518400  113.408000
  H    -61.251700   41.603100  113.735000
  C    -58.801500   42.958500  113.231000
  H    -57.813400   43.102700  113.564000
  H    -59.369800   43.513800  113.936000
  C    -59.172200   43.447900  111.800000
  H    -59.982900   42.839400  111.401000
  H    -58.329000   43.183000  111.197000
  C    -59.567800   44.910700  111.542000
  H    -58.708400   45.564500  111.759000
  H    -60.402300   45.260900  112.112000
  H    -59.867000   45.034300  110.506000
  H    -53.132000   39.488700  113.449000
  H    -61.246700   39.150500  114.479000

 Total Charge           Charge          ....    0
 Multiplicity           Mult            ....    1
 Number of Electrons    NEL             ....  134
 Basis Dimension        Dim             ....  322

ORBITAL ENERGIES
----------------

  NO   OCC          E(Eh)            E(eV)
   0   2.0000     -88.967947     -2420.9409
   1   2.0000     -88.964193     -2420.8388
   2   2.0000     -10.336660      -281.2748
   3   2.0000     -10.334704      -281.2216
   4   2.0000     -10.321447      -280.8609
   5   2.0000     -10.316732      -280.7326
   6   2.0000     -10.305340      -280.4226
   7   2.0000     -10.300716      -280.2967
   8   2.0000     -10.296393      -280.1791
   9   2.0000     -10.291844      -280.0553
  10   2.0000     -10.290426      -280.0167
  11   2.0000     -10.290111      -280.0082
  12   2.0000     -10.284811      -279.8639
  13   2.0000     -10.281314      -279.7688
  14   2.0000     -10.277920      -279.6764
  15   2.0000     -10.268478      -279.4195
  16   2.0000      -8.081776      -219.9163
  17   2.0000      -8.078239      -219.8200
  18   2.0000      -6.040471      -164.3696
  19   2.0000      -6.036786      -164.2693
  20   2.0000      -6.036466      -164.2606
  21   2.0000      -6.032576      -164.1547
  22   2.0000      -6.032323      -164.1478
  23   2.0000      -6.029246      -164.0641
  24   2.0000      -0.999253       -27.1910
  25   2.0000      -0.979570       -26.6555
  26   2.0000      -0.922860       -25.1123
  27   2.0000      -0.910389       -24.7729
  28   2.0000      -0.866299       -23.5732
  29   2.0000      -0.851344       -23.1662
  30   2.0000      -0.846099       -23.0235
  31   2.0000      -0.818062       -22.2606
  32   2.0000      -0.785198       -21.3663
  33   2.0000      -0.774116       -21.0648
  34   2.0000      -0.712225       -19.3806
  35   2.0000      -0.703895       -19.1540
  36   2.0000      -0.694924       -18.9099
  37   2.0000      -0.661437       -17.9986
  38   2.0000      -0.642328       -17.4786
  39   2.0000      -0.625395       -17.0179
  40   2.0000      -0.597180       -16.2501
  41   2.0000      -0.572003       -15.5650
  42   2.0000      -0.562820       -15.3151
  43   2.0000      -0.558113       -15.1870
  44   2.0000      -0.543934       -14.8012
  45   2.0000      -0.531056       -14.4508
  46   2.0000      -0.524014       -14.2591
  47   2.0000      -0.518505       -14.1092
  48   2.0000      -0.503643       -13.7048
  49   2.0000      -0.501427       -13.6445
  50   2.0000      -0.499179       -13.5834
  51   2.0000      -0.473411       -12.8822
  52   2.0000      -0.470971       -12.8158
  53   2.0000      -0.466199       -12.6859
  54   2.0000      -0.459643       -12.5075
  55   2.0000      -0.450582       -12.2610
  56   2.0000      -0.448144       -12.1946
  57   2.0000      -0.435361       -11.8468
  58   2.0000      -0.433218       -11.7885
  59   2.0000      -0.430569       -11.7164
  60   2.0000      -0.419236       -11.4080
  61   2.0000      -0.412978       -11.2377
  62   2.0000      -0.411147       -11.1879
  63   2.0000      -0.343482        -9.3466
  64   2.0000      -0.327509        -8.9120
  65   2.0000      -0.323517        -8.8033
  66   2.0000      -0.292875        -7.9695
  67   0.0000       0.021761         0.5921
  68   0.0000       0.070619         1.9217
  69   0.0000       0.104618         2.8468
  70   0.0000       0.119222         3.2442
  71   0.0000       0.128432         3.4948

MULLIKEN ATOMIC CHARGES
-----------------------
   0 S :    0.115435
   1 C :   -0.114609
   2 C :   -0.089524
   3 C :    0.085237
   4 C :   -0.157174
   5 H :   -0.035170
   6 C :    0.053575
   7 H :    0.037293
   8 H :    0.016715
   9 C :   -0.100475
  10 H :    0.028061
  11 H :    0.017703
  12 C :    0.004877
  13 H :    0.035786
  14 H :    0.020478
  15 H :    0.029094
  16 S :    0.102202
  17 C :   -0.097446
  18 C :   -0.026466
  19 C :   -0.053000
  20 C :   -0.149505
  21 H :    0.014436
  22 C :    0.120553
  23 H :    0.013204
  24 H :    0.006623
  25 C :   -0.094880
  26 H :    0.031692
  27 H :    0.019697
  28 C :   -0.025451
  29 H :    0.032561
  30 H :    0.025872
  31 H :    0.032148
  32 H :    0.041424
  33 H :    0.059037
Sum of atomic charges:   -0.0000000

LOEWDIN ATOMIC CHARGES
----------------------
   0 S :    0.387302
   1 C :   -0.187111
   2 C :   -0.062015
   3 C :   -0.043577
   4 C :   -0.183130
   5 H :    0.011340
   6 C :   -0.043646
   7 H :    0.039216
   8 H :    0.033549
   9 C :   -0.045922
  10 H :    0.028379
  11 H :    0.022762
  12 C :   -0.053707
  13 H :    0.025232
  14 H :    0.021204
  15 H :    0.026051
  16 S :    0.403626
  17 C :   -0.181966
  18 C :   -0.066739
  19 C :   -0.053186
  20 C :   -0.200575
  21 H :    0.026358
  22 C :   -0.027603
  23 H :    0.025569
  24 H :    0.025566
  25 C :   -0.038453
  26 H :    0.025956
  27 H :    0.019661
  28 C :   -0.063972
  29 H :    0.026622
  30 H :    0.019941
  31 H :    0.029016
  32 H :    0.026249
  33 H :    0.028001

  Mayer bond orders larger than 0.100000
B(  0-S ,  1-C ) :   1.1310 B(  0-S ,  4-C ) :   1.1323 B(  1-C ,  2-C ) :   1.6097
B(  1-C , 32-H ) :   0.9617 B(  2-C ,  3-C ) :   1.2076 B(  2-C ,  6-C ) :   1.0560
B(  3-C ,  4-C ) :   1.6003 B(  3-C ,  5-H ) :   1.0011 B(  4-C , 20-C ) :   1.0358
B(  6-C ,  7-H ) :   0.9250 B(  6-C ,  8-H ) :   0.9371 B(  6-C ,  9-C ) :   1.0770
B(  9-C , 10-H ) :   0.9528 B(  9-C , 11-H ) :   0.9514 B(  9-C , 12-C ) :   1.0647
B( 12-C , 13-H ) :   0.9742 B( 12-C , 14-H ) :   0.9753 B( 12-C , 15-H ) :   0.9725
B( 16-S , 17-C ) :   1.1672 B( 16-S , 20-C ) :   1.1521 B( 17-C , 18-C ) :   1.5627
B( 17-C , 20-C ) :   0.1081 B( 17-C , 33-H ) :   0.9761 B( 18-C , 19-C ) :   1.2720
B( 18-C , 21-H ) :   0.9918 B( 19-C , 20-C ) :   1.5343 B( 19-C , 22-C ) :   1.0610
B( 22-C , 23-H ) :   0.9311 B( 22-C , 24-H ) :   0.9397 B( 22-C , 25-C ) :   1.0252
B( 25-C , 26-H ) :   0.9641 B( 25-C , 27-H ) :   0.9525 B( 25-C , 28-C ) :   1.0871
B( 28-C , 29-H ) :   0.9738 B( 28-C , 30-H ) :   0.9753 B( 28-C , 31-H ) :   0.9722

Dispersion correction           -0.014234407
FINAL SINGLE POINT ENERGY     -1339.866653790576

DIPOLE MOMENT
-------------
                                X             Y             Z
Electronic contribution:     -6.32342     -25.42217      14.43030
Nuclear contribution   :      6.34602      26.02152     -14.77961
                        -----------------------------------------
Total Dipole Moment    :      0.02260       0.59935      -0.34931
                        -----------------------------------------
Magnitude (a.u.)       :      0.69408
Magnitude (Debye)      :      1.76421

Rotational constants in cm-1:     0.017050     0.009439     0.006519
Rotational constants in MHz :   511.138443   282.982367   195.444664

                             ****ORCA TERMINATED NORMALLY****
TOTAL RUN TIME: 0 days 0 hours 0 minutes 30 seconds 422 msec
