                         Program Version 4.2.1 -  RELEASE  -
|  1> ! wB97X-D3 SP def2-SVP
|  2> %pal
|  3> nprocs 16
|  4> end
|  5>
|  6> * xyz 0 1
|  7> S 	 6.20991 	 -15.3989 	 87.4119
|  8> C 	 4.86992 	 -15.5125 	 88.4767
|  9> C 	 4.86633 	 -16.6999 	 89.1641
| 10> C 	 5.8614 	 -17.5738 	 88.7358
| 11> C 	 6.69293 	 -17.0377 	 87.7849
| 12> H 	 6.07621 	 -18.5102 	 89.1307
| 13> C 	 3.84539 	 -17.096 	 90.1982
| 14> H 	 3.97887 	 -16.4744 	 91.0005
| 15> H 	 3.99947 	 -18.0624 	 90.4833
| 16> C 	 2.37763 	 -17.1093 	 89.7172
| 17> H 	 2.2016 	 -16.1819 	 89.1838
| 18> H 	 2.27265 	 -17.9114 	 89.0047
| 19> C 	 1.38121 	 -17.1192 	 90.8827
| 20> H 	 1.52346 	 -18.0299 	 91.4881
| 21> H 	 1.41253 	 -16.2337 	 91.4924
| 22> H 	 0.448346 	 -17.1724 	 90.3905
| 23> S 	 9.40176 	 -16.948 	 87.1655
| 24> C 	 10.1521 	 -18.4445 	 86.5858
| 25> C 	 9.22422 	 -19.3423 	 86.1407
| 26> C 	 7.92822 	 -18.8623 	 86.3972
| 27> C 	 7.82024 	 -17.6675 	 87.1363
| 28> H 	 9.49317 	 -20.2204 	 85.5192
| 29> C 	 6.77098 	 -19.7067 	 85.8961
| 30> H 	 6.05642 	 -19.8288 	 86.6907
| 31> H 	 7.0959 	 -20.7087 	 85.5371
| 32> C 	 6.10401 	 -19.0138 	 84.7015
| 33> H 	 6.82493 	 -19.133 	 83.8486
| 34> H 	 6.06214 	 -17.9885 	 84.8819
| 35> C 	 4.76862 	 -19.623 	 84.2877
| 36> H 	 4.9251 	 -20.6537 	 84.2786
| 37> H 	 4.48649 	 -19.2975 	 83.2448
| 38> H 	 3.9731 	 -19.415 	 85.0308
| 39> H 	 4.20902 	 -14.7341 	 88.7912
| 40> H 	 11.2077 	 -18.5199 	 86.4076
| 41> *
| 42>
| 43>                          ****END OF INPUT****

CARTESIAN COORDINATES (ANGSTROEM)
---------------------------------
  S      6.209910  -15.398900   87.411900
  C      4.869920  -15.512500   88.476700
  C      4.866330  -16.699900   89.164100
  C      5.861400  -17.573800   88.735800
  C      6.692930  -17.037700   87.784900
  H      6.076210  -18.510200   89.130700
  C      3.845390  -17.096000   90.198200
  H      3.978870  -16.474400   91.000500
  H      3.999470  -18.062400   90.483300
  C      2.377630  -17.109300   89.717200
  H      2.201600  -16.181900   89.183800
  H      2.272650  -17.911400   89.004700
  C      1.381210  -17.119200   90.882700
  H      1.523460  -18.029900   91.488100
  H      1.412530  -16.233700   91.492400
  H      0.448346  -17.172400   90.390500
  S      9.401760  -16.948000   87.165500
  C     10.152100  -18.444500   86.585800
  C      9.224220  -19.342300   86.140700
  C      7.928220  -18.862300   86.397200
  C      7.820240  -17.667500   87.136300
  H      9.493170  -20.220400   85.519200
  C      6.770980  -19.706700   85.896100
  H      6.056420  -19.828800   86.690700
  H      7.095900  -20.708700   85.537100
  C      6.104010  -19.013800   84.701500
  H      6.824930  -19.133000   83.848600
  H      6.062140  -17.988500   84.881900
  C      4.768620  -19.623000   84.287700
  H      4.925100  -20.653700   84.278600
  H      4.486490  -19.297500   83.244800
  H      3.973100  -19.415000   85.030800
  H      4.209020  -14.734100   88.791200
  H     11.207700  -18.519900   86.407600

 Total Charge           Charge          ....    0
 Multiplicity           Mult            ....    1
 Number of Electrons    NEL             ....  134
 Basis Dimension        Dim             ....  322

ORBITAL ENERGIES
----------------

  NO   OCC          E(Eh)            E(eV)
   0   2.0000     -88.967869     -2420.9388
   1   2.0000     -88.964273     -2420.8409
   2   2.0000     -10.326785      -281.0061
   3   2.0000     -10.325267      -280.9648
   4   2.0000     -10.317028      -280.7406
   5   2.0000     -10.306708      -280.4598
   6   2.0000     -10.301192      -280.3097
   7   2.0000     -10.293517      -280.1008
   8   2.0000     -10.291821      -280.0547
   9   2.0000     -10.285633      -279.8863
  10   2.0000     -10.284648      -279.8595
  11   2.0000     -10.283438      -279.8266
  12   2.0000     -10.276231      -279.6305
  13   2.0000     -10.274773      -279.5908
  14   2.0000     -10.274065      -279.5715
  15   2.0000     -10.273550      -279.5575
  16   2.0000      -8.083027      -219.9503
  17   2.0000      -8.079087      -219.8431
  18   2.0000      -6.041425      -164.3955
  19   2.0000      -6.037632      -164.2923
  20   2.0000      -6.037377      -164.2854
  21   2.0000      -6.033991      -164.1933
  22   2.0000      -6.033640      -164.1837
  23   2.0000      -6.029748      -164.0778
  24   2.0000      -1.012300       -27.5461
  25   2.0000      -0.990409       -26.9504
  26   2.0000      -0.916856       -24.9489
  27   2.0000      -0.907458       -24.6932
  28   2.0000      -0.873659       -23.7735
  29   2.0000      -0.856692       -23.3118
  30   2.0000      -0.846969       -23.0472
  31   2.0000      -0.818761       -22.2796
  32   2.0000      -0.785191       -21.3661
  33   2.0000      -0.767006       -20.8713
  34   2.0000      -0.709237       -19.2993
  35   2.0000      -0.703338       -19.1388
  36   2.0000      -0.689461       -18.7612
  37   2.0000      -0.663885       -18.0652
  38   2.0000      -0.646467       -17.5913
  39   2.0000      -0.622416       -16.9368
  40   2.0000      -0.595878       -16.2147
  41   2.0000      -0.582322       -15.8458
  42   2.0000      -0.566994       -15.4287
  43   2.0000      -0.561068       -15.2674
  44   2.0000      -0.527818       -14.3627
  45   2.0000      -0.520944       -14.1756
  46   2.0000      -0.518589       -14.1115
  47   2.0000      -0.513835       -13.9822
  48   2.0000      -0.506970       -13.7953
  49   2.0000      -0.502616       -13.6769
  50   2.0000      -0.492583       -13.4039
  51   2.0000      -0.487958       -13.2780
  52   2.0000      -0.481133       -13.0923
  53   2.0000      -0.468216       -12.7408
  54   2.0000      -0.462148       -12.5757
  55   2.0000      -0.448736       -12.2107
  56   2.0000      -0.444263       -12.0890
  57   2.0000      -0.438289       -11.9265
  58   2.0000      -0.429080       -11.6759
  59   2.0000      -0.423328       -11.5194
  60   2.0000      -0.419905       -11.4262
  61   2.0000      -0.414892       -11.2898
  62   2.0000      -0.413823       -11.2607
  63   2.0000      -0.347326        -9.4512
  64   2.0000      -0.335778        -9.1370
  65   2.0000      -0.326269        -8.8782
  66   2.0000      -0.290421        -7.9027
  67   0.0000       0.028785         0.7833
  68   0.0000       0.063627         1.7314
  69   0.0000       0.110752         3.0137
  70   0.0000       0.130063         3.5392
  71   0.0000       0.133333         3.6282

MULLIKEN ATOMIC CHARGES
-----------------------
   0 S :    0.126132
   1 C :   -0.110069
   2 C :   -0.106112
   3 C :    0.057057
   4 C :   -0.165054
   5 H :   -0.015972
   6 C :    0.169912
   7 H :    0.005756
   8 H :   -0.016605
   9 C :   -0.109298
  10 H :    0.017561
  11 H :    0.029187
  12 C :   -0.015566
  13 H :    0.032016
  14 H :    0.033866
  15 H :    0.025703
  16 S :    0.102578
  17 C :   -0.088778
  18 C :   -0.028223
  19 C :   -0.058420
  20 C :   -0.151593
  21 H :    0.038736
  22 C :    0.074996
  23 H :    0.014002
  24 H :    0.017834
  25 C :   -0.082751
  26 H :    0.019064
  27 H :    0.020748
  28 C :   -0.018194
  29 H :    0.009158
  30 H :    0.042711
  31 H :    0.039727
  32 H :    0.037656
  33 H :    0.052235
Sum of atomic charges:   -0.0000000

LOEWDIN ATOMIC CHARGES
----------------------
   0 S :    0.425050
   1 C :   -0.207312
   2 C :   -0.060773
   3 C :   -0.052007
   4 C :   -0.193800
   5 H :    0.022903
   6 C :   -0.017284
   7 H :    0.020008
   8 H :    0.016043
   9 C :   -0.030378
  10 H :    0.017848
  11 H :    0.023070
  12 C :   -0.056986
  13 H :    0.026174
  14 H :    0.024528
  15 H :    0.023815
  16 S :    0.403546
  17 C :   -0.168772
  18 C :   -0.077278
  19 C :   -0.050595
  20 C :   -0.214450
  21 H :    0.043298
  22 C :   -0.029635
  23 H :    0.022295
  24 H :    0.027990
  25 C :   -0.037760
  26 H :    0.026105
  27 H :    0.011634
  28 C :   -0.063103
  29 H :    0.013772
  30 H :    0.033853
  31 H :    0.028790
  32 H :    0.025093
  33 H :    0.024316

  Mayer bond orders larger than 0.100000
B(  0-S ,  1-C ) :   1.1473 B(  0-S ,  4-C ) :   1.1599 B(  1-C ,  2-C ) :   1.5960
B(  1-C ,  4-C ) :   0.1030 B(  1-C , 32-H ) :   0.9654 B(  2-C ,  3-C ) :   1.2693
B(  2-C ,  6-C ) :   1.0194 B(  3-C ,  4-C ) :   1.5589 B(  3-C ,  5-H ) :   1.0098
B(  4-C , 20-C ) :   1.0462 B(  6-C ,  7-H ) :   0.9266 B(  6-C ,  8-H ) :   0.9328
B(  6-C ,  9-C ) :   1.0637 B(  9-C , 10-H ) :   0.9594 B(  9-C , 11-H ) :   0.9594
B(  9-C , 12-C ) :   1.0804 B( 12-C , 13-H ) :   0.9752 B( 12-C , 14-H ) :   0.9754
B( 12-C , 15-H ) :   0.9727 B( 16-S , 17-C ) :   1.1704 B( 16-S , 20-C ) :   1.1309
B( 17-C , 18-C ) :   1.5791 B( 17-C , 20-C ) :   0.1086 B( 17-C , 33-H ) :   0.9675
B( 18-C , 19-C ) :   1.2823 B( 18-C , 21-H ) :   0.9848 B( 19-C , 20-C ) :   1.5514
B( 19-C , 22-C ) :   1.0495 B( 22-C , 23-H ) :   0.9332 B( 22-C , 24-H ) :   0.9363
B( 22-C , 25-C ) :   1.0566 B( 25-C , 26-H ) :   0.9512 B( 25-C , 27-H ) :   0.9638
B( 25-C , 28-C ) :   1.0805 B( 28-C , 29-H ) :   0.9698 B( 28-C , 30-H ) :   0.9735
B( 28-C , 31-H ) :   0.9751

Dispersion correction           -0.014115209
FINAL SINGLE POINT ENERGY     -1339.871857284606

DIPOLE MOMENT
-------------
                                X             Y             Z
Electronic contribution:     25.38198      12.92476      -1.16480
Nuclear contribution   :    -25.74160     -13.35668       1.25341
                        -----------------------------------------
Total Dipole Moment    :     -0.35962      -0.43192       0.08862
                        -----------------------------------------
Magnitude (a.u.)       :      0.56898
Magnitude (Debye)      :      1.44622

Rotational constants in cm-1:     0.020331     0.008003     0.006674
Rotational constants in MHz :   609.511903   239.935314   200.094654

                             ****ORCA TERMINATED NORMALLY****
TOTAL RUN TIME: 0 days 0 hours 0 minutes 35 seconds 475 msec
