                         Program Version 4.2.1 -  RELEASE  -
|  1> ! wB97X-D3 SP def2-SVP
|  2> %pal
|  3> nprocs 16
|  4> end
|  5>
|  6> * xyz 0 1
|  7> S 	 -39.8743 	 17.0684 	 79.3831
|  8> C 	 -38.8844 	 18.3256 	 78.679
|  9> C 	 -38.0424 	 17.8695 	 77.6954
| 10> C 	 -38.1943 	 16.4247 	 77.5113
| 11> C 	 -39.2277 	 15.892 	 78.2775
| 12> H 	 -37.5343 	 15.7869 	 76.8645
| 13> C 	 -37.0268 	 18.7032 	 77.0797
| 14> H 	 -36.202 	 18.0694 	 76.8049
| 15> H 	 -36.6182 	 19.3892 	 77.8941
| 16> C 	 -37.4822 	 19.4555 	 75.7482
| 17> H 	 -38.5472 	 19.5738 	 75.8347
| 18> H 	 -37.0562 	 20.3862 	 75.5658
| 19> C 	 -37.2006 	 18.5696 	 74.5183
| 20> H 	 -36.1637 	 18.3257 	 74.3437
| 21> H 	 -37.6027 	 17.5734 	 74.6805
| 22> H 	 -37.5165 	 18.8038 	 73.494
| 23> S 	 -39.6176 	 13.7051 	 79.9282
| 24> C 	 -39.5438 	 12.1511 	 79.083
| 25> C 	 -39.3309 	 12.161 	 77.7736
| 26> C 	 -39.2935 	 13.5246 	 77.3102
| 27> C 	 -39.3782 	 14.4489 	 78.3373
| 28> H 	 -39.2742 	 11.2259 	 77.2255
| 29> C 	 -39.212 	 13.763 	 75.7802
| 30> H 	 -38.1399 	 13.925 	 75.7278
| 31> H 	 -39.7534 	 14.6348 	 75.5334
| 32> C 	 -39.5642 	 12.5075 	 74.7952
| 33> H 	 -40.6547 	 12.2418 	 74.8209
| 34> H 	 -38.986 	 11.6878 	 75.1624
| 35> C 	 -39.245 	 12.7986 	 73.3203
| 36> H 	 -38.1636 	 12.6715 	 73.1311
| 37> H 	 -39.6508 	 13.724 	 73.0765
| 38> H 	 -39.6595 	 11.9872 	 72.686
| 39> H 	 -38.8568 	 19.3613 	 79.0398
| 40> H 	 -39.5512 	 11.2189 	 79.6661
| 41> *
| 42>
| 43>                          ****END OF INPUT****

CARTESIAN COORDINATES (ANGSTROEM)
---------------------------------
  S    -39.874300   17.068400   79.383100
  C    -38.884400   18.325600   78.679000
  C    -38.042400   17.869500   77.695400
  C    -38.194300   16.424700   77.511300
  C    -39.227700   15.892000   78.277500
  H    -37.534300   15.786900   76.864500
  C    -37.026800   18.703200   77.079700
  H    -36.202000   18.069400   76.804900
  H    -36.618200   19.389200   77.894100
  C    -37.482200   19.455500   75.748200
  H    -38.547200   19.573800   75.834700
  H    -37.056200   20.386200   75.565800
  C    -37.200600   18.569600   74.518300
  H    -36.163700   18.325700   74.343700
  H    -37.602700   17.573400   74.680500
  H    -37.516500   18.803800   73.494000
  S    -39.617600   13.705100   79.928200
  C    -39.543800   12.151100   79.083000
  C    -39.330900   12.161000   77.773600
  C    -39.293500   13.524600   77.310200
  C    -39.378200   14.448900   78.337300
  H    -39.274200   11.225900   77.225500
  C    -39.212000   13.763000   75.780200
  H    -38.139900   13.925000   75.727800
  H    -39.753400   14.634800   75.533400
  C    -39.564200   12.507500   74.795200
  H    -40.654700   12.241800   74.820900
  H    -38.986000   11.687800   75.162400
  C    -39.245000   12.798600   73.320300
  H    -38.163600   12.671500   73.131100
  H    -39.650800   13.724000   73.076500
  H    -39.659500   11.987200   72.686000
  H    -38.856800   19.361300   79.039800
  H    -39.551200   11.218900   79.666100

 Total Charge           Charge          ....    0
 Multiplicity           Mult            ....    1
 Number of Electrons    NEL             ....  134
 Basis Dimension        Dim             ....  322

ORBITAL ENERGIES
----------------

  NO   OCC          E(Eh)            E(eV)
   0   2.0000     -88.969402     -2420.9805
   1   2.0000     -88.963278     -2420.8139
   2   2.0000     -10.327251      -281.0188
   3   2.0000     -10.324706      -280.9495
   4   2.0000     -10.312676      -280.6222
   5   2.0000     -10.311652      -280.5943
   6   2.0000     -10.304816      -280.4083
   7   2.0000     -10.299425      -280.2616
   8   2.0000     -10.298518      -280.2369
   9   2.0000     -10.297283      -280.2033
  10   2.0000     -10.296473      -280.1813
  11   2.0000     -10.294933      -280.1394
  12   2.0000     -10.288335      -279.9598
  13   2.0000     -10.287332      -279.9325
  14   2.0000     -10.280230      -279.7393
  15   2.0000     -10.275190      -279.6021
  16   2.0000      -8.084083      -219.9791
  17   2.0000      -8.077861      -219.8098
  18   2.0000      -6.042728      -164.4310
  19   2.0000      -6.038635      -164.3196
  20   2.0000      -6.036398      -164.2587
  21   2.0000      -6.034699      -164.2125
  22   2.0000      -6.032809      -164.1611
  23   2.0000      -6.028201      -164.0357
  24   2.0000      -1.005857       -27.3708
  25   2.0000      -0.983201       -26.7543
  26   2.0000      -0.912942       -24.8424
  27   2.0000      -0.898949       -24.4617
  28   2.0000      -0.871294       -23.7091
  29   2.0000      -0.853848       -23.2344
  30   2.0000      -0.846270       -23.0282
  31   2.0000      -0.814809       -22.1721
  32   2.0000      -0.780310       -21.2333
  33   2.0000      -0.767827       -20.8936
  34   2.0000      -0.715441       -19.4681
  35   2.0000      -0.706324       -19.2201
  36   2.0000      -0.695207       -18.9176
  37   2.0000      -0.654476       -17.8092
  38   2.0000      -0.634219       -17.2580
  39   2.0000      -0.611749       -16.6465
  40   2.0000      -0.593200       -16.1418
  41   2.0000      -0.572411       -15.5761
  42   2.0000      -0.569387       -15.4938
  43   2.0000      -0.554781       -15.0963
  44   2.0000      -0.536222       -14.5913
  45   2.0000      -0.529882       -14.4188
  46   2.0000      -0.515209       -14.0195
  47   2.0000      -0.507800       -13.8180
  48   2.0000      -0.496654       -13.5146
  49   2.0000      -0.491884       -13.3849
  50   2.0000      -0.488978       -13.3058
  51   2.0000      -0.482758       -13.1365
  52   2.0000      -0.469091       -12.7646
  53   2.0000      -0.464421       -12.6375
  54   2.0000      -0.455921       -12.4062
  55   2.0000      -0.455235       -12.3876
  56   2.0000      -0.447395       -12.1742
  57   2.0000      -0.435449       -11.8492
  58   2.0000      -0.432936       -11.7808
  59   2.0000      -0.427952       -11.6452
  60   2.0000      -0.424890       -11.5618
  61   2.0000      -0.419196       -11.4069
  62   2.0000      -0.413739       -11.2584
  63   2.0000      -0.356104        -9.6901
  64   2.0000      -0.332701        -9.0533
  65   2.0000      -0.327100        -8.9008
  66   2.0000      -0.283694        -7.7197
  67   0.0000       0.028327         0.7708
  68   0.0000       0.080208         2.1826
  69   0.0000       0.100016         2.7216
  70   0.0000       0.121153         3.2968
  71   0.0000       0.131885         3.5888

MULLIKEN ATOMIC CHARGES
-----------------------
   0 S :    0.110529
   1 C :   -0.128443
   2 C :   -0.077958
   3 C :   -0.021677
   4 C :   -0.119061
   5 H :    0.033093
   6 C :    0.018186
   7 H :    0.018951
   8 H :    0.044496
   9 C :    0.014013
  10 H :    0.031499
  11 H :    0.022590
  12 C :   -0.078533
  13 H :    0.015750
  14 H :    0.012045
  15 H :    0.033123
  16 S :    0.092726
  17 C :   -0.081759
  18 C :   -0.034400
  19 C :   -0.069931
  20 C :   -0.145122
  21 H :    0.024905
  22 C :    0.056926
  23 H :    0.040195
  24 H :    0.035347
  25 C :   -0.102141
  26 H :    0.048235
  27 H :    0.028968
  28 C :   -0.025398
  29 H :    0.033082
  30 H :    0.031479
  31 H :    0.034813
  32 H :    0.052827
  33 H :    0.050645
Sum of atomic charges:    0.0000000

LOEWDIN ATOMIC CHARGES
----------------------
   0 S :    0.406662
   1 C :   -0.198397
   2 C :   -0.068654
   3 C :   -0.062830
   4 C :   -0.201404
   5 H :    0.037295
   6 C :   -0.034363
   7 H :    0.027950
   8 H :    0.042384
   9 C :   -0.021963
  10 H :    0.025420
  11 H :    0.015730
  12 C :   -0.077822
  13 H :    0.020388
  14 H :    0.021785
  15 H :    0.027417
  16 S :    0.369876
  17 C :   -0.166229
  18 C :   -0.076457
  19 C :   -0.050726
  20 C :   -0.191447
  21 H :    0.038320
  22 C :   -0.025599
  23 H :    0.032897
  24 H :    0.023774
  25 C :   -0.036529
  26 H :    0.030710
  27 H :    0.015223
  28 C :   -0.060501
  29 H :    0.028235
  30 H :    0.017120
  31 H :    0.032475
  32 H :    0.032274
  33 H :    0.026988

  Mayer bond orders larger than 0.100000
B(  0-S ,  1-C ) :   1.1268 B(  0-S ,  4-C ) :   1.1457 B(  1-C ,  2-C ) :   1.6175
B(  1-C , 32-H ) :   0.9637 B(  2-C ,  3-C ) :   1.2353 B(  2-C ,  6-C ) :   1.0458
B(  3-C ,  4-C ) :   1.5555 B(  3-C ,  5-H ) :   0.9795 B(  4-C , 20-C ) :   1.0705
B(  6-C ,  7-H ) :   0.9428 B(  6-C ,  8-H ) :   0.9443 B(  6-C ,  9-C ) :   1.0290
B(  9-C , 10-H ) :   0.9631 B(  9-C , 11-H ) :   0.9617 B(  9-C , 12-C ) :   1.0644
B( 12-C , 13-H ) :   0.9747 B( 12-C , 14-H ) :   0.9750 B( 12-C , 15-H ) :   0.9758
B( 16-S , 17-C ) :   1.1295 B( 16-S , 20-C ) :   1.1048 B( 17-C , 18-C ) :   1.6904
B( 17-C , 33-H ) :   0.9531 B( 18-C , 19-C ) :   1.1886 B( 18-C , 21-H ) :   0.9858
B( 19-C , 20-C ) :   1.6639 B( 19-C , 22-C ) :   1.0041 B( 22-C , 23-H ) :   0.9304
B( 22-C , 24-H ) :   0.9436 B( 22-C , 25-C ) :   1.0630 B( 25-C , 26-H ) :   0.9612
B( 25-C , 27-H ) :   0.9473 B( 25-C , 28-C ) :   1.0877 B( 28-C , 29-H ) :   0.9759
B( 28-C , 30-H ) :   0.9769 B( 28-C , 31-H ) :   0.9719

Dispersion correction           -0.013881741
FINAL SINGLE POINT ENERGY     -1339.859555775700

DIPOLE MOMENT
-------------
                                X             Y             Z
Electronic contribution:     -9.79982      -2.33603      30.56469
Nuclear contribution   :     10.23229       2.20268     -31.19035
                        -----------------------------------------
Total Dipole Moment    :      0.43247      -0.13335      -0.62565
                        -----------------------------------------
Magnitude (a.u.)       :      0.77218
Magnitude (Debye)      :      1.96272

Rotational constants in cm-1:     0.015474     0.009836     0.006353
Rotational constants in MHz :   463.899031   294.865524   190.448767

                             ****ORCA TERMINATED NORMALLY****
TOTAL RUN TIME: 0 days 0 hours 0 minutes 29 seconds 768 msec
