                         Program Version 4.2.1 -  RELEASE  -
|  1> ! wB97X-D3 SP def2-SVP
|  2> %pal
|  3> nprocs 16
|  4> end
|  5>
|  6> * xyz 0 1
|  7> S 	 -74.7575 	 45.4693 	 125.833
|  8> C 	 -73.7462 	 44.2993 	 125.128
|  9> C 	 -72.4934 	 44.7739 	 124.877
| 10> C 	 -72.3372 	 46.1637 	 125.249
| 11> C 	 -73.5111 	 46.7464 	 125.653
| 12> H 	 -71.4245 	 46.8128 	 125.127
| 13> C 	 -71.3638 	 44.0199 	 124.247
| 14> H 	 -71.6154 	 42.934 	 124.292
| 15> H 	 -70.4957 	 44.0607 	 124.892
| 16> C 	 -71.1055 	 44.3464 	 122.762
| 17> H 	 -70.8975 	 45.4242 	 122.692
| 18> H 	 -70.1615 	 43.8961 	 122.503
| 19> C 	 -72.2037 	 43.866 	 121.817
| 20> H 	 -73.1627 	 44.2612 	 122.148
| 21> H 	 -72.0935 	 44.2274 	 120.762
| 22> H 	 -72.1939 	 42.794 	 121.781
| 23> S 	 -73.8291 	 49.2191 	 124.535
| 24> C 	 -74.1513 	 50.629 	 125.602
| 25> C 	 -74.1586 	 50.3204 	 126.925
| 26> C 	 -73.9915 	 48.8612 	 127.061
| 27> C 	 -73.5781 	 48.1591 	 125.912
| 28> H 	 -74.2561 	 51.0811 	 127.649
| 29> C 	 -74.2125 	 48.1866 	 128.364
| 30> H 	 -73.3386 	 48.3646 	 128.937
| 31> H 	 -74.2869 	 47.0622 	 128.461
| 32> C 	 -75.366 	 48.8189 	 129.172
| 33> H 	 -75.1484 	 49.8263 	 129.515
| 34> H 	 -75.5277 	 48.4215 	 130.144
| 35> C 	 -76.7879 	 48.7756 	 128.54
| 36> H 	 -76.9112 	 49.4532 	 127.693
| 37> H 	 -77.5138 	 48.9985 	 129.226
| 38> H 	 -76.8652 	 47.7642 	 128.208
| 39> H 	 -74.1322 	 43.3159 	 125.032
| 40> H 	 -74.1793 	 51.6643 	 125.261
| 41> *
| 42>
| 43>                          ****END OF INPUT****

CARTESIAN COORDINATES (ANGSTROEM)
---------------------------------
  S    -74.757500   45.469300  125.833000
  C    -73.746200   44.299300  125.128000
  C    -72.493400   44.773900  124.877000
  C    -72.337200   46.163700  125.249000
  C    -73.511100   46.746400  125.653000
  H    -71.424500   46.812800  125.127000
  C    -71.363800   44.019900  124.247000
  H    -71.615400   42.934000  124.292000
  H    -70.495700   44.060700  124.892000
  C    -71.105500   44.346400  122.762000
  H    -70.897500   45.424200  122.692000
  H    -70.161500   43.896100  122.503000
  C    -72.203700   43.866000  121.817000
  H    -73.162700   44.261200  122.148000
  H    -72.093500   44.227400  120.762000
  H    -72.193900   42.794000  121.781000
  S    -73.829100   49.219100  124.535000
  C    -74.151300   50.629000  125.602000
  C    -74.158600   50.320400  126.925000
  C    -73.991500   48.861200  127.061000
  C    -73.578100   48.159100  125.912000
  H    -74.256100   51.081100  127.649000
  C    -74.212500   48.186600  128.364000
  H    -73.338600   48.364600  128.937000
  H    -74.286900   47.062200  128.461000
  C    -75.366000   48.818900  129.172000
  H    -75.148400   49.826300  129.515000
  H    -75.527700   48.421500  130.144000
  C    -76.787900   48.775600  128.540000
  H    -76.911200   49.453200  127.693000
  H    -77.513800   48.998500  129.226000
  H    -76.865200   47.764200  128.208000
  H    -74.132200   43.315900  125.032000
  H    -74.179300   51.664300  125.261000

 Total Charge           Charge          ....    0
 Multiplicity           Mult            ....    1
 Number of Electrons    NEL             ....  134
 Basis Dimension        Dim             ....  322

ORBITAL ENERGIES
----------------

  NO   OCC          E(Eh)            E(eV)
   0   2.0000     -88.963795     -2420.8279
   1   2.0000     -88.961154     -2420.7561
   2   2.0000     -10.326375      -280.9949
   3   2.0000     -10.323278      -280.9107
   4   2.0000     -10.321715      -280.8681
   5   2.0000     -10.311334      -280.5857
   6   2.0000     -10.309745      -280.5424
   7   2.0000     -10.297963      -280.2218
   8   2.0000     -10.297914      -280.2205
   9   2.0000     -10.296610      -280.1850
  10   2.0000     -10.289493      -279.9913
  11   2.0000     -10.288411      -279.9619
  12   2.0000     -10.284226      -279.8480
  13   2.0000     -10.279645      -279.7234
  14   2.0000     -10.276164      -279.6286
  15   2.0000     -10.262849      -279.2663
  16   2.0000      -8.078820      -219.8359
  17   2.0000      -8.075293      -219.7399
  18   2.0000      -6.037415      -164.2864
  19   2.0000      -6.034087      -164.1958
  20   2.0000      -6.033233      -164.1726
  21   2.0000      -6.029948      -164.0832
  22   2.0000      -6.029523      -164.0717
  23   2.0000      -6.025689      -163.9673
  24   2.0000      -1.004982       -27.3470
  25   2.0000      -0.982439       -26.7335
  26   2.0000      -0.909475       -24.7481
  27   2.0000      -0.905717       -24.6458
  28   2.0000      -0.878226       -23.8977
  29   2.0000      -0.845692       -23.0125
  30   2.0000      -0.840831       -22.8802
  31   2.0000      -0.820857       -22.3367
  32   2.0000      -0.780519       -21.2390
  33   2.0000      -0.769271       -20.9329
  34   2.0000      -0.709956       -19.3189
  35   2.0000      -0.698443       -19.0056
  36   2.0000      -0.692008       -18.8305
  37   2.0000      -0.658800       -17.9269
  38   2.0000      -0.644065       -17.5259
  39   2.0000      -0.616952       -16.7881
  40   2.0000      -0.596423       -16.2295
  41   2.0000      -0.574051       -15.6207
  42   2.0000      -0.559027       -15.2119
  43   2.0000      -0.548240       -14.9184
  44   2.0000      -0.539117       -14.6701
  45   2.0000      -0.538793       -14.6613
  46   2.0000      -0.516858       -14.0644
  47   2.0000      -0.512682       -13.9508
  48   2.0000      -0.502197       -13.6655
  49   2.0000      -0.492978       -13.4146
  50   2.0000      -0.483430       -13.1548
  51   2.0000      -0.475825       -12.9479
  52   2.0000      -0.470176       -12.7941
  53   2.0000      -0.467161       -12.7121
  54   2.0000      -0.454023       -12.3546
  55   2.0000      -0.447814       -12.1856
  56   2.0000      -0.443914       -12.0795
  57   2.0000      -0.436906       -11.8888
  58   2.0000      -0.431527       -11.7424
  59   2.0000      -0.417975       -11.3737
  60   2.0000      -0.417143       -11.3510
  61   2.0000      -0.412413       -11.2223
  62   2.0000      -0.409463       -11.1420
  63   2.0000      -0.343322        -9.3423
  64   2.0000      -0.332554        -9.0493
  65   2.0000      -0.315775        -8.5927
  66   2.0000      -0.302473        -8.2307
  67   0.0000       0.037532         1.0213
  68   0.0000       0.060439         1.6446
  69   0.0000       0.105190         2.8624
  70   0.0000       0.118982         3.2377
  71   0.0000       0.128934         3.5085

MULLIKEN ATOMIC CHARGES
-----------------------
   0 S :    0.114612
   1 C :   -0.120128
   2 C :   -0.065436
   3 C :   -0.007797
   4 C :   -0.139710
   5 H :    0.044618
   6 C :    0.050127
   7 H :    0.009338
   8 H :    0.030915
   9 C :   -0.046636
  10 H :    0.025806
  11 H :    0.019754
  12 C :   -0.049895
  13 H :    0.040015
  14 H :    0.039898
  15 H :    0.026582
  16 S :    0.088429
  17 C :   -0.087184
  18 C :    0.005342
  19 C :   -0.068524
  20 C :   -0.143571
  21 H :    0.015749
  22 C :    0.077430
  23 H :    0.025873
  24 H :    0.040552
  25 C :   -0.106788
  26 H :    0.006329
  27 H :    0.008171
  28 C :   -0.003129
  29 H :    0.033970
  30 H :    0.014487
  31 H :    0.020506
  32 H :    0.041797
  33 H :    0.058498
Sum of atomic charges:    0.0000000

LOEWDIN ATOMIC CHARGES
----------------------
   0 S :    0.403324
   1 C :   -0.197575
   2 C :   -0.071770
   3 C :   -0.055751
   4 C :   -0.193053
   5 H :    0.044306
   6 C :   -0.036726
   7 H :    0.029110
   8 H :    0.031476
   9 C :   -0.038785
  10 H :    0.022796
  11 H :    0.020945
  12 C :   -0.064505
  13 H :    0.026489
  14 H :    0.033280
  15 H :    0.021487
  16 S :    0.379467
  17 C :   -0.159366
  18 C :   -0.061687
  19 C :   -0.037985
  20 C :   -0.208049
  21 H :    0.030162
  22 C :   -0.043239
  23 H :    0.035402
  24 H :    0.036855
  25 C :   -0.045092
  26 H :    0.015017
  27 H :    0.020879
  28 C :   -0.052910
  29 H :    0.024731
  30 H :    0.013218
  31 H :    0.023399
  32 H :    0.022921
  33 H :    0.031229

  Mayer bond orders larger than 0.100000
B(  0-S ,  1-C ) :   1.1496 B(  0-S ,  4-C ) :   1.1132 B(  1-C ,  2-C ) :   1.6076
B(  1-C , 32-H ) :   0.9753 B(  2-C ,  3-C ) :   1.2103 B(  2-C ,  6-C ) :   1.0357
B(  3-C ,  4-C ) :   1.5899 B(  3-C ,  5-H ) :   0.9869 B(  4-C , 20-C ) :   1.0727
B(  6-C ,  7-H ) :   0.9392 B(  6-C ,  8-H ) :   0.9381 B(  6-C ,  9-C ) :   1.0643
B(  9-C , 10-H ) :   0.9579 B(  9-C , 11-H ) :   0.9541 B(  9-C , 12-C ) :   1.0713
B( 12-C , 13-H ) :   0.9769 B( 12-C , 14-H ) :   0.9730 B( 12-C , 15-H ) :   0.9747
B( 16-S , 17-C ) :   1.1470 B( 16-S , 20-C ) :   1.1046 B( 17-C , 18-C ) :   1.6531
B( 17-C , 33-H ) :   0.9588 B( 18-C , 19-C ) :   1.1802 B( 18-C , 21-H ) :   0.9952
B( 19-C , 20-C ) :   1.6120 B( 19-C , 22-C ) :   1.0500 B( 22-C , 23-H ) :   0.9205
B( 22-C , 24-H ) :   0.9414 B( 22-C , 25-C ) :   1.0778 B( 25-C , 26-H ) :   0.9460
B( 25-C , 27-H ) :   0.9525 B( 25-C , 28-C ) :   1.0747 B( 28-C , 29-H ) :   0.9740
B( 28-C , 30-H ) :   0.9749 B( 28-C , 31-H ) :   0.9755

Dispersion correction           -0.015118584
FINAL SINGLE POINT ENERGY     -1339.867184846420

DIPOLE MOMENT
-------------
                                X             Y             Z
Electronic contribution:     -2.18016       6.37907      -2.21110
Nuclear contribution   :      2.42179      -6.38336       2.53511
                        -----------------------------------------
Total Dipole Moment    :      0.24163      -0.00428       0.32400
                        -----------------------------------------
Magnitude (a.u.)       :      0.40420
Magnitude (Debye)      :      1.02740

Rotational constants in cm-1:     0.025839     0.007785     0.006673
Rotational constants in MHz :   774.620245   233.375913   200.061271

                             ****ORCA TERMINATED NORMALLY****
TOTAL RUN TIME: 0 days 0 hours 0 minutes 33 seconds 446 msec
