                         Program Version 4.2.1 -  RELEASE  -
|  1> ! wB97X-D3 SP def2-SVP
|  2> %pal
|  3> nprocs 16
|  4> end
|  5>
|  6> * xyz 0 1
|  7> S 	 9.41404 	 27.6 	 42.3573
|  8> C 	 7.71081 	 27.7585 	 42.8189
|  9> C 	 6.83289 	 26.8064 	 42.3508
| 10> C 	 7.5637 	 25.8937 	 41.5148
| 11> C 	 8.91971 	 26.2452 	 41.3262
| 12> H 	 7.0845 	 25.1084 	 40.9035
| 13> C 	 5.34298 	 26.6094 	 42.7099
| 14> H 	 4.75413 	 27.1881 	 42.0364
| 15> H 	 5.08862 	 27.0133 	 43.7376
| 16> C 	 4.78434 	 25.1952 	 42.7175
| 17> H 	 3.71168 	 25.2093 	 42.8709
| 18> H 	 4.90744 	 24.6993 	 41.7683
| 19> C 	 5.50745 	 24.2365 	 43.7393
| 20> H 	 5.28074 	 24.6205 	 44.7243
| 21> H 	 4.9697 	 23.2722 	 43.6452
| 22> H 	 6.59125 	 24.1828 	 43.6722
| 23> S 	 11.6263 	 25.355 	 41.0852
| 24> C 	 12.0539 	 24.3729 	 39.7207
| 25> C 	 10.9713 	 24.0618 	 38.9682
| 26> C 	 9.78379 	 24.706 	 39.4102
| 27> C 	 9.94042 	 25.5056 	 40.5291
| 28> H 	 11.1075 	 23.4214 	 38.0795
| 29> C 	 8.52978 	 24.5029 	 38.5424
| 30> H 	 8.86461 	 24.412 	 37.489
| 31> H 	 7.8979 	 25.3802 	 38.6221
| 32> C 	 7.85131 	 23.1824 	 38.7436
| 33> H 	 7.524 	 22.9947 	 39.7727
| 34> H 	 8.53564 	 22.3609 	 38.488
| 35> C 	 6.56406 	 23.02 	 38.0163
| 36> H 	 5.81404 	 23.7625 	 38.2381
| 37> H 	 6.00405 	 22.0841 	 38.3342
| 38> H 	 6.74989 	 22.9369 	 36.9503
| 39> H 	 7.21925 	 28.5661 	 43.3862
| 40> H 	 13.0961 	 24.1355 	 39.4459
| 41> *
| 42>
| 43>                          ****END OF INPUT****

CARTESIAN COORDINATES (ANGSTROEM)
---------------------------------
  S      9.414040   27.600000   42.357300
  C      7.710810   27.758500   42.818900
  C      6.832890   26.806400   42.350800
  C      7.563700   25.893700   41.514800
  C      8.919710   26.245200   41.326200
  H      7.084500   25.108400   40.903500
  C      5.342980   26.609400   42.709900
  H      4.754130   27.188100   42.036400
  H      5.088620   27.013300   43.737600
  C      4.784340   25.195200   42.717500
  H      3.711680   25.209300   42.870900
  H      4.907440   24.699300   41.768300
  C      5.507450   24.236500   43.739300
  H      5.280740   24.620500   44.724300
  H      4.969700   23.272200   43.645200
  H      6.591250   24.182800   43.672200
  S     11.626300   25.355000   41.085200
  C     12.053900   24.372900   39.720700
  C     10.971300   24.061800   38.968200
  C      9.783790   24.706000   39.410200
  C      9.940420   25.505600   40.529100
  H     11.107500   23.421400   38.079500
  C      8.529780   24.502900   38.542400
  H      8.864610   24.412000   37.489000
  H      7.897900   25.380200   38.622100
  C      7.851310   23.182400   38.743600
  H      7.524000   22.994700   39.772700
  H      8.535640   22.360900   38.488000
  C      6.564060   23.020000   38.016300
  H      5.814040   23.762500   38.238100
  H      6.004050   22.084100   38.334200
  H      6.749890   22.936900   36.950300
  H      7.219250   28.566100   43.386200
  H     13.096100   24.135500   39.445900

 Total Charge           Charge          ....    0
 Multiplicity           Mult            ....    1
 Number of Electrons    NEL             ....  134
 Basis Dimension        Dim             ....  322

ORBITAL ENERGIES
----------------

  NO   OCC          E(Eh)            E(eV)
   0   2.0000     -88.975272     -2421.1402
   1   2.0000     -88.964039     -2420.8346
   2   2.0000     -10.339329      -281.3474
   3   2.0000     -10.331987      -281.1477
   4   2.0000     -10.316670      -280.7309
   5   2.0000     -10.316016      -280.7131
   6   2.0000     -10.305942      -280.4389
   7   2.0000     -10.302221      -280.3377
   8   2.0000     -10.302078      -280.3338
   9   2.0000     -10.300782      -280.2985
  10   2.0000     -10.292253      -280.0664
  11   2.0000     -10.291904      -280.0569
  12   2.0000     -10.290138      -280.0089
  13   2.0000     -10.283447      -279.8268
  14   2.0000     -10.278599      -279.6949
  15   2.0000     -10.278595      -279.6948
  16   2.0000      -8.088800      -220.1074
  17   2.0000      -8.078751      -219.8340
  18   2.0000      -6.047344      -164.5566
  19   2.0000      -6.043750      -164.4588
  20   2.0000      -6.039330      -164.3385
  21   2.0000      -6.037384      -164.2856
  22   2.0000      -6.033313      -164.1748
  23   2.0000      -6.029346      -164.0668
  24   2.0000      -1.003035       -27.2940
  25   2.0000      -0.982629       -26.7387
  26   2.0000      -0.917735       -24.9728
  27   2.0000      -0.910928       -24.7876
  28   2.0000      -0.865938       -23.5634
  29   2.0000      -0.854390       -23.2491
  30   2.0000      -0.842900       -22.9365
  31   2.0000      -0.811577       -22.0841
  32   2.0000      -0.786250       -21.3950
  33   2.0000      -0.775563       -21.1041
  34   2.0000      -0.706713       -19.2306
  35   2.0000      -0.695269       -18.9192
  36   2.0000      -0.691068       -18.8049
  37   2.0000      -0.659467       -17.9450
  38   2.0000      -0.632606       -17.2141
  39   2.0000      -0.620789       -16.8925
  40   2.0000      -0.597506       -16.2590
  41   2.0000      -0.575962       -15.6727
  42   2.0000      -0.566555       -15.4167
  43   2.0000      -0.554248       -15.0819
  44   2.0000      -0.539591       -14.6830
  45   2.0000      -0.524235       -14.2652
  46   2.0000      -0.515762       -14.0346
  47   2.0000      -0.511549       -13.9200
  48   2.0000      -0.502761       -13.6808
  49   2.0000      -0.494404       -13.4534
  50   2.0000      -0.486705       -13.2439
  51   2.0000      -0.483670       -13.1613
  52   2.0000      -0.476128       -12.9561
  53   2.0000      -0.463670       -12.6171
  54   2.0000      -0.460416       -12.5286
  55   2.0000      -0.452081       -12.3017
  56   2.0000      -0.443100       -12.0574
  57   2.0000      -0.436125       -11.8676
  58   2.0000      -0.432528       -11.7697
  59   2.0000      -0.428073       -11.6485
  60   2.0000      -0.420076       -11.4309
  61   2.0000      -0.417234       -11.3535
  62   2.0000      -0.409261       -11.1366
  63   2.0000      -0.355292        -9.6680
  64   2.0000      -0.337547        -9.1851
  65   2.0000      -0.330824        -9.0022
  66   2.0000      -0.285147        -7.7592
  67   0.0000       0.021951         0.5973
  68   0.0000       0.077853         2.1185
  69   0.0000       0.097744         2.6598
  70   0.0000       0.118005         3.2111
  71   0.0000       0.125990         3.4284

MULLIKEN ATOMIC CHARGES
-----------------------
   0 S :    0.122182
   1 C :   -0.111949
   2 C :   -0.100548
   3 C :    0.004685
   4 C :   -0.149416
   5 H :    0.012302
   6 C :    0.083116
   7 H :    0.033741
   8 H :    0.032376
   9 C :   -0.092628
  10 H :    0.032091
  11 H :    0.018750
  12 C :   -0.060311
  13 H :    0.018684
  14 H :    0.039758
  15 H :    0.057975
  16 S :    0.085065
  17 C :   -0.099296
  18 C :   -0.038876
  19 C :   -0.046359
  20 C :   -0.104879
  21 H :    0.029791
  22 C :    0.055469
  23 H :    0.021779
  24 H :    0.029298
  25 C :   -0.073911
  26 H :    0.022853
  27 H :    0.028437
  28 C :   -0.049929
  29 H :    0.025938
  30 H :    0.034789
  31 H :    0.027790
  32 H :    0.043348
  33 H :    0.067883
Sum of atomic charges:   -0.0000000

LOEWDIN ATOMIC CHARGES
----------------------
   0 S :    0.394276
   1 C :   -0.194137
   2 C :   -0.063588
   3 C :   -0.062783
   4 C :   -0.179315
   5 H :    0.032620
   6 C :   -0.031282
   7 H :    0.029964
   8 H :    0.037137
   9 C :   -0.041996
  10 H :    0.028467
  11 H :    0.015652
  12 C :   -0.063890
  13 H :    0.019576
  14 H :    0.030829
  15 H :    0.029478
  16 S :    0.385874
  17 C :   -0.187325
  18 C :   -0.078691
  19 C :   -0.056663
  20 C :   -0.189981
  21 H :    0.037891
  22 C :   -0.030970
  23 H :    0.035074
  24 H :    0.026993
  25 C :   -0.049963
  26 H :    0.021268
  27 H :    0.027691
  28 C :   -0.067641
  29 H :    0.021394
  30 H :    0.034059
  31 H :    0.020452
  32 H :    0.032452
  33 H :    0.037077

  Mayer bond orders larger than 0.100000
B(  0-S ,  1-C ) :   1.1262 B(  0-S ,  4-C ) :   1.1389 B(  1-C ,  2-C ) :   1.6697
B(  1-C , 32-H ) :   0.9522 B(  2-C ,  3-C ) :   1.2389 B(  2-C ,  6-C ) :   0.9980
B(  3-C ,  4-C ) :   1.5784 B(  3-C ,  5-H ) :   0.9756 B(  4-C , 20-C ) :   1.0535
B(  6-C ,  7-H ) :   0.9289 B(  6-C ,  8-H ) :   0.9482 B(  6-C ,  9-C ) :   1.0920
B(  9-C , 10-H ) :   0.9521 B(  9-C , 11-H ) :   0.9496 B(  9-C , 12-C ) :   1.0685
B( 12-C , 13-H ) :   0.9770 B( 12-C , 14-H ) :   0.9757 B( 12-C , 15-H ) :   0.9759
B( 16-S , 17-C ) :   1.1532 B( 16-S , 20-C ) :   1.1127 B( 17-C , 18-C ) :   1.6230
B( 17-C , 33-H ) :   0.9609 B( 18-C , 19-C ) :   1.2362 B( 18-C , 21-H ) :   0.9870
B( 19-C , 20-C ) :   1.6225 B( 19-C , 22-C ) :   1.0388 B( 22-C , 23-H ) :   0.9328
B( 22-C , 24-H ) :   0.9412 B( 22-C , 25-C ) :   1.0624 B( 25-C , 26-H ) :   0.9511
B( 25-C , 27-H ) :   0.9483 B( 25-C , 28-C ) :   1.0968 B( 28-C , 29-H ) :   0.9712
B( 28-C , 30-H ) :   0.9719 B( 28-C , 31-H ) :   0.9716

Dispersion correction           -0.014582453
FINAL SINGLE POINT ENERGY     -1339.879769082183

DIPOLE MOMENT
-------------
                                X             Y             Z
Electronic contribution:     27.01607      15.35287       5.58247
Nuclear contribution   :    -27.65672     -15.67545      -5.89476
                        -----------------------------------------
Total Dipole Moment    :     -0.64065      -0.32258      -0.31229
                        -----------------------------------------
Magnitude (a.u.)       :      0.78231
Magnitude (Debye)      :      1.98847

Rotational constants in cm-1:     0.016123     0.010427     0.007089
Rotational constants in MHz :   483.344704   312.601676   212.519199

                             ****ORCA TERMINATED NORMALLY****
TOTAL RUN TIME: 0 days 0 hours 0 minutes 35 seconds 708 msec
