                         Program Version 4.2.1 -  RELEASE  -
|  1> ! wB97X-D3 SP def2-SVP
|  2> %pal
|  3> nprocs 16
|  4> end
|  5>
|  6> * xyz 0 1
|  7> S 	 -95.2082 	 51.9544 	 121.615
|  8> C 	 -96.5584 	 51.0142 	 121.142
|  9> C 	 -97.2417 	 50.3344 	 122.132
| 10> C 	 -96.4748 	 50.467 	 123.33
| 11> C 	 -95.2764 	 51.2642 	 123.227
| 12> H 	 -96.8994 	 50.0348 	 124.197
| 13> C 	 -98.5803 	 49.6606 	 122.066
| 14> H 	 -98.5405 	 48.8555 	 122.791
| 15> H 	 -98.7298 	 49.0484 	 121.224
| 16> C 	 -99.7731 	 50.603 	 122.26
| 17> H 	 -100.532 	 50.0107 	 122.758
| 18> H 	 -99.4072 	 51.3535 	 122.932
| 19> C 	 -100.356 	 51.1775 	 120.975
| 20> H 	 -101.113 	 50.5005 	 120.515
| 21> H 	 -100.785 	 52.0711 	 121.175
| 22> H 	 -99.5305 	 51.381 	 120.318
| 23> S 	 -92.5468 	 51.7187 	 123.396
| 24> C 	 -91.7544 	 51.5817 	 124.88
| 25> C 	 -92.6203 	 51.446 	 125.93
| 26> C 	 -93.9495 	 51.2815 	 125.51
| 27> C 	 -94.0878 	 51.3089 	 124.121
| 28> H 	 -92.2666 	 51.2482 	 126.914
| 29> C 	 -95.0566 	 50.846 	 126.524
| 30> H 	 -96.0722 	 51.2719 	 126.125
| 31> H 	 -94.7516 	 51.3206 	 127.414
| 32> C 	 -95.1846 	 49.3669 	 126.79
| 33> H 	 -94.172 	 48.9927 	 126.924
| 34> H 	 -95.5948 	 48.8135 	 125.921
| 35> C 	 -95.9715 	 48.8931 	 127.924
| 36> H 	 -96.9989 	 49.2309 	 127.833
| 37> H 	 -95.5527 	 49.353 	 128.802
| 38> H 	 -95.7868 	 47.8718 	 128.177
| 39> H 	 -96.9471 	 51.0935 	 120.119
| 40> H 	 -90.678 	 51.481 	 125.002
| 41> *
| 42>
| 43>                          ****END OF INPUT****

CARTESIAN COORDINATES (ANGSTROEM)
---------------------------------
  S    -95.208200   51.954400  121.615000
  C    -96.558400   51.014200  121.142000
  C    -97.241700   50.334400  122.132000
  C    -96.474800   50.467000  123.330000
  C    -95.276400   51.264200  123.227000
  H    -96.899400   50.034800  124.197000
  C    -98.580300   49.660600  122.066000
  H    -98.540500   48.855500  122.791000
  H    -98.729800   49.048400  121.224000
  C    -99.773100   50.603000  122.260000
  H    -100.532000   50.010700  122.758000
  H    -99.407200   51.353500  122.932000
  C    -100.356000   51.177500  120.975000
  H    -101.113000   50.500500  120.515000
  H    -100.785000   52.071100  121.175000
  H    -99.530500   51.381000  120.318000
  S    -92.546800   51.718700  123.396000
  C    -91.754400   51.581700  124.880000
  C    -92.620300   51.446000  125.930000
  C    -93.949500   51.281500  125.510000
  C    -94.087800   51.308900  124.121000
  H    -92.266600   51.248200  126.914000
  C    -95.056600   50.846000  126.524000
  H    -96.072200   51.271900  126.125000
  H    -94.751600   51.320600  127.414000
  C    -95.184600   49.366900  126.790000
  H    -94.172000   48.992700  126.924000
  H    -95.594800   48.813500  125.921000
  C    -95.971500   48.893100  127.924000
  H    -96.998900   49.230900  127.833000
  H    -95.552700   49.353000  128.802000
  H    -95.786800   47.871800  128.177000
  H    -96.947100   51.093500  120.119000
  H    -90.678000   51.481000  125.002000

 Total Charge           Charge          ....    0
 Multiplicity           Mult            ....    1
 Number of Electrons    NEL             ....  134
 Basis Dimension        Dim             ....  322

ORBITAL ENERGIES
----------------

  NO   OCC          E(Eh)            E(eV)
   0   2.0000     -88.970705     -2421.0160
   1   2.0000     -88.966025     -2420.8886
   2   2.0000     -10.338279      -281.3189
   3   2.0000     -10.329601      -281.0827
   4   2.0000     -10.311727      -280.5964
   5   2.0000     -10.310622      -280.5663
   6   2.0000     -10.301822      -280.3268
   7   2.0000     -10.298684      -280.2414
   8   2.0000     -10.296975      -280.1949
   9   2.0000     -10.296098      -280.1711
  10   2.0000     -10.287522      -279.9377
  11   2.0000     -10.286940      -279.9219
  12   2.0000     -10.282638      -279.8048
  13   2.0000     -10.278536      -279.6932
  14   2.0000     -10.271131      -279.4917
  15   2.0000     -10.269553      -279.4487
  16   2.0000      -8.085852      -220.0272
  17   2.0000      -8.081958      -219.9213
  18   2.0000      -6.044270      -164.4730
  19   2.0000      -6.040356      -164.3664
  20   2.0000      -6.040321      -164.3655
  21   2.0000      -6.036656      -164.2658
  22   2.0000      -6.036284      -164.2556
  23   2.0000      -6.032819      -164.1614
  24   2.0000      -1.010484       -27.4967
  25   2.0000      -0.989424       -26.9236
  26   2.0000      -0.918376       -24.9903
  27   2.0000      -0.916782       -24.9469
  28   2.0000      -0.867819       -23.6146
  29   2.0000      -0.860686       -23.4205
  30   2.0000      -0.850942       -23.1553
  31   2.0000      -0.810344       -22.0506
  32   2.0000      -0.790857       -21.5203
  33   2.0000      -0.777860       -21.1666
  34   2.0000      -0.706676       -19.2296
  35   2.0000      -0.698965       -19.0198
  36   2.0000      -0.688071       -18.7234
  37   2.0000      -0.666725       -18.1425
  38   2.0000      -0.634059       -17.2536
  39   2.0000      -0.628799       -17.1105
  40   2.0000      -0.597872       -16.2689
  41   2.0000      -0.580060       -15.7842
  42   2.0000      -0.572890       -15.5891
  43   2.0000      -0.550174       -14.9710
  44   2.0000      -0.543254       -14.7827
  45   2.0000      -0.533075       -14.5057
  46   2.0000      -0.517790       -14.0898
  47   2.0000      -0.512783       -13.9535
  48   2.0000      -0.509918       -13.8756
  49   2.0000      -0.496312       -13.5053
  50   2.0000      -0.491966       -13.3871
  51   2.0000      -0.480086       -13.0638
  52   2.0000      -0.475005       -12.9256
  53   2.0000      -0.466137       -12.6842
  54   2.0000      -0.464071       -12.6280
  55   2.0000      -0.453733       -12.3467
  56   2.0000      -0.447438       -12.1754
  57   2.0000      -0.438605       -11.9350
  58   2.0000      -0.432662       -11.7733
  59   2.0000      -0.428042       -11.6476
  60   2.0000      -0.416084       -11.3222
  61   2.0000      -0.412403       -11.2221
  62   2.0000      -0.409318       -11.1381
  63   2.0000      -0.356775        -9.7083
  64   2.0000      -0.336722        -9.1627
  65   2.0000      -0.332345        -9.0436
  66   2.0000      -0.277934        -7.5630
  67   0.0000       0.020355         0.5539
  68   0.0000       0.076552         2.0831
  69   0.0000       0.102912         2.8004
  70   0.0000       0.122536         3.3344
  71   0.0000       0.132446         3.6040

MULLIKEN ATOMIC CHARGES
-----------------------
   0 S :    0.118108
   1 C :   -0.147215
   2 C :   -0.094842
   3 C :    0.022443
   4 C :   -0.121740
   5 H :   -0.016504
   6 C :    0.075873
   7 H :    0.009035
   8 H :    0.007206
   9 C :   -0.055252
  10 H :    0.025403
  11 H :    0.027117
  12 C :    0.008671
  13 H :    0.041980
  14 H :    0.009717
  15 H :    0.014756
  16 S :    0.106085
  17 C :   -0.088928
  18 C :   -0.020007
  19 C :   -0.063145
  20 C :   -0.122501
  21 H :    0.007182
  22 C :    0.066024
  23 H :    0.042000
  24 H :    0.004122
  25 C :   -0.079728
  26 H :    0.011989
  27 H :    0.027834
  28 C :    0.010669
  29 H :    0.030546
  30 H :   -0.000135
  31 H :    0.030382
  32 H :    0.052291
  33 H :    0.060565
Sum of atomic charges:    0.0000000

LOEWDIN ATOMIC CHARGES
----------------------
   0 S :    0.423493
   1 C :   -0.209012
   2 C :   -0.064962
   3 C :   -0.058704
   4 C :   -0.192051
   5 H :    0.017273
   6 C :   -0.033436
   7 H :    0.031424
   8 H :    0.025357
   9 C :   -0.031537
  10 H :    0.024588
  11 H :    0.023661
  12 C :   -0.052908
  13 H :    0.033374
  14 H :    0.013595
  15 H :    0.022346
  16 S :    0.428620
  17 C :   -0.200328
  18 C :   -0.073750
  19 C :   -0.057040
  20 C :   -0.195655
  21 H :    0.026755
  22 C :   -0.026528
  23 H :    0.037745
  24 H :    0.020934
  25 C :   -0.052818
  26 H :    0.023533
  27 H :    0.024504
  28 C :   -0.061070
  29 H :    0.025547
  30 H :    0.020191
  31 H :    0.029823
  32 H :    0.024026
  33 H :    0.033010

  Mayer bond orders larger than 0.100000
B(  0-S ,  1-C ) :   1.1679 B(  0-S ,  4-C ) :   1.1570 B(  1-C ,  2-C ) :   1.5774
B(  1-C , 32-H ) :   0.9562 B(  2-C ,  3-C ) :   1.3069 B(  2-C ,  6-C ) :   1.0344
B(  3-C ,  4-C ) :   1.5018 B(  3-C ,  5-H ) :   0.9874 B(  4-C , 20-C ) :   1.0682
B(  6-C ,  7-H ) :   0.9312 B(  6-C ,  8-H ) :   0.9363 B(  6-C ,  9-C ) :   1.0541
B(  9-C , 10-H ) :   0.9553 B(  9-C , 11-H ) :   0.9591 B(  9-C , 12-C ) :   1.0821
B( 12-C , 13-H ) :   0.9740 B( 12-C , 14-H ) :   0.9699 B( 12-C , 15-H ) :   0.9737
B( 16-S , 17-C ) :   1.1824 B( 16-S , 20-C ) :   1.1451 B( 17-C , 18-C ) :   1.5800
B( 17-C , 33-H ) :   0.9638 B( 18-C , 19-C ) :   1.2811 B( 18-C , 21-H ) :   0.9926
B( 19-C , 20-C ) :   1.5596 B( 19-C , 22-C ) :   1.0467 B( 22-C , 23-H ) :   0.9280
B( 22-C , 24-H ) :   0.9270 B( 22-C , 25-C ) :   1.0766 B( 25-C , 26-H ) :   0.9453
B( 25-C , 27-H ) :   0.9454 B( 25-C , 28-C ) :   1.1069 B( 28-C , 29-H ) :   0.9703
B( 28-C , 30-H ) :   0.9632 B( 28-C , 31-H ) :   0.9659

Dispersion correction           -0.014043985
FINAL SINGLE POINT ENERGY     -1339.858142292133

DIPOLE MOMENT
-------------
                                X             Y             Z
Electronic contribution:     24.04102      11.66317     -11.72814
Nuclear contribution   :    -24.40745     -12.05980      12.08771
                        -----------------------------------------
Total Dipole Moment    :     -0.36643      -0.39663       0.35958
                        -----------------------------------------
Magnitude (a.u.)       :      0.64875
Magnitude (Debye)      :      1.64900

Rotational constants in cm-1:     0.018849     0.008666     0.006189
Rotational constants in MHz :   565.067561   259.800174   185.555904

                             ****ORCA TERMINATED NORMALLY****
TOTAL RUN TIME: 0 days 0 hours 0 minutes 33 seconds 621 msec
