                         Program Version 4.2.1 -  RELEASE  -
|  1> ! wB97X-D3 SP def2-SVP
|  2> %pal
|  3> nprocs 16
|  4> end
|  5>
|  6> * xyz 0 1
|  7> S 	 -66.5857 	 35.6915 	 142.872
|  8> C 	 -67.4275 	 35.6982 	 141.341
|  9> C 	 -66.8158 	 34.9251 	 140.37
| 10> C 	 -65.5928 	 34.3614 	 140.814
| 11> C 	 -65.2375 	 34.7627 	 142.134
| 12> H 	 -65.0563 	 33.6206 	 140.322
| 13> C 	 -67.4645 	 34.6963 	 139.001
| 14> H 	 -67.875 	 35.6489 	 138.688
| 15> H 	 -68.2786 	 33.9192 	 139.105
| 16> C 	 -66.6773 	 34.1355 	 137.794
| 17> H 	 -66.2318 	 33.1237 	 137.886
| 18> H 	 -67.3966 	 34.2299 	 136.991
| 19> C 	 -65.5344 	 34.9938 	 137.265
| 20> H 	 -64.7905 	 35.0618 	 138.116
| 21> H 	 -65.1376 	 34.6604 	 136.375
| 22> H 	 -65.9542 	 36.0191 	 137.144
| 23> S 	 -64.603 	 33.6416 	 144.528
| 24> C 	 -62.9361 	 33.6126 	 145.065
| 25> C 	 -62.088 	 33.9345 	 144.008
| 26> C 	 -62.7891 	 34.3417 	 142.829
| 27> C 	 -64.1561 	 34.2589 	 142.901
| 28> H 	 -61.0303 	 33.8078 	 144.23
| 29> C 	 -62.0658 	 34.9235 	 141.639
| 30> H 	 -62.8457 	 35.4459 	 140.956
| 31> H 	 -61.5863 	 34.0933 	 141.058
| 32> C 	 -61.1806 	 36.1913 	 141.953
| 33> H 	 -60.7123 	 36.4586 	 141.008
| 34> H 	 -60.487 	 36.0059 	 142.776
| 35> C 	 -61.9661 	 37.4556 	 142.133
| 36> H 	 -61.2359 	 38.2171 	 142.436
| 37> H 	 -62.6596 	 37.4242 	 142.935
| 38> H 	 -62.4452 	 37.9744 	 141.251
| 39> H 	 -68.3918 	 36.1635 	 141.202
| 40> H 	 -62.5934 	 33.2554 	 145.993
| 41> *
| 42>
| 43>                          ****END OF INPUT****

CARTESIAN COORDINATES (ANGSTROEM)
---------------------------------
  S    -66.585700   35.691500  142.872000
  C    -67.427500   35.698200  141.341000
  C    -66.815800   34.925100  140.370000
  C    -65.592800   34.361400  140.814000
  C    -65.237500   34.762700  142.134000
  H    -65.056300   33.620600  140.322000
  C    -67.464500   34.696300  139.001000
  H    -67.875000   35.648900  138.688000
  H    -68.278600   33.919200  139.105000
  C    -66.677300   34.135500  137.794000
  H    -66.231800   33.123700  137.886000
  H    -67.396600   34.229900  136.991000
  C    -65.534400   34.993800  137.265000
  H    -64.790500   35.061800  138.116000
  H    -65.137600   34.660400  136.375000
  H    -65.954200   36.019100  137.144000
  S    -64.603000   33.641600  144.528000
  C    -62.936100   33.612600  145.065000
  C    -62.088000   33.934500  144.008000
  C    -62.789100   34.341700  142.829000
  C    -64.156100   34.258900  142.901000
  H    -61.030300   33.807800  144.230000
  C    -62.065800   34.923500  141.639000
  H    -62.845700   35.445900  140.956000
  H    -61.586300   34.093300  141.058000
  C    -61.180600   36.191300  141.953000
  H    -60.712300   36.458600  141.008000
  H    -60.487000   36.005900  142.776000
  C    -61.966100   37.455600  142.133000
  H    -61.235900   38.217100  142.436000
  H    -62.659600   37.424200  142.935000
  H    -62.445200   37.974400  141.251000
  H    -68.391800   36.163500  141.202000
  H    -62.593400   33.255400  145.993000

 Total Charge           Charge          ....    0
 Multiplicity           Mult            ....    1
 Number of Electrons    NEL             ....  134
 Basis Dimension        Dim             ....  322

ORBITAL ENERGIES
----------------

  NO   OCC          E(Eh)            E(eV)
   0   2.0000     -88.971323     -2421.0328
   1   2.0000     -88.960572     -2420.7402
   2   2.0000     -10.334233      -281.2088
   3   2.0000     -10.324883      -280.9543
   4   2.0000     -10.316294      -280.7206
   5   2.0000     -10.313449      -280.6432
   6   2.0000     -10.303822      -280.3812
   7   2.0000     -10.302565      -280.3471
   8   2.0000     -10.300463      -280.2898
   9   2.0000     -10.296701      -280.1875
  10   2.0000     -10.296019      -280.1689
  11   2.0000     -10.295727      -280.1610
  12   2.0000     -10.288357      -279.9604
  13   2.0000     -10.285963      -279.8953
  14   2.0000     -10.274318      -279.5784
  15   2.0000     -10.271150      -279.4922
  16   2.0000      -8.084919      -220.0018
  17   2.0000      -8.074933      -219.7301
  18   2.0000      -6.043412      -164.4496
  19   2.0000      -6.039628      -164.3466
  20   2.0000      -6.035705      -164.2399
  21   2.0000      -6.033530      -164.1807
  22   2.0000      -6.029442      -164.0695
  23   2.0000      -6.025650      -163.9663
  24   2.0000      -1.002922       -27.2909
  25   2.0000      -0.978863       -26.6362
  26   2.0000      -0.910893       -24.7866
  27   2.0000      -0.904136       -24.6028
  28   2.0000      -0.874104       -23.7856
  29   2.0000      -0.852446       -23.1962
  30   2.0000      -0.844398       -22.9773
  31   2.0000      -0.815474       -22.1902
  32   2.0000      -0.780934       -21.2503
  33   2.0000      -0.768444       -20.9104
  34   2.0000      -0.712366       -19.3845
  35   2.0000      -0.692242       -18.8369
  36   2.0000      -0.686831       -18.6896
  37   2.0000      -0.656382       -17.8611
  38   2.0000      -0.641527       -17.4568
  39   2.0000      -0.622192       -16.9307
  40   2.0000      -0.594434       -16.1754
  41   2.0000      -0.570481       -15.5236
  42   2.0000      -0.556568       -15.1450
  43   2.0000      -0.551119       -14.9967
  44   2.0000      -0.545366       -14.8402
  45   2.0000      -0.541502       -14.7350
  46   2.0000      -0.524593       -14.2749
  47   2.0000      -0.512052       -13.9337
  48   2.0000      -0.502942       -13.6857
  49   2.0000      -0.496482       -13.5100
  50   2.0000      -0.491415       -13.3721
  51   2.0000      -0.482569       -13.1314
  52   2.0000      -0.470727       -12.8091
  53   2.0000      -0.456406       -12.4194
  54   2.0000      -0.452984       -12.3263
  55   2.0000      -0.446855       -12.1595
  56   2.0000      -0.437895       -11.9157
  57   2.0000      -0.435027       -11.8377
  58   2.0000      -0.428028       -11.6472
  59   2.0000      -0.425318       -11.5735
  60   2.0000      -0.414580       -11.2813
  61   2.0000      -0.409471       -11.1423
  62   2.0000      -0.399458       -10.8698
  63   2.0000      -0.347668        -9.4605
  64   2.0000      -0.333804        -9.0833
  65   2.0000      -0.326227        -8.8771
  66   2.0000      -0.287550        -7.8246
  67   0.0000       0.021310         0.5799
  68   0.0000       0.062820         1.7094
  69   0.0000       0.109421         2.9775
  70   0.0000       0.124787         3.3956
  71   0.0000       0.130943         3.5631

MULLIKEN ATOMIC CHARGES
-----------------------
   0 S :    0.124148
   1 C :   -0.128844
   2 C :   -0.067005
   3 C :    0.052242
   4 C :   -0.150389
   5 H :   -0.002940
   6 C :    0.044626
   7 H :    0.028624
   8 H :    0.059236
   9 C :   -0.100594
  10 H :    0.041307
  11 H :    0.027759
  12 C :   -0.044316
  13 H :    0.033705
  14 H :    0.028743
  15 H :    0.020803
  16 S :    0.078898
  17 C :   -0.081607
  18 C :   -0.044025
  19 C :   -0.008653
  20 C :   -0.155227
  21 H :    0.026688
  22 C :   -0.003598
  23 H :    0.039853
  24 H :    0.054246
  25 C :   -0.056204
  26 H :    0.030485
  27 H :    0.039780
  28 C :   -0.074142
  29 H :    0.024536
  30 H :    0.029362
  31 H :    0.045260
  32 H :    0.045299
  33 H :    0.041943
Sum of atomic charges:    0.0000000

LOEWDIN ATOMIC CHARGES
----------------------
   0 S :    0.402249
   1 C :   -0.195781
   2 C :   -0.067733
   3 C :   -0.046172
   4 C :   -0.183614
   5 H :    0.021368
   6 C :   -0.033402
   7 H :    0.031265
   8 H :    0.045875
   9 C :   -0.049366
  10 H :    0.025943
  11 H :    0.027793
  12 C :   -0.062991
  13 H :    0.027552
  14 H :    0.012775
  15 H :    0.025136
  16 S :    0.377112
  17 C :   -0.170104
  18 C :   -0.075561
  19 C :   -0.060287
  20 C :   -0.186652
  21 H :    0.034775
  22 C :   -0.044839
  23 H :    0.040984
  24 H :    0.035793
  25 C :   -0.041068
  26 H :    0.031594
  27 H :    0.022421
  28 C :   -0.073165
  29 H :    0.030560
  30 H :    0.016548
  31 H :    0.033942
  32 H :    0.026730
  33 H :    0.020321

  Mayer bond orders larger than 0.100000
B(  0-S ,  1-C ) :   1.1450 B(  0-S ,  4-C ) :   1.1447 B(  1-C ,  2-C ) :   1.5969
B(  1-C ,  4-C ) :   0.1016 B(  1-C , 32-H ) :   0.9702 B(  2-C ,  3-C ) :   1.2715
B(  2-C ,  6-C ) :   1.0015 B(  3-C ,  4-C ) :   1.5191 B(  3-C ,  5-H ) :   0.9995
B(  4-C , 20-C ) :   1.0925 B(  6-C ,  7-H ) :   0.9436 B(  6-C ,  8-H ) :   0.9385
B(  6-C ,  9-C ) :   1.0864 B(  9-C , 10-H ) :   0.9523 B(  9-C , 11-H ) :   0.9531
B(  9-C , 12-C ) :   1.0812 B( 12-C , 13-H ) :   0.9752 B( 12-C , 14-H ) :   0.9760
B( 12-C , 15-H ) :   0.9730 B( 16-S , 17-C ) :   1.1538 B( 16-S , 20-C ) :   1.1091
B( 17-C , 18-C ) :   1.6193 B( 17-C , 33-H ) :   0.9712 B( 18-C , 19-C ) :   1.2082
B( 18-C , 21-H ) :   0.9929 B( 19-C , 20-C ) :   1.6070 B( 19-C , 22-C ) :   1.0390
B( 22-C , 23-H ) :   0.9382 B( 22-C , 24-H ) :   0.9392 B( 22-C , 25-C ) :   1.0569
B( 25-C , 26-H ) :   0.9534 B( 25-C , 27-H ) :   0.9596 B( 25-C , 28-C ) :   1.0817
B( 28-C , 29-H ) :   0.9674 B( 28-C , 30-H ) :   0.9754 B( 28-C , 31-H ) :   0.9713

Dispersion correction           -0.014536109
FINAL SINGLE POINT ENERGY     -1339.858721993411

DIPOLE MOMENT
-------------
                                X             Y             Z
Electronic contribution:     -9.21158      -7.31223      23.81484
Nuclear contribution   :      9.39337       7.30068     -24.31993
                        -----------------------------------------
Total Dipole Moment    :      0.18180      -0.01154      -0.50510
                        -----------------------------------------
Magnitude (a.u.)       :      0.53694
Magnitude (Debye)      :      1.36480

Rotational constants in cm-1:     0.018668     0.009038     0.007363
Rotational constants in MHz :   559.661107   270.966699   220.738101

                             ****ORCA TERMINATED NORMALLY****
TOTAL RUN TIME: 0 days 0 hours 0 minutes 33 seconds 979 msec
