                         Program Version 4.2.1 -  RELEASE  -
|  1> ! wB97X-D3 SP def2-SVP
|  2> %pal
|  3> nprocs 16
|  4> end
|  5>
|  6> * xyz 0 1
|  7> S 	 -54.2425 	 60.025 	 135.57
|  8> C 	 -53.6429 	 61.0177 	 134.297
|  9> C 	 -53.4939 	 62.2935 	 134.682
| 10> C 	 -53.929 	 62.4788 	 136.018
| 11> C 	 -54.395 	 61.3608 	 136.641
| 12> H 	 -54.1127 	 63.3638 	 136.709
| 13> C 	 -53.1128 	 63.5463 	 133.846
| 14> H 	 -52.033 	 63.7156 	 133.94
| 15> H 	 -53.5925 	 64.4322 	 134.281
| 16> C 	 -53.4238 	 63.4651 	 132.337
| 17> H 	 -52.8728 	 62.6297 	 131.847
| 18> H 	 -54.4497 	 63.1515 	 132.215
| 19> C 	 -52.9623 	 64.6362 	 131.555
| 20> H 	 -53.0375 	 64.4574 	 130.473
| 21> H 	 -53.436 	 65.5913 	 131.724
| 22> H 	 -51.8991 	 64.8146 	 131.7
| 23> S 	 -56.5307 	 61.379 	 138.257
| 24> C 	 -56.3219 	 61.2611 	 139.987
| 25> C 	 -54.9782 	 61.198 	 140.371
| 26> C 	 -54.1774 	 61.2136 	 139.155
| 27> C 	 -54.8695 	 61.2836 	 137.996
| 28> H 	 -54.7439 	 61.2884 	 141.48
| 29> C 	 -52.6677 	 61.3981 	 139.209
| 30> H 	 -52.3894 	 61.8919 	 140.2
| 31> H 	 -52.3829 	 62.0255 	 138.328
| 32> C 	 -51.8042 	 60.1023 	 139.076
| 33> H 	 -50.7322 	 60.2826 	 139.329
| 34> H 	 -51.7639 	 59.7149 	 138.089
| 35> C 	 -52.2409 	 59.0187 	 139.999
| 36> H 	 -53.2509 	 58.5874 	 139.738
| 37> H 	 -52.3282 	 59.438 	 141.016
| 38> H 	 -51.4156 	 58.2985 	 140.097
| 39> H 	 -53.5245 	 60.6377 	 133.31
| 40> H 	 -57.1694 	 61.3536 	 140.654
| 41> *
| 42>
| 43>                          ****END OF INPUT****

CARTESIAN COORDINATES (ANGSTROEM)
---------------------------------
  S    -54.242500   60.025000  135.570000
  C    -53.642900   61.017700  134.297000
  C    -53.493900   62.293500  134.682000
  C    -53.929000   62.478800  136.018000
  C    -54.395000   61.360800  136.641000
  H    -54.112700   63.363800  136.709000
  C    -53.112800   63.546300  133.846000
  H    -52.033000   63.715600  133.940000
  H    -53.592500   64.432200  134.281000
  C    -53.423800   63.465100  132.337000
  H    -52.872800   62.629700  131.847000
  H    -54.449700   63.151500  132.215000
  C    -52.962300   64.636200  131.555000
  H    -53.037500   64.457400  130.473000
  H    -53.436000   65.591300  131.724000
  H    -51.899100   64.814600  131.700000
  S    -56.530700   61.379000  138.257000
  C    -56.321900   61.261100  139.987000
  C    -54.978200   61.198000  140.371000
  C    -54.177400   61.213600  139.155000
  C    -54.869500   61.283600  137.996000
  H    -54.743900   61.288400  141.480000
  C    -52.667700   61.398100  139.209000
  H    -52.389400   61.891900  140.200000
  H    -52.382900   62.025500  138.328000
  C    -51.804200   60.102300  139.076000
  H    -50.732200   60.282600  139.329000
  H    -51.763900   59.714900  138.089000
  C    -52.240900   59.018700  139.999000
  H    -53.250900   58.587400  139.738000
  H    -52.328200   59.438000  141.016000
  H    -51.415600   58.298500  140.097000
  H    -53.524500   60.637700  133.310000
  H    -57.169400   61.353600  140.654000

 Total Charge           Charge          ....    0
 Multiplicity           Mult            ....    1
 Number of Electrons    NEL             ....  134
 Basis Dimension        Dim             ....  322

ORBITAL ENERGIES
----------------

  NO   OCC          E(Eh)            E(eV)
   0   2.0000     -88.964260     -2420.8406
   1   2.0000     -88.962916     -2420.8040
   2   2.0000     -10.319295      -280.8023
   3   2.0000     -10.319129      -280.7978
   4   2.0000     -10.314673      -280.6765
   5   2.0000     -10.309040      -280.5232
   6   2.0000     -10.305951      -280.4392
   7   2.0000     -10.302376      -280.3419
   8   2.0000     -10.301493      -280.3179
   9   2.0000     -10.297220      -280.2016
  10   2.0000     -10.293830      -280.1093
  11   2.0000     -10.293159      -280.0911
  12   2.0000     -10.287011      -279.9238
  13   2.0000     -10.276699      -279.6432
  14   2.0000     -10.275571      -279.6125
  15   2.0000     -10.271255      -279.4951
  16   2.0000      -8.080582      -219.8838
  17   2.0000      -8.078881      -219.8375
  18   2.0000      -6.038901      -164.3268
  19   2.0000      -6.037261      -164.2822
  20   2.0000      -6.034836      -164.2162
  21   2.0000      -6.033138      -164.1700
  22   2.0000      -6.031466      -164.1245
  23   2.0000      -6.029768      -164.0783
  24   2.0000      -1.020047       -27.7569
  25   2.0000      -0.995253       -27.0822
  26   2.0000      -0.913529       -24.8584
  27   2.0000      -0.903973       -24.5983
  28   2.0000      -0.878056       -23.8931
  29   2.0000      -0.853238       -23.2178
  30   2.0000      -0.848193       -23.0805
  31   2.0000      -0.817256       -22.2387
  32   2.0000      -0.783134       -21.3102
  33   2.0000      -0.767158       -20.8754
  34   2.0000      -0.710867       -19.3437
  35   2.0000      -0.698236       -19.0000
  36   2.0000      -0.681777       -18.5521
  37   2.0000      -0.665045       -18.0968
  38   2.0000      -0.652982       -17.7685
  39   2.0000      -0.607755       -16.5378
  40   2.0000      -0.583680       -15.8827
  41   2.0000      -0.572145       -15.5689
  42   2.0000      -0.568386       -15.4666
  43   2.0000      -0.550830       -14.9888
  44   2.0000      -0.545484       -14.8434
  45   2.0000      -0.521615       -14.1939
  46   2.0000      -0.518638       -14.1129
  47   2.0000      -0.515098       -14.0165
  48   2.0000      -0.510604       -13.8942
  49   2.0000      -0.495360       -13.4794
  50   2.0000      -0.484992       -13.1973
  51   2.0000      -0.480753       -13.0819
  52   2.0000      -0.475970       -12.9518
  53   2.0000      -0.470177       -12.7942
  54   2.0000      -0.461140       -12.5483
  55   2.0000      -0.447133       -12.1671
  56   2.0000      -0.438723       -11.9383
  57   2.0000      -0.426367       -11.6020
  58   2.0000      -0.424719       -11.5572
  59   2.0000      -0.421913       -11.4808
  60   2.0000      -0.421533       -11.4705
  61   2.0000      -0.416613       -11.3366
  62   2.0000      -0.407656       -11.0929
  63   2.0000      -0.336813        -9.1652
  64   2.0000      -0.330988        -9.0066
  65   2.0000      -0.326973        -8.8974
  66   2.0000      -0.314827        -8.5669
  67   0.0000       0.051312         1.3963
  68   0.0000       0.060776         1.6538
  69   0.0000       0.111758         3.0411
  70   0.0000       0.129553         3.5253
  71   0.0000       0.133376         3.6294

MULLIKEN ATOMIC CHARGES
-----------------------
   0 S :    0.122408
   1 C :   -0.133471
   2 C :   -0.033339
   3 C :    0.015918
   4 C :   -0.191702
   5 H :    0.037085
   6 C :    0.079948
   7 H :    0.033956
   8 H :    0.031671
   9 C :   -0.092491
  10 H :    0.026246
  11 H :    0.030402
  12 C :   -0.036941
  13 H :    0.031905
  14 H :    0.027710
  15 H :    0.022133
  16 S :    0.124465
  17 C :   -0.113846
  18 C :   -0.052908
  19 C :   -0.020848
  20 C :   -0.193034
  21 H :    0.057440
  22 C :    0.041922
  23 H :    0.037310
  24 H :    0.037168
  25 C :   -0.062621
  26 H :    0.024370
  27 H :    0.021998
  28 C :   -0.066040
  29 H :    0.055267
  30 H :    0.010770
  31 H :    0.032175
  32 H :    0.037502
  33 H :    0.057473
Sum of atomic charges:    0.0000000

LOEWDIN ATOMIC CHARGES
----------------------
   0 S :    0.427206
   1 C :   -0.194732
   2 C :   -0.068187
   3 C :   -0.071352
   4 C :   -0.213890
   5 H :    0.046859
   6 C :   -0.024781
   7 H :    0.033498
   8 H :    0.032098
   9 C :   -0.049914
  10 H :    0.028583
  11 H :    0.022200
  12 C :   -0.067414
  13 H :    0.031140
  14 H :    0.020627
  15 H :    0.026535
  16 S :    0.438910
  17 C :   -0.184024
  18 C :   -0.078356
  19 C :   -0.057454
  20 C :   -0.233742
  21 H :    0.050725
  22 C :   -0.035918
  23 H :    0.035830
  24 H :    0.035771
  25 C :   -0.046399
  26 H :    0.027324
  27 H :    0.015853
  28 C :   -0.073630
  29 H :    0.031840
  30 H :    0.019442
  31 H :    0.026906
  32 H :    0.023547
  33 H :    0.024898

  Mayer bond orders larger than 0.100000
B(  0-S ,  1-C ) :   1.1472 B(  0-S ,  4-C ) :   1.1524 B(  1-C ,  2-C ) :   1.6265
B(  1-C , 32-H ) :   0.9739 B(  2-C ,  3-C ) :   1.2171 B(  2-C ,  6-C ) :   0.9995
B(  3-C ,  4-C ) :   1.6248 B(  3-C ,  5-H ) :   0.9790 B(  4-C , 20-C ) :   0.9941
B(  6-C ,  7-H ) :   0.9298 B(  6-C ,  8-H ) :   0.9522 B(  6-C ,  9-C ) :   1.0718
B(  9-C , 10-H ) :   0.9454 B(  9-C , 11-H ) :   0.9593 B(  9-C , 12-C ) :   1.0896
B( 12-C , 13-H ) :   0.9716 B( 12-C , 14-H ) :   0.9745 B( 12-C , 15-H ) :   0.9688
B( 16-S , 17-C ) :   1.1759 B( 16-S , 20-C ) :   1.1566 B( 17-C , 18-C ) :   1.6097
B( 17-C , 33-H ) :   0.9677 B( 18-C , 19-C ) :   1.2142 B( 18-C , 21-H ) :   0.9818
B( 19-C , 20-C ) :   1.6302 B( 19-C , 22-C ) :   1.0358 B( 22-C , 23-H ) :   0.9416
B( 22-C , 24-H ) :   0.9333 B( 22-C , 25-C ) :   1.0734 B( 25-C , 26-H ) :   0.9556
B( 25-C , 27-H ) :   0.9533 B( 25-C , 28-C ) :   1.0905 B( 28-C , 29-H ) :   0.9661
B( 28-C , 30-H ) :   0.9729 B( 28-C , 31-H ) :   0.9723

Dispersion correction           -0.014703539
FINAL SINGLE POINT ENERGY     -1339.879899103253

DIPOLE MOMENT
-------------
                                X             Y             Z
Electronic contribution:    -17.25783      -7.93665       6.73771
Nuclear contribution   :     17.52290       8.39299      -6.79869
                        -----------------------------------------
Total Dipole Moment    :      0.26507       0.45634      -0.06099
                        -----------------------------------------
Magnitude (a.u.)       :      0.53125
Magnitude (Debye)      :      1.35033

Rotational constants in cm-1:     0.023962     0.007292     0.006562
Rotational constants in MHz :   718.365925   218.623433   196.733300

                             ****ORCA TERMINATED NORMALLY****
TOTAL RUN TIME: 0 days 0 hours 0 minutes 34 seconds 591 msec
