                         Program Version 4.2.1 -  RELEASE  -
|  1> ! wB97X-D3 SP def2-SVP
|  2> %pal
|  3> nprocs 16
|  4> end
|  5>
|  6> * xyz 0 1
|  7> S 	 49.2872 	 6.21405 	 80.5767
|  8> C 	 47.6744 	 6.85728 	 80.3621
|  9> C 	 46.7585 	 5.78766 	 80.3349
| 10> C 	 47.4111 	 4.5203 	 80.3445
| 11> C 	 48.7739 	 4.54932 	 80.6699
| 12> H 	 46.8885 	 3.62748 	 80.267
| 13> C 	 45.2366 	 6.01541 	 80.2727
| 14> H 	 44.9147 	 6.17893 	 79.2337
| 15> H 	 45.125 	 6.9592 	 80.7148
| 16> C 	 44.2941 	 4.94613 	 80.8785
| 17> H 	 43.2959 	 5.20023 	 80.5931
| 18> H 	 44.399 	 4.04514 	 80.3831
| 19> C 	 44.4123 	 4.67113 	 82.4121
| 20> H 	 44.0661 	 5.53379 	 83.0456
| 21> H 	 43.6969 	 3.94938 	 82.7137
| 22> H 	 45.3472 	 4.22508 	 82.7395
| 23> S 	 51.1877 	 3.48099 	 79.852
| 24> C 	 51.7826 	 2.02693 	 80.5468
| 25> C 	 50.8354 	 1.50815 	 81.4166
| 26> C 	 49.6275 	 2.29102 	 81.5226
| 27> C 	 49.7061 	 3.45008 	 80.7683
| 28> H 	 51.0064 	 0.578377 	 81.9168
| 29> C 	 48.6651 	 1.96407 	 82.582
| 30> H 	 47.7535 	 2.64531 	 82.4856
| 31> H 	 49.1577 	 1.99205 	 83.5054
| 32> C 	 47.9706 	 0.544466 	 82.632
| 33> H 	 48.6891 	 -0.178735 	 82.9201
| 34> H 	 47.6224 	 0.201817 	 81.6642
| 35> C 	 46.7206 	 0.616885 	 83.5443
| 36> H 	 46.2671 	 -0.344122 	 83.4168
| 37> H 	 46.0776 	 1.45775 	 83.3494
| 38> H 	 46.949 	 0.491637 	 84.6357
| 39> H 	 47.2661 	 7.82299 	 80.518
| 40> H 	 52.7478 	 1.70704 	 80.5043
| 41> *
| 42>
| 43>                          ****END OF INPUT****

CARTESIAN COORDINATES (ANGSTROEM)
---------------------------------
  S     49.287200    6.214050   80.576700
  C     47.674400    6.857280   80.362100
  C     46.758500    5.787660   80.334900
  C     47.411100    4.520300   80.344500
  C     48.773900    4.549320   80.669900
  H     46.888500    3.627480   80.267000
  C     45.236600    6.015410   80.272700
  H     44.914700    6.178930   79.233700
  H     45.125000    6.959200   80.714800
  C     44.294100    4.946130   80.878500
  H     43.295900    5.200230   80.593100
  H     44.399000    4.045140   80.383100
  C     44.412300    4.671130   82.412100
  H     44.066100    5.533790   83.045600
  H     43.696900    3.949380   82.713700
  H     45.347200    4.225080   82.739500
  S     51.187700    3.480990   79.852000
  C     51.782600    2.026930   80.546800
  C     50.835400    1.508150   81.416600
  C     49.627500    2.291020   81.522600
  C     49.706100    3.450080   80.768300
  H     51.006400    0.578377   81.916800
  C     48.665100    1.964070   82.582000
  H     47.753500    2.645310   82.485600
  H     49.157700    1.992050   83.505400
  C     47.970600    0.544466   82.632000
  H     48.689100   -0.178735   82.920100
  H     47.622400    0.201817   81.664200
  C     46.720600    0.616885   83.544300
  H     46.267100   -0.344122   83.416800
  H     46.077600    1.457750   83.349400
  H     46.949000    0.491637   84.635700
  H     47.266100    7.822990   80.518000
  H     52.747800    1.707040   80.504300

 Total Charge           Charge          ....    0
 Multiplicity           Mult            ....    1
 Number of Electrons    NEL             ....  134
 Basis Dimension        Dim             ....  322

ORBITAL ENERGIES
----------------

  NO   OCC          E(Eh)            E(eV)
   0   2.0000     -88.967571     -2420.9307
   1   2.0000     -88.963570     -2420.8218
   2   2.0000     -10.331532      -281.1353
   3   2.0000     -10.326339      -280.9940
   4   2.0000     -10.311900      -280.6011
   5   2.0000     -10.310485      -280.5625
   6   2.0000     -10.302236      -280.3381
   7   2.0000     -10.300284      -280.2850
   8   2.0000     -10.292735      -280.0795
   9   2.0000     -10.291991      -280.0593
  10   2.0000     -10.290188      -280.0103
  11   2.0000     -10.288723      -279.9704
  12   2.0000     -10.287131      -279.9271
  13   2.0000     -10.286777      -279.9174
  14   2.0000     -10.281095      -279.7628
  15   2.0000     -10.280784      -279.7544
  16   2.0000      -8.081846      -219.9182
  17   2.0000      -8.079154      -219.8449
  18   2.0000      -6.040459      -164.3692
  19   2.0000      -6.037659      -164.2931
  20   2.0000      -6.036218      -164.2538
  21   2.0000      -6.033426      -164.1779
  22   2.0000      -6.032699      -164.1581
  23   2.0000      -6.029968      -164.0838
  24   2.0000      -1.008795       -27.4507
  25   2.0000      -0.984663       -26.7940
  26   2.0000      -0.910158       -24.7667
  27   2.0000      -0.908126       -24.7114
  28   2.0000      -0.871955       -23.7271
  29   2.0000      -0.855086       -23.2681
  30   2.0000      -0.841660       -22.9027
  31   2.0000      -0.818255       -22.2659
  32   2.0000      -0.785468       -21.3737
  33   2.0000      -0.775047       -21.0901
  34   2.0000      -0.719514       -19.5790
  35   2.0000      -0.705059       -19.1856
  36   2.0000      -0.700002       -19.0480
  37   2.0000      -0.662448       -18.0261
  38   2.0000      -0.639034       -17.3890
  39   2.0000      -0.624505       -16.9936
  40   2.0000      -0.601987       -16.3809
  41   2.0000      -0.575509       -15.6604
  42   2.0000      -0.568892       -15.4803
  43   2.0000      -0.549629       -14.9562
  44   2.0000      -0.540676       -14.7125
  45   2.0000      -0.528380       -14.3780
  46   2.0000      -0.518041       -14.0966
  47   2.0000      -0.514822       -14.0090
  48   2.0000      -0.510685       -13.8964
  49   2.0000      -0.503256       -13.6943
  50   2.0000      -0.488335       -13.2883
  51   2.0000      -0.483412       -13.1543
  52   2.0000      -0.474068       -12.9000
  53   2.0000      -0.466642       -12.6980
  54   2.0000      -0.462623       -12.5886
  55   2.0000      -0.449587       -12.2339
  56   2.0000      -0.442963       -12.0536
  57   2.0000      -0.438023       -11.9192
  58   2.0000      -0.429650       -11.6914
  59   2.0000      -0.424868       -11.5613
  60   2.0000      -0.422173       -11.4879
  61   2.0000      -0.420224       -11.4349
  62   2.0000      -0.412314       -11.2196
  63   2.0000      -0.348795        -9.4912
  64   2.0000      -0.328160        -8.9297
  65   2.0000      -0.326428        -8.8825
  66   2.0000      -0.290302        -7.8995
  67   0.0000       0.025392         0.6909
  68   0.0000       0.072287         1.9670
  69   0.0000       0.112754         3.0682
  70   0.0000       0.119575         3.2538
  71   0.0000       0.124212         3.3800

MULLIKEN ATOMIC CHARGES
-----------------------
   0 S :    0.114692
   1 C :   -0.087832
   2 C :   -0.147331
   3 C :    0.067595
   4 C :   -0.162948
   5 H :   -0.018350
   6 C :    0.097328
   7 H :    0.043097
   8 H :   -0.000807
   9 C :   -0.034638
  10 H :    0.013704
  11 H :    0.009614
  12 C :   -0.057620
  13 H :    0.037126
  14 H :    0.015685
  15 H :    0.046023
  16 S :    0.110100
  17 C :   -0.050687
  18 C :   -0.040436
  19 C :    0.008823
  20 C :   -0.138276
  21 H :    0.011536
  22 C :    0.023611
  23 H :    0.028318
  24 H :    0.033255
  25 C :   -0.079861
  26 H :    0.018800
  27 H :    0.022289
  28 C :   -0.046805
  29 H :    0.022317
  30 H :    0.043984
  31 H :    0.032466
  32 H :    0.037189
  33 H :    0.028039
Sum of atomic charges:    0.0000000

LOEWDIN ATOMIC CHARGES
----------------------
   0 S :    0.419139
   1 C :   -0.205326
   2 C :   -0.056507
   3 C :   -0.057869
   4 C :   -0.192384
   5 H :    0.015320
   6 C :   -0.027221
   7 H :    0.039102
   8 H :    0.021476
   9 C :   -0.034271
  10 H :    0.026186
  11 H :    0.014820
  12 C :   -0.070022
  13 H :    0.033038
  14 H :    0.021759
  15 H :    0.024577
  16 S :    0.421287
  17 C :   -0.179195
  18 C :   -0.062947
  19 C :   -0.059482
  20 C :   -0.203709
  21 H :    0.025400
  22 C :   -0.033957
  23 H :    0.034899
  24 H :    0.030302
  25 C :   -0.031797
  26 H :    0.014943
  27 H :    0.020036
  28 C :   -0.067608
  29 H :    0.026340
  30 H :    0.024067
  31 H :    0.031762
  32 H :    0.025290
  33 H :    0.012551

  Mayer bond orders larger than 0.100000
B(  0-S ,  1-C ) :   1.1469 B(  0-S ,  4-C ) :   1.1617 B(  1-C ,  2-C ) :   1.5867
B(  1-C ,  4-C ) :   0.1106 B(  1-C , 32-H ) :   0.9656 B(  2-C ,  3-C ) :   1.2805
B(  2-C ,  6-C ) :   1.0070 B(  3-C ,  4-C ) :   1.5268 B(  3-C ,  5-H ) :   0.9951
B(  4-C , 20-C ) :   1.0543 B(  6-C ,  7-H ) :   0.9365 B(  6-C ,  8-H ) :   0.9364
B(  6-C ,  9-C ) :   1.0823 B(  9-C , 10-H ) :   0.9484 B(  9-C , 11-H ) :   0.9490
B(  9-C , 12-C ) :   1.0790 B( 12-C , 13-H ) :   0.9733 B( 12-C , 14-H ) :   0.9705
B( 12-C , 15-H ) :   0.9744 B( 16-S , 17-C ) :   1.1597 B( 16-S , 20-C ) :   1.1429
B( 17-C , 18-C ) :   1.5970 B( 17-C , 33-H ) :   0.9796 B( 18-C , 19-C ) :   1.2343
B( 18-C , 21-H ) :   0.9949 B( 19-C , 20-C ) :   1.5741 B( 19-C , 22-C ) :   1.0700
B( 22-C , 23-H ) :   0.9342 B( 22-C , 24-H ) :   0.9374 B( 22-C , 25-C ) :   1.0519
B( 25-C , 26-H ) :   0.9519 B( 25-C , 27-H ) :   0.9606 B( 25-C , 28-C ) :   1.0909
B( 28-C , 29-H ) :   0.9702 B( 28-C , 30-H ) :   0.9742 B( 28-C , 31-H ) :   0.9723

Dispersion correction           -0.014474165
FINAL SINGLE POINT ENERGY     -1339.858076813107

DIPOLE MOMENT
-------------
                                X             Y             Z
Electronic contribution:     27.21156      12.04960     -14.04920
Nuclear contribution   :    -27.83576     -12.50095      14.42542
                        -----------------------------------------
Total Dipole Moment    :     -0.62420      -0.45136       0.37622
                        -----------------------------------------
Magnitude (a.u.)       :      0.85726
Magnitude (Debye)      :      2.17898

Rotational constants in cm-1:     0.015970     0.010649     0.006771
Rotational constants in MHz :   478.773219   319.259992   203.000768

                             ****ORCA TERMINATED NORMALLY****
TOTAL RUN TIME: 0 days 0 hours 0 minutes 31 seconds 32 msec
