                         Program Version 4.2.1 -  RELEASE  -
|  1> ! wB97X-D3 SP def2-SVP
|  2> %pal
|  3> nprocs 16
|  4> end
|  5>
|  6> * xyz 0 1
|  7> S 	 44.0397 	 20.1498 	 86.3941
|  8> C 	 44.7948 	 21.6525 	 86.9301
|  9> C 	 44.3141 	 22.0066 	 88.1449
| 10> C 	 43.3722 	 21.1361 	 88.7122
| 11> C 	 43.0916 	 20.0222 	 87.8961
| 12> H 	 42.9665 	 21.2795 	 89.6613
| 13> C 	 44.6753 	 23.3951 	 88.7958
| 14> H 	 45.572 	 23.8791 	 88.2985
| 15> H 	 45.1195 	 23.0964 	 89.7704
| 16> C 	 43.5099 	 24.3424 	 88.9221
| 17> H 	 43.0239 	 24.5953 	 88.0094
| 18> H 	 42.6168 	 23.9298 	 89.4586
| 19> C 	 43.8253 	 25.7334 	 89.5451
| 20> H 	 44.6107 	 26.2434 	 88.9992
| 21> H 	 42.9633 	 26.3992 	 89.4251
| 22> H 	 44 	 25.4943 	 90.6009
| 23> S 	 41.6593 	 18.1243 	 86.5007
| 24> C 	 40.5156 	 17.1216 	 87.4027
| 25> C 	 40.3367 	 17.5295 	 88.7233
| 26> C 	 41.305 	 18.5027 	 89.1178
| 27> C 	 42.1055 	 18.9545 	 88.048
| 28> H 	 39.641 	 17.0268 	 89.3407
| 29> C 	 41.2675 	 19.1099 	 90.5587
| 30> H 	 40.317 	 18.9414 	 91.0639
| 31> H 	 41.369 	 20.2007 	 90.5384
| 32> C 	 42.4452 	 18.5946 	 91.3664
| 33> H 	 43.4224 	 18.7924 	 90.9209
| 34> H 	 42.4048 	 17.5398 	 91.3931
| 35> C 	 42.2718 	 19.2249 	 92.7184
| 36> H 	 42.555 	 20.2828 	 92.6329
| 37> H 	 42.9363 	 18.7867 	 93.39
| 38> H 	 41.3025 	 19.222 	 93.2366
| 39> H 	 45.557 	 22.2408 	 86.4065
| 40> H 	 39.9544 	 16.3012 	 87.0068
| 41> *
| 42>
| 43>                          ****END OF INPUT****

CARTESIAN COORDINATES (ANGSTROEM)
---------------------------------
  S     44.039700   20.149800   86.394100
  C     44.794800   21.652500   86.930100
  C     44.314100   22.006600   88.144900
  C     43.372200   21.136100   88.712200
  C     43.091600   20.022200   87.896100
  H     42.966500   21.279500   89.661300
  C     44.675300   23.395100   88.795800
  H     45.572000   23.879100   88.298500
  H     45.119500   23.096400   89.770400
  C     43.509900   24.342400   88.922100
  H     43.023900   24.595300   88.009400
  H     42.616800   23.929800   89.458600
  C     43.825300   25.733400   89.545100
  H     44.610700   26.243400   88.999200
  H     42.963300   26.399200   89.425100
  H     44.000000   25.494300   90.600900
  S     41.659300   18.124300   86.500700
  C     40.515600   17.121600   87.402700
  C     40.336700   17.529500   88.723300
  C     41.305000   18.502700   89.117800
  C     42.105500   18.954500   88.048000
  H     39.641000   17.026800   89.340700
  C     41.267500   19.109900   90.558700
  H     40.317000   18.941400   91.063900
  H     41.369000   20.200700   90.538400
  C     42.445200   18.594600   91.366400
  H     43.422400   18.792400   90.920900
  H     42.404800   17.539800   91.393100
  C     42.271800   19.224900   92.718400
  H     42.555000   20.282800   92.632900
  H     42.936300   18.786700   93.390000
  H     41.302500   19.222000   93.236600
  H     45.557000   22.240800   86.406500
  H     39.954400   16.301200   87.006800

 Total Charge           Charge          ....    0
 Multiplicity           Mult            ....    1
 Number of Electrons    NEL             ....  134
 Basis Dimension        Dim             ....  322

ORBITAL ENERGIES
----------------

  NO   OCC          E(Eh)            E(eV)
   0   2.0000     -88.969007     -2420.9698
   1   2.0000     -88.966422     -2420.8994
   2   2.0000     -10.338988      -281.3382
   3   2.0000     -10.336123      -281.2602
   4   2.0000     -10.320021      -280.8220
   5   2.0000     -10.312249      -280.6106
   6   2.0000     -10.310790      -280.5709
   7   2.0000     -10.302825      -280.3541
   8   2.0000     -10.297850      -280.2187
   9   2.0000     -10.296112      -280.1715
  10   2.0000     -10.295012      -280.1415
  11   2.0000     -10.292174      -280.0643
  12   2.0000     -10.285947      -279.8948
  13   2.0000     -10.280514      -279.7470
  14   2.0000     -10.280048      -279.7343
  15   2.0000     -10.272474      -279.5282
  16   2.0000      -8.082428      -219.9340
  17   2.0000      -8.080378      -219.8783
  18   2.0000      -6.041051      -164.3853
  19   2.0000      -6.039075      -164.3316
  20   2.0000      -6.037254      -164.2820
  21   2.0000      -6.034992      -164.2205
  22   2.0000      -6.033018      -164.1668
  23   2.0000      -6.030986      -164.1115
  24   2.0000      -1.001030       -27.2394
  25   2.0000      -0.977696       -26.6045
  26   2.0000      -0.917438       -24.9648
  27   2.0000      -0.906604       -24.6700
  28   2.0000      -0.868899       -23.6440
  29   2.0000      -0.852808       -23.2061
  30   2.0000      -0.842908       -22.9367
  31   2.0000      -0.812956       -22.1217
  32   2.0000      -0.781560       -21.2673
  33   2.0000      -0.770377       -20.9630
  34   2.0000      -0.712455       -19.3869
  35   2.0000      -0.700988       -19.0749
  36   2.0000      -0.693934       -18.8829
  37   2.0000      -0.666045       -18.1240
  38   2.0000      -0.637288       -17.3415
  39   2.0000      -0.626505       -17.0481
  40   2.0000      -0.598110       -16.2754
  41   2.0000      -0.570596       -15.5267
  42   2.0000      -0.565602       -15.3908
  43   2.0000      -0.556793       -15.1511
  44   2.0000      -0.528737       -14.3877
  45   2.0000      -0.523504       -14.2453
  46   2.0000      -0.515021       -14.0144
  47   2.0000      -0.511753       -13.9255
  48   2.0000      -0.509329       -13.8595
  49   2.0000      -0.501958       -13.6590
  50   2.0000      -0.491894       -13.3851
  51   2.0000      -0.480578       -13.0772
  52   2.0000      -0.475106       -12.9283
  53   2.0000      -0.467031       -12.7086
  54   2.0000      -0.461071       -12.5464
  55   2.0000      -0.453533       -12.3413
  56   2.0000      -0.449629       -12.2350
  57   2.0000      -0.442177       -12.0322
  58   2.0000      -0.430743       -11.7211
  59   2.0000      -0.423399       -11.5213
  60   2.0000      -0.419302       -11.4098
  61   2.0000      -0.410921       -11.1817
  62   2.0000      -0.400198       -10.8899
  63   2.0000      -0.359926        -9.7941
  64   2.0000      -0.338110        -9.2004
  65   2.0000      -0.330161        -8.9841
  66   2.0000      -0.278018        -7.5653
  67   0.0000       0.012652         0.3443
  68   0.0000       0.078098         2.1251
  69   0.0000       0.091435         2.4881
  70   0.0000       0.120160         3.2697
  71   0.0000       0.138451         3.7674

MULLIKEN ATOMIC CHARGES
-----------------------
   0 S :    0.084185
   1 C :   -0.121576
   2 C :   -0.073486
   3 C :    0.029133
   4 C :   -0.099147
   5 H :   -0.028555
   6 C :    0.062585
   7 H :    0.024443
   8 H :    0.029750
   9 C :   -0.084410
  10 H :    0.017707
  11 H :    0.027290
  12 C :   -0.054056
  13 H :    0.034089
  14 H :    0.034265
  15 H :    0.040591
  16 S :    0.088946
  17 C :   -0.077470
  18 C :   -0.019706
  19 C :   -0.038502
  20 C :   -0.109167
  21 H :    0.008070
  22 C :    0.024836
  23 H :    0.023922
  24 H :    0.022418
  25 C :   -0.056501
  26 H :    0.041521
  27 H :    0.015272
  28 C :   -0.014900
  29 H :    0.020722
  30 H :    0.014330
  31 H :    0.031840
  32 H :    0.051411
  33 H :    0.050152
Sum of atomic charges:    0.0000000

LOEWDIN ATOMIC CHARGES
----------------------
   0 S :    0.380404
   1 C :   -0.196197
   2 C :   -0.064865
   3 C :   -0.064099
   4 C :   -0.169155
   5 H :    0.017152
   6 C :   -0.032375
   7 H :    0.033577
   8 H :    0.031364
   9 C :   -0.052176
  10 H :    0.020440
  11 H :    0.028038
  12 C :   -0.062902
  13 H :    0.023119
  14 H :    0.028366
  15 H :    0.026875
  16 S :    0.372938
  17 C :   -0.169674
  18 C :   -0.065954
  19 C :   -0.047920
  20 C :   -0.176764
  21 H :    0.026836
  22 C :   -0.023478
  23 H :    0.029919
  24 H :    0.024783
  25 C :   -0.035949
  26 H :    0.031236
  27 H :    0.017642
  28 C :   -0.063126
  29 H :    0.026642
  30 H :    0.016242
  31 H :    0.028153
  32 H :    0.035589
  33 H :    0.025318

  Mayer bond orders larger than 0.100000
B(  0-S ,  1-C ) :   1.1145 B(  0-S ,  4-C ) :   1.1479 B(  1-C ,  2-C ) :   1.6369
B(  1-C , 32-H ) :   0.9637 B(  2-C ,  3-C ) :   1.2660 B(  2-C ,  6-C ) :   1.0060
B(  3-C ,  4-C ) :   1.5260 B(  3-C ,  5-H ) :   1.0010 B(  4-C , 20-C ) :   1.0988
B(  6-C ,  7-H ) :   0.9473 B(  6-C ,  8-H ) :   0.9386 B(  6-C ,  9-C ) :   1.0549
B(  9-C , 10-H ) :   0.9552 B(  9-C , 11-H ) :   0.9536 B(  9-C , 12-C ) :   1.0834
B( 12-C , 13-H ) :   0.9758 B( 12-C , 14-H ) :   0.9755 B( 12-C , 15-H ) :   0.9797
B( 16-S , 17-C ) :   1.1477 B( 16-S , 20-C ) :   1.1150 B( 17-C , 18-C ) :   1.6159
B( 17-C , 33-H ) :   0.9681 B( 18-C , 19-C ) :   1.2426 B( 18-C , 21-H ) :   0.9927
B( 19-C , 20-C ) :   1.5882 B( 19-C , 22-C ) :   1.0196 B( 22-C , 23-H ) :   0.9476
B( 22-C , 24-H ) :   0.9436 B( 22-C , 25-C ) :   1.0557 B( 25-C , 26-H ) :   0.9536
B( 25-C , 27-H ) :   0.9528 B( 25-C , 28-C ) :   1.0830 B( 28-C , 29-H ) :   0.9695
B( 28-C , 30-H ) :   0.9686 B( 28-C , 31-H ) :   0.9727

Dispersion correction           -0.013864162
FINAL SINGLE POINT ENERGY     -1339.868237308653

DIPOLE MOMENT
-------------
                                X             Y             Z
Electronic contribution:     -1.02936     -18.68828     -25.58901
Nuclear contribution   :      0.83018      18.96446      26.23691
                        -----------------------------------------
Total Dipole Moment    :     -0.19918       0.27618       0.64790
                        -----------------------------------------
Magnitude (a.u.)       :      0.73193
Magnitude (Debye)      :      1.86043

Rotational constants in cm-1:     0.017125     0.008953     0.006527
Rotational constants in MHz :   513.387418   268.408521   195.662823

                             ****ORCA TERMINATED NORMALLY****
TOTAL RUN TIME: 0 days 0 hours 0 minutes 30 seconds 253 msec
