                         Program Version 4.2.1 -  RELEASE  -
|  1> ! wB97X-D3 SP def2-SVP
|  2> %pal
|  3> nprocs 16
|  4> end
|  5>
|  6> * xyz 0 1
|  7> S 	 -33.6266 	 46.2389 	 96.1844
|  8> C 	 -32.6092 	 44.9553 	 95.6009
|  9> C 	 -31.5386 	 45.4683 	 94.8599
| 10> C 	 -31.606 	 46.9289 	 94.7
| 11> C 	 -32.6323 	 47.4765 	 95.4343
| 12> H 	 -31.0515 	 47.7418 	 94.2485
| 13> C 	 -30.3985 	 44.6611 	 94.1031
| 14> H 	 -29.3576 	 44.7421 	 94.6229
| 15> H 	 -30.4214 	 44.9153 	 93.0063
| 16> C 	 -30.5581 	 43.1993 	 94.0805
| 17> H 	 -30.5009 	 42.7198 	 95.0525
| 18> H 	 -31.4887 	 42.9117 	 93.6266
| 19> C 	 -29.4436 	 42.5876 	 93.1979
| 20> H 	 -28.5224 	 42.9748 	 93.4881
| 21> H 	 -29.4921 	 41.5131 	 93.3009
| 22> H 	 -29.7028 	 42.9059 	 92.1353
| 23> S 	 -34.1147 	 49.6569 	 94.4859
| 24> C 	 -33.7207 	 51.2215 	 95.1082
| 25> C 	 -32.647 	 51.16 	 95.957
| 26> C 	 -32.1401 	 49.889 	 96.2051
| 27> C 	 -32.9157 	 48.8894 	 95.5898
| 28> H 	 -32.2231 	 52.1355 	 96.2346
| 29> C 	 -30.8925 	 49.589 	 96.9519
| 30> H 	 -30.2581 	 50.4076 	 97.1326
| 31> H 	 -30.2716 	 48.818 	 96.353
| 32> C 	 -31.1138 	 48.9977 	 98.3568
| 33> H 	 -31.4577 	 47.979 	 98.2505
| 34> H 	 -31.9274 	 49.6224 	 98.8145
| 35> C 	 -29.7514 	 48.8393 	 99.0437
| 36> H 	 -29.9092 	 48.365 	 99.9772
| 37> H 	 -29.2974 	 49.8252 	 99.4526
| 38> H 	 -29.0045 	 48.1934 	 98.5895
| 39> H 	 -32.7517 	 43.8948 	 95.6925
| 40> H 	 -34.0319 	 52.1344 	 94.6186
| 41> *
| 42>
| 43>                          ****END OF INPUT****

CARTESIAN COORDINATES (ANGSTROEM)
---------------------------------
  S    -33.626600   46.238900   96.184400
  C    -32.609200   44.955300   95.600900
  C    -31.538600   45.468300   94.859900
  C    -31.606000   46.928900   94.700000
  C    -32.632300   47.476500   95.434300
  H    -31.051500   47.741800   94.248500
  C    -30.398500   44.661100   94.103100
  H    -29.357600   44.742100   94.622900
  H    -30.421400   44.915300   93.006300
  C    -30.558100   43.199300   94.080500
  H    -30.500900   42.719800   95.052500
  H    -31.488700   42.911700   93.626600
  C    -29.443600   42.587600   93.197900
  H    -28.522400   42.974800   93.488100
  H    -29.492100   41.513100   93.300900
  H    -29.702800   42.905900   92.135300
  S    -34.114700   49.656900   94.485900
  C    -33.720700   51.221500   95.108200
  C    -32.647000   51.160000   95.957000
  C    -32.140100   49.889000   96.205100
  C    -32.915700   48.889400   95.589800
  H    -32.223100   52.135500   96.234600
  C    -30.892500   49.589000   96.951900
  H    -30.258100   50.407600   97.132600
  H    -30.271600   48.818000   96.353000
  C    -31.113800   48.997700   98.356800
  H    -31.457700   47.979000   98.250500
  H    -31.927400   49.622400   98.814500
  C    -29.751400   48.839300   99.043700
  H    -29.909200   48.365000   99.977200
  H    -29.297400   49.825200   99.452600
  H    -29.004500   48.193400   98.589500
  H    -32.751700   43.894800   95.692500
  H    -34.031900   52.134400   94.618600

 Total Charge           Charge          ....    0
 Multiplicity           Mult            ....    1
 Number of Electrons    NEL             ....  134
 Basis Dimension        Dim             ....  322

ORBITAL ENERGIES
----------------

  NO   OCC          E(Eh)            E(eV)
   0   2.0000     -88.965783     -2420.8820
   1   2.0000     -88.965612     -2420.8774
   2   2.0000     -10.326769      -281.0057
   3   2.0000     -10.325222      -280.9636
   4   2.0000     -10.318143      -280.7709
   5   2.0000     -10.315141      -280.6893
   6   2.0000     -10.314402      -280.6691
   7   2.0000     -10.304886      -280.4102
   8   2.0000     -10.303670      -280.3771
   9   2.0000     -10.297010      -280.1959
  10   2.0000     -10.291291      -280.0403
  11   2.0000     -10.287237      -279.9299
  12   2.0000     -10.286033      -279.8972
  13   2.0000     -10.279660      -279.7238
  14   2.0000     -10.278965      -279.7049
  15   2.0000     -10.278513      -279.6926
  16   2.0000      -8.080383      -219.8784
  17   2.0000      -8.079984      -219.8675
  18   2.0000      -6.038987      -164.3292
  19   2.0000      -6.038324      -164.3112
  20   2.0000      -6.034775      -164.2146
  21   2.0000      -6.034560      -164.2087
  22   2.0000      -6.031175      -164.1166
  23   2.0000      -6.030926      -164.1099
  24   2.0000      -1.005131       -27.3510
  25   2.0000      -0.982741       -26.7417
  26   2.0000      -0.918943       -25.0057
  27   2.0000      -0.910622       -24.7793
  28   2.0000      -0.871678       -23.7196
  29   2.0000      -0.851753       -23.1774
  30   2.0000      -0.844108       -22.9693
  31   2.0000      -0.811814       -22.0906
  32   2.0000      -0.780530       -21.2393
  33   2.0000      -0.768922       -20.9234
  34   2.0000      -0.707285       -19.2462
  35   2.0000      -0.697326       -18.9752
  36   2.0000      -0.686403       -18.6780
  37   2.0000      -0.656839       -17.8735
  38   2.0000      -0.648826       -17.6555
  39   2.0000      -0.607706       -16.5365
  40   2.0000      -0.597132       -16.2488
  41   2.0000      -0.585501       -15.9323
  42   2.0000      -0.571624       -15.5547
  43   2.0000      -0.562869       -15.3164
  44   2.0000      -0.523898       -14.2560
  45   2.0000      -0.517131       -14.0718
  46   2.0000      -0.516860       -14.0645
  47   2.0000      -0.507830       -13.8187
  48   2.0000      -0.502513       -13.6741
  49   2.0000      -0.500865       -13.6292
  50   2.0000      -0.490650       -13.3513
  51   2.0000      -0.479317       -13.0429
  52   2.0000      -0.472438       -12.8557
  53   2.0000      -0.464990       -12.6530
  54   2.0000      -0.456786       -12.4298
  55   2.0000      -0.444196       -12.0872
  56   2.0000      -0.438685       -11.9372
  57   2.0000      -0.433232       -11.7888
  58   2.0000      -0.429815       -11.6959
  59   2.0000      -0.427074       -11.6213
  60   2.0000      -0.422631       -11.5004
  61   2.0000      -0.413723       -11.2580
  62   2.0000      -0.411383       -11.1943
  63   2.0000      -0.337633        -9.1875
  64   2.0000      -0.329996        -8.9796
  65   2.0000      -0.323542        -8.8040
  66   2.0000      -0.306601        -8.3430
  67   0.0000       0.036436         0.9915
  68   0.0000       0.053957         1.4683
  69   0.0000       0.112323         3.0565
  70   0.0000       0.119780         3.2594
  71   0.0000       0.125357         3.4111

MULLIKEN ATOMIC CHARGES
-----------------------
   0 S :    0.119459
   1 C :   -0.098545
   2 C :   -0.085941
   3 C :    0.070531
   4 C :   -0.211550
   5 H :    0.019912
   6 C :    0.026737
   7 H :    0.055453
   8 H :    0.045542
   9 C :   -0.126112
  10 H :    0.028871
  11 H :    0.021223
  12 C :   -0.020785
  13 H :    0.015118
  14 H :    0.035586
  15 H :    0.036986
  16 S :    0.105771
  17 C :   -0.087439
  18 C :   -0.057599
  19 C :    0.018846
  20 C :   -0.176403
  21 H :    0.022440
  22 C :    0.062229
  23 H :    0.003643
  24 H :    0.030769
  25 C :   -0.080973
  26 H :    0.034308
  27 H :    0.046267
  28 C :   -0.054656
  29 H :    0.015443
  30 H :    0.035699
  31 H :    0.041472
  32 H :    0.046358
  33 H :    0.061341
Sum of atomic charges:    0.0000000

LOEWDIN ATOMIC CHARGES
----------------------
   0 S :    0.408619
   1 C :   -0.202314
   2 C :   -0.061796
   3 C :   -0.060007
   4 C :   -0.200984
   5 H :    0.038206
   6 C :   -0.040941
   7 H :    0.045632
   8 H :    0.040406
   9 C :   -0.054600
  10 H :    0.018123
  11 H :    0.016954
  12 C :   -0.050328
  13 H :    0.011136
  14 H :    0.025613
  15 H :    0.031982
  16 S :    0.401992
  17 C :   -0.188504
  18 C :   -0.079628
  19 C :   -0.049351
  20 C :   -0.197179
  21 H :    0.035910
  22 C :   -0.037206
  23 H :    0.020151
  24 H :    0.039165
  25 C :   -0.036472
  26 H :    0.023755
  27 H :    0.033299
  28 C :   -0.076485
  29 H :    0.021546
  30 H :    0.032775
  31 H :    0.029997
  32 H :    0.029461
  33 H :    0.031074

  Mayer bond orders larger than 0.100000
B(  0-S ,  1-C ) :   1.1320 B(  0-S ,  4-C ) :   1.1341 B(  1-C ,  2-C ) :   1.6457
B(  1-C , 32-H ) :   0.9646 B(  2-C ,  3-C ) :   1.1844 B(  2-C ,  6-C ) :   0.9973
B(  3-C ,  4-C ) :   1.6279 B(  3-C ,  5-H ) :   0.9874 B(  4-C , 20-C ) :   1.0225
B(  6-C ,  7-H ) :   0.9390 B(  6-C ,  8-H ) :   0.9502 B(  6-C ,  9-C ) :   1.0864
B(  9-C , 10-H ) :   0.9474 B(  9-C , 11-H ) :   0.9503 B(  9-C , 12-C ) :   1.0853
B( 12-C , 13-H ) :   0.9746 B( 12-C , 14-H ) :   0.9729 B( 12-C , 15-H ) :   0.9758
B( 16-S , 17-C ) :   1.1764 B( 16-S , 20-C ) :   1.1503 B( 17-C , 18-C ) :   1.5886
B( 17-C , 20-C ) :   0.1079 B( 17-C , 33-H ) :   0.9624 B( 18-C , 19-C ) :   1.2699
B( 18-C , 21-H ) :   0.9893 B( 19-C , 20-C ) :   1.5436 B( 19-C , 22-C ) :   1.0565
B( 22-C , 23-H ) :   0.9384 B( 22-C , 24-H ) :   0.9212 B( 22-C , 25-C ) :   1.0604
B( 25-C , 26-H ) :   0.9514 B( 25-C , 27-H ) :   0.9564 B( 25-C , 28-C ) :   1.0861
B( 28-C , 29-H ) :   0.9690 B( 28-C , 30-H ) :   0.9701 B( 28-C , 31-H ) :   0.9708

Dispersion correction           -0.014098859
FINAL SINGLE POINT ENERGY     -1339.853649069045

DIPOLE MOMENT
-------------
                                X             Y             Z
Electronic contribution:    -23.81900      12.48547      -3.90351
Nuclear contribution   :     24.47750     -12.52805       3.82444
                        -----------------------------------------
Total Dipole Moment    :      0.65850      -0.04258      -0.07907
                        -----------------------------------------
Magnitude (a.u.)       :      0.66460
Magnitude (Debye)      :      1.68928

Rotational constants in cm-1:     0.019522     0.007725     0.006547
Rotational constants in MHz :   585.247264   231.599889   196.274994

                             ****ORCA TERMINATED NORMALLY****
TOTAL RUN TIME: 0 days 0 hours 0 minutes 29 seconds 338 msec
