                         Program Version 4.2.1 -  RELEASE  -
|  1> ! wB97X-D3 SP def2-SVP
|  2> %pal
|  3> nprocs 16
|  4> end
|  5>
|  6> * xyz 0 1
|  7> S 	 -40.4073 	 55.8341 	 107.504
|  8> C 	 -42.0466 	 55.2493 	 107.268
|  9> C 	 -42.0257 	 54.2092 	 106.403
| 10> C 	 -40.7334 	 53.9217 	 105.849
| 11> C 	 -39.7367 	 54.7322 	 106.307
| 12> H 	 -40.6026 	 53.1446 	 105.125
| 13> C 	 -43.2657 	 53.3312 	 106.097
| 14> H 	 -43.5659 	 53.5749 	 105.066
| 15> H 	 -44.0497 	 53.7421 	 106.73
| 16> C 	 -42.9995 	 51.7581 	 106.209
| 17> H 	 -42.3395 	 51.3804 	 105.496
| 18> H 	 -42.6796 	 51.5779 	 107.24
| 19> C 	 -44.2274 	 50.8967 	 106.002
| 20> H 	 -43.8897 	 49.8394 	 105.904
| 21> H 	 -45.0725 	 51.029 	 106.721
| 22> H 	 -44.6221 	 51.2308 	 105.042
| 23> S 	 -37.7871 	 52.9116 	 105.53
| 24> C 	 -36.2466 	 53.5092 	 105.277
| 25> C 	 -36.1752 	 54.8843 	 105.227
| 26> C 	 -37.3668 	 55.551 	 105.562
| 27> C 	 -38.3294 	 54.6094 	 105.852
| 28> H 	 -35.2486 	 55.266 	 104.928
| 29> C 	 -37.5728 	 57.0861 	 105.559
| 30> H 	 -37.6513 	 57.3509 	 106.677
| 31> H 	 -38.5313 	 57.3751 	 105.043
| 32> C 	 -36.3926 	 57.9227 	 105.05
| 33> H 	 -36.2673 	 57.7266 	 104.025
| 34> H 	 -35.4402 	 57.5711 	 105.488
| 35> C 	 -36.6065 	 59.4053 	 105.16
| 36> H 	 -37.6996 	 59.6204 	 105.126
| 37> H 	 -36.1231 	 59.9345 	 104.334
| 38> H 	 -36.331 	 59.7011 	 106.191
| 39> H 	 -42.823 	 55.6605 	 107.855
| 40> H 	 -35.392 	 52.9001 	 105.03
| 41> *
| 42>
| 43>                          ****END OF INPUT****

CARTESIAN COORDINATES (ANGSTROEM)
---------------------------------
  S    -40.407300   55.834100  107.504000
  C    -42.046600   55.249300  107.268000
  C    -42.025700   54.209200  106.403000
  C    -40.733400   53.921700  105.849000
  C    -39.736700   54.732200  106.307000
  H    -40.602600   53.144600  105.125000
  C    -43.265700   53.331200  106.097000
  H    -43.565900   53.574900  105.066000
  H    -44.049700   53.742100  106.730000
  C    -42.999500   51.758100  106.209000
  H    -42.339500   51.380400  105.496000
  H    -42.679600   51.577900  107.240000
  C    -44.227400   50.896700  106.002000
  H    -43.889700   49.839400  105.904000
  H    -45.072500   51.029000  106.721000
  H    -44.622100   51.230800  105.042000
  S    -37.787100   52.911600  105.530000
  C    -36.246600   53.509200  105.277000
  C    -36.175200   54.884300  105.227000
  C    -37.366800   55.551000  105.562000
  C    -38.329400   54.609400  105.852000
  H    -35.248600   55.266000  104.928000
  C    -37.572800   57.086100  105.559000
  H    -37.651300   57.350900  106.677000
  H    -38.531300   57.375100  105.043000
  C    -36.392600   57.922700  105.050000
  H    -36.267300   57.726600  104.025000
  H    -35.440200   57.571100  105.488000
  C    -36.606500   59.405300  105.160000
  H    -37.699600   59.620400  105.126000
  H    -36.123100   59.934500  104.334000
  H    -36.331000   59.701100  106.191000
  H    -42.823000   55.660500  107.855000
  H    -35.392000   52.900100  105.030000

 Total Charge           Charge          ....    0
 Multiplicity           Mult            ....    1
 Number of Electrons    NEL             ....  134
 Basis Dimension        Dim             ....  322

ORBITAL ENERGIES
----------------

  NO   OCC          E(Eh)            E(eV)
   0   2.0000     -88.967568     -2420.9306
   1   2.0000     -88.961026     -2420.7526
   2   2.0000     -10.328621      -281.0561
   3   2.0000     -10.328145      -281.0431
   4   2.0000     -10.308809      -280.5170
   5   2.0000     -10.307357      -280.4774
   6   2.0000     -10.305817      -280.4355
   7   2.0000     -10.305351      -280.4228
   8   2.0000     -10.297081      -280.1978
   9   2.0000     -10.296855      -280.1917
  10   2.0000     -10.285763      -279.8899
  11   2.0000     -10.285145      -279.8730
  12   2.0000     -10.284917      -279.8668
  13   2.0000     -10.280925      -279.7582
  14   2.0000     -10.280832      -279.7556
  15   2.0000     -10.280565      -279.7484
  16   2.0000      -8.082800      -219.9442
  17   2.0000      -8.075473      -219.7448
  18   2.0000      -6.041069      -164.3858
  19   2.0000      -6.037466      -164.2878
  20   2.0000      -6.034179      -164.1984
  21   2.0000      -6.033564      -164.1816
  22   2.0000      -6.029988      -164.0843
  23   2.0000      -6.026096      -163.9784
  24   2.0000      -1.007227       -27.4080
  25   2.0000      -0.987234       -26.8640
  26   2.0000      -0.912436       -24.8286
  27   2.0000      -0.903035       -24.5728
  28   2.0000      -0.870482       -23.6870
  29   2.0000      -0.859573       -23.3902
  30   2.0000      -0.845115       -22.9967
  31   2.0000      -0.811729       -22.0883
  32   2.0000      -0.781127       -21.2555
  33   2.0000      -0.767325       -20.8800
  34   2.0000      -0.705416       -19.1954
  35   2.0000      -0.700100       -19.0507
  36   2.0000      -0.689478       -18.7616
  37   2.0000      -0.659667       -17.9504
  38   2.0000      -0.637011       -17.3339
  39   2.0000      -0.615412       -16.7462
  40   2.0000      -0.601237       -16.3605
  41   2.0000      -0.572423       -15.5764
  42   2.0000      -0.569760       -15.5040
  43   2.0000      -0.560467       -15.2511
  44   2.0000      -0.528225       -14.3737
  45   2.0000      -0.526282       -14.3209
  46   2.0000      -0.517603       -14.0847
  47   2.0000      -0.510002       -13.8779
  48   2.0000      -0.505291       -13.7497
  49   2.0000      -0.499289       -13.5863
  50   2.0000      -0.480850       -13.0846
  51   2.0000      -0.475933       -12.9508
  52   2.0000      -0.475184       -12.9304
  53   2.0000      -0.467337       -12.7169
  54   2.0000      -0.459626       -12.5071
  55   2.0000      -0.453637       -12.3441
  56   2.0000      -0.446313       -12.1448
  57   2.0000      -0.437265       -11.8986
  58   2.0000      -0.429023       -11.6743
  59   2.0000      -0.424628       -11.5547
  60   2.0000      -0.418265       -11.3816
  61   2.0000      -0.415720       -11.3123
  62   2.0000      -0.408732       -11.1222
  63   2.0000      -0.353163        -9.6100
  64   2.0000      -0.336578        -9.1588
  65   2.0000      -0.324937        -8.8420
  66   2.0000      -0.285423        -7.7668
  67   0.0000       0.029113         0.7922
  68   0.0000       0.078974         2.1490
  69   0.0000       0.107467         2.9243
  70   0.0000       0.124235         3.3806
  71   0.0000       0.137845         3.7510

MULLIKEN ATOMIC CHARGES
-----------------------
   0 S :    0.086322
   1 C :   -0.142170
   2 C :   -0.061761
   3 C :   -0.008905
   4 C :   -0.097289
   5 H :    0.003233
   6 C :    0.072677
   7 H :    0.031916
   8 H :    0.014193
   9 C :   -0.063489
  10 H :    0.026818
  11 H :    0.039931
  12 C :   -0.068733
  13 H :    0.045896
  14 H :    0.040784
  15 H :    0.016357
  16 S :    0.115060
  17 C :   -0.066448
  18 C :   -0.058297
  19 C :    0.011660
  20 C :   -0.180809
  21 H :   -0.011046
  22 C :    0.017011
  23 H :    0.050601
  24 H :    0.058575
  25 C :   -0.085884
  26 H :    0.012812
  27 H :    0.033705
  28 C :   -0.028736
  29 H :    0.028803
  30 H :    0.045309
  31 H :    0.036456
  32 H :    0.038038
  33 H :    0.047409
Sum of atomic charges:    0.0000000

LOEWDIN ATOMIC CHARGES
----------------------
   0 S :    0.388685
   1 C :   -0.191302
   2 C :   -0.062657
   3 C :   -0.077177
   4 C :   -0.183272
   5 H :    0.021112
   6 C :   -0.027351
   7 H :    0.030044
   8 H :    0.027460
   9 C :   -0.034888
  10 H :    0.018799
  11 H :    0.027665
  12 C :   -0.069400
  13 H :    0.032682
  14 H :    0.026641
  15 H :    0.020460
  16 S :    0.422616
  17 C :   -0.202888
  18 C :   -0.075095
  19 C :   -0.052297
  20 C :   -0.172375
  21 H :    0.020084
  22 C :   -0.035393
  23 H :    0.042082
  24 H :    0.039975
  25 C :   -0.051556
  26 H :    0.015572
  27 H :    0.025810
  28 C :   -0.063541
  29 H :    0.030140
  30 H :    0.031144
  31 H :    0.029454
  32 H :    0.021173
  33 H :    0.027593

  Mayer bond orders larger than 0.100000
B(  0-S ,  1-C ) :   1.1198 B(  0-S ,  4-C ) :   1.1375 B(  1-C ,  2-C ) :   1.6188
B(  1-C , 32-H ) :   0.9791 B(  2-C ,  3-C ) :   1.2396 B(  2-C ,  6-C ) :   1.0204
B(  3-C ,  4-C ) :   1.5667 B(  3-C ,  5-H ) :   0.9957 B(  4-C , 20-C ) :   1.0505
B(  6-C ,  7-H ) :   0.9332 B(  6-C ,  8-H ) :   0.9477 B(  6-C ,  9-C ) :   1.0574
B(  9-C , 10-H ) :   0.9524 B(  9-C , 11-H ) :   0.9609 B(  9-C , 12-C ) :   1.0867
B( 12-C , 13-H ) :   0.9747 B( 12-C , 14-H ) :   0.9764 B( 12-C , 15-H ) :   0.9726
B( 16-S , 17-C ) :   1.1726 B( 16-S , 20-C ) :   1.1443 B( 17-C , 18-C ) :   1.6071
B( 17-C , 33-H ) :   0.9601 B( 18-C , 19-C ) :   1.2336 B( 18-C , 21-H ) :   0.9994
B( 19-C , 20-C ) :   1.5945 B( 19-C , 22-C ) :   1.0108 B( 22-C , 23-H ) :   0.9354
B( 22-C , 24-H ) :   0.9335 B( 22-C , 25-C ) :   1.0899 B( 25-C , 26-H ) :   0.9518
B( 25-C , 27-H ) :   0.9462 B( 25-C , 28-C ) :   1.0795 B( 28-C , 29-H ) :   0.9719
B( 28-C , 30-H ) :   0.9739 B( 28-C , 31-H ) :   0.9739

Dispersion correction           -0.013338593
FINAL SINGLE POINT ENERGY     -1339.874852612893

DIPOLE MOMENT
-------------
                                X             Y             Z
Electronic contribution:      7.53949      -3.90359       5.38704
Nuclear contribution   :     -7.55333       3.91030      -5.70403
                        -----------------------------------------
Total Dipole Moment    :     -0.01384       0.00670      -0.31698
                        -----------------------------------------
Magnitude (a.u.)       :      0.31735
Magnitude (Debye)      :      0.80665

Rotational constants in cm-1:     0.022836     0.007185     0.005777
Rotational constants in MHz :   684.616737   215.403386   173.203990

                             ****ORCA TERMINATED NORMALLY****
TOTAL RUN TIME: 0 days 0 hours 0 minutes 26 seconds 902 msec
