                         Program Version 4.2.1 -  RELEASE  -
|  1> ! wB97X-D3 SP def2-SVP
|  2> %pal
|  3> nprocs 16
|  4> end
|  5>
|  6> * xyz 0 1
|  7> S 	 6.57033 	 26.0351 	 61.5695
|  8> C 	 6.93387 	 25.9413 	 59.8885
|  9> C 	 6.77621 	 24.6622 	 59.3345
| 10> C 	 6.34446 	 23.6864 	 60.303
| 11> C 	 6.06627 	 24.245 	 61.5228
| 12> H 	 6.21677 	 22.6261 	 60.2363
| 13> C 	 6.96508 	 24.3917 	 57.8949
| 14> H 	 6.63176 	 25.2782 	 57.325
| 15> H 	 6.36672 	 23.5779 	 57.5429
| 16> C 	 8.41563 	 23.9489 	 57.5838
| 17> H 	 8.52789 	 23.65 	 56.5212
| 18> H 	 9.12133 	 24.8088 	 57.6795
| 19> C 	 8.99683 	 22.8073 	 58.4988
| 20> H 	 10.0112 	 22.5409 	 58.2849
| 21> H 	 9.04571 	 23.1867 	 59.5506
| 22> H 	 8.37933 	 21.9571 	 58.3602
| 23> S 	 6.13613 	 24.3565 	 64.1982
| 24> C 	 5.09751 	 23.3297 	 65.1193
| 25> C 	 4.38925 	 22.3625 	 64.3967
| 26> C 	 4.66456 	 22.5881 	 63.0194
| 27> C 	 5.57575 	 23.5902 	 62.7095
| 28> H 	 3.7858 	 21.641 	 64.9258
| 29> C 	 3.94383 	 21.81 	 61.9373
| 30> H 	 4.29543 	 21.9101 	 60.9572
| 31> H 	 2.88061 	 22.3139 	 61.8872
| 32> C 	 3.97208 	 20.2569 	 62.3215
| 33> H 	 3.5357 	 19.6596 	 61.509
| 34> H 	 3.33586 	 20.1644 	 63.1836
| 35> C 	 5.30386 	 19.6224 	 62.6274
| 36> H 	 5.96175 	 19.6518 	 61.7383
| 37> H 	 5.26119 	 18.5725 	 62.9583
| 38> H 	 5.84613 	 20.1417 	 63.4263
| 39> H 	 7.16625 	 26.7487 	 59.2913
| 40> H 	 5.19891 	 23.3956 	 66.1565
| 41> *
| 42>
| 43>                          ****END OF INPUT****

CARTESIAN COORDINATES (ANGSTROEM)
---------------------------------
  S      6.570330   26.035100   61.569500
  C      6.933870   25.941300   59.888500
  C      6.776210   24.662200   59.334500
  C      6.344460   23.686400   60.303000
  C      6.066270   24.245000   61.522800
  H      6.216770   22.626100   60.236300
  C      6.965080   24.391700   57.894900
  H      6.631760   25.278200   57.325000
  H      6.366720   23.577900   57.542900
  C      8.415630   23.948900   57.583800
  H      8.527890   23.650000   56.521200
  H      9.121330   24.808800   57.679500
  C      8.996830   22.807300   58.498800
  H     10.011200   22.540900   58.284900
  H      9.045710   23.186700   59.550600
  H      8.379330   21.957100   58.360200
  S      6.136130   24.356500   64.198200
  C      5.097510   23.329700   65.119300
  C      4.389250   22.362500   64.396700
  C      4.664560   22.588100   63.019400
  C      5.575750   23.590200   62.709500
  H      3.785800   21.641000   64.925800
  C      3.943830   21.810000   61.937300
  H      4.295430   21.910100   60.957200
  H      2.880610   22.313900   61.887200
  C      3.972080   20.256900   62.321500
  H      3.535700   19.659600   61.509000
  H      3.335860   20.164400   63.183600
  C      5.303860   19.622400   62.627400
  H      5.961750   19.651800   61.738300
  H      5.261190   18.572500   62.958300
  H      5.846130   20.141700   63.426300
  H      7.166250   26.748700   59.291300
  H      5.198910   23.395600   66.156500

 Total Charge           Charge          ....    0
 Multiplicity           Mult            ....    1
 Number of Electrons    NEL             ....  134
 Basis Dimension        Dim             ....  322

ORBITAL ENERGIES
----------------

  NO   OCC          E(Eh)            E(eV)
   0   2.0000     -88.966654     -2420.9057
   1   2.0000     -88.962874     -2420.8029
   2   2.0000     -10.334543      -281.2172
   3   2.0000     -10.324335      -280.9394
   4   2.0000     -10.315951      -280.7113
   5   2.0000     -10.307716      -280.4872
   6   2.0000     -10.307406      -280.4788
   7   2.0000     -10.301157      -280.3087
   8   2.0000     -10.300674      -280.2956
   9   2.0000     -10.298846      -280.2458
  10   2.0000     -10.294024      -280.1146
  11   2.0000     -10.290711      -280.0245
  12   2.0000     -10.289986      -280.0047
  13   2.0000     -10.289472      -279.9908
  14   2.0000     -10.278243      -279.6852
  15   2.0000     -10.275316      -279.6056
  16   2.0000      -8.080210      -219.8737
  17   2.0000      -8.078384      -219.8240
  18   2.0000      -6.038882      -164.3263
  19   2.0000      -6.036647      -164.2655
  20   2.0000      -6.035089      -164.2231
  21   2.0000      -6.032851      -164.1622
  22   2.0000      -6.030668      -164.1028
  23   2.0000      -6.029289      -164.0653
  24   2.0000      -1.005221       -27.3535
  25   2.0000      -0.979939       -26.6655
  26   2.0000      -0.909290       -24.7430
  27   2.0000      -0.905593       -24.6424
  28   2.0000      -0.871662       -23.7191
  29   2.0000      -0.852036       -23.1851
  30   2.0000      -0.841211       -22.8905
  31   2.0000      -0.818154       -22.2631
  32   2.0000      -0.783413       -21.3178
  33   2.0000      -0.768438       -20.9103
  34   2.0000      -0.706692       -19.2301
  35   2.0000      -0.701291       -19.0831
  36   2.0000      -0.693442       -18.8695
  37   2.0000      -0.663753       -18.0616
  38   2.0000      -0.645064       -17.5531
  39   2.0000      -0.618244       -16.8233
  40   2.0000      -0.601686       -16.3727
  41   2.0000      -0.574887       -15.6435
  42   2.0000      -0.554294       -15.0831
  43   2.0000      -0.547150       -14.8887
  44   2.0000      -0.539522       -14.6811
  45   2.0000      -0.537764       -14.6333
  46   2.0000      -0.518927       -14.1207
  47   2.0000      -0.512089       -13.9346
  48   2.0000      -0.501365       -13.6428
  49   2.0000      -0.492581       -13.4038
  50   2.0000      -0.488383       -13.2896
  51   2.0000      -0.478044       -13.0082
  52   2.0000      -0.468845       -12.7579
  53   2.0000      -0.464002       -12.6261
  54   2.0000      -0.460655       -12.5351
  55   2.0000      -0.450711       -12.2645
  56   2.0000      -0.447486       -12.1767
  57   2.0000      -0.442175       -12.0322
  58   2.0000      -0.434142       -11.8136
  59   2.0000      -0.423333       -11.5195
  60   2.0000      -0.417675       -11.3655
  61   2.0000      -0.413124       -11.2417
  62   2.0000      -0.401218       -10.9177
  63   2.0000      -0.361385        -9.8338
  64   2.0000      -0.334384        -9.0990
  65   2.0000      -0.325998        -8.8709
  66   2.0000      -0.277760        -7.5582
  67   0.0000       0.021739         0.5916
  68   0.0000       0.068421         1.8618
  69   0.0000       0.093810         2.5527
  70   0.0000       0.113834         3.0976
  71   0.0000       0.130852         3.5607

MULLIKEN ATOMIC CHARGES
-----------------------
   0 S :    0.096781
   1 C :   -0.071539
   2 C :   -0.097752
   3 C :    0.007925
   4 C :   -0.111627
   5 H :    0.014621
   6 C :    0.089952
   7 H :    0.035407
   8 H :    0.016353
   9 C :   -0.107692
  10 H :    0.031506
  11 H :    0.026330
  12 C :   -0.056113
  13 H :    0.030125
  14 H :    0.059182
  15 H :    0.025039
  16 S :    0.083834
  17 C :   -0.075144
  18 C :   -0.030166
  19 C :   -0.058359
  20 C :   -0.135043
  21 H :    0.029422
  22 C :    0.064184
  23 H :   -0.001221
  24 H :    0.062303
  25 C :   -0.092348
  26 H :    0.033619
  27 H :    0.026395
  28 C :   -0.060789
  29 H :    0.028356
  30 H :    0.040525
  31 H :    0.041204
  32 H :    0.016060
  33 H :    0.038668
Sum of atomic charges:   -0.0000000

LOEWDIN ATOMIC CHARGES
----------------------
   0 S :    0.363829
   1 C :   -0.191705
   2 C :   -0.057924
   3 C :   -0.058728
   4 C :   -0.152793
   5 H :    0.030637
   6 C :   -0.036165
   7 H :    0.038098
   8 H :    0.026462
   9 C :   -0.041724
  10 H :    0.021648
  11 H :    0.021373
  12 C :   -0.064349
  13 H :    0.023971
  14 H :    0.036257
  15 H :    0.016067
  16 S :    0.404558
  17 C :   -0.166360
  18 C :   -0.070348
  19 C :   -0.056011
  20 C :   -0.195840
  21 H :    0.037811
  22 C :   -0.028661
  23 H :    0.011959
  24 H :    0.051826
  25 C :   -0.041802
  26 H :    0.026234
  27 H :    0.017114
  28 C :   -0.072457
  29 H :    0.025485
  30 H :    0.031736
  31 H :    0.026547
  32 H :    0.012207
  33 H :    0.011047

  Mayer bond orders larger than 0.100000
B(  0-S ,  1-C ) :   1.1265 B(  0-S ,  4-C ) :   1.1030 B(  1-C ,  2-C ) :   1.6276
B(  1-C , 32-H ) :   0.9711 B(  2-C ,  3-C ) :   1.1875 B(  2-C ,  6-C ) :   1.0367
B(  3-C ,  4-C ) :   1.6187 B(  3-C ,  5-H ) :   0.9912 B(  4-C , 20-C ) :   1.0901
B(  6-C ,  7-H ) :   0.9411 B(  6-C ,  8-H ) :   0.9394 B(  6-C ,  9-C ) :   1.0569
B(  9-C , 10-H ) :   0.9608 B(  9-C , 11-H ) :   0.9589 B(  9-C , 12-C ) :   1.0749
B( 12-C , 13-H ) :   0.9737 B( 12-C , 14-H ) :   0.9685 B( 12-C , 15-H ) :   0.9779
B( 16-S , 17-C ) :   1.1901 B( 16-S , 20-C ) :   1.1179 B( 17-C , 18-C ) :   1.5821
B( 17-C , 33-H ) :   0.9715 B( 18-C , 19-C ) :   1.2196 B( 18-C , 21-H ) :   1.0009
B( 19-C , 20-C ) :   1.5951 B( 19-C , 22-C ) :   1.0315 B( 22-C , 23-H ) :   0.9467
B( 22-C , 24-H ) :   0.9381 B( 22-C , 25-C ) :   1.0454 B( 25-C , 26-H ) :   0.9596
B( 25-C , 27-H ) :   0.9553 B( 25-C , 28-C ) :   1.0839 B( 28-C , 29-H ) :   0.9736
B( 28-C , 30-H ) :   0.9711 B( 28-C , 31-H ) :   0.9678

Dispersion correction           -0.014963631
FINAL SINGLE POINT ENERGY     -1339.869439623580

DIPOLE MOMENT
-------------
                                X             Y             Z
Electronic contribution:     -2.15601      20.65400      16.12874
Nuclear contribution   :      2.01127     -21.18976     -16.40368
                        -----------------------------------------
Total Dipole Moment    :     -0.14474      -0.53576      -0.27494
                        -----------------------------------------
Magnitude (a.u.)       :      0.61934
Magnitude (Debye)      :      1.57423

Rotational constants in cm-1:     0.019439     0.009262     0.007035
Rotational constants in MHz :   582.779055   277.664445   210.892807

                             ****ORCA TERMINATED NORMALLY****
TOTAL RUN TIME: 0 days 0 hours 0 minutes 34 seconds 242 msec
