                         Program Version 4.2.1 -  RELEASE  -
|  1> ! wB97X-D3 SP def2-SVP
|  2> %pal
|  3> nprocs 16
|  4> end
|  5>
|  6> * xyz 0 1
|  7> S 	 -54.0868 	 38.8801 	 112.664
|  8> C 	 -53.034 	 39.0313 	 111.21
|  9> C 	 -53.7763 	 39.1864 	 110.093
| 10> C 	 -55.2207 	 39.0877 	 110.392
| 11> C 	 -55.5831 	 38.999 	 111.732
| 12> H 	 -56.1004 	 39.1604 	 109.7
| 13> C 	 -53.316 	 39.5974 	 108.717
| 14> H 	 -53.1512 	 40.7459 	 108.678
| 15> H 	 -54.0599 	 39.5217 	 107.918
| 16> C 	 -51.9413 	 38.9402 	 108.256
| 17> H 	 -51.2407 	 38.934 	 109.031
| 18> H 	 -52.2069 	 37.84 	 107.965
| 19> C 	 -51.2316 	 39.5424 	 107.013
| 20> H 	 -50.9901 	 40.5813 	 107.16
| 21> H 	 -50.3188 	 38.993 	 107.049
| 22> H 	 -51.8192 	 39.4171 	 106.115
| 23> S 	 -57.1716 	 37.5095 	 113.464
| 24> C 	 -58.7664 	 37.9961 	 113.831
| 25> C 	 -59.1468 	 39.1192 	 113.123
| 26> C 	 -58.068 	 39.6372 	 112.348
| 27> C 	 -56.877 	 38.9078 	 112.401
| 28> H 	 -60.1343 	 39.5069 	 113.218
| 29> C 	 -58.3423 	 40.8788 	 111.577
| 30> H 	 -59.0464 	 40.677 	 110.724
| 31> H 	 -57.3966 	 41.099 	 111.023
| 32> C 	 -59.133 	 42.0035 	 112.308
| 33> H 	 -58.635 	 42.2779 	 113.166
| 34> H 	 -60.1045 	 41.6517 	 112.673
| 35> C 	 -59.572 	 43.2629 	 111.459
| 36> H 	 -58.662 	 43.6816 	 111.092
| 37> H 	 -60.104 	 43.9487 	 112.108
| 38> H 	 -60.2195 	 42.9311 	 110.671
| 39> H 	 -51.9768 	 38.9824 	 111.193
| 40> H 	 -59.3049 	 37.4674 	 114.578
| 41> *
| 42>
| 43>                          ****END OF INPUT****

CARTESIAN COORDINATES (ANGSTROEM)
---------------------------------
  S    -54.086800   38.880100  112.664000
  C    -53.034000   39.031300  111.210000
  C    -53.776300   39.186400  110.093000
  C    -55.220700   39.087700  110.392000
  C    -55.583100   38.999000  111.732000
  H    -56.100400   39.160400  109.700000
  C    -53.316000   39.597400  108.717000
  H    -53.151200   40.745900  108.678000
  H    -54.059900   39.521700  107.918000
  C    -51.941300   38.940200  108.256000
  H    -51.240700   38.934000  109.031000
  H    -52.206900   37.840000  107.965000
  C    -51.231600   39.542400  107.013000
  H    -50.990100   40.581300  107.160000
  H    -50.318800   38.993000  107.049000
  H    -51.819200   39.417100  106.115000
  S    -57.171600   37.509500  113.464000
  C    -58.766400   37.996100  113.831000
  C    -59.146800   39.119200  113.123000
  C    -58.068000   39.637200  112.348000
  C    -56.877000   38.907800  112.401000
  H    -60.134300   39.506900  113.218000
  C    -58.342300   40.878800  111.577000
  H    -59.046400   40.677000  110.724000
  H    -57.396600   41.099000  111.023000
  C    -59.133000   42.003500  112.308000
  H    -58.635000   42.277900  113.166000
  H    -60.104500   41.651700  112.673000
  C    -59.572000   43.262900  111.459000
  H    -58.662000   43.681600  111.092000
  H    -60.104000   43.948700  112.108000
  H    -60.219500   42.931100  110.671000
  H    -51.976800   38.982400  111.193000
  H    -59.304900   37.467400  114.578000

 Total Charge           Charge          ....    0
 Multiplicity           Mult            ....    1
 Number of Electrons    NEL             ....  134
 Basis Dimension        Dim             ....  322

ORBITAL ENERGIES
----------------

  NO   OCC          E(Eh)            E(eV)
   0   2.0000     -88.962928     -2420.8043
   1   2.0000     -88.961818     -2420.7741
   2   2.0000     -10.335136      -281.2334
   3   2.0000     -10.331994      -281.1479
   4   2.0000     -10.316070      -280.7145
   5   2.0000     -10.315827      -280.7079
   6   2.0000     -10.307838      -280.4905
   7   2.0000     -10.306646      -280.4581
   8   2.0000     -10.304449      -280.3983
   9   2.0000     -10.302943      -280.3573
  10   2.0000     -10.295948      -280.1670
  11   2.0000     -10.295490      -280.1545
  12   2.0000     -10.291400      -280.0432
  13   2.0000     -10.284761      -279.8626
  14   2.0000     -10.278286      -279.6864
  15   2.0000     -10.277585      -279.6673
  16   2.0000      -8.078315      -219.8221
  17   2.0000      -8.075751      -219.7523
  18   2.0000      -6.036695      -164.2668
  19   2.0000      -6.034574      -164.2091
  20   2.0000      -6.032606      -164.1555
  21   2.0000      -6.030364      -164.0946
  22   2.0000      -6.029277      -164.0650
  23   2.0000      -6.026196      -163.9811
  24   2.0000      -1.004295       -27.3283
  25   2.0000      -0.981562       -26.7097
  26   2.0000      -0.907402       -24.6917
  27   2.0000      -0.905280       -24.6339
  28   2.0000      -0.871443       -23.7132
  29   2.0000      -0.852764       -23.2049
  30   2.0000      -0.840518       -22.8717
  31   2.0000      -0.814839       -22.1729
  32   2.0000      -0.782115       -21.2824
  33   2.0000      -0.774321       -21.0703
  34   2.0000      -0.711215       -19.3531
  35   2.0000      -0.706378       -19.2215
  36   2.0000      -0.694167       -18.8892
  37   2.0000      -0.660834       -17.9822
  38   2.0000      -0.641759       -17.4631
  39   2.0000      -0.609461       -16.5843
  40   2.0000      -0.598816       -16.2946
  41   2.0000      -0.577671       -15.7192
  42   2.0000      -0.564256       -15.3542
  43   2.0000      -0.558506       -15.1977
  44   2.0000      -0.533796       -14.5253
  45   2.0000      -0.528219       -14.3736
  46   2.0000      -0.519344       -14.1321
  47   2.0000      -0.513265       -13.9667
  48   2.0000      -0.511445       -13.9171
  49   2.0000      -0.497246       -13.5308
  50   2.0000      -0.493593       -13.4313
  51   2.0000      -0.482161       -13.1203
  52   2.0000      -0.474674       -12.9165
  53   2.0000      -0.459018       -12.4905
  54   2.0000      -0.455981       -12.4079
  55   2.0000      -0.454004       -12.3541
  56   2.0000      -0.446887       -12.1604
  57   2.0000      -0.436862       -11.8876
  58   2.0000      -0.427625       -11.6363
  59   2.0000      -0.423962       -11.5366
  60   2.0000      -0.416986       -11.3468
  61   2.0000      -0.413687       -11.2570
  62   2.0000      -0.410221       -11.1627
  63   2.0000      -0.345282        -9.3956
  64   2.0000      -0.329121        -8.9558
  65   2.0000      -0.322851        -8.7852
  66   2.0000      -0.299445        -8.1483
  67   0.0000       0.028906         0.7866
  68   0.0000       0.070052         1.9062
  69   0.0000       0.110381         3.0036
  70   0.0000       0.114790         3.1236
  71   0.0000       0.129041         3.5114

MULLIKEN ATOMIC CHARGES
-----------------------
   0 S :    0.086861
   1 C :   -0.112111
   2 C :   -0.042426
   3 C :    0.027154
   4 C :   -0.173096
   5 H :    0.026350
   6 C :    0.035754
   7 H :    0.048277
   8 H :    0.024432
   9 C :   -0.139569
  10 H :    0.019572
  11 H :    0.048734
  12 C :   -0.018786
  13 H :    0.027346
  14 H :    0.032525
  15 H :    0.040531
  16 S :    0.102562
  17 C :   -0.078509
  18 C :   -0.031620
  19 C :   -0.012549
  20 C :   -0.147092
  21 H :    0.015551
  22 C :    0.054592
  23 H :    0.030024
  24 H :    0.024813
  25 C :   -0.095945
  26 H :    0.018357
  27 H :    0.023706
  28 C :   -0.026655
  29 H :    0.032578
  30 H :    0.038597
  31 H :    0.030141
  32 H :    0.037425
  33 H :    0.052474
Sum of atomic charges:   -0.0000000

LOEWDIN ATOMIC CHARGES
----------------------
   0 S :    0.371612
   1 C :   -0.169533
   2 C :   -0.065034
   3 C :   -0.067389
   4 C :   -0.190103
   5 H :    0.036672
   6 C :   -0.042594
   7 H :    0.042425
   8 H :    0.028530
   9 C :   -0.038887
  10 H :    0.009065
  11 H :    0.036014
  12 C :   -0.058535
  13 H :    0.021335
  14 H :    0.028928
  15 H :    0.024931
  16 S :    0.415125
  17 C :   -0.177947
  18 C :   -0.071551
  19 C :   -0.050327
  20 C :   -0.203529
  21 H :    0.028916
  22 C :   -0.044612
  23 H :    0.037604
  24 H :    0.032577
  25 C :   -0.032788
  26 H :    0.010465
  27 H :    0.022759
  28 C :   -0.051202
  29 H :    0.021417
  30 H :    0.028613
  31 H :    0.021659
  32 H :    0.022594
  33 H :    0.022791

  Mayer bond orders larger than 0.100000
B(  0-S ,  1-C ) :   1.1118 B(  0-S ,  4-C ) :   1.1265 B(  1-C ,  2-C ) :   1.6585
B(  1-C , 32-H ) :   0.9719 B(  2-C ,  3-C ) :   1.1829 B(  2-C ,  6-C ) :   1.0228
B(  3-C ,  4-C ) :   1.6267 B(  3-C ,  5-H ) :   0.9836 B(  4-C , 20-C ) :   1.0380
B(  6-C ,  7-H ) :   0.9383 B(  6-C ,  8-H ) :   0.9479 B(  6-C ,  9-C ) :   1.0438
B(  9-C , 10-H ) :   0.9633 B(  9-C , 11-H ) :   0.9595 B(  9-C , 12-C ) :   1.0817
B( 12-C , 13-H ) :   0.9738 B( 12-C , 14-H ) :   0.9749 B( 12-C , 15-H ) :   0.9778
B( 16-S , 17-C ) :   1.1893 B( 16-S , 20-C ) :   1.1310 B( 17-C , 18-C ) :   1.5679
B( 17-C , 33-H ) :   0.9719 B( 18-C , 19-C ) :   1.2432 B( 18-C , 21-H ) :   1.0016
B( 19-C , 20-C ) :   1.5708 B( 19-C , 22-C ) :   1.0722 B( 22-C , 23-H ) :   0.9285
B( 22-C , 24-H ) :   0.9316 B( 22-C , 25-C ) :   1.0409 B( 25-C , 26-H ) :   0.9632
B( 25-C , 27-H ) :   0.9501 B( 25-C , 28-C ) :   1.0813 B( 28-C , 29-H ) :   0.9792
B( 28-C , 30-H ) :   0.9757 B( 28-C , 31-H ) :   0.9762

Dispersion correction           -0.012885872
FINAL SINGLE POINT ENERGY     -1339.862444542511

DIPOLE MOMENT
-------------
                                X             Y             Z
Electronic contribution:     -0.84563     -17.02641      21.02894
Nuclear contribution   :      0.58871      17.41502     -21.51705
                        -----------------------------------------
Total Dipole Moment    :     -0.25693       0.38861      -0.48811
                        -----------------------------------------
Magnitude (a.u.)       :      0.67475
Magnitude (Debye)      :      1.71507

Rotational constants in cm-1:     0.019700     0.006843     0.005492
Rotational constants in MHz :   590.582426   205.156553   164.640561

                             ****ORCA TERMINATED NORMALLY****
TOTAL RUN TIME: 0 days 0 hours 0 minutes 28 seconds 64 msec
