                         Program Version 4.2.1 -  RELEASE  -
|  1> ! wB97X-D3 SP def2-SVP
|  2> %pal
|  3> nprocs 16
|  4> end
|  5>
|  6> * xyz 0 1
|  7> S 	 -6.33893 	 41.5902 	 33.3615
|  8> C 	 -6.27273 	 39.8652 	 33.1954
|  9> C 	 -5.60315 	 39.2847 	 34.2943
| 10> C 	 -5.4024 	 40.1906 	 35.343
| 11> C 	 -5.8258 	 41.4775 	 35.0257
| 12> H 	 -5.03297 	 40.0486 	 36.3782
| 13> C 	 -5.25569 	 37.7612 	 34.3817
| 14> H 	 -5.92638 	 37.2436 	 33.7218
| 15> H 	 -5.60578 	 37.3097 	 35.3737
| 16> C 	 -3.82641 	 37.5514 	 33.8966
| 17> H 	 -3.67647 	 37.5928 	 32.8407
| 18> H 	 -3.22649 	 38.3905 	 34.1775
| 19> C 	 -3.19058 	 36.263 	 34.4373
| 20> H 	 -2.66242 	 36.37 	 35.3298
| 21> H 	 -3.87727 	 35.4474 	 34.4472
| 22> H 	 -2.38006 	 36.0285 	 33.7539
| 23> S 	 -7.37246 	 42.763 	 36.8924
| 24> C 	 -6.80842 	 44.1565 	 37.774
| 25> C 	 -5.49085 	 44.3829 	 37.4166
| 26> C 	 -4.9153 	 43.3541 	 36.5424
| 27> C 	 -5.88964 	 42.5584 	 36.0075
| 28> H 	 -5.08153 	 45.2924 	 37.8447
| 29> C 	 -3.51121 	 43.3673 	 36.1567
| 30> H 	 -3.25745 	 44.446 	 36.1072
| 31> H 	 -3.41677 	 42.9387 	 35.1195
| 32> C 	 -2.54837 	 42.7033 	 37.183
| 33> H 	 -2.88853 	 41.6517 	 37.2556
| 34> H 	 -2.76421 	 43.2717 	 38.0817
| 35> C 	 -1.10112 	 42.8326 	 36.8106
| 36> H 	 -0.972706 	 43.7267 	 36.1683
| 37> H 	 -0.969077 	 42.0782 	 36.0687
| 38> H 	 -0.410018 	 42.6532 	 37.6197
| 39> H 	 -6.64129 	 39.2376 	 32.3552
| 40> H 	 -7.25732 	 44.625 	 38.6574
| 41> *
| 42>
| 43>                          ****END OF INPUT****

CARTESIAN COORDINATES (ANGSTROEM)
---------------------------------
  S     -6.338930   41.590200   33.361500
  C     -6.272730   39.865200   33.195400
  C     -5.603150   39.284700   34.294300
  C     -5.402400   40.190600   35.343000
  C     -5.825800   41.477500   35.025700
  H     -5.032970   40.048600   36.378200
  C     -5.255690   37.761200   34.381700
  H     -5.926380   37.243600   33.721800
  H     -5.605780   37.309700   35.373700
  C     -3.826410   37.551400   33.896600
  H     -3.676470   37.592800   32.840700
  H     -3.226490   38.390500   34.177500
  C     -3.190580   36.263000   34.437300
  H     -2.662420   36.370000   35.329800
  H     -3.877270   35.447400   34.447200
  H     -2.380060   36.028500   33.753900
  S     -7.372460   42.763000   36.892400
  C     -6.808420   44.156500   37.774000
  C     -5.490850   44.382900   37.416600
  C     -4.915300   43.354100   36.542400
  C     -5.889640   42.558400   36.007500
  H     -5.081530   45.292400   37.844700
  C     -3.511210   43.367300   36.156700
  H     -3.257450   44.446000   36.107200
  H     -3.416770   42.938700   35.119500
  C     -2.548370   42.703300   37.183000
  H     -2.888530   41.651700   37.255600
  H     -2.764210   43.271700   38.081700
  C     -1.101120   42.832600   36.810600
  H     -0.972706   43.726700   36.168300
  H     -0.969077   42.078200   36.068700
  H     -0.410018   42.653200   37.619700
  H     -6.641290   39.237600   32.355200
  H     -7.257320   44.625000   38.657400

 Total Charge           Charge          ....    0
 Multiplicity           Mult            ....    1
 Number of Electrons    NEL             ....  134
 Basis Dimension        Dim             ....  322

ORBITAL ENERGIES
----------------

  NO   OCC          E(Eh)            E(eV)
   0   2.0000     -88.971715     -2421.0435
   1   2.0000     -88.958094     -2420.6728
   2   2.0000     -10.326590      -281.0008
   3   2.0000     -10.321405      -280.8597
   4   2.0000     -10.318536      -280.7816
   5   2.0000     -10.315590      -280.7015
   6   2.0000     -10.303850      -280.3820
   7   2.0000     -10.300997      -280.3044
   8   2.0000     -10.297918      -280.2206
   9   2.0000     -10.295849      -280.1643
  10   2.0000     -10.294286      -280.1218
  11   2.0000     -10.289037      -279.9789
  12   2.0000     -10.285128      -279.8726
  13   2.0000     -10.280618      -279.7498
  14   2.0000     -10.273842      -279.5655
  15   2.0000     -10.268534      -279.4210
  16   2.0000      -8.086182      -220.0362
  17   2.0000      -8.073414      -219.6888
  18   2.0000      -6.044586      -164.4816
  19   2.0000      -6.040717      -164.3763
  20   2.0000      -6.037087      -164.2775
  21   2.0000      -6.032009      -164.1393
  22   2.0000      -6.027700      -164.0221
  23   2.0000      -6.024156      -163.9256
  24   2.0000      -1.008203       -27.4346
  25   2.0000      -0.985679       -26.8217
  26   2.0000      -0.913699       -24.8630
  27   2.0000      -0.909478       -24.7482
  28   2.0000      -0.869425       -23.6583
  29   2.0000      -0.852738       -23.2042
  30   2.0000      -0.851199       -23.1623
  31   2.0000      -0.814088       -22.1525
  32   2.0000      -0.781440       -21.2641
  33   2.0000      -0.768221       -20.9043
  34   2.0000      -0.707063       -19.2402
  35   2.0000      -0.700464       -19.0606
  36   2.0000      -0.691113       -18.8061
  37   2.0000      -0.657661       -17.8959
  38   2.0000      -0.643372       -17.5070
  39   2.0000      -0.616116       -16.7654
  40   2.0000      -0.590078       -16.0568
  41   2.0000      -0.570715       -15.5299
  42   2.0000      -0.565762       -15.3952
  43   2.0000      -0.553226       -15.0540
  44   2.0000      -0.534490       -14.5442
  45   2.0000      -0.530686       -14.4407
  46   2.0000      -0.524320       -14.2675
  47   2.0000      -0.517315       -14.0769
  48   2.0000      -0.507101       -13.7989
  49   2.0000      -0.497249       -13.5308
  50   2.0000      -0.490218       -13.3395
  51   2.0000      -0.477164       -12.9843
  52   2.0000      -0.470488       -12.8026
  53   2.0000      -0.462850       -12.5948
  54   2.0000      -0.454881       -12.3779
  55   2.0000      -0.451648       -12.2900
  56   2.0000      -0.447923       -12.1886
  57   2.0000      -0.443857       -12.0780
  58   2.0000      -0.428845       -11.6695
  59   2.0000      -0.417213       -11.3529
  60   2.0000      -0.414113       -11.2686
  61   2.0000      -0.412429       -11.2228
  62   2.0000      -0.411936       -11.2094
  63   2.0000      -0.339368        -9.2347
  64   2.0000      -0.323326        -8.7982
  65   2.0000      -0.317635        -8.6433
  66   2.0000      -0.309138        -8.4121
  67   0.0000       0.039364         1.0712
  68   0.0000       0.057145         1.5550
  69   0.0000       0.111416         3.0318
  70   0.0000       0.123934         3.3724
  71   0.0000       0.131148         3.5687

MULLIKEN ATOMIC CHARGES
-----------------------
   0 S :    0.142045
   1 C :   -0.132852
   2 C :   -0.102740
   3 C :    0.042166
   4 C :   -0.203803
   5 H :    0.031903
   6 C :    0.060245
   7 H :    0.008159
   8 H :    0.047779
   9 C :   -0.052541
  10 H :    0.020458
  11 H :    0.018044
  12 C :   -0.008864
  13 H :    0.023341
  14 H :    0.027768
  15 H :    0.014914
  16 S :    0.103317
  17 C :   -0.103751
  18 C :   -0.051998
  19 C :   -0.001712
  20 C :   -0.170578
  21 H :    0.021963
  22 C :    0.003253
  23 H :    0.025712
  24 H :    0.035911
  25 C :   -0.084233
  26 H :    0.032810
  27 H :    0.023275
  28 C :    0.011400
  29 H :    0.026454
  30 H :    0.010439
  31 H :    0.047181
  32 H :    0.063511
  33 H :    0.071025
Sum of atomic charges:    0.0000000

LOEWDIN ATOMIC CHARGES
----------------------
   0 S :    0.426077
   1 C :   -0.213476
   2 C :   -0.063416
   3 C :   -0.060497
   4 C :   -0.208309
   5 H :    0.040778
   6 C :   -0.033111
   7 H :    0.024049
   8 H :    0.040183
   9 C :   -0.040048
  10 H :    0.024198
  11 H :    0.022245
  12 C :   -0.057060
  13 H :    0.018487
  14 H :    0.020740
  15 H :    0.027921
  16 S :    0.407882
  17 C :   -0.195774
  18 C :   -0.076162
  19 C :   -0.056600
  20 C :   -0.206431
  21 H :    0.030571
  22 C :   -0.041812
  23 H :    0.032876
  24 H :    0.032489
  25 C :   -0.037144
  26 H :    0.024754
  27 H :    0.020776
  28 C :   -0.067661
  29 H :    0.032228
  30 H :    0.024756
  31 H :    0.028663
  32 H :    0.038337
  33 H :    0.039490

  Mayer bond orders larger than 0.100000
B(  0-S ,  1-C ) :   1.1572 B(  0-S ,  4-C ) :   1.1612 B(  1-C ,  2-C ) :   1.5825
B(  1-C ,  4-C ) :   0.1059 B(  1-C , 32-H ) :   0.9619 B(  2-C ,  3-C ) :   1.2560
B(  2-C ,  6-C ) :   1.0218 B(  3-C ,  4-C ) :   1.5609 B(  3-C ,  5-H ) :   0.9908
B(  4-C , 20-C ) :   1.0224 B(  6-C ,  7-H ) :   0.9334 B(  6-C ,  8-H ) :   0.9583
B(  6-C ,  9-C ) :   1.0393 B(  9-C , 10-H ) :   0.9557 B(  9-C , 11-H ) :   0.9606
B(  9-C , 12-C ) :   1.0793 B( 12-C , 13-H ) :   0.9784 B( 12-C , 14-H ) :   0.9762
B( 12-C , 15-H ) :   0.9716 B( 16-S , 17-C ) :   1.1505 B( 16-S , 20-C ) :   1.1374
B( 17-C , 18-C ) :   1.6356 B( 17-C , 33-H ) :   0.9626 B( 18-C , 19-C ) :   1.1998
B( 18-C , 21-H ) :   0.9879 B( 19-C , 20-C ) :   1.6125 B( 19-C , 22-C ) :   1.0704
B( 22-C , 23-H ) :   0.9285 B( 22-C , 24-H ) :   0.9297 B( 22-C , 25-C ) :   1.0575
B( 25-C , 26-H ) :   0.9557 B( 25-C , 27-H ) :   0.9556 B( 25-C , 28-C ) :   1.0819
B( 28-C , 29-H ) :   0.9665 B( 28-C , 30-H ) :   0.9674 B( 28-C , 31-H ) :   0.9731

Dispersion correction           -0.014097331
FINAL SINGLE POINT ENERGY     -1339.856959119226

DIPOLE MOMENT
-------------
                                X             Y             Z
Electronic contribution:    -24.90175      14.64944      -2.29882
Nuclear contribution   :     25.43565     -14.94752       2.44945
                        -----------------------------------------
Total Dipole Moment    :      0.53389      -0.29808       0.15063
                        -----------------------------------------
Magnitude (a.u.)       :      0.62975
Magnitude (Debye)      :      1.60070

Rotational constants in cm-1:     0.017231     0.008687     0.006724
Rotational constants in MHz :   516.572175   260.442467   201.582529

                             ****ORCA TERMINATED NORMALLY****
TOTAL RUN TIME: 0 days 0 hours 0 minutes 31 seconds 342 msec
