                         Program Version 4.2.1 -  RELEASE  -
|  1> ! wB97X-D3 SP def2-SVP
|  2> %pal
|  3> nprocs 16
|  4> end
|  5>
|  6> * xyz 0 1
|  7> S 	 -30.4223 	 54.9864 	 112.447
|  8> C 	 -31.4468 	 55.7828 	 111.254
|  9> C 	 -32.5273 	 54.9839 	 110.892
| 10> C 	 -32.5261 	 53.7533 	 111.569
| 11> C 	 -31.4684 	 53.5588 	 112.443
| 12> H 	 -33.1962 	 52.9503 	 111.508
| 13> C 	 -33.6673 	 55.4138 	 109.977
| 14> H 	 -33.5563 	 56.4858 	 109.618
| 15> H 	 -34.561 	 55.3912 	 110.633
| 16> C 	 -33.6748 	 54.5075 	 108.756
| 17> H 	 -32.7025 	 54.5137 	 108.265
| 18> H 	 -33.9149 	 53.5444 	 109.154
| 19> C 	 -34.7237 	 54.9273 	 107.685
| 20> H 	 -34.4661 	 55.9536 	 107.464
| 21> H 	 -34.6523 	 54.3916 	 106.744
| 22> H 	 -35.7552 	 54.9508 	 107.959
| 23> S 	 -32.0071 	 52.3801 	 114.977
| 24> C 	 -31.4354 	 50.7 	 115.22
| 25> C 	 -30.9308 	 50.0626 	 114.083
| 26> C 	 -30.9267 	 50.9698 	 112.948
| 27> C 	 -31.3512 	 52.3271 	 113.286
| 28> H 	 -30.5908 	 49.0226 	 114.12
| 29> C 	 -30.7078 	 50.4155 	 111.562
| 30> H 	 -29.9034 	 49.6085 	 111.471
| 31> H 	 -30.3179 	 51.2195 	 110.92
| 32> C 	 -31.9686 	 49.7595 	 111.009
| 33> H 	 -32.7253 	 50.4832 	 111.187
| 34> H 	 -32.3043 	 48.8155 	 111.594
| 35> C 	 -31.885 	 49.5156 	 109.52
| 36> H 	 -31.037 	 48.9655 	 109.266
| 37> H 	 -31.8919 	 50.4854 	 108.964
| 38> H 	 -32.8446 	 49.0607 	 109.169
| 39> H 	 -31.2272 	 56.7918 	 110.861
| 40> H 	 -31.4096 	 50.1159 	 116.141
| 41> *
| 42>
| 43>                          ****END OF INPUT****

CARTESIAN COORDINATES (ANGSTROEM)
---------------------------------
  S    -30.422300   54.986400  112.447000
  C    -31.446800   55.782800  111.254000
  C    -32.527300   54.983900  110.892000
  C    -32.526100   53.753300  111.569000
  C    -31.468400   53.558800  112.443000
  H    -33.196200   52.950300  111.508000
  C    -33.667300   55.413800  109.977000
  H    -33.556300   56.485800  109.618000
  H    -34.561000   55.391200  110.633000
  C    -33.674800   54.507500  108.756000
  H    -32.702500   54.513700  108.265000
  H    -33.914900   53.544400  109.154000
  C    -34.723700   54.927300  107.685000
  H    -34.466100   55.953600  107.464000
  H    -34.652300   54.391600  106.744000
  H    -35.755200   54.950800  107.959000
  S    -32.007100   52.380100  114.977000
  C    -31.435400   50.700000  115.220000
  C    -30.930800   50.062600  114.083000
  C    -30.926700   50.969800  112.948000
  C    -31.351200   52.327100  113.286000
  H    -30.590800   49.022600  114.120000
  C    -30.707800   50.415500  111.562000
  H    -29.903400   49.608500  111.471000
  H    -30.317900   51.219500  110.920000
  C    -31.968600   49.759500  111.009000
  H    -32.725300   50.483200  111.187000
  H    -32.304300   48.815500  111.594000
  C    -31.885000   49.515600  109.520000
  H    -31.037000   48.965500  109.266000
  H    -31.891900   50.485400  108.964000
  H    -32.844600   49.060700  109.169000
  H    -31.227200   56.791800  110.861000
  H    -31.409600   50.115900  116.141000

 Total Charge           Charge          ....    0
 Multiplicity           Mult            ....    1
 Number of Electrons    NEL             ....  134
 Basis Dimension        Dim             ....  322

ORBITAL ENERGIES
----------------

  NO   OCC          E(Eh)            E(eV)
   0   2.0000     -88.971675     -2421.0424
   1   2.0000     -88.968514     -2420.9563
   2   2.0000     -10.340484      -281.3789
   3   2.0000     -10.332117      -281.1512
   4   2.0000     -10.323271      -280.9105
   5   2.0000     -10.319962      -280.8204
   6   2.0000     -10.316740      -280.7328
   7   2.0000     -10.301823      -280.3268
   8   2.0000     -10.299483      -280.2632
   9   2.0000     -10.299359      -280.2598
  10   2.0000     -10.295314      -280.1497
  11   2.0000     -10.290115      -280.0083
  12   2.0000     -10.287715      -279.9429
  13   2.0000     -10.287085      -279.9258
  14   2.0000     -10.277661      -279.6694
  15   2.0000     -10.275313      -279.6055
  16   2.0000      -8.084266      -219.9841
  17   2.0000      -8.082424      -219.9339
  18   2.0000      -6.042903      -164.4357
  19   2.0000      -6.040896      -164.3811
  20   2.0000      -6.039222      -164.3356
  21   2.0000      -6.036985      -164.2747
  22   2.0000      -6.034871      -164.2172
  23   2.0000      -6.033329      -164.1752
  24   2.0000      -0.996714       -27.1220
  25   2.0000      -0.971090       -26.4247
  26   2.0000      -0.913041       -24.8451
  27   2.0000      -0.909970       -24.7615
  28   2.0000      -0.862344       -23.4656
  29   2.0000      -0.848870       -23.0989
  30   2.0000      -0.846397       -23.0316
  31   2.0000      -0.811810       -22.0905
  32   2.0000      -0.780937       -21.2504
  33   2.0000      -0.764281       -20.7971
  34   2.0000      -0.705416       -19.1953
  35   2.0000      -0.696709       -18.9584
  36   2.0000      -0.688281       -18.7291
  37   2.0000      -0.652995       -17.7689
  38   2.0000      -0.646741       -17.5987
  39   2.0000      -0.618789       -16.8381
  40   2.0000      -0.590926       -16.0799
  41   2.0000      -0.570918       -15.5355
  42   2.0000      -0.567342       -15.4382
  43   2.0000      -0.558043       -15.1851
  44   2.0000      -0.525729       -14.3058
  45   2.0000      -0.522320       -14.2130
  46   2.0000      -0.517076       -14.0704
  47   2.0000      -0.509862       -13.8741
  48   2.0000      -0.504965       -13.7408
  49   2.0000      -0.496521       -13.5110
  50   2.0000      -0.489391       -13.3170
  51   2.0000      -0.477017       -12.9803
  52   2.0000      -0.470398       -12.8002
  53   2.0000      -0.462814       -12.5938
  54   2.0000      -0.457899       -12.4601
  55   2.0000      -0.445657       -12.1269
  56   2.0000      -0.443089       -12.0571
  57   2.0000      -0.439688       -11.9645
  58   2.0000      -0.433473       -11.7954
  59   2.0000      -0.425620       -11.5817
  60   2.0000      -0.422959       -11.5093
  61   2.0000      -0.415256       -11.2997
  62   2.0000      -0.411114       -11.1870
  63   2.0000      -0.338354        -9.2071
  64   2.0000      -0.330615        -8.9965
  65   2.0000      -0.318277        -8.6608
  66   2.0000      -0.303863        -8.2685
  67   0.0000       0.033599         0.9143
  68   0.0000       0.050103         1.3634
  69   0.0000       0.103689         2.8215
  70   0.0000       0.117589         3.1998
  71   0.0000       0.123550         3.3620

MULLIKEN ATOMIC CHARGES
-----------------------
   0 S :    0.117494
   1 C :   -0.147380
   2 C :   -0.052062
   3 C :    0.045618
   4 C :   -0.166374
   5 H :   -0.004403
   6 C :    0.043716
   7 H :    0.021158
   8 H :    0.049606
   9 C :   -0.076507
  10 H :    0.040271
  11 H :    0.024869
  12 C :   -0.023385
  13 H :    0.012099
  14 H :    0.035026
  15 H :    0.025972
  16 S :    0.111837
  17 C :   -0.089186
  18 C :   -0.044961
  19 C :   -0.010682
  20 C :   -0.190716
  21 H :    0.036306
  22 C :    0.016237
  23 H :    0.030124
  24 H :    0.034704
  25 C :   -0.078641
  26 H :    0.009841
  27 H :    0.043838
  28 C :   -0.028006
  29 H :    0.025004
  30 H :    0.032998
  31 H :    0.036936
  32 H :    0.060935
  33 H :    0.057717
Sum of atomic charges:    0.0000000

LOEWDIN ATOMIC CHARGES
----------------------
   0 S :    0.398495
   1 C :   -0.195060
   2 C :   -0.066327
   3 C :   -0.053487
   4 C :   -0.200053
   5 H :    0.021921
   6 C :   -0.031748
   7 H :    0.029790
   8 H :    0.037373
   9 C :   -0.034824
  10 H :    0.031317
  11 H :    0.017443
  12 C :   -0.065934
  13 H :    0.021906
  14 H :    0.026442
  15 H :    0.020920
  16 S :    0.373615
  17 C :   -0.174264
  18 C :   -0.073497
  19 C :   -0.038434
  20 C :   -0.192824
  21 H :    0.039021
  22 C :   -0.043554
  23 H :    0.033234
  24 H :    0.033213
  25 C :   -0.045111
  26 H :    0.015031
  27 H :    0.033299
  28 C :   -0.062506
  29 H :    0.014302
  30 H :    0.031671
  31 H :    0.032670
  32 H :    0.034320
  33 H :    0.031638

  Mayer bond orders larger than 0.100000
B(  0-S ,  1-C ) :   1.1496 B(  0-S ,  4-C ) :   1.1460 B(  1-C ,  2-C ) :   1.5953
B(  1-C , 32-H ) :   0.9650 B(  2-C ,  3-C ) :   1.2350 B(  2-C ,  6-C ) :   1.0168
B(  3-C ,  4-C ) :   1.5794 B(  3-C ,  5-H ) :   0.9987 B(  4-C , 20-C ) :   1.0359
B(  6-C ,  7-H ) :   0.9437 B(  6-C ,  8-H ) :   0.9431 B(  6-C ,  9-C ) :   1.0530
B(  9-C , 10-H ) :   0.9567 B(  9-C , 11-H ) :   0.9587 B(  9-C , 12-C ) :   1.0806
B( 12-C , 13-H ) :   0.9722 B( 12-C , 14-H ) :   0.9764 B( 12-C , 15-H ) :   0.9763
B( 16-S , 17-C ) :   1.1448 B( 16-S , 20-C ) :   1.1228 B( 17-C , 18-C ) :   1.6368
B( 17-C , 20-C ) :   0.1007 B( 17-C , 33-H ) :   0.9598 B( 18-C , 19-C ) :   1.2263
B( 18-C , 21-H ) :   0.9825 B( 19-C , 20-C ) :   1.5822 B( 19-C , 22-C ) :   1.0640
B( 22-C , 23-H ) :   0.9363 B( 22-C , 24-H ) :   0.9332 B( 22-C , 25-C ) :   1.0529
B( 25-C , 26-H ) :   0.9521 B( 25-C , 27-H ) :   0.9501 B( 25-C , 28-C ) :   1.0906
B( 28-C , 29-H ) :   0.9750 B( 28-C , 30-H ) :   0.9717 B( 28-C , 31-H ) :   0.9710

Dispersion correction           -0.014497229
FINAL SINGLE POINT ENERGY     -1339.867225209500

DIPOLE MOMENT
-------------
                                X             Y             Z
Electronic contribution:     11.73585       8.19289      27.59715
Nuclear contribution   :    -12.05257      -8.47988     -28.13390
                        -----------------------------------------
Total Dipole Moment    :     -0.31672      -0.28699      -0.53675
                        -----------------------------------------
Magnitude (a.u.)       :      0.68613
Magnitude (Debye)      :      1.74400

Rotational constants in cm-1:     0.016954     0.009039     0.006810
Rotational constants in MHz :   508.267895   270.968973   204.155093

                             ****ORCA TERMINATED NORMALLY****
TOTAL RUN TIME: 0 days 0 hours 0 minutes 30 seconds 222 msec
