                         Program Version 4.2.1 -  RELEASE  -
|  1> ! wB97X-D3 SP def2-SVP
|  2> %pal
|  3> nprocs 16
|  4> end
|  5>
|  6> * xyz 0 1
|  7> S 	 66.835 	 15.9372 	 76.7322
|  8> C 	 65.2612 	 15.4663 	 76.06
|  9> C 	 64.7459 	 16.5888 	 75.3784
| 10> C 	 65.6519 	 17.7009 	 75.2812
| 11> C 	 66.7704 	 17.5459 	 76.0643
| 12> H 	 65.4392 	 18.5905 	 74.6755
| 13> C 	 63.4122 	 16.6056 	 74.6513
| 14> H 	 63.096 	 15.5569 	 74.5253
| 15> H 	 63.5283 	 17.1033 	 73.6781
| 16> C 	 62.2078 	 17.3257 	 75.2553
| 17> H 	 62.5699 	 18.2632 	 75.6029
| 18> H 	 61.562 	 17.4788 	 74.4402
| 19> C 	 61.528 	 16.4051 	 76.3442
| 20> H 	 60.6712 	 16.9053 	 76.8164
| 21> H 	 61.0979 	 15.5447 	 75.8686
| 22> H 	 62.3481 	 16.1145 	 76.9441
| 23> S 	 69.0682 	 18.732 	 75.0276
| 24> C 	 69.6357 	 20.1836 	 75.8051
| 25> C 	 69.0481 	 20.3737 	 76.9818
| 26> C 	 67.885 	 19.6034 	 77.2083
| 27> C 	 67.8095 	 18.526 	 76.2685
| 28> H 	 69.369 	 21.1663 	 77.5689
| 29> C 	 66.9061 	 19.9467 	 78.3152
| 30> H 	 66.0534 	 19.2664 	 78.3566
| 31> H 	 66.3887 	 20.9239 	 78.287
| 32> C 	 67.5464 	 19.799 	 79.6977
| 33> H 	 66.8148 	 20.1161 	 80.4217
| 34> H 	 68.4409 	 20.4673 	 79.8114
| 35> C 	 68.0705 	 18.3383 	 80.1345
| 36> H 	 68.7855 	 17.822 	 79.4641
| 37> H 	 67.1897 	 17.7071 	 80.2782
| 38> H 	 68.4768 	 18.3456 	 81.1511
| 39> H 	 64.6491 	 14.5631 	 76.3437
| 40> H 	 70.528 	 20.853 	 75.6272
| 41> *
| 42>
| 43>                          ****END OF INPUT****

CARTESIAN COORDINATES (ANGSTROEM)
---------------------------------
  S     66.835000   15.937200   76.732200
  C     65.261200   15.466300   76.060000
  C     64.745900   16.588800   75.378400
  C     65.651900   17.700900   75.281200
  C     66.770400   17.545900   76.064300
  H     65.439200   18.590500   74.675500
  C     63.412200   16.605600   74.651300
  H     63.096000   15.556900   74.525300
  H     63.528300   17.103300   73.678100
  C     62.207800   17.325700   75.255300
  H     62.569900   18.263200   75.602900
  H     61.562000   17.478800   74.440200
  C     61.528000   16.405100   76.344200
  H     60.671200   16.905300   76.816400
  H     61.097900   15.544700   75.868600
  H     62.348100   16.114500   76.944100
  S     69.068200   18.732000   75.027600
  C     69.635700   20.183600   75.805100
  C     69.048100   20.373700   76.981800
  C     67.885000   19.603400   77.208300
  C     67.809500   18.526000   76.268500
  H     69.369000   21.166300   77.568900
  C     66.906100   19.946700   78.315200
  H     66.053400   19.266400   78.356600
  H     66.388700   20.923900   78.287000
  C     67.546400   19.799000   79.697700
  H     66.814800   20.116100   80.421700
  H     68.440900   20.467300   79.811400
  C     68.070500   18.338300   80.134500
  H     68.785500   17.822000   79.464100
  H     67.189700   17.707100   80.278200
  H     68.476800   18.345600   81.151100
  H     64.649100   14.563100   76.343700
  H     70.528000   20.853000   75.627200

 Total Charge           Charge          ....    0
 Multiplicity           Mult            ....    1
 Number of Electrons    NEL             ....  134
 Basis Dimension        Dim             ....  322

ORBITAL ENERGIES
----------------

  NO   OCC          E(Eh)            E(eV)
   0   2.0000     -88.967346     -2420.9246
   1   2.0000     -88.966821     -2420.9103
   2   2.0000     -10.330527      -281.1079
   3   2.0000     -10.328482      -281.0523
   4   2.0000     -10.324105      -280.9332
   5   2.0000     -10.315231      -280.6917
   6   2.0000     -10.309583      -280.5380
   7   2.0000     -10.304688      -280.4048
   8   2.0000     -10.296225      -280.1745
   9   2.0000     -10.294740      -280.1341
  10   2.0000     -10.291972      -280.0588
  11   2.0000     -10.288837      -279.9735
  12   2.0000     -10.280599      -279.7493
  13   2.0000     -10.279611      -279.7224
  14   2.0000     -10.278483      -279.6917
  15   2.0000     -10.275703      -279.6161
  16   2.0000      -8.081586      -219.9111
  17   2.0000      -8.081034      -219.8961
  18   2.0000      -6.040155      -164.3610
  19   2.0000      -6.039608      -164.3461
  20   2.0000      -6.036195      -164.2532
  21   2.0000      -6.035450      -164.2329
  22   2.0000      -6.032254      -164.1460
  23   2.0000      -6.031893      -164.1362
  24   2.0000      -1.005273       -27.3549
  25   2.0000      -0.983905       -26.7734
  26   2.0000      -0.912357       -24.8265
  27   2.0000      -0.903379       -24.5822
  28   2.0000      -0.871602       -23.7175
  29   2.0000      -0.843922       -22.9643
  30   2.0000      -0.838999       -22.8303
  31   2.0000      -0.813068       -22.1247
  32   2.0000      -0.783279       -21.3141
  33   2.0000      -0.772916       -21.0321
  34   2.0000      -0.713021       -19.4023
  35   2.0000      -0.696352       -18.9487
  36   2.0000      -0.689129       -18.7521
  37   2.0000      -0.652241       -17.7484
  38   2.0000      -0.635580       -17.2950
  39   2.0000      -0.621432       -16.9100
  40   2.0000      -0.601803       -16.3759
  41   2.0000      -0.575434       -15.6584
  42   2.0000      -0.554691       -15.0939
  43   2.0000      -0.541323       -14.7301
  44   2.0000      -0.537915       -14.6374
  45   2.0000      -0.534661       -14.5489
  46   2.0000      -0.514957       -14.0127
  47   2.0000      -0.507829       -13.8187
  48   2.0000      -0.504280       -13.7221
  49   2.0000      -0.493478       -13.4282
  50   2.0000      -0.488903       -13.3037
  51   2.0000      -0.473249       -12.8778
  52   2.0000      -0.471501       -12.8302
  53   2.0000      -0.465780       -12.6745
  54   2.0000      -0.457114       -12.4387
  55   2.0000      -0.448476       -12.2036
  56   2.0000      -0.447059       -12.1651
  57   2.0000      -0.438322       -11.9274
  58   2.0000      -0.429800       -11.6955
  59   2.0000      -0.427586       -11.6352
  60   2.0000      -0.420772       -11.4498
  61   2.0000      -0.410557       -11.1718
  62   2.0000      -0.406299       -11.0560
  63   2.0000      -0.338045        -9.1987
  64   2.0000      -0.328816        -8.9475
  65   2.0000      -0.316243        -8.6054
  66   2.0000      -0.313280        -8.5248
  67   0.0000       0.041514         1.1297
  68   0.0000       0.048637         1.3235
  69   0.0000       0.110802         3.0151
  70   0.0000       0.121797         3.3143
  71   0.0000       0.124762         3.3949

MULLIKEN ATOMIC CHARGES
-----------------------
   0 S :    0.111595
   1 C :   -0.137090
   2 C :   -0.098116
   3 C :    0.043073
   4 C :   -0.161008
   5 H :    0.026125
   6 C :    0.006824
   7 H :    0.015883
   8 H :    0.029967
   9 C :   -0.024012
  10 H :    0.016268
  11 H :    0.018045
  12 C :   -0.042793
  13 H :    0.042474
  14 H :    0.020949
  15 H :    0.030644
  16 S :    0.118474
  17 C :   -0.090348
  18 C :   -0.016576
  19 C :   -0.006001
  20 C :   -0.182532
  21 H :   -0.006536
  22 C :    0.086103
  23 H :    0.021114
  24 H :    0.043545
  25 C :   -0.117207
  26 H :    0.027953
  27 H :    0.035617
  28 C :   -0.074257
  29 H :    0.054311
  30 H :    0.025725
  31 H :    0.032031
  32 H :    0.079178
  33 H :    0.070578
Sum of atomic charges:   -0.0000000

LOEWDIN ATOMIC CHARGES
----------------------
   0 S :    0.407142
   1 C :   -0.210045
   2 C :   -0.065382
   3 C :   -0.058743
   4 C :   -0.204238
   5 H :    0.037731
   6 C :   -0.036710
   7 H :    0.027993
   8 H :    0.034067
   9 C :   -0.028262
  10 H :    0.016525
  11 H :    0.016360
  12 C :   -0.059656
  13 H :    0.028782
  14 H :    0.021398
  15 H :    0.020477
  16 S :    0.401682
  17 C :   -0.193371
  18 C :   -0.072893
  19 C :   -0.037081
  20 C :   -0.202396
  21 H :    0.020714
  22 C :   -0.037026
  23 H :    0.031739
  24 H :    0.039426
  25 C :   -0.039147
  26 H :    0.021960
  27 H :    0.020898
  28 C :   -0.075039
  29 H :    0.028988
  30 H :    0.022942
  31 H :    0.027281
  32 H :    0.044597
  33 H :    0.049291

  Mayer bond orders larger than 0.100000
B(  0-S ,  1-C ) :   1.1338 B(  0-S ,  4-C ) :   1.1609 B(  1-C ,  2-C ) :   1.5938
B(  1-C , 32-H ) :   0.9588 B(  2-C ,  3-C ) :   1.2439 B(  2-C ,  6-C ) :   1.0371
B(  3-C ,  4-C ) :   1.5731 B(  3-C ,  5-H ) :   0.9924 B(  4-C , 20-C ) :   1.0222
B(  6-C ,  7-H ) :   0.9440 B(  6-C ,  8-H ) :   0.9417 B(  6-C ,  9-C ) :   1.0676
B(  9-C , 10-H ) :   0.9557 B(  9-C , 11-H ) :   0.9569 B(  9-C , 12-C ) :   1.0688
B( 12-C , 13-H ) :   0.9762 B( 12-C , 14-H ) :   0.9744 B( 12-C , 15-H ) :   0.9817
B( 16-S , 17-C ) :   1.1422 B( 16-S , 20-C ) :   1.1379 B( 17-C , 18-C ) :   1.6624
B( 17-C , 33-H ) :   0.9495 B( 18-C , 19-C ) :   1.2288 B( 18-C , 21-H ) :   0.9884
B( 19-C , 20-C ) :   1.5870 B( 19-C , 22-C ) :   1.0495 B( 22-C , 23-H ) :   0.9307
B( 22-C , 24-H ) :   0.9381 B( 22-C , 25-C ) :   1.0661 B( 25-C , 26-H ) :   0.9562
B( 25-C , 27-H ) :   0.9611 B( 25-C , 28-C ) :   1.0622 B( 28-C , 29-H ) :   0.9775
B( 28-C , 30-H ) :   0.9757 B( 28-C , 31-H ) :   0.9749

Dispersion correction           -0.014846901
FINAL SINGLE POINT ENERGY     -1339.863579475306

DIPOLE MOMENT
-------------
                                X             Y             Z
Electronic contribution:     19.59234      -2.93838     -11.75980
Nuclear contribution   :    -20.09094       3.38808      11.92843
                        -----------------------------------------
Total Dipole Moment    :     -0.49860       0.44970       0.16863
                        -----------------------------------------
Magnitude (a.u.)       :      0.69229
Magnitude (Debye)      :      1.75966

Rotational constants in cm-1:     0.020156     0.008127     0.007245
Rotational constants in MHz :   604.272091   243.639063   217.211670

                             ****ORCA TERMINATED NORMALLY****
TOTAL RUN TIME: 0 days 0 hours 0 minutes 30 seconds 619 msec
