                         Program Version 4.2.1 -  RELEASE  -
|  1> ! wB97X-D3 SP def2-SVP
|  2> %pal
|  3> nprocs 16
|  4> end
|  5>
|  6> * xyz 0 1
|  7> S 	 41.7034 	 13.8986 	 86.5597
|  8> C 	 43.012 	 14.9318 	 86.4812
|  9> C 	 43.9742 	 14.5297 	 85.586
| 10> C 	 43.5797 	 13.3847 	 84.8738
| 11> C 	 42.3604 	 12.8726 	 85.274
| 12> H 	 44.1204 	 12.8352 	 84.0981
| 13> C 	 45.2999 	 15.1405 	 85.3872
| 14> H 	 46.0109 	 14.3548 	 85.6607
| 15> H 	 45.4839 	 15.9281 	 86.1654
| 16> C 	 45.6129 	 15.7256 	 84.0435
| 17> H 	 46.6204 	 16.1048 	 84.021
| 18> H 	 45.6028 	 14.9465 	 83.223
| 19> C 	 44.5964 	 16.7982 	 83.7425
| 20> H 	 43.6109 	 16.5825 	 83.9875
| 21> H 	 44.8255 	 17.665 	 84.3523
| 22> H 	 44.5907 	 17.116 	 82.6745
| 23> S 	 42.6951 	 10.7794 	 83.4607
| 24> C 	 41.3142 	 9.8776 	 82.8625
| 25> C 	 40.1435 	 10.2406 	 83.507
| 26> C 	 40.3344 	 11.2721 	 84.4763
| 27> C 	 41.6808 	 11.7413 	 84.597
| 28> H 	 39.2394 	 9.747 	 83.2798
| 29> C 	 39.1673 	 11.8748 	 85.189
| 30> H 	 38.7112 	 12.4413 	 84.3987
| 31> H 	 39.4839 	 12.608 	 85.9608
| 32> C 	 38.0405 	 10.863 	 85.6524
| 33> H 	 37.6023 	 10.3835 	 84.7375
| 34> H 	 37.2191 	 11.385 	 86.1751
| 35> C 	 38.556 	 9.71602 	 86.5909
| 36> H 	 39.4774 	 9.18238 	 86.4377
| 37> H 	 37.7273 	 9.05111 	 86.8397
| 38> H 	 38.7787 	 10.2626 	 87.5249
| 39> H 	 43.3109 	 15.7013 	 87.2533
| 40> H 	 41.2734 	 9.08852 	 82.1439
| 41> *
| 42>
| 43>                          ****END OF INPUT****

CARTESIAN COORDINATES (ANGSTROEM)
---------------------------------
  S     41.703400   13.898600   86.559700
  C     43.012000   14.931800   86.481200
  C     43.974200   14.529700   85.586000
  C     43.579700   13.384700   84.873800
  C     42.360400   12.872600   85.274000
  H     44.120400   12.835200   84.098100
  C     45.299900   15.140500   85.387200
  H     46.010900   14.354800   85.660700
  H     45.483900   15.928100   86.165400
  C     45.612900   15.725600   84.043500
  H     46.620400   16.104800   84.021000
  H     45.602800   14.946500   83.223000
  C     44.596400   16.798200   83.742500
  H     43.610900   16.582500   83.987500
  H     44.825500   17.665000   84.352300
  H     44.590700   17.116000   82.674500
  S     42.695100   10.779400   83.460700
  C     41.314200    9.877600   82.862500
  C     40.143500   10.240600   83.507000
  C     40.334400   11.272100   84.476300
  C     41.680800   11.741300   84.597000
  H     39.239400    9.747000   83.279800
  C     39.167300   11.874800   85.189000
  H     38.711200   12.441300   84.398700
  H     39.483900   12.608000   85.960800
  C     38.040500   10.863000   85.652400
  H     37.602300   10.383500   84.737500
  H     37.219100   11.385000   86.175100
  C     38.556000    9.716020   86.590900
  H     39.477400    9.182380   86.437700
  H     37.727300    9.051110   86.839700
  H     38.778700   10.262600   87.524900
  H     43.310900   15.701300   87.253300
  H     41.273400    9.088520   82.143900

 Total Charge           Charge          ....    0
 Multiplicity           Mult            ....    1
 Number of Electrons    NEL             ....  134
 Basis Dimension        Dim             ....  322

ORBITAL ENERGIES
----------------

  NO   OCC          E(Eh)            E(eV)
   0   2.0000     -88.970986     -2421.0236
   1   2.0000     -88.967891     -2420.9394
   2   2.0000     -10.337971      -281.3105
   3   2.0000     -10.335442      -281.2417
   4   2.0000     -10.319372      -280.8044
   5   2.0000     -10.310545      -280.5642
   6   2.0000     -10.309247      -280.5289
   7   2.0000     -10.300516      -280.2913
   8   2.0000     -10.294465      -280.1266
   9   2.0000     -10.293307      -280.0951
  10   2.0000     -10.292147      -280.0636
  11   2.0000     -10.290891      -280.0294
  12   2.0000     -10.288765      -279.9715
  13   2.0000     -10.285168      -279.8737
  14   2.0000     -10.275606      -279.6134
  15   2.0000     -10.265677      -279.3433
  16   2.0000      -8.086091      -220.0337
  17   2.0000      -8.081302      -219.9034
  18   2.0000      -6.044582      -164.4814
  19   2.0000      -6.040489      -164.3701
  20   2.0000      -6.040042      -164.3579
  21   2.0000      -6.036920      -164.2729
  22   2.0000      -6.035969      -164.2471
  23   2.0000      -6.031950      -164.1377
  24   2.0000      -1.010993       -27.5105
  25   2.0000      -0.983987       -26.7756
  26   2.0000      -0.921150       -25.0658
  27   2.0000      -0.903234       -24.5782
  28   2.0000      -0.872918       -23.7533
  29   2.0000      -0.854290       -23.2464
  30   2.0000      -0.841873       -22.9085
  31   2.0000      -0.814781       -22.1713
  32   2.0000      -0.782863       -21.3028
  33   2.0000      -0.771452       -20.9923
  34   2.0000      -0.711281       -19.3549
  35   2.0000      -0.701877       -19.0990
  36   2.0000      -0.689767       -18.7695
  37   2.0000      -0.665309       -18.1040
  38   2.0000      -0.635923       -17.3043
  39   2.0000      -0.618149       -16.8207
  40   2.0000      -0.591553       -16.0970
  41   2.0000      -0.570982       -15.5372
  42   2.0000      -0.559339       -15.2204
  43   2.0000      -0.550900       -14.9907
  44   2.0000      -0.543610       -14.7924
  45   2.0000      -0.536333       -14.5944
  46   2.0000      -0.515672       -14.0321
  47   2.0000      -0.512223       -13.9383
  48   2.0000      -0.503327       -13.6962
  49   2.0000      -0.496476       -13.5098
  50   2.0000      -0.490156       -13.3378
  51   2.0000      -0.478909       -13.0318
  52   2.0000      -0.474101       -12.9010
  53   2.0000      -0.461995       -12.5715
  54   2.0000      -0.458861       -12.4862
  55   2.0000      -0.452076       -12.3016
  56   2.0000      -0.448530       -12.2051
  57   2.0000      -0.434763       -11.8305
  58   2.0000      -0.431533       -11.7426
  59   2.0000      -0.426772       -11.6131
  60   2.0000      -0.414814       -11.2877
  61   2.0000      -0.412626       -11.2281
  62   2.0000      -0.409383       -11.1399
  63   2.0000      -0.367032        -9.9875
  64   2.0000      -0.332174        -9.0389
  65   2.0000      -0.329149        -8.9566
  66   2.0000      -0.278252        -7.5716
  67   0.0000       0.019101         0.5198
  68   0.0000       0.086526         2.3545
  69   0.0000       0.109577         2.9817
  70   0.0000       0.121918         3.3176
  71   0.0000       0.125505         3.4152

MULLIKEN ATOMIC CHARGES
-----------------------
   0 S :    0.110276
   1 C :   -0.114209
   2 C :   -0.098307
   3 C :   -0.036880
   4 C :   -0.094806
   5 H :    0.029881
   6 C :    0.047269
   7 H :    0.036572
   8 H :    0.013425
   9 C :   -0.047905
  10 H :    0.027737
  11 H :    0.031890
  12 C :   -0.034039
  13 H :    0.026549
  14 H :    0.013487
  15 H :    0.034638
  16 S :    0.069036
  17 C :   -0.053558
  18 C :   -0.037098
  19 C :   -0.064299
  20 C :   -0.133405
  21 H :    0.005244
  22 C :    0.065686
  23 H :    0.040814
  24 H :    0.033727
  25 C :   -0.106541
  26 H :    0.035001
  27 H :    0.043011
  28 C :   -0.063637
  29 H :    0.049833
  30 H :    0.037059
  31 H :    0.021836
  32 H :    0.066237
  33 H :    0.045479
Sum of atomic charges:   -0.0000000

LOEWDIN ATOMIC CHARGES
----------------------
   0 S :    0.436895
   1 C :   -0.236848
   2 C :   -0.070662
   3 C :   -0.069667
   4 C :   -0.182328
   5 H :    0.025433
   6 C :   -0.037744
   7 H :    0.035462
   8 H :    0.030763
   9 C :   -0.041289
  10 H :    0.024973
  11 H :    0.026046
  12 C :   -0.062025
  13 H :    0.016522
  14 H :    0.023964
  15 H :    0.029993
  16 S :    0.388217
  17 C :   -0.174009
  18 C :   -0.068011
  19 C :   -0.054568
  20 C :   -0.179085
  21 H :    0.025733
  22 C :   -0.039984
  23 H :    0.039443
  24 H :    0.020725
  25 C :   -0.037812
  26 H :    0.021283
  27 H :    0.031122
  28 C :   -0.077426
  29 H :    0.026604
  30 H :    0.026817
  31 H :    0.028665
  32 H :    0.044401
  33 H :    0.028397

  Mayer bond orders larger than 0.100000
B(  0-S ,  1-C ) :   1.1538 B(  0-S ,  4-C ) :   1.1432 B(  1-C ,  2-C ) :   1.5967
B(  1-C , 32-H ) :   0.9458 B(  2-C ,  3-C ) :   1.2656 B(  2-C ,  6-C ) :   1.0329
B(  3-C ,  4-C ) :   1.5545 B(  3-C ,  5-H ) :   0.9796 B(  4-C , 20-C ) :   1.0829
B(  6-C ,  7-H ) :   0.9301 B(  6-C ,  8-H ) :   0.9372 B(  6-C ,  9-C ) :   1.0828
B(  9-C , 10-H ) :   0.9530 B(  9-C , 11-H ) :   0.9530 B(  9-C , 12-C ) :   1.0660
B( 12-C , 13-H ) :   0.9772 B( 12-C , 14-H ) :   0.9712 B( 12-C , 15-H ) :   0.9729
B( 16-S , 17-C ) :   1.1506 B( 16-S , 20-C ) :   1.1213 B( 17-C , 18-C ) :   1.6197
B( 17-C , 33-H ) :   0.9652 B( 18-C , 19-C ) :   1.2416 B( 18-C , 21-H ) :   0.9961
B( 19-C , 20-C ) :   1.5570 B( 19-C , 22-C ) :   1.0359 B( 22-C , 23-H ) :   0.9237
B( 22-C , 24-H ) :   0.9422 B( 22-C , 25-C ) :   1.0646 B( 25-C , 26-H ) :   0.9545
B( 25-C , 27-H ) :   0.9582 B( 25-C , 28-C ) :   1.0641 B( 28-C , 29-H ) :   0.9773
B( 28-C , 30-H ) :   0.9760 B( 28-C , 31-H ) :   0.9750

Dispersion correction           -0.014330648
FINAL SINGLE POINT ENERGY     -1339.877361099753

DIPOLE MOMENT
-------------
                                X             Y             Z
Electronic contribution:      2.49831      -6.47743      -0.48104
Nuclear contribution   :     -2.61703       6.53797       0.42934
                        -----------------------------------------
Total Dipole Moment    :     -0.11871       0.06054      -0.05169
                        -----------------------------------------
Magnitude (a.u.)       :      0.14293
Magnitude (Debye)      :      0.36331

Rotational constants in cm-1:     0.024682     0.007792     0.006440
Rotational constants in MHz :   739.961411   233.587809   193.067446

                             ****ORCA TERMINATED NORMALLY****
TOTAL RUN TIME: 0 days 0 hours 0 minutes 30 seconds 224 msec
