                         Program Version 4.2.1 -  RELEASE  -
|  1> ! wB97X-D3 SP def2-SVP
|  2> %pal
|  3> nprocs 16
|  4> end
|  5>
|  6> * xyz 0 1
|  7> S 	 -45.9401 	 11.9343 	 81.965
|  8> C 	 -44.7182 	 10.7628 	 81.4788
|  9> C 	 -43.4077 	 11.2482 	 81.6657
| 10> C 	 -43.4211 	 12.5027 	 82.3403
| 11> C 	 -44.6586 	 13.0062 	 82.6424
| 12> H 	 -42.56 	 12.9685 	 82.7455
| 13> C 	 -42.1418 	 10.5732 	 81.2573
| 14> H 	 -41.6242 	 11.3559 	 80.6483
| 15> H 	 -42.3385 	 9.88448 	 80.4897
| 16> C 	 -41.2155 	 9.99469 	 82.3249
| 17> H 	 -40.2471 	 9.70361 	 81.7741
| 18> H 	 -40.9314 	 10.7204 	 82.9922
| 19> C 	 -41.9158 	 8.79629 	 83.0088
| 20> H 	 -42.9408 	 9.03032 	 83.3863
| 21> H 	 -42.051 	 7.97444 	 82.364
| 22> H 	 -41.4359 	 8.45884 	 83.9075
| 23> S 	 -45.6211 	 15.6812 	 82.3572
| 24> C 	 -45.7191 	 16.667 	 83.7399
| 25> C 	 -45.2792 	 16.0408 	 84.8621
| 26> C 	 -45.0514 	 14.6277 	 84.6461
| 27> C 	 -45.0818 	 14.2687 	 83.2739
| 28> H 	 -45.1399 	 16.5706 	 85.7767
| 29> C 	 -44.8166 	 13.75 	 85.84
| 30> H 	 -45.1906 	 12.786 	 85.5491
| 31> H 	 -45.3756 	 14.1395 	 86.6329
| 32> C 	 -43.3954 	 13.4934 	 86.3242
| 33> H 	 -42.7315 	 13.117 	 85.5668
| 34> H 	 -43.3364 	 12.7251 	 87.0818
| 35> C 	 -42.783 	 14.7602 	 86.9435
| 36> H 	 -41.8119 	 14.5419 	 87.342
| 37> H 	 -43.2696 	 15.3441 	 87.7399
| 38> H 	 -42.6801 	 15.495 	 86.1572
| 39> H 	 -44.8438 	 9.82589 	 80.9619
| 40> H 	 -45.9308 	 17.7284 	 83.6927
| 41> *
| 42>
| 43>                          ****END OF INPUT****

CARTESIAN COORDINATES (ANGSTROEM)
---------------------------------
  S    -45.940100   11.934300   81.965000
  C    -44.718200   10.762800   81.478800
  C    -43.407700   11.248200   81.665700
  C    -43.421100   12.502700   82.340300
  C    -44.658600   13.006200   82.642400
  H    -42.560000   12.968500   82.745500
  C    -42.141800   10.573200   81.257300
  H    -41.624200   11.355900   80.648300
  H    -42.338500    9.884480   80.489700
  C    -41.215500    9.994690   82.324900
  H    -40.247100    9.703610   81.774100
  H    -40.931400   10.720400   82.992200
  C    -41.915800    8.796290   83.008800
  H    -42.940800    9.030320   83.386300
  H    -42.051000    7.974440   82.364000
  H    -41.435900    8.458840   83.907500
  S    -45.621100   15.681200   82.357200
  C    -45.719100   16.667000   83.739900
  C    -45.279200   16.040800   84.862100
  C    -45.051400   14.627700   84.646100
  C    -45.081800   14.268700   83.273900
  H    -45.139900   16.570600   85.776700
  C    -44.816600   13.750000   85.840000
  H    -45.190600   12.786000   85.549100
  H    -45.375600   14.139500   86.632900
  C    -43.395400   13.493400   86.324200
  H    -42.731500   13.117000   85.566800
  H    -43.336400   12.725100   87.081800
  C    -42.783000   14.760200   86.943500
  H    -41.811900   14.541900   87.342000
  H    -43.269600   15.344100   87.739900
  H    -42.680100   15.495000   86.157200
  H    -44.843800    9.825890   80.961900
  H    -45.930800   17.728400   83.692700

 Total Charge           Charge          ....    0
 Multiplicity           Mult            ....    1
 Number of Electrons    NEL             ....  134
 Basis Dimension        Dim             ....  322

ORBITAL ENERGIES
----------------

  NO   OCC          E(Eh)            E(eV)
   0   2.0000     -88.965985     -2420.8875
   1   2.0000     -88.964316     -2420.8421
   2   2.0000     -10.334023      -281.2031
   3   2.0000     -10.329769      -281.0873
   4   2.0000     -10.317619      -280.7567
   5   2.0000     -10.312684      -280.6224
   6   2.0000     -10.306188      -280.4456
   7   2.0000     -10.301237      -280.3109
   8   2.0000     -10.293724      -280.1065
   9   2.0000     -10.292108      -280.0625
  10   2.0000     -10.289321      -279.9866
  11   2.0000     -10.288758      -279.9713
  12   2.0000     -10.283768      -279.8355
  13   2.0000     -10.280875      -279.7568
  14   2.0000     -10.274920      -279.5948
  15   2.0000     -10.271744      -279.5084
  16   2.0000      -8.079689      -219.8595
  17   2.0000      -8.079668      -219.8590
  18   2.0000      -6.038230      -164.3086
  19   2.0000      -6.038149      -164.3064
  20   2.0000      -6.034326      -164.2023
  21   2.0000      -6.034017      -164.1939
  22   2.0000      -6.030526      -164.0989
  23   2.0000      -6.030433      -164.0964
  24   2.0000      -1.002148       -27.2698
  25   2.0000      -0.982352       -26.7312
  26   2.0000      -0.913996       -24.8711
  27   2.0000      -0.912644       -24.8343
  28   2.0000      -0.865878       -23.5617
  29   2.0000      -0.847998       -23.0752
  30   2.0000      -0.845959       -23.0197
  31   2.0000      -0.817090       -22.2342
  32   2.0000      -0.786997       -21.4153
  33   2.0000      -0.773870       -21.0581
  34   2.0000      -0.716914       -19.5082
  35   2.0000      -0.706463       -19.2238
  36   2.0000      -0.691287       -18.8109
  37   2.0000      -0.658241       -17.9116
  38   2.0000      -0.643682       -17.5155
  39   2.0000      -0.623623       -16.9697
  40   2.0000      -0.595246       -16.1975
  41   2.0000      -0.571729       -15.5575
  42   2.0000      -0.554646       -15.0927
  43   2.0000      -0.551753       -15.0140
  44   2.0000      -0.549060       -14.9407
  45   2.0000      -0.536768       -14.6062
  46   2.0000      -0.517609       -14.0848
  47   2.0000      -0.513223       -13.9655
  48   2.0000      -0.501241       -13.6395
  49   2.0000      -0.496182       -13.5018
  50   2.0000      -0.484245       -13.1770
  51   2.0000      -0.478067       -13.0089
  52   2.0000      -0.473898       -12.8954
  53   2.0000      -0.468620       -12.7518
  54   2.0000      -0.463035       -12.5998
  55   2.0000      -0.445648       -12.1267
  56   2.0000      -0.442887       -12.0516
  57   2.0000      -0.440865       -11.9965
  58   2.0000      -0.438769       -11.9395
  59   2.0000      -0.428154       -11.6507
  60   2.0000      -0.423367       -11.5204
  61   2.0000      -0.416674       -11.3383
  62   2.0000      -0.406962       -11.0740
  63   2.0000      -0.338151        -9.2016
  64   2.0000      -0.327468        -8.9109
  65   2.0000      -0.321996        -8.7620
  66   2.0000      -0.305678        -8.3179
  67   0.0000       0.038840         1.0569
  68   0.0000       0.054075         1.4715
  69   0.0000       0.113670         3.0931
  70   0.0000       0.123026         3.3477
  71   0.0000       0.124637         3.3915

MULLIKEN ATOMIC CHARGES
-----------------------
   0 S :    0.104337
   1 C :   -0.091832
   2 C :   -0.131388
   3 C :    0.078254
   4 C :   -0.192535
   5 H :    0.001829
   6 C :    0.058925
   7 H :    0.032792
   8 H :   -0.000413
   9 C :   -0.017292
  10 H :    0.041405
  11 H :    0.009093
  12 C :   -0.044448
  13 H :    0.036209
  14 H :    0.019275
  15 H :    0.026127
  16 S :    0.119949
  17 C :   -0.085013
  18 C :   -0.029305
  19 C :   -0.062182
  20 C :   -0.155543
  21 H :    0.012498
  22 C :    0.125604
  23 H :    0.020921
  24 H :    0.010762
  25 C :   -0.026993
  26 H :    0.017449
  27 H :    0.021769
  28 C :   -0.076405
  29 H :    0.023792
  30 H :    0.026730
  31 H :    0.026513
  32 H :    0.039099
  33 H :    0.060017
Sum of atomic charges:   -0.0000000

LOEWDIN ATOMIC CHARGES
----------------------
   0 S :    0.381669
   1 C :   -0.190900
   2 C :   -0.065386
   3 C :   -0.048269
   4 C :   -0.177551
   5 H :    0.027091
   6 C :   -0.037994
   7 H :    0.040519
   8 H :    0.022005
   9 C :   -0.029316
  10 H :    0.037268
  11 H :    0.009883
  12 C :   -0.065265
  13 H :    0.032842
  14 H :    0.018420
  15 H :    0.022719
  16 S :    0.421072
  17 C :   -0.194660
  18 C :   -0.077015
  19 C :   -0.041374
  20 C :   -0.215663
  21 H :    0.027751
  22 C :   -0.025686
  23 H :    0.033218
  24 H :    0.026030
  25 C :   -0.029296
  26 H :    0.022984
  27 H :    0.022532
  28 C :   -0.073825
  29 H :    0.021690
  30 H :    0.024354
  31 H :    0.021893
  32 H :    0.026430
  33 H :    0.031832

  Mayer bond orders larger than 0.100000
B(  0-S ,  1-C ) :   1.1414 B(  0-S ,  4-C ) :   1.1291 B(  1-C ,  2-C ) :   1.6114
B(  1-C , 32-H ) :   0.9638 B(  2-C ,  3-C ) :   1.2242 B(  2-C ,  6-C ) :   1.0309
B(  3-C ,  4-C ) :   1.6184 B(  3-C ,  5-H ) :   0.9969 B(  4-C , 20-C ) :   1.0184
B(  6-C ,  7-H ) :   0.9315 B(  6-C ,  8-H ) :   0.9353 B(  6-C ,  9-C ) :   1.0685
B(  9-C , 10-H ) :   0.9521 B(  9-C , 11-H ) :   0.9580 B(  9-C , 12-C ) :   1.0663
B( 12-C , 13-H ) :   0.9742 B( 12-C , 14-H ) :   0.9767 B( 12-C , 15-H ) :   0.9749
B( 16-S , 17-C ) :   1.1763 B( 16-S , 20-C ) :   1.1386 B( 17-C , 18-C ) :   1.6029
B( 17-C , 33-H ) :   0.9624 B( 18-C , 19-C ) :   1.2435 B( 18-C , 21-H ) :   0.9930
B( 19-C , 20-C ) :   1.5803 B( 19-C , 22-C ) :   1.0515 B( 22-C , 23-H ) :   0.9185
B( 22-C , 24-H ) :   0.9337 B( 22-C , 25-C ) :   1.0851 B( 25-C , 26-H ) :   0.9501
B( 25-C , 27-H ) :   0.9551 B( 25-C , 28-C ) :   1.0728 B( 28-C , 29-H ) :   0.9729
B( 28-C , 30-H ) :   0.9767 B( 28-C , 31-H ) :   0.9744

Dispersion correction           -0.015027590
FINAL SINGLE POINT ENERGY     -1339.875595859329

DIPOLE MOMENT
-------------
                                X             Y             Z
Electronic contribution:    -20.52818      12.30121     -14.71436
Nuclear contribution   :     21.12853     -12.43331      15.03765
                        -----------------------------------------
Total Dipole Moment    :      0.60035      -0.13211       0.32329
                        -----------------------------------------
Magnitude (a.u.)       :      0.69454
Magnitude (Debye)      :      1.76539

Rotational constants in cm-1:     0.018990     0.008981     0.006942
Rotational constants in MHz :   569.303271   269.240906   208.113844

                             ****ORCA TERMINATED NORMALLY****
TOTAL RUN TIME: 0 days 0 hours 0 minutes 30 seconds 682 msec
