                         Program Version 4.2.1 -  RELEASE  -
|  1> ! wB97X-D3 SP def2-SVP
|  2> %pal
|  3> nprocs 16
|  4> end
|  5>
|  6> * xyz 0 1
|  7> S 	 4.01077 	 -21.5182 	 85.124
|  8> C 	 2.75331 	 -22.708 	 85.4005
|  9> C 	 3.11666 	 -24.0477 	 85.2335
| 10> C 	 4.51708 	 -24.0628 	 84.8778
| 11> C 	 5.14381 	 -22.8424 	 84.9373
| 12> H 	 5.15141 	 -24.8495 	 84.7178
| 13> C 	 2.24121 	 -25.2595 	 85.3763
| 14> H 	 1.34427 	 -24.8502 	 85.8993
| 15> H 	 2.58462 	 -26.0429 	 86.0814
| 16> C 	 1.82209 	 -25.7772 	 83.9367
| 17> H 	 1.42977 	 -25.0073 	 83.2547
| 18> H 	 2.72911 	 -26.0117 	 83.3901
| 19> C 	 0.876092 	 -27.0327 	 83.9638
| 20> H 	 0.620467 	 -27.2167 	 82.9256
| 21> H 	 1.33545 	 -27.9517 	 84.2877
| 22> H 	 -0.0568923 	 -26.8314 	 84.5231
| 23> S 	 7.68263 	 -24.0961 	 85.0026
| 24> C 	 9.01778 	 -23.2056 	 84.2641
| 25> C 	 8.72275 	 -21.935 	 84.0073
| 26> C 	 7.28306 	 -21.6838 	 84.0509
| 27> C 	 6.58263 	 -22.7366 	 84.6699
| 28> H 	 9.507 	 -21.3695 	 83.7131
| 29> C 	 6.75078 	 -20.2563 	 83.6904
| 30> H 	 5.73162 	 -20.2389 	 83.2232
| 31> H 	 7.36964 	 -19.9221 	 82.8328
| 32> C 	 6.86762 	 -19.11 	 84.7681
| 33> H 	 7.90808 	 -19.0389 	 85.1298
| 34> H 	 6.15875 	 -19.2511 	 85.5793
| 35> C 	 6.67485 	 -17.754 	 84.1493
| 36> H 	 7.18675 	 -17.6849 	 83.2248
| 37> H 	 7.08295 	 -16.9741 	 84.7789
| 38> H 	 5.66126 	 -17.5678 	 83.8676
| 39> H 	 1.73331 	 -22.4004 	 85.646
| 40> H 	 10.0099 	 -23.6805 	 84.3635
| 41> *
| 42>
| 43>                          ****END OF INPUT****

CARTESIAN COORDINATES (ANGSTROEM)
---------------------------------
  S      4.010770  -21.518200   85.124000
  C      2.753310  -22.708000   85.400500
  C      3.116660  -24.047700   85.233500
  C      4.517080  -24.062800   84.877800
  C      5.143810  -22.842400   84.937300
  H      5.151410  -24.849500   84.717800
  C      2.241210  -25.259500   85.376300
  H      1.344270  -24.850200   85.899300
  H      2.584620  -26.042900   86.081400
  C      1.822090  -25.777200   83.936700
  H      1.429770  -25.007300   83.254700
  H      2.729110  -26.011700   83.390100
  C      0.876092  -27.032700   83.963800
  H      0.620467  -27.216700   82.925600
  H      1.335450  -27.951700   84.287700
  H     -0.056892  -26.831400   84.523100
  S      7.682630  -24.096100   85.002600
  C      9.017780  -23.205600   84.264100
  C      8.722750  -21.935000   84.007300
  C      7.283060  -21.683800   84.050900
  C      6.582630  -22.736600   84.669900
  H      9.507000  -21.369500   83.713100
  C      6.750780  -20.256300   83.690400
  H      5.731620  -20.238900   83.223200
  H      7.369640  -19.922100   82.832800
  C      6.867620  -19.110000   84.768100
  H      7.908080  -19.038900   85.129800
  H      6.158750  -19.251100   85.579300
  C      6.674850  -17.754000   84.149300
  H      7.186750  -17.684900   83.224800
  H      7.082950  -16.974100   84.778900
  H      5.661260  -17.567800   83.867600
  H      1.733310  -22.400400   85.646000
  H     10.009900  -23.680500   84.363500

 Total Charge           Charge          ....    0
 Multiplicity           Mult            ....    1
 Number of Electrons    NEL             ....  134
 Basis Dimension        Dim             ....  322

ORBITAL ENERGIES
----------------

  NO   OCC          E(Eh)            E(eV)
   0   2.0000     -88.971673     -2421.0423
   1   2.0000     -88.962444     -2420.7912
   2   2.0000     -10.331787      -281.1422
   3   2.0000     -10.326055      -280.9862
   4   2.0000     -10.316625      -280.7296
   5   2.0000     -10.314622      -280.6751
   6   2.0000     -10.310098      -280.5520
   7   2.0000     -10.306103      -280.4433
   8   2.0000     -10.302110      -280.3347
   9   2.0000     -10.300909      -280.3020
  10   2.0000     -10.294088      -280.1164
  11   2.0000     -10.286993      -279.9233
  12   2.0000     -10.286474      -279.9092
  13   2.0000     -10.284296      -279.8499
  14   2.0000     -10.280775      -279.7541
  15   2.0000     -10.267060      -279.3809
  16   2.0000      -8.085521      -220.0182
  17   2.0000      -8.076831      -219.7817
  18   2.0000      -6.044101      -164.4684
  19   2.0000      -6.040331      -164.3658
  20   2.0000      -6.036105      -164.2508
  21   2.0000      -6.035490      -164.2340
  22   2.0000      -6.031591      -164.1279
  23   2.0000      -6.027268      -164.0103
  24   2.0000      -1.002792       -27.2873
  25   2.0000      -0.980614       -26.6839
  26   2.0000      -0.905179       -24.6312
  27   2.0000      -0.902266       -24.5519
  28   2.0000      -0.871136       -23.7048
  29   2.0000      -0.852427       -23.1957
  30   2.0000      -0.843567       -22.9546
  31   2.0000      -0.816803       -22.2263
  32   2.0000      -0.781081       -21.2543
  33   2.0000      -0.767073       -20.8731
  34   2.0000      -0.707270       -19.2458
  35   2.0000      -0.699543       -19.0355
  36   2.0000      -0.688501       -18.7351
  37   2.0000      -0.668727       -18.1970
  38   2.0000      -0.637933       -17.3590
  39   2.0000      -0.617988       -16.8163
  40   2.0000      -0.597026       -16.2459
  41   2.0000      -0.568927       -15.4813
  42   2.0000      -0.565180       -15.3793
  43   2.0000      -0.548004       -14.9119
  44   2.0000      -0.527365       -14.3503
  45   2.0000      -0.522689       -14.2231
  46   2.0000      -0.513643       -13.9769
  47   2.0000      -0.511331       -13.9140
  48   2.0000      -0.503585       -13.7033
  49   2.0000      -0.499004       -13.5786
  50   2.0000      -0.488416       -13.2905
  51   2.0000      -0.468250       -12.7417
  52   2.0000      -0.465968       -12.6796
  53   2.0000      -0.461307       -12.5528
  54   2.0000      -0.460655       -12.5351
  55   2.0000      -0.451016       -12.2728
  56   2.0000      -0.447201       -12.1690
  57   2.0000      -0.444522       -12.0961
  58   2.0000      -0.431668       -11.7463
  59   2.0000      -0.426164       -11.5965
  60   2.0000      -0.420104       -11.4316
  61   2.0000      -0.416372       -11.3301
  62   2.0000      -0.414470       -11.2783
  63   2.0000      -0.358741        -9.7618
  64   2.0000      -0.331153        -9.0111
  65   2.0000      -0.329247        -8.9593
  66   2.0000      -0.283666        -7.7190
  67   0.0000       0.024705         0.6722
  68   0.0000       0.083231         2.2648
  69   0.0000       0.106818         2.9067
  70   0.0000       0.108450         2.9511
  71   0.0000       0.126048         3.4299

MULLIKEN ATOMIC CHARGES
-----------------------
   0 S :    0.110138
   1 C :   -0.121067
   2 C :   -0.064321
   3 C :    0.003559
   4 C :   -0.107098
   5 H :   -0.022036
   6 C :    0.068745
   7 H :    0.018527
   8 H :    0.049933
   9 C :   -0.103633
  10 H :    0.035699
  11 H :    0.026275
  12 C :   -0.029753
  13 H :    0.027394
  14 H :    0.033271
  15 H :    0.039467
  16 S :    0.071652
  17 C :   -0.105474
  18 C :    0.033208
  19 C :   -0.054263
  20 C :   -0.111898
  21 H :   -0.017304
  22 C :   -0.011296
  23 H :    0.038793
  24 H :    0.019340
  25 C :   -0.046698
  26 H :    0.027854
  27 H :    0.036153
  28 C :   -0.023896
  29 H :    0.006484
  30 H :    0.035547
  31 H :    0.020726
  32 H :    0.046090
  33 H :    0.069881
Sum of atomic charges:    0.0000000

LOEWDIN ATOMIC CHARGES
----------------------
   0 S :    0.411083
   1 C :   -0.194846
   2 C :   -0.055543
   3 C :   -0.054968
   4 C :   -0.183921
   5 H :    0.005762
   6 C :   -0.035971
   7 H :    0.032985
   8 H :    0.038184
   9 C :   -0.039870
  10 H :    0.030430
  11 H :    0.022836
  12 C :   -0.066606
  13 H :    0.027222
  14 H :    0.022850
  15 H :    0.027788
  16 S :    0.373749
  17 C :   -0.171526
  18 C :   -0.056156
  19 C :   -0.059355
  20 C :   -0.174411
  21 H :    0.017712
  22 C :   -0.048722
  23 H :    0.027426
  24 H :    0.031088
  25 C :   -0.037290
  26 H :    0.028036
  27 H :    0.019720
  28 C :   -0.061606
  29 H :    0.018161
  30 H :    0.028302
  31 H :    0.020190
  32 H :    0.024648
  33 H :    0.032617

  Mayer bond orders larger than 0.100000
B(  0-S ,  1-C ) :   1.1359 B(  0-S ,  4-C ) :   1.1273 B(  1-C ,  2-C ) :   1.6287
B(  1-C , 32-H ) :   0.9589 B(  2-C ,  3-C ) :   1.2016 B(  2-C ,  6-C ) :   1.0317
B(  3-C ,  4-C ) :   1.5909 B(  3-C ,  5-H ) :   1.0010 B(  4-C , 20-C ) :   1.0792
B(  6-C ,  7-H ) :   0.9353 B(  6-C ,  8-H ) :   0.9461 B(  6-C ,  9-C ) :   1.0359
B(  9-C , 10-H ) :   0.9585 B(  9-C , 11-H ) :   0.9606 B(  9-C , 12-C ) :   1.0763
B( 12-C , 13-H ) :   0.9739 B( 12-C , 14-H ) :   0.9765 B( 12-C , 15-H ) :   0.9770
B( 16-S , 17-C ) :   1.1234 B( 16-S , 20-C ) :   1.1270 B( 17-C , 18-C ) :   1.6706
B( 17-C , 33-H ) :   0.9595 B( 18-C , 19-C ) :   1.1745 B( 18-C , 21-H ) :   1.0036
B( 19-C , 20-C ) :   1.6032 B( 19-C , 22-C ) :   1.0468 B( 22-C , 23-H ) :   0.9384
B( 22-C , 24-H ) :   0.9335 B( 22-C , 25-C ) :   1.0574 B( 25-C , 26-H ) :   0.9566
B( 25-C , 27-H ) :   0.9557 B( 25-C , 28-C ) :   1.0820 B( 28-C , 29-H ) :   0.9702
B( 28-C , 30-H ) :   0.9740 B( 28-C , 31-H ) :   0.9732

Dispersion correction           -0.013616307
FINAL SINGLE POINT ENERGY     -1339.866760049461

DIPOLE MOMENT
-------------
                                X             Y             Z
Electronic contribution:     11.21409      -2.42214       5.65199
Nuclear contribution   :    -11.27916       2.45040      -5.82291
                        -----------------------------------------
Total Dipole Moment    :     -0.06507       0.02826      -0.17092
                        -----------------------------------------
Magnitude (a.u.)       :      0.18505
Magnitude (Debye)      :      0.47037

Rotational constants in cm-1:     0.021277     0.007567     0.005911
Rotational constants in MHz :   637.875312   226.838063   177.216174

                             ****ORCA TERMINATED NORMALLY****
TOTAL RUN TIME: 0 days 0 hours 0 minutes 34 seconds 286 msec
