                         Program Version 4.2.1 -  RELEASE  -
|  1> ! wB97X-D3 SP def2-SVP
|  2> %pal
|  3> nprocs 16
|  4> end
|  5>
|  6> * xyz 0 1
|  7> S 	 44.1403 	 12.8037 	 50.1494
|  8> C 	 45.1893 	 12.6835 	 51.5864
|  9> C 	 44.4027 	 12.8844 	 52.7163
| 10> C 	 43.0088 	 13.1456 	 52.4198
| 11> C 	 42.7177 	 13.2223 	 51.09
| 12> H 	 42.2185 	 13.3069 	 53.1585
| 13> C 	 44.8676 	 12.9045 	 54.1338
| 14> H 	 44.0742 	 13.4469 	 54.7781
| 15> H 	 45.8041 	 13.4839 	 54.2666
| 16> C 	 45.0914 	 11.5312 	 54.7663
| 17> H 	 44.1259 	 11.0349 	 54.9264
| 18> H 	 45.7156 	 10.814 	 54.1406
| 19> C 	 45.6542 	 11.5302 	 56.2317
| 20> H 	 46.7531 	 11.6986 	 56.1665
| 21> H 	 45.2582 	 12.3545 	 56.8097
| 22> H 	 45.397 	 10.5629 	 56.6459
| 23> S 	 41.4003 	 14.7756 	 49.3272
| 24> C 	 39.7056 	 14.6576 	 49.0555
| 25> C 	 39.2146 	 13.5276 	 49.7448
| 26> C 	 40.1824 	 12.8424 	 50.5129
| 27> C 	 41.4412 	 13.4577 	 50.4309
| 28> H 	 38.1173 	 13.3527 	 49.7188
| 29> C 	 39.8973 	 11.7048 	 51.4476
| 30> H 	 38.8711 	 11.8745 	 51.8886
| 31> H 	 40.6423 	 11.7759 	 52.2277
| 32> C 	 39.9534 	 10.3374 	 50.7348
| 33> H 	 39.1587 	 10.3074 	 50.0623
| 34> H 	 39.7109 	 9.63595 	 51.5534
| 35> C 	 41.3792 	 10.0206 	 50.095
| 36> H 	 41.2539 	 9.10621 	 49.4987
| 37> H 	 42.0733 	 9.97267 	 50.8914
| 38> H 	 41.687 	 10.7135 	 49.3912
| 39> H 	 46.2337 	 12.6506 	 51.6737
| 40> H 	 39.077 	 15.2632 	 48.3842
| 41> *
| 42>
| 43>                          ****END OF INPUT****

CARTESIAN COORDINATES (ANGSTROEM)
---------------------------------
  S     44.140300   12.803700   50.149400
  C     45.189300   12.683500   51.586400
  C     44.402700   12.884400   52.716300
  C     43.008800   13.145600   52.419800
  C     42.717700   13.222300   51.090000
  H     42.218500   13.306900   53.158500
  C     44.867600   12.904500   54.133800
  H     44.074200   13.446900   54.778100
  H     45.804100   13.483900   54.266600
  C     45.091400   11.531200   54.766300
  H     44.125900   11.034900   54.926400
  H     45.715600   10.814000   54.140600
  C     45.654200   11.530200   56.231700
  H     46.753100   11.698600   56.166500
  H     45.258200   12.354500   56.809700
  H     45.397000   10.562900   56.645900
  S     41.400300   14.775600   49.327200
  C     39.705600   14.657600   49.055500
  C     39.214600   13.527600   49.744800
  C     40.182400   12.842400   50.512900
  C     41.441200   13.457700   50.430900
  H     38.117300   13.352700   49.718800
  C     39.897300   11.704800   51.447600
  H     38.871100   11.874500   51.888600
  H     40.642300   11.775900   52.227700
  C     39.953400   10.337400   50.734800
  H     39.158700   10.307400   50.062300
  H     39.710900    9.635950   51.553400
  C     41.379200   10.020600   50.095000
  H     41.253900    9.106210   49.498700
  H     42.073300    9.972670   50.891400
  H     41.687000   10.713500   49.391200
  H     46.233700   12.650600   51.673700
  H     39.077000   15.263200   48.384200

 Total Charge           Charge          ....    0
 Multiplicity           Mult            ....    1
 Number of Electrons    NEL             ....  134
 Basis Dimension        Dim             ....  322

ORBITAL ENERGIES
----------------

  NO   OCC          E(Eh)            E(eV)
   0   2.0000     -88.967118     -2420.9184
   1   2.0000     -88.966993     -2420.9150
   2   2.0000     -10.330982      -281.1203
   3   2.0000     -10.324423      -280.9418
   4   2.0000     -10.320273      -280.8289
   5   2.0000     -10.315745      -280.7057
   6   2.0000     -10.304287      -280.3939
   7   2.0000     -10.302657      -280.3495
   8   2.0000     -10.300419      -280.2886
   9   2.0000     -10.297523      -280.2098
  10   2.0000     -10.295876      -280.1650
  11   2.0000     -10.291951      -280.0582
  12   2.0000     -10.290289      -280.0130
  13   2.0000     -10.282875      -279.8113
  14   2.0000     -10.281972      -279.7867
  15   2.0000     -10.267112      -279.3823
  16   2.0000      -8.082564      -219.9378
  17   2.0000      -8.080794      -219.8896
  18   2.0000      -6.040886      -164.3809
  19   2.0000      -6.039576      -164.3452
  20   2.0000      -6.036651      -164.2656
  21   2.0000      -6.035320      -164.2294
  22   2.0000      -6.033795      -164.1879
  23   2.0000      -6.031403      -164.1228
  24   2.0000      -1.010166       -27.4880
  25   2.0000      -0.984605       -26.7925
  26   2.0000      -0.909703       -24.7543
  27   2.0000      -0.907394       -24.6915
  28   2.0000      -0.868869       -23.6431
  29   2.0000      -0.846442       -23.0329
  30   2.0000      -0.842198       -22.9174
  31   2.0000      -0.814881       -22.1740
  32   2.0000      -0.782498       -21.2928
  33   2.0000      -0.771544       -20.9948
  34   2.0000      -0.708632       -19.2829
  35   2.0000      -0.698977       -19.0201
  36   2.0000      -0.692361       -18.8401
  37   2.0000      -0.656870       -17.8744
  38   2.0000      -0.643369       -17.5069
  39   2.0000      -0.620128       -16.8745
  40   2.0000      -0.593547       -16.1512
  41   2.0000      -0.569363       -15.4932
  42   2.0000      -0.557508       -15.1706
  43   2.0000      -0.547975       -14.9112
  44   2.0000      -0.537542       -14.6273
  45   2.0000      -0.527724       -14.3601
  46   2.0000      -0.524037       -14.2598
  47   2.0000      -0.510381       -13.8882
  48   2.0000      -0.502455       -13.6725
  49   2.0000      -0.500865       -13.6292
  50   2.0000      -0.497139       -13.5278
  51   2.0000      -0.477776       -13.0010
  52   2.0000      -0.472188       -12.8489
  53   2.0000      -0.466520       -12.6946
  54   2.0000      -0.458940       -12.4884
  55   2.0000      -0.442876       -12.0513
  56   2.0000      -0.440403       -11.9840
  57   2.0000      -0.439834       -11.9685
  58   2.0000      -0.434312       -11.8182
  59   2.0000      -0.420643       -11.4463
  60   2.0000      -0.415465       -11.3054
  61   2.0000      -0.414384       -11.2759
  62   2.0000      -0.410883       -11.1807
  63   2.0000      -0.342039        -9.3074
  64   2.0000      -0.330957        -9.0058
  65   2.0000      -0.328239        -8.9318
  66   2.0000      -0.298886        -8.1331
  67   0.0000       0.031234         0.8499
  68   0.0000       0.063750         1.7347
  69   0.0000       0.114156         3.1064
  70   0.0000       0.117347         3.1932
  71   0.0000       0.125353         3.4110

MULLIKEN ATOMIC CHARGES
-----------------------
   0 S :    0.106303
   1 C :   -0.082251
   2 C :   -0.079085
   3 C :    0.030955
   4 C :   -0.143221
   5 H :    0.024935
   6 C :    0.022728
   7 H :    0.037116
   8 H :    0.033898
   9 C :   -0.116537
  10 H :    0.024482
  11 H :    0.041306
  12 C :   -0.047354
  13 H :    0.036874
  14 H :    0.029261
  15 H :    0.043028
  16 S :    0.128388
  17 C :   -0.102895
  18 C :   -0.077372
  19 C :   -0.010244
  20 C :   -0.196044
  21 H :    0.031308
  22 C :    0.060801
  23 H :    0.033004
  24 H :    0.007664
  25 C :   -0.056162
  26 H :    0.011067
  27 H :    0.031880
  28 C :   -0.013071
  29 H :    0.034026
  30 H :    0.035631
  31 H :    0.023737
  32 H :    0.028445
  33 H :    0.067400
Sum of atomic charges:    0.0000000

LOEWDIN ATOMIC CHARGES
----------------------
   0 S :    0.394838
   1 C :   -0.183521
   2 C :   -0.059408
   3 C :   -0.067766
   4 C :   -0.191337
   5 H :    0.033950
   6 C :   -0.044959
   7 H :    0.040005
   8 H :    0.031995
   9 C :   -0.048952
  10 H :    0.021716
  11 H :    0.028363
  12 C :   -0.064858
  13 H :    0.026449
  14 H :    0.021895
  15 H :    0.027789
  16 S :    0.446787
  17 C :   -0.205535
  18 C :   -0.080222
  19 C :   -0.054821
  20 C :   -0.221599
  21 H :    0.036165
  22 C :   -0.033619
  23 H :    0.036677
  24 H :    0.023728
  25 C :   -0.027579
  26 H :    0.010472
  27 H :    0.026588
  28 C :   -0.051211
  29 H :    0.031496
  30 H :    0.023323
  31 H :    0.013161
  32 H :    0.022492
  33 H :    0.037496

  Mayer bond orders larger than 0.100000
B(  0-S ,  1-C ) :   1.1158 B(  0-S ,  4-C ) :   1.1469 B(  1-C ,  2-C ) :   1.6205
B(  1-C , 32-H ) :   0.9753 B(  2-C ,  3-C ) :   1.2254 B(  2-C ,  6-C ) :   1.0296
B(  3-C ,  4-C ) :   1.6044 B(  3-C ,  5-H ) :   0.9866 B(  4-C , 20-C ) :   1.0155
B(  6-C ,  7-H ) :   0.9400 B(  6-C ,  8-H ) :   0.9425 B(  6-C ,  9-C ) :   1.0602
B(  9-C , 10-H ) :   0.9594 B(  9-C , 11-H ) :   0.9594 B(  9-C , 12-C ) :   1.0694
B( 12-C , 13-H ) :   0.9773 B( 12-C , 14-H ) :   0.9746 B( 12-C , 15-H ) :   0.9789
B( 16-S , 17-C ) :   1.1851 B( 16-S , 20-C ) :   1.1747 B( 17-C , 18-C ) :   1.5603
B( 17-C , 20-C ) :   0.1148 B( 17-C , 33-H ) :   0.9668 B( 18-C , 19-C ) :   1.2820
B( 18-C , 21-H ) :   0.9842 B( 19-C , 20-C ) :   1.5311 B( 19-C , 22-C ) :   1.0371
B( 22-C , 23-H ) :   0.9342 B( 22-C , 24-H ) :   0.9328 B( 22-C , 25-C ) :   1.0697
B( 25-C , 26-H ) :   0.9593 B( 25-C , 27-H ) :   0.9581 B( 25-C , 28-C ) :   1.0661
B( 28-C , 29-H ) :   0.9737 B( 28-C , 30-H ) :   0.9771 B( 28-C , 31-H ) :   0.9753

Dispersion correction           -0.015173106
FINAL SINGLE POINT ENERGY     -1339.882029495651

DIPOLE MOMENT
-------------
                                X             Y             Z
Electronic contribution:     -1.94875      16.89897     -20.68484
Nuclear contribution   :      1.69175     -17.06474      21.18921
                        -----------------------------------------
Total Dipole Moment    :     -0.25700      -0.16577       0.50437
                        -----------------------------------------
Magnitude (a.u.)       :      0.58984
Magnitude (Debye)      :      1.49926

Rotational constants in cm-1:     0.022222     0.007977     0.007053
Rotational constants in MHz :   666.202874   239.133208   211.444525

                             ****ORCA TERMINATED NORMALLY****
TOTAL RUN TIME: 0 days 0 hours 0 minutes 33 seconds 195 msec
