                         Program Version 4.2.1 -  RELEASE  -
|  1> ! wB97X-D3 SP def2-SVP
|  2> %pal
|  3> nprocs 16
|  4> end
|  5>
|  6> * xyz 0 1
|  7> S 	 42.7438 	 11.4071 	 87.1919
|  8> C 	 43.849 	 11.5097 	 88.5997
|  9> C 	 44.8428 	 12.3883 	 88.2729
| 10> C 	 44.6972 	 13.0544 	 87.037
| 11> C 	 43.6725 	 12.5371 	 86.2642
| 12> H 	 45.4821 	 13.6105 	 86.5911
| 13> C 	 46.0496 	 12.6797 	 89.1259
| 14> H 	 45.6353 	 12.6686 	 90.1264
| 15> H 	 46.4126 	 13.6752 	 88.8867
| 16> C 	 47.2519 	 11.6518 	 89.0414
| 17> H 	 48.28 	 11.9523 	 89.5056
| 18> H 	 46.9578 	 10.6949 	 89.4067
| 19> C 	 47.6013 	 11.385 	 87.5275
| 20> H 	 48.5703 	 10.8997 	 87.6079
| 21> H 	 46.893 	 10.6617 	 87.094
| 22> H 	 47.7353 	 12.181 	 86.8816
| 23> S 	 43.3529 	 11.4054 	 83.8437
| 24> C 	 43.1035 	 12.5002 	 82.4456
| 25> C 	 42.9975 	 13.8212 	 82.7934
| 26> C 	 43.3998 	 14.0094 	 84.1924
| 27> C 	 43.4091 	 12.8015 	 84.8323
| 28> H 	 42.7397 	 14.6343 	 82.1404
| 29> C 	 43.4322 	 15.4078 	 84.7444
| 30> H 	 44.4443 	 15.7904 	 84.4096
| 31> H 	 43.4531 	 15.3808 	 85.819
| 32> C 	 42.4231 	 16.4507 	 84.382
| 33> H 	 42.685 	 16.9255 	 83.4258
| 34> H 	 42.6243 	 17.2837 	 85.0158
| 35> C 	 40.9392 	 16.0863 	 84.3891
| 36> H 	 40.3247 	 16.958 	 84.1491
| 37> H 	 40.6819 	 15.6356 	 85.3439
| 38> H 	 40.7967 	 15.3531 	 83.5536
| 39> H 	 43.8197 	 11.0396 	 89.4961
| 40> H 	 42.8655 	 12.1038 	 81.4411
| 41> *
| 42>
| 43>                          ****END OF INPUT****

CARTESIAN COORDINATES (ANGSTROEM)
---------------------------------
  S     42.743800   11.407100   87.191900
  C     43.849000   11.509700   88.599700
  C     44.842800   12.388300   88.272900
  C     44.697200   13.054400   87.037000
  C     43.672500   12.537100   86.264200
  H     45.482100   13.610500   86.591100
  C     46.049600   12.679700   89.125900
  H     45.635300   12.668600   90.126400
  H     46.412600   13.675200   88.886700
  C     47.251900   11.651800   89.041400
  H     48.280000   11.952300   89.505600
  H     46.957800   10.694900   89.406700
  C     47.601300   11.385000   87.527500
  H     48.570300   10.899700   87.607900
  H     46.893000   10.661700   87.094000
  H     47.735300   12.181000   86.881600
  S     43.352900   11.405400   83.843700
  C     43.103500   12.500200   82.445600
  C     42.997500   13.821200   82.793400
  C     43.399800   14.009400   84.192400
  C     43.409100   12.801500   84.832300
  H     42.739700   14.634300   82.140400
  C     43.432200   15.407800   84.744400
  H     44.444300   15.790400   84.409600
  H     43.453100   15.380800   85.819000
  C     42.423100   16.450700   84.382000
  H     42.685000   16.925500   83.425800
  H     42.624300   17.283700   85.015800
  C     40.939200   16.086300   84.389100
  H     40.324700   16.958000   84.149100
  H     40.681900   15.635600   85.343900
  H     40.796700   15.353100   83.553600
  H     43.819700   11.039600   89.496100
  H     42.865500   12.103800   81.441100

 Total Charge           Charge          ....    0
 Multiplicity           Mult            ....    1
 Number of Electrons    NEL             ....  134
 Basis Dimension        Dim             ....  322

ORBITAL ENERGIES
----------------

  NO   OCC          E(Eh)            E(eV)
   0   2.0000     -88.967594     -2420.9313
   1   2.0000     -88.966563     -2420.9033
   2   2.0000     -10.330062      -281.0953
   3   2.0000     -10.325063      -280.9592
   4   2.0000     -10.321727      -280.8685
   5   2.0000     -10.306948      -280.4663
   6   2.0000     -10.303356      -280.3686
   7   2.0000     -10.298005      -280.2230
   8   2.0000     -10.297047      -280.1969
   9   2.0000     -10.294908      -280.1387
  10   2.0000     -10.292062      -280.0612
  11   2.0000     -10.290120      -280.0084
  12   2.0000     -10.284926      -279.8671
  13   2.0000     -10.282860      -279.8108
  14   2.0000     -10.279820      -279.7281
  15   2.0000     -10.267951      -279.4052
  16   2.0000      -8.082607      -219.9389
  17   2.0000      -8.080756      -219.8886
  18   2.0000      -6.041211      -164.3897
  19   2.0000      -6.039378      -164.3398
  20   2.0000      -6.037322      -164.2839
  21   2.0000      -6.035183      -164.2257
  22   2.0000      -6.032980      -164.1657
  23   2.0000      -6.031577      -164.1276
  24   2.0000      -1.009561       -27.4715
  25   2.0000      -0.985267       -26.8105
  26   2.0000      -0.915472       -24.9113
  27   2.0000      -0.904792       -24.6206
  28   2.0000      -0.866195       -23.5704
  29   2.0000      -0.851191       -23.1621
  30   2.0000      -0.841934       -22.9102
  31   2.0000      -0.817753       -22.2522
  32   2.0000      -0.785873       -21.3847
  33   2.0000      -0.774798       -21.0833
  34   2.0000      -0.708602       -19.2820
  35   2.0000      -0.700554       -19.0631
  36   2.0000      -0.689978       -18.7753
  37   2.0000      -0.666272       -18.1302
  38   2.0000      -0.641025       -17.4432
  39   2.0000      -0.613592       -16.6967
  40   2.0000      -0.594020       -16.1641
  41   2.0000      -0.570226       -15.5166
  42   2.0000      -0.560033       -15.2393
  43   2.0000      -0.550730       -14.9861
  44   2.0000      -0.542416       -14.7599
  45   2.0000      -0.537079       -14.6147
  46   2.0000      -0.518674       -14.1138
  47   2.0000      -0.514581       -14.0025
  48   2.0000      -0.502544       -13.6749
  49   2.0000      -0.497459       -13.5365
  50   2.0000      -0.489090       -13.3088
  51   2.0000      -0.479494       -13.0477
  52   2.0000      -0.468310       -12.7434
  53   2.0000      -0.464608       -12.6426
  54   2.0000      -0.461392       -12.5551
  55   2.0000      -0.451140       -12.2762
  56   2.0000      -0.440961       -11.9992
  57   2.0000      -0.436237       -11.8706
  58   2.0000      -0.432391       -11.7659
  59   2.0000      -0.425565       -11.5802
  60   2.0000      -0.419029       -11.4024
  61   2.0000      -0.409325       -11.1383
  62   2.0000      -0.406885       -11.0719
  63   2.0000      -0.350061        -9.5256
  64   2.0000      -0.331413        -9.0182
  65   2.0000      -0.328628        -8.9424
  66   2.0000      -0.293247        -7.9796
  67   0.0000       0.032394         0.8815
  68   0.0000       0.071210         1.9377
  69   0.0000       0.109451         2.9783
  70   0.0000       0.115147         3.1333
  71   0.0000       0.125687         3.4201

MULLIKEN ATOMIC CHARGES
-----------------------
   0 S :    0.101619
   1 C :   -0.073369
   2 C :   -0.122616
   3 C :    0.054006
   4 C :   -0.155978
   5 H :    0.005607
   6 C :    0.082794
   7 H :    0.024193
   8 H :    0.023976
   9 C :   -0.081623
  10 H :    0.053377
  11 H :    0.023485
  12 C :   -0.063489
  13 H :    0.022480
  14 H :    0.048607
  15 H :    0.020210
  16 S :    0.113880
  17 C :   -0.095156
  18 C :   -0.016492
  19 C :   -0.057994
  20 C :   -0.144024
  21 H :    0.024591
  22 C :    0.047415
  23 H :    0.041170
  24 H :    0.024369
  25 C :   -0.072298
  26 H :    0.010003
  27 H :    0.016162
  28 C :   -0.029738
  29 H :    0.039603
  30 H :    0.041429
  31 H :    0.032882
  32 H :   -0.002894
  33 H :    0.063814
Sum of atomic charges:    0.0000000

LOEWDIN ATOMIC CHARGES
----------------------
   0 S :    0.397518
   1 C :   -0.178591
   2 C :   -0.058590
   3 C :   -0.072792
   4 C :   -0.186883
   5 H :    0.025301
   6 C :   -0.030985
   7 H :    0.028442
   8 H :    0.028248
   9 C :   -0.035656
  10 H :    0.036302
  11 H :    0.018095
  12 C :   -0.066798
  13 H :    0.025456
  14 H :    0.030770
  15 H :    0.009381
  16 S :    0.401053
  17 C :   -0.173484
  18 C :   -0.058565
  19 C :   -0.056235
  20 C :   -0.207689
  21 H :    0.031349
  22 C :   -0.037598
  23 H :    0.045687
  24 H :    0.027548
  25 C :   -0.050551
  26 H :    0.019705
  27 H :    0.024682
  28 C :   -0.062093
  29 H :    0.029444
  30 H :    0.027412
  31 H :    0.030263
  32 H :    0.009156
  33 H :    0.030698

  Mayer bond orders larger than 0.100000
B(  0-S ,  1-C ) :   1.1059 B(  0-S ,  4-C ) :   1.1723 B(  1-C ,  2-C ) :   1.6183
B(  1-C , 32-H ) :   0.9853 B(  2-C ,  3-C ) :   1.2546 B(  2-C ,  6-C ) :   1.0144
B(  3-C ,  4-C ) :   1.5603 B(  3-C ,  5-H ) :   0.9903 B(  4-C , 20-C ) :   1.0018
B(  6-C ,  7-H ) :   0.9416 B(  6-C ,  8-H ) :   0.9476 B(  6-C ,  9-C ) :   1.0573
B(  9-C , 10-H ) :   0.9685 B(  9-C , 11-H ) :   0.9561 B(  9-C , 12-C ) :   1.0651
B( 12-C , 13-H ) :   0.9765 B( 12-C , 14-H ) :   0.9736 B( 12-C , 15-H ) :   0.9814
B( 16-S , 17-C ) :   1.1219 B( 16-S , 20-C ) :   1.1409 B( 17-C , 18-C ) :   1.6582
B( 17-C , 33-H ) :   0.9621 B( 18-C , 19-C ) :   1.1843 B( 18-C , 21-H ) :   0.9839
B( 19-C , 20-C ) :   1.6438 B( 19-C , 22-C ) :   1.0486 B( 22-C , 23-H ) :   0.9195
B( 22-C , 24-H ) :   0.9381 B( 22-C , 25-C ) :   1.0900 B( 25-C , 26-H ) :   0.9406
B( 25-C , 27-H ) :   0.9441 B( 25-C , 28-C ) :   1.0840 B( 28-C , 29-H ) :   0.9710
B( 28-C , 30-H ) :   0.9755 B( 28-C , 31-H ) :   0.9688

Dispersion correction           -0.015035824
FINAL SINGLE POINT ENERGY     -1339.860924755238

DIPOLE MOMENT
-------------
                                X             Y             Z
Electronic contribution:     -9.80538     -14.70710      -4.95645
Nuclear contribution   :     10.12173      15.20892       4.90948
                        -----------------------------------------
Total Dipole Moment    :      0.31635       0.50182      -0.04697
                        -----------------------------------------
Magnitude (a.u.)       :      0.59506
Magnitude (Debye)      :      1.51253

Rotational constants in cm-1:     0.021040     0.008210     0.007531
Rotational constants in MHz :   630.750110   246.134507   225.787026

                             ****ORCA TERMINATED NORMALLY****
TOTAL RUN TIME: 0 days 0 hours 0 minutes 31 seconds 184 msec
