                         Program Version 4.2.1 -  RELEASE  -
|  1> ! wB97X-D3 SP def2-SVP
|  2> %pal
|  3> nprocs 16
|  4> end
|  5>
|  6> * xyz 0 1
|  7> S 	 37.095 	 25.6382 	 50.0252
|  8> C 	 37.4698 	 27.0763 	 51.0102
|  9> C 	 38.7162 	 27.6385 	 50.649
| 10> C 	 39.4074 	 26.8613 	 49.663
| 11> C 	 38.6515 	 25.739 	 49.2417
| 12> H 	 40.4577 	 26.8139 	 49.244
| 13> C 	 39.2689 	 28.8226 	 51.3233
| 14> H 	 38.7776 	 29.7433 	 50.9951
| 15> H 	 40.3167 	 28.9533 	 50.9053
| 16> C 	 39.3933 	 28.894 	 52.869
| 17> H 	 38.3779 	 29.0845 	 53.2357
| 18> H 	 39.8114 	 27.9152 	 53.1873
| 19> C 	 40.3113 	 30.0239 	 53.3277
| 20> H 	 41.2983 	 29.8914 	 52.8957
| 21> H 	 39.9977 	 30.9096 	 52.7624
| 22> H 	 40.4176 	 30.2885 	 54.3709
| 23> S 	 40.3645 	 23.4654 	 48.7621
| 24> C 	 40.2228 	 22.695 	 47.1835
| 25> C 	 39.3653 	 23.3976 	 46.3968
| 26> C 	 38.6737 	 24.4879 	 47.0624
| 27> C 	 39.108 	 24.7187 	 48.3215
| 28> H 	 39.2346 	 23.0883 	 45.3777
| 29> C 	 37.7832 	 25.4798 	 46.3438
| 30> H 	 38.1302 	 25.7492 	 45.3474
| 31> H 	 37.9225 	 26.4819 	 46.749
| 32> C 	 36.2552 	 25.0825 	 46.3352
| 33> H 	 35.6388 	 25.9638 	 46.1165
| 34> H 	 35.8804 	 24.8895 	 47.3616
| 35> C 	 36.0177 	 23.83 	 45.315
| 36> H 	 34.8635 	 23.7243 	 45.2166
| 37> H 	 36.4199 	 22.9213 	 45.63
| 38> H 	 36.5323 	 23.984 	 44.4125
| 39> H 	 36.8358 	 27.4465 	 51.7805
| 40> H 	 40.5549 	 21.7 	 46.963
| 41> *
| 42>
| 43>                          ****END OF INPUT****

CARTESIAN COORDINATES (ANGSTROEM)
---------------------------------
  S     37.095000   25.638200   50.025200
  C     37.469800   27.076300   51.010200
  C     38.716200   27.638500   50.649000
  C     39.407400   26.861300   49.663000
  C     38.651500   25.739000   49.241700
  H     40.457700   26.813900   49.244000
  C     39.268900   28.822600   51.323300
  H     38.777600   29.743300   50.995100
  H     40.316700   28.953300   50.905300
  C     39.393300   28.894000   52.869000
  H     38.377900   29.084500   53.235700
  H     39.811400   27.915200   53.187300
  C     40.311300   30.023900   53.327700
  H     41.298300   29.891400   52.895700
  H     39.997700   30.909600   52.762400
  H     40.417600   30.288500   54.370900
  S     40.364500   23.465400   48.762100
  C     40.222800   22.695000   47.183500
  C     39.365300   23.397600   46.396800
  C     38.673700   24.487900   47.062400
  C     39.108000   24.718700   48.321500
  H     39.234600   23.088300   45.377700
  C     37.783200   25.479800   46.343800
  H     38.130200   25.749200   45.347400
  H     37.922500   26.481900   46.749000
  C     36.255200   25.082500   46.335200
  H     35.638800   25.963800   46.116500
  H     35.880400   24.889500   47.361600
  C     36.017700   23.830000   45.315000
  H     34.863500   23.724300   45.216600
  H     36.419900   22.921300   45.630000
  H     36.532300   23.984000   44.412500
  H     36.835800   27.446500   51.780500
  H     40.554900   21.700000   46.963000

 Total Charge           Charge          ....    0
 Multiplicity           Mult            ....    1
 Number of Electrons    NEL             ....  134
 Basis Dimension        Dim             ....  322

ORBITAL ENERGIES
----------------

  NO   OCC          E(Eh)            E(eV)
   0   2.0000     -88.972724     -2421.0709
   1   2.0000     -88.961935     -2420.7773
   2   2.0000     -10.330570      -281.1091
   3   2.0000     -10.326747      -281.0051
   4   2.0000     -10.319160      -280.7986
   5   2.0000     -10.317352      -280.7494
   6   2.0000     -10.309619      -280.5390
   7   2.0000     -10.305470      -280.4261
   8   2.0000     -10.302018      -280.3322
   9   2.0000     -10.294387      -280.1245
  10   2.0000     -10.293925      -280.1119
  11   2.0000     -10.293283      -280.0945
  12   2.0000     -10.293185      -280.0918
  13   2.0000     -10.289527      -279.9923
  14   2.0000     -10.280024      -279.7337
  15   2.0000     -10.278617      -279.6954
  16   2.0000      -8.086255      -220.0382
  17   2.0000      -8.075648      -219.7496
  18   2.0000      -6.044631      -164.4828
  19   2.0000      -6.040875      -164.3806
  20   2.0000      -6.037286      -164.2829
  21   2.0000      -6.034331      -164.2025
  22   2.0000      -6.030388      -164.0952
  23   2.0000      -6.026175      -163.9806
  24   2.0000      -1.001048       -27.2399
  25   2.0000      -0.978259       -26.6198
  26   2.0000      -0.914533       -24.8857
  27   2.0000      -0.895028       -24.3550
  28   2.0000      -0.868862       -23.6429
  29   2.0000      -0.851515       -23.1709
  30   2.0000      -0.834438       -22.7062
  31   2.0000      -0.813102       -22.1256
  32   2.0000      -0.781423       -21.2636
  33   2.0000      -0.770516       -20.9668
  34   2.0000      -0.709871       -19.3166
  35   2.0000      -0.706713       -19.2306
  36   2.0000      -0.695934       -18.9373
  37   2.0000      -0.660776       -17.9806
  38   2.0000      -0.641809       -17.4645
  39   2.0000      -0.606828       -16.5126
  40   2.0000      -0.596230       -16.2242
  41   2.0000      -0.570443       -15.5225
  42   2.0000      -0.567247       -15.4356
  43   2.0000      -0.540598       -14.7104
  44   2.0000      -0.534194       -14.5361
  45   2.0000      -0.521865       -14.2007
  46   2.0000      -0.519195       -14.1280
  47   2.0000      -0.510935       -13.9033
  48   2.0000      -0.506461       -13.7815
  49   2.0000      -0.494487       -13.4557
  50   2.0000      -0.484908       -13.1950
  51   2.0000      -0.480205       -13.0670
  52   2.0000      -0.469609       -12.7787
  53   2.0000      -0.466895       -12.7049
  54   2.0000      -0.459990       -12.5170
  55   2.0000      -0.447859       -12.1869
  56   2.0000      -0.439829       -11.9683
  57   2.0000      -0.434244       -11.8164
  58   2.0000      -0.430106       -11.7038
  59   2.0000      -0.424482       -11.5507
  60   2.0000      -0.417985       -11.3739
  61   2.0000      -0.413885       -11.2624
  62   2.0000      -0.403932       -10.9916
  63   2.0000      -0.336391        -9.1537
  64   2.0000      -0.332405        -9.0452
  65   2.0000      -0.328236        -8.9317
  66   2.0000      -0.302045        -8.2191
  67   0.0000       0.034728         0.9450
  68   0.0000       0.049119         1.3366
  69   0.0000       0.102300         2.7837
  70   0.0000       0.112952         3.0736
  71   0.0000       0.129929         3.5356

MULLIKEN ATOMIC CHARGES
-----------------------
   0 S :    0.128504
   1 C :   -0.120705
   2 C :   -0.049354
   3 C :    0.018923
   4 C :   -0.200187
   5 H :    0.046646
   6 C :    0.007074
   7 H :    0.037451
   8 H :    0.018989
   9 C :   -0.058787
  10 H :    0.033874
  11 H :    0.042874
  12 C :   -0.040000
  13 H :    0.020173
  14 H :    0.013442
  15 H :    0.047388
  16 S :    0.086784
  17 C :   -0.087442
  18 C :   -0.026173
  19 C :    0.016893
  20 C :   -0.168696
  21 H :    0.013974
  22 C :    0.023916
  23 H :    0.022945
  24 H :    0.025989
  25 C :   -0.068356
  26 H :    0.030169
  27 H :    0.025872
  28 C :   -0.042428
  29 H :    0.052126
  30 H :    0.024092
  31 H :    0.017746
  32 H :    0.044362
  33 H :    0.061924
Sum of atomic charges:   -0.0000000

LOEWDIN ATOMIC CHARGES
----------------------
   0 S :    0.416808
   1 C :   -0.183847
   2 C :   -0.062269
   3 C :   -0.066881
   4 C :   -0.195984
   5 H :    0.049894
   6 C :   -0.045019
   7 H :    0.032906
   8 H :    0.033586
   9 C :   -0.036784
  10 H :    0.022740
  11 H :    0.028339
  12 C :   -0.069720
  13 H :    0.024592
  14 H :    0.025768
  15 H :    0.028060
  16 S :    0.356192
  17 C :   -0.172852
  18 C :   -0.069868
  19 C :   -0.052476
  20 C :   -0.179596
  21 H :    0.027840
  22 C :   -0.039719
  23 H :    0.030029
  24 H :    0.032415
  25 C :   -0.037852
  26 H :    0.024425
  27 H :    0.017780
  28 C :   -0.062708
  29 H :    0.039701
  30 H :    0.015031
  31 H :    0.015335
  32 H :    0.022188
  33 H :    0.031948

  Mayer bond orders larger than 0.100000
B(  0-S ,  1-C ) :   1.1452 B(  0-S ,  4-C ) :   1.1647 B(  1-C ,  2-C ) :   1.5742
B(  1-C ,  4-C ) :   0.1043 B(  1-C , 32-H ) :   0.9785 B(  2-C ,  3-C ) :   1.2375
B(  2-C ,  6-C ) :   1.0379 B(  3-C ,  4-C ) :   1.5680 B(  3-C ,  5-H ) :   0.9797
B(  4-C , 20-C ) :   1.0457 B(  6-C ,  7-H ) :   0.9231 B(  6-C ,  8-H ) :   0.9463
B(  6-C ,  9-C ) :   1.0559 B(  9-C , 10-H ) :   0.9502 B(  9-C , 11-H ) :   0.9615
B(  9-C , 12-C ) :   1.0820 B( 12-C , 13-H ) :   0.9719 B( 12-C , 14-H ) :   0.9693
B( 12-C , 15-H ) :   0.9756 B( 16-S , 17-C ) :   1.1359 B( 16-S , 20-C ) :   1.0971
B( 17-C , 18-C ) :   1.6490 B( 17-C , 33-H ) :   0.9653 B( 18-C , 19-C ) :   1.1993
B( 18-C , 21-H ) :   0.9911 B( 19-C , 20-C ) :   1.6530 B( 19-C , 22-C ) :   1.0304
B( 22-C , 23-H ) :   0.9489 B( 22-C , 24-H ) :   0.9312 B( 22-C , 25-C ) :   1.0655
B( 25-C , 26-H ) :   0.9608 B( 25-C , 27-H ) :   0.9552 B( 25-C , 28-C ) :   1.0478
B( 28-C , 29-H ) :   0.9773 B( 28-C , 30-H ) :   0.9780 B( 28-C , 31-H ) :   0.9782

Dispersion correction           -0.014673216
FINAL SINGLE POINT ENERGY     -1339.861156017084

DIPOLE MOMENT
-------------
                                X             Y             Z
Electronic contribution:      3.65627     -15.39056       0.33671
Nuclear contribution   :     -3.66429      15.77354      -0.46610
                        -----------------------------------------
Total Dipole Moment    :     -0.00802       0.38298      -0.12939
                        -----------------------------------------
Magnitude (a.u.)       :      0.40433
Magnitude (Debye)      :      1.02772

Rotational constants in cm-1:     0.024473     0.007099     0.006078
Rotational constants in MHz :   733.678217   212.828869   182.221677

                             ****ORCA TERMINATED NORMALLY****
TOTAL RUN TIME: 0 days 0 hours 0 minutes 32 seconds 261 msec
