                         Program Version 4.2.1 -  RELEASE  -
|  1> ! wB97X-D3 SP def2-SVP
|  2> %pal
|  3> nprocs 16
|  4> end
|  5>
|  6> * xyz 0 1
|  7> S 	 -44.0607 	 31.3123 	 74.9385
|  8> C 	 -43.158 	 31.763 	 73.5457
|  9> C 	 -42.0724 	 32.5119 	 73.8496
| 10> C 	 -41.8917 	 32.5258 	 75.2458
| 11> C 	 -42.8165 	 32.0055 	 76.0194
| 12> H 	 -41.0233 	 32.8383 	 75.7719
| 13> C 	 -41.1029 	 33.1278 	 72.8679
| 14> H 	 -40.6292 	 32.4191 	 72.2846
| 15> H 	 -40.2321 	 33.6245 	 73.3919
| 16> C 	 -41.7516 	 34.1028 	 71.9301
| 17> H 	 -41.1065 	 34.3113 	 71.0987
| 18> H 	 -42.6363 	 33.5926 	 71.5426
| 19> C 	 -42.0427 	 35.4011 	 72.5755
| 20> H 	 -41.0491 	 35.7632 	 72.9301
| 21> H 	 -42.4104 	 36.0901 	 71.8144
| 22> H 	 -42.7589 	 35.3626 	 73.3918
| 23> S 	 -41.2432 	 31.9901 	 78.1575
| 24> C 	 -41.9081 	 31.7046 	 79.7575
| 25> C 	 -43.2899 	 31.5482 	 79.7397
| 26> C 	 -43.8038 	 31.5493 	 78.3822
| 27> C 	 -42.7911 	 31.8317 	 77.4425
| 28> H 	 -43.855 	 31.3613 	 80.6802
| 29> C 	 -45.2863 	 31.3961 	 78.1233
| 30> H 	 -45.5015 	 32.0107 	 77.1984
| 31> H 	 -45.7739 	 31.9342 	 78.9406
| 32> C 	 -45.7981 	 29.9587 	 77.803
| 33> H 	 -45.8833 	 29.3354 	 78.6891
| 34> H 	 -45.0004 	 29.5475 	 77.1806
| 35> C 	 -47.1375 	 29.8662 	 77.0493
| 36> H 	 -47.11 	 30.2738 	 76.0598
| 37> H 	 -47.8823 	 30.3991 	 77.67
| 38> H 	 -47.4291 	 28.7794 	 77.0006
| 39> H 	 -43.3953 	 31.4572 	 72.5154
| 40> H 	 -41.3078 	 31.7006 	 80.664
| 41> *
| 42>
| 43>                          ****END OF INPUT****

CARTESIAN COORDINATES (ANGSTROEM)
---------------------------------
  S    -44.060700   31.312300   74.938500
  C    -43.158000   31.763000   73.545700
  C    -42.072400   32.511900   73.849600
  C    -41.891700   32.525800   75.245800
  C    -42.816500   32.005500   76.019400
  H    -41.023300   32.838300   75.771900
  C    -41.102900   33.127800   72.867900
  H    -40.629200   32.419100   72.284600
  H    -40.232100   33.624500   73.391900
  C    -41.751600   34.102800   71.930100
  H    -41.106500   34.311300   71.098700
  H    -42.636300   33.592600   71.542600
  C    -42.042700   35.401100   72.575500
  H    -41.049100   35.763200   72.930100
  H    -42.410400   36.090100   71.814400
  H    -42.758900   35.362600   73.391800
  S    -41.243200   31.990100   78.157500
  C    -41.908100   31.704600   79.757500
  C    -43.289900   31.548200   79.739700
  C    -43.803800   31.549300   78.382200
  C    -42.791100   31.831700   77.442500
  H    -43.855000   31.361300   80.680200
  C    -45.286300   31.396100   78.123300
  H    -45.501500   32.010700   77.198400
  H    -45.773900   31.934200   78.940600
  C    -45.798100   29.958700   77.803000
  H    -45.883300   29.335400   78.689100
  H    -45.000400   29.547500   77.180600
  C    -47.137500   29.866200   77.049300
  H    -47.110000   30.273800   76.059800
  H    -47.882300   30.399100   77.670000
  H    -47.429100   28.779400   77.000600
  H    -43.395300   31.457200   72.515400
  H    -41.307800   31.700600   80.664000

 Total Charge           Charge          ....    0
 Multiplicity           Mult            ....    1
 Number of Electrons    NEL             ....  134
 Basis Dimension        Dim             ....  322

ORBITAL ENERGIES
----------------

  NO   OCC          E(Eh)            E(eV)
   0   2.0000     -88.968494     -2420.9558
   1   2.0000     -88.965124     -2420.8641
   2   2.0000     -10.326940      -281.0103
   3   2.0000     -10.323168      -280.9077
   4   2.0000     -10.319402      -280.8052
   5   2.0000     -10.312414      -280.6150
   6   2.0000     -10.306817      -280.4628
   7   2.0000     -10.300892      -280.3015
   8   2.0000     -10.296710      -280.1877
   9   2.0000     -10.294381      -280.1243
  10   2.0000     -10.286082      -279.8985
  11   2.0000     -10.284649      -279.8595
  12   2.0000     -10.280980      -279.7597
  13   2.0000     -10.278324      -279.6874
  14   2.0000     -10.277057      -279.6529
  15   2.0000     -10.272642      -279.5328
  16   2.0000      -8.083710      -219.9689
  17   2.0000      -8.079434      -219.8526
  18   2.0000      -6.042266      -164.4184
  19   2.0000      -6.038211      -164.3081
  20   2.0000      -6.038122      -164.3057
  21   2.0000      -6.034363      -164.2034
  22   2.0000      -6.034037      -164.1945
  23   2.0000      -6.030003      -164.0847
  24   2.0000      -1.017089       -27.6764
  25   2.0000      -0.989521       -26.9262
  26   2.0000      -0.923661       -25.1341
  27   2.0000      -0.903867       -24.5955
  28   2.0000      -0.880030       -23.9468
  29   2.0000      -0.854094       -23.2411
  30   2.0000      -0.845916       -23.0185
  31   2.0000      -0.818079       -22.2610
  32   2.0000      -0.784739       -21.3538
  33   2.0000      -0.769239       -20.9320
  34   2.0000      -0.706011       -19.2115
  35   2.0000      -0.699024       -19.0214
  36   2.0000      -0.689097       -18.7513
  37   2.0000      -0.671647       -18.2764
  38   2.0000      -0.635859       -17.3026
  39   2.0000      -0.617382       -16.7998
  40   2.0000      -0.593958       -16.1624
  41   2.0000      -0.583222       -15.8703
  42   2.0000      -0.566101       -15.4044
  43   2.0000      -0.559298       -15.2193
  44   2.0000      -0.545377       -14.8405
  45   2.0000      -0.521374       -14.1873
  46   2.0000      -0.519189       -14.1278
  47   2.0000      -0.509533       -13.8651
  48   2.0000      -0.505659       -13.7597
  49   2.0000      -0.499418       -13.5899
  50   2.0000      -0.491557       -13.3759
  51   2.0000      -0.481782       -13.1099
  52   2.0000      -0.468291       -12.7428
  53   2.0000      -0.467195       -12.7130
  54   2.0000      -0.464813       -12.6482
  55   2.0000      -0.448341       -12.2000
  56   2.0000      -0.437381       -11.9017
  57   2.0000      -0.434379       -11.8200
  58   2.0000      -0.428176       -11.6513
  59   2.0000      -0.424452       -11.5499
  60   2.0000      -0.421963       -11.4822
  61   2.0000      -0.417344       -11.3565
  62   2.0000      -0.411773       -11.2049
  63   2.0000      -0.368236       -10.0202
  64   2.0000      -0.332231        -9.0405
  65   2.0000      -0.331761        -9.0277
  66   2.0000      -0.282844        -7.6966
  67   0.0000       0.024077         0.6552
  68   0.0000       0.081944         2.2298
  69   0.0000       0.106259         2.8915
  70   0.0000       0.113884         3.0989
  71   0.0000       0.133233         3.6255

MULLIKEN ATOMIC CHARGES
-----------------------
   0 S :    0.087612
   1 C :   -0.136032
   2 C :   -0.046357
   3 C :   -0.048173
   4 C :   -0.066199
   5 H :   -0.000536
   6 C :    0.093028
   7 H :    0.012856
   8 H :    0.018406
   9 C :   -0.068817
  10 H :    0.018165
  11 H :    0.017006
  12 C :   -0.035193
  13 H :    0.021458
  14 H :    0.032387
  15 H :    0.042708
  16 S :    0.088370
  17 C :   -0.090281
  18 C :   -0.037084
  19 C :   -0.079532
  20 C :   -0.114944
  21 H :    0.038414
  22 C :    0.022795
  23 H :    0.027940
  24 H :    0.030403
  25 C :   -0.058267
  26 H :    0.027984
  27 H :    0.029473
  28 C :   -0.052109
  29 H :    0.035366
  30 H :    0.032755
  31 H :    0.042948
  32 H :    0.054794
  33 H :    0.058657
Sum of atomic charges:    0.0000000

LOEWDIN ATOMIC CHARGES
----------------------
   0 S :    0.400942
   1 C :   -0.196762
   2 C :   -0.064437
   3 C :   -0.074667
   4 C :   -0.173365
   5 H :    0.016931
   6 C :   -0.026848
   7 H :    0.022421
   8 H :    0.032802
   9 C :   -0.041884
  10 H :    0.022116
  11 H :    0.020088
  12 C :   -0.060616
  13 H :    0.027598
  14 H :    0.026316
  15 H :    0.025619
  16 S :    0.427804
  17 C :   -0.186284
  18 C :   -0.070066
  19 C :   -0.060072
  20 C :   -0.200253
  21 H :    0.041211
  22 C :   -0.044712
  23 H :    0.028474
  24 H :    0.030516
  25 C :   -0.042668
  26 H :    0.022469
  27 H :    0.020106
  28 C :   -0.064771
  29 H :    0.018687
  30 H :    0.026288
  31 H :    0.034343
  32 H :    0.033400
  33 H :    0.029273

  Mayer bond orders larger than 0.100000
B(  0-S ,  1-C ) :   1.1453 B(  0-S ,  4-C ) :   1.0898 B(  1-C ,  2-C ) :   1.6278
B(  1-C , 32-H ) :   0.9577 B(  2-C ,  3-C ) :   1.2187 B(  2-C ,  6-C ) :   1.0095
B(  3-C ,  4-C ) :   1.6260 B(  3-C ,  5-H ) :   0.9879 B(  4-C , 20-C ) :   1.0938
B(  6-C ,  7-H ) :   0.9292 B(  6-C ,  8-H ) :   0.9445 B(  6-C ,  9-C ) :   1.0863
B(  9-C , 10-H ) :   0.9498 B(  9-C , 11-H ) :   0.9496 B(  9-C , 12-C ) :   1.0863
B( 12-C , 13-H ) :   0.9698 B( 12-C , 14-H ) :   0.9718 B( 12-C , 15-H ) :   0.9764
B( 16-S , 17-C ) :   1.1483 B( 16-S , 20-C ) :   1.1493 B( 17-C , 18-C ) :   1.6151
B( 17-C , 33-H ) :   0.9678 B( 18-C , 19-C ) :   1.2417 B( 18-C , 21-H ) :   0.9832
B( 19-C , 20-C ) :   1.5453 B( 19-C , 22-C ) :   1.0526 B( 22-C , 23-H ) :   0.9345
B( 22-C , 24-H ) :   0.9330 B( 22-C , 25-C ) :   1.0413 B( 25-C , 26-H ) :   0.9558
B( 25-C , 27-H ) :   0.9535 B( 25-C , 28-C ) :   1.0881 B( 28-C , 29-H ) :   0.9739
B( 28-C , 30-H ) :   0.9748 B( 28-C , 31-H ) :   0.9739

Dispersion correction           -0.014235064
FINAL SINGLE POINT ENERGY     -1339.885404445961

DIPOLE MOMENT
-------------
                                X             Y             Z
Electronic contribution:      8.86438      -4.62307      10.53397
Nuclear contribution   :     -8.78016       4.65864     -10.64723
                        -----------------------------------------
Total Dipole Moment    :      0.08422       0.03557      -0.11326
                        -----------------------------------------
Magnitude (a.u.)       :      0.14555
Magnitude (Debye)      :      0.36997

Rotational constants in cm-1:     0.020331     0.008751     0.006612
Rotational constants in MHz :   609.515392   262.353407   198.223652

                             ****ORCA TERMINATED NORMALLY****
TOTAL RUN TIME: 0 days 0 hours 0 minutes 30 seconds 19 msec
