                         Program Version 4.2.1 -  RELEASE  -
|  1> ! wB97X-D3 SP def2-SVP
|  2> %pal
|  3> nprocs 16
|  4> end
|  5>
|  6> * xyz 0 1
|  7> S 	 -40.2812 	 -1.28979 	 97.644
|  8> C 	 -38.6219 	 -1.14829 	 98.1663
|  9> C 	 -37.9029 	 -0.389245 	 97.233
| 10> C 	 -38.6462 	 -0.169073 	 96.0214
| 11> C 	 -39.9777 	 -0.504944 	 96.0844
| 12> H 	 -38.2997 	 0.322378 	 95.1179
| 13> C 	 -36.4818 	 0.102773 	 97.4551
| 14> H 	 -36.0027 	 0.371527 	 96.4896
| 15> H 	 -35.7687 	 -0.587931 	 97.9423
| 16> C 	 -36.4364 	 1.37941 	 98.3803
| 17> H 	 -37.0203 	 2.23022 	 98.0242
| 18> H 	 -36.7552 	 1.1714 	 99.3953
| 19> C 	 -34.993 	 1.89308 	 98.4722
| 20> H 	 -34.4487 	 1.94203 	 97.5491
| 21> H 	 -34.9574 	 2.90191 	 98.9753
| 22> H 	 -34.4749 	 1.25402 	 99.2235
| 23> S 	 -41.9203 	 1.31449 	 95.4631
| 24> C 	 -42.6299 	 1.28932 	 93.8431
| 25> C 	 -42.0926 	 0.263863 	 93.1081
| 26> C 	 -41.0902 	 -0.51747 	 93.7379
| 27> C 	 -40.9805 	 -0.123836 	 95.079
| 28> H 	 -42.3933 	 0.119928 	 92.0677
| 29> C 	 -40.4066 	 -1.69083 	 93.0043
| 30> H 	 -39.6077 	 -2.04636 	 93.6427
| 31> H 	 -39.9127 	 -1.30791 	 92.0847
| 32> C 	 -41.4015 	 -2.8108 	 92.6075
| 33> H 	 -40.8555 	 -3.52437 	 91.9519
| 34> H 	 -42.2116 	 -2.40753 	 91.9734
| 35> C 	 -42.0696 	 -3.4365 	 93.8681
| 36> H 	 -42.6527 	 -2.73309 	 94.3762
| 37> H 	 -41.3825 	 -3.88167 	 94.6742
| 38> H 	 -42.8412 	 -4.14069 	 93.5872
| 39> H 	 -38.2531 	 -1.24369 	 99.218
| 40> H 	 -43.3473 	 2.05379 	 93.5087
| 41> *
| 42>
| 43>                          ****END OF INPUT****

CARTESIAN COORDINATES (ANGSTROEM)
---------------------------------
  S    -40.281200   -1.289790   97.644000
  C    -38.621900   -1.148290   98.166300
  C    -37.902900   -0.389245   97.233000
  C    -38.646200   -0.169073   96.021400
  C    -39.977700   -0.504944   96.084400
  H    -38.299700    0.322378   95.117900
  C    -36.481800    0.102773   97.455100
  H    -36.002700    0.371527   96.489600
  H    -35.768700   -0.587931   97.942300
  C    -36.436400    1.379410   98.380300
  H    -37.020300    2.230220   98.024200
  H    -36.755200    1.171400   99.395300
  C    -34.993000    1.893080   98.472200
  H    -34.448700    1.942030   97.549100
  H    -34.957400    2.901910   98.975300
  H    -34.474900    1.254020   99.223500
  S    -41.920300    1.314490   95.463100
  C    -42.629900    1.289320   93.843100
  C    -42.092600    0.263863   93.108100
  C    -41.090200   -0.517470   93.737900
  C    -40.980500   -0.123836   95.079000
  H    -42.393300    0.119928   92.067700
  C    -40.406600   -1.690830   93.004300
  H    -39.607700   -2.046360   93.642700
  H    -39.912700   -1.307910   92.084700
  C    -41.401500   -2.810800   92.607500
  H    -40.855500   -3.524370   91.951900
  H    -42.211600   -2.407530   91.973400
  C    -42.069600   -3.436500   93.868100
  H    -42.652700   -2.733090   94.376200
  H    -41.382500   -3.881670   94.674200
  H    -42.841200   -4.140690   93.587200
  H    -38.253100   -1.243690   99.218000
  H    -43.347300    2.053790   93.508700

 Total Charge           Charge          ....    0
 Multiplicity           Mult            ....    1
 Number of Electrons    NEL             ....  134
 Basis Dimension        Dim             ....  322

ORBITAL ENERGIES
----------------

  NO   OCC          E(Eh)            E(eV)
   0   2.0000     -88.966216     -2420.8938
   1   2.0000     -88.965595     -2420.8769
   2   2.0000     -10.330076      -281.0957
   3   2.0000     -10.328793      -281.0608
   4   2.0000     -10.321291      -280.8566
   5   2.0000     -10.317500      -280.7535
   6   2.0000     -10.307085      -280.4701
   7   2.0000     -10.305266      -280.4205
   8   2.0000     -10.299930      -280.2753
   9   2.0000     -10.297472      -280.2085
  10   2.0000     -10.295142      -280.1451
  11   2.0000     -10.293791      -280.1083
  12   2.0000     -10.293515      -280.1008
  13   2.0000     -10.287247      -279.9302
  14   2.0000     -10.280367      -279.7430
  15   2.0000     -10.273132      -279.5461
  16   2.0000      -8.080661      -219.8860
  17   2.0000      -8.079764      -219.8616
  18   2.0000      -6.039125      -164.3330
  19   2.0000      -6.038361      -164.3122
  20   2.0000      -6.035280      -164.2283
  21   2.0000      -6.034215      -164.1993
  22   2.0000      -6.031406      -164.1229
  23   2.0000      -6.030595      -164.1008
  24   2.0000      -1.002854       -27.2891
  25   2.0000      -0.981232       -26.7007
  26   2.0000      -0.905674       -24.6447
  27   2.0000      -0.903471       -24.5847
  28   2.0000      -0.867620       -23.6091
  29   2.0000      -0.845491       -23.0070
  30   2.0000      -0.842097       -22.9146
  31   2.0000      -0.810610       -22.0578
  32   2.0000      -0.781074       -21.2541
  33   2.0000      -0.766151       -20.8480
  34   2.0000      -0.703082       -19.1318
  35   2.0000      -0.696884       -18.9632
  36   2.0000      -0.692965       -18.8565
  37   2.0000      -0.655810       -17.8455
  38   2.0000      -0.640807       -17.4372
  39   2.0000      -0.614782       -16.7291
  40   2.0000      -0.597467       -16.2579
  41   2.0000      -0.567725       -15.4486
  42   2.0000      -0.559213       -15.2170
  43   2.0000      -0.547001       -14.8847
  44   2.0000      -0.534723       -14.5505
  45   2.0000      -0.518664       -14.1136
  46   2.0000      -0.513316       -13.9680
  47   2.0000      -0.508012       -13.8237
  48   2.0000      -0.503677       -13.7057
  49   2.0000      -0.495628       -13.4867
  50   2.0000      -0.488982       -13.3059
  51   2.0000      -0.470873       -12.8131
  52   2.0000      -0.466468       -12.6932
  53   2.0000      -0.462384       -12.5821
  54   2.0000      -0.455674       -12.3995
  55   2.0000      -0.445950       -12.1349
  56   2.0000      -0.444296       -12.0899
  57   2.0000      -0.434353       -11.8193
  58   2.0000      -0.432661       -11.7733
  59   2.0000      -0.428815       -11.6687
  60   2.0000      -0.420587       -11.4448
  61   2.0000      -0.416708       -11.3392
  62   2.0000      -0.414221       -11.2715
  63   2.0000      -0.341800        -9.3009
  64   2.0000      -0.328889        -8.9495
  65   2.0000      -0.322873        -8.7858
  66   2.0000      -0.303931        -8.2704
  67   0.0000       0.036597         0.9959
  68   0.0000       0.056658         1.5417
  69   0.0000       0.115451         3.1416
  70   0.0000       0.121995         3.3197
  71   0.0000       0.126968         3.4550

MULLIKEN ATOMIC CHARGES
-----------------------
   0 S :    0.105575
   1 C :   -0.115918
   2 C :   -0.084255
   3 C :    0.055351
   4 C :   -0.177145
   5 H :    0.013904
   6 C :    0.027034
   7 H :    0.026927
   8 H :    0.035819
   9 C :   -0.077440
  10 H :    0.035952
  11 H :    0.026483
  12 C :   -0.076372
  13 H :    0.036481
  14 H :    0.037759
  15 H :    0.029181
  16 S :    0.108177
  17 C :   -0.103879
  18 C :   -0.036622
  19 C :   -0.040690
  20 C :   -0.178821
  21 H :    0.021987
  22 C :    0.086000
  23 H :    0.029239
  24 H :    0.035403
  25 C :   -0.084234
  26 H :    0.039618
  27 H :    0.033108
  28 C :   -0.049715
  29 H :    0.023901
  30 H :    0.049719
  31 H :    0.025570
  32 H :    0.072358
  33 H :    0.069545
Sum of atomic charges:   -0.0000000

LOEWDIN ATOMIC CHARGES
----------------------
   0 S :    0.399571
   1 C :   -0.212284
   2 C :   -0.063196
   3 C :   -0.060413
   4 C :   -0.199982
   5 H :    0.032660
   6 C :   -0.034543
   7 H :    0.031548
   8 H :    0.033988
   9 C :   -0.038394
  10 H :    0.023647
  11 H :    0.020984
  12 C :   -0.073162
  13 H :    0.019389
  14 H :    0.031836
  15 H :    0.025815
  16 S :    0.399303
  17 C :   -0.181167
  18 C :   -0.074856
  19 C :   -0.052235
  20 C :   -0.197600
  21 H :    0.031711
  22 C :   -0.028175
  23 H :    0.029509
  24 H :    0.035306
  25 C :   -0.038955
  26 H :    0.027350
  27 H :    0.025880
  28 C :   -0.071614
  29 H :    0.019187
  30 H :    0.036948
  31 H :    0.025069
  32 H :    0.041441
  33 H :    0.035435

  Mayer bond orders larger than 0.100000
B(  0-S ,  1-C ) :   1.1420 B(  0-S ,  4-C ) :   1.1464 B(  1-C ,  2-C ) :   1.6033
B(  1-C , 32-H ) :   0.9588 B(  2-C ,  3-C ) :   1.2466 B(  2-C ,  6-C ) :   1.0261
B(  3-C ,  4-C ) :   1.5837 B(  3-C ,  5-H ) :   0.9922 B(  4-C , 20-C ) :   1.0103
B(  6-C ,  7-H ) :   0.9485 B(  6-C ,  8-H ) :   0.9494 B(  6-C ,  9-C ) :   1.0491
B(  9-C , 10-H ) :   0.9614 B(  9-C , 11-H ) :   0.9587 B(  9-C , 12-C ) :   1.0805
B( 12-C , 13-H ) :   0.9761 B( 12-C , 14-H ) :   0.9738 B( 12-C , 15-H ) :   0.9759
B( 16-S , 17-C ) :   1.1440 B( 16-S , 20-C ) :   1.1612 B( 17-C , 18-C ) :   1.6130
B( 17-C , 20-C ) :   0.1006 B( 17-C , 33-H ) :   0.9675 B( 18-C , 19-C ) :   1.2363
B( 18-C , 21-H ) :   0.9849 B( 19-C , 20-C ) :   1.5902 B( 19-C , 22-C ) :   1.0364
B( 22-C , 23-H ) :   0.9362 B( 22-C , 24-H ) :   0.9344 B( 22-C , 25-C ) :   1.0690
B( 25-C , 26-H ) :   0.9581 B( 25-C , 27-H ) :   0.9554 B( 25-C , 28-C ) :   1.0641
B( 28-C , 29-H ) :   0.9707 B( 28-C , 30-H ) :   0.9765 B( 28-C , 31-H ) :   0.9722

Dispersion correction           -0.014533957
FINAL SINGLE POINT ENERGY     -1339.887006933285

DIPOLE MOMENT
-------------
                                X             Y             Z
Electronic contribution:    -15.78081       3.80310       3.58300
Nuclear contribution   :     16.12362      -3.59609      -3.95192
                        -----------------------------------------
Total Dipole Moment    :      0.34281       0.20700      -0.36892
                        -----------------------------------------
Magnitude (a.u.)       :      0.54449
Magnitude (Debye)      :      1.38398

Rotational constants in cm-1:     0.022325     0.007272     0.006705
Rotational constants in MHz :   669.280401   218.013500   201.015228

                             ****ORCA TERMINATED NORMALLY****
TOTAL RUN TIME: 0 days 0 hours 0 minutes 29 seconds 587 msec
