                         Program Version 4.2.1 -  RELEASE  -
|  1> ! wB97X-D3 SP def2-SVP
|  2> %pal
|  3> nprocs 16
|  4> end
|  5>
|  6> * xyz 0 1
|  7> S 	 13.9726 	 25.9981 	 46.3986
|  8> C 	 15.1725 	 24.8501 	 46.0179
|  9> C 	 14.5349 	 23.6543 	 45.593
| 10> C 	 13.1304 	 23.6666 	 45.7345
| 11> C 	 12.6444 	 24.8986 	 46.0801
| 12> H 	 12.4612 	 22.84 	 45.5588
| 13> C 	 15.2576 	 22.3784 	 45.2321
| 14> H 	 16.2957 	 22.6172 	 45.168
| 15> H 	 15.0198 	 22.0113 	 44.2345
| 16> C 	 14.9906 	 21.1582 	 46.1355
| 17> H 	 15.254 	 21.2949 	 47.2385
| 18> H 	 13.9838 	 20.8301 	 46.1999
| 19> C 	 15.6236 	 19.9068 	 45.6099
| 20> H 	 15.506 	 19.7872 	 44.4893
| 21> H 	 16.6898 	 19.9389 	 45.7235
| 22> H 	 15.3011 	 19.0794 	 46.1613
| 23> S 	 10.7989 	 26.9415 	 45.7635
| 24> C 	 9.15271 	 26.7354 	 46.4139
| 25> C 	 8.91648 	 25.4135 	 46.6309
| 26> C 	 10.0856 	 24.5483 	 46.4339
| 27> C 	 11.2453 	 25.2797 	 46.1708
| 28> H 	 7.89471 	 25.0912 	 46.8258
| 29> C 	 9.99486 	 23.0984 	 46.8263
| 30> H 	 10.5977 	 22.3869 	 46.1142
| 31> H 	 8.99536 	 22.7764 	 46.6639
| 32> C 	 10.3522 	 22.8605 	 48.3013
| 33> H 	 9.7164 	 23.4673 	 48.9864
| 34> H 	 11.3224 	 23.2789 	 48.509
| 35> C 	 10.5337 	 21.3943 	 48.6635
| 36> H 	 11.3483 	 20.9348 	 48.0957
| 37> H 	 9.5777 	 20.8806 	 48.5335
| 38> H 	 10.7614 	 21.272 	 49.7118
| 39> H 	 16.2224 	 25.1066 	 46.0751
| 40> H 	 8.38354 	 27.4662 	 46.2851
| 41> *
| 42>
| 43>                          ****END OF INPUT****

CARTESIAN COORDINATES (ANGSTROEM)
---------------------------------
  S     13.972600   25.998100   46.398600
  C     15.172500   24.850100   46.017900
  C     14.534900   23.654300   45.593000
  C     13.130400   23.666600   45.734500
  C     12.644400   24.898600   46.080100
  H     12.461200   22.840000   45.558800
  C     15.257600   22.378400   45.232100
  H     16.295700   22.617200   45.168000
  H     15.019800   22.011300   44.234500
  C     14.990600   21.158200   46.135500
  H     15.254000   21.294900   47.238500
  H     13.983800   20.830100   46.199900
  C     15.623600   19.906800   45.609900
  H     15.506000   19.787200   44.489300
  H     16.689800   19.938900   45.723500
  H     15.301100   19.079400   46.161300
  S     10.798900   26.941500   45.763500
  C      9.152710   26.735400   46.413900
  C      8.916480   25.413500   46.630900
  C     10.085600   24.548300   46.433900
  C     11.245300   25.279700   46.170800
  H      7.894710   25.091200   46.825800
  C      9.994860   23.098400   46.826300
  H     10.597700   22.386900   46.114200
  H      8.995360   22.776400   46.663900
  C     10.352200   22.860500   48.301300
  H      9.716400   23.467300   48.986400
  H     11.322400   23.278900   48.509000
  C     10.533700   21.394300   48.663500
  H     11.348300   20.934800   48.095700
  H      9.577700   20.880600   48.533500
  H     10.761400   21.272000   49.711800
  H     16.222400   25.106600   46.075100
  H      8.383540   27.466200   46.285100

 Total Charge           Charge          ....    0
 Multiplicity           Mult            ....    1
 Number of Electrons    NEL             ....  134
 Basis Dimension        Dim             ....  322

ORBITAL ENERGIES
----------------

  NO   OCC          E(Eh)            E(eV)
   0   2.0000     -88.967602     -2420.9315
   1   2.0000     -88.961740     -2420.7720
   2   2.0000     -10.332590      -281.1641
   3   2.0000     -10.329859      -281.0897
   4   2.0000     -10.318076      -280.7691
   5   2.0000     -10.315455      -280.6978
   6   2.0000     -10.306993      -280.4675
   7   2.0000     -10.303977      -280.3855
   8   2.0000     -10.297913      -280.2204
   9   2.0000     -10.297686      -280.2143
  10   2.0000     -10.290702      -280.0242
  11   2.0000     -10.290373      -280.0153
  12   2.0000     -10.286444      -279.9084
  13   2.0000     -10.283880      -279.8386
  14   2.0000     -10.276972      -279.6506
  15   2.0000     -10.273575      -279.5582
  16   2.0000      -8.082967      -219.9487
  17   2.0000      -8.075960      -219.7580
  18   2.0000      -6.041469      -164.3967
  19   2.0000      -6.037148      -164.2791
  20   2.0000      -6.034677      -164.2119
  21   2.0000      -6.033915      -164.1912
  22   2.0000      -6.030622      -164.1016
  23   2.0000      -6.026447      -163.9879
  24   2.0000      -1.009184       -27.4613
  25   2.0000      -0.983431       -26.7605
  26   2.0000      -0.915269       -24.9057
  27   2.0000      -0.908917       -24.7329
  28   2.0000      -0.874673       -23.8011
  29   2.0000      -0.857875       -23.3440
  30   2.0000      -0.845588       -23.0096
  31   2.0000      -0.820456       -22.3258
  32   2.0000      -0.779725       -21.2174
  33   2.0000      -0.768712       -20.9177
  34   2.0000      -0.709384       -19.3033
  35   2.0000      -0.699028       -19.0215
  36   2.0000      -0.692441       -18.8423
  37   2.0000      -0.665137       -18.0993
  38   2.0000      -0.645348       -17.5608
  39   2.0000      -0.626606       -17.0508
  40   2.0000      -0.595037       -16.1918
  41   2.0000      -0.573532       -15.6066
  42   2.0000      -0.564204       -15.3528
  43   2.0000      -0.557160       -15.1611
  44   2.0000      -0.538482       -14.6528
  45   2.0000      -0.523110       -14.2346
  46   2.0000      -0.518763       -14.1163
  47   2.0000      -0.511125       -13.9084
  48   2.0000      -0.508905       -13.8480
  49   2.0000      -0.502930       -13.6854
  50   2.0000      -0.496239       -13.5033
  51   2.0000      -0.484850       -13.1934
  52   2.0000      -0.471725       -12.8363
  53   2.0000      -0.465000       -12.6533
  54   2.0000      -0.458728       -12.4826
  55   2.0000      -0.446292       -12.1442
  56   2.0000      -0.444240       -12.0884
  57   2.0000      -0.440984       -11.9998
  58   2.0000      -0.435039       -11.8380
  59   2.0000      -0.424157       -11.5419
  60   2.0000      -0.419312       -11.4101
  61   2.0000      -0.411242       -11.1905
  62   2.0000      -0.408646       -11.1198
  63   2.0000      -0.361881        -9.8473
  64   2.0000      -0.331419        -9.0184
  65   2.0000      -0.326238        -8.8774
  66   2.0000      -0.284767        -7.7489
  67   0.0000       0.020077         0.5463
  68   0.0000       0.079861         2.1731
  69   0.0000       0.101752         2.7688
  70   0.0000       0.115738         3.1494
  71   0.0000       0.127441         3.4678

MULLIKEN ATOMIC CHARGES
-----------------------
   0 S :    0.121246
   1 C :   -0.127697
   2 C :   -0.066586
   3 C :    0.010235
   4 C :   -0.114678
   5 H :   -0.007565
   6 C :    0.101922
   7 H :    0.006586
   8 H :    0.018955
   9 C :   -0.093116
  10 H :    0.036989
  11 H :    0.018264
  12 C :   -0.036926
  13 H :    0.032172
  14 H :    0.016197
  15 H :    0.023035
  16 S :    0.079645
  17 C :   -0.075969
  18 C :   -0.039194
  19 C :   -0.036685
  20 C :   -0.128978
  21 H :    0.024866
  22 C :    0.027217
  23 H :    0.036187
  24 H :    0.007892
  25 C :   -0.063229
  26 H :    0.030040
  27 H :    0.022624
  28 C :   -0.029981
  29 H :    0.036471
  30 H :    0.025829
  31 H :    0.029457
  32 H :    0.059452
  33 H :    0.055323
Sum of atomic charges:   -0.0000000

LOEWDIN ATOMIC CHARGES
----------------------
   0 S :    0.432081
   1 C :   -0.212347
   2 C :   -0.060820
   3 C :   -0.059513
   4 C :   -0.192738
   5 H :    0.028422
   6 C :   -0.030136
   7 H :    0.025830
   8 H :    0.031340
   9 C :   -0.046543
  10 H :    0.032286
  11 H :    0.017138
  12 C :   -0.062336
  13 H :    0.030926
  14 H :    0.018409
  15 H :    0.019514
  16 S :    0.373931
  17 C :   -0.174043
  18 C :   -0.066310
  19 C :   -0.061109
  20 C :   -0.178048
  21 H :    0.033518
  22 C :   -0.036986
  23 H :    0.034805
  24 H :    0.023064
  25 C :   -0.044244
  26 H :    0.029718
  27 H :    0.023643
  28 C :   -0.063487
  29 H :    0.026716
  30 H :    0.022389
  31 H :    0.026620
  32 H :    0.031298
  33 H :    0.027015

  Mayer bond orders larger than 0.100000
B(  0-S ,  1-C ) :   1.1609 B(  0-S ,  4-C ) :   1.1610 B(  1-C ,  2-C ) :   1.5407
B(  1-C ,  4-C ) :   0.1017 B(  1-C , 32-H ) :   0.9752 B(  2-C ,  3-C ) :   1.2738
B(  2-C ,  6-C ) :   1.0460 B(  3-C ,  4-C ) :   1.5346 B(  3-C ,  5-H ) :   0.9970
B(  4-C , 20-C ) :   1.0842 B(  6-C ,  7-H ) :   0.9409 B(  6-C ,  8-H ) :   0.9285
B(  6-C ,  9-C ) :   1.0610 B(  9-C , 10-H ) :   0.9504 B(  9-C , 11-H ) :   0.9538
B(  9-C , 12-C ) :   1.0893 B( 12-C , 13-H ) :   0.9698 B( 12-C , 14-H ) :   0.9733
B( 12-C , 15-H ) :   0.9728 B( 16-S , 17-C ) :   1.1212 B( 16-S , 20-C ) :   1.1344
B( 17-C , 18-C ) :   1.6465 B( 17-C , 33-H ) :   0.9679 B( 18-C , 19-C ) :   1.2170
B( 18-C , 21-H ) :   0.9848 B( 19-C , 20-C ) :   1.5864 B( 19-C , 22-C ) :   1.0628
B( 22-C , 23-H ) :   0.9378 B( 22-C , 24-H ) :   0.9211 B( 22-C , 25-C ) :   1.0548
B( 25-C , 26-H ) :   0.9509 B( 25-C , 27-H ) :   0.9554 B( 25-C , 28-C ) :   1.0828
B( 28-C , 29-H ) :   0.9735 B( 28-C , 30-H ) :   0.9746 B( 28-C , 31-H ) :   0.9707

Dispersion correction           -0.014410094
FINAL SINGLE POINT ENERGY     -1339.878123887328

DIPOLE MOMENT
-------------
                                X             Y             Z
Electronic contribution:     -3.57974      32.05455      -5.78494
Nuclear contribution   :      3.50366     -32.74727       5.87422
                        -----------------------------------------
Total Dipole Moment    :     -0.07608      -0.69272       0.08928
                        -----------------------------------------
Magnitude (a.u.)       :      0.70258
Magnitude (Debye)      :      1.78582

Rotational constants in cm-1:     0.018416     0.009361     0.006728
Rotational constants in MHz :   552.086138   280.650431   201.694546

                             ****ORCA TERMINATED NORMALLY****
TOTAL RUN TIME: 0 days 0 hours 0 minutes 34 seconds 609 msec
