                         Program Version 4.2.1 -  RELEASE  -
|  1> ! wB97X-D3 SP def2-SVP
|  2> %pal
|  3> nprocs 16
|  4> end
|  5>
|  6> * xyz 0 1
|  7> S 	 -29.4339 	 54.2283 	 111.366
|  8> C 	 -28.1692 	 54.9496 	 110.477
|  9> C 	 -28.5629 	 55.9504 	 109.572
| 10> C 	 -29.9886 	 56.0349 	 109.546
| 11> C 	 -30.6155 	 55.2129 	 110.441
| 12> H 	 -30.5672 	 56.7344 	 108.92
| 13> C 	 -27.6961 	 56.8327 	 108.678
| 14> H 	 -28.2777 	 57.7829 	 108.492
| 15> H 	 -27.618 	 56.2684 	 107.773
| 16> C 	 -26.4217 	 57.2742 	 109.334
| 17> H 	 -26.6473 	 57.5047 	 110.372
| 18> H 	 -25.8601 	 56.3705 	 109.489
| 19> C 	 -25.6318 	 58.3138 	 108.499
| 20> H 	 -25.5969 	 57.9551 	 107.437
| 21> H 	 -26.0985 	 59.2697 	 108.501
| 22> H 	 -24.5592 	 58.3375 	 108.702
| 23> S 	 -32.9414 	 55.8527 	 111.621
| 24> C 	 -34.2817 	 54.8374 	 111.36
| 25> C 	 -34.1143 	 53.906 	 110.352
| 26> C 	 -32.8001 	 54.032 	 109.789
| 27> C 	 -32.0508 	 54.9678 	 110.509
| 28> H 	 -34.9484 	 53.2024 	 110.082
| 29> C 	 -32.2 	 52.9155 	 108.867
| 30> H 	 -32.6766 	 52.0331 	 109.169
| 31> H 	 -31.1902 	 52.7765 	 109.193
| 32> C 	 -32.3597 	 53.2001 	 107.37
| 33> H 	 -31.8781 	 52.3995 	 106.852
| 34> H 	 -31.8844 	 54.1502 	 107.126
| 35> C 	 -33.8881 	 53.1963 	 107.057
| 36> H 	 -34.4564 	 53.9487 	 107.579
| 37> H 	 -34.2365 	 52.2171 	 107.28
| 38> H 	 -33.8731 	 53.4738 	 105.941
| 39> H 	 -27.1368 	 54.5778 	 110.546
| 40> H 	 -35.2282 	 55.036 	 111.894
| 41> *
| 42>
| 43>                          ****END OF INPUT****

CARTESIAN COORDINATES (ANGSTROEM)
---------------------------------
  S    -29.433900   54.228300  111.366000
  C    -28.169200   54.949600  110.477000
  C    -28.562900   55.950400  109.572000
  C    -29.988600   56.034900  109.546000
  C    -30.615500   55.212900  110.441000
  H    -30.567200   56.734400  108.920000
  C    -27.696100   56.832700  108.678000
  H    -28.277700   57.782900  108.492000
  H    -27.618000   56.268400  107.773000
  C    -26.421700   57.274200  109.334000
  H    -26.647300   57.504700  110.372000
  H    -25.860100   56.370500  109.489000
  C    -25.631800   58.313800  108.499000
  H    -25.596900   57.955100  107.437000
  H    -26.098500   59.269700  108.501000
  H    -24.559200   58.337500  108.702000
  S    -32.941400   55.852700  111.621000
  C    -34.281700   54.837400  111.360000
  C    -34.114300   53.906000  110.352000
  C    -32.800100   54.032000  109.789000
  C    -32.050800   54.967800  110.509000
  H    -34.948400   53.202400  110.082000
  C    -32.200000   52.915500  108.867000
  H    -32.676600   52.033100  109.169000
  H    -31.190200   52.776500  109.193000
  C    -32.359700   53.200100  107.370000
  H    -31.878100   52.399500  106.852000
  H    -31.884400   54.150200  107.126000
  C    -33.888100   53.196300  107.057000
  H    -34.456400   53.948700  107.579000
  H    -34.236500   52.217100  107.280000
  H    -33.873100   53.473800  105.941000
  H    -27.136800   54.577800  110.546000
  H    -35.228200   55.036000  111.894000

 Total Charge           Charge          ....    0
 Multiplicity           Mult            ....    1
 Number of Electrons    NEL             ....  134
 Basis Dimension        Dim             ....  322

ORBITAL ENERGIES
----------------

  NO   OCC          E(Eh)            E(eV)
   0   2.0000     -88.967472     -2420.9280
   1   2.0000     -88.963505     -2420.8200
   2   2.0000     -10.323480      -280.9162
   3   2.0000     -10.314865      -280.6817
   4   2.0000     -10.313872      -280.6547
   5   2.0000     -10.310880      -280.5733
   6   2.0000     -10.300917      -280.3022
   7   2.0000     -10.300460      -280.2898
   8   2.0000     -10.295965      -280.1674
   9   2.0000     -10.293150      -280.0909
  10   2.0000     -10.292453      -280.0719
  11   2.0000     -10.283392      -279.8253
  12   2.0000     -10.282854      -279.8107
  13   2.0000     -10.280791      -279.7545
  14   2.0000     -10.279713      -279.7252
  15   2.0000     -10.277031      -279.6522
  16   2.0000      -8.082007      -219.9226
  17   2.0000      -8.080721      -219.8876
  18   2.0000      -6.040455      -164.3691
  19   2.0000      -6.038779      -164.3235
  20   2.0000      -6.036561      -164.2632
  21   2.0000      -6.034855      -164.2167
  22   2.0000      -6.032842      -164.1620
  23   2.0000      -6.031836      -164.1346
  24   2.0000      -1.011740       -27.5308
  25   2.0000      -0.986511       -26.8443
  26   2.0000      -0.914343       -24.8805
  27   2.0000      -0.906213       -24.6593
  28   2.0000      -0.866422       -23.5765
  29   2.0000      -0.851056       -23.1584
  30   2.0000      -0.845917       -23.0186
  31   2.0000      -0.809284       -22.0217
  32   2.0000      -0.780473       -21.2378
  33   2.0000      -0.766065       -20.8457
  34   2.0000      -0.712196       -19.3798
  35   2.0000      -0.699763       -19.0415
  36   2.0000      -0.682629       -18.5753
  37   2.0000      -0.656634       -17.8679
  38   2.0000      -0.641927       -17.4677
  39   2.0000      -0.611348       -16.6356
  40   2.0000      -0.591804       -16.1038
  41   2.0000      -0.574932       -15.6447
  42   2.0000      -0.562436       -15.3047
  43   2.0000      -0.549592       -14.9552
  44   2.0000      -0.539830       -14.6895
  45   2.0000      -0.521196       -14.1825
  46   2.0000      -0.513923       -13.9846
  47   2.0000      -0.511617       -13.9218
  48   2.0000      -0.505693       -13.7606
  49   2.0000      -0.486831       -13.2473
  50   2.0000      -0.482293       -13.1239
  51   2.0000      -0.479670       -13.0525
  52   2.0000      -0.477296       -12.9879
  53   2.0000      -0.469506       -12.7759
  54   2.0000      -0.456865       -12.4319
  55   2.0000      -0.452159       -12.3039
  56   2.0000      -0.446351       -12.1458
  57   2.0000      -0.435707       -11.8562
  58   2.0000      -0.431410       -11.7393
  59   2.0000      -0.427688       -11.6380
  60   2.0000      -0.417554       -11.3622
  61   2.0000      -0.413609       -11.2549
  62   2.0000      -0.409479       -11.1425
  63   2.0000      -0.338933        -9.2228
  64   2.0000      -0.333237        -9.0678
  65   2.0000      -0.313238        -8.5236
  66   2.0000      -0.306467        -8.3394
  67   0.0000       0.051594         1.4039
  68   0.0000       0.054257         1.4764
  69   0.0000       0.113836         3.0976
  70   0.0000       0.123026         3.3477
  71   0.0000       0.132869         3.6156

MULLIKEN ATOMIC CHARGES
-----------------------
   0 S :    0.124969
   1 C :   -0.150050
   2 C :   -0.104722
   3 C :    0.038807
   4 C :   -0.167943
   5 H :    0.022286
   6 C :    0.070966
   7 H :    0.030265
   8 H :    0.041745
   9 C :   -0.079658
  10 H :    0.030002
  11 H :    0.012601
  12 C :   -0.025313
  13 H :    0.024525
  14 H :    0.040303
  15 H :    0.035739
  16 S :    0.143086
  17 C :   -0.117283
  18 C :   -0.057567
  19 C :   -0.020531
  20 C :   -0.218423
  21 H :    0.042524
  22 C :    0.082977
  23 H :    0.003153
  24 H :    0.013281
  25 C :   -0.037389
  26 H :    0.026106
  27 H :    0.031954
  28 C :   -0.070833
  29 H :    0.046240
  30 H :    0.025867
  31 H :    0.044692
  32 H :    0.057453
  33 H :    0.060172
Sum of atomic charges:    0.0000000

LOEWDIN ATOMIC CHARGES
----------------------
   0 S :    0.408489
   1 C :   -0.217275
   2 C :   -0.065670
   3 C :   -0.055605
   4 C :   -0.192036
   5 H :    0.037409
   6 C :   -0.030515
   7 H :    0.034778
   8 H :    0.031266
   9 C :   -0.047744
  10 H :    0.026742
  11 H :    0.018910
  12 C :   -0.064409
  13 H :    0.032588
  14 H :    0.022609
  15 H :    0.029633
  16 S :    0.461550
  17 C :   -0.209006
  18 C :   -0.081368
  19 C :   -0.050004
  20 C :   -0.235648
  21 H :    0.042388
  22 C :   -0.022045
  23 H :    0.019194
  24 H :    0.021253
  25 C :   -0.030972
  26 H :    0.020749
  27 H :    0.023419
  28 C :   -0.062365
  29 H :    0.022614
  30 H :    0.018015
  31 H :    0.036270
  32 H :    0.028347
  33 H :    0.028438

  Mayer bond orders larger than 0.100000
B(  0-S ,  1-C ) :   1.1582 B(  0-S ,  4-C ) :   1.1298 B(  1-C ,  2-C ) :   1.6000
B(  1-C , 32-H ) :   0.9623 B(  2-C ,  3-C ) :   1.2497 B(  2-C ,  6-C ) :   1.0011
B(  3-C ,  4-C ) :   1.6158 B(  3-C ,  5-H ) :   0.9873 B(  4-C , 20-C ) :   0.9939
B(  6-C ,  7-H ) :   0.9510 B(  6-C ,  8-H ) :   0.9272 B(  6-C ,  9-C ) :   1.0690
B(  9-C , 10-H ) :   0.9617 B(  9-C , 11-H ) :   0.9456 B(  9-C , 12-C ) :   1.0735
B( 12-C , 13-H ) :   0.9703 B( 12-C , 14-H ) :   0.9782 B( 12-C , 15-H ) :   0.9739
B( 16-S , 17-C ) :   1.1791 B( 16-S , 20-C ) :   1.1922 B( 17-C , 18-C ) :   1.5931
B( 17-C , 33-H ) :   0.9641 B( 18-C , 19-C ) :   1.2480 B( 18-C , 21-H ) :   0.9821
B( 19-C , 20-C ) :   1.5805 B( 19-C , 22-C ) :   1.0115 B( 22-C , 23-H ) :   0.9477
B( 22-C , 24-H ) :   0.9344 B( 22-C , 25-C ) :   1.0705 B( 25-C , 26-H ) :   0.9557
B( 25-C , 27-H ) :   0.9574 B( 25-C , 28-C ) :   1.0666 B( 28-C , 29-H ) :   0.9745
B( 28-C , 30-H ) :   0.9776 B( 28-C , 31-H ) :   0.9755

Dispersion correction           -0.014540566
FINAL SINGLE POINT ENERGY     -1339.874128234332

DIPOLE MOMENT
-------------
                                X             Y             Z
Electronic contribution:     -9.71545      -2.06740      20.95355
Nuclear contribution   :      9.89471       2.02764     -21.40231
                        -----------------------------------------
Total Dipole Moment    :      0.17926      -0.03976      -0.44877
                        -----------------------------------------
Magnitude (a.u.)       :      0.48488
Magnitude (Debye)      :      1.23246

Rotational constants in cm-1:     0.022197     0.007331     0.006472
Rotational constants in MHz :   665.444264   219.783750   194.033715

                             ****ORCA TERMINATED NORMALLY****
TOTAL RUN TIME: 0 days 0 hours 0 minutes 29 seconds 848 msec
