                         Program Version 4.2.1 -  RELEASE  -
|  1> ! wB97X-D3 SP def2-SVP
|  2> %pal
|  3> nprocs 16
|  4> end
|  5>
|  6> * xyz 0 1
|  7> S 	 -3.62871 	 -13.8671 	 84.9917
|  8> C 	 -3.61368 	 -15.4344 	 85.6872
|  9> C 	 -4.59666 	 -16.266 	 85.143
| 10> C 	 -5.26803 	 -15.6103 	 84.0437
| 11> C 	 -4.81331 	 -14.3007 	 83.8016
| 12> H 	 -6.0723 	 -15.9716 	 83.3984
| 13> C 	 -4.9031 	 -17.6861 	 85.5153
| 14> H 	 -5.43617 	 -18.1688 	 84.6875
| 15> H 	 -5.50654 	 -17.7522 	 86.4168
| 16> C 	 -3.72415 	 -18.5075 	 85.5735
| 17> H 	 -3.12982 	 -18.3763 	 84.654
| 18> H 	 -3.03884 	 -18.3006 	 86.3586
| 19> C 	 -4.00229 	 -20.0167 	 85.8213
| 20> H 	 -4.61577 	 -20.2457 	 86.6548
| 21> H 	 -4.43775 	 -20.4059 	 84.8245
| 22> H 	 -3.01335 	 -20.4278 	 86.0596
| 23> S 	 -3.80554 	 -12.7878 	 81.9526
| 24> C 	 -4.79271 	 -11.9398 	 80.7651
| 25> C 	 -6.17382 	 -12.1217 	 80.9432
| 26> C 	 -6.38431 	 -13.0108 	 82.0576
| 27> C 	 -5.19975 	 -13.3166 	 82.7842
| 28> H 	 -6.7586 	 -11.6532 	 80.1756
| 29> C 	 -7.75793 	 -13.5415 	 82.3675
| 30> H 	 -8.48026 	 -12.7408 	 82.186
| 31> H 	 -7.71901 	 -13.7343 	 83.4963
| 32> C 	 -8.244 	 -14.8612 	 81.653
| 33> H 	 -7.50834 	 -15.5271 	 81.5285
| 34> H 	 -8.57227 	 -14.7199 	 80.6158
| 35> C 	 -9.45158 	 -15.2665 	 82.301
| 36> H 	 -9.19221 	 -15.5516 	 83.3474
| 37> H 	 -9.8681 	 -16.1591 	 81.8743
| 38> H 	 -10.2446 	 -14.492 	 82.4293
| 39> H 	 -3.0727 	 -15.7095 	 86.5908
| 40> H 	 -4.40743 	 -11.2796 	 79.9828
| 41> *
| 42>
| 43>                          ****END OF INPUT****

CARTESIAN COORDINATES (ANGSTROEM)
---------------------------------
  S     -3.628710  -13.867100   84.991700
  C     -3.613680  -15.434400   85.687200
  C     -4.596660  -16.266000   85.143000
  C     -5.268030  -15.610300   84.043700
  C     -4.813310  -14.300700   83.801600
  H     -6.072300  -15.971600   83.398400
  C     -4.903100  -17.686100   85.515300
  H     -5.436170  -18.168800   84.687500
  H     -5.506540  -17.752200   86.416800
  C     -3.724150  -18.507500   85.573500
  H     -3.129820  -18.376300   84.654000
  H     -3.038840  -18.300600   86.358600
  C     -4.002290  -20.016700   85.821300
  H     -4.615770  -20.245700   86.654800
  H     -4.437750  -20.405900   84.824500
  H     -3.013350  -20.427800   86.059600
  S     -3.805540  -12.787800   81.952600
  C     -4.792710  -11.939800   80.765100
  C     -6.173820  -12.121700   80.943200
  C     -6.384310  -13.010800   82.057600
  C     -5.199750  -13.316600   82.784200
  H     -6.758600  -11.653200   80.175600
  C     -7.757930  -13.541500   82.367500
  H     -8.480260  -12.740800   82.186000
  H     -7.719010  -13.734300   83.496300
  C     -8.244000  -14.861200   81.653000
  H     -7.508340  -15.527100   81.528500
  H     -8.572270  -14.719900   80.615800
  C     -9.451580  -15.266500   82.301000
  H     -9.192210  -15.551600   83.347400
  H     -9.868100  -16.159100   81.874300
  H    -10.244600  -14.492000   82.429300
  H     -3.072700  -15.709500   86.590800
  H     -4.407430  -11.279600   79.982800

 Total Charge           Charge          ....    0
 Multiplicity           Mult            ....    1
 Number of Electrons    NEL             ....  134
 Basis Dimension        Dim             ....  322

ORBITAL ENERGIES
----------------

  NO   OCC          E(Eh)            E(eV)
   0   2.0000     -88.967277     -2420.9227
   1   2.0000     -88.966131     -2420.8915
   2   2.0000     -10.330613      -281.1103
   3   2.0000     -10.326536      -280.9993
   4   2.0000     -10.318009      -280.7673
   5   2.0000     -10.312561      -280.6190
   6   2.0000     -10.310780      -280.5706
   7   2.0000     -10.302962      -280.3578
   8   2.0000     -10.297708      -280.2149
   9   2.0000     -10.297084      -280.1979
  10   2.0000     -10.296373      -280.1785
  11   2.0000     -10.285160      -279.8734
  12   2.0000     -10.282160      -279.7918
  13   2.0000     -10.276276      -279.6317
  14   2.0000     -10.276249      -279.6309
  15   2.0000     -10.274462      -279.5823
  16   2.0000      -8.082710      -219.9417
  17   2.0000      -8.081338      -219.9044
  18   2.0000      -6.041053      -164.3854
  19   2.0000      -6.039782      -164.3508
  20   2.0000      -6.037062      -164.2768
  21   2.0000      -6.035627      -164.2378
  22   2.0000      -6.033643      -164.1838
  23   2.0000      -6.032259      -164.1461
  24   2.0000      -1.009350       -27.4658
  25   2.0000      -0.983710       -26.7681
  26   2.0000      -0.926807       -25.2197
  27   2.0000      -0.919164       -25.0117
  28   2.0000      -0.872237       -23.7348
  29   2.0000      -0.856507       -23.3067
  30   2.0000      -0.847715       -23.0675
  31   2.0000      -0.813973       -22.1493
  32   2.0000      -0.781576       -21.2678
  33   2.0000      -0.762890       -20.7593
  34   2.0000      -0.709759       -19.3135
  35   2.0000      -0.700073       -19.0500
  36   2.0000      -0.690750       -18.7963
  37   2.0000      -0.665530       -18.1100
  38   2.0000      -0.640772       -17.4363
  39   2.0000      -0.615970       -16.7614
  40   2.0000      -0.594112       -16.1666
  41   2.0000      -0.584159       -15.8958
  42   2.0000      -0.573864       -15.6156
  43   2.0000      -0.564314       -15.3558
  44   2.0000      -0.528399       -14.3785
  45   2.0000      -0.525191       -14.2912
  46   2.0000      -0.523034       -14.2325
  47   2.0000      -0.515590       -14.0299
  48   2.0000      -0.505852       -13.7649
  49   2.0000      -0.499304       -13.5868
  50   2.0000      -0.494861       -13.4659
  51   2.0000      -0.483774       -13.1641
  52   2.0000      -0.477812       -13.0019
  53   2.0000      -0.463719       -12.6184
  54   2.0000      -0.457444       -12.4477
  55   2.0000      -0.445350       -12.1186
  56   2.0000      -0.444074       -12.0839
  57   2.0000      -0.438818       -11.9408
  58   2.0000      -0.430181       -11.7058
  59   2.0000      -0.423916       -11.5353
  60   2.0000      -0.422336       -11.4924
  61   2.0000      -0.407531       -11.0895
  62   2.0000      -0.406969       -11.0742
  63   2.0000      -0.350511        -9.5379
  64   2.0000      -0.330239        -8.9863
  65   2.0000      -0.325269        -8.8510
  66   2.0000      -0.288496        -7.8504
  67   0.0000       0.028982         0.7886
  68   0.0000       0.070434         1.9166
  69   0.0000       0.113838         3.0977
  70   0.0000       0.116715         3.1760
  71   0.0000       0.126081         3.4309

MULLIKEN ATOMIC CHARGES
-----------------------
   0 S :    0.126204
   1 C :   -0.115958
   2 C :   -0.105637
   3 C :    0.029456
   4 C :   -0.170682
   5 H :    0.001876
   6 C :    0.131037
   7 H :    0.013062
   8 H :    0.035709
   9 C :   -0.127056
  10 H :    0.036095
  11 H :    0.010354
  12 C :   -0.052711
  13 H :    0.028267
  14 H :    0.044167
  15 H :    0.033580
  16 S :    0.109708
  17 C :   -0.113705
  18 C :   -0.021552
  19 C :   -0.045592
  20 C :   -0.105733
  21 H :    0.021451
  22 C :   -0.012986
  23 H :    0.029247
  24 H :    0.043467
  25 C :    0.012817
  26 H :   -0.001320
  27 H :    0.015469
  28 C :   -0.036327
  29 H :    0.013352
  30 H :    0.025242
  31 H :    0.036639
  32 H :    0.053933
  33 H :    0.058125
Sum of atomic charges:   -0.0000000

LOEWDIN ATOMIC CHARGES
----------------------
   0 S :    0.433978
   1 C :   -0.214538
   2 C :   -0.058846
   3 C :   -0.069740
   4 C :   -0.208001
   5 H :    0.030945
   6 C :   -0.036759
   7 H :    0.034755
   8 H :    0.033541
   9 C :   -0.047736
  10 H :    0.030670
  11 H :    0.012089
  12 C :   -0.062501
  13 H :    0.017321
  14 H :    0.032310
  15 H :    0.028952
  16 S :    0.431186
  17 C :   -0.185837
  18 C :   -0.068986
  19 C :   -0.056362
  20 C :   -0.220242
  21 H :    0.036213
  22 C :   -0.034702
  23 H :    0.031569
  24 H :    0.039888
  25 C :   -0.035921
  26 H :    0.005527
  27 H :    0.029747
  28 C :   -0.063963
  29 H :    0.022476
  30 H :    0.022238
  31 H :    0.031842
  32 H :    0.030807
  33 H :    0.028082

  Mayer bond orders larger than 0.100000
B(  0-S ,  1-C ) :   1.1542 B(  0-S ,  4-C ) :   1.1749 B(  1-C ,  2-C ) :   1.5832
B(  1-C , 32-H ) :   0.9670 B(  2-C ,  3-C ) :   1.2593 B(  2-C ,  6-C ) :   1.0212
B(  3-C ,  4-C ) :   1.5552 B(  3-C ,  5-H ) :   0.9939 B(  4-C , 20-C ) :   0.9995
B(  6-C ,  7-H ) :   0.9420 B(  6-C ,  8-H ) :   0.9214 B(  6-C ,  9-C ) :   1.0814
B(  9-C , 10-H ) :   0.9552 B(  9-C , 11-H ) :   0.9488 B(  9-C , 12-C ) :   1.0838
B( 12-C , 13-H ) :   0.9743 B( 12-C , 14-H ) :   0.9754 B( 12-C , 15-H ) :   0.9766
B( 16-S , 17-C ) :   1.1719 B( 16-S , 20-C ) :   1.1569 B( 17-C , 18-C ) :   1.6055
B( 17-C , 20-C ) :   0.1006 B( 17-C , 33-H ) :   0.9624 B( 18-C , 19-C ) :   1.2268
B( 18-C , 21-H ) :   0.9990 B( 19-C , 20-C ) :   1.5705 B( 19-C , 22-C ) :   1.0498
B( 22-C , 23-H ) :   0.9347 B( 22-C , 24-H ) :   0.9475 B( 22-C , 25-C ) :   1.0482
B( 25-C , 26-H ) :   0.9509 B( 25-C , 27-H ) :   0.9387 B( 25-C , 28-C ) :   1.0971
B( 28-C , 29-H ) :   0.9682 B( 28-C , 30-H ) :   0.9673 B( 28-C , 31-H ) :   0.9676

Dispersion correction           -0.013789822
FINAL SINGLE POINT ENERGY     -1339.849194544516

DIPOLE MOMENT
-------------
                                X             Y             Z
Electronic contribution:     16.32667      23.85383      -2.69301
Nuclear contribution   :    -16.74150     -24.25390       2.54523
                        -----------------------------------------
Total Dipole Moment    :     -0.41483      -0.40007      -0.14778
                        -----------------------------------------
Magnitude (a.u.)       :      0.59496
Magnitude (Debye)      :      1.51227

Rotational constants in cm-1:     0.018565     0.008401     0.006352
Rotational constants in MHz :   556.557103   251.853956   190.439158

                             ****ORCA TERMINATED NORMALLY****
TOTAL RUN TIME: 0 days 0 hours 0 minutes 33 seconds 370 msec
