                         Program Version 4.2.1 -  RELEASE  -
|  1> ! wB97X-D3 SP def2-SVP
|  2> %pal
|  3> nprocs 16
|  4> end
|  5>
|  6> * xyz 0 1
|  7> S 	 -2.42573 	 -14.9487 	 71.6086
|  8> C 	 -4.12888 	 -15.4699 	 71.8507
|  9> C 	 -5.00475 	 -14.4718 	 71.4452
| 10> C 	 -4.31546 	 -13.3754 	 70.9106
| 11> C 	 -2.92764 	 -13.4947 	 70.8766
| 12> H 	 -4.82057 	 -12.5577 	 70.5454
| 13> C 	 -6.53015 	 -14.6771 	 71.49
| 14> H 	 -6.91779 	 -13.9593 	 72.1957
| 15> H 	 -6.72386 	 -15.5879 	 72.1132
| 16> C 	 -7.34275 	 -14.6372 	 70.1599
| 17> H 	 -7.24316 	 -13.6659 	 69.8249
| 18> H 	 -6.83772 	 -15.197 	 69.3986
| 19> C 	 -8.78622 	 -15.1611 	 70.1272
| 20> H 	 -9.36117 	 -14.5781 	 70.9076
| 21> H 	 -9.21279 	 -15.1047 	 69.1536
| 22> H 	 -8.80646 	 -16.2005 	 70.5051
| 23> S 	 -0.823718 	 -11.8031 	 71.5011
| 24> C 	 -0.0715685 	 -10.7422 	 70.2886
| 25> C 	 -0.977864 	 -10.6309 	 69.255
| 26> C 	 -2.03956 	 -11.596 	 69.2556
| 27> C 	 -1.96888 	 -12.5173 	 70.3518
| 28> H 	 -0.717374 	 -9.90694 	 68.5558
| 29> C 	 -2.93661 	 -11.7082 	 68.0191
| 30> H 	 -2.73654 	 -10.7767 	 67.447
| 31> H 	 -3.96251 	 -11.7265 	 68.3117
| 32> C 	 -2.81272 	 -13.067 	 67.2746
| 33> H 	 -2.73863 	 -13.7856 	 68.0537
| 34> H 	 -1.81045 	 -13.0182 	 66.8511
| 35> C 	 -3.94173 	 -13.412 	 66.3607
| 36> H 	 -3.91625 	 -12.7599 	 65.4534
| 37> H 	 -4.87851 	 -13.5068 	 66.8298
| 38> H 	 -3.8049 	 -14.4316 	 65.9984
| 39> H 	 -4.42742 	 -16.4953 	 72.0934
| 40> H 	 0.700045 	 -10.0897 	 70.6556
| 41> *
| 42>
| 43>                          ****END OF INPUT****

CARTESIAN COORDINATES (ANGSTROEM)
---------------------------------
  S     -2.425730  -14.948700   71.608600
  C     -4.128880  -15.469900   71.850700
  C     -5.004750  -14.471800   71.445200
  C     -4.315460  -13.375400   70.910600
  C     -2.927640  -13.494700   70.876600
  H     -4.820570  -12.557700   70.545400
  C     -6.530150  -14.677100   71.490000
  H     -6.917790  -13.959300   72.195700
  H     -6.723860  -15.587900   72.113200
  C     -7.342750  -14.637200   70.159900
  H     -7.243160  -13.665900   69.824900
  H     -6.837720  -15.197000   69.398600
  C     -8.786220  -15.161100   70.127200
  H     -9.361170  -14.578100   70.907600
  H     -9.212790  -15.104700   69.153600
  H     -8.806460  -16.200500   70.505100
  S     -0.823718  -11.803100   71.501100
  C     -0.071568  -10.742200   70.288600
  C     -0.977864  -10.630900   69.255000
  C     -2.039560  -11.596000   69.255600
  C     -1.968880  -12.517300   70.351800
  H     -0.717374   -9.906940   68.555800
  C     -2.936610  -11.708200   68.019100
  H     -2.736540  -10.776700   67.447000
  H     -3.962510  -11.726500   68.311700
  C     -2.812720  -13.067000   67.274600
  H     -2.738630  -13.785600   68.053700
  H     -1.810450  -13.018200   66.851100
  C     -3.941730  -13.412000   66.360700
  H     -3.916250  -12.759900   65.453400
  H     -4.878510  -13.506800   66.829800
  H     -3.804900  -14.431600   65.998400
  H     -4.427420  -16.495300   72.093400
  H      0.700045  -10.089700   70.655600

 Total Charge           Charge          ....    0
 Multiplicity           Mult            ....    1
 Number of Electrons    NEL             ....  134
 Basis Dimension        Dim             ....  322

ORBITAL ENERGIES
----------------

  NO   OCC          E(Eh)            E(eV)
   0   2.0000     -88.969783     -2420.9909
   1   2.0000     -88.958283     -2420.6780
   2   2.0000     -10.334253      -281.2093
   3   2.0000     -10.332674      -281.1663
   4   2.0000     -10.319376      -280.8045
   5   2.0000     -10.319108      -280.7972
   6   2.0000     -10.311617      -280.5934
   7   2.0000     -10.304702      -280.4052
   8   2.0000     -10.300441      -280.2893
   9   2.0000     -10.294300      -280.1221
  10   2.0000     -10.289395      -279.9887
  11   2.0000     -10.289002      -279.9780
  12   2.0000     -10.287401      -279.9344
  13   2.0000     -10.284208      -279.8475
  14   2.0000     -10.277942      -279.6770
  15   2.0000     -10.275074      -279.5990
  16   2.0000      -8.084470      -219.9896
  17   2.0000      -8.072791      -219.6718
  18   2.0000      -6.042864      -164.4347
  19   2.0000      -6.038869      -164.3260
  20   2.0000      -6.035447      -164.2329
  21   2.0000      -6.031200      -164.1173
  22   2.0000      -6.027407      -164.0141
  23   2.0000      -6.023568      -163.9096
  24   2.0000      -1.006390       -27.3853
  25   2.0000      -0.981565       -26.7097
  26   2.0000      -0.910581       -24.7782
  27   2.0000      -0.908091       -24.7104
  28   2.0000      -0.872066       -23.7301
  29   2.0000      -0.851108       -23.1598
  30   2.0000      -0.846428       -23.0325
  31   2.0000      -0.816436       -22.2164
  32   2.0000      -0.785423       -21.3724
  33   2.0000      -0.771817       -21.0022
  34   2.0000      -0.715388       -19.4667
  35   2.0000      -0.703346       -19.1390
  36   2.0000      -0.690477       -18.7888
  37   2.0000      -0.662495       -18.0274
  38   2.0000      -0.641854       -17.4657
  39   2.0000      -0.628109       -17.0917
  40   2.0000      -0.595768       -16.2117
  41   2.0000      -0.573438       -15.6040
  42   2.0000      -0.568342       -15.4654
  43   2.0000      -0.557089       -15.1592
  44   2.0000      -0.537771       -14.6335
  45   2.0000      -0.519902       -14.1473
  46   2.0000      -0.518424       -14.1070
  47   2.0000      -0.510477       -13.8908
  48   2.0000      -0.508741       -13.8435
  49   2.0000      -0.496624       -13.5138
  50   2.0000      -0.494678       -13.4609
  51   2.0000      -0.491343       -13.3701
  52   2.0000      -0.473105       -12.8738
  53   2.0000      -0.469244       -12.7688
  54   2.0000      -0.461010       -12.5447
  55   2.0000      -0.448481       -12.2038
  56   2.0000      -0.441412       -12.0114
  57   2.0000      -0.436502       -11.8778
  58   2.0000      -0.434221       -11.8158
  59   2.0000      -0.426196       -11.5974
  60   2.0000      -0.416983       -11.3467
  61   2.0000      -0.412607       -11.2276
  62   2.0000      -0.408969       -11.1286
  63   2.0000      -0.345502        -9.4016
  64   2.0000      -0.338199        -9.2029
  65   2.0000      -0.321327        -8.7437
  66   2.0000      -0.292605        -7.9622
  67   0.0000       0.017741         0.4828
  68   0.0000       0.063400         1.7252
  69   0.0000       0.106380         2.8947
  70   0.0000       0.117485         3.1969
  71   0.0000       0.131596         3.5809

MULLIKEN ATOMIC CHARGES
-----------------------
   0 S :    0.119339
   1 C :   -0.141979
   2 C :   -0.080520
   3 C :    0.051688
   4 C :   -0.155810
   5 H :   -0.026485
   6 C :    0.064315
   7 H :    0.028102
   8 H :    0.009845
   9 C :   -0.039983
  10 H :    0.009708
  11 H :    0.021103
  12 C :   -0.054226
  13 H :    0.034380
  14 H :    0.044853
  15 H :    0.036367
  16 S :    0.069887
  17 C :   -0.094432
  18 C :   -0.021965
  19 C :   -0.042218
  20 C :   -0.125409
  21 H :    0.002873
  22 C :    0.081233
  23 H :    0.026672
  24 H :   -0.000853
  25 C :   -0.068657
  26 H :    0.025145
  27 H :    0.025189
  28 C :   -0.009802
  29 H :    0.040919
  30 H :    0.020941
  31 H :    0.024427
  32 H :    0.058121
  33 H :    0.067232
Sum of atomic charges:    0.0000000

LOEWDIN ATOMIC CHARGES
----------------------
   0 S :    0.419906
   1 C :   -0.187308
   2 C :   -0.058188
   3 C :   -0.057435
   4 C :   -0.211307
   5 H :    0.015853
   6 C :   -0.032489
   7 H :    0.030894
   8 H :    0.031085
   9 C :   -0.039658
  10 H :    0.012573
  11 H :    0.022414
  12 C :   -0.060638
  13 H :    0.029653
  14 H :    0.026090
  15 H :    0.029096
  16 S :    0.383334
  17 C :   -0.169255
  18 C :   -0.067976
  19 C :   -0.051939
  20 C :   -0.195537
  21 H :    0.022887
  22 C :   -0.031694
  23 H :    0.030549
  24 H :    0.019546
  25 C :   -0.037402
  26 H :    0.022483
  27 H :    0.025638
  28 C :   -0.063932
  29 H :    0.032164
  30 H :    0.020099
  31 H :    0.031615
  32 H :    0.031102
  33 H :    0.027776

  Mayer bond orders larger than 0.100000
B(  0-S ,  1-C ) :   1.1419 B(  0-S ,  4-C ) :   1.1746 B(  1-C ,  2-C ) :   1.5909
B(  1-C ,  4-C ) :   0.1027 B(  1-C , 32-H ) :   0.9646 B(  2-C ,  3-C ) :   1.2786
B(  2-C ,  6-C ) :   1.0230 B(  3-C ,  4-C ) :   1.5217 B(  3-C ,  5-H ) :   1.0150
B(  4-C , 20-C ) :   1.0293 B(  6-C ,  7-H ) :   0.9318 B(  6-C ,  8-H ) :   0.9419
B(  6-C ,  9-C ) :   1.0401 B(  9-C , 10-H ) :   0.9520 B(  9-C , 11-H ) :   0.9587
B(  9-C , 12-C ) :   1.0880 B( 12-C , 13-H ) :   0.9767 B( 12-C , 14-H ) :   0.9742
B( 12-C , 15-H ) :   0.9748 B( 16-S , 17-C ) :   1.1575 B( 16-S , 20-C ) :   1.1607
B( 17-C , 18-C ) :   1.5783 B( 17-C , 20-C ) :   0.1162 B( 17-C , 33-H ) :   0.9712
B( 18-C , 19-C ) :   1.2534 B( 18-C , 21-H ) :   1.0034 B( 19-C , 20-C ) :   1.5322
B( 19-C , 22-C ) :   1.0538 B( 22-C , 23-H ) :   0.9396 B( 22-C , 24-H ) :   0.9243
B( 22-C , 25-C ) :   1.0518 B( 25-C , 26-H ) :   0.9532 B( 25-C , 27-H ) :   0.9535
B( 25-C , 28-C ) :   1.0978 B( 28-C , 29-H ) :   0.9739 B( 28-C , 30-H ) :   0.9664
B( 28-C , 31-H ) :   0.9660

Dispersion correction           -0.014364376
FINAL SINGLE POINT ENERGY     -1339.853764191029

DIPOLE MOMENT
-------------
                                X             Y             Z
Electronic contribution:     25.64776       4.22194      17.62535
Nuclear contribution   :    -26.27611      -4.10559     -18.05459
                        -----------------------------------------
Total Dipole Moment    :     -0.62836       0.11636      -0.42924
                        -----------------------------------------
Magnitude (a.u.)       :      0.76981
Magnitude (Debye)      :      1.95671

Rotational constants in cm-1:     0.018924     0.008645     0.006759
Rotational constants in MHz :   567.326783   259.172170   202.617628

                             ****ORCA TERMINATED NORMALLY****
TOTAL RUN TIME: 0 days 0 hours 0 minutes 34 seconds 885 msec
