                         Program Version 4.2.1 -  RELEASE  -
|  1> ! wB97X-D3 SP def2-SVP
|  2> %pal
|  3> nprocs 16
|  4> end
|  5>
|  6> * xyz 0 1
|  7> S 	 29.0616 	 25.3264 	 51.9807
|  8> C 	 29.1329 	 26.2059 	 50.4775
|  9> C 	 29.5562 	 27.4836 	 50.6222
| 10> C 	 29.7906 	 27.8048 	 52.0276
| 11> C 	 29.6956 	 26.6967 	 52.8852
| 12> H 	 30.0285 	 28.7535 	 52.4702
| 13> C 	 29.5977 	 28.5798 	 49.6141
| 14> H 	 28.6038 	 28.5935 	 49.1957
| 15> H 	 30.1932 	 28.2463 	 48.7415
| 16> C 	 30.0512 	 29.9907 	 50.0186
| 17> H 	 29.4115 	 30.2509 	 50.9011
| 18> H 	 31.0929 	 30.0744 	 50.2647
| 19> C 	 29.7244 	 31.105 	 49.0042
| 20> H 	 30.0728 	 32.029 	 49.3948
| 21> H 	 30.1979 	 31.0253 	 48.019
| 22> H 	 28.6538 	 31.2329 	 48.8999
| 23> S 	 31.3591 	 27.7714 	 54.7835
| 24> C 	 31.1426 	 27.4714 	 56.477
| 25> C 	 30.0527 	 26.7068 	 56.7311
| 26> C 	 29.307 	 26.3332 	 55.4915
| 27> C 	 29.9774 	 26.7162 	 54.3056
| 28> H 	 29.7653 	 26.4455 	 57.6927
| 29> C 	 28.0367 	 25.5948 	 55.6174
| 30> H 	 27.5108 	 25.5069 	 54.6269
| 31> H 	 27.3683 	 26.2117 	 56.2132
| 32> C 	 28.2647 	 24.2172 	 56.185
| 33> H 	 28.801 	 24.3016 	 57.0997
| 34> H 	 28.9889 	 23.8362 	 55.5023
| 35> C 	 27.0067 	 23.287 	 56.2411
| 36> H 	 26.6244 	 23.1251 	 55.2583
| 37> H 	 26.1492 	 23.7416 	 56.8601
| 38> H 	 27.2371 	 22.3274 	 56.7915
| 39> H 	 28.9764 	 25.7122 	 49.5165
| 40> H 	 31.6696 	 27.8908 	 57.3647
| 41> *
| 42>
| 43>                          ****END OF INPUT****

CARTESIAN COORDINATES (ANGSTROEM)
---------------------------------
  S     29.061600   25.326400   51.980700
  C     29.132900   26.205900   50.477500
  C     29.556200   27.483600   50.622200
  C     29.790600   27.804800   52.027600
  C     29.695600   26.696700   52.885200
  H     30.028500   28.753500   52.470200
  C     29.597700   28.579800   49.614100
  H     28.603800   28.593500   49.195700
  H     30.193200   28.246300   48.741500
  C     30.051200   29.990700   50.018600
  H     29.411500   30.250900   50.901100
  H     31.092900   30.074400   50.264700
  C     29.724400   31.105000   49.004200
  H     30.072800   32.029000   49.394800
  H     30.197900   31.025300   48.019000
  H     28.653800   31.232900   48.899900
  S     31.359100   27.771400   54.783500
  C     31.142600   27.471400   56.477000
  C     30.052700   26.706800   56.731100
  C     29.307000   26.333200   55.491500
  C     29.977400   26.716200   54.305600
  H     29.765300   26.445500   57.692700
  C     28.036700   25.594800   55.617400
  H     27.510800   25.506900   54.626900
  H     27.368300   26.211700   56.213200
  C     28.264700   24.217200   56.185000
  H     28.801000   24.301600   57.099700
  H     28.988900   23.836200   55.502300
  C     27.006700   23.287000   56.241100
  H     26.624400   23.125100   55.258300
  H     26.149200   23.741600   56.860100
  H     27.237100   22.327400   56.791500
  H     28.976400   25.712200   49.516500
  H     31.669600   27.890800   57.364700

 Total Charge           Charge          ....    0
 Multiplicity           Mult            ....    1
 Number of Electrons    NEL             ....  134
 Basis Dimension        Dim             ....  322

ORBITAL ENERGIES
----------------

  NO   OCC          E(Eh)            E(eV)
   0   2.0000     -88.967423     -2420.9267
   1   2.0000     -88.963040     -2420.8074
   2   2.0000     -10.334024      -281.2031
   3   2.0000     -10.332941      -281.1736
   4   2.0000     -10.318530      -280.7815
   5   2.0000     -10.311822      -280.5989
   6   2.0000     -10.309867      -280.5458
   7   2.0000     -10.302183      -280.3366
   8   2.0000     -10.294428      -280.1256
   9   2.0000     -10.292125      -280.0630
  10   2.0000     -10.291778      -280.0535
  11   2.0000     -10.291096      -280.0350
  12   2.0000     -10.287511      -279.9374
  13   2.0000     -10.287048      -279.9248
  14   2.0000     -10.279918      -279.7308
  15   2.0000     -10.277148      -279.6554
  16   2.0000      -8.081818      -219.9174
  17   2.0000      -8.077226      -219.7925
  18   2.0000      -6.040485      -164.3700
  19   2.0000      -6.036368      -164.2579
  20   2.0000      -6.036072      -164.2499
  21   2.0000      -6.032454      -164.1514
  22   2.0000      -6.031794      -164.1335
  23   2.0000      -6.027657      -164.0209
  24   2.0000      -1.001938       -27.2641
  25   2.0000      -0.980757       -26.6877
  26   2.0000      -0.913851       -24.8671
  27   2.0000      -0.912852       -24.8400
  28   2.0000      -0.875017       -23.8104
  29   2.0000      -0.849921       -23.1275
  30   2.0000      -0.839879       -22.8543
  31   2.0000      -0.813647       -22.1405
  32   2.0000      -0.784517       -21.3478
  33   2.0000      -0.769486       -20.9388
  34   2.0000      -0.715135       -19.4598
  35   2.0000      -0.702150       -19.1065
  36   2.0000      -0.689199       -18.7541
  37   2.0000      -0.663775       -18.0622
  38   2.0000      -0.636010       -17.3067
  39   2.0000      -0.617159       -16.7937
  40   2.0000      -0.594970       -16.1900
  41   2.0000      -0.573452       -15.6044
  42   2.0000      -0.569783       -15.5046
  43   2.0000      -0.563791       -15.3415
  44   2.0000      -0.529347       -14.4043
  45   2.0000      -0.519583       -14.1386
  46   2.0000      -0.515072       -14.0158
  47   2.0000      -0.510334       -13.8869
  48   2.0000      -0.505628       -13.7588
  49   2.0000      -0.501526       -13.6472
  50   2.0000      -0.488840       -13.3020
  51   2.0000      -0.479767       -13.0551
  52   2.0000      -0.469071       -12.7641
  53   2.0000      -0.465650       -12.6710
  54   2.0000      -0.460120       -12.5205
  55   2.0000      -0.452410       -12.3107
  56   2.0000      -0.447080       -12.1657
  57   2.0000      -0.437794       -11.9130
  58   2.0000      -0.431996       -11.7552
  59   2.0000      -0.425923       -11.5900
  60   2.0000      -0.418862       -11.3978
  61   2.0000      -0.415626       -11.3098
  62   2.0000      -0.410681       -11.1752
  63   2.0000      -0.355227        -9.6662
  64   2.0000      -0.327432        -8.9099
  65   2.0000      -0.324262        -8.8236
  66   2.0000      -0.288593        -7.8530
  67   0.0000       0.025162         0.6847
  68   0.0000       0.077102         2.0981
  69   0.0000       0.102300         2.7837
  70   0.0000       0.119508         3.2520
  71   0.0000       0.132874         3.6157

MULLIKEN ATOMIC CHARGES
-----------------------
   0 S :    0.111588
   1 C :   -0.146453
   2 C :   -0.037306
   3 C :   -0.022941
   4 C :   -0.130711
   5 H :    0.017570
   6 C :    0.059317
   7 H :    0.029308
   8 H :    0.027602
   9 C :   -0.100987
  10 H :    0.042166
  11 H :    0.041726
  12 C :   -0.023887
  13 H :    0.019168
  14 H :    0.032791
  15 H :    0.028228
  16 S :    0.082134
  17 C :   -0.071704
  18 C :   -0.018200
  19 C :   -0.074651
  20 C :   -0.131486
  21 H :   -0.003815
  22 C :    0.058379
  23 H :    0.021011
  24 H :    0.025618
  25 C :   -0.062805
  26 H :    0.016431
  27 H :    0.021983
  28 C :   -0.051865
  29 H :    0.035318
  30 H :    0.035454
  31 H :    0.047833
  32 H :    0.052702
  33 H :    0.070485
Sum of atomic charges:    0.0000000

LOEWDIN ATOMIC CHARGES
----------------------
   0 S :    0.404255
   1 C :   -0.202764
   2 C :   -0.060179
   3 C :   -0.066449
   4 C :   -0.193132
   5 H :    0.022123
   6 C :   -0.040884
   7 H :    0.035859
   8 H :    0.035345
   9 C :   -0.039690
  10 H :    0.032282
  11 H :    0.024414
  12 C :   -0.060102
  13 H :    0.023285
  14 H :    0.024647
  15 H :    0.024164
  16 S :    0.390255
  17 C :   -0.192227
  18 C :   -0.066999
  19 C :   -0.044106
  20 C :   -0.182442
  21 H :    0.017747
  22 C :   -0.041786
  23 H :    0.028553
  24 H :    0.029239
  25 C :   -0.038937
  26 H :    0.017208
  27 H :    0.024923
  28 C :   -0.069160
  29 H :    0.021384
  30 H :    0.031422
  31 H :    0.034314
  32 H :    0.031503
  33 H :    0.045931

  Mayer bond orders larger than 0.100000
B(  0-S ,  1-C ) :   1.1289 B(  0-S ,  4-C ) :   1.1410 B(  1-C ,  2-C ) :   1.6350
B(  1-C , 32-H ) :   0.9685 B(  2-C ,  3-C ) :   1.2270 B(  2-C ,  6-C ) :   1.0111
B(  3-C ,  4-C ) :   1.5644 B(  3-C ,  5-H ) :   0.9817 B(  4-C , 20-C ) :   1.0715
B(  6-C ,  7-H ) :   0.9371 B(  6-C ,  8-H ) :   0.9258 B(  6-C ,  9-C ) :   1.0828
B(  9-C , 10-H ) :   0.9435 B(  9-C , 11-H ) :   0.9558 B(  9-C , 12-C ) :   1.0911
B( 12-C , 13-H ) :   0.9709 B( 12-C , 14-H ) :   0.9743 B( 12-C , 15-H ) :   0.9750
B( 16-S , 17-C ) :   1.1374 B( 16-S , 20-C ) :   1.1038 B( 17-C , 18-C ) :   1.6564
B( 17-C , 33-H ) :   0.9551 B( 18-C , 19-C ) :   1.1929 B( 18-C , 21-H ) :   0.9946
B( 19-C , 20-C ) :   1.5928 B( 19-C , 22-C ) :   1.0712 B( 22-C , 23-H ) :   0.9347
B( 22-C , 24-H ) :   0.9198 B( 22-C , 25-C ) :   1.0502 B( 25-C , 26-H ) :   0.9589
B( 25-C , 27-H ) :   0.9501 B( 25-C , 28-C ) :   1.0744 B( 28-C , 29-H ) :   0.9747
B( 28-C , 30-H ) :   0.9753 B( 28-C , 31-H ) :   0.9750

Dispersion correction           -0.013614155
FINAL SINGLE POINT ENERGY     -1339.877400764782

DIPOLE MOMENT
-------------
                                X             Y             Z
Electronic contribution:      9.87845      -4.39033       3.94459
Nuclear contribution   :    -10.16299       4.69072      -3.94626
                        -----------------------------------------
Total Dipole Moment    :     -0.28454       0.30039      -0.00167
                        -----------------------------------------
Magnitude (a.u.)       :      0.41377
Magnitude (Debye)      :      1.05171

Rotational constants in cm-1:     0.021505     0.007540     0.006006
Rotational constants in MHz :   644.711427   226.058272   180.050366

                             ****ORCA TERMINATED NORMALLY****
TOTAL RUN TIME: 0 days 0 hours 0 minutes 33 seconds 238 msec
