                         Program Version 4.2.1 -  RELEASE  -
|  1> ! wB97X-D3 SP def2-SVP
|  2> %pal
|  3> nprocs 16
|  4> end
|  5>
|  6> * xyz 0 1
|  7> S 	 -106.46 	 40.0611 	 131.93
|  8> C 	 -104.755 	 40.214 	 131.399
|  9> C 	 -104.61 	 40.0754 	 130.028
| 10> C 	 -105.89 	 39.8744 	 129.385
| 11> C 	 -106.927 	 39.7012 	 130.262
| 12> H 	 -106.07 	 39.7987 	 128.332
| 13> C 	 -103.318 	 40.3385 	 129.204
| 14> H 	 -103.346 	 39.6341 	 128.387
| 15> H 	 -102.437 	 40.092 	 129.85
| 16> C 	 -103.265 	 41.7425 	 128.675
| 17> H 	 -104.141 	 42.128 	 128.221
| 18> H 	 -103.319 	 42.3448 	 129.574
| 19> C 	 -102.086 	 42.1236 	 127.645
| 20> H 	 -101.044 	 41.8155 	 127.853
| 21> H 	 -102.346 	 41.7505 	 126.636
| 22> H 	 -101.957 	 43.2088 	 127.814
| 23> S 	 -109.104 	 38.3446 	 131.011
| 24> C 	 -110.439 	 38.2416 	 129.907
| 25> C 	 -110.267 	 38.8743 	 128.698
| 26> C 	 -109.027 	 39.5361 	 128.599
| 27> C 	 -108.299 	 39.3667 	 129.85
| 28> H 	 -111.033 	 38.8808 	 127.952
| 29> C 	 -108.619 	 40.4222 	 127.445
| 30> H 	 -107.938 	 41.0775 	 127.846
| 31> H 	 -109.437 	 41.018 	 127.01
| 32> C 	 -107.97 	 39.739 	 126.251
| 33> H 	 -108.694 	 38.8938 	 125.943
| 34> H 	 -107.051 	 39.0984 	 126.443
| 35> C 	 -107.679 	 40.6673 	 125.062
| 36> H 	 -107.134 	 41.582 	 125.23
| 37> H 	 -108.552 	 41.0182 	 124.613
| 38> H 	 -107.092 	 40.1043 	 124.31
| 39> H 	 -104.011 	 40.6671 	 132.056
| 40> H 	 -111.331 	 37.6618 	 130.216
| 41> *
| 42>
| 43>                          ****END OF INPUT****

CARTESIAN COORDINATES (ANGSTROEM)
---------------------------------
  S    -106.460000   40.061100  131.930000
  C    -104.755000   40.214000  131.399000
  C    -104.610000   40.075400  130.028000
  C    -105.890000   39.874400  129.385000
  C    -106.927000   39.701200  130.262000
  H    -106.070000   39.798700  128.332000
  C    -103.318000   40.338500  129.204000
  H    -103.346000   39.634100  128.387000
  H    -102.437000   40.092000  129.850000
  C    -103.265000   41.742500  128.675000
  H    -104.141000   42.128000  128.221000
  H    -103.319000   42.344800  129.574000
  C    -102.086000   42.123600  127.645000
  H    -101.044000   41.815500  127.853000
  H    -102.346000   41.750500  126.636000
  H    -101.957000   43.208800  127.814000
  S    -109.104000   38.344600  131.011000
  C    -110.439000   38.241600  129.907000
  C    -110.267000   38.874300  128.698000
  C    -109.027000   39.536100  128.599000
  C    -108.299000   39.366700  129.850000
  H    -111.033000   38.880800  127.952000
  C    -108.619000   40.422200  127.445000
  H    -107.938000   41.077500  127.846000
  H    -109.437000   41.018000  127.010000
  C    -107.970000   39.739000  126.251000
  H    -108.694000   38.893800  125.943000
  H    -107.051000   39.098400  126.443000
  C    -107.679000   40.667300  125.062000
  H    -107.134000   41.582000  125.230000
  H    -108.552000   41.018200  124.613000
  H    -107.092000   40.104300  124.310000
  H    -104.011000   40.667100  132.056000
  H    -111.331000   37.661800  130.216000

 Total Charge           Charge          ....    0
 Multiplicity           Mult            ....    1
 Number of Electrons    NEL             ....  134
 Basis Dimension        Dim             ....  322

ORBITAL ENERGIES
----------------

  NO   OCC          E(Eh)            E(eV)
   0   2.0000     -88.969955     -2420.9955
   1   2.0000     -88.966672     -2420.9062
   2   2.0000     -10.332550      -281.1630
   3   2.0000     -10.329565      -281.0817
   4   2.0000     -10.317201      -280.7453
   5   2.0000     -10.315819      -280.7077
   6   2.0000     -10.310400      -280.5603
   7   2.0000     -10.306420      -280.4520
   8   2.0000     -10.299935      -280.2755
   9   2.0000     -10.296580      -280.1842
  10   2.0000     -10.293027      -280.0875
  11   2.0000     -10.290940      -280.0307
  12   2.0000     -10.290143      -280.0090
  13   2.0000     -10.289967      -280.0042
  14   2.0000     -10.286981      -279.9230
  15   2.0000     -10.278248      -279.6853
  16   2.0000      -8.085065      -220.0058
  17   2.0000      -8.080517      -219.8821
  18   2.0000      -6.043205      -164.4440
  19   2.0000      -6.039604      -164.3460
  20   2.0000      -6.039203      -164.3351
  21   2.0000      -6.036120      -164.2512
  22   2.0000      -6.035371      -164.2308
  23   2.0000      -6.030928      -164.1099
  24   2.0000      -1.004043       -27.3214
  25   2.0000      -0.979147       -26.6439
  26   2.0000      -0.914654       -24.8890
  27   2.0000      -0.907473       -24.6936
  28   2.0000      -0.866123       -23.5684
  29   2.0000      -0.855651       -23.2834
  30   2.0000      -0.840861       -22.8810
  31   2.0000      -0.812871       -22.1194
  32   2.0000      -0.786883       -21.4122
  33   2.0000      -0.771475       -20.9929
  34   2.0000      -0.707137       -19.2422
  35   2.0000      -0.703946       -19.1553
  36   2.0000      -0.691288       -18.8109
  37   2.0000      -0.664996       -18.0955
  38   2.0000      -0.636782       -17.3277
  39   2.0000      -0.621081       -16.9005
  40   2.0000      -0.601136       -16.3578
  41   2.0000      -0.568518       -15.4702
  42   2.0000      -0.565714       -15.3939
  43   2.0000      -0.548000       -14.9118
  44   2.0000      -0.526472       -14.3260
  45   2.0000      -0.521590       -14.1932
  46   2.0000      -0.516402       -14.0520
  47   2.0000      -0.512462       -13.9448
  48   2.0000      -0.509300       -13.8588
  49   2.0000      -0.497276       -13.5316
  50   2.0000      -0.487043       -13.2531
  51   2.0000      -0.483742       -13.1633
  52   2.0000      -0.467118       -12.7109
  53   2.0000      -0.463684       -12.6175
  54   2.0000      -0.461104       -12.5473
  55   2.0000      -0.457210       -12.4413
  56   2.0000      -0.446163       -12.1407
  57   2.0000      -0.442438       -12.0394
  58   2.0000      -0.439226       -11.9519
  59   2.0000      -0.432437       -11.7672
  60   2.0000      -0.416229       -11.3262
  61   2.0000      -0.411422       -11.1953
  62   2.0000      -0.409534       -11.1440
  63   2.0000      -0.355234        -9.6664
  64   2.0000      -0.336779        -9.1642
  65   2.0000      -0.330439        -8.9917
  66   2.0000      -0.279568        -7.6074
  67   0.0000       0.021986         0.5983
  68   0.0000       0.075254         2.0478
  69   0.0000       0.099400         2.7048
  70   0.0000       0.118801         3.2327
  71   0.0000       0.124666         3.3923

MULLIKEN ATOMIC CHARGES
-----------------------
   0 S :    0.093350
   1 C :   -0.131384
   2 C :   -0.095007
   3 C :    0.004904
   4 C :   -0.097923
   5 H :   -0.019521
   6 C :    0.094891
   7 H :    0.017925
   8 H :    0.037111
   9 C :   -0.068414
  10 H :    0.018393
  11 H :    0.010805
  12 C :   -0.067138
  13 H :    0.030718
  14 H :    0.053453
  15 H :    0.042118
  16 S :    0.114178
  17 C :   -0.103957
  18 C :   -0.014817
  19 C :   -0.027124
  20 C :   -0.160222
  21 H :    0.007758
  22 C :    0.105130
  23 H :    0.004637
  24 H :    0.028026
  25 C :   -0.140142
  26 H :    0.031808
  27 H :    0.044831
  28 C :   -0.014331
  29 H :    0.024643
  30 H :    0.015364
  31 H :    0.037861
  32 H :    0.058070
  33 H :    0.064007
Sum of atomic charges:   -0.0000000

LOEWDIN ATOMIC CHARGES
----------------------
   0 S :    0.367946
   1 C :   -0.191054
   2 C :   -0.053206
   3 C :   -0.066964
   4 C :   -0.185417
   5 H :    0.025825
   6 C :   -0.027835
   7 H :    0.024421
   8 H :    0.036787
   9 C :   -0.045871
  10 H :    0.022410
  11 H :    0.023855
  12 C :   -0.074728
  13 H :    0.025176
  14 H :    0.030337
  15 H :    0.035474
  16 S :    0.425619
  17 C :   -0.195132
  18 C :   -0.066260
  19 C :   -0.049649
  20 C :   -0.191151
  21 H :    0.030382
  22 C :   -0.031767
  23 H :    0.018395
  24 H :    0.037864
  25 C :   -0.051076
  26 H :    0.031001
  27 H :    0.026232
  28 C :   -0.065742
  29 H :    0.024411
  30 H :    0.016438
  31 H :    0.034097
  32 H :    0.029273
  33 H :    0.029908

  Mayer bond orders larger than 0.100000
B(  0-S ,  1-C ) :   1.1097 B(  0-S ,  4-C ) :   1.1296 B(  1-C ,  2-C ) :   1.6448
B(  1-C , 32-H ) :   0.9636 B(  2-C ,  3-C ) :   1.2122 B(  2-C ,  6-C ) :   1.0236
B(  3-C ,  4-C ) :   1.6006 B(  3-C ,  5-H ) :   0.9942 B(  4-C , 20-C ) :   1.0495
B(  6-C ,  7-H ) :   0.9362 B(  6-C ,  8-H ) :   0.9427 B(  6-C ,  9-C ) :   1.0603
B(  9-C , 10-H ) :   0.9559 B(  9-C , 11-H ) :   0.9532 B(  9-C , 12-C ) :   1.0542
B( 12-C , 13-H ) :   0.9794 B( 12-C , 14-H ) :   0.9774 B( 12-C , 15-H ) :   0.9750
B( 16-S , 17-C ) :   1.1649 B( 16-S , 20-C ) :   1.1727 B( 17-C , 18-C ) :   1.5807
B( 17-C , 20-C ) :   0.1051 B( 17-C , 33-H ) :   0.9639 B( 18-C , 19-C ) :   1.2722
B( 18-C , 21-H ) :   0.9970 B( 19-C , 20-C ) :   1.5321 B( 19-C , 22-C ) :   1.0414
B( 22-C , 23-H ) :   0.9269 B( 22-C , 24-H ) :   0.9369 B( 22-C , 25-C ) :   1.0540
B( 25-C , 26-H ) :   0.9512 B( 25-C , 27-H ) :   0.9498 B( 25-C , 28-C ) :   1.0759
B( 28-C , 29-H ) :   0.9741 B( 28-C , 30-H ) :   0.9716 B( 28-C , 31-H ) :   0.9734

Dispersion correction           -0.014030612
FINAL SINGLE POINT ENERGY     -1339.863131856958

DIPOLE MOMENT
-------------
                                X             Y             Z
Electronic contribution:    -15.96486     -11.81573      27.83873
Nuclear contribution   :     16.09752      12.11949     -28.53248
                        -----------------------------------------
Total Dipole Moment    :      0.13266       0.30376      -0.69374
                        -----------------------------------------
Magnitude (a.u.)       :      0.76886
Magnitude (Debye)      :      1.95429

Rotational constants in cm-1:     0.016746     0.009593     0.006335
Rotational constants in MHz :   502.026373   287.593925   189.926850

                             ****ORCA TERMINATED NORMALLY****
TOTAL RUN TIME: 0 days 0 hours 0 minutes 34 seconds 645 msec
