                         Program Version 4.2.1 -  RELEASE  -
|  1> ! wB97X-D3 SP def2-SVP
|  2> %pal
|  3> nprocs 16
|  4> end
|  5>
|  6> * xyz 0 1
|  7> S 	 -8.62306 	 64.3276 	 50.5058
|  8> C 	 -8.89024 	 62.5988 	 50.6593
|  9> C 	 -8.41506 	 62.0548 	 51.8449
| 10> C 	 -7.78326 	 63.0916 	 52.6114
| 11> C 	 -7.77327 	 64.3012 	 51.9637
| 12> H 	 -7.38044 	 62.9163 	 53.5525
| 13> C 	 -8.41243 	 60.5922 	 52.1765
| 14> H 	 -9.34334 	 60.1736 	 51.7704
| 15> H 	 -8.39035 	 60.4334 	 53.2585
| 16> C 	 -7.25436 	 59.7887 	 51.5483
| 17> H 	 -7.55038 	 58.7216 	 51.6685
| 18> H 	 -7.28013 	 60.06 	 50.4928
| 19> C 	 -5.93164 	 60.0067 	 52.1619
| 20> H 	 -5.99337 	 59.737 	 53.2384
| 21> H 	 -5.15866 	 59.5047 	 51.5772
| 22> H 	 -5.60234 	 61.0194 	 52.1297
| 23> S 	 -8.22035 	 66.4763 	 53.5329
| 24> C 	 -6.86194 	 67.5061 	 53.8798
| 25> C 	 -5.68599 	 66.9876 	 53.4571
| 26> C 	 -5.83896 	 65.7802 	 52.7389
| 27> C 	 -7.17512 	 65.4844 	 52.5242
| 28> H 	 -4.75077 	 67.4746 	 53.7582
| 29> C 	 -4.63014 	 65.1293 	 52.1325
| 30> H 	 -3.78878 	 65.8662 	 52.1048
| 31> H 	 -4.74672 	 64.9455 	 51.1078
| 32> C 	 -3.96905 	 63.9317 	 52.9068
| 33> H 	 -4.61595 	 63.0411 	 52.8049
| 34> H 	 -3.84572 	 64.1554 	 53.9074
| 35> C 	 -2.66546 	 63.5027 	 52.2433
| 36> H 	 -2.31453 	 62.5482 	 52.7476
| 37> H 	 -1.98242 	 64.3262 	 52.5195
| 38> H 	 -2.63921 	 63.3799 	 51.1051
| 39> H 	 -9.37508 	 61.9192 	 49.8915
| 40> H 	 -6.92109 	 68.477 	 54.4178
| 41> *
| 42>
| 43>                          ****END OF INPUT****

CARTESIAN COORDINATES (ANGSTROEM)
---------------------------------
  S     -8.623060   64.327600   50.505800
  C     -8.890240   62.598800   50.659300
  C     -8.415060   62.054800   51.844900
  C     -7.783260   63.091600   52.611400
  C     -7.773270   64.301200   51.963700
  H     -7.380440   62.916300   53.552500
  C     -8.412430   60.592200   52.176500
  H     -9.343340   60.173600   51.770400
  H     -8.390350   60.433400   53.258500
  C     -7.254360   59.788700   51.548300
  H     -7.550380   58.721600   51.668500
  H     -7.280130   60.060000   50.492800
  C     -5.931640   60.006700   52.161900
  H     -5.993370   59.737000   53.238400
  H     -5.158660   59.504700   51.577200
  H     -5.602340   61.019400   52.129700
  S     -8.220350   66.476300   53.532900
  C     -6.861940   67.506100   53.879800
  C     -5.685990   66.987600   53.457100
  C     -5.838960   65.780200   52.738900
  C     -7.175120   65.484400   52.524200
  H     -4.750770   67.474600   53.758200
  C     -4.630140   65.129300   52.132500
  H     -3.788780   65.866200   52.104800
  H     -4.746720   64.945500   51.107800
  C     -3.969050   63.931700   52.906800
  H     -4.615950   63.041100   52.804900
  H     -3.845720   64.155400   53.907400
  C     -2.665460   63.502700   52.243300
  H     -2.314530   62.548200   52.747600
  H     -1.982420   64.326200   52.519500
  H     -2.639210   63.379900   51.105100
  H     -9.375080   61.919200   49.891500
  H     -6.921090   68.477000   54.417800

 Total Charge           Charge          ....    0
 Multiplicity           Mult            ....    1
 Number of Electrons    NEL             ....  134
 Basis Dimension        Dim             ....  322

ORBITAL ENERGIES
----------------

  NO   OCC          E(Eh)            E(eV)
   0   2.0000     -88.969206     -2420.9752
   1   2.0000     -88.962029     -2420.7799
   2   2.0000     -10.319076      -280.7963
   3   2.0000     -10.317522      -280.7541
   4   2.0000     -10.314971      -280.6846
   5   2.0000     -10.312394      -280.6145
   6   2.0000     -10.299378      -280.2603
   7   2.0000     -10.297504      -280.2093
   8   2.0000     -10.292044      -280.0607
   9   2.0000     -10.288554      -279.9658
  10   2.0000     -10.288213      -279.9565
  11   2.0000     -10.286666      -279.9144
  12   2.0000     -10.285744      -279.8893
  13   2.0000     -10.285297      -279.8772
  14   2.0000     -10.283028      -279.8154
  15   2.0000     -10.274217      -279.5757
  16   2.0000      -8.084795      -219.9985
  17   2.0000      -8.077198      -219.7917
  18   2.0000      -6.043113      -164.4415
  19   2.0000      -6.039264      -164.3367
  20   2.0000      -6.035625      -164.2377
  21   2.0000      -6.035591      -164.2368
  22   2.0000      -6.031817      -164.1341
  23   2.0000      -6.027876      -164.0268
  24   2.0000      -1.012431       -27.5496
  25   2.0000      -0.987542       -26.8724
  26   2.0000      -0.919353       -25.0169
  27   2.0000      -0.906960       -24.6796
  28   2.0000      -0.870650       -23.6916
  29   2.0000      -0.852897       -23.2085
  30   2.0000      -0.852345       -23.1935
  31   2.0000      -0.812655       -22.1135
  32   2.0000      -0.785204       -21.3665
  33   2.0000      -0.767128       -20.8746
  34   2.0000      -0.701970       -19.1016
  35   2.0000      -0.698395       -19.0043
  36   2.0000      -0.691499       -18.8166
  37   2.0000      -0.657029       -17.8787
  38   2.0000      -0.638856       -17.3842
  39   2.0000      -0.617072       -16.7914
  40   2.0000      -0.599343       -16.3089
  41   2.0000      -0.578628       -15.7453
  42   2.0000      -0.565969       -15.4008
  43   2.0000      -0.548813       -14.9340
  44   2.0000      -0.546116       -14.8606
  45   2.0000      -0.521000       -14.1771
  46   2.0000      -0.515001       -14.0139
  47   2.0000      -0.510921       -13.9029
  48   2.0000      -0.508595       -13.8396
  49   2.0000      -0.494659       -13.4604
  50   2.0000      -0.487031       -13.2528
  51   2.0000      -0.477818       -13.0021
  52   2.0000      -0.468407       -12.7460
  53   2.0000      -0.466812       -12.7026
  54   2.0000      -0.459409       -12.5012
  55   2.0000      -0.447620       -12.1804
  56   2.0000      -0.446813       -12.1584
  57   2.0000      -0.439792       -11.9674
  58   2.0000      -0.435728       -11.8568
  59   2.0000      -0.426800       -11.6138
  60   2.0000      -0.422018       -11.4837
  61   2.0000      -0.420676       -11.4472
  62   2.0000      -0.405318       -11.0293
  63   2.0000      -0.337915        -9.1951
  64   2.0000      -0.327999        -8.9253
  65   2.0000      -0.317458        -8.6385
  66   2.0000      -0.308155        -8.3853
  67   0.0000       0.044592         1.2134
  68   0.0000       0.058120         1.5815
  69   0.0000       0.112710         3.0670
  70   0.0000       0.120198         3.2707
  71   0.0000       0.127471         3.4687

MULLIKEN ATOMIC CHARGES
-----------------------
   0 S :    0.140639
   1 C :   -0.149261
   2 C :   -0.093529
   3 C :    0.069953
   4 C :   -0.175554
   5 H :   -0.017778
   6 C :    0.056598
   7 H :    0.025620
   8 H :    0.019828
   9 C :   -0.066355
  10 H :    0.036701
  11 H :    0.020234
  12 C :   -0.018452
  13 H :    0.030182
  14 H :    0.034437
  15 H :    0.014875
  16 S :    0.111087
  17 C :   -0.098594
  18 C :   -0.039346
  19 C :    0.022782
  20 C :   -0.178128
  21 H :    0.022294
  22 C :    0.044955
  23 H :    0.006798
  24 H :    0.017971
  25 C :   -0.039454
  26 H :    0.030707
  27 H :    0.015300
  28 C :   -0.098483
  29 H :    0.047082
  30 H :    0.031474
  31 H :    0.053410
  32 H :    0.059151
  33 H :    0.062854
Sum of atomic charges:   -0.0000000

LOEWDIN ATOMIC CHARGES
----------------------
   0 S :    0.439109
   1 C :   -0.211695
   2 C :   -0.062895
   3 C :   -0.047672
   4 C :   -0.225689
   5 H :    0.019180
   6 C :   -0.032691
   7 H :    0.033711
   8 H :    0.027612
   9 C :   -0.040151
  10 H :    0.028457
  11 H :    0.022510
  12 C :   -0.067425
  13 H :    0.030033
  14 H :    0.031652
  15 H :    0.018953
  16 S :    0.404451
  17 C :   -0.190456
  18 C :   -0.077513
  19 C :   -0.052799
  20 C :   -0.199830
  21 H :    0.035625
  22 C :   -0.028641
  23 H :    0.030736
  24 H :    0.024830
  25 C :   -0.032924
  26 H :    0.020890
  27 H :    0.014556
  28 C :   -0.075801
  29 H :    0.033469
  30 H :    0.023328
  31 H :    0.034680
  32 H :    0.036530
  33 H :    0.035868

  Mayer bond orders larger than 0.100000
B(  0-S ,  1-C ) :   1.1426 B(  0-S ,  4-C ) :   1.1703 B(  1-C ,  2-C ) :   1.6163
B(  1-C , 32-H ) :   0.9546 B(  2-C ,  3-C ) :   1.2409 B(  2-C ,  6-C ) :   1.0371
B(  3-C ,  4-C ) :   1.5667 B(  3-C ,  5-H ) :   1.0109 B(  4-C , 20-C ) :   1.0027
B(  6-C ,  7-H ) :   0.9322 B(  6-C ,  8-H ) :   0.9391 B(  6-C ,  9-C ) :   1.0721
B(  9-C , 10-H ) :   0.9535 B(  9-C , 11-H ) :   0.9478 B(  9-C , 12-C ) :   1.0987
B( 12-C , 13-H ) :   0.9684 B( 12-C , 14-H ) :   0.9606 B( 12-C , 15-H ) :   0.9730
B( 16-S , 17-C ) :   1.1510 B( 16-S , 20-C ) :   1.1485 B( 17-C , 18-C ) :   1.6329
B( 17-C , 33-H ) :   0.9587 B( 18-C , 19-C ) :   1.2359 B( 18-C , 21-H ) :   0.9867
B( 19-C , 20-C ) :   1.6081 B( 19-C , 22-C ) :   1.0400 B( 22-C , 23-H ) :   0.9433
B( 22-C , 24-H ) :   0.9378 B( 22-C , 25-C ) :   1.0545 B( 25-C , 26-H ) :   0.9515
B( 25-C , 27-H ) :   0.9508 B( 25-C , 28-C ) :   1.0782 B( 28-C , 29-H ) :   0.9728
B( 28-C , 30-H ) :   0.9758 B( 28-C , 31-H ) :   0.9735

Dispersion correction           -0.015383164
FINAL SINGLE POINT ENERGY     -1339.877207259686

DIPOLE MOMENT
-------------
                                X             Y             Z
Electronic contribution:    -21.47745      21.76028      -1.11891
Nuclear contribution   :     21.95949     -22.17119       1.27012
                        -----------------------------------------
Total Dipole Moment    :      0.48204      -0.41092       0.15120
                        -----------------------------------------
Magnitude (a.u.)       :      0.65121
Magnitude (Debye)      :      1.65525

Rotational constants in cm-1:     0.017011     0.010552     0.007497
Rotational constants in MHz :   509.986617   316.355058   224.754714

                             ****ORCA TERMINATED NORMALLY****
TOTAL RUN TIME: 0 days 0 hours 0 minutes 35 seconds 907 msec
