                         Program Version 4.2.1 -  RELEASE  -
|  1> ! wB97X-D3 SP def2-SVP
|  2> %pal
|  3> nprocs 16
|  4> end
|  5>
|  6> * xyz 0 1
|  7> S 	 52.0404 	 6.00328 	 83.1189
|  8> C 	 52.5384 	 7.5966 	 82.5469
|  9> C 	 51.5391 	 8.49826 	 82.6863
| 10> C 	 50.4136 	 7.96306 	 83.4225
| 11> C 	 50.5309 	 6.59345 	 83.7315
| 12> H 	 49.4501 	 8.53395 	 83.4665
| 13> C 	 51.6962 	 9.90613 	 82.2694
| 14> H 	 52.6608 	 10.1697 	 82.5167
| 15> H 	 51.0663 	 10.5631 	 82.8188
| 16> C 	 51.5618 	 10.0513 	 80.743
| 17> H 	 52.3616 	 9.4871 	 80.2419
| 18> H 	 50.6187 	 9.72044 	 80.2934
| 19> C 	 51.7375 	 11.4898 	 80.3079
| 20> H 	 51.5786 	 11.5745 	 79.2852
| 21> H 	 51.1092 	 12.083 	 80.8637
| 22> H 	 52.7074 	 11.8466 	 80.6652
| 23> S 	 48.8061 	 4.51011 	 83.2833
| 24> C 	 47.6012 	 4.13569 	 84.4413
| 25> C 	 47.6147 	 5.03851 	 85.4584
| 26> C 	 48.609 	 6.09327 	 85.3835
| 27> C 	 49.4221 	 5.81128 	 84.2665
| 28> H 	 46.9326 	 4.8691 	 86.2437
| 29> C 	 48.6599 	 7.24559 	 86.2875
| 30> H 	 47.8273 	 7.9466 	 86.0377
| 31> H 	 49.5926 	 7.81211 	 86.1507
| 32> C 	 48.388 	 6.84813 	 87.7319
| 33> H 	 47.4218 	 6.37811 	 87.7056
| 34> H 	 48.0047 	 7.78728 	 88.2548
| 35> C 	 49.4882 	 5.97965 	 88.4297
| 36> H 	 50.3811 	 6.47373 	 88.6559
| 37> H 	 49.738 	 5.26575 	 87.6609
| 38> H 	 49.212 	 5.4504 	 89.3058
| 39> H 	 53.4226 	 7.75783 	 81.9553
| 40> H 	 46.819 	 3.36365 	 84.2954
| 41> *
| 42>
| 43>                          ****END OF INPUT****

CARTESIAN COORDINATES (ANGSTROEM)
---------------------------------
  S     52.040400    6.003280   83.118900
  C     52.538400    7.596600   82.546900
  C     51.539100    8.498260   82.686300
  C     50.413600    7.963060   83.422500
  C     50.530900    6.593450   83.731500
  H     49.450100    8.533950   83.466500
  C     51.696200    9.906130   82.269400
  H     52.660800   10.169700   82.516700
  H     51.066300   10.563100   82.818800
  C     51.561800   10.051300   80.743000
  H     52.361600    9.487100   80.241900
  H     50.618700    9.720440   80.293400
  C     51.737500   11.489800   80.307900
  H     51.578600   11.574500   79.285200
  H     51.109200   12.083000   80.863700
  H     52.707400   11.846600   80.665200
  S     48.806100    4.510110   83.283300
  C     47.601200    4.135690   84.441300
  C     47.614700    5.038510   85.458400
  C     48.609000    6.093270   85.383500
  C     49.422100    5.811280   84.266500
  H     46.932600    4.869100   86.243700
  C     48.659900    7.245590   86.287500
  H     47.827300    7.946600   86.037700
  H     49.592600    7.812110   86.150700
  C     48.388000    6.848130   87.731900
  H     47.421800    6.378110   87.705600
  H     48.004700    7.787280   88.254800
  C     49.488200    5.979650   88.429700
  H     50.381100    6.473730   88.655900
  H     49.738000    5.265750   87.660900
  H     49.212000    5.450400   89.305800
  H     53.422600    7.757830   81.955300
  H     46.819000    3.363650   84.295400

 Total Charge           Charge          ....    0
 Multiplicity           Mult            ....    1
 Number of Electrons    NEL             ....  134
 Basis Dimension        Dim             ....  322

ORBITAL ENERGIES
----------------

  NO   OCC          E(Eh)            E(eV)
   0   2.0000     -88.965400     -2420.8716
   1   2.0000     -88.962862     -2420.8025
   2   2.0000     -10.330148      -281.0976
   3   2.0000     -10.326489      -280.9981
   4   2.0000     -10.313627      -280.6480
   5   2.0000     -10.308656      -280.5128
   6   2.0000     -10.304606      -280.4026
   7   2.0000     -10.297253      -280.2025
   8   2.0000     -10.294634      -280.1312
   9   2.0000     -10.291963      -280.0586
  10   2.0000     -10.289387      -279.9885
  11   2.0000     -10.287993      -279.9505
  12   2.0000     -10.284841      -279.8647
  13   2.0000     -10.281901      -279.7847
  14   2.0000     -10.268875      -279.4303
  15   2.0000     -10.263710      -279.2897
  16   2.0000      -8.080070      -219.8699
  17   2.0000      -8.078644      -219.8311
  18   2.0000      -6.038614      -164.3190
  19   2.0000      -6.037089      -164.2776
  20   2.0000      -6.034504      -164.2072
  21   2.0000      -6.033014      -164.1667
  22   2.0000      -6.030879      -164.1086
  23   2.0000      -6.029395      -164.0682
  24   2.0000      -1.007564       -27.4172
  25   2.0000      -0.986588       -26.8464
  26   2.0000      -0.921351       -25.0712
  27   2.0000      -0.915252       -24.9053
  28   2.0000      -0.873052       -23.7570
  29   2.0000      -0.850702       -23.1488
  30   2.0000      -0.842251       -22.9188
  31   2.0000      -0.812769       -22.1166
  32   2.0000      -0.788850       -21.4657
  33   2.0000      -0.777051       -21.1446
  34   2.0000      -0.711956       -19.3733
  35   2.0000      -0.704818       -19.1791
  36   2.0000      -0.696775       -18.9602
  37   2.0000      -0.651620       -17.7315
  38   2.0000      -0.636196       -17.3118
  39   2.0000      -0.620506       -16.8848
  40   2.0000      -0.601404       -16.3650
  41   2.0000      -0.574401       -15.6302
  42   2.0000      -0.562397       -15.3036
  43   2.0000      -0.558886       -15.2081
  44   2.0000      -0.544133       -14.8066
  45   2.0000      -0.528329       -14.3765
  46   2.0000      -0.518647       -14.1131
  47   2.0000      -0.513203       -13.9650
  48   2.0000      -0.502416       -13.6714
  49   2.0000      -0.497807       -13.5460
  50   2.0000      -0.493791       -13.4367
  51   2.0000      -0.479624       -13.0512
  52   2.0000      -0.475766       -12.9462
  53   2.0000      -0.467308       -12.7161
  54   2.0000      -0.454179       -12.3588
  55   2.0000      -0.447732       -12.1834
  56   2.0000      -0.445691       -12.1279
  57   2.0000      -0.441193       -12.0055
  58   2.0000      -0.438247       -11.9253
  59   2.0000      -0.428125       -11.6499
  60   2.0000      -0.420905       -11.4534
  61   2.0000      -0.418615       -11.3911
  62   2.0000      -0.408171       -11.1069
  63   2.0000      -0.345703        -9.4071
  64   2.0000      -0.328657        -8.9432
  65   2.0000      -0.324427        -8.8281
  66   2.0000      -0.292446        -7.9579
  67   0.0000       0.032298         0.8789
  68   0.0000       0.074334         2.0227
  69   0.0000       0.115124         3.1327
  70   0.0000       0.122256         3.3268
  71   0.0000       0.128903         3.5076

MULLIKEN ATOMIC CHARGES
-----------------------
   0 S :    0.109320
   1 C :   -0.124074
   2 C :   -0.094256
   3 C :    0.008088
   4 C :   -0.152475
   5 H :    0.035908
   6 C :    0.126891
   7 H :    0.001766
   8 H :    0.006654
   9 C :   -0.119483
  10 H :    0.026097
  11 H :    0.031186
  12 C :    0.043994
  13 H :    0.028392
  14 H :   -0.004804
  15 H :    0.007791
  16 S :    0.114071
  17 C :   -0.097741
  18 C :   -0.039081
  19 C :   -0.034890
  20 C :   -0.164323
  21 H :    0.002515
  22 C :    0.060723
  23 H :    0.044231
  24 H :    0.035461
  25 C :   -0.096426
  26 H :    0.012706
  27 H :    0.018583
  28 C :    0.018595
  29 H :    0.021354
  30 H :    0.029781
  31 H :    0.028384
  32 H :    0.046390
  33 H :    0.068673
Sum of atomic charges:   -0.0000000

LOEWDIN ATOMIC CHARGES
----------------------
   0 S :    0.407847
   1 C :   -0.192353
   2 C :   -0.060952
   3 C :   -0.072008
   4 C :   -0.205656
   5 H :    0.038201
   6 C :   -0.021374
   7 H :    0.024807
   8 H :    0.025206
   9 C :   -0.032616
  10 H :    0.023040
  11 H :    0.024001
  12 C :   -0.051385
  13 H :    0.019333
  14 H :    0.011588
  15 H :    0.024037
  16 S :    0.420659
  17 C :   -0.201759
  18 C :   -0.072045
  19 C :   -0.053547
  20 C :   -0.200151
  21 H :    0.021187
  22 C :   -0.038409
  23 H :    0.044618
  24 H :    0.033378
  25 C :   -0.045744
  26 H :    0.018620
  27 H :    0.027013
  28 C :   -0.056304
  29 H :    0.020531
  30 H :    0.031020
  31 H :    0.023758
  32 H :    0.026295
  33 H :    0.039165

  Mayer bond orders larger than 0.100000
B(  0-S ,  1-C ) :   1.1262 B(  0-S ,  4-C ) :   1.1660 B(  1-C ,  2-C ) :   1.6180
B(  1-C , 32-H ) :   0.9669 B(  2-C ,  3-C ) :   1.2647 B(  2-C ,  6-C ) :   1.0261
B(  3-C ,  4-C ) :   1.5346 B(  3-C ,  5-H ) :   0.9805 B(  4-C , 20-C ) :   1.0446
B(  6-C ,  7-H ) :   0.9308 B(  6-C ,  8-H ) :   0.9421 B(  6-C ,  9-C ) :   1.0574
B(  9-C , 10-H ) :   0.9570 B(  9-C , 11-H ) :   0.9603 B(  9-C , 12-C ) :   1.0907
B( 12-C , 13-H ) :   0.9731 B( 12-C , 14-H ) :   0.9674 B( 12-C , 15-H ) :   0.9676
B( 16-S , 17-C ) :   1.1469 B( 16-S , 20-C ) :   1.1639 B( 17-C , 18-C ) :   1.6323
B( 17-C , 33-H ) :   0.9613 B( 18-C , 19-C ) :   1.2078 B( 18-C , 21-H ) :   0.9943
B( 19-C , 20-C ) :   1.5663 B( 19-C , 22-C ) :   1.0674 B( 22-C , 23-H ) :   0.9218
B( 22-C , 24-H ) :   0.9282 B( 22-C , 25-C ) :   1.0823 B( 25-C , 26-H ) :   0.9488
B( 25-C , 27-H ) :   0.9506 B( 25-C , 28-C ) :   1.0500 B( 28-C , 29-H ) :   0.9755
B( 28-C , 30-H ) :   0.9720 B( 28-C , 31-H ) :   0.9763

Dispersion correction           -0.013930027
FINAL SINGLE POINT ENERGY     -1339.868577235939

DIPOLE MOMENT
-------------
                                X             Y             Z
Electronic contribution:      0.59254     -21.15373      -5.93420
Nuclear contribution   :     -0.90019      21.72609       5.95641
                        -----------------------------------------
Total Dipole Moment    :     -0.30765       0.57236       0.02221
                        -----------------------------------------
Magnitude (a.u.)       :      0.65018
Magnitude (Debye)      :      1.65263

Rotational constants in cm-1:     0.021678     0.007229     0.006482
Rotational constants in MHz :   649.885860   216.733978   194.314724

                             ****ORCA TERMINATED NORMALLY****
TOTAL RUN TIME: 0 days 0 hours 0 minutes 30 seconds 396 msec
