                         Program Version 4.2.1 -  RELEASE  -
|  1> ! wB97X-D3 SP def2-SVP
|  2> %pal
|  3> nprocs 16
|  4> end
|  5>
|  6> * xyz 0 1
|  7> S 	 -32.6277 	 69.6079 	 101.13
|  8> C 	 -32.6367 	 67.8752 	 100.857
|  9> C 	 -31.5095 	 67.2669 	 101.354
| 10> C 	 -30.6545 	 68.2579 	 102.01
| 11> C 	 -31.0297 	 69.5694 	 101.776
| 12> H 	 -29.6694 	 68.0858 	 102.399
| 13> C 	 -31.2678 	 65.7917 	 101.436
| 14> H 	 -32.1633 	 65.2569 	 101.151
| 15> H 	 -31.0732 	 65.478 	 102.483
| 16> C 	 -30.2155 	 65.2077 	 100.475
| 17> H 	 -29.3009 	 65.4803 	 100.942
| 18> H 	 -30.3388 	 64.1074 	 100.457
| 19> C 	 -30.167 	 65.8367 	 99.1338
| 20> H 	 -30.0164 	 66.8986 	 99.0456
| 21> H 	 -29.4998 	 65.207 	 98.5446
| 22> H 	 -31.1764 	 65.6247 	 98.7429
| 23> S 	 -31.4498 	 72.0914 	 102.813
| 24> C 	 -30.1782 	 72.8779 	 103.692
| 25> C 	 -28.9971 	 72.228 	 103.403
| 26> C 	 -29.127 	 70.9841 	 102.721
| 27> C 	 -30.4357 	 70.7561 	 102.399
| 28> H 	 -28.077 	 72.8209 	 103.711
| 29> C 	 -27.9605 	 70.0797 	 102.578
| 30> H 	 -28.168 	 69.4414 	 101.702
| 31> H 	 -28.1726 	 69.4428 	 103.464
| 32> C 	 -26.5914 	 70.7282 	 102.677
| 33> H 	 -25.821 	 69.9754 	 102.685
| 34> H 	 -26.435 	 71.3466 	 103.546
| 35> C 	 -26.2958 	 71.6371 	 101.503
| 36> H 	 -26.907 	 72.5329 	 101.44
| 37> H 	 -26.358 	 71.0127 	 100.651
| 38> H 	 -25.2511 	 71.9056 	 101.565
| 39> H 	 -33.6165 	 67.3723 	 100.499
| 40> H 	 -30.3381 	 73.8085 	 104.222
| 41> *
| 42>
| 43>                          ****END OF INPUT****

CARTESIAN COORDINATES (ANGSTROEM)
---------------------------------
  S    -32.627700   69.607900  101.130000
  C    -32.636700   67.875200  100.857000
  C    -31.509500   67.266900  101.354000
  C    -30.654500   68.257900  102.010000
  C    -31.029700   69.569400  101.776000
  H    -29.669400   68.085800  102.399000
  C    -31.267800   65.791700  101.436000
  H    -32.163300   65.256900  101.151000
  H    -31.073200   65.478000  102.483000
  C    -30.215500   65.207700  100.475000
  H    -29.300900   65.480300  100.942000
  H    -30.338800   64.107400  100.457000
  C    -30.167000   65.836700   99.133800
  H    -30.016400   66.898600   99.045600
  H    -29.499800   65.207000   98.544600
  H    -31.176400   65.624700   98.742900
  S    -31.449800   72.091400  102.813000
  C    -30.178200   72.877900  103.692000
  C    -28.997100   72.228000  103.403000
  C    -29.127000   70.984100  102.721000
  C    -30.435700   70.756100  102.399000
  H    -28.077000   72.820900  103.711000
  C    -27.960500   70.079700  102.578000
  H    -28.168000   69.441400  101.702000
  H    -28.172600   69.442800  103.464000
  C    -26.591400   70.728200  102.677000
  H    -25.821000   69.975400  102.685000
  H    -26.435000   71.346600  103.546000
  C    -26.295800   71.637100  101.503000
  H    -26.907000   72.532900  101.440000
  H    -26.358000   71.012700  100.651000
  H    -25.251100   71.905600  101.565000
  H    -33.616500   67.372300  100.499000
  H    -30.338100   73.808500  104.222000

 Total Charge           Charge          ....    0
 Multiplicity           Mult            ....    1
 Number of Electrons    NEL             ....  134
 Basis Dimension        Dim             ....  322

ORBITAL ENERGIES
----------------

  NO   OCC          E(Eh)            E(eV)
   0   2.0000     -88.962916     -2420.8040
   1   2.0000     -88.961618     -2420.7687
   2   2.0000     -10.329082      -281.0686
   3   2.0000     -10.322201      -280.8814
   4   2.0000     -10.321011      -280.8490
   5   2.0000     -10.316047      -280.7139
   6   2.0000     -10.305032      -280.4142
   7   2.0000     -10.300431      -280.2890
   8   2.0000     -10.296754      -280.1889
   9   2.0000     -10.296516      -280.1824
  10   2.0000     -10.294190      -280.1191
  11   2.0000     -10.289231      -279.9842
  12   2.0000     -10.285886      -279.8932
  13   2.0000     -10.280086      -279.7354
  14   2.0000     -10.270829      -279.4835
  15   2.0000     -10.270087      -279.4633
  16   2.0000      -8.078504      -219.8273
  17   2.0000      -8.077413      -219.7976
  18   2.0000      -6.037047      -164.2764
  19   2.0000      -6.035929      -164.2460
  20   2.0000      -6.032988      -164.1660
  21   2.0000      -6.031851      -164.1350
  22   2.0000      -6.029084      -164.0597
  23   2.0000      -6.028031      -164.0311
  24   2.0000      -1.014156       -27.5966
  25   2.0000      -0.988672       -26.9031
  26   2.0000      -0.922336       -25.0980
  27   2.0000      -0.918028       -24.9808
  28   2.0000      -0.872869       -23.7520
  29   2.0000      -0.858797       -23.3690
  30   2.0000      -0.842566       -22.9274
  31   2.0000      -0.815094       -22.1798
  32   2.0000      -0.787381       -21.4257
  33   2.0000      -0.777979       -21.1699
  34   2.0000      -0.709965       -19.3191
  35   2.0000      -0.698929       -19.0188
  36   2.0000      -0.689915       -18.7736
  37   2.0000      -0.655532       -17.8379
  38   2.0000      -0.634628       -17.2691
  39   2.0000      -0.622451       -16.9377
  40   2.0000      -0.603444       -16.4205
  41   2.0000      -0.568345       -15.4655
  42   2.0000      -0.562477       -15.3058
  43   2.0000      -0.556063       -15.1312
  44   2.0000      -0.549550       -14.9540
  45   2.0000      -0.541760       -14.7421
  46   2.0000      -0.532126       -14.4799
  47   2.0000      -0.505862       -13.7652
  48   2.0000      -0.503516       -13.7014
  49   2.0000      -0.499877       -13.6024
  50   2.0000      -0.494988       -13.4693
  51   2.0000      -0.476928       -12.9779
  52   2.0000      -0.474265       -12.9054
  53   2.0000      -0.467029       -12.7085
  54   2.0000      -0.459724       -12.5097
  55   2.0000      -0.450250       -12.2519
  56   2.0000      -0.443409       -12.0658
  57   2.0000      -0.435721       -11.8566
  58   2.0000      -0.431505       -11.7419
  59   2.0000      -0.430126       -11.7043
  60   2.0000      -0.424896       -11.5620
  61   2.0000      -0.415203       -11.2982
  62   2.0000      -0.399403       -10.8683
  63   2.0000      -0.359073        -9.7709
  64   2.0000      -0.331278        -9.0145
  65   2.0000      -0.323112        -8.7923
  66   2.0000      -0.286264        -7.7896
  67   0.0000       0.025964         0.7065
  68   0.0000       0.081429         2.2158
  69   0.0000       0.104037         2.8310
  70   0.0000       0.115646         3.1469
  71   0.0000       0.134340         3.6556

MULLIKEN ATOMIC CHARGES
-----------------------
   0 S :    0.084839
   1 C :   -0.153904
   2 C :   -0.087037
   3 C :   -0.002431
   4 C :   -0.119769
   5 H :    0.002719
   6 C :    0.060104
   7 H :    0.005560
   8 H :    0.041650
   9 C :   -0.080796
  10 H :    0.009454
  11 H :    0.040581
  12 C :   -0.020532
  13 H :    0.054328
  14 H :    0.031838
  15 H :    0.007121
  16 S :    0.097348
  17 C :   -0.103917
  18 C :   -0.075062
  19 C :   -0.073689
  20 C :   -0.123248
  21 H :    0.044647
  22 C :    0.042961
  23 H :    0.041491
  24 H :    0.061872
  25 C :   -0.032071
  26 H :    0.021580
  27 H :    0.024035
  28 C :   -0.033431
  29 H :    0.046398
  30 H :    0.016685
  31 H :    0.024138
  32 H :    0.085841
  33 H :    0.060698
Sum of atomic charges:   -0.0000000

LOEWDIN ATOMIC CHARGES
----------------------
   0 S :    0.402412
   1 C :   -0.205423
   2 C :   -0.063884
   3 C :   -0.069517
   4 C :   -0.189523
   5 H :    0.022902
   6 C :   -0.036079
   7 H :    0.024145
   8 H :    0.037478
   9 C :   -0.042249
  10 H :    0.012656
  11 H :    0.030677
  12 C :   -0.063436
  13 H :    0.029087
  14 H :    0.029327
  15 H :    0.023511
  16 S :    0.409501
  17 C :   -0.188364
  18 C :   -0.084653
  19 C :   -0.061423
  20 C :   -0.205640
  21 H :    0.042823
  22 C :   -0.038458
  23 H :    0.034379
  24 H :    0.045826
  25 C :   -0.036880
  26 H :    0.026283
  27 H :    0.022071
  28 C :   -0.056918
  29 H :    0.025533
  30 H :    0.019976
  31 H :    0.025917
  32 H :    0.047297
  33 H :    0.030645

  Mayer bond orders larger than 0.100000
B(  0-S ,  1-C ) :   1.1354 B(  0-S ,  4-C ) :   1.1482 B(  1-C ,  2-C ) :   1.6203
B(  1-C , 32-H ) :   0.9520 B(  2-C ,  3-C ) :   1.2200 B(  2-C ,  6-C ) :   1.0415
B(  3-C ,  4-C ) :   1.5721 B(  3-C ,  5-H ) :   0.9820 B(  4-C , 20-C ) :   1.0625
B(  6-C ,  7-H ) :   0.9360 B(  6-C ,  8-H ) :   0.9461 B(  6-C ,  9-C ) :   1.0580
B(  9-C , 10-H ) :   0.9515 B(  9-C , 11-H ) :   0.9581 B(  9-C , 12-C ) :   1.0957
B( 12-C , 13-H ) :   0.9633 B( 12-C , 14-H ) :   0.9682 B( 12-C , 15-H ) :   0.9732
B( 16-S , 17-C ) :   1.1593 B( 16-S , 20-C ) :   1.1371 B( 17-C , 18-C ) :   1.6030
B( 17-C , 33-H ) :   0.9704 B( 18-C , 19-C ) :   1.2377 B( 18-C , 21-H ) :   0.9757
B( 19-C , 20-C ) :   1.5963 B( 19-C , 22-C ) :   1.0272 B( 22-C , 23-H ) :   0.9243
B( 22-C , 24-H ) :   0.9189 B( 22-C , 25-C ) :   1.0793 B( 25-C , 26-H ) :   0.9477
B( 25-C , 27-H ) :   0.9431 B( 25-C , 28-C ) :   1.0892 B( 28-C , 29-H ) :   0.9744
B( 28-C , 30-H ) :   0.9728 B( 28-C , 31-H ) :   0.9717

Dispersion correction           -0.014349205
FINAL SINGLE POINT ENERGY     -1339.869311912513

DIPOLE MOMENT
-------------
                                X             Y             Z
Electronic contribution:    -21.27377      15.63809       6.07795
Nuclear contribution   :     21.87024     -15.97571      -5.88930
                        -----------------------------------------
Total Dipole Moment    :      0.59647      -0.33763       0.18865
                        -----------------------------------------
Magnitude (a.u.)       :      0.71088
Magnitude (Debye)      :      1.80692

Rotational constants in cm-1:     0.019486     0.009067     0.006685
Rotational constants in MHz :   584.173728   271.810047   200.422804

                             ****ORCA TERMINATED NORMALLY****
TOTAL RUN TIME: 0 days 0 hours 0 minutes 30 seconds 904 msec
