                         Program Version 4.2.1 -  RELEASE  -
|  1> ! wB97X-D3 SP def2-SVP
|  2> %pal
|  3> nprocs 16
|  4> end
|  5>
|  6> * xyz 0 1
|  7> S 	 -69.4215 	 38.8427 	 116.269
|  8> C 	 -69.2291 	 37.4907 	 117.408
|  9> C 	 -69.0577 	 36.2936 	 116.708
| 10> C 	 -68.8271 	 36.5526 	 115.332
| 11> C 	 -68.8661 	 37.8716 	 114.979
| 12> H 	 -68.6419 	 35.7913 	 114.611
| 13> C 	 -68.9293 	 34.9475 	 117.335
| 14> H 	 -69.5378 	 34.1513 	 116.833
| 15> H 	 -69.1673 	 35.1258 	 118.406
| 16> C 	 -67.4489 	 34.4227 	 117.416
| 17> H 	 -67.5629 	 33.3293 	 117.692
| 18> H 	 -67.0261 	 34.4655 	 116.419
| 19> C 	 -66.5471 	 35.0916 	 118.551
| 20> H 	 -66.4382 	 36.18 	 118.419
| 21> H 	 -67.0589 	 34.9975 	 119.525
| 22> H 	 -65.6465 	 34.5052 	 118.639
| 23> S 	 -69.5946 	 39.5864 	 112.963
| 24> C 	 -68.9159 	 39.2949 	 111.326
| 25> C 	 -68.0086 	 38.3343 	 111.371
| 26> C 	 -67.7488 	 37.7264 	 112.658
| 27> C 	 -68.6085 	 38.3175 	 113.616
| 28> H 	 -67.5364 	 38.03 	 110.458
| 29> C 	 -66.6093 	 36.7256 	 112.947
| 30> H 	 -67.1623 	 35.8166 	 112.721
| 31> H 	 -66.3835 	 36.7017 	 114.034
| 32> C 	 -65.3424 	 36.8194 	 112.085
| 33> H 	 -65.609 	 36.8878 	 111.028
| 34> H 	 -64.6868 	 35.9645 	 112.143
| 35> C 	 -64.4619 	 38.0306 	 112.429
| 36> H 	 -64.5016 	 38.1628 	 113.576
| 37> H 	 -64.8034 	 38.8501 	 111.868
| 38> H 	 -63.4883 	 37.8254 	 112.133
| 39> H 	 -69.2202 	 37.4677 	 118.544
| 40> H 	 -69.2311 	 39.7396 	 110.386
| 41> *
| 42>
| 43>                          ****END OF INPUT****

CARTESIAN COORDINATES (ANGSTROEM)
---------------------------------
  S    -69.421500   38.842700  116.269000
  C    -69.229100   37.490700  117.408000
  C    -69.057700   36.293600  116.708000
  C    -68.827100   36.552600  115.332000
  C    -68.866100   37.871600  114.979000
  H    -68.641900   35.791300  114.611000
  C    -68.929300   34.947500  117.335000
  H    -69.537800   34.151300  116.833000
  H    -69.167300   35.125800  118.406000
  C    -67.448900   34.422700  117.416000
  H    -67.562900   33.329300  117.692000
  H    -67.026100   34.465500  116.419000
  C    -66.547100   35.091600  118.551000
  H    -66.438200   36.180000  118.419000
  H    -67.058900   34.997500  119.525000
  H    -65.646500   34.505200  118.639000
  S    -69.594600   39.586400  112.963000
  C    -68.915900   39.294900  111.326000
  C    -68.008600   38.334300  111.371000
  C    -67.748800   37.726400  112.658000
  C    -68.608500   38.317500  113.616000
  H    -67.536400   38.030000  110.458000
  C    -66.609300   36.725600  112.947000
  H    -67.162300   35.816600  112.721000
  H    -66.383500   36.701700  114.034000
  C    -65.342400   36.819400  112.085000
  H    -65.609000   36.887800  111.028000
  H    -64.686800   35.964500  112.143000
  C    -64.461900   38.030600  112.429000
  H    -64.501600   38.162800  113.576000
  H    -64.803400   38.850100  111.868000
  H    -63.488300   37.825400  112.133000
  H    -69.220200   37.467700  118.544000
  H    -69.231100   39.739600  110.386000

 Total Charge           Charge          ....    0
 Multiplicity           Mult            ....    1
 Number of Electrons    NEL             ....  134
 Basis Dimension        Dim             ....  322

ORBITAL ENERGIES
----------------

  NO   OCC          E(Eh)            E(eV)
   0   2.0000     -88.969188     -2420.9747
   1   2.0000     -88.964081     -2420.8357
   2   2.0000     -10.328465      -281.0518
   3   2.0000     -10.324717      -280.9498
   4   2.0000     -10.320880      -280.8454
   5   2.0000     -10.314572      -280.6738
   6   2.0000     -10.308665      -280.5130
   7   2.0000     -10.299041      -280.2512
   8   2.0000     -10.298910      -280.2476
   9   2.0000     -10.298686      -280.2415
  10   2.0000     -10.297213      -280.2014
  11   2.0000     -10.289566      -279.9933
  12   2.0000     -10.286832      -279.9189
  13   2.0000     -10.285933      -279.8945
  14   2.0000     -10.285754      -279.8896
  15   2.0000     -10.271373      -279.4983
  16   2.0000      -8.084014      -219.9772
  17   2.0000      -8.078666      -219.8317
  18   2.0000      -6.042661      -164.4292
  19   2.0000      -6.038637      -164.3197
  20   2.0000      -6.037342      -164.2844
  21   2.0000      -6.034489      -164.2068
  22   2.0000      -6.033323      -164.1751
  23   2.0000      -6.029145      -164.0614
  24   2.0000      -1.010157       -27.4878
  25   2.0000      -0.984465       -26.7886
  26   2.0000      -0.910122       -24.7657
  27   2.0000      -0.907713       -24.7001
  28   2.0000      -0.869822       -23.6691
  29   2.0000      -0.851315       -23.1655
  30   2.0000      -0.841572       -22.9003
  31   2.0000      -0.816735       -22.2245
  32   2.0000      -0.783261       -21.3136
  33   2.0000      -0.773224       -21.0405
  34   2.0000      -0.710619       -19.3369
  35   2.0000      -0.697012       -18.9667
  36   2.0000      -0.693280       -18.8651
  37   2.0000      -0.652700       -17.7609
  38   2.0000      -0.632327       -17.2065
  39   2.0000      -0.623989       -16.9796
  40   2.0000      -0.596301       -16.2262
  41   2.0000      -0.568508       -15.4699
  42   2.0000      -0.558837       -15.2067
  43   2.0000      -0.550059       -14.9679
  44   2.0000      -0.545255       -14.8371
  45   2.0000      -0.537546       -14.6274
  46   2.0000      -0.519804       -14.1446
  47   2.0000      -0.515719       -14.0334
  48   2.0000      -0.499565       -13.5939
  49   2.0000      -0.492681       -13.4065
  50   2.0000      -0.482803       -13.1377
  51   2.0000      -0.479382       -13.0446
  52   2.0000      -0.469341       -12.7714
  53   2.0000      -0.467536       -12.7223
  54   2.0000      -0.459982       -12.5167
  55   2.0000      -0.446806       -12.1582
  56   2.0000      -0.446437       -12.1482
  57   2.0000      -0.436513       -11.8781
  58   2.0000      -0.432071       -11.7573
  59   2.0000      -0.427242       -11.6258
  60   2.0000      -0.426953       -11.6180
  61   2.0000      -0.418820       -11.3967
  62   2.0000      -0.413020       -11.2388
  63   2.0000      -0.358141        -9.7455
  64   2.0000      -0.332033        -9.0351
  65   2.0000      -0.325820        -8.8660
  66   2.0000      -0.283048        -7.7021
  67   0.0000       0.024808         0.6751
  68   0.0000       0.079298         2.1578
  69   0.0000       0.094748         2.5782
  70   0.0000       0.122458         3.3323
  71   0.0000       0.132550         3.6069

MULLIKEN ATOMIC CHARGES
-----------------------
   0 S :    0.117983
   1 C :   -0.145442
   2 C :   -0.072493
   3 C :   -0.004576
   4 C :   -0.106565
   5 H :   -0.005185
   6 C :    0.041489
   7 H :    0.052608
   8 H :    0.015428
   9 C :   -0.103738
  10 H :    0.037450
  11 H :    0.032533
  12 C :   -0.061478
  13 H :    0.051566
  14 H :    0.024402
  15 H :    0.044584
  16 S :    0.087629
  17 C :   -0.079505
  18 C :   -0.027316
  19 C :   -0.068904
  20 C :   -0.139802
  21 H :    0.007421
  22 C :    0.045459
  23 H :    0.039277
  24 H :    0.051932
  25 C :   -0.069106
  26 H :    0.020408
  27 H :    0.024533
  28 C :   -0.019770
  29 H :    0.044247
  30 H :    0.030291
  31 H :    0.016080
  32 H :    0.065749
  33 H :    0.052812
Sum of atomic charges:    0.0000000

LOEWDIN ATOMIC CHARGES
----------------------
   0 S :    0.409961
   1 C :   -0.207052
   2 C :   -0.064695
   3 C :   -0.064305
   4 C :   -0.202112
   5 H :    0.024634
   6 C :   -0.038326
   7 H :    0.041009
   8 H :    0.031198
   9 C :   -0.039416
  10 H :    0.028882
  11 H :    0.016755
  12 C :   -0.068949
  13 H :    0.029174
  14 H :    0.025169
  15 H :    0.027925
  16 S :    0.380516
  17 C :   -0.171935
  18 C :   -0.071729
  19 C :   -0.056174
  20 C :   -0.193277
  21 H :    0.028237
  22 C :   -0.035530
  23 H :    0.034042
  24 H :    0.035787
  25 C :   -0.041858
  26 H :    0.021525
  27 H :    0.023991
  28 C :   -0.054456
  29 H :    0.037847
  30 H :    0.019875
  31 H :    0.015072
  32 H :    0.042969
  33 H :    0.035248

  Mayer bond orders larger than 0.100000
B(  0-S ,  1-C ) :   1.1248 B(  0-S ,  4-C ) :   1.1460 B(  1-C ,  2-C ) :   1.6067
B(  1-C , 32-H ) :   0.9547 B(  2-C ,  3-C ) :   1.2334 B(  2-C ,  6-C ) :   1.0498
B(  3-C ,  4-C ) :   1.5540 B(  3-C ,  5-H ) :   1.0031 B(  4-C , 20-C ) :   1.0573
B(  6-C ,  7-H ) :   0.9376 B(  6-C ,  8-H ) :   0.9375 B(  6-C ,  9-C ) :   1.0587
B(  9-C , 10-H ) :   0.9582 B(  9-C , 11-H ) :   0.9606 B(  9-C , 12-C ) :   1.0636
B( 12-C , 13-H ) :   0.9782 B( 12-C , 14-H ) :   0.9731 B( 12-C , 15-H ) :   0.9764
B( 16-S , 17-C ) :   1.1088 B( 16-S , 20-C ) :   1.1384 B( 17-C , 18-C ) :   1.6753
B( 17-C , 33-H ) :   0.9638 B( 18-C , 19-C ) :   1.2179 B( 18-C , 21-H ) :   0.9843
B( 19-C , 20-C ) :   1.5998 B( 19-C , 22-C ) :   1.0053 B( 22-C , 23-H ) :   0.9218
B( 22-C , 24-H ) :   0.9442 B( 22-C , 25-C ) :   1.0820 B( 25-C , 26-H ) :   0.9497
B( 25-C , 27-H ) :   0.9575 B( 25-C , 28-C ) :   1.0738 B( 28-C , 29-H ) :   0.9759
B( 28-C , 30-H ) :   0.9779 B( 28-C , 31-H ) :   0.9751

Dispersion correction           -0.014619314
FINAL SINGLE POINT ENERGY     -1339.866606874615

DIPOLE MOMENT
-------------
                                X             Y             Z
Electronic contribution:    -21.03936      19.32537      -4.34303
Nuclear contribution   :     21.50975     -20.05779       4.15751
                        -----------------------------------------
Total Dipole Moment    :      0.47039      -0.73242      -0.18553
                        -----------------------------------------
Magnitude (a.u.)       :      0.89001
Magnitude (Debye)      :      2.26223

Rotational constants in cm-1:     0.018258     0.009378     0.006914
Rotational constants in MHz :   547.363160   281.145310   207.280714

                             ****ORCA TERMINATED NORMALLY****
TOTAL RUN TIME: 0 days 0 hours 0 minutes 30 seconds 829 msec
