                         Program Version 4.2.1 -  RELEASE  -
|  1> ! wB97X-D3 SP def2-SVP
|  2> %pal
|  3> nprocs 16
|  4> end
|  5>
|  6> * xyz 0 1
|  7> S 	 -92.9433 	 55.713 	 128.987
|  8> C 	 -91.582 	 56.2946 	 129.976
|  9> C 	 -90.515 	 56.7524 	 129.156
| 10> C 	 -90.7665 	 56.406 	 127.782
| 11> C 	 -92.046 	 55.954 	 127.498
| 12> H 	 -90.0585 	 56.7197 	 127.034
| 13> C 	 -89.2944 	 57.4727 	 129.629
| 14> H 	 -89.7233 	 57.9718 	 130.505
| 15> H 	 -88.9143 	 58.1115 	 128.86
| 16> C 	 -88.2757 	 56.4755 	 130.086
| 17> H 	 -88.7288 	 55.6816 	 130.63
| 18> H 	 -88.0634 	 55.9046 	 129.147
| 19> C 	 -87.0148 	 57.1029 	 130.598
| 20> H 	 -87.1684 	 57.6034 	 131.498
| 21> H 	 -86.2562 	 56.2804 	 130.701
| 22> H 	 -86.5777 	 57.8262 	 129.896
| 23> S 	 -93.7834 	 56.8439 	 125.605
| 24> C 	 -93.9407 	 56.063 	 124.058
| 25> C 	 -92.9933 	 55.0253 	 124.018
| 26> C 	 -92.2797 	 54.7491 	 125.249
| 27> C 	 -92.6175 	 55.66 	 126.231
| 28> H 	 -93.0054 	 54.4365 	 123.157
| 29> C 	 -91.319 	 53.5874 	 125.324
| 30> H 	 -91.6295 	 52.8688 	 124.536
| 31> H 	 -91.5389 	 53.1496 	 126.355
| 32> C 	 -89.8922 	 54.0489 	 125.233
| 33> H 	 -89.8318 	 54.6675 	 126.145
| 34> H 	 -89.6761 	 54.5277 	 124.305
| 35> C 	 -88.9267 	 52.8237 	 125.244
| 36> H 	 -88.9703 	 52.1788 	 124.427
| 37> H 	 -88.9616 	 52.2006 	 126.144
| 38> H 	 -87.9146 	 53.2061 	 125.239
| 39> H 	 -91.6105 	 56.4366 	 131.03
| 40> H 	 -94.5186 	 56.3564 	 123.206
| 41> *
| 42>
| 43>                          ****END OF INPUT****

CARTESIAN COORDINATES (ANGSTROEM)
---------------------------------
  S    -92.943300   55.713000  128.987000
  C    -91.582000   56.294600  129.976000
  C    -90.515000   56.752400  129.156000
  C    -90.766500   56.406000  127.782000
  C    -92.046000   55.954000  127.498000
  H    -90.058500   56.719700  127.034000
  C    -89.294400   57.472700  129.629000
  H    -89.723300   57.971800  130.505000
  H    -88.914300   58.111500  128.860000
  C    -88.275700   56.475500  130.086000
  H    -88.728800   55.681600  130.630000
  H    -88.063400   55.904600  129.147000
  C    -87.014800   57.102900  130.598000
  H    -87.168400   57.603400  131.498000
  H    -86.256200   56.280400  130.701000
  H    -86.577700   57.826200  129.896000
  S    -93.783400   56.843900  125.605000
  C    -93.940700   56.063000  124.058000
  C    -92.993300   55.025300  124.018000
  C    -92.279700   54.749100  125.249000
  C    -92.617500   55.660000  126.231000
  H    -93.005400   54.436500  123.157000
  C    -91.319000   53.587400  125.324000
  H    -91.629500   52.868800  124.536000
  H    -91.538900   53.149600  126.355000
  C    -89.892200   54.048900  125.233000
  H    -89.831800   54.667500  126.145000
  H    -89.676100   54.527700  124.305000
  C    -88.926700   52.823700  125.244000
  H    -88.970300   52.178800  124.427000
  H    -88.961600   52.200600  126.144000
  H    -87.914600   53.206100  125.239000
  H    -91.610500   56.436600  131.030000
  H    -94.518600   56.356400  123.206000

 Total Charge           Charge          ....    0
 Multiplicity           Mult            ....    1
 Number of Electrons    NEL             ....  134
 Basis Dimension        Dim             ....  322

ORBITAL ENERGIES
----------------

  NO   OCC          E(Eh)            E(eV)
   0   2.0000     -88.968794     -2420.9640
   1   2.0000     -88.961756     -2420.7724
   2   2.0000     -10.329677      -281.0848
   3   2.0000     -10.322932      -280.9013
   4   2.0000     -10.318152      -280.7712
   5   2.0000     -10.317634      -280.7571
   6   2.0000     -10.304425      -280.3976
   7   2.0000     -10.303161      -280.3633
   8   2.0000     -10.295946      -280.1669
   9   2.0000     -10.293372      -280.0969
  10   2.0000     -10.289225      -279.9841
  11   2.0000     -10.288912      -279.9755
  12   2.0000     -10.284707      -279.8611
  13   2.0000     -10.281726      -279.7800
  14   2.0000     -10.278171      -279.6833
  15   2.0000     -10.270409      -279.4720
  16   2.0000      -8.082684      -219.9410
  17   2.0000      -8.076303      -219.7674
  18   2.0000      -6.041265      -164.3912
  19   2.0000      -6.037209      -164.2808
  20   2.0000      -6.034919      -164.2185
  21   2.0000      -6.033518      -164.1804
  22   2.0000      -6.030662      -164.1027
  23   2.0000      -6.027117      -164.0062
  24   2.0000      -1.003734       -27.3130
  25   2.0000      -0.978600       -26.6290
  26   2.0000      -0.925606       -25.1870
  27   2.0000      -0.912080       -24.8190
  28   2.0000      -0.870985       -23.7007
  29   2.0000      -0.849959       -23.1286
  30   2.0000      -0.845433       -23.0054
  31   2.0000      -0.813649       -22.1405
  32   2.0000      -0.783956       -21.3325
  33   2.0000      -0.772326       -21.0161
  34   2.0000      -0.710535       -19.3346
  35   2.0000      -0.705430       -19.1957
  36   2.0000      -0.693452       -18.8698
  37   2.0000      -0.664517       -18.0824
  38   2.0000      -0.643202       -17.5024
  39   2.0000      -0.622661       -16.9435
  40   2.0000      -0.588724       -16.0200
  41   2.0000      -0.581591       -15.8259
  42   2.0000      -0.572994       -15.5920
  43   2.0000      -0.559014       -15.2116
  44   2.0000      -0.531729       -14.4691
  45   2.0000      -0.522368       -14.2144
  46   2.0000      -0.519567       -14.1381
  47   2.0000      -0.515081       -14.0161
  48   2.0000      -0.510820       -13.9001
  49   2.0000      -0.506652       -13.7867
  50   2.0000      -0.499734       -13.5985
  51   2.0000      -0.472894       -12.8681
  52   2.0000      -0.471665       -12.8347
  53   2.0000      -0.462882       -12.5957
  54   2.0000      -0.460966       -12.5435
  55   2.0000      -0.451535       -12.2869
  56   2.0000      -0.442936       -12.0529
  57   2.0000      -0.438151       -11.9227
  58   2.0000      -0.433155       -11.7868
  59   2.0000      -0.424765       -11.5584
  60   2.0000      -0.418867       -11.3979
  61   2.0000      -0.412137       -11.2148
  62   2.0000      -0.408961       -11.1284
  63   2.0000      -0.336503        -9.1567
  64   2.0000      -0.327862        -8.9216
  65   2.0000      -0.323623        -8.8062
  66   2.0000      -0.299820        -8.1585
  67   0.0000       0.032215         0.8766
  68   0.0000       0.057424         1.5626
  69   0.0000       0.110275         3.0007
  70   0.0000       0.124581         3.3900
  71   0.0000       0.127202         3.4613

MULLIKEN ATOMIC CHARGES
-----------------------
   0 S :    0.121698
   1 C :   -0.112797
   2 C :   -0.156783
   3 C :    0.063072
   4 C :   -0.180953
   5 H :    0.019822
   6 C :    0.106694
   7 H :    0.024316
   8 H :    0.024541
   9 C :   -0.095318
  10 H :    0.017274
  11 H :    0.011229
  12 C :    0.017331
  13 H :    0.021100
  14 H :    0.039673
  15 H :    0.026551
  16 S :    0.103861
  17 C :   -0.082491
  18 C :   -0.046373
  19 C :   -0.015947
  20 C :   -0.170157
  21 H :   -0.003070
  22 C :    0.052824
  23 H :    0.024922
  24 H :    0.046282
  25 C :   -0.062664
  26 H :    0.034526
  27 H :    0.027575
  28 C :   -0.011846
  29 H :    0.016771
  30 H :    0.023410
  31 H :    0.019218
  32 H :    0.039337
  33 H :    0.056372
Sum of atomic charges:    0.0000000

LOEWDIN ATOMIC CHARGES
----------------------
   0 S :    0.405046
   1 C :   -0.193494
   2 C :   -0.051315
   3 C :   -0.061941
   4 C :   -0.203505
   5 H :    0.029166
   6 C :   -0.028442
   7 H :    0.034027
   8 H :    0.029342
   9 C :   -0.047826
  10 H :    0.021502
  11 H :    0.027270
  12 C :   -0.059413
  13 H :    0.015685
  14 H :    0.035473
  15 H :    0.028818
  16 S :    0.403468
  17 C :   -0.186477
  18 C :   -0.071404
  19 C :   -0.048597
  20 C :   -0.206170
  21 H :    0.016692
  22 C :   -0.034810
  23 H :    0.029571
  24 H :    0.043002
  25 C :   -0.034822
  26 H :    0.032656
  27 H :    0.023539
  28 C :   -0.062634
  29 H :    0.015113
  30 H :    0.025208
  31 H :    0.024422
  32 H :    0.019772
  33 H :    0.031076

  Mayer bond orders larger than 0.100000
B(  0-S ,  1-C ) :   1.1436 B(  0-S ,  4-C ) :   1.1530 B(  1-C ,  2-C ) :   1.5901
B(  1-C ,  4-C ) :   0.1102 B(  1-C , 32-H ) :   0.9687 B(  2-C ,  3-C ) :   1.2656
B(  2-C ,  6-C ) :   1.0212 B(  3-C ,  4-C ) :   1.5652 B(  3-C ,  5-H ) :   0.9762
B(  4-C , 20-C ) :   1.0308 B(  6-C ,  7-H ) :   0.9293 B(  6-C ,  8-H ) :   0.9369
B(  6-C ,  9-C ) :   1.0733 B(  9-C , 10-H ) :   0.9544 B(  9-C , 11-H ) :   0.9473
B(  9-C , 12-C ) :   1.0766 B( 12-C , 13-H ) :   0.9737 B( 12-C , 14-H ) :   0.9712
B( 12-C , 15-H ) :   0.9680 B( 16-S , 17-C ) :   1.1579 B( 16-S , 20-C ) :   1.1398
B( 17-C , 18-C ) :   1.6056 B( 17-C , 20-C ) :   0.1033 B( 17-C , 33-H ) :   0.9705
B( 18-C , 19-C ) :   1.2372 B( 18-C , 21-H ) :   0.9920 B( 19-C , 20-C ) :   1.5943
B( 19-C , 22-C ) :   1.0380 B( 22-C , 23-H ) :   0.9354 B( 22-C , 24-H ) :   0.9315
B( 22-C , 25-C ) :   1.0685 B( 25-C , 26-H ) :   0.9448 B( 25-C , 27-H ) :   0.9550
B( 25-C , 28-C ) :   1.0863 B( 28-C , 29-H ) :   0.9752 B( 28-C , 30-H ) :   0.9730
B( 28-C , 31-H ) :   0.9733

Dispersion correction           -0.014283091
FINAL SINGLE POINT ENERGY     -1339.865877927261

DIPOLE MOMENT
-------------
                                X             Y             Z
Electronic contribution:    -29.22946       6.99845      -3.08510
Nuclear contribution   :     29.90557      -7.04219       2.95877
                        -----------------------------------------
Total Dipole Moment    :      0.67611      -0.04374      -0.12633
                        -----------------------------------------
Magnitude (a.u.)       :      0.68920
Magnitude (Debye)      :      1.75180

Rotational constants in cm-1:     0.018413     0.008712     0.006724
Rotational constants in MHz :   552.016573   261.173640   201.588516

                             ****ORCA TERMINATED NORMALLY****
TOTAL RUN TIME: 0 days 0 hours 0 minutes 33 seconds 378 msec
