                         Program Version 4.2.1 -  RELEASE  -
|  1> ! wB97X-D3 SP def2-SVP
|  2> %pal
|  3> nprocs 16
|  4> end
|  5>
|  6> * xyz 0 1
|  7> S 	 -1.08063 	 75.7553 	 48.3146
|  8> C 	 -0.848499 	 74.1171 	 48.8041
|  9> C 	 -1.43939 	 73.2461 	 47.8731
| 10> C 	 -2.40039 	 73.8761 	 47.0566
| 11> C 	 -2.35029 	 75.241 	 47.1932
| 12> H 	 -2.88449 	 73.3954 	 46.2071
| 13> C 	 -1.15814 	 71.8052 	 47.8933
| 14> H 	 -2.17928 	 71.3359 	 48.1152
| 15> H 	 -0.556595 	 71.7439 	 48.7588
| 16> C 	 -0.502688 	 71.2307 	 46.6457
| 17> H 	 -0.327756 	 70.1617 	 46.7744
| 18> H 	 -1.13567 	 71.2478 	 45.7719
| 19> C 	 0.832098 	 71.9517 	 46.4343
| 20> H 	 1.6032 	 71.3431 	 45.9566
| 21> H 	 0.573393 	 72.8443 	 45.7927
| 22> H 	 1.3032 	 72.2797 	 47.3768
| 23> S 	 -4.27989 	 76.9922 	 47.4737
| 24> C 	 -5.06348 	 77.6837 	 46.0582
| 25> C 	 -4.37333 	 77.3278 	 44.9238
| 26> C 	 -3.18425 	 76.5806 	 45.1566
| 27> C 	 -3.1196 	 76.2256 	 46.4647
| 28> H 	 -4.77098 	 77.5568 	 43.9401
| 29> C 	 -2.22514 	 76.1705 	 44.0889
| 30> H 	 -2.79729 	 75.902 	 43.141
| 31> H 	 -1.83994 	 75.1522 	 44.3162
| 32> C 	 -1.15664 	 77.2779 	 43.7473
| 33> H 	 -0.407417 	 76.8682 	 43.0894
| 34> H 	 -0.751765 	 77.4809 	 44.6886
| 35> C 	 -1.75231 	 78.5582 	 43.1347
| 36> H 	 -2.22968 	 79.2702 	 43.8275
| 37> H 	 -2.43643 	 78.1962 	 42.3651
| 38> H 	 -0.917401 	 79.0766 	 42.8091
| 39> H 	 -0.260598 	 73.8007 	 49.6728
| 40> H 	 -6.02343 	 78.199 	 46.0483
| 41> *
| 42>
| 43>                          ****END OF INPUT****

CARTESIAN COORDINATES (ANGSTROEM)
---------------------------------
  S     -1.080630   75.755300   48.314600
  C     -0.848499   74.117100   48.804100
  C     -1.439390   73.246100   47.873100
  C     -2.400390   73.876100   47.056600
  C     -2.350290   75.241000   47.193200
  H     -2.884490   73.395400   46.207100
  C     -1.158140   71.805200   47.893300
  H     -2.179280   71.335900   48.115200
  H     -0.556595   71.743900   48.758800
  C     -0.502688   71.230700   46.645700
  H     -0.327756   70.161700   46.774400
  H     -1.135670   71.247800   45.771900
  C      0.832098   71.951700   46.434300
  H      1.603200   71.343100   45.956600
  H      0.573393   72.844300   45.792700
  H      1.303200   72.279700   47.376800
  S     -4.279890   76.992200   47.473700
  C     -5.063480   77.683700   46.058200
  C     -4.373330   77.327800   44.923800
  C     -3.184250   76.580600   45.156600
  C     -3.119600   76.225600   46.464700
  H     -4.770980   77.556800   43.940100
  C     -2.225140   76.170500   44.088900
  H     -2.797290   75.902000   43.141000
  H     -1.839940   75.152200   44.316200
  C     -1.156640   77.277900   43.747300
  H     -0.407417   76.868200   43.089400
  H     -0.751765   77.480900   44.688600
  C     -1.752310   78.558200   43.134700
  H     -2.229680   79.270200   43.827500
  H     -2.436430   78.196200   42.365100
  H     -0.917401   79.076600   42.809100
  H     -0.260598   73.800700   49.672800
  H     -6.023430   78.199000   46.048300

 Total Charge           Charge          ....    0
 Multiplicity           Mult            ....    1
 Number of Electrons    NEL             ....  134
 Basis Dimension        Dim             ....  322

ORBITAL ENERGIES
----------------

  NO   OCC          E(Eh)            E(eV)
   0   2.0000     -88.964343     -2420.8428
   1   2.0000     -88.961519     -2420.7660
   2   2.0000     -10.325966      -280.9838
   3   2.0000     -10.316251      -280.7195
   4   2.0000     -10.314519      -280.6723
   5   2.0000     -10.310465      -280.5620
   6   2.0000     -10.297641      -280.2130
   7   2.0000     -10.296279      -280.1760
   8   2.0000     -10.293637      -280.1041
   9   2.0000     -10.291205      -280.0379
  10   2.0000     -10.290518      -280.0192
  11   2.0000     -10.286363      -279.9062
  12   2.0000     -10.286267      -279.9035
  13   2.0000     -10.282448      -279.7996
  14   2.0000     -10.279698      -279.7248
  15   2.0000     -10.272756      -279.5359
  16   2.0000      -8.079185      -219.8458
  17   2.0000      -8.076995      -219.7862
  18   2.0000      -6.037503      -164.2888
  19   2.0000      -6.035455      -164.2331
  20   2.0000      -6.033904      -164.1909
  21   2.0000      -6.031357      -164.1216
  22   2.0000      -6.029926      -164.0826
  23   2.0000      -6.027777      -164.0242
  24   2.0000      -1.012245       -27.5446
  25   2.0000      -0.987528       -26.8720
  26   2.0000      -0.917728       -24.9727
  27   2.0000      -0.906892       -24.6778
  28   2.0000      -0.868817       -23.6417
  29   2.0000      -0.852213       -23.1899
  30   2.0000      -0.847636       -23.0653
  31   2.0000      -0.816228       -22.2107
  32   2.0000      -0.780990       -21.2518
  33   2.0000      -0.765430       -20.8284
  34   2.0000      -0.713063       -19.4034
  35   2.0000      -0.698697       -19.0125
  36   2.0000      -0.688862       -18.7449
  37   2.0000      -0.664398       -18.0792
  38   2.0000      -0.637920       -17.3587
  39   2.0000      -0.621297       -16.9064
  40   2.0000      -0.594965       -16.1898
  41   2.0000      -0.561197       -15.2709
  42   2.0000      -0.556871       -15.1532
  43   2.0000      -0.553777       -15.0690
  44   2.0000      -0.549673       -14.9574
  45   2.0000      -0.540350       -14.7037
  46   2.0000      -0.519578       -14.1384
  47   2.0000      -0.513969       -13.9858
  48   2.0000      -0.502407       -13.6712
  49   2.0000      -0.490169       -13.3382
  50   2.0000      -0.487497       -13.2655
  51   2.0000      -0.472810       -12.8658
  52   2.0000      -0.469363       -12.7720
  53   2.0000      -0.466146       -12.6845
  54   2.0000      -0.455755       -12.4017
  55   2.0000      -0.449416       -12.2292
  56   2.0000      -0.439327       -11.9547
  57   2.0000      -0.438126       -11.9220
  58   2.0000      -0.432656       -11.7732
  59   2.0000      -0.428346       -11.6559
  60   2.0000      -0.423989       -11.5373
  61   2.0000      -0.414534       -11.2800
  62   2.0000      -0.411054       -11.1853
  63   2.0000      -0.339166        -9.2292
  64   2.0000      -0.326939        -8.8965
  65   2.0000      -0.319153        -8.6846
  66   2.0000      -0.299470        -8.1490
  67   0.0000       0.039302         1.0695
  68   0.0000       0.058936         1.6037
  69   0.0000       0.105883         2.8812
  70   0.0000       0.121047         3.2939
  71   0.0000       0.128480         3.4961

MULLIKEN ATOMIC CHARGES
-----------------------
   0 S :    0.120547
   1 C :   -0.136800
   2 C :   -0.143811
   3 C :    0.066934
   4 C :   -0.172359
   5 H :    0.022746
   6 C :    0.075339
   7 H :    0.043374
   8 H :   -0.001343
   9 C :   -0.042444
  10 H :    0.027875
  11 H :    0.025551
  12 C :   -0.074307
  13 H :    0.034579
  14 H :    0.051771
  15 H :    0.032068
  16 S :    0.117533
  17 C :   -0.093098
  18 C :   -0.043961
  19 C :    0.000950
  20 C :   -0.193521
  21 H :    0.015647
  22 C :    0.019313
  23 H :    0.020695
  24 H :    0.023383
  25 C :   -0.031745
  26 H :    0.033341
  27 H :    0.015934
  28 C :   -0.029822
  29 H :    0.046202
  30 H :    0.030306
  31 H :    0.021580
  32 H :    0.057988
  33 H :    0.059555
Sum of atomic charges:   -0.0000000

LOEWDIN ATOMIC CHARGES
----------------------
   0 S :    0.405999
   1 C :   -0.216822
   2 C :   -0.064600
   3 C :   -0.063150
   4 C :   -0.188023
   5 H :    0.036432
   6 C :   -0.034917
   7 H :    0.040005
   8 H :    0.022268
   9 C :   -0.041841
  10 H :    0.025082
  11 H :    0.021674
  12 C :   -0.068461
  13 H :    0.023965
  14 H :    0.036297
  15 H :    0.025933
  16 S :    0.420433
  17 C :   -0.188793
  18 C :   -0.065817
  19 C :   -0.061782
  20 C :   -0.209344
  21 H :    0.029776
  22 C :   -0.040880
  23 H :    0.029412
  24 H :    0.031355
  25 C :   -0.024614
  26 H :    0.024423
  27 H :    0.016701
  28 C :   -0.060182
  29 H :    0.032054
  30 H :    0.025360
  31 H :    0.019964
  32 H :    0.029790
  33 H :    0.032305

  Mayer bond orders larger than 0.100000
B(  0-S ,  1-C ) :   1.1435 B(  0-S ,  4-C ) :   1.1648 B(  1-C ,  2-C ) :   1.5782
B(  1-C , 32-H ) :   0.9634 B(  2-C ,  3-C ) :   1.2503 B(  2-C ,  6-C ) :   1.0299
B(  3-C ,  4-C ) :   1.5796 B(  3-C ,  5-H ) :   0.9897 B(  4-C , 20-C ) :   0.9939
B(  6-C ,  7-H ) :   0.9341 B(  6-C ,  8-H ) :   0.9375 B(  6-C ,  9-C ) :   1.0727
B(  9-C , 10-H ) :   0.9566 B(  9-C , 11-H ) :   0.9590 B(  9-C , 12-C ) :   1.0573
B( 12-C , 13-H ) :   0.9758 B( 12-C , 14-H ) :   0.9724 B( 12-C , 15-H ) :   0.9789
B( 16-S , 17-C ) :   1.1382 B( 16-S , 20-C ) :   1.1650 B( 17-C , 18-C ) :   1.6277
B( 17-C , 33-H ) :   0.9678 B( 18-C , 19-C ) :   1.2175 B( 18-C , 21-H ) :   0.9861
B( 19-C , 20-C ) :   1.6193 B( 19-C , 22-C ) :   1.0455 B( 22-C , 23-H ) :   0.9371
B( 22-C , 24-H ) :   0.9326 B( 22-C , 25-C ) :   1.0572 B( 25-C , 26-H ) :   0.9598
B( 25-C , 27-H ) :   0.9517 B( 25-C , 28-C ) :   1.0797 B( 28-C , 29-H ) :   0.9699
B( 28-C , 30-H ) :   0.9764 B( 28-C , 31-H ) :   0.9710

Dispersion correction           -0.015354499
FINAL SINGLE POINT ENERGY     -1339.865639771941

DIPOLE MOMENT
-------------
                                X             Y             Z
Electronic contribution:    -12.10619      10.28651      17.07415
Nuclear contribution   :     12.24018     -10.65061     -17.59926
                        -----------------------------------------
Total Dipole Moment    :      0.13398      -0.36411      -0.52510
                        -----------------------------------------
Magnitude (a.u.)       :      0.65289
Magnitude (Debye)      :      1.65950

Rotational constants in cm-1:     0.020784     0.008819     0.007371
Rotational constants in MHz :   623.074073   264.382414   220.977875

                             ****ORCA TERMINATED NORMALLY****
TOTAL RUN TIME: 0 days 0 hours 0 minutes 33 seconds 498 msec
