                         Program Version 4.2.1 -  RELEASE  -
|  1> ! wB97X-D3 SP def2-SVP
|  2> %pal
|  3> nprocs 16
|  4> end
|  5>
|  6> * xyz 0 1
|  7> S 	 60.64 	 21.1349 	 81.464
|  8> C 	 59.1072 	 21.8914 	 81.1055
|  9> C 	 58.0244 	 21.0239 	 81.1121
| 10> C 	 58.4699 	 19.7005 	 81.4237
| 11> C 	 59.8007 	 19.6052 	 81.6917
| 12> H 	 57.8489 	 18.7865 	 81.2985
| 13> C 	 56.6006 	 21.308 	 80.8573
| 14> H 	 56.3747 	 21.5691 	 79.8048
| 15> H 	 56.4035 	 22.3413 	 81.1762
| 16> C 	 55.5262 	 20.393 	 81.4427
| 17> H 	 55.585 	 19.2911 	 81.1512
| 18> H 	 55.6648 	 20.3027 	 82.502
| 19> C 	 54.1243 	 20.7763 	 81.0204
| 20> H 	 53.3389 	 20.3003 	 81.6525
| 21> H 	 53.9493 	 21.8555 	 81.0478
| 22> H 	 53.8981 	 20.6704 	 80.0021
| 23> S 	 61.9485 	 18.465 	 82.9934
| 24> C 	 62.2101 	 16.7327 	 82.9151
| 25> C 	 61.1531 	 16.0959 	 82.3243
| 26> C 	 60.1796 	 16.9613 	 81.7635
| 27> C 	 60.4912 	 18.3364 	 82.0205
| 28> H 	 61.2604 	 15.0192 	 82.0968
| 29> C 	 59.1686 	 16.4135 	 80.7175
| 30> H 	 59.6199 	 15.5332 	 80.2435
| 31> H 	 58.8956 	 17.087 	 79.936
| 32> C 	 57.938 	 15.8561 	 81.4441
| 33> H 	 57.5369 	 16.6842 	 82.0403
| 34> H 	 58.2355 	 15.1182 	 82.2621
| 35> C 	 56.9067 	 15.3902 	 80.4506
| 36> H 	 56.1149 	 14.9966 	 81.0273
| 37> H 	 57.2482 	 14.7489 	 79.6617
| 38> H 	 56.4599 	 16.2989 	 80.0614
| 39> H 	 58.8654 	 22.8872 	 80.7156
| 40> H 	 63.0138 	 16.3479 	 83.4107
| 41> *
| 42>
| 43>                          ****END OF INPUT****

CARTESIAN COORDINATES (ANGSTROEM)
---------------------------------
  S     60.640000   21.134900   81.464000
  C     59.107200   21.891400   81.105500
  C     58.024400   21.023900   81.112100
  C     58.469900   19.700500   81.423700
  C     59.800700   19.605200   81.691700
  H     57.848900   18.786500   81.298500
  C     56.600600   21.308000   80.857300
  H     56.374700   21.569100   79.804800
  H     56.403500   22.341300   81.176200
  C     55.526200   20.393000   81.442700
  H     55.585000   19.291100   81.151200
  H     55.664800   20.302700   82.502000
  C     54.124300   20.776300   81.020400
  H     53.338900   20.300300   81.652500
  H     53.949300   21.855500   81.047800
  H     53.898100   20.670400   80.002100
  S     61.948500   18.465000   82.993400
  C     62.210100   16.732700   82.915100
  C     61.153100   16.095900   82.324300
  C     60.179600   16.961300   81.763500
  C     60.491200   18.336400   82.020500
  H     61.260400   15.019200   82.096800
  C     59.168600   16.413500   80.717500
  H     59.619900   15.533200   80.243500
  H     58.895600   17.087000   79.936000
  C     57.938000   15.856100   81.444100
  H     57.536900   16.684200   82.040300
  H     58.235500   15.118200   82.262100
  C     56.906700   15.390200   80.450600
  H     56.114900   14.996600   81.027300
  H     57.248200   14.748900   79.661700
  H     56.459900   16.298900   80.061400
  H     58.865400   22.887200   80.715600
  H     63.013800   16.347900   83.410700

 Total Charge           Charge          ....    0
 Multiplicity           Mult            ....    1
 Number of Electrons    NEL             ....  134
 Basis Dimension        Dim             ....  322

ORBITAL ENERGIES
----------------

  NO   OCC          E(Eh)            E(eV)
   0   2.0000     -88.973267     -2421.0857
   1   2.0000     -88.963473     -2420.8192
   2   2.0000     -10.333848      -281.1983
   3   2.0000     -10.329421      -281.0778
   4   2.0000     -10.313766      -280.6518
   5   2.0000     -10.310001      -280.5494
   6   2.0000     -10.307941      -280.4933
   7   2.0000     -10.300121      -280.2806
   8   2.0000     -10.296105      -280.1713
   9   2.0000     -10.295327      -280.1501
  10   2.0000     -10.294937      -280.1395
  11   2.0000     -10.292456      -280.0720
  12   2.0000     -10.291001      -280.0324
  13   2.0000     -10.288104      -279.9535
  14   2.0000     -10.279230      -279.7121
  15   2.0000     -10.272896      -279.5397
  16   2.0000      -8.087290      -220.0663
  17   2.0000      -8.078379      -219.8239
  18   2.0000      -6.045990      -164.5197
  19   2.0000      -6.042039      -164.4123
  20   2.0000      -6.037756      -164.2957
  21   2.0000      -6.036730      -164.2678
  22   2.0000      -6.032829      -164.1616
  23   2.0000      -6.029355      -164.0671
  24   2.0000      -1.005110       -27.3504
  25   2.0000      -0.983569       -26.7643
  26   2.0000      -0.918274       -24.9875
  27   2.0000      -0.913142       -24.8479
  28   2.0000      -0.870307       -23.6822
  29   2.0000      -0.854913       -23.2634
  30   2.0000      -0.849345       -23.1118
  31   2.0000      -0.816235       -22.2109
  32   2.0000      -0.784854       -21.3570
  33   2.0000      -0.774527       -21.0760
  34   2.0000      -0.717211       -19.5163
  35   2.0000      -0.697260       -18.9734
  36   2.0000      -0.692846       -18.8533
  37   2.0000      -0.662767       -18.0348
  38   2.0000      -0.639617       -17.4049
  39   2.0000      -0.622053       -16.9269
  40   2.0000      -0.604476       -16.4486
  41   2.0000      -0.568652       -15.4738
  42   2.0000      -0.567300       -15.4370
  43   2.0000      -0.557145       -15.1607
  44   2.0000      -0.532090       -14.4789
  45   2.0000      -0.529298       -14.4029
  46   2.0000      -0.514205       -13.9922
  47   2.0000      -0.511786       -13.9264
  48   2.0000      -0.508005       -13.8235
  49   2.0000      -0.497116       -13.5272
  50   2.0000      -0.490202       -13.3391
  51   2.0000      -0.481811       -13.1107
  52   2.0000      -0.475618       -12.9422
  53   2.0000      -0.472728       -12.8636
  54   2.0000      -0.454491       -12.3673
  55   2.0000      -0.452265       -12.3067
  56   2.0000      -0.448709       -12.2100
  57   2.0000      -0.443033       -12.0556
  58   2.0000      -0.439311       -11.9543
  59   2.0000      -0.432721       -11.7749
  60   2.0000      -0.417822       -11.3695
  61   2.0000      -0.412314       -11.2196
  62   2.0000      -0.407706       -11.0943
  63   2.0000      -0.356952        -9.7132
  64   2.0000      -0.334020        -9.0891
  65   2.0000      -0.327758        -8.9187
  66   2.0000      -0.280546        -7.6341
  67   0.0000       0.022245         0.6053
  68   0.0000       0.078829         2.1451
  69   0.0000       0.101728         2.7682
  70   0.0000       0.113279         3.0825
  71   0.0000       0.122638         3.3371

MULLIKEN ATOMIC CHARGES
-----------------------
   0 S :    0.129771
   1 C :   -0.107594
   2 C :   -0.074072
   3 C :   -0.032440
   4 C :   -0.084433
   5 H :    0.005452
   6 C :    0.054583
   7 H :    0.027516
   8 H :    0.011605
   9 C :   -0.072781
  10 H :    0.037790
  11 H :    0.033016
  12 C :   -0.030855
  13 H :    0.045661
  14 H :    0.009858
  15 H :    0.017077
  16 S :    0.082273
  17 C :   -0.066890
  18 C :   -0.024773
  19 C :   -0.036963
  20 C :   -0.149564
  21 H :    0.036091
  22 C :    0.050634
  23 H :    0.022980
  24 H :    0.029968
  25 C :   -0.147406
  26 H :    0.023220
  27 H :    0.037591
  28 C :    0.033995
  29 H :    0.021017
  30 H :    0.037231
  31 H :    0.015745
  32 H :    0.038978
  33 H :    0.025717
Sum of atomic charges:   -0.0000000

LOEWDIN ATOMIC CHARGES
----------------------
   0 S :    0.407645
   1 C :   -0.207869
   2 C :   -0.061287
   3 C :   -0.069056
   4 C :   -0.189328
   5 H :    0.035393
   6 C :   -0.047806
   7 H :    0.038075
   8 H :    0.037387
   9 C :   -0.043683
  10 H :    0.030292
  11 H :    0.025005
  12 C :   -0.067741
  13 H :    0.035671
  14 H :    0.023086
  15 H :    0.019461
  16 S :    0.396358
  17 C :   -0.167747
  18 C :   -0.072435
  19 C :   -0.058194
  20 C :   -0.186028
  21 H :    0.039395
  22 C :   -0.026090
  23 H :    0.030363
  24 H :    0.024309
  25 C :   -0.049116
  26 H :    0.018757
  27 H :    0.028273
  28 C :   -0.059472
  29 H :    0.024631
  30 H :    0.023925
  31 H :    0.027144
  32 H :    0.033033
  33 H :    0.007648

  Mayer bond orders larger than 0.100000
B(  0-S ,  1-C ) :   1.1231 B(  0-S ,  4-C ) :   1.1340 B(  1-C ,  2-C ) :   1.6350
B(  1-C , 32-H ) :   0.9572 B(  2-C ,  3-C ) :   1.2459 B(  2-C ,  6-C ) :   1.0247
B(  3-C ,  4-C ) :   1.5914 B(  3-C ,  5-H ) :   0.9795 B(  4-C , 20-C ) :   1.0510
B(  6-C ,  7-H ) :   0.9223 B(  6-C ,  8-H ) :   0.9213 B(  6-C ,  9-C ) :   1.0667
B(  9-C , 10-H ) :   0.9441 B(  9-C , 11-H ) :   0.9563 B(  9-C , 12-C ) :   1.0800
B( 12-C , 13-H ) :   0.9718 B( 12-C , 14-H ) :   0.9697 B( 12-C , 15-H ) :   0.9723
B( 16-S , 17-C ) :   1.1535 B( 16-S , 20-C ) :   1.1558 B( 17-C , 18-C ) :   1.5996
B( 17-C , 20-C ) :   0.1059 B( 17-C , 33-H ) :   0.9828 B( 18-C , 19-C ) :   1.2698
B( 18-C , 21-H ) :   0.9766 B( 19-C , 20-C ) :   1.5589 B( 19-C , 22-C ) :   1.0254
B( 22-C , 23-H ) :   0.9407 B( 22-C , 24-H ) :   0.9508 B( 22-C , 25-C ) :   1.0453
B( 25-C , 26-H ) :   0.9535 B( 25-C , 27-H ) :   0.9555 B( 25-C , 28-C ) :   1.0774
B( 28-C , 29-H ) :   0.9664 B( 28-C , 30-H ) :   0.9737 B( 28-C , 31-H ) :   0.9661

Dispersion correction           -0.014158131
FINAL SINGLE POINT ENERGY     -1339.864878577466

DIPOLE MOMENT
-------------
                                X             Y             Z
Electronic contribution:     31.86272       9.35893       8.25725
Nuclear contribution   :    -32.51513      -9.62731      -8.62263
                        -----------------------------------------
Total Dipole Moment    :     -0.65241      -0.26838      -0.36538
                        -----------------------------------------
Magnitude (a.u.)       :      0.79446
Magnitude (Debye)      :      2.01935

Rotational constants in cm-1:     0.016453     0.009914     0.006527
Rotational constants in MHz :   493.238981   297.201574   195.677694

                             ****ORCA TERMINATED NORMALLY****
TOTAL RUN TIME: 0 days 0 hours 0 minutes 30 seconds 660 msec
