                         Program Version 4.2.1 -  RELEASE  -
|  1> ! wB97X-D3 SP def2-SVP
|  2> %pal
|  3> nprocs 16
|  4> end
|  5>
|  6> * xyz 0 1
|  7> S 	 41.4689 	 10.6598 	 81.0296
|  8> C 	 43.0137 	 10.6239 	 80.2
|  9> C 	 42.9799 	 11.7131 	 79.3004
| 10> C 	 41.9811 	 12.6712 	 79.6292
| 11> C 	 41.1615 	 12.3484 	 80.7101
| 12> H 	 41.7318 	 13.472 	 79.0248
| 13> C 	 43.9787 	 11.7786 	 78.179
| 14> H 	 44.6497 	 10.8813 	 78.2568
| 15> H 	 44.6599 	 12.6203 	 78.4353
| 16> C 	 43.4242 	 11.9226 	 76.78
| 17> H 	 43.0418 	 10.9934 	 76.444
| 18> H 	 42.5563 	 12.5571 	 76.8038
| 19> C 	 44.4157 	 12.5638 	 75.7269
| 20> H 	 45.3741 	 12.0361 	 75.5701
| 21> H 	 44.0659 	 12.8302 	 74.7614
| 22> H 	 44.6878 	 13.545 	 76.1606
| 23> S 	 38.4061 	 12.4145 	 81.1308
| 24> C 	 37.7257 	 13.8686 	 81.8807
| 25> C 	 38.69 	 14.7767 	 82.3877
| 26> C 	 40.0371 	 14.258 	 82.0403
| 27> C 	 40.009 	 13.0127 	 81.3237
| 28> H 	 38.4617 	 15.6115 	 82.9781
| 29> C 	 41.3209 	 14.9651 	 82.3565
| 30> H 	 42.1203 	 14.3243 	 82.0296
| 31> H 	 41.5593 	 15.1918 	 83.3892
| 32> C 	 41.4579 	 16.1427 	 81.3259
| 33> H 	 40.7384 	 16.9382 	 81.538
| 34> H 	 41.1105 	 15.8136 	 80.305
| 35> C 	 42.8842 	 16.6914 	 81.2493
| 36> H 	 43.645 	 16.2806 	 81.9171
| 37> H 	 42.9151 	 17.7428 	 81.3374
| 38> H 	 43.3729 	 16.4055 	 80.2844
| 39> H 	 43.7464 	 9.73378 	 80.1833
| 40> H 	 36.6915 	 14.1307 	 82.1072
| 41> *
| 42>
| 43>                          ****END OF INPUT****

CARTESIAN COORDINATES (ANGSTROEM)
---------------------------------
  S     41.468900   10.659800   81.029600
  C     43.013700   10.623900   80.200000
  C     42.979900   11.713100   79.300400
  C     41.981100   12.671200   79.629200
  C     41.161500   12.348400   80.710100
  H     41.731800   13.472000   79.024800
  C     43.978700   11.778600   78.179000
  H     44.649700   10.881300   78.256800
  H     44.659900   12.620300   78.435300
  C     43.424200   11.922600   76.780000
  H     43.041800   10.993400   76.444000
  H     42.556300   12.557100   76.803800
  C     44.415700   12.563800   75.726900
  H     45.374100   12.036100   75.570100
  H     44.065900   12.830200   74.761400
  H     44.687800   13.545000   76.160600
  S     38.406100   12.414500   81.130800
  C     37.725700   13.868600   81.880700
  C     38.690000   14.776700   82.387700
  C     40.037100   14.258000   82.040300
  C     40.009000   13.012700   81.323700
  H     38.461700   15.611500   82.978100
  C     41.320900   14.965100   82.356500
  H     42.120300   14.324300   82.029600
  H     41.559300   15.191800   83.389200
  C     41.457900   16.142700   81.325900
  H     40.738400   16.938200   81.538000
  H     41.110500   15.813600   80.305000
  C     42.884200   16.691400   81.249300
  H     43.645000   16.280600   81.917100
  H     42.915100   17.742800   81.337400
  H     43.372900   16.405500   80.284400
  H     43.746400    9.733780   80.183300
  H     36.691500   14.130700   82.107200

 Total Charge           Charge          ....    0
 Multiplicity           Mult            ....    1
 Number of Electrons    NEL             ....  134
 Basis Dimension        Dim             ....  322

ORBITAL ENERGIES
----------------

  NO   OCC          E(Eh)            E(eV)
   0   2.0000     -88.974166     -2421.1102
   1   2.0000     -88.960395     -2420.7354
   2   2.0000     -10.334195      -281.2078
   3   2.0000     -10.329618      -281.0832
   4   2.0000     -10.325191      -280.9627
   5   2.0000     -10.324431      -280.9420
   6   2.0000     -10.312069      -280.6057
   7   2.0000     -10.304950      -280.4120
   8   2.0000     -10.301728      -280.3243
   9   2.0000     -10.296474      -280.1813
  10   2.0000     -10.293682      -280.1053
  11   2.0000     -10.289792      -279.9995
  12   2.0000     -10.288126      -279.9541
  13   2.0000     -10.285932      -279.8944
  14   2.0000     -10.282825      -279.8099
  15   2.0000     -10.273861      -279.5660
  16   2.0000      -8.088302      -220.0939
  17   2.0000      -8.075541      -219.7466
  18   2.0000      -6.046966      -164.5463
  19   2.0000      -6.042857      -164.4345
  20   2.0000      -6.038974      -164.3288
  21   2.0000      -6.034007      -164.1937
  22   2.0000      -6.030145      -164.0886
  23   2.0000      -6.026127      -163.9792
  24   2.0000      -1.004741       -27.3404
  25   2.0000      -0.979713       -26.6594
  26   2.0000      -0.911404       -24.8006
  27   2.0000      -0.905374       -24.6365
  28   2.0000      -0.866570       -23.5806
  29   2.0000      -0.845851       -23.0168
  30   2.0000      -0.841803       -22.9066
  31   2.0000      -0.818371       -22.2690
  32   2.0000      -0.781851       -21.2752
  33   2.0000      -0.763961       -20.7884
  34   2.0000      -0.713333       -19.4108
  35   2.0000      -0.699360       -19.0306
  36   2.0000      -0.690987       -18.8027
  37   2.0000      -0.659851       -17.9555
  38   2.0000      -0.642227       -17.4759
  39   2.0000      -0.624706       -16.9991
  40   2.0000      -0.592363       -16.1190
  41   2.0000      -0.570731       -15.5304
  42   2.0000      -0.561032       -15.2665
  43   2.0000      -0.556245       -15.1362
  44   2.0000      -0.527089       -14.3428
  45   2.0000      -0.520914       -14.1748
  46   2.0000      -0.511900       -13.9295
  47   2.0000      -0.509408       -13.8617
  48   2.0000      -0.506628       -13.7861
  49   2.0000      -0.501343       -13.6422
  50   2.0000      -0.495601       -13.4860
  51   2.0000      -0.476635       -12.9699
  52   2.0000      -0.474001       -12.8982
  53   2.0000      -0.467520       -12.7219
  54   2.0000      -0.457951       -12.4615
  55   2.0000      -0.453535       -12.3413
  56   2.0000      -0.442907       -12.0521
  57   2.0000      -0.436236       -11.8706
  58   2.0000      -0.433114       -11.7856
  59   2.0000      -0.421877       -11.4799
  60   2.0000      -0.418748       -11.3947
  61   2.0000      -0.414331       -11.2745
  62   2.0000      -0.408061       -11.1039
  63   2.0000      -0.343348        -9.3430
  64   2.0000      -0.326344        -8.8803
  65   2.0000      -0.320840        -8.7305
  66   2.0000      -0.290594        -7.9075
  67   0.0000       0.027735         0.7547
  68   0.0000       0.053273         1.4496
  69   0.0000       0.100425         2.7327
  70   0.0000       0.113208         3.0806
  71   0.0000       0.129893         3.5346

MULLIKEN ATOMIC CHARGES
-----------------------
   0 S :    0.094582
   1 C :   -0.148036
   2 C :   -0.118412
   3 C :    0.074887
   4 C :   -0.172938
   5 H :   -0.012204
   6 C :    0.057890
   7 H :    0.021092
   8 H :    0.035971
   9 C :   -0.038565
  10 H :    0.022205
  11 H :    0.022785
  12 C :   -0.058992
  13 H :    0.036779
  14 H :    0.028117
  15 H :    0.021010
  16 S :    0.136984
  17 C :   -0.095569
  18 C :   -0.009216
  19 C :   -0.075783
  20 C :   -0.137674
  21 H :    0.011757
  22 C :    0.087498
  23 H :    0.022876
  24 H :    0.041750
  25 C :   -0.109036
  26 H :    0.026211
  27 H :    0.037737
  28 C :   -0.038396
  29 H :    0.029363
  30 H :    0.027997
  31 H :    0.028698
  32 H :    0.089085
  33 H :    0.059545
Sum of atomic charges:    0.0000000

LOEWDIN ATOMIC CHARGES
----------------------
   0 S :    0.403733
   1 C :   -0.210060
   2 C :   -0.066773
   3 C :   -0.060751
   4 C :   -0.188231
   5 H :    0.017691
   6 C :   -0.036807
   7 H :    0.032988
   8 H :    0.033980
   9 C :   -0.034062
  10 H :    0.020351
  11 H :    0.023237
  12 C :   -0.067427
  13 H :    0.026745
  14 H :    0.020706
  15 H :    0.026553
  16 S :    0.420629
  17 C :   -0.185029
  18 C :   -0.058490
  19 C :   -0.037745
  20 C :   -0.228642
  21 H :    0.025250
  22 C :   -0.034802
  23 H :    0.029429
  24 H :    0.031724
  25 C :   -0.039967
  26 H :    0.019111
  27 H :    0.029122
  28 C :   -0.075192
  29 H :    0.027243
  30 H :    0.020395
  31 H :    0.032324
  32 H :    0.049998
  33 H :    0.032768

  Mayer bond orders larger than 0.100000
B(  0-S ,  1-C ) :   1.1553 B(  0-S ,  4-C ) :   1.1673 B(  1-C ,  2-C ) :   1.5548
B(  1-C ,  4-C ) :   0.1173 B(  1-C , 32-H ) :   0.9604 B(  2-C ,  3-C ) :   1.2681
B(  2-C ,  6-C ) :   1.0316 B(  3-C ,  4-C ) :   1.5270 B(  3-C ,  5-H ) :   1.0067
B(  4-C , 20-C ) :   1.0320 B(  6-C ,  7-H ) :   0.9392 B(  6-C ,  8-H ) :   0.9423
B(  6-C ,  9-C ) :   1.0491 B(  9-C , 10-H ) :   0.9535 B(  9-C , 11-H ) :   0.9625
B(  9-C , 12-C ) :   1.0676 B( 12-C , 13-H ) :   0.9794 B( 12-C , 14-H ) :   0.9782
B( 12-C , 15-H ) :   0.9751 B( 16-S , 17-C ) :   1.1553 B( 16-S , 20-C ) :   1.1373
B( 17-C , 18-C ) :   1.6110 B( 17-C , 33-H ) :   0.9628 B( 18-C , 19-C ) :   1.2312
B( 18-C , 21-H ) :   0.9949 B( 19-C , 20-C ) :   1.5776 B( 19-C , 22-C ) :   1.0644
B( 22-C , 23-H ) :   0.9270 B( 22-C , 24-H ) :   0.9416 B( 22-C , 25-C ) :   1.0354
B( 25-C , 26-H ) :   0.9654 B( 25-C , 27-H ) :   0.9613 B( 25-C , 28-C ) :   1.0585
B( 28-C , 29-H ) :   0.9773 B( 28-C , 30-H ) :   0.9774 B( 28-C , 31-H ) :   0.9769

Dispersion correction           -0.014295511
FINAL SINGLE POINT ENERGY     -1339.843230499972

DIPOLE MOMENT
-------------
                                X             Y             Z
Electronic contribution:    -20.61997     -16.51469      14.30612
Nuclear contribution   :     20.92447      16.97206     -14.58727
                        -----------------------------------------
Total Dipole Moment    :      0.30450       0.45737      -0.28115
                        -----------------------------------------
Magnitude (a.u.)       :      0.61722
Magnitude (Debye)      :      1.56884

Rotational constants in cm-1:     0.017718     0.008587     0.006868
Rotational constants in MHz :   531.182343   257.430934   205.898908

                             ****ORCA TERMINATED NORMALLY****
TOTAL RUN TIME: 0 days 0 hours 0 minutes 29 seconds 998 msec
