                         Program Version 4.2.1 -  RELEASE  -
|  1> ! wB97X-D3 SP def2-SVP
|  2> %pal
|  3> nprocs 16
|  4> end
|  5>
|  6> * xyz 0 1
|  7> S 	 -45.3852 	 23.4124 	 86.5113
|  8> C 	 -44.7364 	 24.5138 	 87.6688
|  9> C 	 -43.3928 	 24.8205 	 87.4492
| 10> C 	 -42.8279 	 24.0564 	 86.3889
| 11> C 	 -43.7897 	 23.214 	 85.8346
| 12> H 	 -41.823 	 24.0991 	 86.0004
| 13> C 	 -42.5816 	 25.6917 	 88.3889
| 14> H 	 -43.2617 	 26.4885 	 88.6277
| 15> H 	 -41.7024 	 26.1298 	 87.8856
| 16> C 	 -42.2664 	 24.9575 	 89.6844
| 17> H 	 -41.754 	 25.6608 	 90.3033
| 18> H 	 -43.1988 	 24.7821 	 90.2336
| 19> C 	 -41.4966 	 23.6034 	 89.4725
| 20> H 	 -41.2009 	 23.2634 	 90.4349
| 21> H 	 -42.0164 	 22.8451 	 88.7851
| 22> H 	 -40.6075 	 23.8062 	 88.8388
| 23> S 	 -43.7582 	 23.3328 	 83.1744
| 24> C 	 -43.269 	 21.9864 	 82.2529
| 25> C 	 -43.2565 	 20.8098 	 82.9918
| 26> C 	 -43.4524 	 21.0542 	 84.3901
| 27> C 	 -43.6572 	 22.3958 	 84.6369
| 28> H 	 -43.123 	 19.8566 	 82.4545
| 29> C 	 -43.387 	 19.9153 	 85.3565
| 30> H 	 -42.9058 	 20.3599 	 86.2668
| 31> H 	 -42.6412 	 19.2997 	 84.9037
| 32> C 	 -44.5949 	 19.1014 	 85.5366
| 33> H 	 -44.7246 	 18.6019 	 84.5846
| 34> H 	 -45.5495 	 19.7456 	 85.6893
| 35> C 	 -44.4117 	 17.9492 	 86.481
| 36> H 	 -43.98 	 18.2885 	 87.4502
| 37> H 	 -43.832 	 17.1208 	 85.9888
| 38> H 	 -45.3461 	 17.4523 	 86.6896
| 39> H 	 -45.2739 	 24.8684 	 88.6095
| 40> H 	 -42.9753 	 22.0058 	 81.1843
| 41> *
| 42>
| 43>                          ****END OF INPUT****

CARTESIAN COORDINATES (ANGSTROEM)
---------------------------------
  S    -45.385200   23.412400   86.511300
  C    -44.736400   24.513800   87.668800
  C    -43.392800   24.820500   87.449200
  C    -42.827900   24.056400   86.388900
  C    -43.789700   23.214000   85.834600
  H    -41.823000   24.099100   86.000400
  C    -42.581600   25.691700   88.388900
  H    -43.261700   26.488500   88.627700
  H    -41.702400   26.129800   87.885600
  C    -42.266400   24.957500   89.684400
  H    -41.754000   25.660800   90.303300
  H    -43.198800   24.782100   90.233600
  C    -41.496600   23.603400   89.472500
  H    -41.200900   23.263400   90.434900
  H    -42.016400   22.845100   88.785100
  H    -40.607500   23.806200   88.838800
  S    -43.758200   23.332800   83.174400
  C    -43.269000   21.986400   82.252900
  C    -43.256500   20.809800   82.991800
  C    -43.452400   21.054200   84.390100
  C    -43.657200   22.395800   84.636900
  H    -43.123000   19.856600   82.454500
  C    -43.387000   19.915300   85.356500
  H    -42.905800   20.359900   86.266800
  H    -42.641200   19.299700   84.903700
  C    -44.594900   19.101400   85.536600
  H    -44.724600   18.601900   84.584600
  H    -45.549500   19.745600   85.689300
  C    -44.411700   17.949200   86.481000
  H    -43.980000   18.288500   87.450200
  H    -43.832000   17.120800   85.988800
  H    -45.346100   17.452300   86.689600
  H    -45.273900   24.868400   88.609500
  H    -42.975300   22.005800   81.184300

 Total Charge           Charge          ....    0
 Multiplicity           Mult            ....    1
 Number of Electrons    NEL             ....  134
 Basis Dimension        Dim             ....  322

ORBITAL ENERGIES
----------------

  NO   OCC          E(Eh)            E(eV)
   0   2.0000     -88.968224     -2420.9484
   1   2.0000     -88.961502     -2420.7655
   2   2.0000     -10.325194      -280.9628
   3   2.0000     -10.317188      -280.7450
   4   2.0000     -10.314173      -280.6629
   5   2.0000     -10.312630      -280.6209
   6   2.0000     -10.299515      -280.2641
   7   2.0000     -10.298078      -280.2250
   8   2.0000     -10.295136      -280.1449
   9   2.0000     -10.291044      -280.0335
  10   2.0000     -10.288008      -279.9509
  11   2.0000     -10.286113      -279.8994
  12   2.0000     -10.284564      -279.8572
  13   2.0000     -10.283048      -279.8160
  14   2.0000     -10.281921      -279.7853
  15   2.0000     -10.279722      -279.7255
  16   2.0000      -8.083214      -219.9554
  17   2.0000      -8.077478      -219.7994
  18   2.0000      -6.041494      -164.3974
  19   2.0000      -6.037713      -164.2945
  20   2.0000      -6.035842      -164.2436
  21   2.0000      -6.034189      -164.1986
  22   2.0000      -6.031842      -164.1348
  23   2.0000      -6.028281      -164.0379
  24   2.0000      -1.009549       -27.4712
  25   2.0000      -0.986150       -26.8345
  26   2.0000      -0.921067       -25.0635
  27   2.0000      -0.911721       -24.8092
  28   2.0000      -0.862704       -23.4754
  29   2.0000      -0.854759       -23.2592
  30   2.0000      -0.845573       -23.0092
  31   2.0000      -0.808655       -22.0046
  32   2.0000      -0.784302       -21.3419
  33   2.0000      -0.768206       -20.9040
  34   2.0000      -0.701998       -19.1023
  35   2.0000      -0.698049       -18.9949
  36   2.0000      -0.686461       -18.6796
  37   2.0000      -0.659339       -17.9415
  38   2.0000      -0.638970       -17.3873
  39   2.0000      -0.609541       -16.5865
  40   2.0000      -0.592723       -16.1288
  41   2.0000      -0.571674       -15.5561
  42   2.0000      -0.567384       -15.4393
  43   2.0000      -0.552396       -15.0315
  44   2.0000      -0.535194       -14.5634
  45   2.0000      -0.523912       -14.2564
  46   2.0000      -0.515210       -14.0196
  47   2.0000      -0.512954       -13.9582
  48   2.0000      -0.508042       -13.8245
  49   2.0000      -0.490825       -13.3560
  50   2.0000      -0.483856       -13.1664
  51   2.0000      -0.475976       -12.9520
  52   2.0000      -0.472748       -12.8641
  53   2.0000      -0.463467       -12.6116
  54   2.0000      -0.457494       -12.4490
  55   2.0000      -0.447031       -12.1643
  56   2.0000      -0.443305       -12.0629
  57   2.0000      -0.438895       -11.9429
  58   2.0000      -0.432717       -11.7748
  59   2.0000      -0.422955       -11.5092
  60   2.0000      -0.421979       -11.4826
  61   2.0000      -0.414283       -11.2732
  62   2.0000      -0.406019       -11.0483
  63   2.0000      -0.339117        -9.2278
  64   2.0000      -0.325644        -8.8612
  65   2.0000      -0.312283        -8.4976
  66   2.0000      -0.308602        -8.3975
  67   0.0000       0.040253         1.0953
  68   0.0000       0.061924         1.6850
  69   0.0000       0.114163         3.1065
  70   0.0000       0.123074         3.3490
  71   0.0000       0.125282         3.4091

MULLIKEN ATOMIC CHARGES
-----------------------
   0 S :    0.136900
   1 C :   -0.146112
   2 C :   -0.111383
   3 C :    0.047838
   4 C :   -0.191377
   5 H :    0.015432
   6 C :    0.072406
   7 H :    0.019543
   8 H :    0.031237
   9 C :   -0.055230
  10 H :    0.022773
  11 H :    0.021476
  12 C :   -0.066936
  13 H :    0.036870
  14 H :    0.065919
  15 H :    0.021948
  16 S :    0.133065
  17 C :   -0.109012
  18 C :   -0.066485
  19 C :   -0.012270
  20 C :   -0.208208
  21 H :    0.027588
  22 C :    0.090313
  23 H :    0.030848
  24 H :    0.003391
  25 C :   -0.066629
  26 H :    0.013270
  27 H :    0.045423
  28 C :   -0.039853
  29 H :    0.038861
  30 H :    0.034938
  31 H :    0.028329
  32 H :    0.069763
  33 H :    0.065363
Sum of atomic charges:    0.0000000

LOEWDIN ATOMIC CHARGES
----------------------
   0 S :    0.428469
   1 C :   -0.222608
   2 C :   -0.064064
   3 C :   -0.056096
   4 C :   -0.206489
   5 H :    0.034442
   6 C :   -0.033489
   7 H :    0.030249
   8 H :    0.031143
   9 C :   -0.036222
  10 H :    0.019827
  11 H :    0.022055
  12 C :   -0.070912
  13 H :    0.020854
  14 H :    0.040224
  15 H :    0.024518
  16 S :    0.433844
  17 C :   -0.205832
  18 C :   -0.082667
  19 C :   -0.051190
  20 C :   -0.217722
  21 H :    0.035208
  22 C :   -0.037239
  23 H :    0.034334
  24 H :    0.028475
  25 C :   -0.050898
  26 H :    0.025534
  27 H :    0.033239
  28 C :   -0.066949
  29 H :    0.027514
  30 H :    0.032063
  31 H :    0.025585
  32 H :    0.039818
  33 H :    0.034982

  Mayer bond orders larger than 0.100000
B(  0-S ,  1-C ) :   1.1496 B(  0-S ,  4-C ) :   1.1813 B(  1-C ,  2-C ) :   1.6002
B(  1-C ,  4-C ) :   0.1034 B(  1-C , 32-H ) :   0.9554 B(  2-C ,  3-C ) :   1.2433
B(  2-C ,  6-C ) :   1.0253 B(  3-C ,  4-C ) :   1.5622 B(  3-C ,  5-H ) :   1.0019
B(  4-C , 20-C ) :   0.9970 B(  6-C ,  7-H ) :   0.9312 B(  6-C ,  8-H ) :   0.9437
B(  6-C ,  9-C ) :   1.0848 B(  9-C , 10-H ) :   0.9550 B(  9-C , 11-H ) :   0.9526
B(  9-C , 12-C ) :   1.0649 B( 12-C , 13-H ) :   0.9751 B( 12-C , 14-H ) :   0.9684
B( 12-C , 15-H ) :   0.9750 B( 16-S , 17-C ) :   1.1731 B( 16-S , 20-C ) :   1.1556
B( 17-C , 18-C ) :   1.6101 B( 17-C , 33-H ) :   0.9609 B( 18-C , 19-C ) :   1.2345
B( 18-C , 21-H ) :   0.9856 B( 19-C , 20-C ) :   1.6095 B( 19-C , 22-C ) :   1.0373
B( 22-C , 23-H ) :   0.9245 B( 22-C , 24-H ) :   0.9228 B( 22-C , 25-C ) :   1.0783
B( 25-C , 26-H ) :   0.9450 B( 25-C , 27-H ) :   0.9512 B( 25-C , 28-C ) :   1.0891
B( 28-C , 29-H ) :   0.9743 B( 28-C , 30-H ) :   0.9720 B( 28-C , 31-H ) :   0.9706

Dispersion correction           -0.014766672
FINAL SINGLE POINT ENERGY     -1339.874566719239

DIPOLE MOMENT
-------------
                                X             Y             Z
Electronic contribution:     -9.02199      11.84479     -17.53142
Nuclear contribution   :      9.32880     -12.04719      17.74570
                        -----------------------------------------
Total Dipole Moment    :      0.30681      -0.20240       0.21428
                        -----------------------------------------
Magnitude (a.u.)       :      0.42546
Magnitude (Debye)      :      1.08144

Rotational constants in cm-1:     0.018421     0.008935     0.007303
Rotational constants in MHz :   552.247324   267.875652   218.930656

                             ****ORCA TERMINATED NORMALLY****
TOTAL RUN TIME: 0 days 0 hours 0 minutes 30 seconds 506 msec
