                         Program Version 4.2.1 -  RELEASE  -
|  1> ! wB97X-D3 SP def2-SVP
|  2> %pal
|  3> nprocs 16
|  4> end
|  5>
|  6> * xyz 0 1
|  7> S 	 -0.872683 	 33.9346 	 36.4324
|  8> C 	 -0.634003 	 32.248 	 36.3111
|  9> C 	 -1.8212 	 31.5982 	 36.1291
| 10> C 	 -2.9385 	 32.4476 	 35.9869
| 11> C 	 -2.62606 	 33.739 	 36.2846
| 12> H 	 -3.98016 	 32.2345 	 35.9659
| 13> C 	 -1.91946 	 30.0195 	 36.0884
| 14> H 	 -2.83794 	 29.7507 	 36.5031
| 15> H 	 -1.24177 	 29.567 	 36.7839
| 16> C 	 -1.75702 	 29.3622 	 34.7134
| 17> H 	 -2.17437 	 29.9659 	 33.9698
| 18> H 	 -0.724657 	 29.3166 	 34.4586
| 19> C 	 -2.42121 	 28.013 	 34.6417
| 20> H 	 -3.37775 	 28.0802 	 35.1797
| 21> H 	 -2.61893 	 27.8092 	 33.5953
| 22> H 	 -1.7675 	 27.2875 	 35.0853
| 23> S 	 -4.67345 	 35.1053 	 35.1201
| 24> C 	 -5.31183 	 36.4918 	 35.9852
| 25> C 	 -4.82239 	 36.5773 	 37.2417
| 26> C 	 -3.82811 	 35.6235 	 37.567
| 27> C 	 -3.54377 	 34.807 	 36.4733
| 28> H 	 -5.17812 	 37.3819 	 37.8277
| 29> C 	 -3.12057 	 35.5786 	 38.9304
| 30> H 	 -2.84833 	 36.552 	 38.9937
| 31> H 	 -2.28957 	 34.8753 	 38.956
| 32> C 	 -4.04995 	 35.1762 	 40.1377
| 33> H 	 -3.90788 	 34.0897 	 40.399
| 34> H 	 -5.11438 	 35.4727 	 39.8665
| 35> C 	 -3.6008 	 35.9634 	 41.4276
| 36> H 	 -3.83022 	 37.0618 	 41.2316
| 37> H 	 -2.56915 	 35.807 	 41.7187
| 38> H 	 -4.23622 	 35.7578 	 42.3058
| 39> H 	 0.279024 	 31.7356 	 36.5454
| 40> H 	 -5.93041 	 37.2753 	 35.513
| 41> *
| 42>
| 43>                          ****END OF INPUT****

CARTESIAN COORDINATES (ANGSTROEM)
---------------------------------
  S     -0.872683   33.934600   36.432400
  C     -0.634003   32.248000   36.311100
  C     -1.821200   31.598200   36.129100
  C     -2.938500   32.447600   35.986900
  C     -2.626060   33.739000   36.284600
  H     -3.980160   32.234500   35.965900
  C     -1.919460   30.019500   36.088400
  H     -2.837940   29.750700   36.503100
  H     -1.241770   29.567000   36.783900
  C     -1.757020   29.362200   34.713400
  H     -2.174370   29.965900   33.969800
  H     -0.724657   29.316600   34.458600
  C     -2.421210   28.013000   34.641700
  H     -3.377750   28.080200   35.179700
  H     -2.618930   27.809200   33.595300
  H     -1.767500   27.287500   35.085300
  S     -4.673450   35.105300   35.120100
  C     -5.311830   36.491800   35.985200
  C     -4.822390   36.577300   37.241700
  C     -3.828110   35.623500   37.567000
  C     -3.543770   34.807000   36.473300
  H     -5.178120   37.381900   37.827700
  C     -3.120570   35.578600   38.930400
  H     -2.848330   36.552000   38.993700
  H     -2.289570   34.875300   38.956000
  C     -4.049950   35.176200   40.137700
  H     -3.907880   34.089700   40.399000
  H     -5.114380   35.472700   39.866500
  C     -3.600800   35.963400   41.427600
  H     -3.830220   37.061800   41.231600
  H     -2.569150   35.807000   41.718700
  H     -4.236220   35.757800   42.305800
  H      0.279024   31.735600   36.545400
  H     -5.930410   37.275300   35.513000

 Total Charge           Charge          ....    0
 Multiplicity           Mult            ....    1
 Number of Electrons    NEL             ....  134
 Basis Dimension        Dim             ....  322

ORBITAL ENERGIES
----------------

  NO   OCC          E(Eh)            E(eV)
   0   2.0000     -88.963910     -2420.8311
   1   2.0000     -88.963465     -2420.8189
   2   2.0000     -10.324495      -280.9438
   3   2.0000     -10.323011      -280.9034
   4   2.0000     -10.316945      -280.7384
   5   2.0000     -10.306454      -280.4529
   6   2.0000     -10.304731      -280.4060
   7   2.0000     -10.300221      -280.2833
   8   2.0000     -10.298996      -280.2499
   9   2.0000     -10.288964      -279.9769
  10   2.0000     -10.287001      -279.9235
  11   2.0000     -10.286810      -279.9183
  12   2.0000     -10.285287      -279.8769
  13   2.0000     -10.283611      -279.8313
  14   2.0000     -10.272116      -279.5185
  15   2.0000     -10.270202      -279.4664
  16   2.0000      -8.078944      -219.8392
  17   2.0000      -8.077848      -219.8094
  18   2.0000      -6.037372      -164.2853
  19   2.0000      -6.036305      -164.2562
  20   2.0000      -6.033411      -164.1775
  21   2.0000      -6.032562      -164.1543
  22   2.0000      -6.029759      -164.0781
  23   2.0000      -6.028521      -164.0444
  24   2.0000      -1.010210       -27.4892
  25   2.0000      -0.986588       -26.8464
  26   2.0000      -0.910499       -24.7759
  27   2.0000      -0.902416       -24.5560
  28   2.0000      -0.878162       -23.8960
  29   2.0000      -0.851577       -23.1726
  30   2.0000      -0.844337       -22.9756
  31   2.0000      -0.815973       -22.2038
  32   2.0000      -0.782579       -21.2951
  33   2.0000      -0.768121       -20.9016
  34   2.0000      -0.706639       -19.2286
  35   2.0000      -0.700775       -19.0691
  36   2.0000      -0.691323       -18.8118
  37   2.0000      -0.666399       -18.1336
  38   2.0000      -0.644975       -17.5507
  39   2.0000      -0.615714       -16.7544
  40   2.0000      -0.596568       -16.2334
  41   2.0000      -0.568682       -15.4746
  42   2.0000      -0.566727       -15.4214
  43   2.0000      -0.560696       -15.2573
  44   2.0000      -0.529224       -14.4009
  45   2.0000      -0.524508       -14.2726
  46   2.0000      -0.517333       -14.0773
  47   2.0000      -0.512047       -13.9335
  48   2.0000      -0.506127       -13.7724
  49   2.0000      -0.503049       -13.6887
  50   2.0000      -0.486167       -13.2293
  51   2.0000      -0.478376       -13.0173
  52   2.0000      -0.473283       -12.8787
  53   2.0000      -0.469669       -12.7803
  54   2.0000      -0.460671       -12.5355
  55   2.0000      -0.448617       -12.2075
  56   2.0000      -0.444862       -12.1053
  57   2.0000      -0.437505       -11.9051
  58   2.0000      -0.427512       -11.6332
  59   2.0000      -0.423775       -11.5315
  60   2.0000      -0.420288       -11.4366
  61   2.0000      -0.415403       -11.3037
  62   2.0000      -0.412084       -11.2134
  63   2.0000      -0.348156        -9.4738
  64   2.0000      -0.335259        -9.1229
  65   2.0000      -0.328164        -8.9298
  66   2.0000      -0.290933        -7.9167
  67   0.0000       0.032389         0.8814
  68   0.0000       0.068074         1.8524
  69   0.0000       0.107491         2.9250
  70   0.0000       0.122213         3.3256
  71   0.0000       0.138005         3.7553

MULLIKEN ATOMIC CHARGES
-----------------------
   0 S :    0.114779
   1 C :   -0.109199
   2 C :   -0.092514
   3 C :    0.043817
   4 C :   -0.167288
   5 H :    0.006876
   6 C :    0.091601
   7 H :   -0.009545
   8 H :    0.010347
   9 C :   -0.034827
  10 H :    0.010439
  11 H :    0.015588
  12 C :   -0.037599
  13 H :    0.029048
  14 H :    0.033678
  15 H :    0.031761
  16 S :    0.097015
  17 C :   -0.097364
  18 C :   -0.033021
  19 C :   -0.019374
  20 C :   -0.189742
  21 H :    0.004171
  22 C :    0.147124
  23 H :    0.005249
  24 H :    0.030288
  25 C :   -0.118655
  26 H :    0.053202
  27 H :    0.049680
  28 C :   -0.092003
  29 H :    0.034187
  30 H :    0.044607
  31 H :    0.036923
  32 H :    0.042508
  33 H :    0.068244
Sum of atomic charges:   -0.0000000

LOEWDIN ATOMIC CHARGES
----------------------
   0 S :    0.413913
   1 C :   -0.212272
   2 C :   -0.057949
   3 C :   -0.064438
   4 C :   -0.185840
   5 H :    0.029101
   6 C :   -0.020831
   7 H :    0.015388
   8 H :    0.025124
   9 C :   -0.037065
  10 H :    0.016359
  11 H :    0.019686
  12 C :   -0.057024
  13 H :    0.026280
  14 H :    0.027902
  15 H :    0.022397
  16 S :    0.383935
  17 C :   -0.179039
  18 C :   -0.074750
  19 C :   -0.045175
  20 C :   -0.188451
  21 H :    0.027138
  22 C :   -0.018340
  23 H :    0.017257
  24 H :    0.029100
  25 C :   -0.040593
  26 H :    0.032009
  27 H :    0.030340
  28 C :   -0.075970
  29 H :    0.028307
  30 H :    0.023327
  31 H :    0.025852
  32 H :    0.027343
  33 H :    0.036978

  Mayer bond orders larger than 0.100000
B(  0-S ,  1-C ) :   1.1363 B(  0-S ,  4-C ) :   1.1407 B(  1-C ,  2-C ) :   1.6287
B(  1-C , 32-H ) :   0.9684 B(  2-C ,  3-C ) :   1.2393 B(  2-C ,  6-C ) :   1.0157
B(  3-C ,  4-C ) :   1.5857 B(  3-C ,  5-H ) :   0.9936 B(  4-C , 20-C ) :   1.0577
B(  6-C ,  7-H ) :   0.9428 B(  6-C ,  8-H ) :   0.9413 B(  6-C ,  9-C ) :   1.0609
B(  9-C , 10-H ) :   0.9587 B(  9-C , 11-H ) :   0.9511 B(  9-C , 12-C ) :   1.0844
B( 12-C , 13-H ) :   0.9766 B( 12-C , 14-H ) :   0.9753 B( 12-C , 15-H ) :   0.9776
B( 16-S , 17-C ) :   1.1401 B( 16-S , 20-C ) :   1.1265 B( 17-C , 18-C ) :   1.6440
B( 17-C , 33-H ) :   0.9614 B( 18-C , 19-C ) :   1.2053 B( 18-C , 21-H ) :   0.9953
B( 19-C , 20-C ) :   1.6021 B( 19-C , 22-C ) :   1.0308 B( 22-C , 23-H ) :   0.9363
B( 22-C , 24-H ) :   0.9299 B( 22-C , 25-C ) :   1.0444 B( 25-C , 26-H ) :   0.9604
B( 25-C , 27-H ) :   0.9647 B( 25-C , 28-C ) :   1.0650 B( 28-C , 29-H ) :   0.9777
B( 28-C , 30-H ) :   0.9772 B( 28-C , 31-H ) :   0.9759

Dispersion correction           -0.013547168
FINAL SINGLE POINT ENERGY     -1339.865687933729

DIPOLE MOMENT
-------------
                                X             Y             Z
Electronic contribution:      0.85220      14.54735     -12.71837
Nuclear contribution   :     -0.97549     -14.65831      13.15630
                        -----------------------------------------
Total Dipole Moment    :     -0.12330      -0.11096       0.43793
                        -----------------------------------------
Magnitude (a.u.)       :      0.46829
Magnitude (Debye)      :      1.19029

Rotational constants in cm-1:     0.019899     0.007242     0.006292
Rotational constants in MHz :   596.562409   217.095524   188.632748

                             ****ORCA TERMINATED NORMALLY****
TOTAL RUN TIME: 0 days 0 hours 0 minutes 31 seconds 845 msec
