                         Program Version 4.2.1 -  RELEASE  -
|  1> ! wB97X-D3 SP def2-SVP
|  2> %pal
|  3> nprocs 16
|  4> end
|  5>
|  6> * xyz 0 1
|  7> S 	 45.6466 	 20.7391 	 88.3694
|  8> C 	 47.2771 	 21.3325 	 88.4395
|  9> C 	 48.1945 	 20.258 	 88.2828
| 10> C 	 47.4991 	 19.0427 	 88.3367
| 11> C 	 46.151 	 19.0892 	 88.3885
| 12> H 	 48.064 	 18.1102 	 88.4482
| 13> C 	 49.6764 	 20.2176 	 88.2771
| 14> H 	 49.9678 	 19.1944 	 88.3482
| 15> H 	 49.9986 	 20.7231 	 89.1595
| 16> C 	 50.3987 	 20.9765 	 87.1451
| 17> H 	 49.8861 	 20.7259 	 86.202
| 18> H 	 50.3206 	 22.0823 	 87.2125
| 19> C 	 51.8818 	 20.6019 	 86.9889
| 20> H 	 52.4533 	 21.0308 	 87.7587
| 21> H 	 52.1727 	 19.5431 	 87.0541
| 22> H 	 52.2689 	 20.9743 	 86.0086
| 23> S 	 43.909 	 18.1268 	 89.6257
| 24> C 	 43.894 	 16.399 	 89.957
| 25> C 	 44.6866 	 15.7454 	 89.0727
| 26> C 	 45.5669 	 16.5664 	 88.2904
| 27> C 	 45.3403 	 17.9152 	 88.5847
| 28> H 	 44.7453 	 14.682 	 89.0387
| 29> C 	 46.5176 	 15.9827 	 87.2552
| 30> H 	 47.059 	 16.8156 	 86.7989
| 31> H 	 45.8351 	 15.4893 	 86.5697
| 32> C 	 47.5779 	 15.0022 	 87.7175
| 33> H 	 48.2135 	 14.5514 	 87.0342
| 34> H 	 46.9722 	 14.1283 	 88.0204
| 35> C 	 48.3228 	 15.3638 	 89.0357
| 36> H 	 47.8151 	 15.3252 	 90.0835
| 37> H 	 48.7882 	 16.3295 	 88.9022
| 38> H 	 49.0462 	 14.5451 	 88.9767
| 39> H 	 47.575 	 22.3438 	 88.575
| 40> H 	 43.0995 	 15.7588 	 90.4302
| 41> *
| 42>
| 43>                          ****END OF INPUT****

CARTESIAN COORDINATES (ANGSTROEM)
---------------------------------
  S     45.646600   20.739100   88.369400
  C     47.277100   21.332500   88.439500
  C     48.194500   20.258000   88.282800
  C     47.499100   19.042700   88.336700
  C     46.151000   19.089200   88.388500
  H     48.064000   18.110200   88.448200
  C     49.676400   20.217600   88.277100
  H     49.967800   19.194400   88.348200
  H     49.998600   20.723100   89.159500
  C     50.398700   20.976500   87.145100
  H     49.886100   20.725900   86.202000
  H     50.320600   22.082300   87.212500
  C     51.881800   20.601900   86.988900
  H     52.453300   21.030800   87.758700
  H     52.172700   19.543100   87.054100
  H     52.268900   20.974300   86.008600
  S     43.909000   18.126800   89.625700
  C     43.894000   16.399000   89.957000
  C     44.686600   15.745400   89.072700
  C     45.566900   16.566400   88.290400
  C     45.340300   17.915200   88.584700
  H     44.745300   14.682000   89.038700
  C     46.517600   15.982700   87.255200
  H     47.059000   16.815600   86.798900
  H     45.835100   15.489300   86.569700
  C     47.577900   15.002200   87.717500
  H     48.213500   14.551400   87.034200
  H     46.972200   14.128300   88.020400
  C     48.322800   15.363800   89.035700
  H     47.815100   15.325200   90.083500
  H     48.788200   16.329500   88.902200
  H     49.046200   14.545100   88.976700
  H     47.575000   22.343800   88.575000
  H     43.099500   15.758800   90.430200

 Total Charge           Charge          ....    0
 Multiplicity           Mult            ....    1
 Number of Electrons    NEL             ....  134
 Basis Dimension        Dim             ....  322

ORBITAL ENERGIES
----------------

  NO   OCC          E(Eh)            E(eV)
   0   2.0000     -88.968963     -2420.9686
   1   2.0000     -88.963668     -2420.8245
   2   2.0000     -10.330577      -281.1093
   3   2.0000     -10.322021      -280.8765
   4   2.0000     -10.317077      -280.7419
   5   2.0000     -10.314531      -280.6726
   6   2.0000     -10.305792      -280.4349
   7   2.0000     -10.297666      -280.2137
   8   2.0000     -10.292760      -280.0802
   9   2.0000     -10.291693      -280.0512
  10   2.0000     -10.289352      -279.9875
  11   2.0000     -10.287411      -279.9347
  12   2.0000     -10.286770      -279.9173
  13   2.0000     -10.286245      -279.9030
  14   2.0000     -10.283055      -279.8161
  15   2.0000     -10.278833      -279.7013
  16   2.0000      -8.083915      -219.9745
  17   2.0000      -8.078027      -219.8143
  18   2.0000      -6.042496      -164.4247
  19   2.0000      -6.038340      -164.3116
  20   2.0000      -6.036720      -164.2675
  21   2.0000      -6.034648      -164.2111
  22   2.0000      -6.032818      -164.1613
  23   2.0000      -6.028369      -164.0403
  24   2.0000      -1.011536       -27.5253
  25   2.0000      -0.985596       -26.8194
  26   2.0000      -0.915547       -24.9133
  27   2.0000      -0.912474       -24.8297
  28   2.0000      -0.871584       -23.7170
  29   2.0000      -0.856446       -23.3051
  30   2.0000      -0.846642       -23.0383
  31   2.0000      -0.815195       -22.1826
  32   2.0000      -0.785046       -21.3622
  33   2.0000      -0.775120       -21.0921
  34   2.0000      -0.712524       -19.3888
  35   2.0000      -0.706012       -19.2116
  36   2.0000      -0.692548       -18.8452
  37   2.0000      -0.660806       -17.9814
  38   2.0000      -0.639361       -17.3979
  39   2.0000      -0.624975       -17.0064
  40   2.0000      -0.587192       -15.9783
  41   2.0000      -0.567981       -15.4556
  42   2.0000      -0.563515       -15.3340
  43   2.0000      -0.558401       -15.1949
  44   2.0000      -0.552536       -15.0353
  45   2.0000      -0.523901       -14.2561
  46   2.0000      -0.520654       -14.1677
  47   2.0000      -0.513096       -13.9620
  48   2.0000      -0.508135       -13.8271
  49   2.0000      -0.500589       -13.6217
  50   2.0000      -0.491225       -13.3669
  51   2.0000      -0.486177       -13.2295
  52   2.0000      -0.466814       -12.7027
  53   2.0000      -0.463575       -12.6145
  54   2.0000      -0.459216       -12.4959
  55   2.0000      -0.456904       -12.4330
  56   2.0000      -0.452818       -12.3218
  57   2.0000      -0.439575       -11.9615
  58   2.0000      -0.429325       -11.6825
  59   2.0000      -0.422504       -11.4969
  60   2.0000      -0.418584       -11.3903
  61   2.0000      -0.416305       -11.3282
  62   2.0000      -0.400838       -10.9074
  63   2.0000      -0.356563        -9.7026
  64   2.0000      -0.333537        -9.0760
  65   2.0000      -0.325463        -8.8563
  66   2.0000      -0.282104        -7.6764
  67   0.0000       0.019783         0.5383
  68   0.0000       0.076912         2.0929
  69   0.0000       0.102052         2.7770
  70   0.0000       0.119377         3.2484
  71   0.0000       0.135077         3.6756

MULLIKEN ATOMIC CHARGES
-----------------------
   0 S :    0.122748
   1 C :   -0.121043
   2 C :   -0.073453
   3 C :   -0.021238
   4 C :   -0.077436
   5 H :   -0.031512
   6 C :    0.114856
   7 H :    0.007228
   8 H :    0.025668
   9 C :   -0.099600
  10 H :    0.031870
  11 H :    0.037167
  12 C :   -0.049235
  13 H :    0.017839
  14 H :    0.029053
  15 H :    0.040225
  16 S :    0.090842
  17 C :   -0.081296
  18 C :   -0.045919
  19 C :   -0.064907
  20 C :   -0.155845
  21 H :    0.007788
  22 C :    0.093401
  23 H :    0.029510
  24 H :    0.041274
  25 C :   -0.070041
  26 H :    0.023181
  27 H :    0.010556
  28 C :   -0.083205
  29 H :    0.069387
  30 H :    0.040950
  31 H :    0.031065
  32 H :    0.036211
  33 H :    0.073910
Sum of atomic charges:    0.0000000

LOEWDIN ATOMIC CHARGES
----------------------
   0 S :    0.425540
   1 C :   -0.200417
   2 C :   -0.056784
   3 C :   -0.071039
   4 C :   -0.206835
   5 H :    0.026958
   6 C :   -0.029223
   7 H :    0.026506
   8 H :    0.033614
   9 C :   -0.040852
  10 H :    0.023588
  11 H :    0.028638
  12 C :   -0.068945
  13 H :    0.016277
  14 H :    0.025929
  15 H :    0.033156
  16 S :    0.379730
  17 C :   -0.195041
  18 C :   -0.068989
  19 C :   -0.052096
  20 C :   -0.172736
  21 H :    0.024222
  22 C :   -0.031427
  23 H :    0.028800
  24 H :    0.038195
  25 C :   -0.043318
  26 H :    0.018978
  27 H :    0.025145
  28 C :   -0.073650
  29 H :    0.044252
  30 H :    0.013803
  31 H :    0.030459
  32 H :    0.021649
  33 H :    0.045913

  Mayer bond orders larger than 0.100000
B(  0-S ,  1-C ) :   1.1534 B(  0-S ,  4-C ) :   1.1428 B(  1-C ,  2-C ) :   1.5445
B(  1-C , 32-H ) :   0.9777 B(  2-C ,  3-C ) :   1.3029 B(  2-C ,  6-C ) :   1.0353
B(  3-C ,  4-C ) :   1.5445 B(  3-C ,  5-H ) :   0.9820 B(  4-C , 20-C ) :   1.0704
B(  6-C ,  7-H ) :   0.9440 B(  6-C ,  8-H ) :   0.9232 B(  6-C ,  9-C ) :   1.0509
B(  9-C , 10-H ) :   0.9643 B(  9-C , 11-H ) :   0.9534 B(  9-C , 12-C ) :   1.0800
B( 12-C , 13-H ) :   0.9747 B( 12-C , 14-H ) :   0.9763 B( 12-C , 15-H ) :   0.9753
B( 16-S , 17-C ) :   1.1267 B( 16-S , 20-C ) :   1.1225 B( 17-C , 18-C ) :   1.6472
B( 17-C , 33-H ) :   0.9515 B( 18-C , 19-C ) :   1.2259 B( 18-C , 21-H ) :   0.9866
B( 19-C , 20-C ) :   1.5939 B( 19-C , 22-C ) :   1.0273 B( 22-C , 23-H ) :   0.9348
B( 22-C , 24-H ) :   0.9369 B( 22-C , 25-C ) :   1.0678 B( 25-C , 26-H ) :   0.9639
B( 25-C , 27-H ) :   0.9446 B( 25-C , 28-C ) :   1.0651 B( 28-C , 29-H ) :   0.9696
B( 28-C , 30-H ) :   0.9724 B( 28-C , 31-H ) :   0.9709

Dispersion correction           -0.014688606
FINAL SINGLE POINT ENERGY     -1339.851149314670

DIPOLE MOMENT
-------------
                                X             Y             Z
Electronic contribution:    -29.61302       9.20686       6.72635
Nuclear contribution   :     30.29770      -9.70373      -6.86015
                        -----------------------------------------
Total Dipole Moment    :      0.68468      -0.49687      -0.13380
                        -----------------------------------------
Magnitude (a.u.)       :      0.85648
Magnitude (Debye)      :      2.17700

Rotational constants in cm-1:     0.019311     0.009072     0.006545
Rotational constants in MHz :   578.942315   271.979322   196.228462

                             ****ORCA TERMINATED NORMALLY****
TOTAL RUN TIME: 0 days 0 hours 0 minutes 29 seconds 328 msec
