                         Program Version 4.2.1 -  RELEASE  -
|  1> ! wB97X-D3 SP def2-SVP
|  2> %pal
|  3> nprocs 16
|  4> end
|  5>
|  6> * xyz 0 1
|  7> S 	 47.5436 	 21.3275 	 88.6923
|  8> C 	 48.305 	 22.4157 	 89.818
|  9> C 	 48.6055 	 21.7552 	 91.0074
| 10> C 	 48.167 	 20.3756 	 91.0002
| 11> C 	 47.484 	 20.0015 	 89.8775
| 12> H 	 48.1878 	 19.637 	 91.7929
| 13> C 	 49.2353 	 22.4262 	 92.1708
| 14> H 	 48.3209 	 22.7227 	 92.6387
| 15> H 	 49.7956 	 23.2838 	 91.8097
| 16> C 	 50.1846 	 21.6413 	 93.0047
| 17> H 	 49.6075 	 20.8507 	 93.4714
| 18> H 	 50.9189 	 21.1711 	 92.3738
| 19> C 	 50.8294 	 22.4637 	 94.135
| 20> H 	 49.9589 	 22.91 	 94.7274
| 21> H 	 51.4023 	 21.8192 	 94.7836
| 22> H 	 51.4496 	 23.2615 	 93.8677
| 23> S 	 45.2659 	 18.3953 	 90.3346
| 24> C 	 45.0983 	 16.9928 	 89.233
| 25> C 	 46.3461 	 16.5967 	 88.7175
| 26> C 	 47.3152 	 17.64 	 88.7943
| 27> C 	 46.8071 	 18.7512 	 89.5447
| 28> H 	 46.4552 	 15.5814 	 88.259
| 29> C 	 48.6936 	 17.6067 	 88.2215
| 30> H 	 49.1712 	 18.4702 	 88.5962
| 31> H 	 48.7618 	 17.5469 	 87.1407
| 32> C 	 49.518 	 16.498 	 88.8974
| 33> H 	 50.5076 	 16.4722 	 88.4264
| 34> H 	 49.2012 	 15.4493 	 88.7582
| 35> C 	 49.7763 	 16.8781 	 90.2824
| 36> H 	 48.8481 	 17.0661 	 90.7782
| 37> H 	 50.3636 	 17.8157 	 90.3863
| 38> H 	 50.3481 	 16.1893 	 90.8637
| 39> H 	 48.6678 	 23.405 	 89.595
| 40> H 	 44.2655 	 16.3175 	 89.2701
| 41> *
| 42>
| 43>                          ****END OF INPUT****

CARTESIAN COORDINATES (ANGSTROEM)
---------------------------------
  S     47.543600   21.327500   88.692300
  C     48.305000   22.415700   89.818000
  C     48.605500   21.755200   91.007400
  C     48.167000   20.375600   91.000200
  C     47.484000   20.001500   89.877500
  H     48.187800   19.637000   91.792900
  C     49.235300   22.426200   92.170800
  H     48.320900   22.722700   92.638700
  H     49.795600   23.283800   91.809700
  C     50.184600   21.641300   93.004700
  H     49.607500   20.850700   93.471400
  H     50.918900   21.171100   92.373800
  C     50.829400   22.463700   94.135000
  H     49.958900   22.910000   94.727400
  H     51.402300   21.819200   94.783600
  H     51.449600   23.261500   93.867700
  S     45.265900   18.395300   90.334600
  C     45.098300   16.992800   89.233000
  C     46.346100   16.596700   88.717500
  C     47.315200   17.640000   88.794300
  C     46.807100   18.751200   89.544700
  H     46.455200   15.581400   88.259000
  C     48.693600   17.606700   88.221500
  H     49.171200   18.470200   88.596200
  H     48.761800   17.546900   87.140700
  C     49.518000   16.498000   88.897400
  H     50.507600   16.472200   88.426400
  H     49.201200   15.449300   88.758200
  C     49.776300   16.878100   90.282400
  H     48.848100   17.066100   90.778200
  H     50.363600   17.815700   90.386300
  H     50.348100   16.189300   90.863700
  H     48.667800   23.405000   89.595000
  H     44.265500   16.317500   89.270100

 Total Charge           Charge          ....    0
 Multiplicity           Mult            ....    1
 Number of Electrons    NEL             ....  134
 Basis Dimension        Dim             ....  322

ORBITAL ENERGIES
----------------

  NO   OCC          E(Eh)            E(eV)
   0   2.0000     -88.970097     -2420.9994
   1   2.0000     -88.960189     -2420.7298
   2   2.0000     -10.329830      -281.0890
   3   2.0000     -10.327545      -281.0268
   4   2.0000     -10.321842      -280.8716
   5   2.0000     -10.310223      -280.5554
   6   2.0000     -10.309273      -280.5296
   7   2.0000     -10.303547      -280.3738
   8   2.0000     -10.300966      -280.3035
   9   2.0000     -10.294550      -280.1290
  10   2.0000     -10.284760      -279.8626
  11   2.0000     -10.283462      -279.8272
  12   2.0000     -10.282761      -279.8081
  13   2.0000     -10.281289      -279.7681
  14   2.0000     -10.279626      -279.7228
  15   2.0000     -10.264170      -279.3023
  16   2.0000      -8.083658      -219.9675
  17   2.0000      -8.074556      -219.7198
  18   2.0000      -6.042067      -164.4130
  19   2.0000      -6.038668      -164.3205
  20   2.0000      -6.034264      -164.2007
  21   2.0000      -6.033120      -164.1695
  22   2.0000      -6.029004      -164.0575
  23   2.0000      -6.025393      -163.9593
  24   2.0000      -1.000291       -27.2193
  25   2.0000      -0.978683       -26.6313
  26   2.0000      -0.921170       -25.0663
  27   2.0000      -0.919838       -25.0301
  28   2.0000      -0.868262       -23.6266
  29   2.0000      -0.849976       -23.1290
  30   2.0000      -0.844776       -22.9875
  31   2.0000      -0.816261       -22.2116
  32   2.0000      -0.782975       -21.3058
  33   2.0000      -0.767941       -20.8967
  34   2.0000      -0.713054       -19.4032
  35   2.0000      -0.699561       -19.0360
  36   2.0000      -0.690463       -18.7885
  37   2.0000      -0.655290       -17.8314
  38   2.0000      -0.638928       -17.3861
  39   2.0000      -0.616100       -16.7649
  40   2.0000      -0.598634       -16.2897
  41   2.0000      -0.579479       -15.7684
  42   2.0000      -0.571245       -15.5444
  43   2.0000      -0.561875       -15.2894
  44   2.0000      -0.542174       -14.7533
  45   2.0000      -0.527093       -14.3429
  46   2.0000      -0.518519       -14.1096
  47   2.0000      -0.512144       -13.9362
  48   2.0000      -0.500802       -13.6275
  49   2.0000      -0.494310       -13.4509
  50   2.0000      -0.488101       -13.2819
  51   2.0000      -0.477722       -12.9995
  52   2.0000      -0.471746       -12.8369
  53   2.0000      -0.462028       -12.5724
  54   2.0000      -0.454316       -12.3626
  55   2.0000      -0.451307       -12.2807
  56   2.0000      -0.448914       -12.2156
  57   2.0000      -0.443242       -12.0612
  58   2.0000      -0.431663       -11.7461
  59   2.0000      -0.423725       -11.5301
  60   2.0000      -0.422933       -11.5086
  61   2.0000      -0.412575       -11.2267
  62   2.0000      -0.408200       -11.1077
  63   2.0000      -0.334814        -9.1107
  64   2.0000      -0.333248        -9.0682
  65   2.0000      -0.315605        -8.5881
  66   2.0000      -0.300264        -8.1706
  67   0.0000       0.032405         0.8818
  68   0.0000       0.051893         1.4121
  69   0.0000       0.093857         2.5540
  70   0.0000       0.126605         3.4451
  71   0.0000       0.132537         3.6065

MULLIKEN ATOMIC CHARGES
-----------------------
   0 S :    0.108338
   1 C :   -0.117817
   2 C :   -0.106363
   3 C :    0.046323
   4 C :   -0.197700
   5 H :    0.009157
   6 C :    0.078719
   7 H :    0.042588
   8 H :    0.014327
   9 C :   -0.072740
  10 H :    0.026142
  11 H :    0.027867
  12 C :   -0.032275
  13 H :    0.032113
  14 H :    0.031760
  15 H :    0.024675
  16 S :    0.115100
  17 C :   -0.087478
  18 C :   -0.054930
  19 C :   -0.039490
  20 C :   -0.172832
  21 H :    0.044746
  22 C :    0.132312
  23 H :    0.008945
  24 H :    0.041265
  25 C :   -0.083069
  26 H :    0.019977
  27 H :    0.031686
  28 C :   -0.045676
  29 H :    0.029633
  30 H :    0.028779
  31 H :    0.020783
  32 H :    0.043062
  33 H :    0.052074
Sum of atomic charges:    0.0000000

LOEWDIN ATOMIC CHARGES
----------------------
   0 S :    0.395124
   1 C :   -0.204949
   2 C :   -0.059175
   3 C :   -0.068872
   4 C :   -0.188705
   5 H :    0.030290
   6 C :   -0.036437
   7 H :    0.038381
   8 H :    0.029380
   9 C :   -0.039585
  10 H :    0.023613
  11 H :    0.023195
  12 C :   -0.059275
  13 H :    0.034968
  14 H :    0.025486
  15 H :    0.014784
  16 S :    0.390981
  17 C :   -0.170340
  18 C :   -0.068033
  19 C :   -0.044760
  20 C :   -0.204373
  21 H :    0.041855
  22 C :   -0.022153
  23 H :    0.027640
  24 H :    0.032847
  25 C :   -0.044114
  26 H :    0.025907
  27 H :    0.022849
  28 C :   -0.066023
  29 H :    0.019540
  30 H :    0.029895
  31 H :    0.021097
  32 H :    0.027173
  33 H :    0.021789

  Mayer bond orders larger than 0.100000
B(  0-S ,  1-C ) :   1.1354 B(  0-S ,  4-C ) :   1.1385 B(  1-C ,  2-C ) :   1.6196
B(  1-C , 32-H ) :   0.9700 B(  2-C ,  3-C ) :   1.2031 B(  2-C ,  6-C ) :   1.0123
B(  3-C ,  4-C ) :   1.6181 B(  3-C ,  5-H ) :   0.9918 B(  4-C , 20-C ) :   1.0214
B(  6-C ,  7-H ) :   0.9272 B(  6-C ,  8-H ) :   0.9405 B(  6-C ,  9-C ) :   1.0798
B(  9-C , 10-H ) :   0.9427 B(  9-C , 11-H ) :   0.9587 B(  9-C , 12-C ) :   1.0897
B( 12-C , 13-H ) :   0.9723 B( 12-C , 14-H ) :   0.9740 B( 12-C , 15-H ) :   0.9771
B( 16-S , 17-C ) :   1.1481 B( 16-S , 20-C ) :   1.1475 B( 17-C , 18-C ) :   1.6095
B( 17-C , 20-C ) :   0.1110 B( 17-C , 33-H ) :   0.9688 B( 18-C , 19-C ) :   1.2350
B( 18-C , 21-H ) :   0.9801 B( 19-C , 20-C ) :   1.5571 B( 19-C , 22-C ) :   1.0541
B( 22-C , 23-H ) :   0.9181 B( 22-C , 24-H ) :   0.9343 B( 22-C , 25-C ) :   1.0699
B( 25-C , 26-H ) :   0.9497 B( 25-C , 27-H ) :   0.9567 B( 25-C , 28-C ) :   1.0814
B( 28-C , 29-H ) :   0.9746 B( 28-C , 30-H ) :   0.9660 B( 28-C , 31-H ) :   0.9660

Dispersion correction           -0.015330616
FINAL SINGLE POINT ENERGY     -1339.864270428527

DIPOLE MOMENT
-------------
                                X             Y             Z
Electronic contribution:    -22.26545       1.43996     -13.27864
Nuclear contribution   :     22.79397      -1.70242      13.59397
                        -----------------------------------------
Total Dipole Moment    :      0.52852      -0.26247       0.31533
                        -----------------------------------------
Magnitude (a.u.)       :      0.66907
Magnitude (Debye)      :      1.70064

Rotational constants in cm-1:     0.020002     0.008220     0.007391
Rotational constants in MHz :   599.656864   246.432472   221.575959

                             ****ORCA TERMINATED NORMALLY****
TOTAL RUN TIME: 0 days 0 hours 0 minutes 30 seconds 113 msec
