                         Program Version 4.2.1 -  RELEASE  -
|  1> ! wB97X-D3 SP def2-SVP
|  2> %pal
|  3> nprocs 16
|  4> end
|  5>
|  6> * xyz 0 1
|  7> S 	 40.5332 	 31.8983 	 50.783
|  8> C 	 40.9087 	 33.2512 	 51.8755
|  9> C 	 39.8951 	 33.5037 	 52.7935
| 10> C 	 38.7604 	 32.6701 	 52.5885
| 11> C 	 38.9332 	 31.7292 	 51.5716
| 12> H 	 37.7742 	 32.6586 	 53.0698
| 13> C 	 40.0164 	 34.5446 	 53.8631
| 14> H 	 40.8619 	 34.2239 	 54.4467
| 15> H 	 39.1973 	 34.4453 	 54.5619
| 16> C 	 40.0917 	 36.0393 	 53.374
| 17> H 	 40.2162 	 36.626 	 54.2269
| 18> H 	 40.9401 	 36.3476 	 52.8054
| 19> C 	 38.8273 	 36.497 	 52.5523
| 20> H 	 39.0314 	 36.037 	 51.5024
| 21> H 	 37.9647 	 36.0544 	 52.9657
| 22> H 	 38.8371 	 37.5933 	 52.4955
| 23> S 	 38.3134 	 29.1323 	 51.06
| 24> C 	 36.6379 	 28.6396 	 50.6988
| 25> C 	 35.8768 	 29.8035 	 50.4706
| 26> C 	 36.5588 	 30.9765 	 50.8199
| 27> C 	 37.8879 	 30.8126 	 51.1753
| 28> H 	 34.8707 	 29.7051 	 50.0861
| 29> C 	 35.8906 	 32.3575 	 50.6609
| 30> H 	 36.1741 	 32.7089 	 49.656
| 31> H 	 36.391 	 33.0511 	 51.3667
| 32> C 	 34.3367 	 32.414 	 50.8148
| 33> H 	 34.0673 	 32.4534 	 51.8235
| 34> H 	 33.8248 	 31.5488 	 50.5094
| 35> C 	 33.7829 	 33.6785 	 50.1143
| 36> H 	 32.7009 	 33.7237 	 50.2605
| 37> H 	 34.0331 	 33.5097 	 49.0662
| 38> H 	 34.1837 	 34.5887 	 50.5423
| 39> H 	 41.8853 	 33.7303 	 51.9225
| 40> H 	 36.2931 	 27.6306 	 50.6889
| 41> *
| 42>
| 43>                          ****END OF INPUT****

CARTESIAN COORDINATES (ANGSTROEM)
---------------------------------
  S     40.533200   31.898300   50.783000
  C     40.908700   33.251200   51.875500
  C     39.895100   33.503700   52.793500
  C     38.760400   32.670100   52.588500
  C     38.933200   31.729200   51.571600
  H     37.774200   32.658600   53.069800
  C     40.016400   34.544600   53.863100
  H     40.861900   34.223900   54.446700
  H     39.197300   34.445300   54.561900
  C     40.091700   36.039300   53.374000
  H     40.216200   36.626000   54.226900
  H     40.940100   36.347600   52.805400
  C     38.827300   36.497000   52.552300
  H     39.031400   36.037000   51.502400
  H     37.964700   36.054400   52.965700
  H     38.837100   37.593300   52.495500
  S     38.313400   29.132300   51.060000
  C     36.637900   28.639600   50.698800
  C     35.876800   29.803500   50.470600
  C     36.558800   30.976500   50.819900
  C     37.887900   30.812600   51.175300
  H     34.870700   29.705100   50.086100
  C     35.890600   32.357500   50.660900
  H     36.174100   32.708900   49.656000
  H     36.391000   33.051100   51.366700
  C     34.336700   32.414000   50.814800
  H     34.067300   32.453400   51.823500
  H     33.824800   31.548800   50.509400
  C     33.782900   33.678500   50.114300
  H     32.700900   33.723700   50.260500
  H     34.033100   33.509700   49.066200
  H     34.183700   34.588700   50.542300
  H     41.885300   33.730300   51.922500
  H     36.293100   27.630600   50.688900

 Total Charge           Charge          ....    0
 Multiplicity           Mult            ....    1
 Number of Electrons    NEL             ....  134
 Basis Dimension        Dim             ....  322

ORBITAL ENERGIES
----------------

  NO   OCC          E(Eh)            E(eV)
   0   2.0000     -88.970507     -2421.0106
   1   2.0000     -88.963444     -2420.8184
   2   2.0000     -10.332056      -281.1495
   3   2.0000     -10.323324      -280.9119
   4   2.0000     -10.321893      -280.8730
   5   2.0000     -10.315706      -280.7046
   6   2.0000     -10.302238      -280.3382
   7   2.0000     -10.302051      -280.3330
   8   2.0000     -10.296173      -280.1731
   9   2.0000     -10.295870      -280.1649
  10   2.0000     -10.294566      -280.1294
  11   2.0000     -10.292843      -280.0825
  12   2.0000     -10.283897      -279.8391
  13   2.0000     -10.283607      -279.8312
  14   2.0000     -10.279116      -279.7090
  15   2.0000     -10.278463      -279.6912
  16   2.0000      -8.083784      -219.9710
  17   2.0000      -8.077987      -219.8132
  18   2.0000      -6.042417      -164.4225
  19   2.0000      -6.038534      -164.3169
  20   2.0000      -6.036451      -164.2602
  21   2.0000      -6.034472      -164.2063
  22   2.0000      -6.032418      -164.1504
  23   2.0000      -6.028905      -164.0548
  24   2.0000      -1.003172       -27.2977
  25   2.0000      -0.978710       -26.6320
  26   2.0000      -0.907432       -24.6925
  27   2.0000      -0.903650       -24.5896
  28   2.0000      -0.867280       -23.5999
  29   2.0000      -0.850858       -23.1530
  30   2.0000      -0.844440       -22.9784
  31   2.0000      -0.812530       -22.1101
  32   2.0000      -0.778432       -21.1822
  33   2.0000      -0.766582       -20.8598
  34   2.0000      -0.710525       -19.3344
  35   2.0000      -0.708414       -19.2769
  36   2.0000      -0.700563       -19.0633
  37   2.0000      -0.661048       -17.9880
  38   2.0000      -0.639542       -17.4028
  39   2.0000      -0.609431       -16.5835
  40   2.0000      -0.593806       -16.1583
  41   2.0000      -0.573077       -15.5942
  42   2.0000      -0.565409       -15.3856
  43   2.0000      -0.555598       -15.1186
  44   2.0000      -0.538659       -14.6577
  45   2.0000      -0.528536       -14.3822
  46   2.0000      -0.516398       -14.0519
  47   2.0000      -0.509134       -13.8542
  48   2.0000      -0.504807       -13.7365
  49   2.0000      -0.495569       -13.4851
  50   2.0000      -0.482969       -13.1422
  51   2.0000      -0.480598       -13.0777
  52   2.0000      -0.470352       -12.7989
  53   2.0000      -0.466506       -12.6943
  54   2.0000      -0.455388       -12.3917
  55   2.0000      -0.448999       -12.2179
  56   2.0000      -0.441460       -12.0127
  57   2.0000      -0.438801       -11.9404
  58   2.0000      -0.435823       -11.8594
  59   2.0000      -0.425405       -11.5759
  60   2.0000      -0.423347       -11.5199
  61   2.0000      -0.417258       -11.3542
  62   2.0000      -0.411712       -11.2033
  63   2.0000      -0.345215        -9.3938
  64   2.0000      -0.333384        -9.0718
  65   2.0000      -0.328380        -8.9357
  66   2.0000      -0.286324        -7.7913
  67   0.0000       0.026251         0.7143
  68   0.0000       0.060445         1.6448
  69   0.0000       0.110940         3.0188
  70   0.0000       0.121553         3.3076
  71   0.0000       0.127158         3.4602

MULLIKEN ATOMIC CHARGES
-----------------------
   0 S :    0.115454
   1 C :   -0.132918
   2 C :   -0.079368
   3 C :    0.005638
   4 C :   -0.144637
   5 H :    0.027984
   6 C :    0.077836
   7 H :    0.034746
   8 H :    0.014953
   9 C :   -0.046751
  10 H :    0.010707
  11 H :    0.018087
  12 C :   -0.074181
  13 H :    0.058730
  14 H :    0.026376
  15 H :    0.046915
  16 S :    0.097781
  17 C :   -0.096781
  18 C :   -0.049389
  19 C :   -0.021896
  20 C :   -0.170506
  21 H :    0.025380
  22 C :    0.060254
  23 H :    0.039569
  24 H :    0.021648
  25 C :   -0.044462
  26 H :    0.010119
  27 H :    0.010423
  28 C :   -0.057263
  29 H :    0.032024
  30 H :    0.039590
  31 H :    0.036725
  32 H :    0.051427
  33 H :    0.055787
Sum of atomic charges:    0.0000000

LOEWDIN ATOMIC CHARGES
----------------------
   0 S :    0.381570
   1 C :   -0.191901
   2 C :   -0.063565
   3 C :   -0.065212
   4 C :   -0.182109
   5 H :    0.036746
   6 C :   -0.030065
   7 H :    0.035472
   8 H :    0.028868
   9 C :   -0.034040
  10 H :    0.013050
  11 H :    0.018873
  12 C :   -0.062730
  13 H :    0.041383
  14 H :    0.013532
  15 H :    0.029107
  16 S :    0.403526
  17 C :   -0.169419
  18 C :   -0.071469
  19 C :   -0.061288
  20 C :   -0.208303
  21 H :    0.032197
  22 C :   -0.027850
  23 H :    0.034872
  24 H :    0.030966
  25 C :   -0.035591
  26 H :    0.016359
  27 H :    0.013792
  28 C :   -0.057871
  29 H :    0.025792
  30 H :    0.026466
  31 H :    0.024680
  32 H :    0.029010
  33 H :    0.025153

  Mayer bond orders larger than 0.100000
B(  0-S ,  1-C ) :   1.1274 B(  0-S ,  4-C ) :   1.1373 B(  1-C ,  2-C ) :   1.6061
B(  1-C ,  4-C ) :   0.1032 B(  1-C , 32-H ) :   0.9682 B(  2-C ,  3-C ) :   1.2308
B(  2-C ,  6-C ) :   1.0183 B(  3-C ,  4-C ) :   1.5772 B(  3-C ,  5-H ) :   0.9867
B(  4-C , 20-C ) :   1.0535 B(  6-C ,  7-H ) :   0.9346 B(  6-C ,  8-H ) :   0.9427
B(  6-C ,  9-C ) :   1.0671 B(  9-C , 10-H ) :   0.9572 B(  9-C , 11-H ) :   0.9600
B(  9-C , 12-C ) :   1.0628 B( 12-C , 13-H ) :   0.9757 B( 12-C , 14-H ) :   0.9817
B( 12-C , 15-H ) :   0.9754 B( 16-S , 17-C ) :   1.1715 B( 16-S , 20-C ) :   1.1436
B( 17-C , 18-C ) :   1.5602 B( 17-C , 20-C ) :   0.1151 B( 17-C , 33-H ) :   0.9749
B( 18-C , 19-C ) :   1.2746 B( 18-C , 21-H ) :   0.9899 B( 19-C , 20-C ) :   1.5684
B( 19-C , 22-C ) :   1.0219 B( 22-C , 23-H ) :   0.9427 B( 22-C , 24-H ) :   0.9342
B( 22-C , 25-C ) :   1.0478 B( 25-C , 26-H ) :   0.9512 B( 25-C , 27-H ) :   0.9583
B( 25-C , 28-C ) :   1.0841 B( 28-C , 29-H ) :   0.9740 B( 28-C , 30-H ) :   0.9807
B( 28-C , 31-H ) :   0.9766

Dispersion correction           -0.014169265
FINAL SINGLE POINT ENERGY     -1339.870596144504

DIPOLE MOMENT
-------------
                                X             Y             Z
Electronic contribution:     15.72463     -25.48552      -4.68427
Nuclear contribution   :    -16.15489      25.95274       4.95983
                        -----------------------------------------
Total Dipole Moment    :     -0.43026       0.46722       0.27556
                        -----------------------------------------
Magnitude (a.u.)       :      0.69235
Magnitude (Debye)      :      1.75981

Rotational constants in cm-1:     0.016725     0.009380     0.006516
Rotational constants in MHz :   501.417852   281.198792   195.342372

                             ****ORCA TERMINATED NORMALLY****
TOTAL RUN TIME: 0 days 0 hours 0 minutes 34 seconds 681 msec
