                         Program Version 4.2.1 -  RELEASE  -
|  1> ! wB97X-D3 SP def2-SVP
|  2> %pal
|  3> nprocs 16
|  4> end
|  5>
|  6> * xyz 0 1
|  7> S 	 46.9446 	 5.41337 	 87.4599
|  8> C 	 47.5435 	 5.88499 	 89.0206
|  9> C 	 46.9557 	 7.04354 	 89.4005
| 10> C 	 45.9176 	 7.50201 	 88.5139
| 11> C 	 45.8399 	 6.74188 	 87.3504
| 12> H 	 45.3104 	 8.34639 	 88.6034
| 13> C 	 47.2579 	 7.67779 	 90.7614
| 14> H 	 47.2365 	 6.83486 	 91.5484
| 15> H 	 46.4758 	 8.39391 	 91.138
| 16> C 	 48.6612 	 8.3769 	 90.8889
| 17> H 	 48.762 	 8.74176 	 91.8832
| 18> H 	 49.5021 	 7.72992 	 90.6838
| 19> C 	 48.8382 	 9.59404 	 90.0269
| 20> H 	 48.1484 	 10.3098 	 90.1996
| 21> H 	 49.7893 	 10.002 	 89.9959
| 22> H 	 48.5846 	 9.29382 	 88.9757
| 23> S 	 45.4364 	 6.04975 	 84.705
| 24> C 	 44.1429 	 6.83055 	 83.8336
| 25> C 	 43.373 	 7.58139 	 84.6977
| 26> C 	 43.7197 	 7.41932 	 86.0736
| 27> C 	 44.9378 	 6.8057 	 86.2604
| 28> H 	 42.5211 	 8.21312 	 84.3944
| 29> C 	 42.8483 	 8.0215 	 87.1269
| 30> H 	 42.8796 	 9.06841 	 86.9924
| 31> H 	 43.2219 	 7.77206 	 88.0897
| 32> C 	 41.3571 	 7.67992 	 86.995
| 33> H 	 40.9999 	 8.19224 	 86.1144
| 34> H 	 40.848 	 8.24647 	 87.7997
| 35> C 	 41.1407 	 6.19482 	 87.0078
| 36> H 	 41.7124 	 5.7281 	 87.8284
| 37> H 	 41.2219 	 5.84567 	 86.0301
| 38> H 	 40.1139 	 5.83922 	 87.1903
| 39> H 	 48.3703 	 5.48796 	 89.4929
| 40> H 	 44.1035 	 6.88569 	 82.7524
| 41> *
| 42>
| 43>                          ****END OF INPUT****

CARTESIAN COORDINATES (ANGSTROEM)
---------------------------------
  S     46.944600    5.413370   87.459900
  C     47.543500    5.884990   89.020600
  C     46.955700    7.043540   89.400500
  C     45.917600    7.502010   88.513900
  C     45.839900    6.741880   87.350400
  H     45.310400    8.346390   88.603400
  C     47.257900    7.677790   90.761400
  H     47.236500    6.834860   91.548400
  H     46.475800    8.393910   91.138000
  C     48.661200    8.376900   90.888900
  H     48.762000    8.741760   91.883200
  H     49.502100    7.729920   90.683800
  C     48.838200    9.594040   90.026900
  H     48.148400   10.309800   90.199600
  H     49.789300   10.002000   89.995900
  H     48.584600    9.293820   88.975700
  S     45.436400    6.049750   84.705000
  C     44.142900    6.830550   83.833600
  C     43.373000    7.581390   84.697700
  C     43.719700    7.419320   86.073600
  C     44.937800    6.805700   86.260400
  H     42.521100    8.213120   84.394400
  C     42.848300    8.021500   87.126900
  H     42.879600    9.068410   86.992400
  H     43.221900    7.772060   88.089700
  C     41.357100    7.679920   86.995000
  H     40.999900    8.192240   86.114400
  H     40.848000    8.246470   87.799700
  C     41.140700    6.194820   87.007800
  H     41.712400    5.728100   87.828400
  H     41.221900    5.845670   86.030100
  H     40.113900    5.839220   87.190300
  H     48.370300    5.487960   89.492900
  H     44.103500    6.885690   82.752400

 Total Charge           Charge          ....    0
 Multiplicity           Mult            ....    1
 Number of Electrons    NEL             ....  134
 Basis Dimension        Dim             ....  322

ORBITAL ENERGIES
----------------

  NO   OCC          E(Eh)            E(eV)
   0   2.0000     -88.962677     -2420.7975
   1   2.0000     -88.962347     -2420.7885
   2   2.0000     -10.329070      -281.0683
   3   2.0000     -10.327255      -281.0189
   4   2.0000     -10.321188      -280.8538
   5   2.0000     -10.305264      -280.4205
   6   2.0000     -10.304675      -280.4045
   7   2.0000     -10.301583      -280.3203
   8   2.0000     -10.301170      -280.3091
   9   2.0000     -10.296573      -280.1840
  10   2.0000     -10.292695      -280.0785
  11   2.0000     -10.286081      -279.8985
  12   2.0000     -10.283880      -279.8386
  13   2.0000     -10.281582      -279.7761
  14   2.0000     -10.270588      -279.4769
  15   2.0000     -10.258492      -279.1478
  16   2.0000      -8.078269      -219.8209
  17   2.0000      -8.076894      -219.7835
  18   2.0000      -6.036823      -164.2703
  19   2.0000      -6.035605      -164.2371
  20   2.0000      -6.032542      -164.1538
  21   2.0000      -6.031464      -164.1245
  22   2.0000      -6.029049      -164.0588
  23   2.0000      -6.027407      -164.0141
  24   2.0000      -1.011954       -27.5367
  25   2.0000      -0.986824       -26.8528
  26   2.0000      -0.918705       -24.9992
  27   2.0000      -0.909393       -24.7458
  28   2.0000      -0.877381       -23.8748
  29   2.0000      -0.853835       -23.2340
  30   2.0000      -0.842044       -22.9132
  31   2.0000      -0.817532       -22.2462
  32   2.0000      -0.788316       -21.4512
  33   2.0000      -0.775876       -21.1127
  34   2.0000      -0.713587       -19.4177
  35   2.0000      -0.705173       -19.1887
  36   2.0000      -0.698490       -19.0069
  37   2.0000      -0.663017       -18.0416
  38   2.0000      -0.646129       -17.5821
  39   2.0000      -0.615509       -16.7489
  40   2.0000      -0.599655       -16.3174
  41   2.0000      -0.575880       -15.6705
  42   2.0000      -0.567393       -15.4396
  43   2.0000      -0.550290       -14.9742
  44   2.0000      -0.546989       -14.8843
  45   2.0000      -0.538306       -14.6481
  46   2.0000      -0.524154       -14.2629
  47   2.0000      -0.516004       -14.0412
  48   2.0000      -0.512608       -13.9488
  49   2.0000      -0.500807       -13.6277
  50   2.0000      -0.486559       -13.2399
  51   2.0000      -0.481830       -13.1113
  52   2.0000      -0.475304       -12.9337
  53   2.0000      -0.472114       -12.8469
  54   2.0000      -0.458511       -12.4767
  55   2.0000      -0.447484       -12.1767
  56   2.0000      -0.442081       -12.0296
  57   2.0000      -0.438847       -11.9416
  58   2.0000      -0.430399       -11.7118
  59   2.0000      -0.424118       -11.5408
  60   2.0000      -0.420011       -11.4291
  61   2.0000      -0.410592       -11.1728
  62   2.0000      -0.405678       -11.0391
  63   2.0000      -0.363282        -9.8854
  64   2.0000      -0.332950        -9.0600
  65   2.0000      -0.325713        -8.8631
  66   2.0000      -0.282199        -7.6790
  67   0.0000       0.016902         0.4599
  68   0.0000       0.080836         2.1997
  69   0.0000       0.099397         2.7047
  70   0.0000       0.114972         3.1286
  71   0.0000       0.143835         3.9139

MULLIKEN ATOMIC CHARGES
-----------------------
   0 S :    0.092538
   1 C :   -0.075375
   2 C :   -0.062148
   3 C :    0.019029
   4 C :   -0.118235
   5 H :   -0.009872
   6 C :   -0.008919
   7 H :    0.048566
   8 H :    0.034417
   9 C :   -0.048570
  10 H :    0.018119
  11 H :    0.023976
  12 C :   -0.003013
  13 H :   -0.005513
  14 H :    0.022499
  15 H :    0.023586
  16 S :    0.082236
  17 C :   -0.073390
  18 C :   -0.048607
  19 C :   -0.084948
  20 C :   -0.111108
  21 H :    0.030092
  22 C :    0.086121
  23 H :    0.022104
  24 H :    0.014362
  25 C :   -0.081212
  26 H :    0.013380
  27 H :    0.027596
  28 C :   -0.005296
  29 H :    0.044516
  30 H :    0.025780
  31 H :    0.018763
  32 H :    0.023475
  33 H :    0.065050
Sum of atomic charges:   -0.0000000

LOEWDIN ATOMIC CHARGES
----------------------
   0 S :    0.414598
   1 C :   -0.185700
   2 C :   -0.064252
   3 C :   -0.064927
   4 C :   -0.185982
   5 H :    0.019689
   6 C :   -0.036561
   7 H :    0.041108
   8 H :    0.033190
   9 C :   -0.036442
  10 H :    0.019119
  11 H :    0.020984
  12 C :   -0.056656
  13 H :    0.007122
  14 H :    0.018209
  15 H :    0.031810
  16 S :    0.376492
  17 C :   -0.178257
  18 C :   -0.072954
  19 C :   -0.053044
  20 C :   -0.181844
  21 H :    0.034404
  22 C :   -0.026500
  23 H :    0.030153
  24 H :    0.021668
  25 C :   -0.038686
  26 H :    0.017205
  27 H :    0.026668
  28 C :   -0.066899
  29 H :    0.035212
  30 H :    0.024090
  31 H :    0.028329
  32 H :    0.016303
  33 H :    0.032351

  Mayer bond orders larger than 0.100000
B(  0-S ,  1-C ) :   1.1320 B(  0-S ,  4-C ) :   1.1531 B(  1-C ,  2-C ) :   1.6190
B(  1-C , 32-H ) :   0.9772 B(  2-C ,  3-C ) :   1.2278 B(  2-C ,  6-C ) :   1.0079
B(  3-C ,  4-C ) :   1.5510 B(  3-C ,  5-H ) :   1.0034 B(  4-C , 20-C ) :   1.1019
B(  6-C ,  7-H ) :   0.9489 B(  6-C ,  8-H ) :   0.9514 B(  6-C ,  9-C ) :   1.0687
B(  9-C , 10-H ) :   0.9543 B(  9-C , 11-H ) :   0.9600 B(  9-C , 12-C ) :   1.0824
B( 12-C , 13-H ) :   0.9707 B( 12-C , 14-H ) :   0.9727 B( 12-C , 15-H ) :   0.9706
B( 16-S , 17-C ) :   1.1479 B( 16-S , 20-C ) :   1.1021 B( 17-C , 18-C ) :   1.6137
B( 17-C , 33-H ) :   0.9680 B( 18-C , 19-C ) :   1.2264 B( 18-C , 21-H ) :   0.9831
B( 19-C , 20-C ) :   1.6024 B( 19-C , 22-C ) :   1.0465 B( 22-C , 23-H ) :   0.9234
B( 22-C , 24-H ) :   0.9341 B( 22-C , 25-C ) :   1.0820 B( 25-C , 26-H ) :   0.9512
B( 25-C , 27-H ) :   0.9531 B( 25-C , 28-C ) :   1.0766 B( 28-C , 29-H ) :   0.9749
B( 28-C , 30-H ) :   0.9655 B( 28-C , 31-H ) :   0.9693

Dispersion correction           -0.014394464
FINAL SINGLE POINT ENERGY     -1339.864471519997

DIPOLE MOMENT
-------------
                                X             Y             Z
Electronic contribution:      7.04536     -13.65015     -16.30290
Nuclear contribution   :     -7.41672      14.21415      16.60961
                        -----------------------------------------
Total Dipole Moment    :     -0.37135       0.56400       0.30671
                        -----------------------------------------
Magnitude (a.u.)       :      0.74167
Magnitude (Debye)      :      1.88517

Rotational constants in cm-1:     0.021890     0.007906     0.006813
Rotational constants in MHz :   656.244113   237.001027   204.249392

                             ****ORCA TERMINATED NORMALLY****
TOTAL RUN TIME: 0 days 0 hours 0 minutes 30 seconds 117 msec
