                         Program Version 4.2.1 -  RELEASE  -
|  1> ! wB97X-D3 SP def2-SVP
|  2> %pal
|  3> nprocs 16
|  4> end
|  5>
|  6> * xyz 0 1
|  7> S 	 32.9818 	 -2.59138 	 67.4629
|  8> C 	 31.9775 	 -1.09719 	 67.5639
|  9> C 	 32.4694 	 -0.198714 	 68.5114
| 10> C 	 33.5304 	 -0.729979 	 69.2335
| 11> C 	 33.8867 	 -2.02362 	 68.8463
| 12> H 	 34.137 	 -0.246939 	 69.9801
| 13> C 	 31.8196 	 1.12259 	 68.9008
| 14> H 	 32.0805 	 1.30427 	 69.9178
| 15> H 	 30.7878 	 1.03617 	 68.731
| 16> C 	 32.2654 	 2.39268 	 68.0525
| 17> H 	 32.0349 	 2.21815 	 67.0166
| 18> H 	 31.6744 	 3.24646 	 68.4154
| 19> C 	 33.689 	 2.78747 	 68.2275
| 20> H 	 33.9087 	 3.14026 	 69.2721
| 21> H 	 34.2722 	 1.9873 	 67.8643
| 22> H 	 33.8551 	 3.66732 	 67.6067
| 23> S 	 34.0256 	 -4.11354 	 70.5727
| 24> C 	 35.5283 	 -4.60743 	 71.2568
| 25> C 	 36.6175 	 -3.80218 	 70.7692
| 26> C 	 36.1132 	 -2.73415 	 69.8893
| 27> C 	 34.7684 	 -2.86252 	 69.5828
| 28> H 	 37.6987 	 -4.01798 	 71.0648
| 29> C 	 36.9712 	 -1.73753 	 69.1209
| 30> H 	 37.564 	 -1.24992 	 69.8582
| 31> H 	 36.4595 	 -0.845906 	 68.7335
| 32> C 	 37.8523 	 -2.34972 	 68.0699
| 33> H 	 37.3858 	 -2.53124 	 67.1018
| 34> H 	 38.4347 	 -3.21546 	 68.3243
| 35> C 	 38.9341 	 -1.36008 	 67.6918
| 36> H 	 39.3632 	 -1.59276 	 66.7172
| 37> H 	 39.7687 	 -1.41366 	 68.3976
| 38> H 	 38.5428 	 -0.381416 	 67.5382
| 39> H 	 31.1975 	 -0.830317 	 66.9588
| 40> H 	 35.6432 	 -5.39739 	 72.0113
| 41> *
| 42>
| 43>                          ****END OF INPUT****

CARTESIAN COORDINATES (ANGSTROEM)
---------------------------------
  S     32.981800   -2.591380   67.462900
  C     31.977500   -1.097190   67.563900
  C     32.469400   -0.198714   68.511400
  C     33.530400   -0.729979   69.233500
  C     33.886700   -2.023620   68.846300
  H     34.137000   -0.246939   69.980100
  C     31.819600    1.122590   68.900800
  H     32.080500    1.304270   69.917800
  H     30.787800    1.036170   68.731000
  C     32.265400    2.392680   68.052500
  H     32.034900    2.218150   67.016600
  H     31.674400    3.246460   68.415400
  C     33.689000    2.787470   68.227500
  H     33.908700    3.140260   69.272100
  H     34.272200    1.987300   67.864300
  H     33.855100    3.667320   67.606700
  S     34.025600   -4.113540   70.572700
  C     35.528300   -4.607430   71.256800
  C     36.617500   -3.802180   70.769200
  C     36.113200   -2.734150   69.889300
  C     34.768400   -2.862520   69.582800
  H     37.698700   -4.017980   71.064800
  C     36.971200   -1.737530   69.120900
  H     37.564000   -1.249920   69.858200
  H     36.459500   -0.845906   68.733500
  C     37.852300   -2.349720   68.069900
  H     37.385800   -2.531240   67.101800
  H     38.434700   -3.215460   68.324300
  C     38.934100   -1.360080   67.691800
  H     39.363200   -1.592760   66.717200
  H     39.768700   -1.413660   68.397600
  H     38.542800   -0.381416   67.538200
  H     31.197500   -0.830317   66.958800
  H     35.643200   -5.397390   72.011300

 Total Charge           Charge          ....    0
 Multiplicity           Mult            ....    1
 Number of Electrons    NEL             ....  134
 Basis Dimension        Dim             ....  322

ORBITAL ENERGIES
----------------

  NO   OCC          E(Eh)            E(eV)
   0   2.0000     -88.972030     -2421.0520
   1   2.0000     -88.963219     -2420.8123
   2   2.0000     -10.325131      -280.9611
   3   2.0000     -10.323802      -280.9249
   4   2.0000     -10.319331      -280.8033
   5   2.0000     -10.311546      -280.5914
   6   2.0000     -10.309525      -280.5364
   7   2.0000     -10.307053      -280.4692
   8   2.0000     -10.298765      -280.2436
   9   2.0000     -10.289753      -279.9984
  10   2.0000     -10.288304      -279.9590
  11   2.0000     -10.287233      -279.9298
  12   2.0000     -10.284808      -279.8638
  13   2.0000     -10.276709      -279.6435
  14   2.0000     -10.273937      -279.5680
  15   2.0000     -10.268597      -279.4227
  16   2.0000      -8.085534      -220.0186
  17   2.0000      -8.078261      -219.8207
  18   2.0000      -6.043973      -164.4649
  19   2.0000      -6.040263      -164.3639
  20   2.0000      -6.036713      -164.2673
  21   2.0000      -6.036401      -164.2588
  22   2.0000      -6.032554      -164.1542
  23   2.0000      -6.029233      -164.0638
  24   2.0000      -1.004422       -27.3317
  25   2.0000      -0.977625       -26.6025
  26   2.0000      -0.915114       -24.9015
  27   2.0000      -0.911842       -24.8125
  28   2.0000      -0.870018       -23.6744
  29   2.0000      -0.854347       -23.2480
  30   2.0000      -0.845633       -23.0108
  31   2.0000      -0.809332       -22.0230
  32   2.0000      -0.784283       -21.3414
  33   2.0000      -0.770971       -20.9792
  34   2.0000      -0.705181       -19.1890
  35   2.0000      -0.698983       -19.0203
  36   2.0000      -0.693738       -18.8776
  37   2.0000      -0.657206       -17.8835
  38   2.0000      -0.641958       -17.4686
  39   2.0000      -0.613855       -16.7039
  40   2.0000      -0.596332       -16.2270
  41   2.0000      -0.577071       -15.7029
  42   2.0000      -0.566755       -15.4222
  43   2.0000      -0.550355       -14.9759
  44   2.0000      -0.549114       -14.9422
  45   2.0000      -0.527387       -14.3509
  46   2.0000      -0.520362       -14.1598
  47   2.0000      -0.511989       -13.9319
  48   2.0000      -0.503719       -13.7069
  49   2.0000      -0.499288       -13.5863
  50   2.0000      -0.485539       -13.2122
  51   2.0000      -0.478810       -13.0291
  52   2.0000      -0.469618       -12.7790
  53   2.0000      -0.462831       -12.5943
  54   2.0000      -0.459112       -12.4931
  55   2.0000      -0.449513       -12.2319
  56   2.0000      -0.442393       -12.0381
  57   2.0000      -0.436520       -11.8783
  58   2.0000      -0.434308       -11.8181
  59   2.0000      -0.423744       -11.5307
  60   2.0000      -0.422572       -11.4988
  61   2.0000      -0.418357       -11.3841
  62   2.0000      -0.405878       -11.0445
  63   2.0000      -0.338454        -9.2098
  64   2.0000      -0.328976        -8.9519
  65   2.0000      -0.325290        -8.8516
  66   2.0000      -0.294641        -8.0176
  67   0.0000       0.031877         0.8674
  68   0.0000       0.059261         1.6126
  69   0.0000       0.111607         3.0370
  70   0.0000       0.116806         3.1785
  71   0.0000       0.126083         3.4309

MULLIKEN ATOMIC CHARGES
-----------------------
   0 S :    0.125245
   1 C :   -0.087328
   2 C :   -0.091583
   3 C :    0.049199
   4 C :   -0.191985
   5 H :    0.009891
   6 C :    0.111877
   7 H :    0.016245
   8 H :    0.017497
   9 C :   -0.089429
  10 H :    0.024613
  11 H :    0.029029
  12 C :   -0.040170
  13 H :    0.034101
  14 H :    0.034002
  15 H :    0.030478
  16 S :    0.118435
  17 C :   -0.110601
  18 C :   -0.065072
  19 C :   -0.029738
  20 C :   -0.155293
  21 H :    0.050125
  22 C :    0.079220
  23 H :    0.007244
  24 H :    0.022797
  25 C :   -0.036398
  26 H :    0.030825
  27 H :    0.023459
  28 C :   -0.059689
  29 H :    0.018143
  30 H :    0.031574
  31 H :    0.017340
  32 H :    0.004933
  33 H :    0.071014
Sum of atomic charges:   -0.0000000

LOEWDIN ATOMIC CHARGES
----------------------
   0 S :    0.399662
   1 C :   -0.172701
   2 C :   -0.061174
   3 C :   -0.055848
   4 C :   -0.199929
   5 H :    0.030800
   6 C :   -0.016762
   7 H :    0.026370
   8 H :    0.025870
   9 C :   -0.036175
  10 H :    0.019388
  11 H :    0.024203
  12 C :   -0.065991
  13 H :    0.029751
  14 H :    0.019395
  15 H :    0.028424
  16 S :    0.418719
  17 C :   -0.199341
  18 C :   -0.082493
  19 C :   -0.050438
  20 C :   -0.208685
  21 H :    0.043558
  22 C :   -0.034745
  23 H :    0.026921
  24 H :    0.035191
  25 C :   -0.037736
  26 H :    0.027988
  27 H :    0.024110
  28 C :   -0.061230
  29 H :    0.023353
  30 H :    0.022073
  31 H :    0.016519
  32 H :    0.006928
  33 H :    0.034023

  Mayer bond orders larger than 0.100000
B(  0-S ,  1-C ) :   1.1331 B(  0-S ,  4-C ) :   1.1584 B(  1-C ,  2-C ) :   1.5982
B(  1-C ,  4-C ) :   0.1086 B(  1-C , 32-H ) :   0.9744 B(  2-C ,  3-C ) :   1.2566
B(  2-C ,  6-C ) :   1.0165 B(  3-C ,  4-C ) :   1.5573 B(  3-C ,  5-H ) :   0.9941
B(  4-C , 20-C ) :   1.0384 B(  6-C ,  7-H ) :   0.9435 B(  6-C ,  8-H ) :   0.9385
B(  6-C ,  9-C ) :   1.0690 B(  9-C , 10-H ) :   0.9566 B(  9-C , 11-H ) :   0.9566
B(  9-C , 12-C ) :   1.0914 B( 12-C , 13-H ) :   0.9726 B( 12-C , 14-H ) :   0.9744
B( 12-C , 15-H ) :   0.9696 B( 16-S , 17-C ) :   1.1812 B( 16-S , 20-C ) :   1.1331
B( 17-C , 18-C ) :   1.5836 B( 17-C , 20-C ) :   0.1001 B( 17-C , 33-H ) :   0.9667
B( 18-C , 19-C ) :   1.2315 B( 18-C , 21-H ) :   0.9793 B( 19-C , 20-C ) :   1.6025
B( 19-C , 22-C ) :   1.0464 B( 22-C , 23-H ) :   0.9282 B( 22-C , 24-H ) :   0.9274
B( 22-C , 25-C ) :   1.0705 B( 25-C , 26-H ) :   0.9568 B( 25-C , 27-H ) :   0.9584
B( 25-C , 28-C ) :   1.0791 B( 28-C , 29-H ) :   0.9733 B( 28-C , 30-H ) :   0.9786
B( 28-C , 31-H ) :   0.9722

Dispersion correction           -0.014287404
FINAL SINGLE POINT ENERGY     -1339.862481261164

DIPOLE MOMENT
-------------
                                X             Y             Z
Electronic contribution:    -13.35221     -23.51464       5.54471
Nuclear contribution   :     13.60744      24.06521      -5.49835
                        -----------------------------------------
Total Dipole Moment    :      0.25523       0.55057       0.04636
                        -----------------------------------------
Magnitude (a.u.)       :      0.60862
Magnitude (Debye)      :      1.54698

Rotational constants in cm-1:     0.017191     0.009061     0.007123
Rotational constants in MHz :   515.375718   271.644003   213.530555

                             ****ORCA TERMINATED NORMALLY****
TOTAL RUN TIME: 0 days 0 hours 0 minutes 28 seconds 410 msec
