                         Program Version 4.2.1 -  RELEASE  -
|  1> ! wB97X-D3 SP def2-SVP
|  2> %pal
|  3> nprocs 16
|  4> end
|  5>
|  6> * xyz 0 1
|  7> S 	 -56.9442 	 21.6125 	 86.3959
|  8> C 	 -55.146 	 21.2974 	 86.4051
|  9> C 	 -54.6274 	 21.315 	 87.7318
| 10> C 	 -55.7146 	 21.5134 	 88.7065
| 11> C 	 -56.9711 	 21.693 	 88.142
| 12> H 	 -55.5989 	 21.6638 	 89.7773
| 13> C 	 -53.1899 	 21.3636 	 88.1331
| 14> H 	 -52.8336 	 20.3124 	 88.2664
| 15> H 	 -53.105 	 21.7005 	 89.1948
| 16> C 	 -52.2151 	 22.2234 	 87.2957
| 17> H 	 -51.1975 	 21.9974 	 87.6389
| 18> H 	 -52.2741 	 21.8686 	 86.2887
| 19> C 	 -52.4229 	 23.7684 	 87.2696
| 20> H 	 -53.4239 	 23.9446 	 86.7796
| 21> H 	 -52.376 	 24.1392 	 88.3076
| 22> H 	 -51.6737 	 24.3885 	 86.7988
| 23> S 	 -59.162 	 23.4638 	 88.1998
| 24> C 	 -60.0448 	 23.7212 	 89.5914
| 25> C 	 -59.6486 	 22.7627 	 90.5198
| 26> C 	 -58.7354 	 21.7562 	 90.0348
| 27> C 	 -58.1777 	 22.119 	 88.7933
| 28> H 	 -59.9852 	 22.8272 	 91.5567
| 29> C 	 -58.2548 	 20.619 	 90.8799
| 30> H 	 -58.5032 	 20.6245 	 91.9079
| 31> H 	 -57.1675 	 20.8332 	 90.8075
| 32> C 	 -58.4602 	 19.1391 	 90.4245
| 33> H 	 -58.1719 	 19.0354 	 89.319
| 34> H 	 -59.4964 	 18.908 	 90.4202
| 35> C 	 -57.7375 	 18.1284 	 91.3808
| 36> H 	 -56.6964 	 18.2057 	 91.1124
| 37> H 	 -58.2132 	 17.1521 	 91.2875
| 38> H 	 -57.768 	 18.4095 	 92.426
| 39> H 	 -54.5544 	 21.0322 	 85.5296
| 40> H 	 -60.7298 	 24.5706 	 89.7729
| 41> *
| 42>
| 43>                          ****END OF INPUT****

CARTESIAN COORDINATES (ANGSTROEM)
---------------------------------
  S    -56.944200   21.612500   86.395900
  C    -55.146000   21.297400   86.405100
  C    -54.627400   21.315000   87.731800
  C    -55.714600   21.513400   88.706500
  C    -56.971100   21.693000   88.142000
  H    -55.598900   21.663800   89.777300
  C    -53.189900   21.363600   88.133100
  H    -52.833600   20.312400   88.266400
  H    -53.105000   21.700500   89.194800
  C    -52.215100   22.223400   87.295700
  H    -51.197500   21.997400   87.638900
  H    -52.274100   21.868600   86.288700
  C    -52.422900   23.768400   87.269600
  H    -53.423900   23.944600   86.779600
  H    -52.376000   24.139200   88.307600
  H    -51.673700   24.388500   86.798800
  S    -59.162000   23.463800   88.199800
  C    -60.044800   23.721200   89.591400
  C    -59.648600   22.762700   90.519800
  C    -58.735400   21.756200   90.034800
  C    -58.177700   22.119000   88.793300
  H    -59.985200   22.827200   91.556700
  C    -58.254800   20.619000   90.879900
  H    -58.503200   20.624500   91.907900
  H    -57.167500   20.833200   90.807500
  C    -58.460200   19.139100   90.424500
  H    -58.171900   19.035400   89.319000
  H    -59.496400   18.908000   90.420200
  C    -57.737500   18.128400   91.380800
  H    -56.696400   18.205700   91.112400
  H    -58.213200   17.152100   91.287500
  H    -57.768000   18.409500   92.426000
  H    -54.554400   21.032200   85.529600
  H    -60.729800   24.570600   89.772900

 Total Charge           Charge          ....    0
 Multiplicity           Mult            ....    1
 Number of Electrons    NEL             ....  134
 Basis Dimension        Dim             ....  322

ORBITAL ENERGIES
----------------

  NO   OCC          E(Eh)            E(eV)
   0   2.0000     -88.968980     -2420.9690
   1   2.0000     -88.963254     -2420.8132
   2   2.0000     -10.335027      -281.2304
   3   2.0000     -10.327589      -281.0280
   4   2.0000     -10.325761      -280.9783
   5   2.0000     -10.317340      -280.7491
   6   2.0000     -10.314893      -280.6825
   7   2.0000     -10.307288      -280.4756
   8   2.0000     -10.302083      -280.3339
   9   2.0000     -10.301626      -280.3215
  10   2.0000     -10.294040      -280.1151
  11   2.0000     -10.291093      -280.0349
  12   2.0000     -10.288532      -279.9652
  13   2.0000     -10.288159      -279.9550
  14   2.0000     -10.281993      -279.7873
  15   2.0000     -10.278199      -279.6840
  16   2.0000      -8.082538      -219.9370
  17   2.0000      -8.079188      -219.8459
  18   2.0000      -6.041242      -164.3905
  19   2.0000      -6.037627      -164.2922
  20   2.0000      -6.037253      -164.2820
  21   2.0000      -6.033240      -164.1728
  22   2.0000      -6.033124      -164.1696
  23   2.0000      -6.030197      -164.0900
  24   2.0000      -1.008318       -27.4377
  25   2.0000      -0.978281       -26.6204
  26   2.0000      -0.911378       -24.7998
  27   2.0000      -0.906084       -24.6558
  28   2.0000      -0.865752       -23.5583
  29   2.0000      -0.850762       -23.1504
  30   2.0000      -0.840250       -22.8644
  31   2.0000      -0.809438       -22.0259
  32   2.0000      -0.783166       -21.3110
  33   2.0000      -0.773022       -21.0350
  34   2.0000      -0.709076       -19.2949
  35   2.0000      -0.705784       -19.2053
  36   2.0000      -0.692023       -18.8309
  37   2.0000      -0.659745       -17.9526
  38   2.0000      -0.636334       -17.3155
  39   2.0000      -0.611219       -16.6321
  40   2.0000      -0.594418       -16.1749
  41   2.0000      -0.575418       -15.6579
  42   2.0000      -0.562242       -15.2994
  43   2.0000      -0.549105       -14.9419
  44   2.0000      -0.540036       -14.6951
  45   2.0000      -0.527084       -14.3427
  46   2.0000      -0.518121       -14.0988
  47   2.0000      -0.509962       -13.8768
  48   2.0000      -0.506013       -13.7693
  49   2.0000      -0.497478       -13.5371
  50   2.0000      -0.491766       -13.3816
  51   2.0000      -0.480365       -13.0714
  52   2.0000      -0.470726       -12.8091
  53   2.0000      -0.463655       -12.6167
  54   2.0000      -0.455042       -12.3823
  55   2.0000      -0.449656       -12.2358
  56   2.0000      -0.443818       -12.0769
  57   2.0000      -0.441705       -12.0194
  58   2.0000      -0.436105       -11.8670
  59   2.0000      -0.423691       -11.5292
  60   2.0000      -0.415016       -11.2932
  61   2.0000      -0.408666       -11.1204
  62   2.0000      -0.406870       -11.0715
  63   2.0000      -0.351032        -9.5521
  64   2.0000      -0.329575        -8.9682
  65   2.0000      -0.323165        -8.7938
  66   2.0000      -0.284287        -7.7358
  67   0.0000       0.020571         0.5598
  68   0.0000       0.068744         1.8706
  69   0.0000       0.101428         2.7600
  70   0.0000       0.110706         3.0125
  71   0.0000       0.132189         3.5970

MULLIKEN ATOMIC CHARGES
-----------------------
   0 S :    0.098862
   1 C :   -0.133834
   2 C :   -0.081284
   3 C :    0.013078
   4 C :   -0.150917
   5 H :    0.032727
   6 C :    0.031798
   7 H :    0.048115
   8 H :    0.022124
   9 C :   -0.057491
  10 H :    0.026587
  11 H :    0.019223
  12 C :   -0.066109
  13 H :    0.056902
  14 H :    0.026899
  15 H :    0.037198
  16 S :    0.111086
  17 C :   -0.094870
  18 C :   -0.063306
  19 C :   -0.028472
  20 C :   -0.130722
  21 H :    0.022598
  22 C :    0.057888
  23 H :    0.006371
  24 H :    0.009532
  25 C :   -0.084388
  26 H :    0.048106
  27 H :    0.021322
  28 C :   -0.043959
  29 H :    0.035521
  30 H :    0.045406
  31 H :    0.024459
  32 H :    0.060304
  33 H :    0.079244
Sum of atomic charges:   -0.0000000

LOEWDIN ATOMIC CHARGES
----------------------
   0 S :    0.380676
   1 C :   -0.186447
   2 C :   -0.053037
   3 C :   -0.064865
   4 C :   -0.186448
   5 H :    0.031248
   6 C :   -0.043309
   7 H :    0.043393
   8 H :    0.033544
   9 C :   -0.038391
  10 H :    0.025786
  11 H :    0.016334
  12 C :   -0.071099
  13 H :    0.036386
  14 H :    0.025360
  15 H :    0.025733
  16 S :    0.435613
  17 C :   -0.218422
  18 C :   -0.082802
  19 C :   -0.050809
  20 C :   -0.208571
  21 H :    0.029663
  22 C :   -0.039195
  23 H :    0.021983
  24 H :    0.035194
  25 C :   -0.036743
  26 H :    0.033995
  27 H :    0.014109
  28 C :   -0.062723
  29 H :    0.026825
  30 H :    0.030726
  31 H :    0.022521
  32 H :    0.029367
  33 H :    0.044405

  Mayer bond orders larger than 0.100000
B(  0-S ,  1-C ) :   1.1131 B(  0-S ,  4-C ) :   1.1381 B(  1-C ,  2-C ) :   1.6177
B(  1-C , 32-H ) :   0.9675 B(  2-C ,  3-C ) :   1.2237 B(  2-C ,  6-C ) :   1.0231
B(  3-C ,  4-C ) :   1.5930 B(  3-C ,  5-H ) :   0.9723 B(  4-C , 20-C ) :   1.0733
B(  6-C ,  7-H ) :   0.9270 B(  6-C ,  8-H ) :   0.9452 B(  6-C ,  9-C ) :   1.0727
B(  9-C , 10-H ) :   0.9534 B(  9-C , 11-H ) :   0.9567 B(  9-C , 12-C ) :   1.0692
B( 12-C , 13-H ) :   0.9744 B( 12-C , 14-H ) :   0.9754 B( 12-C , 15-H ) :   0.9767
B( 16-S , 17-C ) :   1.1915 B( 16-S , 20-C ) :   1.1402 B( 17-C , 18-C ) :   1.5458
B( 17-C , 20-C ) :   0.1019 B( 17-C , 33-H ) :   0.9672 B( 18-C , 19-C ) :   1.2832
B( 18-C , 21-H ) :   0.9922 B( 19-C , 20-C ) :   1.5206 B( 19-C , 22-C ) :   1.0374
B( 22-C , 23-H ) :   0.9389 B( 22-C , 24-H ) :   0.9325 B( 22-C , 25-C ) :   1.0542
B( 25-C , 26-H ) :   0.9578 B( 25-C , 27-H ) :   0.9599 B( 25-C , 28-C ) :   1.0648
B( 28-C , 29-H ) :   0.9790 B( 28-C , 30-H ) :   0.9764 B( 28-C , 31-H ) :   0.9752

Dispersion correction           -0.014205783
FINAL SINGLE POINT ENERGY     -1339.862623556592

DIPOLE MOMENT
-------------
                                X             Y             Z
Electronic contribution:    -18.10603       9.50546     -11.93006
Nuclear contribution   :     18.57875      -9.56121      12.51086
                        -----------------------------------------
Total Dipole Moment    :      0.47273      -0.05575       0.58080
                        -----------------------------------------
Magnitude (a.u.)       :      0.75094
Magnitude (Debye)      :      1.90873

Rotational constants in cm-1:     0.017776     0.008623     0.006948
Rotational constants in MHz :   532.906664   258.512510   208.308894

                             ****ORCA TERMINATED NORMALLY****
TOTAL RUN TIME: 0 days 0 hours 0 minutes 29 seconds 989 msec
