                         Program Version 4.2.1 -  RELEASE  -
|  1> ! wB97X-D3 SP def2-SVP
|  2> %pal
|  3> nprocs 16
|  4> end
|  5>
|  6> * xyz 0 1
|  7> S 	 16.8617 	 21.9841 	 40.5961
|  8> C 	 17.6593 	 20.9395 	 39.3906
|  9> C 	 16.95 	 20.9455 	 38.1748
| 10> C 	 15.7916 	 21.7956 	 38.2388
| 11> C 	 15.5293 	 22.3595 	 39.4303
| 12> H 	 15.1537 	 22.0041 	 37.4168
| 13> C 	 17.3628 	 20.0312 	 36.993
| 14> H 	 16.5513 	 19.427 	 36.6847
| 15> H 	 18.1986 	 19.4108 	 37.4321
| 16> C 	 17.7951 	 20.926 	 35.7982
| 17> H 	 17.7846 	 20.3444 	 34.8552
| 18> H 	 16.9894 	 21.5973 	 35.592
| 19> C 	 19.1465 	 21.6772 	 36.071
| 20> H 	 19.9393 	 20.8728 	 36.2316
| 21> H 	 19.3374 	 22.221 	 35.1886
| 22> H 	 19.1401 	 22.3643 	 36.9425
| 23> S 	 14.7905 	 24.2998 	 41.0862
| 24> C 	 13.1683 	 24.8127 	 41.1169
| 25> C 	 12.3849 	 24.1082 	 40.2705
| 26> C 	 13.0338 	 23.0739 	 39.5928
| 27> C 	 14.4045 	 23.1892 	 39.7732
| 28> H 	 11.3408 	 24.3754 	 40.1942
| 29> C 	 12.326 	 21.8475 	 38.9778
| 30> H 	 12.7677 	 21.6329 	 38.0445
| 31> H 	 11.2714 	 22.1693 	 38.8331
| 32> C 	 12.3724 	 20.5327 	 39.8461
| 33> H 	 13.5326 	 20.2925 	 40.0113
| 34> H 	 12.0522 	 19.6132 	 39.2722
| 35> C 	 11.6378 	 20.6389 	 41.1939
| 36> H 	 12.1695 	 21.3311 	 41.8986
| 37> H 	 11.713 	 19.7154 	 41.701
| 38> H 	 10.5635 	 20.9471 	 41.0981
| 39> H 	 18.4909 	 20.3596 	 39.5943
| 40> H 	 12.8024 	 25.631 	 41.6383
| 41> *
| 42>
| 43>                          ****END OF INPUT****

CARTESIAN COORDINATES (ANGSTROEM)
---------------------------------
  S     16.861700   21.984100   40.596100
  C     17.659300   20.939500   39.390600
  C     16.950000   20.945500   38.174800
  C     15.791600   21.795600   38.238800
  C     15.529300   22.359500   39.430300
  H     15.153700   22.004100   37.416800
  C     17.362800   20.031200   36.993000
  H     16.551300   19.427000   36.684700
  H     18.198600   19.410800   37.432100
  C     17.795100   20.926000   35.798200
  H     17.784600   20.344400   34.855200
  H     16.989400   21.597300   35.592000
  C     19.146500   21.677200   36.071000
  H     19.939300   20.872800   36.231600
  H     19.337400   22.221000   35.188600
  H     19.140100   22.364300   36.942500
  S     14.790500   24.299800   41.086200
  C     13.168300   24.812700   41.116900
  C     12.384900   24.108200   40.270500
  C     13.033800   23.073900   39.592800
  C     14.404500   23.189200   39.773200
  H     11.340800   24.375400   40.194200
  C     12.326000   21.847500   38.977800
  H     12.767700   21.632900   38.044500
  H     11.271400   22.169300   38.833100
  C     12.372400   20.532700   39.846100
  H     13.532600   20.292500   40.011300
  H     12.052200   19.613200   39.272200
  C     11.637800   20.638900   41.193900
  H     12.169500   21.331100   41.898600
  H     11.713000   19.715400   41.701000
  H     10.563500   20.947100   41.098100
  H     18.490900   20.359600   39.594300
  H     12.802400   25.631000   41.638300

 Total Charge           Charge          ....    0
 Multiplicity           Mult            ....    1
 Number of Electrons    NEL             ....  134
 Basis Dimension        Dim             ....  322

ORBITAL ENERGIES
----------------

  NO   OCC          E(Eh)            E(eV)
   0   2.0000     -88.965247     -2420.8674
   1   2.0000     -88.963658     -2420.8242
   2   2.0000     -10.328738      -281.0593
   3   2.0000     -10.324824      -280.9527
   4   2.0000     -10.313135      -280.6347
   5   2.0000     -10.305775      -280.4344
   6   2.0000     -10.305154      -280.4175
   7   2.0000     -10.304658      -280.4040
   8   2.0000     -10.301851      -280.3276
   9   2.0000     -10.297443      -280.2077
  10   2.0000     -10.296828      -280.1909
  11   2.0000     -10.288989      -279.9776
  12   2.0000     -10.288211      -279.9565
  13   2.0000     -10.286872      -279.9200
  14   2.0000     -10.281469      -279.7730
  15   2.0000     -10.277956      -279.6774
  16   2.0000      -8.081026      -219.8959
  17   2.0000      -8.077047      -219.7876
  18   2.0000      -6.039320      -164.3382
  19   2.0000      -6.035800      -164.2425
  20   2.0000      -6.035561      -164.2360
  21   2.0000      -6.031861      -164.1353
  22   2.0000      -6.031765      -164.1327
  23   2.0000      -6.027504      -164.0167
  24   2.0000      -1.013023       -27.5658
  25   2.0000      -0.980587       -26.6831
  26   2.0000      -0.905578       -24.6420
  27   2.0000      -0.901203       -24.5230
  28   2.0000      -0.870122       -23.6772
  29   2.0000      -0.850943       -23.1553
  30   2.0000      -0.837178       -22.7808
  31   2.0000      -0.816248       -22.2112
  32   2.0000      -0.784529       -21.3481
  33   2.0000      -0.771545       -20.9948
  34   2.0000      -0.713417       -19.4131
  35   2.0000      -0.695767       -18.9328
  36   2.0000      -0.686385       -18.6775
  37   2.0000      -0.663942       -18.0668
  38   2.0000      -0.644171       -17.5288
  39   2.0000      -0.621751       -16.9187
  40   2.0000      -0.591388       -16.0925
  41   2.0000      -0.563266       -15.3272
  42   2.0000      -0.554976       -15.1017
  43   2.0000      -0.546997       -14.8846
  44   2.0000      -0.544629       -14.8201
  45   2.0000      -0.532516       -14.4905
  46   2.0000      -0.517764       -14.0891
  47   2.0000      -0.509338       -13.8598
  48   2.0000      -0.505028       -13.7425
  49   2.0000      -0.489190       -13.3115
  50   2.0000      -0.487492       -13.2653
  51   2.0000      -0.479944       -13.0599
  52   2.0000      -0.473085       -12.8733
  53   2.0000      -0.461908       -12.5692
  54   2.0000      -0.455887       -12.4053
  55   2.0000      -0.448091       -12.1932
  56   2.0000      -0.442095       -12.0300
  57   2.0000      -0.434577       -11.8254
  58   2.0000      -0.431619       -11.7450
  59   2.0000      -0.431534       -11.7426
  60   2.0000      -0.424502       -11.5513
  61   2.0000      -0.409935       -11.1549
  62   2.0000      -0.404692       -11.0122
  63   2.0000      -0.357915        -9.7394
  64   2.0000      -0.335275        -9.1233
  65   2.0000      -0.327386        -8.9086
  66   2.0000      -0.283730        -7.7207
  67   0.0000       0.021674         0.5898
  68   0.0000       0.072933         1.9846
  69   0.0000       0.097226         2.6457
  70   0.0000       0.122667         3.3379
  71   0.0000       0.138930         3.7805

MULLIKEN ATOMIC CHARGES
-----------------------
   0 S :    0.082387
   1 C :   -0.099966
   2 C :   -0.097178
   3 C :    0.008994
   4 C :   -0.105336
   5 H :    0.001559
   6 C :    0.084301
   7 H :    0.027523
   8 H :    0.029886
   9 C :   -0.092120
  10 H :    0.027830
  11 H :    0.019187
  12 C :   -0.054715
  13 H :    0.037835
  14 H :    0.030989
  15 H :    0.058572
  16 S :    0.096314
  17 C :   -0.045516
  18 C :   -0.045254
  19 C :   -0.051635
  20 C :   -0.156077
  21 H :    0.012123
  22 C :    0.115939
  23 H :    0.012476
  24 H :    0.022477
  25 C :   -0.136085
  26 H :    0.056119
  27 H :    0.042641
  28 C :   -0.047498
  29 H :    0.047361
  30 H :    0.026331
  31 H :    0.040182
  32 H :    0.023774
  33 H :    0.026581
Sum of atomic charges:    0.0000000

LOEWDIN ATOMIC CHARGES
----------------------
   0 S :    0.350863
   1 C :   -0.178080
   2 C :   -0.052541
   3 C :   -0.069929
   4 C :   -0.170813
   5 H :    0.025473
   6 C :   -0.023934
   7 H :    0.024380
   8 H :    0.034254
   9 C :   -0.043764
  10 H :    0.024818
  11 H :    0.017432
  12 C :   -0.063726
  13 H :    0.031806
  14 H :    0.019623
  15 H :    0.032728
  16 S :    0.419919
  17 C :   -0.184230
  18 C :   -0.073415
  19 C :   -0.054494
  20 C :   -0.183849
  21 H :    0.031228
  22 C :   -0.024277
  23 H :    0.021926
  24 H :    0.030605
  25 C :   -0.050763
  26 H :    0.040484
  27 H :    0.028496
  28 C :   -0.074271
  29 H :    0.034949
  30 H :    0.021678
  31 H :    0.028870
  32 H :    0.011672
  33 H :    0.016882

  Mayer bond orders larger than 0.100000
B(  0-S ,  1-C ) :   1.1126 B(  0-S ,  4-C ) :   1.1015 B(  1-C ,  2-C ) :   1.6288
B(  1-C , 32-H ) :   0.9768 B(  2-C ,  3-C ) :   1.2011 B(  2-C ,  6-C ) :   1.0160
B(  3-C ,  4-C ) :   1.6301 B(  3-C ,  5-H ) :   0.9988 B(  4-C , 20-C ) :   1.0828
B(  6-C ,  7-H ) :   0.9422 B(  6-C ,  8-H ) :   0.9489 B(  6-C ,  9-C ) :   1.0632
B(  9-C , 10-H ) :   0.9576 B(  9-C , 11-H ) :   0.9574 B(  9-C , 12-C ) :   1.0598
B( 12-C , 13-H ) :   0.9773 B( 12-C , 14-H ) :   0.9751 B( 12-C , 15-H ) :   0.9758
B( 16-S , 17-C ) :   1.1601 B( 16-S , 20-C ) :   1.1379 B( 17-C , 18-C ) :   1.6180
B( 17-C , 33-H ) :   0.9713 B( 18-C , 19-C ) :   1.2510 B( 18-C , 21-H ) :   0.9906
B( 19-C , 20-C ) :   1.5668 B( 19-C , 22-C ) :   1.0366 B( 22-C , 23-H ) :   0.9291
B( 22-C , 24-H ) :   0.9377 B( 22-C , 25-C ) :   1.0607 B( 25-C , 26-H ) :   0.9515
B( 25-C , 27-H ) :   0.9579 B( 25-C , 28-C ) :   1.0713 B( 28-C , 29-H ) :   0.9724
B( 28-C , 30-H ) :   0.9715 B( 28-C , 31-H ) :   0.9747

Dispersion correction           -0.015381488
FINAL SINGLE POINT ENERGY     -1339.870295821141

DIPOLE MOMENT
-------------
                                X             Y             Z
Electronic contribution:      3.04329      13.94396      14.87522
Nuclear contribution   :     -3.42980     -14.25704     -15.28335
                        -----------------------------------------
Total Dipole Moment    :     -0.38651      -0.31308      -0.40812
                        -----------------------------------------
Magnitude (a.u.)       :      0.64341
Magnitude (Debye)      :      1.63542

Rotational constants in cm-1:     0.022174     0.008341     0.007360
Rotational constants in MHz :   664.774131   250.049938   220.649343

                             ****ORCA TERMINATED NORMALLY****
TOTAL RUN TIME: 0 days 0 hours 0 minutes 34 seconds 148 msec
