                         Program Version 4.2.1 -  RELEASE  -
|  1> ! wB97X-D3 SP def2-SVP
|  2> %pal
|  3> nprocs 16
|  4> end
|  5>
|  6> * xyz 0 1
|  7> S 	 -18.1252 	 -2.74169 	 90.1219
|  8> C 	 -19.6142 	 -2.65923 	 91.1197
|  9> C 	 -20.765 	 -2.64556 	 90.2876
| 10> C 	 -20.4643 	 -2.60981 	 88.9242
| 11> C 	 -19.103 	 -2.64244 	 88.6457
| 12> H 	 -21.1906 	 -2.38902 	 88.1157
| 13> C 	 -22.2041 	 -2.26145 	 90.8176
| 14> H 	 -22.5515 	 -1.61765 	 90.0462
| 15> H 	 -22.0891 	 -1.55916 	 91.6697
| 16> C 	 -23.203 	 -3.42395 	 91.0505
| 17> H 	 -22.7379 	 -4.27184 	 91.5743
| 18> H 	 -24.0579 	 -3.00577 	 91.6803
| 19> C 	 -23.7745 	 -4.064 	 89.6803
| 20> H 	 -22.977 	 -4.33007 	 88.9257
| 21> H 	 -24.267 	 -5.03621 	 89.9572
| 22> H 	 -24.627 	 -3.46461 	 89.2708
| 23> S 	 -17.2298 	 -1.18937 	 87.4378
| 24> C 	 -16.8057 	 -1.44447 	 85.7652
| 25> C 	 -17.8216 	 -2.03214 	 85.1146
| 26> C 	 -18.7569 	 -2.66884 	 86.0272
| 27> C 	 -18.5277 	 -2.32229 	 87.3565
| 28> H 	 -17.782 	 -2.17787 	 84.0852
| 29> C 	 -19.9731 	 -3.46706 	 85.4716
| 30> H 	 -20.3084 	 -4.06489 	 86.2705
| 31> H 	 -19.7802 	 -4.19734 	 84.6861
| 32> C 	 -21.151 	 -2.59476 	 84.9508
| 33> H 	 -20.7551 	 -1.92237 	 84.1492
| 34> H 	 -21.3849 	 -1.87803 	 85.6989
| 35> C 	 -22.3544 	 -3.37459 	 84.3969
| 36> H 	 -22.7344 	 -3.87886 	 85.2016
| 37> H 	 -22.0507 	 -4.06122 	 83.5143
| 38> H 	 -23.0543 	 -2.6293 	 83.9874
| 39> H 	 -19.6831 	 -2.58248 	 92.2085
| 40> H 	 -16.0595 	 -0.915874 	 85.2284
| 41> *
| 42>
| 43>                          ****END OF INPUT****

CARTESIAN COORDINATES (ANGSTROEM)
---------------------------------
  S    -18.125200   -2.741690   90.121900
  C    -19.614200   -2.659230   91.119700
  C    -20.765000   -2.645560   90.287600
  C    -20.464300   -2.609810   88.924200
  C    -19.103000   -2.642440   88.645700
  H    -21.190600   -2.389020   88.115700
  C    -22.204100   -2.261450   90.817600
  H    -22.551500   -1.617650   90.046200
  H    -22.089100   -1.559160   91.669700
  C    -23.203000   -3.423950   91.050500
  H    -22.737900   -4.271840   91.574300
  H    -24.057900   -3.005770   91.680300
  C    -23.774500   -4.064000   89.680300
  H    -22.977000   -4.330070   88.925700
  H    -24.267000   -5.036210   89.957200
  H    -24.627000   -3.464610   89.270800
  S    -17.229800   -1.189370   87.437800
  C    -16.805700   -1.444470   85.765200
  C    -17.821600   -2.032140   85.114600
  C    -18.756900   -2.668840   86.027200
  C    -18.527700   -2.322290   87.356500
  H    -17.782000   -2.177870   84.085200
  C    -19.973100   -3.467060   85.471600
  H    -20.308400   -4.064890   86.270500
  H    -19.780200   -4.197340   84.686100
  C    -21.151000   -2.594760   84.950800
  H    -20.755100   -1.922370   84.149200
  H    -21.384900   -1.878030   85.698900
  C    -22.354400   -3.374590   84.396900
  H    -22.734400   -3.878860   85.201600
  H    -22.050700   -4.061220   83.514300
  H    -23.054300   -2.629300   83.987400
  H    -19.683100   -2.582480   92.208500
  H    -16.059500   -0.915874   85.228400

 Total Charge           Charge          ....    0
 Multiplicity           Mult            ....    1
 Number of Electrons    NEL             ....  134
 Basis Dimension        Dim             ....  322

ORBITAL ENERGIES
----------------

  NO   OCC          E(Eh)            E(eV)
   0   2.0000     -88.974934     -2421.1310
   1   2.0000     -88.960249     -2420.7315
   2   2.0000     -10.333388      -281.1858
   3   2.0000     -10.327066      -281.0137
   4   2.0000     -10.323954      -280.9291
   5   2.0000     -10.307607      -280.4843
   6   2.0000     -10.307317      -280.4764
   7   2.0000     -10.306640      -280.4579
   8   2.0000     -10.302366      -280.3416
   9   2.0000     -10.298332      -280.2319
  10   2.0000     -10.297694      -280.2145
  11   2.0000     -10.294126      -280.1174
  12   2.0000     -10.288861      -279.9741
  13   2.0000     -10.286547      -279.9112
  14   2.0000     -10.285683      -279.8877
  15   2.0000     -10.283127      -279.8181
  16   2.0000      -8.087941      -220.0841
  17   2.0000      -8.076002      -219.7592
  18   2.0000      -6.046542      -164.5348
  19   2.0000      -6.042654      -164.4290
  20   2.0000      -6.038709      -164.3216
  21   2.0000      -6.034577      -164.2092
  22   2.0000      -6.030389      -164.0952
  23   2.0000      -6.026582      -163.9916
  24   2.0000      -1.009507       -27.4701
  25   2.0000      -0.981529       -26.7088
  26   2.0000      -0.904590       -24.6151
  27   2.0000      -0.900025       -24.4909
  28   2.0000      -0.869757       -23.6673
  29   2.0000      -0.849503       -23.1161
  30   2.0000      -0.840853       -22.8808
  31   2.0000      -0.814036       -22.1510
  32   2.0000      -0.780270       -21.2322
  33   2.0000      -0.770849       -20.9759
  34   2.0000      -0.705877       -19.2079
  35   2.0000      -0.698780       -19.0148
  36   2.0000      -0.695814       -18.9341
  37   2.0000      -0.664942       -18.0940
  38   2.0000      -0.636319       -17.3151
  39   2.0000      -0.617702       -16.8085
  40   2.0000      -0.596259       -16.2250
  41   2.0000      -0.568948       -15.4819
  42   2.0000      -0.563985       -15.3468
  43   2.0000      -0.538232       -14.6460
  44   2.0000      -0.536202       -14.5908
  45   2.0000      -0.527919       -14.3654
  46   2.0000      -0.515906       -14.0385
  47   2.0000      -0.508312       -13.8319
  48   2.0000      -0.502434       -13.6719
  49   2.0000      -0.499894       -13.6028
  50   2.0000      -0.487320       -13.2607
  51   2.0000      -0.480810       -13.0835
  52   2.0000      -0.468232       -12.7412
  53   2.0000      -0.464197       -12.6315
  54   2.0000      -0.460709       -12.5365
  55   2.0000      -0.452855       -12.3228
  56   2.0000      -0.444006       -12.0820
  57   2.0000      -0.434969       -11.8361
  58   2.0000      -0.433894       -11.8069
  59   2.0000      -0.423652       -11.5282
  60   2.0000      -0.421243       -11.4626
  61   2.0000      -0.413428       -11.2499
  62   2.0000      -0.410992       -11.1837
  63   2.0000      -0.353625        -9.6226
  64   2.0000      -0.337845        -9.1932
  65   2.0000      -0.326094        -8.8735
  66   2.0000      -0.287940        -7.8352
  67   0.0000       0.018900         0.5143
  68   0.0000       0.074135         2.0173
  69   0.0000       0.102652         2.7933
  70   0.0000       0.119387         3.2487
  71   0.0000       0.124149         3.3783

MULLIKEN ATOMIC CHARGES
-----------------------
   0 S :    0.124437
   1 C :   -0.135284
   2 C :   -0.075510
   3 C :    0.003705
   4 C :   -0.128642
   5 H :    0.031333
   6 C :    0.045322
   7 H :    0.017205
   8 H :    0.034699
   9 C :   -0.074954
  10 H :    0.044219
  11 H :    0.048296
  12 C :   -0.121463
  13 H :    0.058649
  14 H :    0.039516
  15 H :    0.046618
  16 S :    0.089331
  17 C :   -0.066378
  18 C :   -0.005369
  19 C :   -0.062361
  20 C :   -0.143924
  21 H :    0.002786
  22 C :    0.080068
  23 H :    0.003929
  24 H :    0.015743
  25 C :   -0.102826
  26 H :    0.020031
  27 H :    0.015505
  28 C :   -0.020639
  29 H :    0.022132
  30 H :    0.047197
  31 H :    0.043135
  32 H :    0.058865
  33 H :    0.044627
Sum of atomic charges:    0.0000000

LOEWDIN ATOMIC CHARGES
----------------------
   0 S :    0.394458
   1 C :   -0.189644
   2 C :   -0.063069
   3 C :   -0.067299
   4 C :   -0.191261
   5 H :    0.038718
   6 C :   -0.031996
   7 H :    0.025516
   8 H :    0.033854
   9 C :   -0.043760
  10 H :    0.026580
  11 H :    0.033984
  12 C :   -0.084145
  13 H :    0.032126
  14 H :    0.030312
  15 H :    0.028187
  16 S :    0.409257
  17 C :   -0.179303
  18 C :   -0.059675
  19 C :   -0.054807
  20 C :   -0.198195
  21 H :    0.022225
  22 C :   -0.031485
  23 H :    0.018421
  24 H :    0.027293
  25 C :   -0.044228
  26 H :    0.023614
  27 H :    0.013779
  28 C :   -0.058408
  29 H :    0.011494
  30 H :    0.037781
  31 H :    0.033143
  32 H :    0.032609
  33 H :    0.023925

  Mayer bond orders larger than 0.100000
B(  0-S ,  1-C ) :   1.1357 B(  0-S ,  4-C ) :   1.1502 B(  1-C ,  2-C ) :   1.5886
B(  1-C ,  4-C ) :   0.1057 B(  1-C , 32-H ) :   0.9669 B(  2-C ,  3-C ) :   1.2816
B(  2-C ,  6-C ) :   0.9960 B(  3-C ,  4-C ) :   1.5425 B(  3-C ,  5-H ) :   0.9784
B(  4-C , 20-C ) :   1.0582 B(  6-C ,  7-H ) :   0.9503 B(  6-C ,  8-H ) :   0.9545
B(  6-C ,  9-C ) :   1.0474 B(  9-C , 10-H ) :   0.9650 B(  9-C , 11-H ) :   0.9576
B(  9-C , 12-C ) :   1.0608 B( 12-C , 13-H ) :   0.9743 B( 12-C , 14-H ) :   0.9775
B( 12-C , 15-H ) :   0.9775 B( 16-S , 17-C ) :   1.1372 B( 16-S , 20-C ) :   1.1443
B( 17-C , 18-C ) :   1.6408 B( 17-C , 33-H ) :   0.9671 B( 18-C , 19-C ) :   1.2218
B( 18-C , 21-H ) :   0.9935 B( 19-C , 20-C ) :   1.5981 B( 19-C , 22-C ) :   1.0517
B( 22-C , 23-H ) :   0.9317 B( 22-C , 24-H ) :   0.9384 B( 22-C , 25-C ) :   1.0543
B( 25-C , 26-H ) :   0.9532 B( 25-C , 27-H ) :   0.9527 B( 25-C , 28-C ) :   1.0751
B( 28-C , 29-H ) :   0.9776 B( 28-C , 30-H ) :   0.9723 B( 28-C , 31-H ) :   0.9721

Dispersion correction           -0.014347066
FINAL SINGLE POINT ENERGY     -1339.857702138801

DIPOLE MOMENT
-------------
                                X             Y             Z
Electronic contribution:     30.27690       7.68555       7.99588
Nuclear contribution   :    -30.94621      -7.56122      -8.20362
                        -----------------------------------------
Total Dipole Moment    :     -0.66931       0.12433      -0.20774
                        -----------------------------------------
Magnitude (a.u.)       :      0.71176
Magnitude (Debye)      :      1.80914

Rotational constants in cm-1:     0.016188     0.010162     0.006577
Rotational constants in MHz :   485.292829   304.640093   197.173671

                             ****ORCA TERMINATED NORMALLY****
TOTAL RUN TIME: 0 days 0 hours 0 minutes 28 seconds 464 msec
