                         Program Version 4.2.1 -  RELEASE  -
|  1> ! wB97X-D3 SP def2-SVP
|  2> %pal
|  3> nprocs 16
|  4> end
|  5>
|  6> * xyz 0 1
|  7> S 	 -41.2564 	 54.4658 	 99.6955
|  8> C 	 -40.1563 	 54.8229 	 101.088
|  9> C 	 -40.9467 	 55.2607 	 102.215
| 10> C 	 -42.3219 	 55.3828 	 101.958
| 11> C 	 -42.6458 	 55.1179 	 100.625
| 12> H 	 -43.0221 	 55.6547 	 102.705
| 13> C 	 -40.3161 	 55.8093 	 103.459
| 14> H 	 -40.7461 	 56.8102 	 103.649
| 15> H 	 -39.3124 	 56.0414 	 103.156
| 16> C 	 -40.363 	 54.8645 	 104.677
| 17> H 	 -39.706 	 55.3707 	 105.423
| 18> H 	 -41.4202 	 54.8181 	 105.196
| 19> C 	 -39.9237 	 53.389 	 104.456
| 20> H 	 -39.0069 	 53.3279 	 103.836
| 21> H 	 -39.7127 	 53.1051 	 105.469
| 22> H 	 -40.7936 	 52.7472 	 104.089
| 23> S 	 -44.5214 	 54.211 	 98.6873
| 24> C 	 -45.9795 	 55.1514 	 98.4091
| 25> C 	 -46.0721 	 56.2542 	 99.2341
| 26> C 	 -44.9486 	 56.3387 	 100.167
| 27> C 	 -44.021 	 55.2888 	 100.015
| 28> H 	 -46.911 	 56.9056 	 98.9658
| 29> C 	 -44.7293 	 57.6139 	 101.016
| 30> H 	 -45.1767 	 58.4826 	 100.504
| 31> H 	 -43.6376 	 57.7721 	 101.136
| 32> C 	 -45.4227 	 57.3991 	 102.397
| 33> H 	 -45.1246 	 56.4038 	 102.74
| 34> H 	 -46.458 	 57.4784 	 102.266
| 35> C 	 -44.8476 	 58.1809 	 103.485
| 36> H 	 -45.3291 	 58.0087 	 104.422
| 37> H 	 -44.895 	 59.2598 	 103.293
| 38> H 	 -43.7788 	 57.9186 	 103.765
| 39> H 	 -39.0751 	 54.6742 	 101.17
| 40> H 	 -46.7968 	 54.9471 	 97.7479
| 41> *
| 42>
| 43>                          ****END OF INPUT****

CARTESIAN COORDINATES (ANGSTROEM)
---------------------------------
  S    -41.256400   54.465800   99.695500
  C    -40.156300   54.822900  101.088000
  C    -40.946700   55.260700  102.215000
  C    -42.321900   55.382800  101.958000
  C    -42.645800   55.117900  100.625000
  H    -43.022100   55.654700  102.705000
  C    -40.316100   55.809300  103.459000
  H    -40.746100   56.810200  103.649000
  H    -39.312400   56.041400  103.156000
  C    -40.363000   54.864500  104.677000
  H    -39.706000   55.370700  105.423000
  H    -41.420200   54.818100  105.196000
  C    -39.923700   53.389000  104.456000
  H    -39.006900   53.327900  103.836000
  H    -39.712700   53.105100  105.469000
  H    -40.793600   52.747200  104.089000
  S    -44.521400   54.211000   98.687300
  C    -45.979500   55.151400   98.409100
  C    -46.072100   56.254200   99.234100
  C    -44.948600   56.338700  100.167000
  C    -44.021000   55.288800  100.015000
  H    -46.911000   56.905600   98.965800
  C    -44.729300   57.613900  101.016000
  H    -45.176700   58.482600  100.504000
  H    -43.637600   57.772100  101.136000
  C    -45.422700   57.399100  102.397000
  H    -45.124600   56.403800  102.740000
  H    -46.458000   57.478400  102.266000
  C    -44.847600   58.180900  103.485000
  H    -45.329100   58.008700  104.422000
  H    -44.895000   59.259800  103.293000
  H    -43.778800   57.918600  103.765000
  H    -39.075100   54.674200  101.170000
  H    -46.796800   54.947100   97.747900

 Total Charge           Charge          ....    0
 Multiplicity           Mult            ....    1
 Number of Electrons    NEL             ....  134
 Basis Dimension        Dim             ....  322

ORBITAL ENERGIES
----------------

  NO   OCC          E(Eh)            E(eV)
   0   2.0000     -88.973617     -2421.0952
   1   2.0000     -88.967332     -2420.9242
   2   2.0000     -10.342833      -281.4428
   3   2.0000     -10.336900      -281.2814
   4   2.0000     -10.324774      -280.9514
   5   2.0000     -10.317052      -280.7413
   6   2.0000     -10.313601      -280.6474
   7   2.0000     -10.302909      -280.3564
   8   2.0000     -10.300939      -280.3028
   9   2.0000     -10.298483      -280.2360
  10   2.0000     -10.296311      -280.1769
  11   2.0000     -10.293828      -280.1093
  12   2.0000     -10.291335      -280.0415
  13   2.0000     -10.285004      -279.8692
  14   2.0000     -10.279412      -279.7170
  15   2.0000     -10.276712      -279.6436
  16   2.0000      -8.086072      -220.0332
  17   2.0000      -8.081296      -219.9032
  18   2.0000      -6.044771      -164.4866
  19   2.0000      -6.040987      -164.3836
  20   2.0000      -6.039974      -164.3560
  21   2.0000      -6.036671      -164.2662
  22   2.0000      -6.035918      -164.2457
  23   2.0000      -6.031931      -164.1372
  24   2.0000      -0.994313       -27.0566
  25   2.0000      -0.973952       -26.5026
  26   2.0000      -0.913861       -24.8674
  27   2.0000      -0.907039       -24.6818
  28   2.0000      -0.858972       -23.3738
  29   2.0000      -0.852409       -23.1952
  30   2.0000      -0.844830       -22.9890
  31   2.0000      -0.815877       -22.2011
  32   2.0000      -0.781126       -21.2555
  33   2.0000      -0.768025       -20.8990
  34   2.0000      -0.703827       -19.1521
  35   2.0000      -0.692613       -18.8469
  36   2.0000      -0.689077       -18.7507
  37   2.0000      -0.655293       -17.8314
  38   2.0000      -0.633300       -17.2330
  39   2.0000      -0.624882       -17.0039
  40   2.0000      -0.587468       -15.9858
  41   2.0000      -0.576827       -15.6963
  42   2.0000      -0.563664       -15.3381
  43   2.0000      -0.549498       -14.9526
  44   2.0000      -0.539026       -14.6676
  45   2.0000      -0.524655       -14.2766
  46   2.0000      -0.519757       -14.1433
  47   2.0000      -0.513845       -13.9824
  48   2.0000      -0.503681       -13.7059
  49   2.0000      -0.496325       -13.5057
  50   2.0000      -0.486213       -13.2305
  51   2.0000      -0.480084       -13.0638
  52   2.0000      -0.467792       -12.7293
  53   2.0000      -0.465284       -12.6610
  54   2.0000      -0.458230       -12.4691
  55   2.0000      -0.450901       -12.2696
  56   2.0000      -0.441618       -12.0170
  57   2.0000      -0.437388       -11.9019
  58   2.0000      -0.433043       -11.7837
  59   2.0000      -0.420727       -11.4486
  60   2.0000      -0.415673       -11.3110
  61   2.0000      -0.410334       -11.1658
  62   2.0000      -0.409220       -11.1354
  63   2.0000      -0.349846        -9.5198
  64   2.0000      -0.333753        -9.0819
  65   2.0000      -0.328816        -8.9475
  66   2.0000      -0.284041        -7.7292
  67   0.0000       0.019715         0.5365
  68   0.0000       0.069946         1.9033
  69   0.0000       0.095225         2.5912
  70   0.0000       0.114327         3.1110
  71   0.0000       0.122151         3.3239

MULLIKEN ATOMIC CHARGES
-----------------------
   0 S :    0.107339
   1 C :   -0.129206
   2 C :   -0.101164
   3 C :    0.036532
   4 C :   -0.107645
   5 H :   -0.013724
   6 C :    0.065509
   7 H :    0.036723
   8 H :    0.008633
   9 C :   -0.132042
  10 H :    0.037298
  11 H :    0.042834
  12 C :   -0.047490
  13 H :    0.037565
  14 H :    0.032041
  15 H :    0.062969
  16 S :    0.096179
  17 C :   -0.089286
  18 C :   -0.045981
  19 C :   -0.054061
  20 C :   -0.137360
  21 H :    0.031672
  22 C :    0.039805
  23 H :    0.034855
  24 H :    0.040598
  25 C :   -0.037649
  26 H :    0.026784
  27 H :    0.022735
  28 C :   -0.050890
  29 H :    0.023918
  30 H :    0.025580
  31 H :    0.029072
  32 H :    0.058230
  33 H :    0.049628
Sum of atomic charges:    0.0000000

LOEWDIN ATOMIC CHARGES
----------------------
   0 S :    0.373290
   1 C :   -0.197070
   2 C :   -0.055228
   3 C :   -0.063678
   4 C :   -0.164625
   5 H :    0.026069
   6 C :   -0.040727
   7 H :    0.035828
   8 H :    0.026980
   9 C :   -0.051769
  10 H :    0.025157
  11 H :    0.032573
  12 C :   -0.071317
  13 H :    0.026396
  14 H :    0.026006
  15 H :    0.040158
  16 S :    0.383715
  17 C :   -0.180312
  18 C :   -0.078878
  19 C :   -0.047896
  20 C :   -0.191223
  21 H :    0.039131
  22 C :   -0.025901
  23 H :    0.031523
  24 H :    0.032976
  25 C :   -0.039398
  26 H :    0.025778
  27 H :    0.019385
  28 C :   -0.069352
  29 H :    0.022998
  30 H :    0.020821
  31 H :    0.028069
  32 H :    0.031752
  33 H :    0.028774

  Mayer bond orders larger than 0.100000
B(  0-S ,  1-C ) :   1.1199 B(  0-S ,  4-C ) :   1.1491 B(  1-C ,  2-C ) :   1.5821
B(  1-C ,  4-C ) :   0.1076 B(  1-C , 32-H ) :   0.9623 B(  2-C ,  3-C ) :   1.2651
B(  2-C ,  6-C ) :   1.0273 B(  3-C ,  4-C ) :   1.5375 B(  3-C ,  5-H ) :   0.9979
B(  4-C , 20-C ) :   1.0496 B(  6-C ,  7-H ) :   0.9466 B(  6-C ,  8-H ) :   0.9383
B(  6-C ,  9-C ) :   1.0574 B(  9-C , 10-H ) :   0.9608 B(  9-C , 11-H ) :   0.9552
B(  9-C , 12-C ) :   1.0656 B( 12-C , 13-H ) :   0.9764 B( 12-C , 14-H ) :   0.9729
B( 12-C , 15-H ) :   0.9716 B( 16-S , 17-C ) :   1.1437 B( 16-S , 20-C ) :   1.1188
B( 17-C , 18-C ) :   1.6587 B( 17-C , 33-H ) :   0.9636 B( 18-C , 19-C ) :   1.2108
B( 18-C , 21-H ) :   0.9857 B( 19-C , 20-C ) :   1.6043 B( 19-C , 22-C ) :   1.0408
B( 22-C , 23-H ) :   0.9411 B( 22-C , 24-H ) :   0.9407 B( 22-C , 25-C ) :   1.0463
B( 25-C , 26-H ) :   0.9585 B( 25-C , 27-H ) :   0.9527 B( 25-C , 28-C ) :   1.0944
B( 28-C , 29-H ) :   0.9683 B( 28-C , 30-H ) :   0.9668 B( 28-C , 31-H ) :   0.9699

Dispersion correction           -0.014993924
FINAL SINGLE POINT ENERGY     -1339.859080591362

DIPOLE MOMENT
-------------
                                X             Y             Z
Electronic contribution:     -2.89448     -10.78880     -27.37610
Nuclear contribution   :      2.77125      11.28208      27.91824
                        -----------------------------------------
Total Dipole Moment    :     -0.12323       0.49327       0.54214
                        -----------------------------------------
Magnitude (a.u.)       :      0.74325
Magnitude (Debye)      :      1.88918

Rotational constants in cm-1:     0.018471     0.009326     0.006781
Rotational constants in MHz :   553.759470   279.578960   203.290385

                             ****ORCA TERMINATED NORMALLY****
TOTAL RUN TIME: 0 days 0 hours 0 minutes 30 seconds 982 msec
