                         Program Version 4.2.1 -  RELEASE  -
|  1> ! wB97X-D3 SP def2-SVP
|  2> %pal
|  3> nprocs 16
|  4> end
|  5>
|  6> * xyz 0 1
|  7> S 	 45.8746 	 21.5663 	 92.7173
|  8> C 	 46.5244 	 22.9836 	 93.5859
|  9> C 	 46.0266 	 24.2208 	 93.1455
| 10> C 	 45.2658 	 23.9686 	 91.9362
| 11> C 	 45.0392 	 22.6719 	 91.5937
| 12> H 	 44.8495 	 24.7605 	 91.3648
| 13> C 	 46.2924 	 25.5849 	 93.669
| 14> H 	 45.6762 	 25.4648 	 94.5298
| 15> H 	 45.9408 	 26.4027 	 93.0124
| 16> C 	 47.72 	 25.915 	 94.0184
| 17> H 	 48.0881 	 25.303 	 94.7661
| 18> H 	 48.5093 	 25.5786 	 93.3223
| 19> C 	 47.7783 	 27.4044 	 94.387
| 20> H 	 47.3065 	 28.0805 	 93.6656
| 21> H 	 47.3584 	 27.6833 	 95.4198
| 22> H 	 48.8434 	 27.6906 	 94.3943
| 23> S 	 44.7321 	 21.0549 	 89.3333
| 24> C 	 43.1996 	 21.064 	 88.4244
| 25> C 	 42.4146 	 22.0443 	 88.9269
| 26> C 	 42.9033 	 22.7516 	 90.129
| 27> C 	 44.1626 	 22.2577 	 90.4848
| 28> H 	 41.4676 	 22.2233 	 88.467
| 29> C 	 42.03 	 23.6354 	 90.9105
| 30> H 	 41.7652 	 24.3304 	 90.2011
| 31> H 	 42.5605 	 24.3794 	 91.4759
| 32> C 	 40.8593 	 23.0039 	 91.6489
| 33> H 	 41.2562 	 22.5258 	 92.5334
| 34> H 	 40.3896 	 22.3534 	 90.9739
| 35> C 	 39.761 	 23.9803 	 92.0874
| 36> H 	 39.2221 	 23.5697 	 92.8692
| 37> H 	 39.1372 	 24.3432 	 91.2549
| 38> H 	 40.1998 	 24.9108 	 92.5725
| 39> H 	 47.1077 	 22.7714 	 94.4581
| 40> H 	 42.9895 	 20.3799 	 87.6747
| 41> *
| 42>
| 43>                          ****END OF INPUT****

CARTESIAN COORDINATES (ANGSTROEM)
---------------------------------
  S     45.874600   21.566300   92.717300
  C     46.524400   22.983600   93.585900
  C     46.026600   24.220800   93.145500
  C     45.265800   23.968600   91.936200
  C     45.039200   22.671900   91.593700
  H     44.849500   24.760500   91.364800
  C     46.292400   25.584900   93.669000
  H     45.676200   25.464800   94.529800
  H     45.940800   26.402700   93.012400
  C     47.720000   25.915000   94.018400
  H     48.088100   25.303000   94.766100
  H     48.509300   25.578600   93.322300
  C     47.778300   27.404400   94.387000
  H     47.306500   28.080500   93.665600
  H     47.358400   27.683300   95.419800
  H     48.843400   27.690600   94.394300
  S     44.732100   21.054900   89.333300
  C     43.199600   21.064000   88.424400
  C     42.414600   22.044300   88.926900
  C     42.903300   22.751600   90.129000
  C     44.162600   22.257700   90.484800
  H     41.467600   22.223300   88.467000
  C     42.030000   23.635400   90.910500
  H     41.765200   24.330400   90.201100
  H     42.560500   24.379400   91.475900
  C     40.859300   23.003900   91.648900
  H     41.256200   22.525800   92.533400
  H     40.389600   22.353400   90.973900
  C     39.761000   23.980300   92.087400
  H     39.222100   23.569700   92.869200
  H     39.137200   24.343200   91.254900
  H     40.199800   24.910800   92.572500
  H     47.107700   22.771400   94.458100
  H     42.989500   20.379900   87.674700

 Total Charge           Charge          ....    0
 Multiplicity           Mult            ....    1
 Number of Electrons    NEL             ....  134
 Basis Dimension        Dim             ....  322

ORBITAL ENERGIES
----------------

  NO   OCC          E(Eh)            E(eV)
   0   2.0000     -88.965055     -2420.8622
   1   2.0000     -88.957600     -2420.6594
   2   2.0000     -10.328089      -281.0416
   3   2.0000     -10.327671      -281.0302
   4   2.0000     -10.316837      -280.7354
   5   2.0000     -10.313548      -280.6459
   6   2.0000     -10.306190      -280.4457
   7   2.0000     -10.304224      -280.3922
   8   2.0000     -10.293251      -280.0936
   9   2.0000     -10.292329      -280.0685
  10   2.0000     -10.289004      -279.9780
  11   2.0000     -10.288605      -279.9672
  12   2.0000     -10.284409      -279.8530
  13   2.0000     -10.280664      -279.7511
  14   2.0000     -10.277349      -279.6609
  15   2.0000     -10.276578      -279.6399
  16   2.0000      -8.078757      -219.8341
  17   2.0000      -8.072210      -219.6560
  18   2.0000      -6.037362      -164.2850
  19   2.0000      -6.033548      -164.1812
  20   2.0000      -6.030848      -164.1077
  21   2.0000      -6.029353      -164.0670
  22   2.0000      -6.026750      -163.9962
  23   2.0000      -6.022821      -163.8893
  24   2.0000      -0.997806       -27.1517
  25   2.0000      -0.976661       -26.5763
  26   2.0000      -0.920448       -25.0467
  27   2.0000      -0.914756       -24.8918
  28   2.0000      -0.867788       -23.6137
  29   2.0000      -0.852350       -23.1936
  30   2.0000      -0.845265       -23.0008
  31   2.0000      -0.815905       -22.2019
  32   2.0000      -0.782223       -21.2854
  33   2.0000      -0.770711       -20.9721
  34   2.0000      -0.719531       -19.5794
  35   2.0000      -0.709973       -19.3193
  36   2.0000      -0.695145       -18.9159
  37   2.0000      -0.661195       -17.9920
  38   2.0000      -0.643674       -17.5153
  39   2.0000      -0.619994       -16.8709
  40   2.0000      -0.602744       -16.4015
  41   2.0000      -0.584159       -15.8958
  42   2.0000      -0.569052       -15.4847
  43   2.0000      -0.555894       -15.1266
  44   2.0000      -0.529931       -14.4202
  45   2.0000      -0.526954       -14.3391
  46   2.0000      -0.521849       -14.2002
  47   2.0000      -0.517636       -14.0856
  48   2.0000      -0.501649       -13.6506
  49   2.0000      -0.495379       -13.4800
  50   2.0000      -0.491439       -13.3727
  51   2.0000      -0.478526       -13.0214
  52   2.0000      -0.468947       -12.7607
  53   2.0000      -0.464680       -12.6446
  54   2.0000      -0.453452       -12.3391
  55   2.0000      -0.451684       -12.2909
  56   2.0000      -0.447261       -12.1706
  57   2.0000      -0.438695       -11.9375
  58   2.0000      -0.431971       -11.7545
  59   2.0000      -0.428131       -11.6500
  60   2.0000      -0.420503       -11.4425
  61   2.0000      -0.409955       -11.1554
  62   2.0000      -0.408538       -11.1169
  63   2.0000      -0.346790        -9.4366
  64   2.0000      -0.327574        -8.9137
  65   2.0000      -0.323774        -8.8103
  66   2.0000      -0.292012        -7.9460
  67   0.0000       0.029573         0.8047
  68   0.0000       0.077651         2.1130
  69   0.0000       0.106713         2.9038
  70   0.0000       0.119892         3.2624
  71   0.0000       0.134884         3.6704

MULLIKEN ATOMIC CHARGES
-----------------------
   0 S :    0.100404
   1 C :   -0.145000
   2 C :   -0.075825
   3 C :    0.014989
   4 C :   -0.119628
   5 H :   -0.000118
   6 C :    0.087493
   7 H :    0.043759
   8 H :    0.029605
   9 C :   -0.047470
  10 H :    0.001059
  11 H :    0.032532
  12 C :   -0.077449
  13 H :    0.035380
  14 H :    0.046460
  15 H :    0.033268
  16 S :    0.077024
  17 C :   -0.066205
  18 C :   -0.023522
  19 C :   -0.067725
  20 C :   -0.146851
  21 H :    0.009839
  22 C :    0.126212
  23 H :   -0.014093
  24 H :   -0.014815
  25 C :   -0.006818
  26 H :    0.037186
  27 H :    0.016035
  28 C :   -0.052143
  29 H :    0.023071
  30 H :    0.039725
  31 H :    0.022266
  32 H :    0.043429
  33 H :    0.037928
Sum of atomic charges:   -0.0000000

LOEWDIN ATOMIC CHARGES
----------------------
   0 S :    0.373434
   1 C :   -0.187088
   2 C :   -0.051152
   3 C :   -0.055623
   4 C :   -0.184907
   5 H :    0.022860
   6 C :   -0.033424
   7 H :    0.042981
   8 H :    0.035146
   9 C :   -0.046113
  10 H :    0.016398
  11 H :    0.034413
  12 C :   -0.070616
  13 H :    0.023744
  14 H :    0.034922
  15 H :    0.028557
  16 S :    0.373084
  17 C :   -0.159838
  18 C :   -0.063473
  19 C :   -0.053096
  20 C :   -0.186827
  21 H :    0.025296
  22 C :   -0.044000
  23 H :    0.025888
  24 H :    0.027974
  25 C :   -0.023492
  26 H :    0.030461
  27 H :    0.019367
  28 C :   -0.062492
  29 H :    0.017016
  30 H :    0.027343
  31 H :    0.028186
  32 H :    0.016552
  33 H :    0.018518

  Mayer bond orders larger than 0.100000
B(  0-S ,  1-C ) :   1.1313 B(  0-S ,  4-C ) :   1.1240 B(  1-C ,  2-C ) :   1.6042
B(  1-C , 32-H ) :   0.9731 B(  2-C ,  3-C ) :   1.2275 B(  2-C ,  6-C ) :   0.9978
B(  3-C ,  4-C ) :   1.6062 B(  3-C ,  5-H ) :   0.9927 B(  4-C , 20-C ) :   1.0380
B(  6-C ,  7-H ) :   0.9171 B(  6-C ,  8-H ) :   0.9550 B(  6-C ,  9-C ) :   1.0692
B(  9-C , 10-H ) :   0.9371 B(  9-C , 11-H ) :   0.9568 B(  9-C , 12-C ) :   1.0805
B( 12-C , 13-H ) :   0.9769 B( 12-C , 14-H ) :   0.9744 B( 12-C , 15-H ) :   0.9738
B( 16-S , 17-C ) :   1.1215 B( 16-S , 20-C ) :   1.1347 B( 17-C , 18-C ) :   1.6423
B( 17-C , 33-H ) :   0.9821 B( 18-C , 19-C ) :   1.1969 B( 18-C , 21-H ) :   0.9899
B( 19-C , 20-C ) :   1.6069 B( 19-C , 22-C ) :   1.0588 B( 22-C , 23-H ) :   0.9008
B( 22-C , 24-H ) :   0.9034 B( 22-C , 25-C ) :   1.0595 B( 25-C , 26-H ) :   0.9547
B( 25-C , 27-H ) :   0.9551 B( 25-C , 28-C ) :   1.0863 B( 28-C , 29-H ) :   0.9741
B( 28-C , 30-H ) :   0.9757 B( 28-C , 31-H ) :   0.9735

Dispersion correction           -0.013590807
FINAL SINGLE POINT ENERGY     -1339.851949831898

DIPOLE MOMENT
-------------
                                X             Y             Z
Electronic contribution:      7.96020     -24.07524     -12.49754
Nuclear contribution   :     -8.32101      24.74645      12.77503
                        -----------------------------------------
Total Dipole Moment    :     -0.36082       0.67121       0.27749
                        -----------------------------------------
Magnitude (a.u.)       :      0.81100
Magnitude (Debye)      :      2.06139

Rotational constants in cm-1:     0.018374     0.007669     0.006176
Rotational constants in MHz :   550.831868   229.914008   185.158862

                             ****ORCA TERMINATED NORMALLY****
TOTAL RUN TIME: 0 days 0 hours 0 minutes 29 seconds 497 msec
