                         Program Version 4.2.1 -  RELEASE  -
|  1> ! wB97X-D3 SP def2-SVP
|  2> %pal
|  3> nprocs 16
|  4> end
|  5>
|  6> * xyz 0 1
|  7> S 	 -2.19366 	 -23.7053 	 60.5641
|  8> C 	 -2.72721 	 -23.332 	 58.91
|  9> C 	 -2.95459 	 -21.9796 	 58.7202
| 10> C 	 -2.50795 	 -21.2296 	 59.8537
| 11> C 	 -2.07476 	 -21.9885 	 60.9677
| 12> H 	 -2.46073 	 -20.1508 	 60.0391
| 13> C 	 -3.5075 	 -21.3948 	 57.4478
| 14> H 	 -2.80793 	 -21.699 	 56.657
| 15> H 	 -3.45969 	 -20.2481 	 57.5695
| 16> C 	 -4.87735 	 -21.887 	 57.0254
| 17> H 	 -5.21147 	 -21.6483 	 55.9947
| 18> H 	 -4.77732 	 -22.9437 	 56.9628
| 19> C 	 -5.91833 	 -21.4073 	 58.0381
| 20> H 	 -5.97112 	 -20.3071 	 58.1382
| 21> H 	 -6.81024 	 -21.9311 	 57.8996
| 22> H 	 -5.46551 	 -21.6102 	 59.0088
| 23> S 	 -2.15534 	 -20.3472 	 63.1294
| 24> C 	 -0.865353 	 -20.2888 	 64.2721
| 25> C 	 0.0692493 	 -21.246 	 64.0289
| 26> C 	 -0.100148 	 -21.9022 	 62.7842
| 27> C 	 -1.34212 	 -21.5405 	 62.1469
| 28> H 	 1.01383 	 -21.2275 	 64.7213
| 29> C 	 0.870138 	 -22.9158 	 62.305
| 30> H 	 0.495628 	 -23.5435 	 61.5162
| 31> H 	 1.01008 	 -23.6071 	 63.1805
| 32> C 	 2.29929 	 -22.2802 	 61.9625
| 33> H 	 3.05582 	 -22.9746 	 61.8338
| 34> H 	 2.59183 	 -21.6255 	 62.8479
| 35> C 	 2.35832 	 -21.4033 	 60.6886
| 36> H 	 1.35073 	 -20.872 	 60.5086
| 37> H 	 2.43249 	 -22.0663 	 59.8019
| 38> H 	 3.22321 	 -20.725 	 60.787
| 39> H 	 -2.93241 	 -24.0329 	 58.1413
| 40> H 	 -0.831319 	 -19.664 	 65.1463
| 41> *
| 42>
| 43>                          ****END OF INPUT****

CARTESIAN COORDINATES (ANGSTROEM)
---------------------------------
  S     -2.193660  -23.705300   60.564100
  C     -2.727210  -23.332000   58.910000
  C     -2.954590  -21.979600   58.720200
  C     -2.507950  -21.229600   59.853700
  C     -2.074760  -21.988500   60.967700
  H     -2.460730  -20.150800   60.039100
  C     -3.507500  -21.394800   57.447800
  H     -2.807930  -21.699000   56.657000
  H     -3.459690  -20.248100   57.569500
  C     -4.877350  -21.887000   57.025400
  H     -5.211470  -21.648300   55.994700
  H     -4.777320  -22.943700   56.962800
  C     -5.918330  -21.407300   58.038100
  H     -5.971120  -20.307100   58.138200
  H     -6.810240  -21.931100   57.899600
  H     -5.465510  -21.610200   59.008800
  S     -2.155340  -20.347200   63.129400
  C     -0.865353  -20.288800   64.272100
  C      0.069249  -21.246000   64.028900
  C     -0.100148  -21.902200   62.784200
  C     -1.342120  -21.540500   62.146900
  H      1.013830  -21.227500   64.721300
  C      0.870138  -22.915800   62.305000
  H      0.495628  -23.543500   61.516200
  H      1.010080  -23.607100   63.180500
  C      2.299290  -22.280200   61.962500
  H      3.055820  -22.974600   61.833800
  H      2.591830  -21.625500   62.847900
  C      2.358320  -21.403300   60.688600
  H      1.350730  -20.872000   60.508600
  H      2.432490  -22.066300   59.801900
  H      3.223210  -20.725000   60.787000
  H     -2.932410  -24.032900   58.141300
  H     -0.831319  -19.664000   65.146300

 Total Charge           Charge          ....    0
 Multiplicity           Mult            ....    1
 Number of Electrons    NEL             ....  134
 Basis Dimension        Dim             ....  322

ORBITAL ENERGIES
----------------

  NO   OCC          E(Eh)            E(eV)
   0   2.0000     -88.970836     -2421.0195
   1   2.0000     -88.966149     -2420.8920
   2   2.0000     -10.335670      -281.2479
   3   2.0000     -10.333012      -281.1756
   4   2.0000     -10.316722      -280.7323
   5   2.0000     -10.313939      -280.6566
   6   2.0000     -10.309977      -280.5487
   7   2.0000     -10.306733      -280.4605
   8   2.0000     -10.302261      -280.3388
   9   2.0000     -10.299207      -280.2557
  10   2.0000     -10.298790      -280.2443
  11   2.0000     -10.292726      -280.0793
  12   2.0000     -10.287043      -279.9247
  13   2.0000     -10.285733      -279.8890
  14   2.0000     -10.280721      -279.7526
  15   2.0000     -10.270030      -279.4617
  16   2.0000      -8.084221      -219.9828
  17   2.0000      -8.081309      -219.9036
  18   2.0000      -6.042776      -164.4323
  19   2.0000      -6.039696      -164.3485
  20   2.0000      -6.038807      -164.3243
  21   2.0000      -6.035579      -164.2365
  22   2.0000      -6.035117      -164.2239
  23   2.0000      -6.032364      -164.1490
  24   2.0000      -1.005605       -27.3639
  25   2.0000      -0.984346       -26.7854
  26   2.0000      -0.918468       -24.9928
  27   2.0000      -0.902028       -24.5454
  28   2.0000      -0.870565       -23.6893
  29   2.0000      -0.848810       -23.0973
  30   2.0000      -0.842017       -22.9124
  31   2.0000      -0.813515       -22.1369
  32   2.0000      -0.782152       -21.2834
  33   2.0000      -0.767833       -20.8938
  34   2.0000      -0.710248       -19.3268
  35   2.0000      -0.704473       -19.1697
  36   2.0000      -0.690671       -18.7941
  37   2.0000      -0.654713       -17.8157
  38   2.0000      -0.635227       -17.2854
  39   2.0000      -0.610449       -16.6112
  40   2.0000      -0.593355       -16.1460
  41   2.0000      -0.574813       -15.6415
  42   2.0000      -0.564093       -15.3497
  43   2.0000      -0.548194       -14.9171
  44   2.0000      -0.540170       -14.6988
  45   2.0000      -0.531740       -14.4694
  46   2.0000      -0.519756       -14.1433
  47   2.0000      -0.511780       -13.9262
  48   2.0000      -0.501734       -13.6529
  49   2.0000      -0.494113       -13.4455
  50   2.0000      -0.488791       -13.3007
  51   2.0000      -0.477938       -13.0054
  52   2.0000      -0.468876       -12.7588
  53   2.0000      -0.465815       -12.6755
  54   2.0000      -0.456614       -12.4251
  55   2.0000      -0.445830       -12.1316
  56   2.0000      -0.438333       -11.9276
  57   2.0000      -0.434758       -11.8304
  58   2.0000      -0.431538       -11.7427
  59   2.0000      -0.426576       -11.6077
  60   2.0000      -0.417637       -11.3645
  61   2.0000      -0.414866       -11.2891
  62   2.0000      -0.409090       -11.1319
  63   2.0000      -0.346841        -9.4380
  64   2.0000      -0.333840        -9.0843
  65   2.0000      -0.327652        -8.9159
  66   2.0000      -0.290530        -7.9057
  67   0.0000       0.021574         0.5871
  68   0.0000       0.070412         1.9160
  69   0.0000       0.109764         2.9868
  70   0.0000       0.116517         3.1706
  71   0.0000       0.122204         3.3254

MULLIKEN ATOMIC CHARGES
-----------------------
   0 S :    0.115249
   1 C :   -0.118822
   2 C :   -0.080285
   3 C :    0.025269
   4 C :   -0.159732
   5 H :    0.019359
   6 C :    0.024274
   7 H :    0.043194
   8 H :    0.039469
   9 C :   -0.048980
  10 H :    0.029189
  11 H :    0.007856
  12 C :   -0.016707
  13 H :    0.027763
  14 H :    0.031434
  15 H :    0.025511
  16 S :    0.109083
  17 C :   -0.084126
  18 C :   -0.077350
  19 C :   -0.029991
  20 C :   -0.166102
  21 H :    0.062109
  22 C :    0.055158
  23 H :    0.017917
  24 H :    0.041068
  25 C :   -0.076507
  26 H :    0.017487
  27 H :    0.029532
  28 C :   -0.081976
  29 H :    0.049853
  30 H :    0.033376
  31 H :    0.046915
  32 H :    0.037467
  33 H :    0.052047
Sum of atomic charges:   -0.0000000

LOEWDIN ATOMIC CHARGES
----------------------
   0 S :    0.403428
   1 C :   -0.181847
   2 C :   -0.067092
   3 C :   -0.063106
   4 C :   -0.198411
   5 H :    0.032432
   6 C :   -0.036943
   7 H :    0.037641
   8 H :    0.037089
   9 C :   -0.040887
  10 H :    0.025856
  11 H :    0.016515
  12 C :   -0.061271
  13 H :    0.030620
  14 H :    0.018023
  15 H :    0.029279
  16 S :    0.424340
  17 C :   -0.191718
  18 C :   -0.087088
  19 C :   -0.054679
  20 C :   -0.210016
  21 H :    0.052253
  22 C :   -0.036872
  23 H :    0.016508
  24 H :    0.042174
  25 C :   -0.036937
  26 H :    0.011464
  27 H :    0.026145
  28 C :   -0.075588
  29 H :    0.035293
  30 H :    0.025019
  31 H :    0.029282
  32 H :    0.020380
  33 H :    0.028715

  Mayer bond orders larger than 0.100000
B(  0-S ,  1-C ) :   1.1476 B(  0-S ,  4-C ) :   1.1434 B(  1-C ,  2-C ) :   1.5909
B(  1-C ,  4-C ) :   0.1001 B(  1-C , 32-H ) :   0.9706 B(  2-C ,  3-C ) :   1.2392
B(  2-C ,  6-C ) :   1.0101 B(  3-C ,  4-C ) :   1.5695 B(  3-C ,  5-H ) :   0.9844
B(  4-C , 20-C ) :   1.0371 B(  6-C ,  7-H ) :   0.9354 B(  6-C ,  8-H ) :   0.9492
B(  6-C ,  9-C ) :   1.0743 B(  9-C , 10-H ) :   0.9536 B(  9-C , 11-H ) :   0.9500
B(  9-C , 12-C ) :   1.0714 B( 12-C , 13-H ) :   0.9710 B( 12-C , 14-H ) :   0.9733
B( 12-C , 15-H ) :   0.9740 B( 16-S , 17-C ) :   1.1661 B( 16-S , 20-C ) :   1.1567
B( 17-C , 18-C ) :   1.6133 B( 17-C , 20-C ) :   0.1002 B( 17-C , 33-H ) :   0.9649
B( 18-C , 19-C ) :   1.2636 B( 18-C , 21-H ) :   0.9645 B( 19-C , 20-C ) :   1.5282
B( 19-C , 22-C ) :   1.0536 B( 22-C , 23-H ) :   0.9399 B( 22-C , 24-H ) :   0.9329
B( 22-C , 25-C ) :   1.0551 B( 25-C , 26-H ) :   0.9600 B( 25-C , 27-H ) :   0.9631
B( 25-C , 28-C ) :   1.0616 B( 28-C , 29-H ) :   0.9775 B( 28-C , 30-H ) :   0.9769
B( 28-C , 31-H ) :   0.9748

Dispersion correction           -0.014752845
FINAL SINGLE POINT ENERGY     -1339.867582962894

DIPOLE MOMENT
-------------
                                X             Y             Z
Electronic contribution:     -4.18689      -1.96347      14.57100
Nuclear contribution   :      4.42878       1.98755     -14.79487
                        -----------------------------------------
Total Dipole Moment    :      0.24189       0.02408      -0.22387
                        -----------------------------------------
Magnitude (a.u.)       :      0.33046
Magnitude (Debye)      :      0.83997

Rotational constants in cm-1:     0.022829     0.007880     0.006808
Rotational constants in MHz :   684.405927   236.243914   204.097576

                             ****ORCA TERMINATED NORMALLY****
TOTAL RUN TIME: 0 days 0 hours 0 minutes 35 seconds 497 msec
