                         Program Version 4.2.1 -  RELEASE  -
|  1> ! wB97X-D3 SP def2-SVP
|  2> %pal
|  3> nprocs 16
|  4> end
|  5>
|  6> * xyz 0 1
|  7> S 	 -10.3448 	 64.1039 	 53.3458
|  8> C 	 -10.7147 	 62.3508 	 53.3864
|  9> C 	 -9.53227 	 61.676 	 53.7763
| 10> C 	 -8.42123 	 62.5252 	 54.1077
| 11> C 	 -8.7294 	 63.9047 	 54.0132
| 12> H 	 -7.44032 	 62.3485 	 54.4672
| 13> C 	 -9.44178 	 60.1312 	 53.835
| 14> H 	 -10.4085 	 59.6999 	 54.2421
| 15> H 	 -8.75502 	 59.7717 	 54.6914
| 16> C 	 -9.03854 	 59.3621 	 52.5913
| 17> H 	 -9.44657 	 58.3022 	 52.6091
| 18> H 	 -9.49917 	 59.9197 	 51.7385
| 19> C 	 -7.51941 	 59.1688 	 52.2652
| 20> H 	 -7.02355 	 58.9086 	 53.1797
| 21> H 	 -7.37339 	 58.3392 	 51.5642
| 22> H 	 -7.11011 	 60.0645 	 51.8549
| 23> S 	 -8.89713 	 66.3189 	 55.2371
| 24> C 	 -7.48492 	 67.3593 	 55.3404
| 25> C 	 -6.35137 	 66.7006 	 54.84
| 26> C 	 -6.60143 	 65.3444 	 54.5319
| 27> C 	 -7.95576 	 65.0241 	 54.5645
| 28> H 	 -5.32149 	 67.0822 	 54.8156
| 29> C 	 -5.39291 	 64.4432 	 54.3812
| 30> H 	 -4.73264 	 64.9439 	 53.6369
| 31> H 	 -5.7365 	 63.4687 	 53.961
| 32> C 	 -4.69952 	 64.2415 	 55.718
| 33> H 	 -5.0744 	 63.4228 	 56.3314
| 34> H 	 -4.95975 	 65.1073 	 56.3408
| 35> C 	 -3.16143 	 64.1291 	 55.5385
| 36> H 	 -2.8024 	 64.2156 	 56.5131
| 37> H 	 -2.69525 	 64.8669 	 54.8848
| 38> H 	 -2.99518 	 63.1116 	 55.0245
| 39> H 	 -11.6604 	 61.9186 	 53.2078
| 40> H 	 -7.54846 	 68.3733 	 55.7188
| 41> *
| 42>
| 43>                          ****END OF INPUT****

CARTESIAN COORDINATES (ANGSTROEM)
---------------------------------
  S    -10.344800   64.103900   53.345800
  C    -10.714700   62.350800   53.386400
  C     -9.532270   61.676000   53.776300
  C     -8.421230   62.525200   54.107700
  C     -8.729400   63.904700   54.013200
  H     -7.440320   62.348500   54.467200
  C     -9.441780   60.131200   53.835000
  H    -10.408500   59.699900   54.242100
  H     -8.755020   59.771700   54.691400
  C     -9.038540   59.362100   52.591300
  H     -9.446570   58.302200   52.609100
  H     -9.499170   59.919700   51.738500
  C     -7.519410   59.168800   52.265200
  H     -7.023550   58.908600   53.179700
  H     -7.373390   58.339200   51.564200
  H     -7.110110   60.064500   51.854900
  S     -8.897130   66.318900   55.237100
  C     -7.484920   67.359300   55.340400
  C     -6.351370   66.700600   54.840000
  C     -6.601430   65.344400   54.531900
  C     -7.955760   65.024100   54.564500
  H     -5.321490   67.082200   54.815600
  C     -5.392910   64.443200   54.381200
  H     -4.732640   64.943900   53.636900
  H     -5.736500   63.468700   53.961000
  C     -4.699520   64.241500   55.718000
  H     -5.074400   63.422800   56.331400
  H     -4.959750   65.107300   56.340800
  C     -3.161430   64.129100   55.538500
  H     -2.802400   64.215600   56.513100
  H     -2.695250   64.866900   54.884800
  H     -2.995180   63.111600   55.024500
  H    -11.660400   61.918600   53.207800
  H     -7.548460   68.373300   55.718800

 Total Charge           Charge          ....    0
 Multiplicity           Mult            ....    1
 Number of Electrons    NEL             ....  134
 Basis Dimension        Dim             ....  322

ORBITAL ENERGIES
----------------

  NO   OCC          E(Eh)            E(eV)
   0   2.0000     -88.968735     -2420.9624
   1   2.0000     -88.968380     -2420.9527
   2   2.0000     -10.336010      -281.2571
   3   2.0000     -10.329368      -281.0764
   4   2.0000     -10.323992      -280.9301
   5   2.0000     -10.320742      -280.8417
   6   2.0000     -10.313903      -280.6556
   7   2.0000     -10.302303      -280.3399
   8   2.0000     -10.302191      -280.3369
   9   2.0000     -10.298923      -280.2480
  10   2.0000     -10.298380      -280.2332
  11   2.0000     -10.296301      -280.1766
  12   2.0000     -10.291524      -280.0466
  13   2.0000     -10.288469      -279.9635
  14   2.0000     -10.283699      -279.8337
  15   2.0000     -10.274002      -279.5698
  16   2.0000      -8.083208      -219.9553
  17   2.0000      -8.082322      -219.9312
  18   2.0000      -6.041684      -164.4026
  19   2.0000      -6.040926      -164.3819
  20   2.0000      -6.037612      -164.2918
  21   2.0000      -6.036834      -164.2706
  22   2.0000      -6.034072      -164.1954
  23   2.0000      -6.033179      -164.1711
  24   2.0000      -1.006250       -27.3814
  25   2.0000      -0.978128       -26.6162
  26   2.0000      -0.915525       -24.9127
  27   2.0000      -0.901627       -24.5345
  28   2.0000      -0.865547       -23.5527
  29   2.0000      -0.853852       -23.2345
  30   2.0000      -0.840146       -22.8615
  31   2.0000      -0.812041       -22.0967
  32   2.0000      -0.782001       -21.2793
  33   2.0000      -0.771971       -21.0064
  34   2.0000      -0.704569       -19.1723
  35   2.0000      -0.697899       -18.9908
  36   2.0000      -0.689542       -18.7634
  37   2.0000      -0.668887       -18.2013
  38   2.0000      -0.645471       -17.5642
  39   2.0000      -0.611845       -16.6491
  40   2.0000      -0.597417       -16.2565
  41   2.0000      -0.570214       -15.5163
  42   2.0000      -0.559064       -15.2129
  43   2.0000      -0.543884       -14.7998
  44   2.0000      -0.537743       -14.6327
  45   2.0000      -0.532775       -14.4975
  46   2.0000      -0.525073       -14.2880
  47   2.0000      -0.516783       -14.0624
  48   2.0000      -0.505181       -13.7467
  49   2.0000      -0.500221       -13.6117
  50   2.0000      -0.487571       -13.2675
  51   2.0000      -0.481061       -13.0903
  52   2.0000      -0.468653       -12.7527
  53   2.0000      -0.465145       -12.6573
  54   2.0000      -0.460902       -12.5418
  55   2.0000      -0.454812       -12.3761
  56   2.0000      -0.445631       -12.1262
  57   2.0000      -0.442840       -12.0503
  58   2.0000      -0.429116       -11.6768
  59   2.0000      -0.417684       -11.3658
  60   2.0000      -0.414133       -11.2691
  61   2.0000      -0.411969       -11.2102
  62   2.0000      -0.402030       -10.9398
  63   2.0000      -0.351598        -9.5675
  64   2.0000      -0.333422        -9.0729
  65   2.0000      -0.330520        -8.9939
  66   2.0000      -0.283593        -7.7170
  67   0.0000       0.017723         0.4823
  68   0.0000       0.071064         1.9337
  69   0.0000       0.108437         2.9507
  70   0.0000       0.113416         3.0862
  71   0.0000       0.127207         3.4615

MULLIKEN ATOMIC CHARGES
-----------------------
   0 S :    0.099853
   1 C :   -0.108894
   2 C :   -0.054715
   3 C :    0.044884
   4 C :   -0.135384
   5 H :   -0.008023
   6 C :    0.006147
   7 H :    0.035368
   8 H :    0.028669
   9 C :   -0.100710
  10 H :    0.039348
  11 H :    0.034222
  12 C :   -0.029230
  13 H :    0.017026
  14 H :    0.036303
  15 H :    0.033781
  16 S :    0.110243
  17 C :   -0.106438
  18 C :   -0.019605
  19 C :   -0.073424
  20 C :   -0.152422
  21 H :    0.029133
  22 C :    0.050180
  23 H :    0.038424
  24 H :    0.028086
  25 C :   -0.082427
  26 H :    0.034151
  27 H :    0.032001
  28 C :   -0.047617
  29 H :    0.031715
  30 H :    0.034620
  31 H :    0.045158
  32 H :    0.043165
  33 H :    0.066413
Sum of atomic charges:    0.0000000

LOEWDIN ATOMIC CHARGES
----------------------
   0 S :    0.390515
   1 C :   -0.184782
   2 C :   -0.055697
   3 C :   -0.068859
   4 C :   -0.182563
   5 H :    0.022777
   6 C :   -0.050235
   7 H :    0.037937
   8 H :    0.033191
   9 C :   -0.052039
  10 H :    0.031692
  11 H :    0.027164
  12 C :   -0.061932
  13 H :    0.018203
  14 H :    0.029151
  15 H :    0.020802
  16 S :    0.416908
  17 C :   -0.183756
  18 C :   -0.069016
  19 C :   -0.059948
  20 C :   -0.207141
  21 H :    0.035598
  22 C :   -0.033101
  23 H :    0.036289
  24 H :    0.029113
  25 C :   -0.043291
  26 H :    0.028071
  27 H :    0.024119
  28 C :   -0.060333
  29 H :    0.018992
  30 H :    0.022450
  31 H :    0.036568
  32 H :    0.023757
  33 H :    0.029395

  Mayer bond orders larger than 0.100000
B(  0-S ,  1-C ) :   1.1255 B(  0-S ,  4-C ) :   1.1607 B(  1-C ,  2-C ) :   1.5750
B(  1-C ,  4-C ) :   0.1031 B(  1-C , 32-H ) :   0.9822 B(  2-C ,  3-C ) :   1.2455
B(  2-C ,  6-C ) :   1.0218 B(  3-C ,  4-C ) :   1.5395 B(  3-C ,  5-H ) :   0.9967
B(  4-C , 20-C ) :   1.0585 B(  6-C ,  7-H ) :   0.9452 B(  6-C ,  8-H ) :   0.9456
B(  6-C ,  9-C ) :   1.0614 B(  9-C , 10-H ) :   0.9578 B(  9-C , 11-H ) :   0.9558
B(  9-C , 12-C ) :   1.0760 B( 12-C , 13-H ) :   0.9749 B( 12-C , 14-H ) :   0.9765
B( 12-C , 15-H ) :   0.9786 B( 16-S , 17-C ) :   1.1647 B( 16-S , 20-C ) :   1.1456
B( 17-C , 18-C ) :   1.5548 B( 17-C , 20-C ) :   0.1005 B( 17-C , 33-H ) :   0.9725
B( 18-C , 19-C ) :   1.2862 B( 18-C , 21-H ) :   0.9826 B( 19-C , 20-C ) :   1.5591
B( 19-C , 22-C ) :   1.0490 B( 22-C , 23-H ) :   0.9415 B( 22-C , 24-H ) :   0.9293
B( 22-C , 25-C ) :   1.0401 B( 25-C , 26-H ) :   0.9497 B( 25-C , 27-H ) :   0.9642
B( 25-C , 28-C ) :   1.0681 B( 28-C , 29-H ) :   0.9752 B( 28-C , 30-H ) :   0.9799
B( 28-C , 31-H ) :   0.9752

Dispersion correction           -0.013780992
FINAL SINGLE POINT ENERGY     -1339.863231457127

DIPOLE MOMENT
-------------
                                X             Y             Z
Electronic contribution:    -21.30778      21.73317       1.38292
Nuclear contribution   :     21.84741     -21.99919      -1.18388
                        -----------------------------------------
Total Dipole Moment    :      0.53963      -0.26602       0.19904
                        -----------------------------------------
Magnitude (a.u.)       :      0.63371
Magnitude (Debye)      :      1.61076

Rotational constants in cm-1:     0.017236     0.008980     0.006187
Rotational constants in MHz :   516.709675   269.210601   185.488747

                             ****ORCA TERMINATED NORMALLY****
TOTAL RUN TIME: 0 days 0 hours 0 minutes 33 seconds 701 msec
