                         Program Version 4.2.1 -  RELEASE  -
|  1> ! wB97X-D3 SP def2-SVP
|  2> %pal
|  3> nprocs 16
|  4> end
|  5>
|  6> * xyz 0 1
|  7> S 	 -69.3206 	 37.93 	 118.214
|  8> C 	 -71.0092 	 38.4519 	 118.43
|  9> C 	 -71.8127 	 38.2604 	 117.319
| 10> C 	 -71.031 	 37.7143 	 116.228
| 11> C 	 -69.7017 	 37.6439 	 116.534
| 12> H 	 -71.2494 	 37.3671 	 115.2
| 13> C 	 -73.2819 	 38.5558 	 117.14
| 14> H 	 -73.4907 	 39.1581 	 118.023
| 15> H 	 -73.8459 	 37.6627 	 117.177
| 16> C 	 -73.6484 	 39.3604 	 115.852
| 17> H 	 -73.1596 	 40.3 	 115.993
| 18> H 	 -73.2082 	 38.8649 	 114.967
| 19> C 	 -75.1739 	 39.5466 	 115.702
| 20> H 	 -75.3931 	 40.3099 	 116.442
| 21> H 	 -75.4714 	 39.9295 	 114.747
| 22> H 	 -75.7012 	 38.5844 	 115.917
| 23> S 	 -67.8257 	 35.775 	 115.787
| 24> C 	 -66.842 	 36.0174 	 114.464
| 25> C 	 -67.1388 	 37.2025 	 113.847
| 26> C 	 -68.2633 	 37.8411 	 114.434
| 27> C 	 -68.6502 	 37.2721 	 115.633
| 28> H 	 -66.6981 	 37.4858 	 112.887
| 29> C 	 -68.8089 	 39.2011 	 113.932
| 30> H 	 -69.814 	 39.3189 	 114.378
| 31> H 	 -69.0072 	 39.1133 	 112.813
| 32> C 	 -68.0094 	 40.4798 	 114.238
| 33> H 	 -67.1664 	 40.5561 	 113.612
| 34> H 	 -67.6911 	 40.3178 	 115.269
| 35> C 	 -68.8549 	 41.7168 	 114.332
| 36> H 	 -68.1556 	 42.4881 	 114.563
| 37> H 	 -69.5632 	 41.7341 	 115.121
| 38> H 	 -69.3764 	 41.8621 	 113.412
| 39> H 	 -71.2856 	 38.6305 	 119.494
| 40> H 	 -65.9423 	 35.4166 	 114.214
| 41> *
| 42>
| 43>                          ****END OF INPUT****

CARTESIAN COORDINATES (ANGSTROEM)
---------------------------------
  S    -69.320600   37.930000  118.214000
  C    -71.009200   38.451900  118.430000
  C    -71.812700   38.260400  117.319000
  C    -71.031000   37.714300  116.228000
  C    -69.701700   37.643900  116.534000
  H    -71.249400   37.367100  115.200000
  C    -73.281900   38.555800  117.140000
  H    -73.490700   39.158100  118.023000
  H    -73.845900   37.662700  117.177000
  C    -73.648400   39.360400  115.852000
  H    -73.159600   40.300000  115.993000
  H    -73.208200   38.864900  114.967000
  C    -75.173900   39.546600  115.702000
  H    -75.393100   40.309900  116.442000
  H    -75.471400   39.929500  114.747000
  H    -75.701200   38.584400  115.917000
  S    -67.825700   35.775000  115.787000
  C    -66.842000   36.017400  114.464000
  C    -67.138800   37.202500  113.847000
  C    -68.263300   37.841100  114.434000
  C    -68.650200   37.272100  115.633000
  H    -66.698100   37.485800  112.887000
  C    -68.808900   39.201100  113.932000
  H    -69.814000   39.318900  114.378000
  H    -69.007200   39.113300  112.813000
  C    -68.009400   40.479800  114.238000
  H    -67.166400   40.556100  113.612000
  H    -67.691100   40.317800  115.269000
  C    -68.854900   41.716800  114.332000
  H    -68.155600   42.488100  114.563000
  H    -69.563200   41.734100  115.121000
  H    -69.376400   41.862100  113.412000
  H    -71.285600   38.630500  119.494000
  H    -65.942300   35.416600  114.214000

 Total Charge           Charge          ....    0
 Multiplicity           Mult            ....    1
 Number of Electrons    NEL             ....  134
 Basis Dimension        Dim             ....  322

ORBITAL ENERGIES
----------------

  NO   OCC          E(Eh)            E(eV)
   0   2.0000     -88.964825     -2420.8560
   1   2.0000     -88.961315     -2420.7604
   2   2.0000     -10.323017      -280.9036
   3   2.0000     -10.320807      -280.8434
   4   2.0000     -10.315348      -280.6949
   5   2.0000     -10.310528      -280.5637
   6   2.0000     -10.309459      -280.5346
   7   2.0000     -10.298169      -280.2274
   8   2.0000     -10.296003      -280.1685
   9   2.0000     -10.291324      -280.0412
  10   2.0000     -10.289895      -280.0023
  11   2.0000     -10.289235      -279.9843
  12   2.0000     -10.287793      -279.9451
  13   2.0000     -10.282140      -279.7913
  14   2.0000     -10.274257      -279.5767
  15   2.0000     -10.264526      -279.3120
  16   2.0000      -8.079677      -219.8592
  17   2.0000      -8.078408      -219.8246
  18   2.0000      -6.037986      -164.3020
  19   2.0000      -6.036584      -164.2638
  20   2.0000      -6.034475      -164.2064
  21   2.0000      -6.032466      -164.1518
  22   2.0000      -6.030334      -164.0937
  23   2.0000      -6.029478      -164.0704
  24   2.0000      -1.016307       -27.6551
  25   2.0000      -0.988205       -26.8904
  26   2.0000      -0.912989       -24.8437
  27   2.0000      -0.906871       -24.6772
  28   2.0000      -0.872832       -23.7510
  29   2.0000      -0.854295       -23.2465
  30   2.0000      -0.847467       -23.0608
  31   2.0000      -0.814413       -22.1613
  32   2.0000      -0.782475       -21.2922
  33   2.0000      -0.770254       -20.9597
  34   2.0000      -0.707888       -19.2626
  35   2.0000      -0.694706       -18.9039
  36   2.0000      -0.689639       -18.7660
  37   2.0000      -0.656137       -17.8544
  38   2.0000      -0.646919       -17.6035
  39   2.0000      -0.616501       -16.7758
  40   2.0000      -0.594184       -16.1686
  41   2.0000      -0.577152       -15.7051
  42   2.0000      -0.566037       -15.4027
  43   2.0000      -0.559299       -15.2193
  44   2.0000      -0.528344       -14.3770
  45   2.0000      -0.525308       -14.2944
  46   2.0000      -0.519397       -14.1335
  47   2.0000      -0.512362       -13.9421
  48   2.0000      -0.505817       -13.7640
  49   2.0000      -0.497738       -13.5442
  50   2.0000      -0.491568       -13.3762
  51   2.0000      -0.480007       -13.0617
  52   2.0000      -0.471012       -12.8169
  53   2.0000      -0.461845       -12.5675
  54   2.0000      -0.458567       -12.4782
  55   2.0000      -0.453956       -12.3528
  56   2.0000      -0.438593       -11.9347
  57   2.0000      -0.433954       -11.8085
  58   2.0000      -0.432304       -11.7636
  59   2.0000      -0.426948       -11.6178
  60   2.0000      -0.424908       -11.5623
  61   2.0000      -0.421565       -11.4714
  62   2.0000      -0.403467       -10.9789
  63   2.0000      -0.338171        -9.2021
  64   2.0000      -0.331857        -9.0303
  65   2.0000      -0.328012        -8.9257
  66   2.0000      -0.301184        -8.1956
  67   0.0000       0.037013         1.0072
  68   0.0000       0.069917         1.9025
  69   0.0000       0.110729         3.0131
  70   0.0000       0.121749         3.3130
  71   0.0000       0.126700         3.4477

MULLIKEN ATOMIC CHARGES
-----------------------
   0 S :    0.103374
   1 C :   -0.149547
   2 C :   -0.074563
   3 C :    0.033087
   4 C :   -0.195118
   5 H :    0.035143
   6 C :    0.099688
   7 H :    0.016338
   8 H :    0.029840
   9 C :   -0.114279
  10 H :    0.030541
  11 H :    0.038472
  12 C :   -0.028027
  13 H :    0.030726
  14 H :    0.034139
  15 H :    0.039825
  16 S :    0.125283
  17 C :   -0.100084
  18 C :   -0.037261
  19 C :   -0.057210
  20 C :   -0.157582
  21 H :    0.022118
  22 C :    0.028320
  23 H :    0.011975
  24 H :    0.028669
  25 C :   -0.038146
  26 H :    0.020795
  27 H :    0.022924
  28 C :   -0.011392
  29 H :    0.025426
  30 H :    0.025434
  31 H :    0.021989
  32 H :    0.065250
  33 H :    0.073852
Sum of atomic charges:    0.0000000

LOEWDIN ATOMIC CHARGES
----------------------
   0 S :    0.389077
   1 C :   -0.192720
   2 C :   -0.057369
   3 C :   -0.061403
   4 C :   -0.192735
   5 H :    0.042165
   6 C :   -0.026587
   7 H :    0.030964
   8 H :    0.026013
   9 C :   -0.037292
  10 H :    0.022229
  11 H :    0.021563
  12 C :   -0.062016
  13 H :    0.027684
  14 H :    0.023222
  15 H :    0.030361
  16 S :    0.455180
  17 C :   -0.218482
  18 C :   -0.081243
  19 C :   -0.058826
  20 C :   -0.226665
  21 H :    0.033032
  22 C :   -0.040074
  23 H :    0.027228
  24 H :    0.030474
  25 C :   -0.036438
  26 H :    0.016054
  27 H :    0.028920
  28 C :   -0.053400
  29 H :    0.027425
  30 H :    0.022346
  31 H :    0.019108
  32 H :    0.031151
  33 H :    0.041054

  Mayer bond orders larger than 0.100000
B(  0-S ,  1-C ) :   1.1257 B(  0-S ,  4-C ) :   1.1435 B(  1-C ,  2-C ) :   1.6438
B(  1-C , 32-H ) :   0.9636 B(  2-C ,  3-C ) :   1.1756 B(  2-C ,  6-C ) :   1.0224
B(  3-C ,  4-C ) :   1.6389 B(  3-C ,  5-H ) :   0.9817 B(  4-C , 20-C ) :   1.0115
B(  6-C ,  7-H ) :   0.9412 B(  6-C ,  8-H ) :   0.9309 B(  6-C ,  9-C ) :   1.0575
B(  9-C , 10-H ) :   0.9606 B(  9-C , 11-H ) :   0.9576 B(  9-C , 12-C ) :   1.0758
B( 12-C , 13-H ) :   0.9765 B( 12-C , 14-H ) :   0.9751 B( 12-C , 15-H ) :   0.9759
B( 16-S , 17-C ) :   1.1954 B( 16-S , 20-C ) :   1.1676 B( 17-C , 18-C ) :   1.5673
B( 17-C , 33-H ) :   0.9603 B( 18-C , 19-C ) :   1.2796 B( 18-C , 21-H ) :   0.9895
B( 19-C , 20-C ) :   1.5632 B( 19-C , 22-C ) :   1.0602 B( 22-C , 23-H ) :   0.9315
B( 22-C , 24-H ) :   0.9278 B( 22-C , 25-C ) :   1.0626 B( 25-C , 26-H ) :   0.9559
B( 25-C , 27-H ) :   0.9522 B( 25-C , 28-C ) :   1.0945 B( 28-C , 29-H ) :   0.9705
B( 28-C , 30-H ) :   0.9716 B( 28-C , 31-H ) :   0.9755

Dispersion correction           -0.014369518
FINAL SINGLE POINT ENERGY     -1339.876746963540

DIPOLE MOMENT
-------------
                                X             Y             Z
Electronic contribution:     18.18925     -20.70546      11.29171
Nuclear contribution   :    -18.55201      20.99546     -11.58143
                        -----------------------------------------
Total Dipole Moment    :     -0.36276       0.29000      -0.28972
                        -----------------------------------------
Magnitude (a.u.)       :      0.54739
Magnitude (Debye)      :      1.39135

Rotational constants in cm-1:     0.017566     0.008950     0.007338
Rotational constants in MHz :   526.624079   268.319330   219.992288

                             ****ORCA TERMINATED NORMALLY****
TOTAL RUN TIME: 0 days 0 hours 0 minutes 33 seconds 105 msec
