                         Program Version 4.2.1 -  RELEASE  -
|  1> ! wB97X-D3 SP def2-SVP
|  2> %pal
|  3> nprocs 16
|  4> end
|  5>
|  6> * xyz 0 1
|  7> S 	 -93.9948 	 52.3282 	 122.961
|  8> C 	 -95.2469 	 51.1239 	 123.131
|  9> C 	 -94.9677 	 49.9858 	 122.401
| 10> C 	 -93.6738 	 50.13 	 121.804
| 11> C 	 -92.9226 	 51.2096 	 122.174
| 12> H 	 -93.1703 	 49.5048 	 121.119
| 13> C 	 -95.7329 	 48.7052 	 122.307
| 14> H 	 -96.6134 	 48.8259 	 121.709
| 15> H 	 -96.1244 	 48.4441 	 123.246
| 16> C 	 -94.8438 	 47.514 	 121.692
| 17> H 	 -95.4363 	 46.5718 	 121.538
| 18> H 	 -94.6356 	 47.7057 	 120.678
| 19> C 	 -93.6092 	 47.1527 	 122.383
| 20> H 	 -93.707 	 47.4087 	 123.464
| 21> H 	 -93.3976 	 46.0615 	 122.338
| 22> H 	 -92.7884 	 47.8284 	 122.073
| 23> S 	 -91.3566 	 53.3577 	 121.331
| 24> C 	 -89.6898 	 53.1001 	 120.962
| 25> C 	 -89.273 	 51.8243 	 121.173
| 26> C 	 -90.3102 	 50.9367 	 121.681
| 27> C 	 -91.5366 	 51.6048 	 121.781
| 28> H 	 -88.2157 	 51.6199 	 121.076
| 29> C 	 -90.0067 	 49.496 	 122.027
| 30> H 	 -90.729 	 49.0238 	 122.659
| 31> H 	 -89.2801 	 49.3995 	 122.821
| 32> C 	 -89.6912 	 48.6061 	 120.79
| 33> H 	 -88.8226 	 49.0169 	 120.268
| 34> H 	 -90.5035 	 48.7828 	 120.071
| 35> C 	 -89.572 	 47.0604 	 121.045
| 36> H 	 -88.8778 	 46.8484 	 121.865
| 37> H 	 -89.1442 	 46.7075 	 120.166
| 38> H 	 -90.6281 	 46.6285 	 121.129
| 39> H 	 -96.1555 	 51.1871 	 123.74
| 40> H 	 -89.0048 	 53.9187 	 120.739
| 41> *
| 42>
| 43>                          ****END OF INPUT****

CARTESIAN COORDINATES (ANGSTROEM)
---------------------------------
  S    -93.994800   52.328200  122.961000
  C    -95.246900   51.123900  123.131000
  C    -94.967700   49.985800  122.401000
  C    -93.673800   50.130000  121.804000
  C    -92.922600   51.209600  122.174000
  H    -93.170300   49.504800  121.119000
  C    -95.732900   48.705200  122.307000
  H    -96.613400   48.825900  121.709000
  H    -96.124400   48.444100  123.246000
  C    -94.843800   47.514000  121.692000
  H    -95.436300   46.571800  121.538000
  H    -94.635600   47.705700  120.678000
  C    -93.609200   47.152700  122.383000
  H    -93.707000   47.408700  123.464000
  H    -93.397600   46.061500  122.338000
  H    -92.788400   47.828400  122.073000
  S    -91.356600   53.357700  121.331000
  C    -89.689800   53.100100  120.962000
  C    -89.273000   51.824300  121.173000
  C    -90.310200   50.936700  121.681000
  C    -91.536600   51.604800  121.781000
  H    -88.215700   51.619900  121.076000
  C    -90.006700   49.496000  122.027000
  H    -90.729000   49.023800  122.659000
  H    -89.280100   49.399500  122.821000
  C    -89.691200   48.606100  120.790000
  H    -88.822600   49.016900  120.268000
  H    -90.503500   48.782800  120.071000
  C    -89.572000   47.060400  121.045000
  H    -88.877800   46.848400  121.865000
  H    -89.144200   46.707500  120.166000
  H    -90.628100   46.628500  121.129000
  H    -96.155500   51.187100  123.740000
  H    -89.004800   53.918700  120.739000

 Total Charge           Charge          ....    0
 Multiplicity           Mult            ....    1
 Number of Electrons    NEL             ....  134
 Basis Dimension        Dim             ....  322

ORBITAL ENERGIES
----------------

  NO   OCC          E(Eh)            E(eV)
   0   2.0000     -88.963828     -2420.8288
   1   2.0000     -88.963147     -2420.8103
   2   2.0000     -10.338630      -281.3284
   3   2.0000     -10.328132      -281.0427
   4   2.0000     -10.315527      -280.6997
   5   2.0000     -10.314709      -280.6775
   6   2.0000     -10.313404      -280.6420
   7   2.0000     -10.301790      -280.3260
   8   2.0000     -10.293872      -280.1105
   9   2.0000     -10.293697      -280.1057
  10   2.0000     -10.291754      -280.0529
  11   2.0000     -10.290342      -280.0144
  12   2.0000     -10.287087      -279.9259
  13   2.0000     -10.286228      -279.9025
  14   2.0000     -10.284384      -279.8523
  15   2.0000     -10.277756      -279.6720
  16   2.0000      -8.078368      -219.8236
  17   2.0000      -8.078216      -219.8194
  18   2.0000      -6.036955      -164.2739
  19   2.0000      -6.036827      -164.2704
  20   2.0000      -6.033030      -164.1671
  21   2.0000      -6.032728      -164.1589
  22   2.0000      -6.028931      -164.0555
  23   2.0000      -6.028800      -164.0520
  24   2.0000      -1.005831       -27.3701
  25   2.0000      -0.983471       -26.7616
  26   2.0000      -0.915034       -24.8993
  27   2.0000      -0.904848       -24.6222
  28   2.0000      -0.870796       -23.6956
  29   2.0000      -0.850452       -23.1420
  30   2.0000      -0.842074       -22.9140
  31   2.0000      -0.820407       -22.3244
  32   2.0000      -0.788533       -21.4571
  33   2.0000      -0.776311       -21.1245
  34   2.0000      -0.706353       -19.2208
  35   2.0000      -0.702569       -19.1179
  36   2.0000      -0.692125       -18.8337
  37   2.0000      -0.658123       -17.9084
  38   2.0000      -0.644184       -17.5291
  39   2.0000      -0.627778       -17.0827
  40   2.0000      -0.604147       -16.4397
  41   2.0000      -0.565065       -15.3762
  42   2.0000      -0.558186       -15.1890
  43   2.0000      -0.552266       -15.0279
  44   2.0000      -0.536619       -14.6021
  45   2.0000      -0.527632       -14.3576
  46   2.0000      -0.518130       -14.0990
  47   2.0000      -0.512709       -13.9515
  48   2.0000      -0.506264       -13.7761
  49   2.0000      -0.498156       -13.5555
  50   2.0000      -0.494239       -13.4489
  51   2.0000      -0.486300       -13.2329
  52   2.0000      -0.470295       -12.7974
  53   2.0000      -0.462371       -12.5817
  54   2.0000      -0.456412       -12.4196
  55   2.0000      -0.451268       -12.2796
  56   2.0000      -0.447885       -12.1876
  57   2.0000      -0.440999       -12.0002
  58   2.0000      -0.434164       -11.8142
  59   2.0000      -0.426080       -11.5942
  60   2.0000      -0.415733       -11.3127
  61   2.0000      -0.412729       -11.2309
  62   2.0000      -0.405563       -11.0359
  63   2.0000      -0.352761        -9.5991
  64   2.0000      -0.331702        -9.0261
  65   2.0000      -0.325425        -8.8553
  66   2.0000      -0.290262        -7.8984
  67   0.0000       0.027324         0.7435
  68   0.0000       0.072251         1.9660
  69   0.0000       0.102222         2.7816
  70   0.0000       0.120163         3.2698
  71   0.0000       0.127986         3.4827

MULLIKEN ATOMIC CHARGES
-----------------------
   0 S :    0.100380
   1 C :   -0.120162
   2 C :   -0.087355
   3 C :    0.004582
   4 C :   -0.128712
   5 H :    0.000054
   6 C :    0.139005
   7 H :    0.031506
   8 H :    0.015986
   9 C :   -0.112063
  10 H :    0.026305
  11 H :    0.018303
  12 C :   -0.048874
  13 H :    0.029533
  14 H :    0.047876
  15 H :    0.026874
  16 S :    0.083716
  17 C :   -0.084573
  18 C :   -0.034655
  19 C :   -0.028131
  20 C :   -0.144933
  21 H :    0.021314
  22 C :    0.083365
  23 H :    0.000544
  24 H :    0.014963
  25 C :   -0.114941
  26 H :    0.027838
  27 H :    0.029501
  28 C :   -0.023017
  29 H :    0.040992
  30 H :    0.021576
  31 H :    0.051763
  32 H :    0.048404
  33 H :    0.063031
Sum of atomic charges:   -0.0000000

LOEWDIN ATOMIC CHARGES
----------------------
   0 S :    0.404243
   1 C :   -0.196846
   2 C :   -0.064251
   3 C :   -0.061446
   4 C :   -0.195572
   5 H :    0.023112
   6 C :   -0.019981
   7 H :    0.034768
   8 H :    0.025610
   9 C :   -0.050521
  10 H :    0.031889
  11 H :    0.016667
  12 C :   -0.078064
  13 H :    0.032223
  14 H :    0.033291
  15 H :    0.022753
  16 S :    0.376554
  17 C :   -0.186329
  18 C :   -0.073774
  19 C :   -0.048325
  20 C :   -0.168162
  21 H :    0.032882
  22 C :   -0.045487
  23 H :    0.027371
  24 H :    0.032628
  25 C :   -0.039565
  26 H :    0.020661
  27 H :    0.024189
  28 C :   -0.062378
  29 H :    0.027728
  30 H :    0.019115
  31 H :    0.038465
  32 H :    0.033378
  33 H :    0.033174

  Mayer bond orders larger than 0.100000
B(  0-S ,  1-C ) :   1.1440 B(  0-S ,  4-C ) :   1.1412 B(  1-C ,  2-C ) :   1.6192
B(  1-C , 32-H ) :   0.9683 B(  2-C ,  3-C ) :   1.2303 B(  2-C ,  6-C ) :   1.0086
B(  3-C ,  4-C ) :   1.5895 B(  3-C ,  5-H ) :   0.9904 B(  4-C , 20-C ) :   1.0279
B(  6-C ,  7-H ) :   0.9255 B(  6-C ,  8-H ) :   0.9376 B(  6-C ,  9-C ) :   1.0827
B(  9-C , 10-H ) :   0.9546 B(  9-C , 11-H ) :   0.9453 B(  9-C , 12-C ) :   1.0810
B( 12-C , 13-H ) :   0.9709 B( 12-C , 14-H ) :   0.9690 B( 12-C , 15-H ) :   0.9587
B( 16-S , 17-C ) :   1.1433 B( 16-S , 20-C ) :   1.1200 B( 17-C , 18-C ) :   1.6556
B( 17-C , 33-H ) :   0.9612 B( 18-C , 19-C ) :   1.1952 B( 18-C , 21-H ) :   0.9886
B( 19-C , 20-C ) :   1.6346 B( 19-C , 22-C ) :   1.0550 B( 22-C , 23-H ) :   0.9285
B( 22-C , 24-H ) :   0.9212 B( 22-C , 25-C ) :   1.0355 B( 25-C , 26-H ) :   0.9613
B( 25-C , 27-H ) :   0.9572 B( 25-C , 28-C ) :   1.0748 B( 28-C , 29-H ) :   0.9755
B( 28-C , 30-H ) :   0.9715 B( 28-C , 31-H ) :   0.9735

Dispersion correction           -0.015564087
FINAL SINGLE POINT ENERGY     -1339.858671433647

DIPOLE MOMENT
-------------
                                X             Y             Z
Electronic contribution:     -4.20385      31.76699       3.04334
Nuclear contribution   :      4.35971     -32.50344      -3.11350
                        -----------------------------------------
Total Dipole Moment    :      0.15586      -0.73644      -0.07016
                        -----------------------------------------
Magnitude (a.u.)       :      0.75602
Magnitude (Debye)      :      1.92164

Rotational constants in cm-1:     0.015593     0.011768     0.007014
Rotational constants in MHz :   467.461590   352.783261   210.263553

                             ****ORCA TERMINATED NORMALLY****
TOTAL RUN TIME: 0 days 0 hours 0 minutes 36 seconds 51 msec
