                         Program Version 4.2.1 -  RELEASE  -
|  1> ! wB97X-D3 SP def2-SVP
|  2> %pal
|  3> nprocs 16
|  4> end
|  5>
|  6> * xyz 0 1
|  7> S 	 65.4574 	 -4.38669 	 88.7276
|  8> C 	 64.4045 	 -3.93933 	 90.0554
|  9> C 	 64.9039 	 -2.87261 	 90.7465
| 10> C 	 66.2599 	 -2.57785 	 90.3285
| 11> C 	 66.7269 	 -3.39415 	 89.3769
| 12> H 	 66.85 	 -1.818 	 90.8195
| 13> C 	 64.3319 	 -2.14244 	 91.968
| 14> H 	 65.1844 	 -1.67232 	 92.5627
| 15> H 	 63.8742 	 -2.80703 	 92.6447
| 16> C 	 63.2372 	 -1.04422 	 91.6778
| 17> H 	 63.5637 	 -0.366078 	 90.9324
| 18> H 	 62.4697 	 -1.5898 	 91.165
| 19> C 	 62.6111 	 -0.201442 	 92.7935
| 20> H 	 61.7446 	 0.383706 	 92.4337
| 21> H 	 62.2135 	 -0.780046 	 93.6017
| 22> H 	 63.3884 	 0.313308 	 93.2788
| 23> S 	 68.6931 	 -5.04101 	 88.5537
| 24> C 	 70.2321 	 -4.45192 	 88.1263
| 25> C 	 70.3972 	 -3.11535 	 88.3163
| 26> C 	 69.1395 	 -2.467 	 88.6647
| 27> C 	 68.1101 	 -3.42354 	 88.8089
| 28> H 	 71.356 	 -2.6526 	 88.0321
| 29> C 	 69.0537 	 -0.933677 	 88.8109
| 30> H 	 68.1327 	 -0.55389 	 89.4034
| 31> H 	 69.0287 	 -0.447958 	 87.7881
| 32> C 	 70.3243 	 -0.252166 	 89.4398
| 33> H 	 71.2619 	 -0.680546 	 88.9922
| 34> H 	 70.3815 	 -0.403747 	 90.4908
| 35> C 	 70.2695 	 1.27158 	 89.2645
| 36> H 	 69.2959 	 1.67519 	 89.6603
| 37> H 	 70.3324 	 1.52266 	 88.1615
| 38> H 	 71.0843 	 1.76462 	 89.803
| 39> H 	 63.4205 	 -4.37966 	 90.1471
| 40> H 	 71.0275 	 -5.13333 	 87.8449
| 41> *
| 42>
| 43>                          ****END OF INPUT****

CARTESIAN COORDINATES (ANGSTROEM)
---------------------------------
  S     65.457400   -4.386690   88.727600
  C     64.404500   -3.939330   90.055400
  C     64.903900   -2.872610   90.746500
  C     66.259900   -2.577850   90.328500
  C     66.726900   -3.394150   89.376900
  H     66.850000   -1.818000   90.819500
  C     64.331900   -2.142440   91.968000
  H     65.184400   -1.672320   92.562700
  H     63.874200   -2.807030   92.644700
  C     63.237200   -1.044220   91.677800
  H     63.563700   -0.366078   90.932400
  H     62.469700   -1.589800   91.165000
  C     62.611100   -0.201442   92.793500
  H     61.744600    0.383706   92.433700
  H     62.213500   -0.780046   93.601700
  H     63.388400    0.313308   93.278800
  S     68.693100   -5.041010   88.553700
  C     70.232100   -4.451920   88.126300
  C     70.397200   -3.115350   88.316300
  C     69.139500   -2.467000   88.664700
  C     68.110100   -3.423540   88.808900
  H     71.356000   -2.652600   88.032100
  C     69.053700   -0.933677   88.810900
  H     68.132700   -0.553890   89.403400
  H     69.028700   -0.447958   87.788100
  C     70.324300   -0.252166   89.439800
  H     71.261900   -0.680546   88.992200
  H     70.381500   -0.403747   90.490800
  C     70.269500    1.271580   89.264500
  H     69.295900    1.675190   89.660300
  H     70.332400    1.522660   88.161500
  H     71.084300    1.764620   89.803000
  H     63.420500   -4.379660   90.147100
  H     71.027500   -5.133330   87.844900

 Total Charge           Charge          ....    0
 Multiplicity           Mult            ....    1
 Number of Electrons    NEL             ....  134
 Basis Dimension        Dim             ....  322

ORBITAL ENERGIES
----------------

  NO   OCC          E(Eh)            E(eV)
   0   2.0000     -88.964189     -2420.8386
   1   2.0000     -88.963485     -2420.8195
   2   2.0000     -10.330192      -281.0988
   3   2.0000     -10.326289      -280.9926
   4   2.0000     -10.314557      -280.6734
   5   2.0000     -10.313592      -280.6471
   6   2.0000     -10.311887      -280.6007
   7   2.0000     -10.309123      -280.5255
   8   2.0000     -10.303577      -280.3746
   9   2.0000     -10.298286      -280.2306
  10   2.0000     -10.296659      -280.1863
  11   2.0000     -10.290509      -280.0190
  12   2.0000     -10.288178      -279.9555
  13   2.0000     -10.287792      -279.9451
  14   2.0000     -10.281101      -279.7630
  15   2.0000     -10.275782      -279.6182
  16   2.0000      -8.080266      -219.8752
  17   2.0000      -8.078796      -219.8352
  18   2.0000      -6.038553      -164.3174
  19   2.0000      -6.037397      -164.2859
  20   2.0000      -6.034569      -164.2090
  21   2.0000      -6.033419      -164.1777
  22   2.0000      -6.031187      -164.1169
  23   2.0000      -6.029231      -164.0637
  24   2.0000      -1.010475       -27.4964
  25   2.0000      -0.988948       -26.9106
  26   2.0000      -0.905431       -24.6380
  27   2.0000      -0.903689       -24.5906
  28   2.0000      -0.868625       -23.6365
  29   2.0000      -0.852870       -23.2078
  30   2.0000      -0.846083       -23.0231
  31   2.0000      -0.816658       -22.2224
  32   2.0000      -0.782258       -21.2863
  33   2.0000      -0.768982       -20.9251
  34   2.0000      -0.705279       -19.1916
  35   2.0000      -0.699227       -19.0269
  36   2.0000      -0.689480       -18.7617
  37   2.0000      -0.658174       -17.9098
  38   2.0000      -0.639704       -17.4072
  39   2.0000      -0.625652       -17.0248
  40   2.0000      -0.600415       -16.3381
  41   2.0000      -0.565410       -15.3856
  42   2.0000      -0.564340       -15.3565
  43   2.0000      -0.556226       -15.1357
  44   2.0000      -0.525902       -14.3105
  45   2.0000      -0.519060       -14.1243
  46   2.0000      -0.518374       -14.1057
  47   2.0000      -0.510896       -13.9022
  48   2.0000      -0.505668       -13.7599
  49   2.0000      -0.494263       -13.4496
  50   2.0000      -0.488108       -13.2821
  51   2.0000      -0.478079       -13.0092
  52   2.0000      -0.472356       -12.8535
  53   2.0000      -0.465366       -12.6633
  54   2.0000      -0.459659       -12.5080
  55   2.0000      -0.456686       -12.4271
  56   2.0000      -0.449306       -12.2262
  57   2.0000      -0.430799       -11.7226
  58   2.0000      -0.429025       -11.6744
  59   2.0000      -0.426096       -11.5947
  60   2.0000      -0.425009       -11.5651
  61   2.0000      -0.419804       -11.4234
  62   2.0000      -0.414446       -11.2777
  63   2.0000      -0.354631        -9.6500
  64   2.0000      -0.330375        -8.9900
  65   2.0000      -0.328953        -8.9513
  66   2.0000      -0.293374        -7.9831
  67   0.0000       0.031547         0.8584
  68   0.0000       0.079528         2.1641
  69   0.0000       0.108068         2.9407
  70   0.0000       0.114482         3.1152
  71   0.0000       0.129858         3.5336

MULLIKEN ATOMIC CHARGES
-----------------------
   0 S :    0.101974
   1 C :   -0.130924
   2 C :   -0.054959
   3 C :   -0.007249
   4 C :   -0.100459
   5 H :    0.006569
   6 C :    0.051814
   7 H :    0.028474
   8 H :    0.018358
   9 C :   -0.073367
  10 H :    0.017326
  11 H :    0.011596
  12 C :   -0.014358
  13 H :    0.048672
  14 H :    0.010786
  15 H :    0.019675
  16 S :    0.109097
  17 C :   -0.087391
  18 C :   -0.052423
  19 C :   -0.007708
  20 C :   -0.143812
  21 H :    0.035123
  22 C :    0.003869
  23 H :    0.042856
  24 H :    0.049084
  25 C :   -0.097037
  26 H :    0.038167
  27 H :    0.028212
  28 C :   -0.076279
  29 H :    0.036035
  30 H :    0.039687
  31 H :    0.042118
  32 H :    0.049670
  33 H :    0.056804
Sum of atomic charges:    0.0000000

LOEWDIN ATOMIC CHARGES
----------------------
   0 S :    0.397189
   1 C :   -0.188463
   2 C :   -0.058727
   3 C :   -0.065636
   4 C :   -0.193444
   5 H :    0.028135
   6 C :   -0.027960
   7 H :    0.032525
   8 H :    0.023251
   9 C :   -0.041019
  10 H :    0.018045
  11 H :    0.018215
  12 C :   -0.062616
  13 H :    0.037617
  14 H :    0.020031
  15 H :    0.019489
  16 S :    0.431687
  17 C :   -0.195635
  18 C :   -0.078380
  19 C :   -0.055132
  20 C :   -0.200341
  21 H :    0.037208
  22 C :   -0.040457
  23 H :    0.037199
  24 H :    0.040438
  25 C :   -0.045179
  26 H :    0.025885
  27 H :    0.018134
  28 C :   -0.070838
  29 H :    0.028356
  30 H :    0.028280
  31 H :    0.026952
  32 H :    0.026897
  33 H :    0.028294

  Mayer bond orders larger than 0.100000
B(  0-S ,  1-C ) :   1.1223 B(  0-S ,  4-C ) :   1.1442 B(  1-C ,  2-C ) :   1.6348
B(  1-C , 32-H ) :   0.9726 B(  2-C ,  3-C ) :   1.2172 B(  2-C ,  6-C ) :   1.0189
B(  3-C ,  4-C ) :   1.6210 B(  3-C ,  5-H ) :   0.9972 B(  4-C , 20-C ) :   1.0023
B(  6-C ,  7-H ) :   0.9486 B(  6-C ,  8-H ) :   0.9440 B(  6-C ,  9-C ) :   1.0472
B(  9-C , 10-H ) :   0.9580 B(  9-C , 11-H ) :   0.9566 B(  9-C , 12-C ) :   1.0848
B( 12-C , 13-H ) :   0.9722 B( 12-C , 14-H ) :   0.9717 B( 12-C , 15-H ) :   0.9735
B( 16-S , 17-C ) :   1.1700 B( 16-S , 20-C ) :   1.1579 B( 17-C , 18-C ) :   1.6251
B( 17-C , 33-H ) :   0.9634 B( 18-C , 19-C ) :   1.2290 B( 18-C , 21-H ) :   0.9820
B( 19-C , 20-C ) :   1.6024 B( 19-C , 22-C ) :   1.0264 B( 22-C , 23-H ) :   0.9439
B( 22-C , 24-H ) :   0.9403 B( 22-C , 25-C ) :   1.0481 B( 25-C , 26-H ) :   0.9520
B( 25-C , 27-H ) :   0.9567 B( 25-C , 28-C ) :   1.0840 B( 28-C , 29-H ) :   0.9724
B( 28-C , 30-H ) :   0.9748 B( 28-C , 31-H ) :   0.9738

Dispersion correction           -0.012942039
FINAL SINGLE POINT ENERGY     -1339.877915002073

DIPOLE MOMENT
-------------
                                X             Y             Z
Electronic contribution:      3.29199     -28.57094     -13.66992
Nuclear contribution   :     -3.15446      29.09174      14.00187
                        -----------------------------------------
Total Dipole Moment    :      0.13754       0.52080       0.33194
                        -----------------------------------------
Magnitude (a.u.)       :      0.63272
Magnitude (Debye)      :      1.60824

Rotational constants in cm-1:     0.016645     0.008194     0.005737
Rotational constants in MHz :   498.995857   245.662123   172.000921

                             ****ORCA TERMINATED NORMALLY****
TOTAL RUN TIME: 0 days 0 hours 0 minutes 28 seconds 380 msec
