                         Program Version 4.2.1 -  RELEASE  -
|  1> ! wB97X-D3 SP def2-SVP
|  2> %pal
|  3> nprocs 16
|  4> end
|  5>
|  6> * xyz 0 1
|  7> S 	 9.54587 	 -5.66046 	 90.9103
|  8> C 	 9.57957 	 -5.26215 	 92.6406
|  9> C 	 10.1775 	 -6.24444 	 93.4062
| 10> C 	 10.626 	 -7.30937 	 92.6239
| 11> C 	 10.2707 	 -7.25236 	 91.2715
| 12> H 	 11.1645 	 -8.21611 	 92.9399
| 13> C 	 10.097 	 -6.36392 	 94.9306
| 14> H 	 10.6202 	 -5.53991 	 95.3698
| 15> H 	 10.6439 	 -7.19801 	 95.2401
| 16> C 	 8.65676 	 -6.47615 	 95.607
| 17> H 	 8.68306 	 -5.9737 	 96.5702
| 18> H 	 7.92997 	 -5.84011 	 94.9672
| 19> C 	 8.00598 	 -7.90816 	 95.7153
| 20> H 	 6.9973 	 -7.96912 	 96.2214
| 21> H 	 7.8694 	 -8.38489 	 94.7217
| 22> H 	 8.69366 	 -8.47096 	 96.2466
| 23> S 	 11.5916 	 -7.59086 	 88.8952
| 24> C 	 11.6809 	 -9.13037 	 88.1868
| 25> C 	 11.2651 	 -10.1185 	 89.0788
| 26> C 	 10.6274 	 -9.59051 	 90.2543
| 27> C 	 10.66 	 -8.22628 	 90.2547
| 28> H 	 11.3944 	 -11.1497 	 88.7621
| 29> C 	 9.95974 	 -10.4228 	 91.3464
| 30> H 	 9.39249 	 -9.68549 	 92.0051
| 31> H 	 10.7979 	 -10.7619 	 91.9302
| 32> C 	 9.12199 	 -11.5812 	 90.9032
| 33> H 	 9.55437 	 -12.2407 	 90.1873
| 34> H 	 8.1626 	 -11.2575 	 90.4565
| 35> C 	 8.63889 	 -12.3736 	 92.1044
| 36> H 	 8.00114 	 -13.1829 	 91.7852
| 37> H 	 8.1157 	 -11.6897 	 92.7933
| 38> H 	 9.50382 	 -12.7651 	 92.6115
| 39> H 	 9.06744 	 -4.45447 	 93.1066
| 40> H 	 12.2608 	 -9.4181 	 87.3345
| 41> *
| 42>
| 43>                          ****END OF INPUT****

CARTESIAN COORDINATES (ANGSTROEM)
---------------------------------
  S      9.545870   -5.660460   90.910300
  C      9.579570   -5.262150   92.640600
  C     10.177500   -6.244440   93.406200
  C     10.626000   -7.309370   92.623900
  C     10.270700   -7.252360   91.271500
  H     11.164500   -8.216110   92.939900
  C     10.097000   -6.363920   94.930600
  H     10.620200   -5.539910   95.369800
  H     10.643900   -7.198010   95.240100
  C      8.656760   -6.476150   95.607000
  H      8.683060   -5.973700   96.570200
  H      7.929970   -5.840110   94.967200
  C      8.005980   -7.908160   95.715300
  H      6.997300   -7.969120   96.221400
  H      7.869400   -8.384890   94.721700
  H      8.693660   -8.470960   96.246600
  S     11.591600   -7.590860   88.895200
  C     11.680900   -9.130370   88.186800
  C     11.265100  -10.118500   89.078800
  C     10.627400   -9.590510   90.254300
  C     10.660000   -8.226280   90.254700
  H     11.394400  -11.149700   88.762100
  C      9.959740  -10.422800   91.346400
  H      9.392490   -9.685490   92.005100
  H     10.797900  -10.761900   91.930200
  C      9.121990  -11.581200   90.903200
  H      9.554370  -12.240700   90.187300
  H      8.162600  -11.257500   90.456500
  C      8.638890  -12.373600   92.104400
  H      8.001140  -13.182900   91.785200
  H      8.115700  -11.689700   92.793300
  H      9.503820  -12.765100   92.611500
  H      9.067440   -4.454470   93.106600
  H     12.260800   -9.418100   87.334500

 Total Charge           Charge          ....    0
 Multiplicity           Mult            ....    1
 Number of Electrons    NEL             ....  134
 Basis Dimension        Dim             ....  322

ORBITAL ENERGIES
----------------

  NO   OCC          E(Eh)            E(eV)
   0   2.0000     -88.970992     -2421.0238
   1   2.0000     -88.962737     -2420.7991
   2   2.0000     -10.332012      -281.1483
   3   2.0000     -10.322447      -280.8881
   4   2.0000     -10.314687      -280.6769
   5   2.0000     -10.311135      -280.5802
   6   2.0000     -10.302634      -280.3489
   7   2.0000     -10.301461      -280.3170
   8   2.0000     -10.300367      -280.2872
   9   2.0000     -10.295213      -280.1470
  10   2.0000     -10.294891      -280.1382
  11   2.0000     -10.293556      -280.1019
  12   2.0000     -10.293393      -280.0975
  13   2.0000     -10.283287      -279.8225
  14   2.0000     -10.281394      -279.7710
  15   2.0000     -10.274513      -279.5837
  16   2.0000      -8.084354      -219.9865
  17   2.0000      -8.078349      -219.8230
  18   2.0000      -6.042929      -164.4365
  19   2.0000      -6.039072      -164.3315
  20   2.0000      -6.036739      -164.2680
  21   2.0000      -6.035112      -164.2237
  22   2.0000      -6.032825      -164.1615
  23   2.0000      -6.029073      -164.0594
  24   2.0000      -1.006833       -27.3973
  25   2.0000      -0.983671       -26.7670
  26   2.0000      -0.917017       -24.9533
  27   2.0000      -0.901740       -24.5376
  28   2.0000      -0.867825       -23.6147
  29   2.0000      -0.854704       -23.2577
  30   2.0000      -0.844715       -22.9859
  31   2.0000      -0.810960       -22.0673
  32   2.0000      -0.785135       -21.3646
  33   2.0000      -0.774712       -21.0810
  34   2.0000      -0.707514       -19.2524
  35   2.0000      -0.703105       -19.1325
  36   2.0000      -0.696785       -18.9605
  37   2.0000      -0.656717       -17.8702
  38   2.0000      -0.638916       -17.3858
  39   2.0000      -0.613246       -16.6873
  40   2.0000      -0.595542       -16.2055
  41   2.0000      -0.571209       -15.5434
  42   2.0000      -0.571098       -15.5404
  43   2.0000      -0.547516       -14.8987
  44   2.0000      -0.538036       -14.6407
  45   2.0000      -0.531421       -14.4607
  46   2.0000      -0.516852       -14.0643
  47   2.0000      -0.513986       -13.9863
  48   2.0000      -0.502301       -13.6683
  49   2.0000      -0.498380       -13.5616
  50   2.0000      -0.482234       -13.1222
  51   2.0000      -0.479657       -13.0521
  52   2.0000      -0.472140       -12.8476
  53   2.0000      -0.465291       -12.6612
  54   2.0000      -0.462567       -12.5871
  55   2.0000      -0.448155       -12.1949
  56   2.0000      -0.444188       -12.0870
  57   2.0000      -0.441415       -12.0115
  58   2.0000      -0.435357       -11.8467
  59   2.0000      -0.427708       -11.6385
  60   2.0000      -0.423697       -11.5294
  61   2.0000      -0.415792       -11.3143
  62   2.0000      -0.411816       -11.2061
  63   2.0000      -0.346772        -9.4361
  64   2.0000      -0.335478        -9.1288
  65   2.0000      -0.328112        -8.9284
  66   2.0000      -0.290160        -7.8957
  67   0.0000       0.026960         0.7336
  68   0.0000       0.067805         1.8451
  69   0.0000       0.108350         2.9483
  70   0.0000       0.118046         3.2122
  71   0.0000       0.131211         3.5704

MULLIKEN ATOMIC CHARGES
-----------------------
   0 S :    0.114347
   1 C :   -0.110115
   2 C :   -0.069476
   3 C :    0.011014
   4 C :   -0.177530
   5 H :    0.023599
   6 C :    0.105518
   7 H :    0.027604
   8 H :   -0.000787
   9 C :   -0.105774
  10 H :    0.035004
  11 H :    0.034047
  12 C :   -0.054594
  13 H :    0.050613
  14 H :    0.042162
  15 H :    0.017012
  16 S :    0.110045
  17 C :   -0.073167
  18 C :   -0.071370
  19 C :   -0.022511
  20 C :   -0.158541
  21 H :    0.018731
  22 C :    0.051103
  23 H :    0.047992
  24 H :    0.029653
  25 C :   -0.068241
  26 H :    0.025509
  27 H :    0.030982
  28 C :   -0.034138
  29 H :    0.034781
  30 H :    0.029565
  31 H :    0.017762
  32 H :    0.038177
  33 H :    0.051021
Sum of atomic charges:    0.0000000

LOEWDIN ATOMIC CHARGES
----------------------
   0 S :    0.388544
   1 C :   -0.179731
   2 C :   -0.067842
   3 C :   -0.062552
   4 C :   -0.187287
   5 H :    0.035453
   6 C :   -0.023192
   7 H :    0.032453
   8 H :    0.019725
   9 C :   -0.040026
  10 H :    0.022914
  11 H :    0.027714
  12 C :   -0.068898
  13 H :    0.036873
  14 H :    0.029958
  15 H :    0.010772
  16 S :    0.417422
  17 C :   -0.199868
  18 C :   -0.074506
  19 C :   -0.055221
  20 C :   -0.197266
  21 H :    0.029339
  22 C :   -0.034184
  23 H :    0.041434
  24 H :    0.030301
  25 C :   -0.043277
  26 H :    0.018632
  27 H :    0.030443
  28 C :   -0.057219
  29 H :    0.024831
  30 H :    0.026479
  31 H :    0.017723
  32 H :    0.022278
  33 H :    0.027779

  Mayer bond orders larger than 0.100000
B(  0-S ,  1-C ) :   1.1392 B(  0-S ,  4-C ) :   1.1425 B(  1-C ,  2-C ) :   1.6064
B(  1-C ,  4-C ) :   0.1057 B(  1-C , 32-H ) :   0.9672 B(  2-C ,  3-C ) :   1.2559
B(  2-C ,  6-C ) :   1.0261 B(  3-C ,  4-C ) :   1.5601 B(  3-C ,  5-H ) :   0.9851
B(  4-C , 20-C ) :   1.0432 B(  6-C ,  7-H ) :   0.9328 B(  6-C ,  8-H ) :   0.9454
B(  6-C ,  9-C ) :   1.0482 B(  9-C , 10-H ) :   0.9598 B(  9-C , 11-H ) :   0.9629
B(  9-C , 12-C ) :   1.0638 B( 12-C , 13-H ) :   0.9746 B( 12-C , 14-H ) :   0.9788
B( 12-C , 15-H ) :   0.9777 B( 16-S , 17-C ) :   1.1631 B( 16-S , 20-C ) :   1.1401
B( 17-C , 18-C ) :   1.6173 B( 17-C , 33-H ) :   0.9656 B( 18-C , 19-C ) :   1.2236
B( 18-C , 21-H ) :   0.9910 B( 19-C , 20-C ) :   1.6216 B( 19-C , 22-C ) :   1.0238
B( 22-C , 23-H ) :   0.9314 B( 22-C , 24-H ) :   0.9255 B( 22-C , 25-C ) :   1.0745
B( 25-C , 26-H ) :   0.9529 B( 25-C , 27-H ) :   0.9511 B( 25-C , 28-C ) :   1.0892
B( 28-C , 29-H ) :   0.9732 B( 28-C , 30-H ) :   0.9737 B( 28-C , 31-H ) :   0.9750

Dispersion correction           -0.014080748
FINAL SINGLE POINT ENERGY     -1339.873868636703

DIPOLE MOMENT
-------------
                                X             Y             Z
Electronic contribution:     11.66058      17.99059     -23.34130
Nuclear contribution   :    -11.67621     -18.53029      23.91183
                        -----------------------------------------
Total Dipole Moment    :     -0.01563      -0.53970       0.57053
                        -----------------------------------------
Magnitude (a.u.)       :      0.78551
Magnitude (Debye)      :      1.99661

Rotational constants in cm-1:     0.016404     0.009795     0.006610
Rotational constants in MHz :   491.769014   293.647385   198.175050

                             ****ORCA TERMINATED NORMALLY****
TOTAL RUN TIME: 0 days 0 hours 0 minutes 33 seconds 433 msec
