                         Program Version 4.2.1 -  RELEASE  -
|  1> ! wB97X-D3 SP def2-SVP
|  2> %pal
|  3> nprocs 16
|  4> end
|  5>
|  6> * xyz 0 1
|  7> S 	 1.07389 	 76.1026 	 47.19
|  8> C 	 1.1125 	 76.2034 	 48.9211
|  9> C 	 0.324969 	 75.2097 	 49.4991
| 10> C 	 -0.32269 	 74.4269 	 48.4882
| 11> C 	 0.0744609 	 74.6788 	 47.224
| 12> H 	 -1.03925 	 73.638 	 48.7502
| 13> C 	 0.100341 	 75.0354 	 50.9605
| 14> H 	 -0.71311 	 74.4413 	 51.1815
| 15> H 	 -0.166595 	 75.9674 	 51.3361
| 16> C 	 1.20428 	 74.3573 	 51.7868
| 17> H 	 0.808531 	 73.81 	 52.6166
| 18> H 	 1.66139 	 73.6285 	 51.0906
| 19> C 	 2.23685 	 75.3325 	 52.3347
| 20> H 	 2.34603 	 76.2724 	 51.8681
| 21> H 	 2.13508 	 75.5465 	 53.3869
| 22> H 	 3.23837 	 74.9078 	 52.2223
| 23> S 	 -1.02684 	 75.2875 	 44.8104
| 24> C 	 -1.53078 	 73.9378 	 43.7832
| 25> C 	 -1.39716 	 72.6978 	 44.3801
| 26> C 	 -0.983613 	 72.8156 	 45.7418
| 27> C 	 -0.556238 	 74.1273 	 46.0236
| 28> H 	 -1.71903 	 71.8359 	 43.8638
| 29> C 	 -0.675234 	 71.6137 	 46.4748
| 30> H 	 -1.22904 	 70.6946 	 46.0314
| 31> H 	 -1.16354 	 71.7376 	 47.4986
| 32> C 	 0.770995 	 71.2374 	 46.5963
| 33> H 	 0.810958 	 70.3794 	 47.2798
| 34> H 	 1.33738 	 72.0095 	 47.1294
| 35> C 	 1.47261 	 70.872 	 45.2568
| 36> H 	 1.5444 	 71.7347 	 44.664
| 37> H 	 1.03804 	 70.0532 	 44.6719
| 38> H 	 2.53681 	 70.6412 	 45.496
| 39> H 	 1.67791 	 76.9204 	 49.5391
| 40> H 	 -1.81749 	 74.0454 	 42.7235
| 41> *
| 42>
| 43>                          ****END OF INPUT****

CARTESIAN COORDINATES (ANGSTROEM)
---------------------------------
  S      1.073890   76.102600   47.190000
  C      1.112500   76.203400   48.921100
  C      0.324969   75.209700   49.499100
  C     -0.322690   74.426900   48.488200
  C      0.074461   74.678800   47.224000
  H     -1.039250   73.638000   48.750200
  C      0.100341   75.035400   50.960500
  H     -0.713110   74.441300   51.181500
  H     -0.166595   75.967400   51.336100
  C      1.204280   74.357300   51.786800
  H      0.808531   73.810000   52.616600
  H      1.661390   73.628500   51.090600
  C      2.236850   75.332500   52.334700
  H      2.346030   76.272400   51.868100
  H      2.135080   75.546500   53.386900
  H      3.238370   74.907800   52.222300
  S     -1.026840   75.287500   44.810400
  C     -1.530780   73.937800   43.783200
  C     -1.397160   72.697800   44.380100
  C     -0.983613   72.815600   45.741800
  C     -0.556238   74.127300   46.023600
  H     -1.719030   71.835900   43.863800
  C     -0.675234   71.613700   46.474800
  H     -1.229040   70.694600   46.031400
  H     -1.163540   71.737600   47.498600
  C      0.770995   71.237400   46.596300
  H      0.810958   70.379400   47.279800
  H      1.337380   72.009500   47.129400
  C      1.472610   70.872000   45.256800
  H      1.544400   71.734700   44.664000
  H      1.038040   70.053200   44.671900
  H      2.536810   70.641200   45.496000
  H      1.677910   76.920400   49.539100
  H     -1.817490   74.045400   42.723500

 Total Charge           Charge          ....    0
 Multiplicity           Mult            ....    1
 Number of Electrons    NEL             ....  134
 Basis Dimension        Dim             ....  322

ORBITAL ENERGIES
----------------

  NO   OCC          E(Eh)            E(eV)
   0   2.0000     -88.968372     -2420.9525
   1   2.0000     -88.968138     -2420.9461
   2   2.0000     -10.327500      -281.0256
   3   2.0000     -10.324988      -280.9572
   4   2.0000     -10.315600      -280.7017
   5   2.0000     -10.315563      -280.7007
   6   2.0000     -10.299226      -280.2562
   7   2.0000     -10.297860      -280.2190
   8   2.0000     -10.293677      -280.1052
   9   2.0000     -10.290468      -280.0179
  10   2.0000     -10.289815      -280.0001
  11   2.0000     -10.285586      -279.8850
  12   2.0000     -10.283797      -279.8363
  13   2.0000     -10.276461      -279.6367
  14   2.0000     -10.273466      -279.5552
  15   2.0000     -10.270595      -279.4771
  16   2.0000      -8.083323      -219.9584
  17   2.0000      -8.082598      -219.9387
  18   2.0000      -6.041890      -164.4082
  19   2.0000      -6.041072      -164.3859
  20   2.0000      -6.037771      -164.2961
  21   2.0000      -6.037242      -164.2817
  22   2.0000      -6.034045      -164.1947
  23   2.0000      -6.033312      -164.1748
  24   2.0000      -1.010930       -27.5088
  25   2.0000      -0.985492       -26.8166
  26   2.0000      -0.917600       -24.9692
  27   2.0000      -0.912774       -24.8378
  28   2.0000      -0.869098       -23.6494
  29   2.0000      -0.852323       -23.1929
  30   2.0000      -0.846197       -23.0262
  31   2.0000      -0.815080       -22.1794
  32   2.0000      -0.788060       -21.4442
  33   2.0000      -0.772796       -21.0288
  34   2.0000      -0.711956       -19.3733
  35   2.0000      -0.705345       -19.1934
  36   2.0000      -0.683723       -18.6050
  37   2.0000      -0.665754       -18.1161
  38   2.0000      -0.638137       -17.3646
  39   2.0000      -0.621763       -16.9190
  40   2.0000      -0.591154       -16.0861
  41   2.0000      -0.577436       -15.7128
  42   2.0000      -0.554119       -15.0783
  43   2.0000      -0.546421       -14.8689
  44   2.0000      -0.542995       -14.7756
  45   2.0000      -0.540533       -14.7086
  46   2.0000      -0.519442       -14.1347
  47   2.0000      -0.514263       -13.9938
  48   2.0000      -0.498825       -13.5737
  49   2.0000      -0.492350       -13.3975
  50   2.0000      -0.490251       -13.3404
  51   2.0000      -0.480093       -13.0640
  52   2.0000      -0.472740       -12.8639
  53   2.0000      -0.469100       -12.7649
  54   2.0000      -0.464091       -12.6285
  55   2.0000      -0.449737       -12.2380
  56   2.0000      -0.446867       -12.1599
  57   2.0000      -0.436576       -11.8798
  58   2.0000      -0.433665       -11.8006
  59   2.0000      -0.425021       -11.5654
  60   2.0000      -0.418343       -11.3837
  61   2.0000      -0.410073       -11.1586
  62   2.0000      -0.409008       -11.1297
  63   2.0000      -0.353048        -9.6069
  64   2.0000      -0.333511        -9.0753
  65   2.0000      -0.328472        -8.9382
  66   2.0000      -0.284669        -7.7462
  67   0.0000       0.024745         0.6734
  68   0.0000       0.072953         1.9852
  69   0.0000       0.105126         2.8606
  70   0.0000       0.122855         3.3431
  71   0.0000       0.130100         3.5402

MULLIKEN ATOMIC CHARGES
-----------------------
   0 S :    0.107854
   1 C :   -0.126876
   2 C :   -0.106777
   3 C :    0.006865
   4 C :   -0.116496
   5 H :    0.017374
   6 C :    0.123269
   7 H :   -0.013111
   8 H :    0.012587
   9 C :   -0.057570
  10 H :    0.027191
  11 H :    0.036205
  12 C :   -0.042938
  13 H :    0.008579
  14 H :    0.029652
  15 H :    0.026289
  16 S :    0.113516
  17 C :   -0.106805
  18 C :   -0.016746
  19 C :   -0.015099
  20 C :   -0.147889
  21 H :    0.006216
  22 C :   -0.012059
  23 H :    0.030941
  24 H :    0.033598
  25 C :   -0.045377
  26 H :    0.022896
  27 H :    0.035086
  28 C :   -0.049198
  29 H :    0.033498
  30 H :    0.034046
  31 H :    0.033903
  32 H :    0.056180
  33 H :    0.061196
Sum of atomic charges:    0.0000000

LOEWDIN ATOMIC CHARGES
----------------------
   0 S :    0.414286
   1 C :   -0.206015
   2 C :   -0.059341
   3 C :   -0.063713
   4 C :   -0.203204
   5 H :    0.032865
   6 C :   -0.027288
   7 H :    0.022646
   8 H :    0.024141
   9 C :   -0.031630
  10 H :    0.023269
  11 H :    0.030139
  12 C :   -0.070202
  13 H :    0.014595
  14 H :    0.025710
  15 H :    0.030497
  16 S :    0.403200
  17 C :   -0.186734
  18 C :   -0.059166
  19 C :   -0.065122
  20 C :   -0.190609
  21 H :    0.027140
  22 C :   -0.050815
  23 H :    0.038473
  24 H :    0.035647
  25 C :   -0.038314
  26 H :    0.023956
  27 H :    0.027546
  28 C :   -0.064652
  29 H :    0.020020
  30 H :    0.024815
  31 H :    0.033123
  32 H :    0.033558
  33 H :    0.031177

  Mayer bond orders larger than 0.100000
B(  0-S ,  1-C ) :   1.1408 B(  0-S ,  4-C ) :   1.1448 B(  1-C ,  2-C ) :   1.5958
B(  1-C , 32-H ) :   0.9641 B(  2-C ,  3-C ) :   1.2685 B(  2-C ,  6-C ) :   1.0375
B(  3-C ,  4-C ) :   1.5584 B(  3-C ,  5-H ) :   0.9867 B(  4-C , 20-C ) :   1.0519
B(  6-C ,  7-H ) :   0.9273 B(  6-C ,  8-H ) :   0.9392 B(  6-C ,  9-C ) :   1.0601
B(  9-C , 10-H ) :   0.9619 B(  9-C , 11-H ) :   0.9619 B(  9-C , 12-C ) :   1.0675
B( 12-C , 13-H ) :   0.9794 B( 12-C , 14-H ) :   0.9761 B( 12-C , 15-H ) :   0.9747
B( 16-S , 17-C ) :   1.1394 B( 16-S , 20-C ) :   1.1531 B( 17-C , 18-C ) :   1.6268
B( 17-C , 33-H ) :   0.9611 B( 18-C , 19-C ) :   1.2306 B( 18-C , 21-H ) :   0.9935
B( 19-C , 20-C ) :   1.5617 B( 19-C , 22-C ) :   1.0749 B( 22-C , 23-H ) :   0.9339
B( 22-C , 24-H ) :   0.9157 B( 22-C , 25-C ) :   1.0864 B( 25-C , 26-H ) :   0.9514
B( 25-C , 27-H ) :   0.9495 B( 25-C , 28-C ) :   1.0724 B( 28-C , 29-H ) :   0.9747
B( 28-C , 30-H ) :   0.9756 B( 28-C , 31-H ) :   0.9721

Dispersion correction           -0.014964836
FINAL SINGLE POINT ENERGY     -1339.870389564494

DIPOLE MOMENT
-------------
                                X             Y             Z
Electronic contribution:     -8.28652      16.15430     -18.32754
Nuclear contribution   :      8.24351     -16.57047      18.78657
                        -----------------------------------------
Total Dipole Moment    :     -0.04301      -0.41617       0.45903
                        -----------------------------------------
Magnitude (a.u.)       :      0.62110
Magnitude (Debye)      :      1.57870

Rotational constants in cm-1:     0.022567     0.008291     0.006853
Rotational constants in MHz :   676.530733   248.565990   205.455735

                             ****ORCA TERMINATED NORMALLY****
TOTAL RUN TIME: 0 days 0 hours 0 minutes 33 seconds 349 msec
