                         Program Version 4.2.1 -  RELEASE  -
|  1> ! wB97X-D3 SP def2-SVP
|  2> %pal
|  3> nprocs 16
|  4> end
|  5>
|  6> * xyz 0 1
|  7> S 	 34.7807 	 -2.60045 	 68.348
|  8> C 	 35.5774 	 -1.18743 	 67.7303
|  9> C 	 34.6468 	 -0.204021 	 67.3727
| 10> C 	 33.3065 	 -0.632449 	 67.5908
| 11> C 	 33.2136 	 -1.90399 	 68.0567
| 12> H 	 32.4255 	 -0.0866286 	 67.517
| 13> C 	 35.0249 	 1.07823 	 66.7597
| 14> H 	 35.6226 	 0.950383 	 65.8664
| 15> H 	 35.7264 	 1.5868 	 67.4498
| 16> C 	 33.8504 	 1.92795 	 66.1959
| 17> H 	 33.1159 	 2.0547 	 67.0089
| 18> H 	 34.2963 	 2.94176 	 66.0337
| 19> C 	 33.0877 	 1.43784 	 64.9519
| 20> H 	 32.3649 	 2.18446 	 64.7264
| 21> H 	 33.6913 	 1.38546 	 63.983
| 22> H 	 32.6046 	 0.434037 	 65.0197
| 23> S 	 32.0591 	 -4.44004 	 68.0987
| 24> C 	 30.3191 	 -4.68561 	 68.44
| 25> C 	 29.7982 	 -3.43302 	 68.6473
| 26> C 	 30.7039 	 -2.34421 	 68.6601
| 27> C 	 32.0073 	 -2.67635 	 68.2887
| 28> H 	 28.7235 	 -3.33035 	 68.6488
| 29> C 	 30.264 	 -0.929311 	 68.9094
| 30> H 	 30.3973 	 -0.423623 	 67.9628
| 31> H 	 30.9686 	 -0.477995 	 69.6334
| 32> C 	 28.8449 	 -0.68855 	 69.4265
| 33> H 	 28.6649 	 -1.31237 	 70.2709
| 34> H 	 28.1499 	 -1.04779 	 68.7408
| 35> C 	 28.6711 	 0.808841 	 69.8404
| 36> H 	 29.0169 	 1.41647 	 69.0039
| 37> H 	 29.1643 	 0.964214 	 70.8405
| 38> H 	 27.6257 	 0.922599 	 70.0771
| 39> H 	 36.6689 	 -1.11273 	 67.5811
| 40> H 	 29.7284 	 -5.49142 	 68.1285
| 41> *
| 42>
| 43>                          ****END OF INPUT****

CARTESIAN COORDINATES (ANGSTROEM)
---------------------------------
  S     34.780700   -2.600450   68.348000
  C     35.577400   -1.187430   67.730300
  C     34.646800   -0.204021   67.372700
  C     33.306500   -0.632449   67.590800
  C     33.213600   -1.903990   68.056700
  H     32.425500   -0.086629   67.517000
  C     35.024900    1.078230   66.759700
  H     35.622600    0.950383   65.866400
  H     35.726400    1.586800   67.449800
  C     33.850400    1.927950   66.195900
  H     33.115900    2.054700   67.008900
  H     34.296300    2.941760   66.033700
  C     33.087700    1.437840   64.951900
  H     32.364900    2.184460   64.726400
  H     33.691300    1.385460   63.983000
  H     32.604600    0.434037   65.019700
  S     32.059100   -4.440040   68.098700
  C     30.319100   -4.685610   68.440000
  C     29.798200   -3.433020   68.647300
  C     30.703900   -2.344210   68.660100
  C     32.007300   -2.676350   68.288700
  H     28.723500   -3.330350   68.648800
  C     30.264000   -0.929311   68.909400
  H     30.397300   -0.423623   67.962800
  H     30.968600   -0.477995   69.633400
  C     28.844900   -0.688550   69.426500
  H     28.664900   -1.312370   70.270900
  H     28.149900   -1.047790   68.740800
  C     28.671100    0.808841   69.840400
  H     29.016900    1.416470   69.003900
  H     29.164300    0.964214   70.840500
  H     27.625700    0.922599   70.077100
  H     36.668900   -1.112730   67.581100
  H     29.728400   -5.491420   68.128500

 Total Charge           Charge          ....    0
 Multiplicity           Mult            ....    1
 Number of Electrons    NEL             ....  134
 Basis Dimension        Dim             ....  322

ORBITAL ENERGIES
----------------

  NO   OCC          E(Eh)            E(eV)
   0   2.0000     -88.966634     -2420.9052
   1   2.0000     -88.961283     -2420.7596
   2   2.0000     -10.330554      -281.1087
   3   2.0000     -10.327711      -281.0313
   4   2.0000     -10.314428      -280.6699
   5   2.0000     -10.314216      -280.6641
   6   2.0000     -10.300917      -280.3022
   7   2.0000     -10.300595      -280.2934
   8   2.0000     -10.296916      -280.1933
   9   2.0000     -10.292226      -280.0657
  10   2.0000     -10.290634      -280.0224
  11   2.0000     -10.289937      -280.0034
  12   2.0000     -10.288112      -279.9537
  13   2.0000     -10.286750      -279.9167
  14   2.0000     -10.285633      -279.8863
  15   2.0000     -10.280463      -279.7456
  16   2.0000      -8.081674      -219.9135
  17   2.0000      -8.075059      -219.7335
  18   2.0000      -6.040210      -164.3625
  19   2.0000      -6.036053      -164.2493
  20   2.0000      -6.033742      -164.1865
  21   2.0000      -6.032480      -164.1521
  22   2.0000      -6.029619      -164.0743
  23   2.0000      -6.025736      -163.9686
  24   2.0000      -1.009514       -27.4703
  25   2.0000      -0.984140       -26.7798
  26   2.0000      -0.914126       -24.8746
  27   2.0000      -0.910700       -24.7814
  28   2.0000      -0.873270       -23.7629
  29   2.0000      -0.851925       -23.1821
  30   2.0000      -0.841984       -22.9115
  31   2.0000      -0.823737       -22.4150
  32   2.0000      -0.782533       -21.2938
  33   2.0000      -0.770520       -20.9669
  34   2.0000      -0.715325       -19.4650
  35   2.0000      -0.710106       -19.3230
  36   2.0000      -0.691416       -18.8144
  37   2.0000      -0.652352       -17.7514
  38   2.0000      -0.644356       -17.5338
  39   2.0000      -0.631062       -17.1721
  40   2.0000      -0.598365       -16.2823
  41   2.0000      -0.576199       -15.6792
  42   2.0000      -0.569505       -15.4970
  43   2.0000      -0.554212       -15.0809
  44   2.0000      -0.534635       -14.5481
  45   2.0000      -0.529267       -14.4021
  46   2.0000      -0.518353       -14.1051
  47   2.0000      -0.514014       -13.9870
  48   2.0000      -0.505623       -13.7587
  49   2.0000      -0.503290       -13.6952
  50   2.0000      -0.494519       -13.4566
  51   2.0000      -0.481062       -13.0904
  52   2.0000      -0.473772       -12.8920
  53   2.0000      -0.469761       -12.7828
  54   2.0000      -0.458425       -12.4744
  55   2.0000      -0.451650       -12.2900
  56   2.0000      -0.445224       -12.1152
  57   2.0000      -0.442986       -12.0543
  58   2.0000      -0.431281       -11.7357
  59   2.0000      -0.429093       -11.6762
  60   2.0000      -0.419456       -11.4140
  61   2.0000      -0.413806       -11.2602
  62   2.0000      -0.404063       -10.9951
  63   2.0000      -0.357645        -9.7320
  64   2.0000      -0.331978        -9.0336
  65   2.0000      -0.325541        -8.8584
  66   2.0000      -0.283491        -7.7142
  67   0.0000       0.019344         0.5264
  68   0.0000       0.077081         2.0975
  69   0.0000       0.107688         2.9303
  70   0.0000       0.121237         3.2990
  71   0.0000       0.129539         3.5249

MULLIKEN ATOMIC CHARGES
-----------------------
   0 S :    0.122235
   1 C :   -0.140313
   2 C :   -0.059017
   3 C :    0.013587
   4 C :   -0.116768
   5 H :   -0.038861
   6 C :    0.060878
   7 H :    0.028900
   8 H :    0.042239
   9 C :   -0.101268
  10 H :    0.030708
  11 H :    0.036397
  12 C :   -0.069283
  13 H :    0.033709
  14 H :    0.036074
  15 H :    0.053174
  16 S :    0.071527
  17 C :   -0.055528
  18 C :   -0.062480
  19 C :   -0.048234
  20 C :   -0.120768
  21 H :    0.020117
  22 C :   -0.000360
  23 H :    0.052293
  24 H :    0.040366
  25 C :   -0.059770
  26 H :    0.018009
  27 H :    0.014438
  28 C :   -0.028164
  29 H :    0.043481
  30 H :    0.046480
  31 H :    0.028780
  32 H :    0.058050
  33 H :    0.049374
Sum of atomic charges:    0.0000000

LOEWDIN ATOMIC CHARGES
----------------------
   0 S :    0.419821
   1 C :   -0.206694
   2 C :   -0.060958
   3 C :   -0.061503
   4 C :   -0.188370
   5 H :    0.017917
   6 C :   -0.043884
   7 H :    0.033809
   8 H :    0.039683
   9 C :   -0.045516
  10 H :    0.021392
  11 H :    0.033415
  12 C :   -0.074921
  13 H :    0.025232
  14 H :    0.032147
  15 H :    0.031724
  16 S :    0.375925
  17 C :   -0.173530
  18 C :   -0.070740
  19 C :   -0.066372
  20 C :   -0.180450
  21 H :    0.029665
  22 C :   -0.038137
  23 H :    0.028899
  24 H :    0.037379
  25 C :   -0.037969
  26 H :    0.020812
  27 H :    0.011821
  28 C :   -0.058281
  29 H :    0.026992
  30 H :    0.035898
  31 H :    0.025013
  32 H :    0.034567
  33 H :    0.025213

  Mayer bond orders larger than 0.100000
B(  0-S ,  1-C ) :   1.1425 B(  0-S ,  4-C ) :   1.1534 B(  1-C ,  2-C ) :   1.5874
B(  1-C , 32-H ) :   0.9713 B(  2-C ,  3-C ) :   1.2496 B(  2-C ,  6-C ) :   1.0197
B(  3-C ,  4-C ) :   1.5579 B(  3-C ,  5-H ) :   0.9984 B(  4-C , 20-C ) :   1.0713
B(  6-C ,  7-H ) :   0.9360 B(  6-C ,  8-H ) :   0.9312 B(  6-C ,  9-C ) :   1.0812
B(  9-C , 10-H ) :   0.9512 B(  9-C , 11-H ) :   0.9509 B(  9-C , 12-C ) :   1.0740
B( 12-C , 13-H ) :   0.9724 B( 12-C , 14-H ) :   0.9713 B( 12-C , 15-H ) :   0.9732
B( 16-S , 17-C ) :   1.1397 B( 16-S , 20-C ) :   1.1328 B( 17-C , 18-C ) :   1.6042
B( 17-C , 20-C ) :   0.1068 B( 17-C , 33-H ) :   0.9645 B( 18-C , 19-C ) :   1.2728
B( 18-C , 21-H ) :   0.9792 B( 19-C , 20-C ) :   1.5699 B( 19-C , 22-C ) :   1.0351
B( 22-C , 23-H ) :   0.9169 B( 22-C , 24-H ) :   0.9342 B( 22-C , 25-C ) :   1.0909
B( 25-C , 26-H ) :   0.9498 B( 25-C , 27-H ) :   0.9426 B( 25-C , 28-C ) :   1.0798
B( 28-C , 29-H ) :   0.9758 B( 28-C , 30-H ) :   0.9743 B( 28-C , 31-H ) :   0.9724

Dispersion correction           -0.013971670
FINAL SINGLE POINT ENERGY     -1339.873853142376

DIPOLE MOMENT
-------------
                                X             Y             Z
Electronic contribution:     13.00105     -26.81789       4.58654
Nuclear contribution   :    -13.39433      27.57158      -4.85732
                        -----------------------------------------
Total Dipole Moment    :     -0.39328       0.75369      -0.27078
                        -----------------------------------------
Magnitude (a.u.)       :      0.89221
Magnitude (Debye)      :      2.26781

Rotational constants in cm-1:     0.015589     0.010109     0.006937
Rotational constants in MHz :   467.352694   303.053087   207.954276

                             ****ORCA TERMINATED NORMALLY****
TOTAL RUN TIME: 0 days 0 hours 0 minutes 28 seconds 955 msec
