                         Program Version 4.2.1 -  RELEASE  -
|  1> ! wB97X-D3 SP def2-SVP
|  2> %pal
|  3> nprocs 16
|  4> end
|  5>
|  6> * xyz 0 1
|  7> S 	 -43.1793 	 52.6132 	 103.412
|  8> C 	 -43.4371 	 52.0652 	 101.77
|  9> C 	 -42.5652 	 51.0386 	 101.497
| 10> C 	 -41.5821 	 50.94 	 102.514
| 11> C 	 -41.7557 	 51.6252 	 103.704
| 12> H 	 -40.7346 	 50.294 	 102.463
| 13> C 	 -42.4809 	 50.3163 	 100.192
| 14> H 	 -41.9305 	 50.9451 	 99.4559
| 15> H 	 -43.4833 	 50.1965 	 99.9135
| 16> C 	 -41.8594 	 48.9266 	 100.234
| 17> H 	 -41.901 	 48.5238 	 99.2593
| 18> H 	 -40.8051 	 49.1778 	 100.515
| 19> C 	 -42.5339 	 48.0452 	 101.228
| 20> H 	 -42.2239 	 48.2936 	 102.263
| 21> H 	 -43.5656 	 48.1399 	 101.298
| 22> H 	 -42.3512 	 46.9896 	 101.17
| 23> S 	 -39.9179 	 53.2242 	 105.005
| 24> C 	 -38.9867 	 52.6662 	 106.445
| 25> C 	 -39.4305 	 51.348 	 106.71
| 26> C 	 -40.4167 	 50.8692 	 105.812
| 27> C 	 -40.7758 	 51.712 	 104.824
| 28> H 	 -38.9645 	 50.6993 	 107.487
| 29> C 	 -40.7786 	 49.382 	 105.93
| 30> H 	 -39.9298 	 48.7561 	 106.184
| 31> H 	 -40.9763 	 49.0664 	 104.919
| 32> C 	 -42.0759 	 49.091 	 106.798
| 33> H 	 -41.9941 	 49.6636 	 107.67
| 34> H 	 -42.1138 	 47.963 	 107.002
| 35> C 	 -43.389 	 49.6918 	 106.349
| 36> H 	 -43.3785 	 50.781 	 106.489
| 37> H 	 -44.2184 	 49.3276 	 106.793
| 38> H 	 -43.7435 	 49.4043 	 105.349
| 39> H 	 -44.3197 	 52.1028 	 101.207
| 40> H 	 -38.2642 	 53.3145 	 106.934
| 41> *
| 42>
| 43>                          ****END OF INPUT****

CARTESIAN COORDINATES (ANGSTROEM)
---------------------------------
  S    -43.179300   52.613200  103.412000
  C    -43.437100   52.065200  101.770000
  C    -42.565200   51.038600  101.497000
  C    -41.582100   50.940000  102.514000
  C    -41.755700   51.625200  103.704000
  H    -40.734600   50.294000  102.463000
  C    -42.480900   50.316300  100.192000
  H    -41.930500   50.945100   99.455900
  H    -43.483300   50.196500   99.913500
  C    -41.859400   48.926600  100.234000
  H    -41.901000   48.523800   99.259300
  H    -40.805100   49.177800  100.515000
  C    -42.533900   48.045200  101.228000
  H    -42.223900   48.293600  102.263000
  H    -43.565600   48.139900  101.298000
  H    -42.351200   46.989600  101.170000
  S    -39.917900   53.224200  105.005000
  C    -38.986700   52.666200  106.445000
  C    -39.430500   51.348000  106.710000
  C    -40.416700   50.869200  105.812000
  C    -40.775800   51.712000  104.824000
  H    -38.964500   50.699300  107.487000
  C    -40.778600   49.382000  105.930000
  H    -39.929800   48.756100  106.184000
  H    -40.976300   49.066400  104.919000
  C    -42.075900   49.091000  106.798000
  H    -41.994100   49.663600  107.670000
  H    -42.113800   47.963000  107.002000
  C    -43.389000   49.691800  106.349000
  H    -43.378500   50.781000  106.489000
  H    -44.218400   49.327600  106.793000
  H    -43.743500   49.404300  105.349000
  H    -44.319700   52.102800  101.207000
  H    -38.264200   53.314500  106.934000

 Total Charge           Charge          ....    0
 Multiplicity           Mult            ....    1
 Number of Electrons    NEL             ....  134
 Basis Dimension        Dim             ....  322

ORBITAL ENERGIES
----------------

  NO   OCC          E(Eh)            E(eV)
   0   2.0000     -88.965565     -2420.8761
   1   2.0000     -88.963448     -2420.8185
   2   2.0000     -10.334292      -281.2104
   3   2.0000     -10.331259      -281.1279
   4   2.0000     -10.330466      -281.1063
   5   2.0000     -10.309925      -280.5473
   6   2.0000     -10.302699      -280.3507
   7   2.0000     -10.301050      -280.3058
   8   2.0000     -10.296866      -280.1920
   9   2.0000     -10.291718      -280.0519
  10   2.0000     -10.289476      -279.9909
  11   2.0000     -10.287690      -279.9423
  12   2.0000     -10.287262      -279.9306
  13   2.0000     -10.285137      -279.8728
  14   2.0000     -10.268990      -279.4334
  15   2.0000     -10.263590      -279.2865
  16   2.0000      -8.079734      -219.8607
  17   2.0000      -8.077709      -219.8056
  18   2.0000      -6.038347      -164.3118
  19   2.0000      -6.036310      -164.2563
  20   2.0000      -6.034131      -164.1970
  21   2.0000      -6.032089      -164.1415
  22   2.0000      -6.030551      -164.0996
  23   2.0000      -6.028549      -164.0451
  24   2.0000      -1.007050       -27.4032
  25   2.0000      -0.987232       -26.8640
  26   2.0000      -0.922702       -25.1080
  27   2.0000      -0.901348       -24.5269
  28   2.0000      -0.871494       -23.7146
  29   2.0000      -0.849709       -23.1218
  30   2.0000      -0.842550       -22.9270
  31   2.0000      -0.818330       -22.2679
  32   2.0000      -0.786550       -21.4031
  33   2.0000      -0.779362       -21.2075
  34   2.0000      -0.712710       -19.3938
  35   2.0000      -0.699202       -19.0263
  36   2.0000      -0.695952       -18.9378
  37   2.0000      -0.668729       -18.1970
  38   2.0000      -0.638396       -17.3716
  39   2.0000      -0.623842       -16.9756
  40   2.0000      -0.600238       -16.3333
  41   2.0000      -0.570506       -15.5242
  42   2.0000      -0.565256       -15.3814
  43   2.0000      -0.552562       -15.0360
  44   2.0000      -0.541949       -14.7472
  45   2.0000      -0.536362       -14.5951
  46   2.0000      -0.520662       -14.1679
  47   2.0000      -0.511993       -13.9320
  48   2.0000      -0.508194       -13.8287
  49   2.0000      -0.498648       -13.5689
  50   2.0000      -0.485250       -13.2043
  51   2.0000      -0.481285       -13.0964
  52   2.0000      -0.480286       -13.0693
  53   2.0000      -0.467980       -12.7344
  54   2.0000      -0.457678       -12.4541
  55   2.0000      -0.446972       -12.1627
  56   2.0000      -0.442609       -12.0440
  57   2.0000      -0.435354       -11.8466
  58   2.0000      -0.430496       -11.7144
  59   2.0000      -0.416272       -11.3273
  60   2.0000      -0.413152       -11.2424
  61   2.0000      -0.410679       -11.1751
  62   2.0000      -0.403422       -10.9777
  63   2.0000      -0.340254        -9.2588
  64   2.0000      -0.331231        -9.0133
  65   2.0000      -0.325379        -8.8540
  66   2.0000      -0.307935        -8.3793
  67   0.0000       0.034798         0.9469
  68   0.0000       0.053604         1.4586
  69   0.0000       0.113266         3.0821
  70   0.0000       0.120151         3.2695
  71   0.0000       0.129200         3.5157

MULLIKEN ATOMIC CHARGES
-----------------------
   0 S :    0.105514
   1 C :   -0.079016
   2 C :   -0.132847
   3 C :    0.030912
   4 C :   -0.138672
   5 H :   -0.001221
   6 C :    0.076265
   7 H :    0.057805
   8 H :    0.002111
   9 C :   -0.059212
  10 H :    0.025755
  11 H :    0.037220
  12 C :   -0.021653
  13 H :    0.024069
  14 H :    0.010460
  15 H :    0.027418
  16 S :    0.092528
  17 C :   -0.110332
  18 C :   -0.035796
  19 C :   -0.046139
  20 C :   -0.166557
  21 H :    0.039818
  22 C :    0.079925
  23 H :    0.026920
  24 H :    0.007660
  25 C :   -0.060329
  26 H :    0.015767
  27 H :    0.044023
  28 C :   -0.014775
  29 H :    0.039974
  30 H :   -0.000913
  31 H :    0.012429
  32 H :    0.037388
  33 H :    0.073502
Sum of atomic charges:    0.0000000

LOEWDIN ATOMIC CHARGES
----------------------
   0 S :    0.409028
   1 C :   -0.188848
   2 C :   -0.068158
   3 C :   -0.060544
   4 C :   -0.196118
   5 H :    0.020638
   6 C :   -0.027204
   7 H :    0.042459
   8 H :    0.019279
   9 C :   -0.038566
  10 H :    0.021776
  11 H :    0.029185
  12 C :   -0.066758
  13 H :    0.031644
  14 H :    0.017572
  15 H :    0.025264
  16 S :    0.392660
  17 C :   -0.167697
  18 C :   -0.072930
  19 C :   -0.067331
  20 C :   -0.195044
  21 H :    0.038901
  22 C :   -0.027027
  23 H :    0.030789
  24 H :    0.023972
  25 C :   -0.038088
  26 H :    0.019347
  27 H :    0.032023
  28 C :   -0.065941
  29 H :    0.030565
  30 H :    0.014611
  31 H :    0.024639
  32 H :    0.023066
  33 H :    0.032835

  Mayer bond orders larger than 0.100000
B(  0-S ,  1-C ) :   1.1542 B(  0-S ,  4-C ) :   1.1454 B(  1-C ,  2-C ) :   1.6025
B(  1-C ,  4-C ) :   0.1024 B(  1-C , 32-H ) :   0.9609 B(  2-C ,  3-C ) :   1.2563
B(  2-C ,  6-C ) :   1.0161 B(  3-C ,  4-C ) :   1.5826 B(  3-C ,  5-H ) :   0.9853
B(  4-C , 20-C ) :   0.9985 B(  6-C ,  7-H ) :   0.9412 B(  6-C ,  8-H ) :   0.9293
B(  6-C ,  9-C ) :   1.0863 B(  9-C , 10-H ) :   0.9546 B(  9-C , 11-H ) :   0.9487
B(  9-C , 12-C ) :   1.0815 B( 12-C , 13-H ) :   0.9624 B( 12-C , 14-H ) :   0.9722
B( 12-C , 15-H ) :   0.9716 B( 16-S , 17-C ) :   1.1583 B( 16-S , 20-C ) :   1.1433
B( 17-C , 18-C ) :   1.5661 B( 17-C , 20-C ) :   0.1069 B( 17-C , 33-H ) :   0.9747
B( 18-C , 19-C ) :   1.2607 B( 18-C , 21-H ) :   0.9809 B( 19-C , 20-C ) :   1.6304
B( 19-C , 22-C ) :   1.0193 B( 22-C , 23-H ) :   0.9471 B( 22-C , 24-H ) :   0.9380
B( 22-C , 25-C ) :   1.0547 B( 25-C , 26-H ) :   0.9593 B( 25-C , 27-H ) :   0.9576
B( 25-C , 28-C ) :   1.0782 B( 28-C , 29-H ) :   0.9742 B( 28-C , 30-H ) :   0.9641
B( 28-C , 31-H ) :   0.9652

Dispersion correction           -0.015809247
FINAL SINGLE POINT ENERGY     -1339.845074845439

DIPOLE MOMENT
-------------
                                X             Y             Z
Electronic contribution:      5.88554      23.81549       4.06324
Nuclear contribution   :     -5.80077     -24.51245      -4.20086
                        -----------------------------------------
Total Dipole Moment    :      0.08477      -0.69696      -0.13762
                        -----------------------------------------
Magnitude (a.u.)       :      0.71545
Magnitude (Debye)      :      1.81854

Rotational constants in cm-1:     0.018948     0.009494     0.008181
Rotational constants in MHz :   568.060240   284.617222   245.260820

                             ****ORCA TERMINATED NORMALLY****
TOTAL RUN TIME: 0 days 0 hours 0 minutes 32 seconds 661 msec
