                         Program Version 4.2.1 -  RELEASE  -
|  1> ! wB97X-D3 SP def2-SVP
|  2> %pal
|  3> nprocs 16
|  4> end
|  5>
|  6> * xyz 0 1
|  7> S 	 -29.9511 	 57.5772 	 112.655
|  8> C 	 -30.1892 	 58.3636 	 111.156
|  9> C 	 -30.79 	 57.5923 	 110.221
| 10> C 	 -31.2392 	 56.3773 	 110.791
| 11> C 	 -30.7595 	 56.1217 	 112.083
| 12> H 	 -31.7257 	 55.6317 	 110.151
| 13> C 	 -31.0724 	 57.9128 	 108.783
| 14> H 	 -31.2693 	 58.9435 	 108.752
| 15> H 	 -31.9893 	 57.4337 	 108.376
| 16> C 	 -29.9135 	 57.5439 	 107.823
| 17> H 	 -29.125 	 58.2197 	 108.107
| 18> H 	 -29.6295 	 56.5232 	 108.1
| 19> C 	 -30.2648 	 57.7446 	 106.285
| 20> H 	 -31.1526 	 57.2177 	 105.857
| 21> H 	 -30.3912 	 58.8355 	 106.149
| 22> H 	 -29.3944 	 57.4252 	 105.671
| 23> S 	 -31.9315 	 55.0908 	 114.344
| 24> C 	 -31.9927 	 53.4132 	 114.574
| 25> C 	 -31.1799 	 52.7547 	 113.708
| 26> C 	 -30.6351 	 53.5971 	 112.677
| 27> C 	 -30.9753 	 54.9067 	 112.88
| 28> H 	 -31.0825 	 51.6884 	 113.829
| 29> C 	 -29.8352 	 52.987 	 111.492
| 30> H 	 -28.8749 	 52.634 	 111.769
| 31> H 	 -29.5063 	 53.7942 	 110.874
| 32> C 	 -30.676 	 51.912 	 110.819
| 33> H 	 -31.6843 	 52.3169 	 110.551
| 34> H 	 -30.7116 	 51.087 	 111.507
| 35> C 	 -30.0572 	 51.4575 	 109.465
| 36> H 	 -29.243 	 50.8236 	 109.573
| 37> H 	 -29.6431 	 52.4001 	 108.914
| 38> H 	 -30.8733 	 51.081 	 108.871
| 39> H 	 -29.8449 	 59.3394 	 110.894
| 40> H 	 -32.6916 	 52.984 	 115.389
| 41> *
| 42>
| 43>                          ****END OF INPUT****

CARTESIAN COORDINATES (ANGSTROEM)
---------------------------------
  S    -29.951100   57.577200  112.655000
  C    -30.189200   58.363600  111.156000
  C    -30.790000   57.592300  110.221000
  C    -31.239200   56.377300  110.791000
  C    -30.759500   56.121700  112.083000
  H    -31.725700   55.631700  110.151000
  C    -31.072400   57.912800  108.783000
  H    -31.269300   58.943500  108.752000
  H    -31.989300   57.433700  108.376000
  C    -29.913500   57.543900  107.823000
  H    -29.125000   58.219700  108.107000
  H    -29.629500   56.523200  108.100000
  C    -30.264800   57.744600  106.285000
  H    -31.152600   57.217700  105.857000
  H    -30.391200   58.835500  106.149000
  H    -29.394400   57.425200  105.671000
  S    -31.931500   55.090800  114.344000
  C    -31.992700   53.413200  114.574000
  C    -31.179900   52.754700  113.708000
  C    -30.635100   53.597100  112.677000
  C    -30.975300   54.906700  112.880000
  H    -31.082500   51.688400  113.829000
  C    -29.835200   52.987000  111.492000
  H    -28.874900   52.634000  111.769000
  H    -29.506300   53.794200  110.874000
  C    -30.676000   51.912000  110.819000
  H    -31.684300   52.316900  110.551000
  H    -30.711600   51.087000  111.507000
  C    -30.057200   51.457500  109.465000
  H    -29.243000   50.823600  109.573000
  H    -29.643100   52.400100  108.914000
  H    -30.873300   51.081000  108.871000
  H    -29.844900   59.339400  110.894000
  H    -32.691600   52.984000  115.389000

 Total Charge           Charge          ....    0
 Multiplicity           Mult            ....    1
 Number of Electrons    NEL             ....  134
 Basis Dimension        Dim             ....  322

ORBITAL ENERGIES
----------------

  NO   OCC          E(Eh)            E(eV)
   0   2.0000     -88.967178     -2420.9200
   1   2.0000     -88.958747     -2420.6906
   2   2.0000     -10.330358      -281.1033
   3   2.0000     -10.323862      -280.9266
   4   2.0000     -10.317491      -280.7532
   5   2.0000     -10.305510      -280.4272
   6   2.0000     -10.305072      -280.4153
   7   2.0000     -10.291325      -280.0412
   8   2.0000     -10.291267      -280.0396
   9   2.0000     -10.291249      -280.0391
  10   2.0000     -10.290904      -280.0297
  11   2.0000     -10.289498      -279.9915
  12   2.0000     -10.289140      -279.9817
  13   2.0000     -10.287091      -279.9260
  14   2.0000     -10.286661      -279.9143
  15   2.0000     -10.279929      -279.7311
  16   2.0000      -8.082248      -219.9292
  17   2.0000      -8.075126      -219.7353
  18   2.0000      -6.040755      -164.3773
  19   2.0000      -6.036660      -164.2659
  20   2.0000      -6.033462      -164.1789
  21   2.0000      -6.033050      -164.1676
  22   2.0000      -6.029451      -164.0697
  23   2.0000      -6.025903      -163.9731
  24   2.0000      -1.009932       -27.4816
  25   2.0000      -0.991784       -26.9878
  26   2.0000      -0.910363       -24.7722
  27   2.0000      -0.909206       -24.7408
  28   2.0000      -0.867631       -23.6095
  29   2.0000      -0.849107       -23.1054
  30   2.0000      -0.844404       -22.9774
  31   2.0000      -0.811248       -22.0752
  32   2.0000      -0.783694       -21.3254
  33   2.0000      -0.773780       -21.0556
  34   2.0000      -0.703906       -19.1543
  35   2.0000      -0.700556       -19.0631
  36   2.0000      -0.697430       -18.9780
  37   2.0000      -0.655070       -17.8254
  38   2.0000      -0.636133       -17.3101
  39   2.0000      -0.622704       -16.9446
  40   2.0000      -0.599400       -16.3105
  41   2.0000      -0.572121       -15.5682
  42   2.0000      -0.569642       -15.5007
  43   2.0000      -0.559469       -15.2239
  44   2.0000      -0.530484       -14.4352
  45   2.0000      -0.521196       -14.1825
  46   2.0000      -0.515436       -14.0257
  47   2.0000      -0.508577       -13.8391
  48   2.0000      -0.501884       -13.6569
  49   2.0000      -0.494660       -13.4604
  50   2.0000      -0.492786       -13.4094
  51   2.0000      -0.478590       -13.0231
  52   2.0000      -0.471228       -12.8228
  53   2.0000      -0.464387       -12.6366
  54   2.0000      -0.459340       -12.4993
  55   2.0000      -0.447172       -12.1682
  56   2.0000      -0.442580       -12.0432
  57   2.0000      -0.435175       -11.8417
  58   2.0000      -0.433087       -11.7849
  59   2.0000      -0.427456       -11.6317
  60   2.0000      -0.424734       -11.5576
  61   2.0000      -0.421390       -11.4666
  62   2.0000      -0.414841       -11.2884
  63   2.0000      -0.341572        -9.2947
  64   2.0000      -0.331350        -9.0165
  65   2.0000      -0.328354        -8.9350
  66   2.0000      -0.297796        -8.1034
  67   0.0000       0.042552         1.1579
  68   0.0000       0.066852         1.8191
  69   0.0000       0.122504         3.3335
  70   0.0000       0.123548         3.3619
  71   0.0000       0.131993         3.5917

MULLIKEN ATOMIC CHARGES
-----------------------
   0 S :    0.126447
   1 C :   -0.100579
   2 C :   -0.108669
   3 C :    0.045892
   4 C :   -0.171158
   5 H :    0.012910
   6 C :    0.071269
   7 H :    0.005023
   8 H :    0.023066
   9 C :   -0.064979
  10 H :    0.025329
  11 H :    0.029926
  12 C :   -0.074830
  13 H :    0.046454
  14 H :    0.037003
  15 H :    0.045628
  16 S :    0.107049
  17 C :   -0.126209
  18 C :   -0.039646
  19 C :   -0.021878
  20 C :   -0.177153
  21 H :    0.016764
  22 C :    0.127493
  23 H :    0.015705
  24 H :    0.002121
  25 C :   -0.110200
  26 H :    0.044530
  27 H :    0.034720
  28 C :   -0.033698
  29 H :    0.025254
  30 H :    0.030436
  31 H :    0.038912
  32 H :    0.026561
  33 H :    0.090508
Sum of atomic charges:   -0.0000000

LOEWDIN ATOMIC CHARGES
----------------------
   0 S :    0.421506
   1 C :   -0.204546
   2 C :   -0.071215
   3 C :   -0.058440
   4 C :   -0.198516
   5 H :    0.030787
   6 C :   -0.030996
   7 H :    0.019684
   8 H :    0.031304
   9 C :   -0.033316
  10 H :    0.022433
  11 H :    0.021681
  12 C :   -0.075231
  13 H :    0.029099
  14 H :    0.028583
  15 H :    0.031384
  16 S :    0.416761
  17 C :   -0.205673
  18 C :   -0.081530
  19 C :   -0.044268
  20 C :   -0.202848
  21 H :    0.029436
  22 C :   -0.026659
  23 H :    0.027249
  24 H :    0.023791
  25 C :   -0.036202
  26 H :    0.031703
  27 H :    0.021521
  28 C :   -0.061744
  29 H :    0.012686
  30 H :    0.034048
  31 H :    0.025862
  32 H :    0.023274
  33 H :    0.048391

  Mayer bond orders larger than 0.100000
B(  0-S ,  1-C ) :   1.1475 B(  0-S ,  4-C ) :   1.1571 B(  1-C ,  2-C ) :   1.6161
B(  1-C , 32-H ) :   0.9610 B(  2-C ,  3-C ) :   1.2734 B(  2-C ,  6-C ) :   1.0262
B(  3-C ,  4-C ) :   1.5557 B(  3-C ,  5-H ) :   0.9872 B(  4-C , 20-C ) :   1.0180
B(  6-C ,  7-H ) :   0.9346 B(  6-C ,  8-H ) :   0.9460 B(  6-C ,  9-C ) :   1.0492
B(  9-C , 10-H ) :   0.9573 B(  9-C , 11-H ) :   0.9616 B(  9-C , 12-C ) :   1.0670
B( 12-C , 13-H ) :   0.9776 B( 12-C , 14-H ) :   0.9756 B( 12-C , 15-H ) :   0.9764
B( 16-S , 17-C ) :   1.1732 B( 16-S , 20-C ) :   1.1426 B( 17-C , 18-C ) :   1.6157
B( 17-C , 33-H ) :   0.9543 B( 18-C , 19-C ) :   1.2071 B( 18-C , 21-H ) :   0.9957
B( 19-C , 20-C ) :   1.6396 B( 19-C , 22-C ) :   1.0350 B( 22-C , 23-H ) :   0.9310
B( 22-C , 24-H ) :   0.9276 B( 22-C , 25-C ) :   1.0567 B( 25-C , 26-H ) :   0.9631
B( 25-C , 27-H ) :   0.9531 B( 25-C , 28-C ) :   1.0792 B( 28-C , 29-H ) :   0.9758
B( 28-C , 30-H ) :   0.9754 B( 28-C , 31-H ) :   0.9782

Dispersion correction           -0.013821294
FINAL SINGLE POINT ENERGY     -1339.877792258919

DIPOLE MOMENT
-------------
                                X             Y             Z
Electronic contribution:     -4.11686       9.03971      30.78462
Nuclear contribution   :      4.15555      -9.40365     -31.38226
                        -----------------------------------------
Total Dipole Moment    :      0.03869      -0.36395      -0.59765
                        -----------------------------------------
Magnitude (a.u.)       :      0.70081
Magnitude (Debye)      :      1.78132

Rotational constants in cm-1:     0.016950     0.008949     0.006300
Rotational constants in MHz :   508.159024   268.272445   188.872207

                             ****ORCA TERMINATED NORMALLY****
TOTAL RUN TIME: 0 days 0 hours 0 minutes 29 seconds 877 msec
