                         Program Version 4.2.1 -  RELEASE  -
|  1> ! wB97X-D3 SP def2-SVP
|  2> %pal
|  3> nprocs 16
|  4> end
|  5>
|  6> * xyz 0 1
|  7> S 	 -40.034 	 50.4648 	 107.897
|  8> C 	 -38.5615 	 49.6087 	 107.566
|  9> C 	 -38.4984 	 49.2794 	 106.222
| 10> C 	 -39.673 	 49.6514 	 105.479
| 11> C 	 -40.5546 	 50.3933 	 106.249
| 12> H 	 -39.8536 	 49.5267 	 104.481
| 13> C 	 -37.355 	 48.492 	 105.549
| 14> H 	 -36.409 	 48.4809 	 106.151
| 15> H 	 -37.098 	 48.8944 	 104.59
| 16> C 	 -37.7553 	 47.0807 	 105.182
| 17> H 	 -38.6857 	 47.0954 	 104.588
| 18> H 	 -36.9181 	 46.6672 	 104.577
| 19> C 	 -37.9041 	 46.2469 	 106.48
| 20> H 	 -38.4043 	 45.3463 	 106.125
| 21> H 	 -36.9479 	 45.9575 	 106.882
| 22> H 	 -38.4742 	 46.7237 	 107.261
| 23> S 	 -42.1548 	 52.6873 	 106.357
| 24> C 	 -43.5529 	 52.8437 	 105.398
| 25> C 	 -43.6285 	 51.8119 	 104.448
| 26> C 	 -42.6159 	 50.8192 	 104.666
| 27> C 	 -41.7869 	 51.0607 	 105.787
| 28> H 	 -44.2452 	 51.8738 	 103.644
| 29> C 	 -42.5753 	 49.6624 	 103.722
| 30> H 	 -41.8183 	 48.8913 	 103.966
| 31> H 	 -42.2502 	 50.0251 	 102.673
| 32> C 	 -43.8511 	 48.8311 	 103.761
| 33> H 	 -44.2295 	 48.6994 	 104.771
| 34> H 	 -43.7487 	 47.7969 	 103.469
| 35> C 	 -44.9404 	 49.3786 	 102.796
| 36> H 	 -45.4421 	 50.1935 	 103.306
| 37> H 	 -45.6449 	 48.601 	 102.469
| 38> H 	 -44.3947 	 49.7076 	 101.97
| 39> H 	 -37.7569 	 49.2725 	 108.312
| 40> H 	 -44.2104 	 53.683 	 105.367
| 41> *
| 42>
| 43>                          ****END OF INPUT****

CARTESIAN COORDINATES (ANGSTROEM)
---------------------------------
  S    -40.034000   50.464800  107.897000
  C    -38.561500   49.608700  107.566000
  C    -38.498400   49.279400  106.222000
  C    -39.673000   49.651400  105.479000
  C    -40.554600   50.393300  106.249000
  H    -39.853600   49.526700  104.481000
  C    -37.355000   48.492000  105.549000
  H    -36.409000   48.480900  106.151000
  H    -37.098000   48.894400  104.590000
  C    -37.755300   47.080700  105.182000
  H    -38.685700   47.095400  104.588000
  H    -36.918100   46.667200  104.577000
  C    -37.904100   46.246900  106.480000
  H    -38.404300   45.346300  106.125000
  H    -36.947900   45.957500  106.882000
  H    -38.474200   46.723700  107.261000
  S    -42.154800   52.687300  106.357000
  C    -43.552900   52.843700  105.398000
  C    -43.628500   51.811900  104.448000
  C    -42.615900   50.819200  104.666000
  C    -41.786900   51.060700  105.787000
  H    -44.245200   51.873800  103.644000
  C    -42.575300   49.662400  103.722000
  H    -41.818300   48.891300  103.966000
  H    -42.250200   50.025100  102.673000
  C    -43.851100   48.831100  103.761000
  H    -44.229500   48.699400  104.771000
  H    -43.748700   47.796900  103.469000
  C    -44.940400   49.378600  102.796000
  H    -45.442100   50.193500  103.306000
  H    -45.644900   48.601000  102.469000
  H    -44.394700   49.707600  101.970000
  H    -37.756900   49.272500  108.312000
  H    -44.210400   53.683000  105.367000

 Total Charge           Charge          ....    0
 Multiplicity           Mult            ....    1
 Number of Electrons    NEL             ....  134
 Basis Dimension        Dim             ....  322

ORBITAL ENERGIES
----------------

  NO   OCC          E(Eh)            E(eV)
   0   2.0000     -88.968408     -2420.9535
   1   2.0000     -88.968051     -2420.9438
   2   2.0000     -10.333114      -281.1783
   3   2.0000     -10.332986      -281.1748
   4   2.0000     -10.319627      -280.8113
   5   2.0000     -10.317627      -280.7569
   6   2.0000     -10.306982      -280.4672
   7   2.0000     -10.304390      -280.3967
   8   2.0000     -10.299116      -280.2532
   9   2.0000     -10.290379      -280.0154
  10   2.0000     -10.289711      -279.9973
  11   2.0000     -10.289513      -279.9919
  12   2.0000     -10.288304      -279.9590
  13   2.0000     -10.281947      -279.7860
  14   2.0000     -10.271345      -279.4975
  15   2.0000     -10.270155      -279.4651
  16   2.0000      -8.083497      -219.9631
  17   2.0000      -8.083163      -219.9541
  18   2.0000      -6.042044      -164.4124
  19   2.0000      -6.041604      -164.4004
  20   2.0000      -6.037860      -164.2985
  21   2.0000      -6.037540      -164.2898
  22   2.0000      -6.034282      -164.2012
  23   2.0000      -6.034045      -164.1947
  24   2.0000      -1.009116       -27.4594
  25   2.0000      -0.988187       -26.8899
  26   2.0000      -0.915059       -24.9000
  27   2.0000      -0.913012       -24.8443
  28   2.0000      -0.869012       -23.6470
  29   2.0000      -0.850836       -23.1524
  30   2.0000      -0.842864       -22.9355
  31   2.0000      -0.813869       -22.1465
  32   2.0000      -0.785231       -21.3672
  33   2.0000      -0.775148       -21.0929
  34   2.0000      -0.708527       -19.2800
  35   2.0000      -0.694231       -18.8910
  36   2.0000      -0.687665       -18.7123
  37   2.0000      -0.666493       -18.1362
  38   2.0000      -0.641988       -17.4694
  39   2.0000      -0.626956       -17.0603
  40   2.0000      -0.602372       -16.3914
  41   2.0000      -0.575645       -15.6641
  42   2.0000      -0.550999       -14.9935
  43   2.0000      -0.545657       -14.8481
  44   2.0000      -0.543592       -14.7919
  45   2.0000      -0.542349       -14.7581
  46   2.0000      -0.518811       -14.1176
  47   2.0000      -0.515184       -14.0189
  48   2.0000      -0.506867       -13.7926
  49   2.0000      -0.499607       -13.5950
  50   2.0000      -0.493514       -13.4292
  51   2.0000      -0.485783       -13.2188
  52   2.0000      -0.474566       -12.9136
  53   2.0000      -0.464564       -12.6414
  54   2.0000      -0.463137       -12.6026
  55   2.0000      -0.450897       -12.2695
  56   2.0000      -0.444690       -12.1006
  57   2.0000      -0.440425       -11.9846
  58   2.0000      -0.433331       -11.7915
  59   2.0000      -0.418851       -11.3975
  60   2.0000      -0.417345       -11.3565
  61   2.0000      -0.411410       -11.1950
  62   2.0000      -0.403158       -10.9705
  63   2.0000      -0.356445        -9.6994
  64   2.0000      -0.330502        -8.9934
  65   2.0000      -0.329286        -8.9603
  66   2.0000      -0.287684        -7.8283
  67   0.0000       0.023753         0.6464
  68   0.0000       0.078357         2.1322
  69   0.0000       0.104127         2.8334
  70   0.0000       0.120295         3.2734
  71   0.0000       0.128636         3.5004

MULLIKEN ATOMIC CHARGES
-----------------------
   0 S :    0.117405
   1 C :   -0.140931
   2 C :   -0.086733
   3 C :    0.042342
   4 C :   -0.141807
   5 H :   -0.021449
   6 C :    0.068707
   7 H :    0.025376
   8 H :    0.016845
   9 C :   -0.108186
  10 H :    0.035875
  11 H :    0.037063
  12 C :   -0.038691
  13 H :    0.028645
  14 H :    0.021161
  15 H :    0.040819
  16 S :    0.111686
  17 C :   -0.069890
  18 C :   -0.010625
  19 C :   -0.048955
  20 C :   -0.106341
  21 H :   -0.013390
  22 C :   -0.003805
  23 H :    0.028165
  24 H :    0.056060
  25 C :   -0.079578
  26 H :    0.034331
  27 H :    0.019468
  28 C :   -0.032082
  29 H :    0.041806
  30 H :    0.036073
  31 H :    0.010021
  32 H :    0.078768
  33 H :    0.051847
Sum of atomic charges:    0.0000000

LOEWDIN ATOMIC CHARGES
----------------------
   0 S :    0.422501
   1 C :   -0.224028
   2 C :   -0.058511
   3 C :   -0.056663
   4 C :   -0.190985
   5 H :    0.013356
   6 C :   -0.035182
   7 H :    0.031322
   8 H :    0.025514
   9 C :   -0.040227
  10 H :    0.023070
  11 H :    0.028461
  12 C :   -0.064205
  13 H :    0.026335
  14 H :    0.020759
  15 H :    0.023093
  16 S :    0.428866
  17 C :   -0.189972
  18 C :   -0.060376
  19 C :   -0.052807
  20 C :   -0.201894
  21 H :    0.013209
  22 C :   -0.045657
  23 H :    0.033104
  24 H :    0.042033
  25 C :   -0.039784
  26 H :    0.027917
  27 H :    0.021117
  28 C :   -0.061307
  29 H :    0.022841
  30 H :    0.027942
  31 H :    0.013093
  32 H :    0.050078
  33 H :    0.026988

  Mayer bond orders larger than 0.100000
B(  0-S ,  1-C ) :   1.1292 B(  0-S ,  4-C ) :   1.1670 B(  1-C ,  2-C ) :   1.6127
B(  1-C , 32-H ) :   0.9559 B(  2-C ,  3-C ) :   1.2347 B(  2-C ,  6-C ) :   1.0310
B(  3-C ,  4-C ) :   1.5599 B(  3-C ,  5-H ) :   1.0018 B(  4-C , 20-C ) :   1.0423
B(  6-C ,  7-H ) :   0.9465 B(  6-C ,  8-H ) :   0.9368 B(  6-C ,  9-C ) :   1.0745
B(  9-C , 10-H ) :   0.9586 B(  9-C , 11-H ) :   0.9547 B(  9-C , 12-C ) :   1.0683
B( 12-C , 13-H ) :   0.9751 B( 12-C , 14-H ) :   0.9749 B( 12-C , 15-H ) :   0.9783
B( 16-S , 17-C ) :   1.1897 B( 16-S , 20-C ) :   1.1444 B( 17-C , 18-C ) :   1.5531
B( 17-C , 20-C ) :   0.1005 B( 17-C , 33-H ) :   0.9693 B( 18-C , 19-C ) :   1.2793
B( 18-C , 21-H ) :   0.9996 B( 19-C , 20-C ) :   1.5525 B( 19-C , 22-C ) :   1.0514
B( 22-C , 23-H ) :   0.9340 B( 22-C , 24-H ) :   0.9383 B( 22-C , 25-C ) :   1.0588
B( 25-C , 26-H ) :   0.9542 B( 25-C , 27-H ) :   0.9624 B( 25-C , 28-C ) :   1.0719
B( 28-C , 29-H ) :   0.9718 B( 28-C , 30-H ) :   0.9728 B( 28-C , 31-H ) :   0.9758

Dispersion correction           -0.014354362
FINAL SINGLE POINT ENERGY     -1339.867434510710

DIPOLE MOMENT
-------------
                                X             Y             Z
Electronic contribution:     -0.99634      22.25311      16.03955
Nuclear contribution   :      1.08725     -22.61619     -16.65514
                        -----------------------------------------
Total Dipole Moment    :      0.09091      -0.36308      -0.61559
                        -----------------------------------------
Magnitude (a.u.)       :      0.72044
Magnitude (Debye)      :      1.83122

Rotational constants in cm-1:     0.019972     0.008603     0.006467
Rotational constants in MHz :   598.755626   257.925796   193.882042

                             ****ORCA TERMINATED NORMALLY****
TOTAL RUN TIME: 0 days 0 hours 0 minutes 30 seconds 218 msec
