                         Program Version 4.2.1 -  RELEASE  -
|  1> ! wB97X-D3 SP def2-SVP
|  2> %pal
|  3> nprocs 16
|  4> end
|  5>
|  6> * xyz 0 1
|  7> S 	 -33.0952 	 72.8426 	 151.33
|  8> C 	 -31.8853 	 72.5789 	 150.041
|  9> C 	 -31.8404 	 71.2448 	 149.676
| 10> C 	 -32.8641 	 70.4627 	 150.351
| 11> C 	 -33.6996 	 71.161 	 151.173
| 12> H 	 -32.9521 	 69.4369 	 150.217
| 13> C 	 -30.8524 	 70.6964 	 148.665
| 14> H 	 -30.7627 	 71.2568 	 147.726
| 15> H 	 -31.2917 	 69.7769 	 148.278
| 16> C 	 -29.4455 	 70.3913 	 149.223
| 17> H 	 -28.9192 	 71.2959 	 149.5
| 18> H 	 -29.4522 	 69.691 	 150.033
| 19> C 	 -28.5594 	 69.7449 	 148.253
| 20> H 	 -27.5589 	 69.9011 	 148.712
| 21> H 	 -28.875 	 68.7242 	 148.162
| 22> H 	 -28.5632 	 70.0794 	 147.21
| 23> S 	 -36.3839 	 71.6205 	 151.434
| 24> C 	 -37.3515 	 70.5664 	 152.452
| 25> C 	 -36.6052 	 69.5264 	 152.893
| 26> C 	 -35.1772 	 69.6135 	 152.553
| 27> C 	 -34.8895 	 70.7433 	 151.799
| 28> H 	 -37.1387 	 68.9064 	 153.613
| 29> C 	 -34.2915 	 68.447 	 153
| 30> H 	 -34.0144 	 67.8408 	 152.131
| 31> H 	 -34.9662 	 67.7662 	 153.422
| 32> C 	 -33.1406 	 68.7622 	 153.908
| 33> H 	 -33.4679 	 69.3421 	 154.774
| 34> H 	 -32.3838 	 69.3095 	 153.332
| 35> C 	 -32.5065 	 67.4637 	 154.345
| 36> H 	 -31.5072 	 67.5567 	 154.857
| 37> H 	 -32.129 	 66.8927 	 153.531
| 38> H 	 -33.1727 	 66.7776 	 154.883
| 39> H 	 -31.3336 	 73.4004 	 149.719
| 40> H 	 -38.4089 	 70.6467 	 152.743
| 41> *
| 42>
| 43>                          ****END OF INPUT****

CARTESIAN COORDINATES (ANGSTROEM)
---------------------------------
  S    -33.095200   72.842600  151.330000
  C    -31.885300   72.578900  150.041000
  C    -31.840400   71.244800  149.676000
  C    -32.864100   70.462700  150.351000
  C    -33.699600   71.161000  151.173000
  H    -32.952100   69.436900  150.217000
  C    -30.852400   70.696400  148.665000
  H    -30.762700   71.256800  147.726000
  H    -31.291700   69.776900  148.278000
  C    -29.445500   70.391300  149.223000
  H    -28.919200   71.295900  149.500000
  H    -29.452200   69.691000  150.033000
  C    -28.559400   69.744900  148.253000
  H    -27.558900   69.901100  148.712000
  H    -28.875000   68.724200  148.162000
  H    -28.563200   70.079400  147.210000
  S    -36.383900   71.620500  151.434000
  C    -37.351500   70.566400  152.452000
  C    -36.605200   69.526400  152.893000
  C    -35.177200   69.613500  152.553000
  C    -34.889500   70.743300  151.799000
  H    -37.138700   68.906400  153.613000
  C    -34.291500   68.447000  153.000000
  H    -34.014400   67.840800  152.131000
  H    -34.966200   67.766200  153.422000
  C    -33.140600   68.762200  153.908000
  H    -33.467900   69.342100  154.774000
  H    -32.383800   69.309500  153.332000
  C    -32.506500   67.463700  154.345000
  H    -31.507200   67.556700  154.857000
  H    -32.129000   66.892700  153.531000
  H    -33.172700   66.777600  154.883000
  H    -31.333600   73.400400  149.719000
  H    -38.408900   70.646700  152.743000

 Total Charge           Charge          ....    0
 Multiplicity           Mult            ....    1
 Number of Electrons    NEL             ....  134
 Basis Dimension        Dim             ....  322

ORBITAL ENERGIES
----------------

  NO   OCC          E(Eh)            E(eV)
   0   2.0000     -88.962158     -2420.7834
   1   2.0000     -88.960387     -2420.7352
   2   2.0000     -10.328394      -281.0499
   3   2.0000     -10.325670      -280.9758
   4   2.0000     -10.316045      -280.7139
   5   2.0000     -10.314580      -280.6740
   6   2.0000     -10.308407      -280.5060
   7   2.0000     -10.305798      -280.4350
   8   2.0000     -10.294131      -280.1175
   9   2.0000     -10.293545      -280.1016
  10   2.0000     -10.291865      -280.0559
  11   2.0000     -10.286274      -279.9038
  12   2.0000     -10.283648      -279.8323
  13   2.0000     -10.280120      -279.7363
  14   2.0000     -10.275912      -279.6218
  15   2.0000     -10.273764      -279.5633
  16   2.0000      -8.076669      -219.7773
  17   2.0000      -8.074422      -219.7162
  18   2.0000      -6.035394      -164.2314
  19   2.0000      -6.033020      -164.1668
  20   2.0000      -6.031159      -164.1162
  21   2.0000      -6.029082      -164.0597
  22   2.0000      -6.027222      -164.0091
  23   2.0000      -6.025069      -163.9505
  24   2.0000      -1.002912       -27.2906
  25   2.0000      -0.977197       -26.5909
  26   2.0000      -0.918924       -25.0052
  27   2.0000      -0.915149       -24.9025
  28   2.0000      -0.879028       -23.9196
  29   2.0000      -0.850926       -23.1549
  30   2.0000      -0.844966       -22.9927
  31   2.0000      -0.819957       -22.3122
  32   2.0000      -0.782052       -21.2807
  33   2.0000      -0.770134       -20.9564
  34   2.0000      -0.714550       -19.4439
  35   2.0000      -0.697516       -18.9804
  36   2.0000      -0.696967       -18.9654
  37   2.0000      -0.661048       -17.9880
  38   2.0000      -0.646273       -17.5860
  39   2.0000      -0.624491       -16.9933
  40   2.0000      -0.592207       -16.1148
  41   2.0000      -0.577050       -15.7023
  42   2.0000      -0.570245       -15.5172
  43   2.0000      -0.564662       -15.3652
  44   2.0000      -0.538056       -14.6412
  45   2.0000      -0.526119       -14.3164
  46   2.0000      -0.519881       -14.1467
  47   2.0000      -0.515586       -14.0298
  48   2.0000      -0.507802       -13.8180
  49   2.0000      -0.500230       -13.6119
  50   2.0000      -0.494655       -13.4602
  51   2.0000      -0.485755       -13.2181
  52   2.0000      -0.469409       -12.7733
  53   2.0000      -0.458539       -12.4775
  54   2.0000      -0.454357       -12.3637
  55   2.0000      -0.446489       -12.1496
  56   2.0000      -0.444903       -12.1064
  57   2.0000      -0.433001       -11.7826
  58   2.0000      -0.426794       -11.6137
  59   2.0000      -0.423575       -11.5261
  60   2.0000      -0.419271       -11.4089
  61   2.0000      -0.414901       -11.2900
  62   2.0000      -0.411596       -11.2001
  63   2.0000      -0.347344        -9.4517
  64   2.0000      -0.328523        -8.9396
  65   2.0000      -0.325420        -8.8551
  66   2.0000      -0.296644        -8.0721
  67   0.0000       0.025291         0.6882
  68   0.0000       0.072200         1.9647
  69   0.0000       0.109552         2.9811
  70   0.0000       0.116579         3.1723
  71   0.0000       0.128368         3.4931

MULLIKEN ATOMIC CHARGES
-----------------------
   0 S :    0.084193
   1 C :   -0.108950
   2 C :   -0.058618
   3 C :    0.071547
   4 C :   -0.161793
   5 H :   -0.020164
   6 C :    0.048617
   7 H :    0.030760
   8 H :    0.004214
   9 C :   -0.041054
  10 H :    0.023251
  11 H :    0.022148
  12 C :   -0.050059
  13 H :    0.042445
  14 H :    0.019796
  15 H :    0.024244
  16 S :    0.105532
  17 C :   -0.098494
  18 C :   -0.050800
  19 C :   -0.030615
  20 C :   -0.137551
  21 H :    0.026450
  22 C :    0.084263
  23 H :    0.023691
  24 H :   -0.016266
  25 C :   -0.029113
  26 H :    0.038876
  27 H :    0.040668
  28 C :   -0.053177
  29 H :    0.033074
  30 H :    0.005214
  31 H :    0.031160
  32 H :    0.032461
  33 H :    0.064048
Sum of atomic charges:    0.0000000

LOEWDIN ATOMIC CHARGES
----------------------
   0 S :    0.363928
   1 C :   -0.161188
   2 C :   -0.059169
   3 C :   -0.046534
   4 C :   -0.179715
   5 H :    0.019453
   6 C :   -0.036313
   7 H :    0.034450
   8 H :    0.026610
   9 C :   -0.038093
  10 H :    0.021797
  11 H :    0.025364
  12 C :   -0.066301
  13 H :    0.036005
  14 H :    0.019669
  15 H :    0.021408
  16 S :    0.393312
  17 C :   -0.184871
  18 C :   -0.082447
  19 C :   -0.044623
  20 C :   -0.198227
  21 H :    0.034057
  22 C :   -0.033358
  23 H :    0.033170
  24 H :    0.021323
  25 C :   -0.036597
  26 H :    0.029692
  27 H :    0.031460
  28 C :   -0.074203
  29 H :    0.032831
  30 H :    0.018877
  31 H :    0.024118
  32 H :    0.014246
  33 H :    0.039868

  Mayer bond orders larger than 0.100000
B(  0-S ,  1-C ) :   1.1281 B(  0-S ,  4-C ) :   1.1225 B(  1-C ,  2-C ) :   1.6069
B(  1-C , 32-H ) :   0.9865 B(  2-C ,  3-C ) :   1.2260 B(  2-C ,  6-C ) :   1.0226
B(  3-C ,  4-C ) :   1.5885 B(  3-C ,  5-H ) :   1.0060 B(  4-C , 20-C ) :   1.0825
B(  6-C ,  7-H ) :   0.9435 B(  6-C ,  8-H ) :   0.9367 B(  6-C ,  9-C ) :   1.0685
B(  9-C , 10-H ) :   0.9608 B(  9-C , 11-H ) :   0.9530 B(  9-C , 12-C ) :   1.0808
B( 12-C , 13-H ) :   0.9752 B( 12-C , 14-H ) :   0.9755 B( 12-C , 15-H ) :   0.9720
B( 16-S , 17-C ) :   1.1337 B( 16-S , 20-C ) :   1.1209 B( 17-C , 18-C ) :   1.6730
B( 17-C , 33-H ) :   0.9588 B( 18-C , 19-C ) :   1.2050 B( 18-C , 21-H ) :   0.9793
B( 19-C , 20-C ) :   1.6123 B( 19-C , 22-C ) :   1.0339 B( 22-C , 23-H ) :   0.9225
B( 22-C , 24-H ) :   0.9263 B( 22-C , 25-C ) :   1.0676 B( 25-C , 26-H ) :   0.9554
B( 25-C , 27-H ) :   0.9479 B( 25-C , 28-C ) :   1.0903 B( 28-C , 29-H ) :   0.9698
B( 28-C , 30-H ) :   0.9660 B( 28-C , 31-H ) :   0.9745

Dispersion correction           -0.013745748
FINAL SINGLE POINT ENERGY     -1339.864331155595

DIPOLE MOMENT
-------------
                                X             Y             Z
Electronic contribution:    -23.04066      20.15182       0.87624
Nuclear contribution   :     23.37835     -20.79924      -0.94948
                        -----------------------------------------
Total Dipole Moment    :      0.33769      -0.64742      -0.07324
                        -----------------------------------------
Magnitude (a.u.)       :      0.73386
Magnitude (Debye)      :      1.86532

Rotational constants in cm-1:     0.018289     0.008378     0.006437
Rotational constants in MHz :   548.304175   251.166157   192.977966

                             ****ORCA TERMINATED NORMALLY****
TOTAL RUN TIME: 0 days 0 hours 0 minutes 34 seconds 119 msec
