                         Program Version 4.2.1 -  RELEASE  -
|  1> ! wB97X-D3 SP def2-SVP
|  2> %pal
|  3> nprocs 16
|  4> end
|  5>
|  6> * xyz 0 1
|  7> S 	 8.69327 	 21.7811 	 59.214
|  8> C 	 9.08776 	 23.1644 	 58.2199
|  9> C 	 8.12243 	 23.3657 	 57.2793
| 10> C 	 7.00381 	 22.5397 	 57.4978
| 11> C 	 7.05481 	 21.6801 	 58.59
| 12> H 	 6.11184 	 22.5575 	 56.925
| 13> C 	 8.07994 	 24.3935 	 56.2359
| 14> H 	 7.39758 	 25.2139 	 56.5114
| 15> H 	 7.78354 	 23.8673 	 55.3721
| 16> C 	 9.29079 	 25.1907 	 55.8176
| 17> H 	 8.82063 	 25.9288 	 55.1907
| 18> H 	 9.65273 	 25.8425 	 56.605
| 19> C 	 10.3676 	 24.2907 	 55.1617
| 20> H 	 10.8747 	 23.6002 	 55.8063
| 21> H 	 9.88757 	 23.6992 	 54.3871
| 22> H 	 11.0763 	 24.95 	 54.7028
| 23> S 	 6.66891 	 19.2123 	 59.7775
| 24> C 	 5.06887 	 18.5415 	 59.7304
| 25> C 	 4.21897 	 19.3265 	 58.9808
| 26> C 	 4.72637 	 20.606 	 58.6538
| 27> C 	 6.08695 	 20.6752 	 58.9219
| 28> H 	 3.27745 	 18.8016 	 58.953
| 29> C 	 3.83716 	 21.6501 	 58.1045
| 30> H 	 3.77203 	 21.5966 	 57.0137
| 31> H 	 4.34379 	 22.6262 	 58.3791
| 32> C 	 2.37399 	 21.6824 	 58.6744
| 33> H 	 1.91298 	 20.648 	 58.6373
| 34> H 	 1.67613 	 22.3595 	 58.1079
| 35> C 	 2.28402 	 22.1768 	 60.1341
| 36> H 	 2.99434 	 21.5225 	 60.7531
| 37> H 	 1.24395 	 22.0072 	 60.4934
| 38> H 	 2.53972 	 23.2747 	 60.3237
| 39> H 	 10.1082 	 23.5765 	 58.0695
| 40> H 	 4.77135 	 17.6081 	 60.2616
| 41> *
| 42>
| 43>                          ****END OF INPUT****

CARTESIAN COORDINATES (ANGSTROEM)
---------------------------------
  S      8.693270   21.781100   59.214000
  C      9.087760   23.164400   58.219900
  C      8.122430   23.365700   57.279300
  C      7.003810   22.539700   57.497800
  C      7.054810   21.680100   58.590000
  H      6.111840   22.557500   56.925000
  C      8.079940   24.393500   56.235900
  H      7.397580   25.213900   56.511400
  H      7.783540   23.867300   55.372100
  C      9.290790   25.190700   55.817600
  H      8.820630   25.928800   55.190700
  H      9.652730   25.842500   56.605000
  C     10.367600   24.290700   55.161700
  H     10.874700   23.600200   55.806300
  H      9.887570   23.699200   54.387100
  H     11.076300   24.950000   54.702800
  S      6.668910   19.212300   59.777500
  C      5.068870   18.541500   59.730400
  C      4.218970   19.326500   58.980800
  C      4.726370   20.606000   58.653800
  C      6.086950   20.675200   58.921900
  H      3.277450   18.801600   58.953000
  C      3.837160   21.650100   58.104500
  H      3.772030   21.596600   57.013700
  H      4.343790   22.626200   58.379100
  C      2.373990   21.682400   58.674400
  H      1.912980   20.648000   58.637300
  H      1.676130   22.359500   58.107900
  C      2.284020   22.176800   60.134100
  H      2.994340   21.522500   60.753100
  H      1.243950   22.007200   60.493400
  H      2.539720   23.274700   60.323700
  H     10.108200   23.576500   58.069500
  H      4.771350   17.608100   60.261600

 Total Charge           Charge          ....    0
 Multiplicity           Mult            ....    1
 Number of Electrons    NEL             ....  134
 Basis Dimension        Dim             ....  322

ORBITAL ENERGIES
----------------

  NO   OCC          E(Eh)            E(eV)
   0   2.0000     -88.965065     -2420.8625
   1   2.0000     -88.963466     -2420.8190
   2   2.0000     -10.331357      -281.1305
   3   2.0000     -10.328995      -281.0663
   4   2.0000     -10.318728      -280.7869
   5   2.0000     -10.311977      -280.6032
   6   2.0000     -10.306921      -280.4656
   7   2.0000     -10.299956      -280.2760
   8   2.0000     -10.299325      -280.2589
   9   2.0000     -10.292125      -280.0630
  10   2.0000     -10.291759      -280.0530
  11   2.0000     -10.288129      -279.9542
  12   2.0000     -10.285988      -279.8960
  13   2.0000     -10.284860      -279.8653
  14   2.0000     -10.282876      -279.8113
  15   2.0000     -10.277357      -279.6611
  16   2.0000      -8.079708      -219.8600
  17   2.0000      -8.078126      -219.8170
  18   2.0000      -6.038207      -164.3080
  19   2.0000      -6.036784      -164.2692
  20   2.0000      -6.034344      -164.2028
  21   2.0000      -6.032696      -164.1580
  22   2.0000      -6.030373      -164.0948
  23   2.0000      -6.028675      -164.0486
  24   2.0000      -1.009872       -27.4800
  25   2.0000      -0.988208       -26.8905
  26   2.0000      -0.922182       -25.0938
  27   2.0000      -0.907586       -24.6967
  28   2.0000      -0.873592       -23.7717
  29   2.0000      -0.853299       -23.2194
  30   2.0000      -0.843741       -22.9594
  31   2.0000      -0.812632       -22.1128
  32   2.0000      -0.788358       -21.4523
  33   2.0000      -0.775403       -21.0998
  34   2.0000      -0.714655       -19.4468
  35   2.0000      -0.708249       -19.2724
  36   2.0000      -0.690796       -18.7975
  37   2.0000      -0.655020       -17.8240
  38   2.0000      -0.631712       -17.1898
  39   2.0000      -0.616741       -16.7824
  40   2.0000      -0.594723       -16.1832
  41   2.0000      -0.579394       -15.7661
  42   2.0000      -0.564673       -15.3655
  43   2.0000      -0.554932       -15.1005
  44   2.0000      -0.541809       -14.7434
  45   2.0000      -0.527665       -14.3585
  46   2.0000      -0.519161       -14.1271
  47   2.0000      -0.514991       -14.0136
  48   2.0000      -0.503551       -13.7023
  49   2.0000      -0.498621       -13.5682
  50   2.0000      -0.497353       -13.5337
  51   2.0000      -0.481621       -13.1056
  52   2.0000      -0.472565       -12.8592
  53   2.0000      -0.464438       -12.6380
  54   2.0000      -0.460674       -12.5356
  55   2.0000      -0.446008       -12.1365
  56   2.0000      -0.442252       -12.0343
  57   2.0000      -0.438593       -11.9347
  58   2.0000      -0.430328       -11.7098
  59   2.0000      -0.420786       -11.4502
  60   2.0000      -0.418290       -11.3823
  61   2.0000      -0.413942       -11.2639
  62   2.0000      -0.408702       -11.1213
  63   2.0000      -0.361242        -9.8299
  64   2.0000      -0.333764        -9.0822
  65   2.0000      -0.325830        -8.8663
  66   2.0000      -0.280953        -7.6451
  67   0.0000       0.016164         0.4398
  68   0.0000       0.087716         2.3869
  69   0.0000       0.097724         2.6592
  70   0.0000       0.121340         3.3018
  71   0.0000       0.135337         3.6827

MULLIKEN ATOMIC CHARGES
-----------------------
   0 S :    0.091025
   1 C :   -0.122615
   2 C :   -0.062790
   3 C :   -0.013757
   4 C :   -0.110112
   5 H :   -0.013553
   6 C :    0.039110
   7 H :    0.045854
   8 H :    0.017840
   9 C :   -0.066350
  10 H :    0.018388
  11 H :    0.020541
  12 C :   -0.024640
  13 H :    0.035104
  14 H :    0.024596
  15 H :    0.031870
  16 S :    0.098510
  17 C :   -0.130212
  18 C :   -0.041365
  19 C :   -0.039420
  20 C :   -0.118485
  21 H :    0.019892
  22 C :    0.041556
  23 H :    0.056598
  24 H :    0.043187
  25 C :   -0.097961
  26 H :    0.042446
  27 H :    0.038518
  28 C :   -0.105565
  29 H :    0.051031
  30 H :    0.041122
  31 H :    0.050589
  32 H :    0.063879
  33 H :    0.075168
Sum of atomic charges:    0.0000000

LOEWDIN ATOMIC CHARGES
----------------------
   0 S :    0.396204
   1 C :   -0.204130
   2 C :   -0.071165
   3 C :   -0.059921
   4 C :   -0.187314
   5 H :    0.021650
   6 C :   -0.035284
   7 H :    0.041900
   8 H :    0.027804
   9 C :   -0.043579
  10 H :    0.028055
  11 H :    0.020809
  12 C :   -0.058346
  13 H :    0.022656
  14 H :    0.026825
  15 H :    0.025239
  16 S :    0.386734
  17 C :   -0.190127
  18 C :   -0.078243
  19 C :   -0.060172
  20 C :   -0.175302
  21 H :    0.034848
  22 C :   -0.040958
  23 H :    0.035579
  24 H :    0.040699
  25 C :   -0.048630
  26 H :    0.028576
  27 H :    0.029151
  28 C :   -0.081674
  29 H :    0.032565
  30 H :    0.027914
  31 H :    0.031466
  32 H :    0.037370
  33 H :    0.038799

  Mayer bond orders larger than 0.100000
B(  0-S ,  1-C ) :   1.1283 B(  0-S ,  4-C ) :   1.1357 B(  1-C ,  2-C ) :   1.6062
B(  1-C , 32-H ) :   0.9509 B(  2-C ,  3-C ) :   1.2674 B(  2-C ,  6-C ) :   1.0179
B(  3-C ,  4-C ) :   1.5293 B(  3-C ,  5-H ) :   1.0018 B(  4-C , 20-C ) :   1.1264
B(  6-C ,  7-H ) :   0.9396 B(  6-C ,  8-H ) :   0.9335 B(  6-C ,  9-C ) :   1.0999
B(  9-C , 10-H ) :   0.9502 B(  9-C , 11-H ) :   0.9444 B(  9-C , 12-C ) :   1.0654
B( 12-C , 13-H ) :   0.9776 B( 12-C , 14-H ) :   0.9740 B( 12-C , 15-H ) :   0.9754
B( 16-S , 17-C ) :   1.1508 B( 16-S , 20-C ) :   1.1230 B( 17-C , 18-C ) :   1.6366
B( 17-C , 33-H ) :   0.9604 B( 18-C , 19-C ) :   1.1974 B( 18-C , 21-H ) :   0.9899
B( 19-C , 20-C ) :   1.5826 B( 19-C , 22-C ) :   1.0491 B( 22-C , 23-H ) :   0.9241
B( 22-C , 24-H ) :   0.9321 B( 22-C , 25-C ) :   1.0585 B( 25-C , 26-H ) :   0.9510
B( 25-C , 27-H ) :   0.9560 B( 25-C , 28-C ) :   1.0752 B( 28-C , 29-H ) :   0.9749
B( 28-C , 30-H ) :   0.9741 B( 28-C , 31-H ) :   0.9726

Dispersion correction           -0.014028546
FINAL SINGLE POINT ENERGY     -1339.865846446501

DIPOLE MOMENT
-------------
                                X             Y             Z
Electronic contribution:      9.56887     -17.14308      12.54137
Nuclear contribution   :    -10.03703      17.43694     -13.06834
                        -----------------------------------------
Total Dipole Moment    :     -0.46817       0.29385      -0.52697
                        -----------------------------------------
Magnitude (a.u.)       :      0.76369
Magnitude (Debye)      :      1.94115

Rotational constants in cm-1:     0.022606     0.007613     0.006203
Rotational constants in MHz :   677.724282   228.225958   185.957832

                             ****ORCA TERMINATED NORMALLY****
TOTAL RUN TIME: 0 days 0 hours 0 minutes 34 seconds 384 msec
