                         Program Version 4.2.1 -  RELEASE  -
|  1> ! wB97X-D3 SP def2-SVP
|  2> %pal
|  3> nprocs 16
|  4> end
|  5>
|  6> * xyz 0 1
|  7> S 	 -22.0083 	 -5.49182 	 86.0863
|  8> C 	 -23.264 	 -6.39547 	 85.2631
|  9> C 	 -22.7752 	 -7.59916 	 84.7907
| 10> C 	 -21.4183 	 -7.87704 	 85.1534
| 11> C 	 -20.8797 	 -6.80759 	 85.8997
| 12> H 	 -20.9396 	 -8.76189 	 84.9798
| 13> C 	 -23.6539 	 -8.49397 	 83.8062
| 14> H 	 -23.1039 	 -9.32093 	 83.3173
| 15> H 	 -24.1383 	 -8.01175 	 82.9355
| 16> C 	 -24.8937 	 -9.19266 	 84.5426
| 17> H 	 -25.402 	 -8.43289 	 85.0937
| 18> H 	 -25.558 	 -9.64762 	 83.8148
| 19> C 	 -24.3924 	 -10.2524 	 85.4427
| 20> H 	 -23.948 	 -10.9793 	 84.7179
| 21> H 	 -23.8027 	 -9.87789 	 86.2097
| 22> H 	 -25.2792 	 -10.6741 	 85.9446
| 23> S 	 -19.5733 	 -7.10029 	 88.2754
| 24> C 	 -17.988 	 -6.33761 	 88.5132
| 25> C 	 -17.4886 	 -5.81677 	 87.3439
| 26> C 	 -18.4147 	 -5.99233 	 86.2522
| 27> C 	 -19.6014 	 -6.66005 	 86.5714
| 28> H 	 -16.4868 	 -5.42917 	 87.2853
| 29> C 	 -18.3054 	 -5.31385 	 84.9062
| 30> H 	 -19.1896 	 -4.70753 	 84.8049
| 31> H 	 -18.3993 	 -6.17123 	 84.2656
| 32> C 	 -16.9643 	 -4.59317 	 84.6657
| 33> H 	 -16.1302 	 -5.20103 	 85.0049
| 34> H 	 -16.9236 	 -3.62525 	 85.1966
| 35> C 	 -16.7876 	 -4.15858 	 83.1625
| 36> H 	 -17.6696 	 -3.77996 	 82.6616
| 37> H 	 -16.4865 	 -5.04496 	 82.648
| 38> H 	 -15.9956 	 -3.43811 	 83.1
| 39> H 	 -24.2422 	 -5.95386 	 84.9921
| 40> H 	 -17.5545 	 -6.32985 	 89.4936
| 41> *
| 42>
| 43>                          ****END OF INPUT****

CARTESIAN COORDINATES (ANGSTROEM)
---------------------------------
  S    -22.008300   -5.491820   86.086300
  C    -23.264000   -6.395470   85.263100
  C    -22.775200   -7.599160   84.790700
  C    -21.418300   -7.877040   85.153400
  C    -20.879700   -6.807590   85.899700
  H    -20.939600   -8.761890   84.979800
  C    -23.653900   -8.493970   83.806200
  H    -23.103900   -9.320930   83.317300
  H    -24.138300   -8.011750   82.935500
  C    -24.893700   -9.192660   84.542600
  H    -25.402000   -8.432890   85.093700
  H    -25.558000   -9.647620   83.814800
  C    -24.392400  -10.252400   85.442700
  H    -23.948000  -10.979300   84.717900
  H    -23.802700   -9.877890   86.209700
  H    -25.279200  -10.674100   85.944600
  S    -19.573300   -7.100290   88.275400
  C    -17.988000   -6.337610   88.513200
  C    -17.488600   -5.816770   87.343900
  C    -18.414700   -5.992330   86.252200
  C    -19.601400   -6.660050   86.571400
  H    -16.486800   -5.429170   87.285300
  C    -18.305400   -5.313850   84.906200
  H    -19.189600   -4.707530   84.804900
  H    -18.399300   -6.171230   84.265600
  C    -16.964300   -4.593170   84.665700
  H    -16.130200   -5.201030   85.004900
  H    -16.923600   -3.625250   85.196600
  C    -16.787600   -4.158580   83.162500
  H    -17.669600   -3.779960   82.661600
  H    -16.486500   -5.044960   82.648000
  H    -15.995600   -3.438110   83.100000
  H    -24.242200   -5.953860   84.992100
  H    -17.554500   -6.329850   89.493600

 Total Charge           Charge          ....    0
 Multiplicity           Mult            ....    1
 Number of Electrons    NEL             ....  134
 Basis Dimension        Dim             ....  322

ORBITAL ENERGIES
----------------

  NO   OCC          E(Eh)            E(eV)
   0   2.0000     -88.969419     -2420.9810
   1   2.0000     -88.959493     -2420.7109
   2   2.0000     -10.333779      -281.1964
   3   2.0000     -10.320469      -280.8342
   4   2.0000     -10.319292      -280.8022
   5   2.0000     -10.318207      -280.7727
   6   2.0000     -10.310063      -280.5511
   7   2.0000     -10.303927      -280.3841
   8   2.0000     -10.300262      -280.2844
   9   2.0000     -10.297928      -280.2209
  10   2.0000     -10.295605      -280.1576
  11   2.0000     -10.290160      -280.0095
  12   2.0000     -10.284611      -279.8585
  13   2.0000     -10.278699      -279.6976
  14   2.0000     -10.273539      -279.5572
  15   2.0000     -10.267294      -279.3873
  16   2.0000      -8.084001      -219.9769
  17   2.0000      -8.074049      -219.7060
  18   2.0000      -6.042413      -164.4224
  19   2.0000      -6.038412      -164.3135
  20   2.0000      -6.034980      -164.2201
  21   2.0000      -6.032539      -164.1537
  22   2.0000      -6.028524      -164.0445
  23   2.0000      -6.024897      -163.9458
  24   2.0000      -1.004389       -27.3308
  25   2.0000      -0.979713       -26.6594
  26   2.0000      -0.907163       -24.6852
  27   2.0000      -0.904541       -24.6138
  28   2.0000      -0.870571       -23.6894
  29   2.0000      -0.848845       -23.0982
  30   2.0000      -0.844624       -22.9834
  31   2.0000      -0.814818       -22.1723
  32   2.0000      -0.779062       -21.1994
  33   2.0000      -0.765573       -20.8323
  34   2.0000      -0.707994       -19.2655
  35   2.0000      -0.699052       -19.0222
  36   2.0000      -0.689793       -18.7702
  37   2.0000      -0.650160       -17.6917
  38   2.0000      -0.647509       -17.6196
  39   2.0000      -0.616263       -16.7694
  40   2.0000      -0.594735       -16.1836
  41   2.0000      -0.580283       -15.7903
  42   2.0000      -0.570257       -15.5175
  43   2.0000      -0.552809       -15.0427
  44   2.0000      -0.540344       -14.7035
  45   2.0000      -0.530307       -14.4304
  46   2.0000      -0.512932       -13.9576
  47   2.0000      -0.511285       -13.9128
  48   2.0000      -0.507246       -13.8029
  49   2.0000      -0.492966       -13.4143
  50   2.0000      -0.487545       -13.2668
  51   2.0000      -0.476476       -12.9656
  52   2.0000      -0.471695       -12.8355
  53   2.0000      -0.466605       -12.6970
  54   2.0000      -0.455921       -12.4062
  55   2.0000      -0.450498       -12.2587
  56   2.0000      -0.443746       -12.0749
  57   2.0000      -0.437079       -11.8935
  58   2.0000      -0.430065       -11.7027
  59   2.0000      -0.423912       -11.5352
  60   2.0000      -0.422373       -11.4934
  61   2.0000      -0.410325       -11.1655
  62   2.0000      -0.405584       -11.0365
  63   2.0000      -0.338500        -9.2111
  64   2.0000      -0.330014        -8.9801
  65   2.0000      -0.314634        -8.5616
  66   2.0000      -0.309778        -8.4295
  67   0.0000       0.041987         1.1425
  68   0.0000       0.047042         1.2801
  69   0.0000       0.109949         2.9919
  70   0.0000       0.123774         3.3681
  71   0.0000       0.129572         3.5258

MULLIKEN ATOMIC CHARGES
-----------------------
   0 S :    0.131219
   1 C :   -0.134551
   2 C :   -0.072025
   3 C :    0.110962
   4 C :   -0.200669
   5 H :   -0.020921
   6 C :    0.011925
   7 H :    0.018202
   8 H :    0.039969
   9 C :   -0.082809
  10 H :    0.017458
  11 H :    0.026457
  12 C :   -0.024039
  13 H :    0.030649
  14 H :    0.030481
  15 H :    0.028357
  16 S :    0.095520
  17 C :   -0.087876
  18 C :   -0.025676
  19 C :   -0.072518
  20 C :   -0.165212
  21 H :    0.023491
  22 C :    0.116080
  23 H :    0.033638
  24 H :    0.025132
  25 C :   -0.116927
  26 H :    0.037377
  27 H :    0.036447
  28 C :   -0.018848
  29 H :    0.035694
  30 H :    0.023426
  31 H :    0.026045
  32 H :    0.067053
  33 H :    0.056488
Sum of atomic charges:    0.0000000

LOEWDIN ATOMIC CHARGES
----------------------
   0 S :    0.422861
   1 C :   -0.200846
   2 C :   -0.062112
   3 C :   -0.041510
   4 C :   -0.197070
   5 H :    0.019300
   6 C :   -0.035090
   7 H :    0.024660
   8 H :    0.031463
   9 C :   -0.037457
  10 H :    0.013334
  11 H :    0.020886
  12 C :   -0.061176
  13 H :    0.030390
  14 H :    0.016196
  15 H :    0.027931
  16 S :    0.391115
  17 C :   -0.162151
  18 C :   -0.078524
  19 C :   -0.047711
  20 C :   -0.221010
  21 H :    0.033370
  22 C :   -0.031842
  23 H :    0.030643
  24 H :    0.034598
  25 C :   -0.040313
  26 H :    0.023401
  27 H :    0.026312
  28 C :   -0.058077
  29 H :    0.025942
  30 H :    0.020682
  31 H :    0.021859
  32 H :    0.035275
  33 H :    0.024670

  Mayer bond orders larger than 0.100000
B(  0-S ,  1-C ) :   1.1460 B(  0-S ,  4-C ) :   1.1779 B(  1-C ,  2-C ) :   1.6061
B(  1-C ,  4-C ) :   0.1021 B(  1-C , 32-H ) :   0.9629 B(  2-C ,  3-C ) :   1.2493
B(  2-C ,  6-C ) :   0.9963 B(  3-C ,  4-C ) :   1.5531 B(  3-C ,  5-H ) :   1.0125
B(  4-C , 20-C ) :   1.0103 B(  6-C ,  7-H ) :   0.9542 B(  6-C ,  8-H ) :   0.9564
B(  6-C ,  9-C ) :   1.0624 B(  9-C , 10-H ) :   0.9573 B(  9-C , 11-H ) :   0.9594
B(  9-C , 12-C ) :   1.0830 B( 12-C , 13-H ) :   0.9756 B( 12-C , 14-H ) :   0.9760
B( 12-C , 15-H ) :   0.9698 B( 16-S , 17-C ) :   1.1704 B( 16-S , 20-C ) :   1.1363
B( 17-C , 18-C ) :   1.5872 B( 17-C , 33-H ) :   0.9682 B( 18-C , 19-C ) :   1.2397
B( 18-C , 21-H ) :   0.9935 B( 19-C , 20-C ) :   1.6075 B( 19-C , 22-C ) :   1.0175
B( 22-C , 23-H ) :   0.9261 B( 22-C , 24-H ) :   0.9269 B( 22-C , 25-C ) :   1.0863
B( 25-C , 26-H ) :   0.9548 B( 25-C , 27-H ) :   0.9539 B( 25-C , 28-C ) :   1.0756
B( 28-C , 29-H ) :   0.9768 B( 28-C , 30-H ) :   0.9779 B( 28-C , 31-H ) :   0.9762

Dispersion correction           -0.013879000
FINAL SINGLE POINT ENERGY     -1339.867384681470

DIPOLE MOMENT
-------------
                                X             Y             Z
Electronic contribution:      0.90890       4.61447      17.29321
Nuclear contribution   :     -0.82767      -4.56641     -17.69635
                        -----------------------------------------
Total Dipole Moment    :      0.08123       0.04805      -0.40314
                        -----------------------------------------
Magnitude (a.u.)       :      0.41404
Magnitude (Debye)      :      1.05241

Rotational constants in cm-1:     0.021512     0.007404     0.006271
Rotational constants in MHz :   644.900577   221.980617   188.006038

                             ****ORCA TERMINATED NORMALLY****
TOTAL RUN TIME: 0 days 0 hours 0 minutes 31 seconds 978 msec
