                         Program Version 4.2.1 -  RELEASE  -
|  1> ! wB97X-D3 SP def2-SVP
|  2> %pal
|  3> nprocs 16
|  4> end
|  5>
|  6> * xyz 0 1
|  7> S 	 -104.523 	 46.3339 	 121.433
|  8> C 	 -104.515 	 47.5418 	 122.708
|  9> C 	 -103.348 	 47.4436 	 123.462
| 10> C 	 -102.754 	 46.1624 	 123.291
| 11> C 	 -103.184 	 45.475 	 122.2
| 12> H 	 -101.917 	 45.8146 	 123.847
| 13> C 	 -102.891 	 48.4093 	 124.522
| 14> H 	 -102.706 	 47.737 	 125.412
| 15> H 	 -103.745 	 48.9507 	 124.91
| 16> C 	 -101.647 	 49.2173 	 124.225
| 17> H 	 -101.333 	 49.8248 	 125.112
| 18> H 	 -100.784 	 48.6063 	 123.929
| 19> C 	 -101.985 	 50.1938 	 123.105
| 20> H 	 -101.294 	 51.0439 	 123.001
| 21> H 	 -102.093 	 49.6751 	 122.141
| 22> H 	 -102.925 	 50.6958 	 123.319
| 23> S 	 -103.538 	 42.8814 	 121.517
| 24> C 	 -102.238 	 42.0321 	 120.753
| 25> C 	 -101.163 	 42.884 	 120.498
| 26> C 	 -101.335 	 44.1861 	 121.055
| 27> C 	 -102.622 	 44.3633 	 121.536
| 28> H 	 -100.242 	 42.472 	 120.048
| 29> C 	 -100.237 	 45.16 	 121.17
| 30> H 	 -100.603 	 46.1821 	 121.379
| 31> H 	 -99.8121 	 45.3234 	 120.143
| 32> C 	 -99.2777 	 44.7999 	 122.336
| 33> H 	 -98.6667 	 43.8868 	 122.015
| 34> H 	 -99.8789 	 44.4929 	 123.223
| 35> C 	 -98.1339 	 45.8459 	 122.576
| 36> H 	 -98.4781 	 46.7328 	 123.141
| 37> H 	 -97.6598 	 46.1972 	 121.668
| 38> H 	 -97.3436 	 45.291 	 123.048
| 39> H 	 -105.227 	 48.3839 	 122.678
| 40> H 	 -102.209 	 41.0596 	 120.316
| 41> *
| 42>
| 43>                          ****END OF INPUT****

CARTESIAN COORDINATES (ANGSTROEM)
---------------------------------
  S    -104.523000   46.333900  121.433000
  C    -104.515000   47.541800  122.708000
  C    -103.348000   47.443600  123.462000
  C    -102.754000   46.162400  123.291000
  C    -103.184000   45.475000  122.200000
  H    -101.917000   45.814600  123.847000
  C    -102.891000   48.409300  124.522000
  H    -102.706000   47.737000  125.412000
  H    -103.745000   48.950700  124.910000
  C    -101.647000   49.217300  124.225000
  H    -101.333000   49.824800  125.112000
  H    -100.784000   48.606300  123.929000
  C    -101.985000   50.193800  123.105000
  H    -101.294000   51.043900  123.001000
  H    -102.093000   49.675100  122.141000
  H    -102.925000   50.695800  123.319000
  S    -103.538000   42.881400  121.517000
  C    -102.238000   42.032100  120.753000
  C    -101.163000   42.884000  120.498000
  C    -101.335000   44.186100  121.055000
  C    -102.622000   44.363300  121.536000
  H    -100.242000   42.472000  120.048000
  C    -100.237000   45.160000  121.170000
  H    -100.603000   46.182100  121.379000
  H    -99.812100   45.323400  120.143000
  C    -99.277700   44.799900  122.336000
  H    -98.666700   43.886800  122.015000
  H    -99.878900   44.492900  123.223000
  C    -98.133900   45.845900  122.576000
  H    -98.478100   46.732800  123.141000
  H    -97.659800   46.197200  121.668000
  H    -97.343600   45.291000  123.048000
  H    -105.227000   48.383900  122.678000
  H    -102.209000   41.059600  120.316000

 Total Charge           Charge          ....    0
 Multiplicity           Mult            ....    1
 Number of Electrons    NEL             ....  134
 Basis Dimension        Dim             ....  322

ORBITAL ENERGIES
----------------

  NO   OCC          E(Eh)            E(eV)
   0   2.0000     -88.966283     -2420.8956
   1   2.0000     -88.960301     -2420.7329
   2   2.0000     -10.321156      -280.8529
   3   2.0000     -10.318013      -280.7674
   4   2.0000     -10.316426      -280.7242
   5   2.0000     -10.314612      -280.6748
   6   2.0000     -10.301520      -280.3186
   7   2.0000     -10.300808      -280.2992
   8   2.0000     -10.300295      -280.2853
   9   2.0000     -10.294110      -280.1170
  10   2.0000     -10.293375      -280.0970
  11   2.0000     -10.292537      -280.0742
  12   2.0000     -10.292487      -280.0728
  13   2.0000     -10.289186      -279.9830
  14   2.0000     -10.282709      -279.8067
  15   2.0000     -10.274788      -279.5912
  16   2.0000      -8.081318      -219.9038
  17   2.0000      -8.075163      -219.7364
  18   2.0000      -6.039824      -164.3520
  19   2.0000      -6.035695      -164.2396
  20   2.0000      -6.033587      -164.1823
  21   2.0000      -6.032140      -164.1429
  22   2.0000      -6.029704      -164.0766
  23   2.0000      -6.025948      -163.9744
  24   2.0000      -1.010677       -27.5019
  25   2.0000      -0.984901       -26.8005
  26   2.0000      -0.916028       -24.9264
  27   2.0000      -0.908136       -24.7116
  28   2.0000      -0.871749       -23.7215
  29   2.0000      -0.851305       -23.1652
  30   2.0000      -0.845998       -23.0208
  31   2.0000      -0.813190       -22.1280
  32   2.0000      -0.783225       -21.3126
  33   2.0000      -0.769556       -20.9407
  34   2.0000      -0.709539       -19.3075
  35   2.0000      -0.697634       -18.9836
  36   2.0000      -0.693183       -18.8625
  37   2.0000      -0.659172       -17.9370
  38   2.0000      -0.644482       -17.5372
  39   2.0000      -0.623893       -16.9770
  40   2.0000      -0.595855       -16.2140
  41   2.0000      -0.569403       -15.4942
  42   2.0000      -0.560128       -15.2419
  43   2.0000      -0.549576       -14.9547
  44   2.0000      -0.540491       -14.7075
  45   2.0000      -0.526544       -14.3280
  46   2.0000      -0.517036       -14.0693
  47   2.0000      -0.513843       -13.9824
  48   2.0000      -0.512054       -13.9337
  49   2.0000      -0.497291       -13.5320
  50   2.0000      -0.487515       -13.2659
  51   2.0000      -0.474765       -12.9190
  52   2.0000      -0.471394       -12.8273
  53   2.0000      -0.461572       -12.5600
  54   2.0000      -0.460371       -12.5273
  55   2.0000      -0.450818       -12.2674
  56   2.0000      -0.442897       -12.0518
  57   2.0000      -0.439959       -11.9719
  58   2.0000      -0.434713       -11.8291
  59   2.0000      -0.424771       -11.5586
  60   2.0000      -0.421707       -11.4752
  61   2.0000      -0.414532       -11.2800
  62   2.0000      -0.406808       -11.0698
  63   2.0000      -0.337639        -9.1876
  64   2.0000      -0.327483        -8.9113
  65   2.0000      -0.326570        -8.8864
  66   2.0000      -0.299452        -8.1485
  67   0.0000       0.033944         0.9237
  68   0.0000       0.063928         1.7396
  69   0.0000       0.115054         3.1308
  70   0.0000       0.117599         3.2000
  71   0.0000       0.123955         3.3730

MULLIKEN ATOMIC CHARGES
-----------------------
   0 S :    0.100039
   1 C :   -0.121359
   2 C :   -0.110589
   3 C :    0.055987
   4 C :   -0.144185
   5 H :   -0.008616
   6 C :    0.031031
   7 H :    0.030183
   8 H :    0.023537
   9 C :   -0.047234
  10 H :    0.038538
  11 H :    0.036211
  12 C :   -0.065772
  13 H :    0.031288
  14 H :    0.049015
  15 H :    0.016005
  16 S :    0.129743
  17 C :   -0.076714
  18 C :   -0.064200
  19 C :   -0.015216
  20 C :   -0.178885
  21 H :    0.028836
  22 C :    0.059759
  23 H :    0.022740
  24 H :    0.035323
  25 C :   -0.128943
  26 H :    0.035361
  27 H :    0.051233
  28 C :   -0.026304
  29 H :    0.045449
  30 H :    0.025841
  31 H :    0.032177
  32 H :    0.060554
  33 H :    0.049167
Sum of atomic charges:   -0.0000000

LOEWDIN ATOMIC CHARGES
----------------------
   0 S :    0.392036
   1 C :   -0.193674
   2 C :   -0.064042
   3 C :   -0.055028
   4 C :   -0.190414
   5 H :    0.025029
   6 C :   -0.039996
   7 H :    0.037464
   8 H :    0.030340
   9 C :   -0.042699
  10 H :    0.031924
  11 H :    0.025783
  12 C :   -0.070400
  13 H :    0.024605
  14 H :    0.028997
  15 H :    0.021210
  16 S :    0.426704
  17 C :   -0.191798
  18 C :   -0.073802
  19 C :   -0.050950
  20 C :   -0.216912
  21 H :    0.035043
  22 C :   -0.045241
  23 H :    0.029740
  24 H :    0.037960
  25 C :   -0.041404
  26 H :    0.029921
  27 H :    0.029726
  28 C :   -0.067009
  29 H :    0.025970
  30 H :    0.026293
  31 H :    0.026732
  32 H :    0.029893
  33 H :    0.028000

  Mayer bond orders larger than 0.100000
B(  0-S ,  1-C ) :   1.1409 B(  0-S ,  4-C ) :   1.1460 B(  1-C ,  2-C ) :   1.5995
B(  1-C , 32-H ) :   0.9674 B(  2-C ,  3-C ) :   1.2278 B(  2-C ,  6-C ) :   1.0201
B(  3-C ,  4-C ) :   1.5911 B(  3-C ,  5-H ) :   1.0006 B(  4-C , 20-C ) :   1.0351
B(  6-C ,  7-H ) :   0.9389 B(  6-C ,  8-H ) :   0.9480 B(  6-C ,  9-C ) :   1.0693
B(  9-C , 10-H ) :   0.9527 B(  9-C , 11-H ) :   0.9555 B(  9-C , 12-C ) :   1.0724
B( 12-C , 13-H ) :   0.9742 B( 12-C , 14-H ) :   0.9747 B( 12-C , 15-H ) :   0.9734
B( 16-S , 17-C ) :   1.1634 B( 16-S , 20-C ) :   1.1462 B( 17-C , 18-C ) :   1.6094
B( 17-C , 20-C ) :   0.1042 B( 17-C , 33-H ) :   0.9655 B( 18-C , 19-C ) :   1.2395
B( 18-C , 21-H ) :   0.9831 B( 19-C , 20-C ) :   1.5802 B( 19-C , 22-C ) :   1.0706
B( 22-C , 23-H ) :   0.9280 B( 22-C , 24-H ) :   0.9280 B( 22-C , 25-C ) :   1.0416
B( 25-C , 26-H ) :   0.9591 B( 25-C , 27-H ) :   0.9544 B( 25-C , 28-C ) :   1.0701
B( 28-C , 29-H ) :   0.9758 B( 28-C , 30-H ) :   0.9711 B( 28-C , 31-H ) :   0.9768

Dispersion correction           -0.015552996
FINAL SINGLE POINT ENERGY     -1339.881531214498

DIPOLE MOMENT
-------------
                                X             Y             Z
Electronic contribution:    -22.60867     -18.52701      -9.31074
Nuclear contribution   :     23.32292      18.81899       9.50687
                        -----------------------------------------
Total Dipole Moment    :      0.71425       0.29198       0.19613
                        -----------------------------------------
Magnitude (a.u.)       :      0.79616
Magnitude (Debye)      :      2.02368

Rotational constants in cm-1:     0.018413     0.010225     0.007204
Rotational constants in MHz :   552.003570   306.544303   215.958394

                             ****ORCA TERMINATED NORMALLY****
TOTAL RUN TIME: 0 days 0 hours 0 minutes 33 seconds 993 msec
