                         Program Version 4.2.1 -  RELEASE  -
|  1> ! wB97X-D3 SP def2-SVP
|  2> %pal
|  3> nprocs 16
|  4> end
|  5>
|  6> * xyz 0 1
|  7> S 	 28.8525 	 0.805768 	 71.1192
|  8> C 	 28.574 	 2.21244 	 71.9648
|  9> C 	 29.2681 	 2.21909 	 73.1343
| 10> C 	 29.9922 	 1.03071 	 73.412
| 11> C 	 29.9446 	 0.21812 	 72.329
| 12> H 	 30.449 	 0.809433 	 74.3598
| 13> C 	 29.0694 	 3.27363 	 74.1971
| 14> H 	 29.3653 	 2.85257 	 75.1954
| 15> H 	 27.9732 	 3.37057 	 74.3504
| 16> C 	 29.7122 	 4.66943 	 73.8599
| 17> H 	 30.8086 	 4.58801 	 73.6729
| 18> H 	 29.2539 	 4.99405 	 72.884
| 19> C 	 29.4558 	 5.81984 	 74.8209
| 20> H 	 28.3696 	 6.02988 	 74.8425
| 21> H 	 29.8646 	 5.45232 	 75.7601
| 22> H 	 29.9724 	 6.71207 	 74.5506
| 23> S 	 29.517 	 -2.48995 	 71.6371
| 24> C 	 30.9037 	 -3.5156 	 71.5426
| 25> C 	 32.0687 	 -2.80258 	 71.6194
| 26> C 	 31.8976 	 -1.4014 	 71.9405
| 27> C 	 30.5738 	 -1.08939 	 72.1351
| 28> H 	 33.0524 	 -3.26567 	 71.4761
| 29> C 	 33.0498 	 -0.399415 	 71.9926
| 30> H 	 33.9159 	 -0.777843 	 72.6229
| 31> H 	 32.8316 	 0.382491 	 72.7143
| 32> C 	 33.5451 	 0.129774 	 70.6103
| 33> H 	 32.649 	 0.447503 	 69.9864
| 34> H 	 33.892 	 -0.726638 	 70.0305
| 35> C 	 34.6492 	 1.25329 	 70.8193
| 36> H 	 34.9106 	 1.69202 	 69.8711
| 37> H 	 35.5143 	 0.801835 	 71.1854
| 38> H 	 34.4053 	 2.05109 	 71.4749
| 39> H 	 28.0622 	 3.11742 	 71.5793
| 40> H 	 30.9285 	 -4.5362 	 71.234
| 41> *
| 42>
| 43>                          ****END OF INPUT****

CARTESIAN COORDINATES (ANGSTROEM)
---------------------------------
  S     28.852500    0.805768   71.119200
  C     28.574000    2.212440   71.964800
  C     29.268100    2.219090   73.134300
  C     29.992200    1.030710   73.412000
  C     29.944600    0.218120   72.329000
  H     30.449000    0.809433   74.359800
  C     29.069400    3.273630   74.197100
  H     29.365300    2.852570   75.195400
  H     27.973200    3.370570   74.350400
  C     29.712200    4.669430   73.859900
  H     30.808600    4.588010   73.672900
  H     29.253900    4.994050   72.884000
  C     29.455800    5.819840   74.820900
  H     28.369600    6.029880   74.842500
  H     29.864600    5.452320   75.760100
  H     29.972400    6.712070   74.550600
  S     29.517000   -2.489950   71.637100
  C     30.903700   -3.515600   71.542600
  C     32.068700   -2.802580   71.619400
  C     31.897600   -1.401400   71.940500
  C     30.573800   -1.089390   72.135100
  H     33.052400   -3.265670   71.476100
  C     33.049800   -0.399415   71.992600
  H     33.915900   -0.777843   72.622900
  H     32.831600    0.382491   72.714300
  C     33.545100    0.129774   70.610300
  H     32.649000    0.447503   69.986400
  H     33.892000   -0.726638   70.030500
  C     34.649200    1.253290   70.819300
  H     34.910600    1.692020   69.871100
  H     35.514300    0.801835   71.185400
  H     34.405300    2.051090   71.474900
  H     28.062200    3.117420   71.579300
  H     30.928500   -4.536200   71.234000

 Total Charge           Charge          ....    0
 Multiplicity           Mult            ....    1
 Number of Electrons    NEL             ....  134
 Basis Dimension        Dim             ....  322

ORBITAL ENERGIES
----------------

  NO   OCC          E(Eh)            E(eV)
   0   2.0000     -88.964904     -2420.8581
   1   2.0000     -88.963074     -2420.8083
   2   2.0000     -10.327560      -281.0272
   3   2.0000     -10.323497      -280.9166
   4   2.0000     -10.312996      -280.6309
   5   2.0000     -10.304608      -280.4026
   6   2.0000     -10.304366      -280.3960
   7   2.0000     -10.296578      -280.1841
   8   2.0000     -10.295558      -280.1564
   9   2.0000     -10.295464      -280.1538
  10   2.0000     -10.292511      -280.0735
  11   2.0000     -10.292464      -280.0722
  12   2.0000     -10.291470      -280.0451
  13   2.0000     -10.289694      -279.9968
  14   2.0000     -10.276725      -279.6439
  15   2.0000     -10.273629      -279.5596
  16   2.0000      -8.081614      -219.9119
  17   2.0000      -8.077318      -219.7950
  18   2.0000      -6.039919      -164.3545
  19   2.0000      -6.035966      -164.2470
  20   2.0000      -6.035787      -164.2421
  21   2.0000      -6.032510      -164.1529
  22   2.0000      -6.032067      -164.1409
  23   2.0000      -6.027788      -164.0244
  24   2.0000      -1.016518       -27.6609
  25   2.0000      -0.985747       -26.8236
  26   2.0000      -0.905331       -24.6353
  27   2.0000      -0.898511       -24.4497
  28   2.0000      -0.870052       -23.6753
  29   2.0000      -0.857516       -23.3342
  30   2.0000      -0.843800       -22.9610
  31   2.0000      -0.816166       -22.2090
  32   2.0000      -0.782115       -21.2824
  33   2.0000      -0.767450       -20.8834
  34   2.0000      -0.707454       -19.2508
  35   2.0000      -0.698680       -19.0120
  36   2.0000      -0.692345       -18.8397
  37   2.0000      -0.657848       -17.9009
  38   2.0000      -0.643107       -17.4998
  39   2.0000      -0.618668       -16.8348
  40   2.0000      -0.596967       -16.2443
  41   2.0000      -0.566922       -15.4267
  42   2.0000      -0.556054       -15.1310
  43   2.0000      -0.547345       -14.8940
  44   2.0000      -0.526535       -14.3277
  45   2.0000      -0.520657       -14.1678
  46   2.0000      -0.520355       -14.1596
  47   2.0000      -0.510640       -13.8952
  48   2.0000      -0.505263       -13.7489
  49   2.0000      -0.499787       -13.5999
  50   2.0000      -0.493098       -13.4179
  51   2.0000      -0.482296       -13.1240
  52   2.0000      -0.470910       -12.8141
  53   2.0000      -0.466989       -12.7074
  54   2.0000      -0.458901       -12.4873
  55   2.0000      -0.448269       -12.1980
  56   2.0000      -0.446298       -12.1444
  57   2.0000      -0.441922       -12.0253
  58   2.0000      -0.428818       -11.6687
  59   2.0000      -0.423404       -11.5214
  60   2.0000      -0.417243       -11.3538
  61   2.0000      -0.411112       -11.1869
  62   2.0000      -0.406433       -11.0596
  63   2.0000      -0.348759        -9.4902
  64   2.0000      -0.332383        -9.0446
  65   2.0000      -0.326386        -8.8814
  66   2.0000      -0.295134        -8.0310
  67   0.0000       0.037196         1.0122
  68   0.0000       0.064329         1.7505
  69   0.0000       0.113454         3.0872
  70   0.0000       0.124908         3.3989
  71   0.0000       0.132139         3.5957

MULLIKEN ATOMIC CHARGES
-----------------------
   0 S :    0.131196
   1 C :   -0.122772
   2 C :   -0.094035
   3 C :    0.042700
   4 C :   -0.149206
   5 H :    0.014199
   6 C :    0.033101
   7 H :    0.016570
   8 H :    0.034057
   9 C :   -0.115841
  10 H :    0.037102
  11 H :    0.021624
  12 C :   -0.014906
  13 H :    0.035766
  14 H :    0.027148
  15 H :    0.032345
  16 S :    0.088810
  17 C :   -0.063422
  18 C :   -0.042739
  19 C :   -0.019033
  20 C :   -0.169536
  21 H :    0.021654
  22 C :    0.049000
  23 H :    0.021576
  24 H :    0.007375
  25 C :   -0.084268
  26 H :    0.045271
  27 H :    0.028420
  28 C :   -0.000626
  29 H :    0.028685
  30 H :    0.016069
  31 H :    0.030048
  32 H :    0.063335
  33 H :    0.050333
Sum of atomic charges:    0.0000000

LOEWDIN ATOMIC CHARGES
----------------------
   0 S :    0.451254
   1 C :   -0.230518
   2 C :   -0.072824
   3 C :   -0.057032
   4 C :   -0.195088
   5 H :    0.034453
   6 C :   -0.039433
   7 H :    0.027605
   8 H :    0.033680
   9 C :   -0.047423
  10 H :    0.026418
  11 H :    0.021638
  12 C :   -0.063316
  13 H :    0.028483
  14 H :    0.024186
  15 H :    0.023571
  16 S :    0.374031
  17 C :   -0.185852
  18 C :   -0.074016
  19 C :   -0.052067
  20 C :   -0.177173
  21 H :    0.032375
  22 C :   -0.045257
  23 H :    0.034724
  24 H :    0.027015
  25 C :   -0.036476
  26 H :    0.032274
  27 H :    0.023291
  28 C :   -0.054251
  29 H :    0.026797
  30 H :    0.018416
  31 H :    0.023410
  32 H :    0.038499
  33 H :    0.028607

  Mayer bond orders larger than 0.100000
B(  0-S ,  1-C ) :   1.1530 B(  0-S ,  4-C ) :   1.1764 B(  1-C ,  2-C ) :   1.6058
B(  1-C , 32-H ) :   0.9595 B(  2-C ,  3-C ) :   1.2583 B(  2-C ,  6-C ) :   1.0177
B(  3-C ,  4-C ) :   1.5655 B(  3-C ,  5-H ) :   1.0012 B(  4-C , 20-C ) :   1.0210
B(  6-C ,  7-H ) :   0.9465 B(  6-C ,  8-H ) :   0.9464 B(  6-C ,  9-C ) :   1.0416
B(  9-C , 10-H ) :   0.9585 B(  9-C , 11-H ) :   0.9580 B(  9-C , 12-C ) :   1.0847
B( 12-C , 13-H ) :   0.9743 B( 12-C , 14-H ) :   0.9747 B( 12-C , 15-H ) :   0.9735
B( 16-S , 17-C ) :   1.1406 B( 16-S , 20-C ) :   1.1143 B( 17-C , 18-C ) :   1.6377
B( 17-C , 33-H ) :   0.9654 B( 18-C , 19-C ) :   1.2215 B( 18-C , 21-H ) :   0.9855
B( 19-C , 20-C ) :   1.6331 B( 19-C , 22-C ) :   1.0427 B( 22-C , 23-H ) :   0.9341
B( 22-C , 24-H ) :   0.9320 B( 22-C , 25-C ) :   1.0403 B( 25-C , 26-H ) :   0.9601
B( 25-C , 27-H ) :   0.9584 B( 25-C , 28-C ) :   1.0632 B( 28-C , 29-H ) :   0.9756
B( 28-C , 30-H ) :   0.9750 B( 28-C , 31-H ) :   0.9796

Dispersion correction           -0.013866415
FINAL SINGLE POINT ENERGY     -1339.877700660244

DIPOLE MOMENT
-------------
                                X             Y             Z
Electronic contribution:    -15.64357     -23.50666      -7.71019
Nuclear contribution   :     16.12686      23.88984       7.83046
                        -----------------------------------------
Total Dipole Moment    :      0.48329       0.38318       0.12027
                        -----------------------------------------
Magnitude (a.u.)       :      0.62838
Magnitude (Debye)      :      1.59721

Rotational constants in cm-1:     0.019372     0.008064     0.006405
Rotational constants in MHz :   580.768335   241.740903   192.002326

                             ****ORCA TERMINATED NORMALLY****
TOTAL RUN TIME: 0 days 0 hours 0 minutes 27 seconds 925 msec
