                         Program Version 4.2.1 -  RELEASE  -
|  1> ! wB97X-D3 SP def2-SVP
|  2> %pal
|  3> nprocs 16
|  4> end
|  5>
|  6> * xyz 0 1
|  7> S 	 -39.8137 	 24.0722 	 92.8844
|  8> C 	 -40.6179 	 22.8059 	 92.0613
|  9> C 	 -41.0193 	 23.1806 	 90.8281
| 10> C 	 -40.6016 	 24.5117 	 90.4782
| 11> C 	 -39.8129 	 25.0763 	 91.4529
| 12> H 	 -40.738 	 25.0173 	 89.6
| 13> C 	 -41.652 	 22.2323 	 89.8748
| 14> H 	 -41.0102 	 21.3358 	 89.7909
| 15> H 	 -41.8096 	 22.6151 	 88.8359
| 16> C 	 -42.9953 	 21.6124 	 90.3421
| 17> H 	 -43.2352 	 21.0635 	 89.4693
| 18> H 	 -42.8624 	 20.9102 	 91.1361
| 19> C 	 -44.1281 	 22.5882 	 90.7193
| 20> H 	 -45.082 	 22.1178 	 90.8453
| 21> H 	 -43.8566 	 22.9961 	 91.7108
| 22> H 	 -44.1064 	 23.3382 	 89.9931
| 23> S 	 -40.2694 	 27.6614 	 92.3454
| 24> C 	 -39.2262 	 28.9701 	 91.954
| 25> C 	 -38.1841 	 28.5398 	 91.1273
| 26> C 	 -38.2226 	 27.1045 	 90.8924
| 27> C 	 -39.3317 	 26.4427 	 91.4577
| 28> H 	 -37.4575 	 29.2912 	 90.7799
| 29> C 	 -37.0505 	 26.4344 	 90.2182
| 30> H 	 -37.1059 	 25.3207 	 90.1838
| 31> H 	 -36.2288 	 26.6897 	 90.7878
| 32> C 	 -36.9023 	 26.8931 	 88.7496
| 33> H 	 -36.1359 	 26.3032 	 88.4052
| 34> H 	 -36.6247 	 27.992 	 88.6022
| 35> C 	 -38.2375 	 26.5102 	 88.101
| 36> H 	 -38.2253 	 26.5965 	 86.9694
| 37> H 	 -39.0829 	 27.0366 	 88.5279
| 38> H 	 -38.4412 	 25.4234 	 88.2436
| 39> H 	 -40.9324 	 21.8228 	 92.4775
| 40> H 	 -39.468 	 30.0262 	 92.1751
| 41> *
| 42>
| 43>                          ****END OF INPUT****

CARTESIAN COORDINATES (ANGSTROEM)
---------------------------------
  S    -39.813700   24.072200   92.884400
  C    -40.617900   22.805900   92.061300
  C    -41.019300   23.180600   90.828100
  C    -40.601600   24.511700   90.478200
  C    -39.812900   25.076300   91.452900
  H    -40.738000   25.017300   89.600000
  C    -41.652000   22.232300   89.874800
  H    -41.010200   21.335800   89.790900
  H    -41.809600   22.615100   88.835900
  C    -42.995300   21.612400   90.342100
  H    -43.235200   21.063500   89.469300
  H    -42.862400   20.910200   91.136100
  C    -44.128100   22.588200   90.719300
  H    -45.082000   22.117800   90.845300
  H    -43.856600   22.996100   91.710800
  H    -44.106400   23.338200   89.993100
  S    -40.269400   27.661400   92.345400
  C    -39.226200   28.970100   91.954000
  C    -38.184100   28.539800   91.127300
  C    -38.222600   27.104500   90.892400
  C    -39.331700   26.442700   91.457700
  H    -37.457500   29.291200   90.779900
  C    -37.050500   26.434400   90.218200
  H    -37.105900   25.320700   90.183800
  H    -36.228800   26.689700   90.787800
  C    -36.902300   26.893100   88.749600
  H    -36.135900   26.303200   88.405200
  H    -36.624700   27.992000   88.602200
  C    -38.237500   26.510200   88.101000
  H    -38.225300   26.596500   86.969400
  H    -39.082900   27.036600   88.527900
  H    -38.441200   25.423400   88.243600
  H    -40.932400   21.822800   92.477500
  H    -39.468000   30.026200   92.175100

 Total Charge           Charge          ....    0
 Multiplicity           Mult            ....    1
 Number of Electrons    NEL             ....  134
 Basis Dimension        Dim             ....  322

ORBITAL ENERGIES
----------------

  NO   OCC          E(Eh)            E(eV)
   0   2.0000     -88.965461     -2420.8733
   1   2.0000     -88.960397     -2420.7355
   2   2.0000     -10.327165      -281.0165
   3   2.0000     -10.326744      -281.0050
   4   2.0000     -10.320553      -280.8365
   5   2.0000     -10.310282      -280.5570
   6   2.0000     -10.308413      -280.5062
   7   2.0000     -10.298683      -280.2414
   8   2.0000     -10.294518      -280.1281
   9   2.0000     -10.294052      -280.1154
  10   2.0000     -10.289455      -279.9903
  11   2.0000     -10.284575      -279.8575
  12   2.0000     -10.284444      -279.8540
  13   2.0000     -10.279128      -279.7093
  14   2.0000     -10.278079      -279.6807
  15   2.0000     -10.269798      -279.4554
  16   2.0000      -8.080948      -219.8938
  17   2.0000      -8.075503      -219.7456
  18   2.0000      -6.039391      -164.3402
  19   2.0000      -6.035322      -164.2295
  20   2.0000      -6.034045      -164.1947
  21   2.0000      -6.031738      -164.1319
  22   2.0000      -6.029707      -164.0767
  23   2.0000      -6.026443      -163.9878
  24   2.0000      -1.009499       -27.4699
  25   2.0000      -0.984900       -26.8005
  26   2.0000      -0.914170       -24.8758
  27   2.0000      -0.912960       -24.8429
  28   2.0000      -0.870723       -23.6936
  29   2.0000      -0.850183       -23.1346
  30   2.0000      -0.838789       -22.8246
  31   2.0000      -0.814604       -22.1665
  32   2.0000      -0.782350       -21.2888
  33   2.0000      -0.771317       -20.9886
  34   2.0000      -0.708113       -19.2687
  35   2.0000      -0.701067       -19.0770
  36   2.0000      -0.692087       -18.8326
  37   2.0000      -0.653629       -17.7861
  38   2.0000      -0.645764       -17.5721
  39   2.0000      -0.612148       -16.6574
  40   2.0000      -0.597252       -16.2520
  41   2.0000      -0.581991       -15.8368
  42   2.0000      -0.558033       -15.1848
  43   2.0000      -0.552963       -15.0469
  44   2.0000      -0.540131       -14.6977
  45   2.0000      -0.537375       -14.6227
  46   2.0000      -0.516507       -14.0549
  47   2.0000      -0.513779       -13.9806
  48   2.0000      -0.503682       -13.7059
  49   2.0000      -0.496375       -13.5071
  50   2.0000      -0.486631       -13.2419
  51   2.0000      -0.482598       -13.1322
  52   2.0000      -0.471648       -12.8342
  53   2.0000      -0.464238       -12.6326
  54   2.0000      -0.455644       -12.3987
  55   2.0000      -0.446618       -12.1531
  56   2.0000      -0.441971       -12.0266
  57   2.0000      -0.438337       -11.9278
  58   2.0000      -0.428986       -11.6733
  59   2.0000      -0.424481       -11.5507
  60   2.0000      -0.421603       -11.4724
  61   2.0000      -0.414427       -11.2771
  62   2.0000      -0.411066       -11.1857
  63   2.0000      -0.338438        -9.2094
  64   2.0000      -0.324511        -8.8304
  65   2.0000      -0.321779        -8.7561
  66   2.0000      -0.307265        -8.3611
  67   0.0000       0.043156         1.1743
  68   0.0000       0.053750         1.4626
  69   0.0000       0.121553         3.3076
  70   0.0000       0.123983         3.3738
  71   0.0000       0.128367         3.4931

MULLIKEN ATOMIC CHARGES
-----------------------
   0 S :    0.125686
   1 C :   -0.127003
   2 C :   -0.054592
   3 C :    0.087651
   4 C :   -0.173544
   5 H :   -0.027959
   6 C :    0.019581
   7 H :    0.043540
   8 H :    0.030622
   9 C :   -0.091362
  10 H :    0.016257
  11 H :    0.017361
  12 C :   -0.006190
  13 H :    0.034867
  14 H :    0.034383
  15 H :    0.015901
  16 S :    0.103234
  17 C :   -0.105940
  18 C :   -0.051549
  19 C :   -0.048249
  20 C :   -0.172926
  21 H :    0.033834
  22 C :    0.067193
  23 H :    0.035984
  24 H :    0.017377
  25 C :   -0.044654
  26 H :    0.011266
  27 H :    0.045663
  28 C :   -0.090133
  29 H :    0.036119
  30 H :    0.057816
  31 H :    0.027315
  32 H :    0.057444
  33 H :    0.075011
Sum of atomic charges:   -0.0000000

LOEWDIN ATOMIC CHARGES
----------------------
   0 S :    0.425651
   1 C :   -0.209202
   2 C :   -0.073863
   3 C :   -0.037146
   4 C :   -0.201524
   5 H :    0.016881
   6 C :   -0.036445
   7 H :    0.041255
   8 H :    0.032493
   9 C :   -0.037279
  10 H :    0.017925
  11 H :    0.012916
  12 C :   -0.055890
  13 H :    0.024778
  14 H :    0.030372
  15 H :    0.015856
  16 S :    0.407579
  17 C :   -0.195703
  18 C :   -0.083717
  19 C :   -0.047140
  20 C :   -0.206909
  21 H :    0.036525
  22 C :   -0.024445
  23 H :    0.035811
  24 H :    0.020249
  25 C :   -0.034910
  26 H :    0.012882
  27 H :    0.029983
  28 C :   -0.071749
  29 H :    0.027106
  30 H :    0.024897
  31 H :    0.026302
  32 H :    0.038374
  33 H :    0.038089

  Mayer bond orders larger than 0.100000
B(  0-S ,  1-C ) :   1.1445 B(  0-S ,  4-C ) :   1.1541 B(  1-C ,  2-C ) :   1.6127
B(  1-C , 32-H ) :   0.9619 B(  2-C ,  3-C ) :   1.2253 B(  2-C ,  6-C ) :   1.0243
B(  3-C ,  4-C ) :   1.5790 B(  3-C ,  5-H ) :   1.0128 B(  4-C , 20-C ) :   1.0287
B(  6-C ,  7-H ) :   0.9410 B(  6-C ,  8-H ) :   0.9480 B(  6-C ,  9-C ) :   1.0736
B(  9-C , 10-H ) :   0.9570 B(  9-C , 11-H ) :   0.9580 B(  9-C , 12-C ) :   1.0757
B( 12-C , 13-H ) :   0.9754 B( 12-C , 14-H ) :   0.9709 B( 12-C , 15-H ) :   0.9779
B( 16-S , 17-C ) :   1.1807 B( 16-S , 20-C ) :   1.1370 B( 17-C , 18-C ) :   1.5939
B( 17-C , 33-H ) :   0.9624 B( 18-C , 19-C ) :   1.2317 B( 18-C , 21-H ) :   0.9893
B( 19-C , 20-C ) :   1.5883 B( 19-C , 22-C ) :   1.0398 B( 22-C , 23-H ) :   0.9438
B( 22-C , 24-H ) :   0.9348 B( 22-C , 25-C ) :   1.0691 B( 25-C , 26-H ) :   0.9550
B( 25-C , 27-H ) :   0.9545 B( 25-C , 28-C ) :   1.0692 B( 28-C , 29-H ) :   0.9718
B( 28-C , 30-H ) :   0.9687 B( 28-C , 31-H ) :   0.9704

Dispersion correction           -0.015345842
FINAL SINGLE POINT ENERGY     -1339.872367093908

DIPOLE MOMENT
-------------
                                X             Y             Z
Electronic contribution:      3.62034       9.52562      18.86296
Nuclear contribution   :     -3.53912      -9.70002     -19.36061
                        -----------------------------------------
Total Dipole Moment    :      0.08122      -0.17439      -0.49765
                        -----------------------------------------
Magnitude (a.u.)       :      0.53354
Magnitude (Debye)      :      1.35614

Rotational constants in cm-1:     0.022188     0.008130     0.007150
Rotational constants in MHz :   665.170885   243.731551   214.337383

                             ****ORCA TERMINATED NORMALLY****
TOTAL RUN TIME: 0 days 0 hours 0 minutes 30 seconds 589 msec
