                         Program Version 4.2.1 -  RELEASE  -
|  1> ! wB97X-D3 SP def2-SVP
|  2> %pal
|  3> nprocs 16
|  4> end
|  5>
|  6> * xyz 0 1
|  7> S 	 -53.5757 	 46.017 	 108.688
|  8> C 	 -52.9506 	 47.6154 	 109.036
|  9> C 	 -53.7772 	 48.2426 	 109.965
| 10> C 	 -54.881 	 47.4715 	 110.322
| 11> C 	 -54.8905 	 46.2097 	 109.77
| 12> H 	 -55.66 	 47.7546 	 110.987
| 13> C 	 -53.5546 	 49.6821 	 110.296
| 14> H 	 -52.4633 	 49.7556 	 110.29
| 15> H 	 -53.7832 	 49.7206 	 111.387
| 16> C 	 -54.2878 	 50.7684 	 109.557
| 17> H 	 -53.8483 	 50.9856 	 108.62
| 18> H 	 -55.3487 	 50.606 	 109.48
| 19> C 	 -54.1767 	 52.1457 	 110.306
| 20> H 	 -54.7869 	 52.2524 	 111.195
| 21> H 	 -53.1432 	 52.3688 	 110.628
| 22> H 	 -54.4817 	 52.8815 	 109.641
| 23> S 	 -56.6493 	 44.6143 	 108.393
| 24> C 	 -57.6522 	 43.3896 	 109.278
| 25> C 	 -57.5701 	 43.6927 	 110.634
| 26> C 	 -56.6038 	 44.6493 	 111.019
| 27> C 	 -55.9812 	 45.2201 	 109.907
| 28> H 	 -58.3214 	 43.1774 	 111.165
| 29> C 	 -56.5209 	 45.0377 	 112.487
| 30> H 	 -57.4721 	 44.8997 	 113.004
| 31> H 	 -56.3482 	 46.0672 	 112.603
| 32> C 	 -55.3912 	 44.2759 	 113.323
| 33> H 	 -54.434 	 44.4445 	 112.802
| 34> H 	 -55.5848 	 43.2061 	 113.418
| 35> C 	 -55.1034 	 44.8429 	 114.782
| 36> H 	 -54.3501 	 44.1996 	 115.356
| 37> H 	 -55.9702 	 44.936 	 115.451
| 38> H 	 -54.7188 	 45.872 	 114.853
| 39> H 	 -52.0313 	 48.122 	 108.521
| 40> H 	 -58.2572 	 42.5377 	 108.968
| 41> *
| 42>
| 43>                          ****END OF INPUT****

CARTESIAN COORDINATES (ANGSTROEM)
---------------------------------
  S    -53.575700   46.017000  108.688000
  C    -52.950600   47.615400  109.036000
  C    -53.777200   48.242600  109.965000
  C    -54.881000   47.471500  110.322000
  C    -54.890500   46.209700  109.770000
  H    -55.660000   47.754600  110.987000
  C    -53.554600   49.682100  110.296000
  H    -52.463300   49.755600  110.290000
  H    -53.783200   49.720600  111.387000
  C    -54.287800   50.768400  109.557000
  H    -53.848300   50.985600  108.620000
  H    -55.348700   50.606000  109.480000
  C    -54.176700   52.145700  110.306000
  H    -54.786900   52.252400  111.195000
  H    -53.143200   52.368800  110.628000
  H    -54.481700   52.881500  109.641000
  S    -56.649300   44.614300  108.393000
  C    -57.652200   43.389600  109.278000
  C    -57.570100   43.692700  110.634000
  C    -56.603800   44.649300  111.019000
  C    -55.981200   45.220100  109.907000
  H    -58.321400   43.177400  111.165000
  C    -56.520900   45.037700  112.487000
  H    -57.472100   44.899700  113.004000
  H    -56.348200   46.067200  112.603000
  C    -55.391200   44.275900  113.323000
  H    -54.434000   44.444500  112.802000
  H    -55.584800   43.206100  113.418000
  C    -55.103400   44.842900  114.782000
  H    -54.350100   44.199600  115.356000
  H    -55.970200   44.936000  115.451000
  H    -54.718800   45.872000  114.853000
  H    -52.031300   48.122000  108.521000
  H    -58.257200   42.537700  108.968000

 Total Charge           Charge          ....    0
 Multiplicity           Mult            ....    1
 Number of Electrons    NEL             ....  134
 Basis Dimension        Dim             ....  322

ORBITAL ENERGIES
----------------

  NO   OCC          E(Eh)            E(eV)
   0   2.0000     -88.968797     -2420.9640
   1   2.0000     -88.967906     -2420.9398
   2   2.0000     -10.333878      -281.1991
   3   2.0000     -10.327882      -281.0359
   4   2.0000     -10.320875      -280.8453
   5   2.0000     -10.320228      -280.8277
   6   2.0000     -10.306656      -280.4584
   7   2.0000     -10.295802      -280.1630
   8   2.0000     -10.294961      -280.1401
   9   2.0000     -10.294122      -280.1173
  10   2.0000     -10.290241      -280.0117
  11   2.0000     -10.289186      -279.9830
  12   2.0000     -10.288381      -279.9611
  13   2.0000     -10.286336      -279.9054
  14   2.0000     -10.285639      -279.8865
  15   2.0000     -10.274178      -279.5746
  16   2.0000      -8.083784      -219.9710
  17   2.0000      -8.081180      -219.9001
  18   2.0000      -6.042169      -164.4158
  19   2.0000      -6.039878      -164.3534
  20   2.0000      -6.038048      -164.3036
  21   2.0000      -6.035843      -164.2436
  22   2.0000      -6.034853      -164.2167
  23   2.0000      -6.031849      -164.1350
  24   2.0000      -1.009616       -27.4730
  25   2.0000      -0.982487       -26.7348
  26   2.0000      -0.915228       -24.9046
  27   2.0000      -0.894369       -24.3370
  28   2.0000      -0.868909       -23.6442
  29   2.0000      -0.852324       -23.1929
  30   2.0000      -0.841092       -22.8873
  31   2.0000      -0.817544       -22.2465
  32   2.0000      -0.780885       -21.2490
  33   2.0000      -0.769424       -20.9371
  34   2.0000      -0.711383       -19.3577
  35   2.0000      -0.702335       -19.1115
  36   2.0000      -0.693760       -18.8782
  37   2.0000      -0.659974       -17.9588
  38   2.0000      -0.639043       -17.3893
  39   2.0000      -0.624014       -16.9803
  40   2.0000      -0.590664       -16.0728
  41   2.0000      -0.572173       -15.5696
  42   2.0000      -0.564331       -15.3562
  43   2.0000      -0.554326       -15.0840
  44   2.0000      -0.531521       -14.4634
  45   2.0000      -0.521821       -14.1995
  46   2.0000      -0.511531       -13.9195
  47   2.0000      -0.508119       -13.8266
  48   2.0000      -0.501488       -13.6462
  49   2.0000      -0.498332       -13.5603
  50   2.0000      -0.492456       -13.4004
  51   2.0000      -0.477247       -12.9866
  52   2.0000      -0.469550       -12.7771
  53   2.0000      -0.461940       -12.5700
  54   2.0000      -0.459321       -12.4988
  55   2.0000      -0.452616       -12.3163
  56   2.0000      -0.442373       -12.0376
  57   2.0000      -0.433337       -11.7917
  58   2.0000      -0.432899       -11.7798
  59   2.0000      -0.428549       -11.6614
  60   2.0000      -0.422431       -11.4949
  61   2.0000      -0.417788       -11.3686
  62   2.0000      -0.409881       -11.1534
  63   2.0000      -0.343258        -9.3405
  64   2.0000      -0.333293        -9.0694
  65   2.0000      -0.330239        -8.9863
  66   2.0000      -0.292819        -7.9680
  67   0.0000       0.024743         0.6733
  68   0.0000       0.070117         1.9080
  69   0.0000       0.102103         2.7784
  70   0.0000       0.122537         3.3344
  71   0.0000       0.135490         3.6869

MULLIKEN ATOMIC CHARGES
-----------------------
   0 S :    0.127159
   1 C :   -0.169298
   2 C :   -0.084836
   3 C :    0.036857
   4 C :   -0.144099
   5 H :   -0.001076
   6 C :    0.048456
   7 H :    0.019047
   8 H :    0.019215
   9 C :   -0.000925
  10 H :    0.021412
  11 H :    0.032013
  12 C :   -0.058964
  13 H :    0.030133
  14 H :    0.026951
  15 H :    0.018892
  16 S :    0.103616
  17 C :   -0.111790
  18 C :   -0.047436
  19 C :    0.020951
  20 C :   -0.170444
  21 H :    0.007472
  22 C :    0.090095
  23 H :    0.024873
  24 H :   -0.001331
  25 C :   -0.075399
  26 H :    0.047646
  27 H :    0.040618
  28 C :   -0.100933
  29 H :    0.046435
  30 H :    0.024547
  31 H :    0.031941
  32 H :    0.087263
  33 H :    0.060937
Sum of atomic charges:    0.0000000

LOEWDIN ATOMIC CHARGES
----------------------
   0 S :    0.431204
   1 C :   -0.217967
   2 C :   -0.073125
   3 C :   -0.060666
   4 C :   -0.209922
   5 H :    0.026666
   6 C :   -0.040543
   7 H :    0.032411
   8 H :    0.033332
   9 C :   -0.026958
  10 H :    0.022054
  11 H :    0.027667
  12 C :   -0.058845
  13 H :    0.021686
  14 H :    0.025042
  15 H :    0.016057
  16 S :    0.382335
  17 C :   -0.179550
  18 C :   -0.065289
  19 C :   -0.060250
  20 C :   -0.184328
  21 H :    0.026300
  22 C :   -0.025272
  23 H :    0.032525
  24 H :    0.019436
  25 C :   -0.033804
  26 H :    0.031114
  27 H :    0.024835
  28 C :   -0.086013
  29 H :    0.035521
  30 H :    0.019875
  31 H :    0.024092
  32 H :    0.053071
  33 H :    0.037308

  Mayer bond orders larger than 0.100000
B(  0-S ,  1-C ) :   1.1526 B(  0-S ,  4-C ) :   1.1767 B(  1-C ,  2-C ) :   1.5637
B(  1-C , 32-H ) :   0.9558 B(  2-C ,  3-C ) :   1.2821 B(  2-C ,  6-C ) :   1.0250
B(  3-C ,  4-C ) :   1.5306 B(  3-C ,  5-H ) :   1.0030 B(  4-C , 20-C ) :   1.0226
B(  6-C ,  7-H ) :   0.9322 B(  6-C ,  8-H ) :   0.9365 B(  6-C ,  9-C ) :   1.0724
B(  9-C , 10-H ) :   0.9540 B(  9-C , 11-H ) :   0.9555 B(  9-C , 12-C ) :   1.0774
B( 12-C , 13-H ) :   0.9774 B( 12-C , 14-H ) :   0.9767 B( 12-C , 15-H ) :   0.9761
B( 16-S , 17-C ) :   1.1253 B( 16-S , 20-C ) :   1.1515 B( 17-C , 18-C ) :   1.6394
B( 17-C , 20-C ) :   0.1067 B( 17-C , 33-H ) :   0.9650 B( 18-C , 19-C ) :   1.2233
B( 18-C , 21-H ) :   0.9913 B( 19-C , 20-C ) :   1.5856 B( 19-C , 22-C ) :   1.0429
B( 22-C , 23-H ) :   0.9398 B( 22-C , 24-H ) :   0.9363 B( 22-C , 25-C ) :   1.0475
B( 25-C , 26-H ) :   0.9612 B( 25-C , 27-H ) :   0.9617 B( 25-C , 28-C ) :   1.0652
B( 28-C , 29-H ) :   0.9768 B( 28-C , 30-H ) :   0.9771 B( 28-C , 31-H ) :   0.9763

Dispersion correction           -0.013441774
FINAL SINGLE POINT ENERGY     -1339.860191264572

DIPOLE MOMENT
-------------
                                X             Y             Z
Electronic contribution:     -2.47540     -17.55620     -22.00751
Nuclear contribution   :      2.31491      17.97335      22.44461
                        -----------------------------------------
Total Dipole Moment    :     -0.16050       0.41715       0.43710
                        -----------------------------------------
Magnitude (a.u.)       :      0.62516
Magnitude (Debye)      :      1.58904

Rotational constants in cm-1:     0.017018     0.008064     0.006509
Rotational constants in MHz :   510.176550   241.756219   195.147848

                             ****ORCA TERMINATED NORMALLY****
TOTAL RUN TIME: 0 days 0 hours 0 minutes 27 seconds 606 msec
