                         Program Version 4.2.1 -  RELEASE  -
|  1> ! wB97X-D3 SP def2-SVP
|  2> %pal
|  3> nprocs 16
|  4> end
|  5>
|  6> * xyz 0 1
|  7> S 	 -55.7779 	 40.4379 	 114.796
|  8> C 	 -54.3009 	 40.4836 	 113.806
|  9> C 	 -54.6408 	 40.5162 	 112.44
| 10> C 	 -56.0412 	 40.3687 	 112.217
| 11> C 	 -56.8041 	 40.2102 	 113.4
| 12> H 	 -56.6299 	 40.2248 	 111.243
| 13> C 	 -53.5877 	 40.5547 	 111.33
| 14> H 	 -53.1679 	 39.5814 	 111.377
| 15> H 	 -52.8665 	 41.1876 	 111.849
| 16> C 	 -53.9846 	 40.9853 	 109.899
| 17> H 	 -53.1764 	 40.8363 	 109.167
| 18> H 	 -54.89 	 40.4349 	 109.575
| 19> C 	 -54.2923 	 42.5011 	 109.84
| 20> H 	 -54.9336 	 42.8824 	 110.689
| 21> H 	 -53.3409 	 42.9671 	 110.118
| 22> H 	 -54.577 	 42.9635 	 108.87
| 23> S 	 -58.9482 	 38.5461 	 113.119
| 24> C 	 -60.5644 	 39.224 	 113.291
| 25> C 	 -60.477 	 40.5589 	 113.633
| 26> C 	 -59.1256 	 41.0858 	 113.855
| 27> C 	 -58.1947 	 40.0585 	 113.535
| 28> H 	 -61.4392 	 41.0811 	 113.895
| 29> C 	 -58.7567 	 42.6548 	 114.106
| 30> H 	 -57.8369 	 42.7481 	 114.695
| 31> H 	 -59.5957 	 43.0847 	 114.629
| 32> C 	 -58.4954 	 43.5202 	 112.893
| 33> H 	 -59.3473 	 43.5978 	 112.29
| 34> H 	 -57.7566 	 43.0662 	 112.283
| 35> C 	 -58.0104 	 44.8819 	 113.332
| 36> H 	 -57.7336 	 45.4352 	 112.478
| 37> H 	 -57.2119 	 44.7673 	 113.981
| 38> H 	 -58.9755 	 45.3216 	 113.742
| 39> H 	 -53.305 	 40.5428 	 114.127
| 40> H 	 -61.5 	 38.6848 	 113.142
| 41> *
| 42>
| 43>                          ****END OF INPUT****

CARTESIAN COORDINATES (ANGSTROEM)
---------------------------------
  S    -55.777900   40.437900  114.796000
  C    -54.300900   40.483600  113.806000
  C    -54.640800   40.516200  112.440000
  C    -56.041200   40.368700  112.217000
  C    -56.804100   40.210200  113.400000
  H    -56.629900   40.224800  111.243000
  C    -53.587700   40.554700  111.330000
  H    -53.167900   39.581400  111.377000
  H    -52.866500   41.187600  111.849000
  C    -53.984600   40.985300  109.899000
  H    -53.176400   40.836300  109.167000
  H    -54.890000   40.434900  109.575000
  C    -54.292300   42.501100  109.840000
  H    -54.933600   42.882400  110.689000
  H    -53.340900   42.967100  110.118000
  H    -54.577000   42.963500  108.870000
  S    -58.948200   38.546100  113.119000
  C    -60.564400   39.224000  113.291000
  C    -60.477000   40.558900  113.633000
  C    -59.125600   41.085800  113.855000
  C    -58.194700   40.058500  113.535000
  H    -61.439200   41.081100  113.895000
  C    -58.756700   42.654800  114.106000
  H    -57.836900   42.748100  114.695000
  H    -59.595700   43.084700  114.629000
  C    -58.495400   43.520200  112.893000
  H    -59.347300   43.597800  112.290000
  H    -57.756600   43.066200  112.283000
  C    -58.010400   44.881900  113.332000
  H    -57.733600   45.435200  112.478000
  H    -57.211900   44.767300  113.981000
  H    -58.975500   45.321600  113.742000
  H    -53.305000   40.542800  114.127000
  H    -61.500000   38.684800  113.142000

 Total Charge           Charge          ....    0
 Multiplicity           Mult            ....    1
 Number of Electrons    NEL             ....  134
 Basis Dimension        Dim             ....  322

ORBITAL ENERGIES
----------------

  NO   OCC          E(Eh)            E(eV)
   0   2.0000     -88.968546     -2420.9572
   1   2.0000     -88.968352     -2420.9519
   2   2.0000     -10.326917      -281.0097
   3   2.0000     -10.325242      -280.9641
   4   2.0000     -10.320074      -280.8235
   5   2.0000     -10.316391      -280.7233
   6   2.0000     -10.314094      -280.6608
   7   2.0000     -10.307243      -280.4743
   8   2.0000     -10.302299      -280.3398
   9   2.0000     -10.302236      -280.3381
  10   2.0000     -10.298937      -280.2483
  11   2.0000     -10.296907      -280.1931
  12   2.0000     -10.294348      -280.1235
  13   2.0000     -10.283807      -279.8366
  14   2.0000     -10.270409      -279.4720
  15   2.0000     -10.268512      -279.4204
  16   2.0000      -8.082838      -219.9452
  17   2.0000      -8.082190      -219.9276
  18   2.0000      -6.041399      -164.3948
  19   2.0000      -6.040709      -164.3760
  20   2.0000      -6.037261      -164.2822
  21   2.0000      -6.036725      -164.2676
  22   2.0000      -6.033679      -164.1848
  23   2.0000      -6.033119      -164.1695
  24   2.0000      -1.002665       -27.2839
  25   2.0000      -0.976420       -26.5697
  26   2.0000      -0.912569       -24.8323
  27   2.0000      -0.911036       -24.7906
  28   2.0000      -0.871337       -23.7103
  29   2.0000      -0.845039       -22.9947
  30   2.0000      -0.840775       -22.8786
  31   2.0000      -0.811576       -22.0841
  32   2.0000      -0.782800       -21.3011
  33   2.0000      -0.768999       -20.9255
  34   2.0000      -0.713971       -19.4281
  35   2.0000      -0.697824       -18.9887
  36   2.0000      -0.690469       -18.7886
  37   2.0000      -0.654960       -17.8224
  38   2.0000      -0.634412       -17.2632
  39   2.0000      -0.612800       -16.6751
  40   2.0000      -0.593209       -16.1420
  41   2.0000      -0.577612       -15.7176
  42   2.0000      -0.561652       -15.2833
  43   2.0000      -0.556250       -15.1363
  44   2.0000      -0.536987       -14.6122
  45   2.0000      -0.525206       -14.2916
  46   2.0000      -0.521425       -14.1887
  47   2.0000      -0.513673       -13.9778
  48   2.0000      -0.508159       -13.8277
  49   2.0000      -0.489553       -13.3214
  50   2.0000      -0.483307       -13.1514
  51   2.0000      -0.479118       -13.0375
  52   2.0000      -0.468831       -12.7575
  53   2.0000      -0.462813       -12.5938
  54   2.0000      -0.450693       -12.2640
  55   2.0000      -0.446376       -12.1465
  56   2.0000      -0.442941       -12.0531
  57   2.0000      -0.435938       -11.8625
  58   2.0000      -0.434363       -11.8196
  59   2.0000      -0.426860       -11.6155
  60   2.0000      -0.426184       -11.5971
  61   2.0000      -0.416731       -11.3398
  62   2.0000      -0.410789       -11.1781
  63   2.0000      -0.334881        -9.1126
  64   2.0000      -0.331504        -9.0207
  65   2.0000      -0.325485        -8.8569
  66   2.0000      -0.297783        -8.1031
  67   0.0000       0.034047         0.9265
  68   0.0000       0.053681         1.4607
  69   0.0000       0.112424         3.0592
  70   0.0000       0.118989         3.2378
  71   0.0000       0.129255         3.5172

MULLIKEN ATOMIC CHARGES
-----------------------
   0 S :    0.122350
   1 C :   -0.108606
   2 C :   -0.120023
   3 C :    0.024198
   4 C :   -0.195124
   5 H :    0.045625
   6 C :    0.071334
   7 H :    0.041559
   8 H :    0.020426
   9 C :   -0.046764
  10 H :    0.042166
  11 H :    0.042940
  12 C :   -0.094610
  13 H :    0.045464
  14 H :    0.016315
  15 H :    0.049854
  16 S :    0.123960
  17 C :   -0.107102
  18 C :   -0.057688
  19 C :   -0.007212
  20 C :   -0.191135
  21 H :    0.039858
  22 C :    0.066945
  23 H :    0.019909
  24 H :    0.016938
  25 C :   -0.048057
  26 H :    0.008433
  27 H :    0.015153
  28 C :   -0.012220
  29 H :    0.025432
  30 H :    0.024650
  31 H :    0.033812
  32 H :    0.025459
  33 H :    0.065760
Sum of atomic charges:   -0.0000000

LOEWDIN ATOMIC CHARGES
----------------------
   0 S :    0.412425
   1 C :   -0.196565
   2 C :   -0.058818
   3 C :   -0.075541
   4 C :   -0.202274
   5 H :    0.045910
   6 C :   -0.032158
   7 H :    0.034260
   8 H :    0.032562
   9 C :   -0.039728
  10 H :    0.032488
  11 H :    0.026568
  12 C :   -0.080531
  13 H :    0.031137
  14 H :    0.023239
  15 H :    0.029065
  16 S :    0.414287
  17 C :   -0.192491
  18 C :   -0.080569
  19 C :   -0.046309
  20 C :   -0.217843
  21 H :    0.038546
  22 C :   -0.019415
  23 H :    0.026192
  24 H :    0.025139
  25 C :   -0.037140
  26 H :    0.013768
  27 H :    0.016645
  28 C :   -0.048116
  29 H :    0.021784
  30 H :    0.015493
  31 H :    0.035263
  32 H :    0.017550
  33 H :    0.035177

  Mayer bond orders larger than 0.100000
B(  0-S ,  1-C ) :   1.1382 B(  0-S ,  4-C ) :   1.1639 B(  1-C ,  2-C ) :   1.5926
B(  1-C ,  4-C ) :   0.1145 B(  1-C , 32-H ) :   0.9785 B(  2-C ,  3-C ) :   1.2549
B(  2-C ,  6-C ) :   0.9805 B(  3-C ,  4-C ) :   1.5581 B(  3-C ,  5-H ) :   0.9756
B(  4-C , 20-C ) :   1.0539 B(  6-C ,  7-H ) :   0.9381 B(  6-C ,  8-H ) :   0.9427
B(  6-C ,  9-C ) :   1.0719 B(  9-C , 10-H ) :   0.9563 B(  9-C , 11-H ) :   0.9524
B(  9-C , 12-C ) :   1.0607 B( 12-C , 13-H ) :   0.9776 B( 12-C , 14-H ) :   0.9717
B( 12-C , 15-H ) :   0.9766 B( 16-S , 17-C ) :   1.1391 B( 16-S , 20-C ) :   1.1583
B( 17-C , 18-C ) :   1.6304 B( 17-C , 33-H ) :   0.9674 B( 18-C , 19-C ) :   1.2423
B( 18-C , 21-H ) :   0.9728 B( 19-C , 20-C ) :   1.5646 B( 19-C , 22-C ) :   1.0309
B( 22-C , 23-H ) :   0.9355 B( 22-C , 24-H ) :   0.9388 B( 22-C , 25-C ) :   1.0723
B( 25-C , 26-H ) :   0.9513 B( 25-C , 27-H ) :   0.9490 B( 25-C , 28-C ) :   1.0842
B( 28-C , 29-H ) :   0.9709 B( 28-C , 30-H ) :   0.9762 B( 28-C , 31-H ) :   0.9771

Dispersion correction           -0.014971348
FINAL SINGLE POINT ENERGY     -1339.857827938806

DIPOLE MOMENT
-------------
                                X             Y             Z
Electronic contribution:     -7.61819     -21.95278      13.95813
Nuclear contribution   :      7.71725      22.31039     -14.40762
                        -----------------------------------------
Total Dipole Moment    :      0.09906       0.35760      -0.44949
                        -----------------------------------------
Magnitude (a.u.)       :      0.58287
Magnitude (Debye)      :      1.48153

Rotational constants in cm-1:     0.016676     0.009469     0.008014
Rotational constants in MHz :   499.919736   283.861389   240.254336

                             ****ORCA TERMINATED NORMALLY****
TOTAL RUN TIME: 0 days 0 hours 0 minutes 32 seconds 751 msec
