                         Program Version 4.2.1 -  RELEASE  -
|  1> ! wB97X-D3 SP def2-SVP
|  2> %pal
|  3> nprocs 16
|  4> end
|  5>
|  6> * xyz 0 1
|  7> S 	 -54.9209 	 21.782 	 90.3105
|  8> C 	 -54.0271 	 20.4095 	 89.8189
|  9> C 	 -52.8019 	 20.6542 	 89.1686
| 10> C 	 -52.6358 	 22.0489 	 89.1638
| 11> C 	 -53.6126 	 22.8297 	 89.7501
| 12> H 	 -51.7747 	 22.5883 	 88.8201
| 13> C 	 -51.895 	 19.5827 	 88.669
| 14> H 	 -51.738 	 19.8521 	 87.5872
| 15> H 	 -52.4686 	 18.6521 	 88.7803
| 16> C 	 -50.601 	 19.36 	 89.3816
| 17> H 	 -50.1667 	 18.4608 	 88.9171
| 18> H 	 -50.0261 	 20.241 	 89.0712
| 19> C 	 -50.6743 	 19.171 	 90.9164
| 20> H 	 -51.0401 	 19.9585 	 91.534
| 21> H 	 -51.1005 	 18.2201 	 91.2223
| 22> H 	 -49.6888 	 19.0246 	 91.3118
| 23> S 	 -55.2026 	 24.9886 	 89.3935
| 24> C 	 -54.6199 	 26.6277 	 89.9376
| 25> C 	 -53.3224 	 26.5261 	 90.397
| 26> C 	 -52.7318 	 25.2254 	 90.2926
| 27> C 	 -53.6591 	 24.2621 	 89.9236
| 28> H 	 -52.8906 	 27.4307 	 90.8831
| 29> C 	 -51.3107 	 25.0411 	 90.7666
| 30> H 	 -50.5688 	 25.2916 	 90.0643
| 31> H 	 -51.1678 	 23.9957 	 90.8811
| 32> C 	 -50.9473 	 25.663 	 92.1445
| 33> H 	 -51.3039 	 26.68 	 92.3936
| 34> H 	 -49.9137 	 25.7043 	 92.3144
| 35> C 	 -51.4187 	 24.8678 	 93.2648
| 36> H 	 -52.5072 	 24.6541 	 93.1195
| 37> H 	 -51.1806 	 25.4479 	 94.1538
| 38> H 	 -51.0204 	 23.8898 	 93.188
| 39> H 	 -54.3958 	 19.3702 	 90.0836
| 40> H 	 -55.2116 	 27.5242 	 90.1868
| 41> *
| 42>
| 43>                          ****END OF INPUT****

CARTESIAN COORDINATES (ANGSTROEM)
---------------------------------
  S    -54.920900   21.782000   90.310500
  C    -54.027100   20.409500   89.818900
  C    -52.801900   20.654200   89.168600
  C    -52.635800   22.048900   89.163800
  C    -53.612600   22.829700   89.750100
  H    -51.774700   22.588300   88.820100
  C    -51.895000   19.582700   88.669000
  H    -51.738000   19.852100   87.587200
  H    -52.468600   18.652100   88.780300
  C    -50.601000   19.360000   89.381600
  H    -50.166700   18.460800   88.917100
  H    -50.026100   20.241000   89.071200
  C    -50.674300   19.171000   90.916400
  H    -51.040100   19.958500   91.534000
  H    -51.100500   18.220100   91.222300
  H    -49.688800   19.024600   91.311800
  S    -55.202600   24.988600   89.393500
  C    -54.619900   26.627700   89.937600
  C    -53.322400   26.526100   90.397000
  C    -52.731800   25.225400   90.292600
  C    -53.659100   24.262100   89.923600
  H    -52.890600   27.430700   90.883100
  C    -51.310700   25.041100   90.766600
  H    -50.568800   25.291600   90.064300
  H    -51.167800   23.995700   90.881100
  C    -50.947300   25.663000   92.144500
  H    -51.303900   26.680000   92.393600
  H    -49.913700   25.704300   92.314400
  C    -51.418700   24.867800   93.264800
  H    -52.507200   24.654100   93.119500
  H    -51.180600   25.447900   94.153800
  H    -51.020400   23.889800   93.188000
  H    -54.395800   19.370200   90.083600
  H    -55.211600   27.524200   90.186800

 Total Charge           Charge          ....    0
 Multiplicity           Mult            ....    1
 Number of Electrons    NEL             ....  134
 Basis Dimension        Dim             ....  322

ORBITAL ENERGIES
----------------

  NO   OCC          E(Eh)            E(eV)
   0   2.0000     -88.969673     -2420.9879
   1   2.0000     -88.963512     -2420.8202
   2   2.0000     -10.332345      -281.1574
   3   2.0000     -10.327582      -281.0278
   4   2.0000     -10.320013      -280.8218
   5   2.0000     -10.318764      -280.7879
   6   2.0000     -10.306348      -280.4500
   7   2.0000     -10.301547      -280.3193
   8   2.0000     -10.295720      -280.1608
   9   2.0000     -10.294832      -280.1366
  10   2.0000     -10.293438      -280.0987
  11   2.0000     -10.292590      -280.0756
  12   2.0000     -10.287188      -279.9286
  13   2.0000     -10.276600      -279.6405
  14   2.0000     -10.276319      -279.6328
  15   2.0000     -10.265123      -279.3282
  16   2.0000      -8.084725      -219.9966
  17   2.0000      -8.076742      -219.7793
  18   2.0000      -6.043018      -164.4389
  19   2.0000      -6.039208      -164.3352
  20   2.0000      -6.035671      -164.2390
  21   2.0000      -6.035623      -164.2376
  22   2.0000      -6.031508      -164.1257
  23   2.0000      -6.027130      -164.0065
  24   2.0000      -1.007005       -27.4020
  25   2.0000      -0.979584       -26.6558
  26   2.0000      -0.921050       -25.0630
  27   2.0000      -0.916953       -24.9516
  28   2.0000      -0.868867       -23.6431
  29   2.0000      -0.856465       -23.3056
  30   2.0000      -0.848857       -23.0986
  31   2.0000      -0.816164       -22.2090
  32   2.0000      -0.788973       -21.4690
  33   2.0000      -0.774306       -21.0699
  34   2.0000      -0.713134       -19.4054
  35   2.0000      -0.694692       -18.9035
  36   2.0000      -0.692290       -18.8382
  37   2.0000      -0.655190       -17.8286
  38   2.0000      -0.641073       -17.4445
  39   2.0000      -0.622284       -16.9332
  40   2.0000      -0.599644       -16.3171
  41   2.0000      -0.566040       -15.4027
  42   2.0000      -0.564705       -15.3664
  43   2.0000      -0.560847       -15.2614
  44   2.0000      -0.544097       -14.8056
  45   2.0000      -0.537727       -14.6323
  46   2.0000      -0.524740       -14.2789
  47   2.0000      -0.512469       -13.9450
  48   2.0000      -0.499358       -13.5882
  49   2.0000      -0.496710       -13.5162
  50   2.0000      -0.490867       -13.3572
  51   2.0000      -0.477372       -12.9899
  52   2.0000      -0.470269       -12.7967
  53   2.0000      -0.464113       -12.6292
  54   2.0000      -0.455440       -12.3931
  55   2.0000      -0.448142       -12.1946
  56   2.0000      -0.441392       -12.0109
  57   2.0000      -0.434823       -11.8321
  58   2.0000      -0.430926       -11.7261
  59   2.0000      -0.429535       -11.6882
  60   2.0000      -0.424994       -11.5647
  61   2.0000      -0.416092       -11.3224
  62   2.0000      -0.408409       -11.1134
  63   2.0000      -0.349962        -9.5229
  64   2.0000      -0.334833        -9.1113
  65   2.0000      -0.329030        -8.9534
  66   2.0000      -0.287724        -7.8294
  67   0.0000       0.024244         0.6597
  68   0.0000       0.068043         1.8516
  69   0.0000       0.108260         2.9459
  70   0.0000       0.123617         3.3638
  71   0.0000       0.124351         3.3838

MULLIKEN ATOMIC CHARGES
-----------------------
   0 S :    0.130972
   1 C :   -0.147547
   2 C :   -0.087920
   3 C :    0.030519
   4 C :   -0.173665
   5 H :   -0.002719
   6 C :    0.067854
   7 H :    0.050224
   8 H :    0.013116
   9 C :   -0.062047
  10 H :    0.038574
  11 H :    0.028172
  12 C :   -0.028284
  13 H :    0.041841
  14 H :    0.020724
  15 H :    0.015503
  16 S :    0.078472
  17 C :   -0.095076
  18 C :   -0.066802
  19 C :   -0.027697
  20 C :   -0.142094
  21 H :    0.039889
  22 C :    0.116793
  23 H :    0.026439
  24 H :   -0.005351
  25 C :   -0.071190
  26 H :    0.023269
  27 H :    0.007642
  28 C :   -0.034874
  29 H :    0.031506
  30 H :    0.037971
  31 H :    0.010438
  32 H :    0.067082
  33 H :    0.068264
Sum of atomic charges:    0.0000000

LOEWDIN ATOMIC CHARGES
----------------------
   0 S :    0.422350
   1 C :   -0.208783
   2 C :   -0.070016
   3 C :   -0.057819
   4 C :   -0.202792
   5 H :    0.026141
   6 C :   -0.037992
   7 H :    0.043757
   8 H :    0.029839
   9 C :   -0.040017
  10 H :    0.032203
  11 H :    0.024445
  12 C :   -0.068267
  13 H :    0.026068
  14 H :    0.026783
  15 H :    0.027628
  16 S :    0.355889
  17 C :   -0.178217
  18 C :   -0.069193
  19 C :   -0.060412
  20 C :   -0.175383
  21 H :    0.039519
  22 C :   -0.024263
  23 H :    0.028559
  24 H :    0.025398
  25 C :   -0.042169
  26 H :    0.023574
  27 H :    0.017828
  28 C :   -0.061020
  29 H :    0.029321
  30 H :    0.028745
  31 H :    0.015035
  32 H :    0.034989
  33 H :    0.038272

  Mayer bond orders larger than 0.100000
B(  0-S ,  1-C ) :   1.1791 B(  0-S ,  4-C ) :   1.1411 B(  1-C ,  2-C ) :   1.5689
B(  1-C ,  4-C ) :   0.1035 B(  1-C , 32-H ) :   0.9523 B(  2-C ,  3-C ) :   1.2556
B(  2-C ,  6-C ) :   1.0237 B(  3-C ,  4-C ) :   1.5651 B(  3-C ,  5-H ) :   0.9981
B(  4-C , 20-C ) :   1.0492 B(  6-C ,  7-H ) :   0.9354 B(  6-C ,  8-H ) :   0.9318
B(  6-C ,  9-C ) :   1.0764 B(  9-C , 10-H ) :   0.9540 B(  9-C , 11-H ) :   0.9556
B(  9-C , 12-C ) :   1.0772 B( 12-C , 13-H ) :   0.9743 B( 12-C , 14-H ) :   0.9716
B( 12-C , 15-H ) :   0.9681 B( 16-S , 17-C ) :   1.1052 B( 16-S , 20-C ) :   1.1276
B( 17-C , 18-C ) :   1.6782 B( 17-C , 20-C ) :   0.1014 B( 17-C , 33-H ) :   0.9578
B( 18-C , 19-C ) :   1.1927 B( 18-C , 21-H ) :   0.9758 B( 19-C , 20-C ) :   1.6174
B( 19-C , 22-C ) :   1.0495 B( 22-C , 23-H ) :   0.9251 B( 22-C , 24-H ) :   0.9292
B( 22-C , 25-C ) :   1.0672 B( 25-C , 26-H ) :   0.9591 B( 25-C , 27-H ) :   0.9482
B( 25-C , 28-C ) :   1.0850 B( 28-C , 29-H ) :   0.9748 B( 28-C , 30-H ) :   0.9728
B( 28-C , 31-H ) :   0.9679

Dispersion correction           -0.014552678
FINAL SINGLE POINT ENERGY     -1339.860261744594

DIPOLE MOMENT
-------------
                                X             Y             Z
Electronic contribution:    -24.47306       7.77922     -10.12735
Nuclear contribution   :     25.24278      -8.00515      10.37629
                        -----------------------------------------
Total Dipole Moment    :      0.76972      -0.22593       0.24894
                        -----------------------------------------
Magnitude (a.u.)       :      0.83993
Magnitude (Debye)      :      2.13494

Rotational constants in cm-1:     0.019079     0.009176     0.007054
Rotational constants in MHz :   571.968664   275.085109   211.476218

                             ****ORCA TERMINATED NORMALLY****
TOTAL RUN TIME: 0 days 0 hours 0 minutes 30 seconds 641 msec
