                         Program Version 4.2.1 -  RELEASE  -
|  1> ! wB97X-D3 SP def2-SVP
|  2> %pal
|  3> nprocs 16
|  4> end
|  5>
|  6> * xyz 0 1
|  7> S 	 -111.112 	 60.6408 	 122.702
|  8> C 	 -109.61 	 61.3626 	 123.315
|  9> C 	 -108.593 	 61.1244 	 122.435
| 10> C 	 -108.993 	 60.1818 	 121.397
| 11> C 	 -110.273 	 59.9167 	 121.404
| 12> H 	 -108.342 	 59.7677 	 120.673
| 13> C 	 -107.189 	 61.5206 	 122.664
| 14> H 	 -106.761 	 61.1133 	 123.623
| 15> H 	 -107.142 	 62.5532 	 122.764
| 16> C 	 -106.125 	 61.0857 	 121.62
| 17> H 	 -105.227 	 61.3928 	 122.067
| 18> H 	 -106.113 	 59.9777 	 121.442
| 19> C 	 -106.275 	 61.9606 	 120.36
| 20> H 	 -105.695 	 61.5617 	 119.501
| 21> H 	 -107.318 	 62.0319 	 120.047
| 22> H 	 -105.835 	 62.9599 	 120.623
| 23> S 	 -112.039 	 57.7635 	 121.209
| 24> C 	 -112.476 	 57.122 	 119.646
| 25> C 	 -111.726 	 57.7515 	 118.64
| 26> C 	 -110.921 	 58.84 	 119.069
| 27> C 	 -111.013 	 59.0343 	 120.462
| 28> H 	 -111.953 	 57.4458 	 117.572
| 29> C 	 -110.072 	 59.6794 	 118.13
| 30> H 	 -110.04 	 59.2338 	 117.12
| 31> H 	 -109.057 	 59.6802 	 118.434
| 32> C 	 -110.593 	 61.0954 	 117.979
| 33> H 	 -109.805 	 61.6501 	 117.564
| 34> H 	 -110.698 	 61.4935 	 118.989
| 35> C 	 -111.785 	 61.2005 	 117.101
| 36> H 	 -112.606 	 60.5644 	 117.299
| 37> H 	 -111.352 	 61.1619 	 116.149
| 38> H 	 -112.128 	 62.2213 	 117.1
| 39> H 	 -109.523 	 61.8408 	 124.27
| 40> H 	 -113.245 	 56.4079 	 119.321
| 41> *
| 42>
| 43>                          ****END OF INPUT****

CARTESIAN COORDINATES (ANGSTROEM)
---------------------------------
  S    -111.112000   60.640800  122.702000
  C    -109.610000   61.362600  123.315000
  C    -108.593000   61.124400  122.435000
  C    -108.993000   60.181800  121.397000
  C    -110.273000   59.916700  121.404000
  H    -108.342000   59.767700  120.673000
  C    -107.189000   61.520600  122.664000
  H    -106.761000   61.113300  123.623000
  H    -107.142000   62.553200  122.764000
  C    -106.125000   61.085700  121.620000
  H    -105.227000   61.392800  122.067000
  H    -106.113000   59.977700  121.442000
  C    -106.275000   61.960600  120.360000
  H    -105.695000   61.561700  119.501000
  H    -107.318000   62.031900  120.047000
  H    -105.835000   62.959900  120.623000
  S    -112.039000   57.763500  121.209000
  C    -112.476000   57.122000  119.646000
  C    -111.726000   57.751500  118.640000
  C    -110.921000   58.840000  119.069000
  C    -111.013000   59.034300  120.462000
  H    -111.953000   57.445800  117.572000
  C    -110.072000   59.679400  118.130000
  H    -110.040000   59.233800  117.120000
  H    -109.057000   59.680200  118.434000
  C    -110.593000   61.095400  117.979000
  H    -109.805000   61.650100  117.564000
  H    -110.698000   61.493500  118.989000
  C    -111.785000   61.200500  117.101000
  H    -112.606000   60.564400  117.299000
  H    -111.352000   61.161900  116.149000
  H    -112.128000   62.221300  117.100000
  H    -109.523000   61.840800  124.270000
  H    -113.245000   56.407900  119.321000

 Total Charge           Charge          ....    0
 Multiplicity           Mult            ....    1
 Number of Electrons    NEL             ....  134
 Basis Dimension        Dim             ....  322

ORBITAL ENERGIES
----------------

  NO   OCC          E(Eh)            E(eV)
   0   2.0000     -88.968294     -2420.9503
   1   2.0000     -88.961352     -2420.7615
   2   2.0000     -10.331640      -281.1382
   3   2.0000     -10.321311      -280.8571
   4   2.0000     -10.318978      -280.7937
   5   2.0000     -10.311463      -280.5892
   6   2.0000     -10.306364      -280.4504
   7   2.0000     -10.299754      -280.2706
   8   2.0000     -10.297476      -280.2086
   9   2.0000     -10.288460      -279.9632
  10   2.0000     -10.287699      -279.9425
  11   2.0000     -10.286633      -279.9135
  12   2.0000     -10.285034      -279.8700
  13   2.0000     -10.284134      -279.8455
  14   2.0000     -10.271689      -279.5069
  15   2.0000     -10.261897      -279.2404
  16   2.0000      -8.081879      -219.9191
  17   2.0000      -8.076893      -219.7834
  18   2.0000      -6.040443      -164.3688
  19   2.0000      -6.036422      -164.2594
  20   2.0000      -6.035447      -164.2329
  21   2.0000      -6.032775      -164.1602
  22   2.0000      -6.031349      -164.1213
  23   2.0000      -6.027485      -164.0162
  24   2.0000      -1.010502       -27.4971
  25   2.0000      -0.981563       -26.7097
  26   2.0000      -0.918099       -24.9827
  27   2.0000      -0.916690       -24.9444
  28   2.0000      -0.868635       -23.6367
  29   2.0000      -0.852858       -23.2074
  30   2.0000      -0.842105       -22.9148
  31   2.0000      -0.817690       -22.2505
  32   2.0000      -0.787129       -21.4189
  33   2.0000      -0.773818       -21.0567
  34   2.0000      -0.710839       -19.3429
  35   2.0000      -0.699186       -19.0258
  36   2.0000      -0.686072       -18.6690
  37   2.0000      -0.653250       -17.7758
  38   2.0000      -0.643699       -17.5159
  39   2.0000      -0.631674       -17.1887
  40   2.0000      -0.595908       -16.2155
  41   2.0000      -0.567975       -15.4554
  42   2.0000      -0.556123       -15.1329
  43   2.0000      -0.554114       -15.0782
  44   2.0000      -0.549147       -14.9430
  45   2.0000      -0.539478       -14.6799
  46   2.0000      -0.520903       -14.1745
  47   2.0000      -0.507213       -13.8020
  48   2.0000      -0.504034       -13.7155
  49   2.0000      -0.500784       -13.6270
  50   2.0000      -0.489716       -13.3258
  51   2.0000      -0.488800       -13.3009
  52   2.0000      -0.471341       -12.8258
  53   2.0000      -0.467124       -12.7111
  54   2.0000      -0.458970       -12.4892
  55   2.0000      -0.447777       -12.1846
  56   2.0000      -0.439631       -11.9630
  57   2.0000      -0.436426       -11.8757
  58   2.0000      -0.431183       -11.7331
  59   2.0000      -0.424574       -11.5533
  60   2.0000      -0.421190       -11.4612
  61   2.0000      -0.414489       -11.2788
  62   2.0000      -0.412430       -11.2228
  63   2.0000      -0.344534        -9.3752
  64   2.0000      -0.332190        -9.0394
  65   2.0000      -0.327754        -8.9186
  66   2.0000      -0.295338        -8.0366
  67   0.0000       0.028044         0.7631
  68   0.0000       0.075497         2.0544
  69   0.0000       0.109761         2.9868
  70   0.0000       0.117200         3.1892
  71   0.0000       0.131005         3.5648

MULLIKEN ATOMIC CHARGES
-----------------------
   0 S :    0.098991
   1 C :   -0.130988
   2 C :   -0.058077
   3 C :    0.010334
   4 C :   -0.103427
   5 H :   -0.007248
   6 C :    0.048477
   7 H :    0.044236
   8 H :    0.010578
   9 C :   -0.074381
  10 H :    0.016451
  11 H :    0.049018
  12 C :   -0.081772
  13 H :    0.038906
  14 H :    0.043298
  15 H :    0.038485
  16 S :    0.111119
  17 C :   -0.094941
  18 C :   -0.085187
  19 C :   -0.022464
  20 C :   -0.160759
  21 H :    0.039204
  22 C :    0.083179
  23 H :    0.006948
  24 H :    0.013911
  25 C :   -0.062203
  26 H :    0.005341
  27 H :    0.033014
  28 C :    0.018680
  29 H :    0.040148
  30 H :    0.005577
  31 H :    0.017309
  32 H :    0.043592
  33 H :    0.064647
Sum of atomic charges:   -0.0000000

LOEWDIN ATOMIC CHARGES
----------------------
   0 S :    0.401839
   1 C :   -0.180279
   2 C :   -0.058383
   3 C :   -0.064842
   4 C :   -0.202533
   5 H :    0.025666
   6 C :   -0.033812
   7 H :    0.041142
   8 H :    0.023047
   9 C :   -0.041296
  10 H :    0.019903
  11 H :    0.027962
  12 C :   -0.071593
  13 H :    0.026943
  14 H :    0.022159
  15 H :    0.032075
  16 S :    0.398930
  17 C :   -0.201006
  18 C :   -0.083843
  19 C :   -0.054380
  20 C :   -0.183700
  21 H :    0.039730
  22 C :   -0.027106
  23 H :    0.029481
  24 H :    0.022513
  25 C :   -0.035229
  26 H :    0.017783
  27 H :    0.022596
  28 C :   -0.054936
  29 H :    0.023027
  30 H :    0.022616
  31 H :    0.029375
  32 H :    0.026410
  33 H :    0.039740

  Mayer bond orders larger than 0.100000
B(  0-S ,  1-C ) :   1.1151 B(  0-S ,  4-C ) :   1.1438 B(  1-C ,  2-C ) :   1.6453
B(  1-C , 32-H ) :   0.9817 B(  2-C ,  3-C ) :   1.1926 B(  2-C ,  6-C ) :   1.0215
B(  3-C ,  4-C ) :   1.6292 B(  3-C ,  5-H ) :   1.0015 B(  4-C , 20-C ) :   0.9931
B(  6-C ,  7-H ) :   0.9377 B(  6-C ,  8-H ) :   0.9255 B(  6-C ,  9-C ) :   1.0959
B(  9-C , 10-H ) :   0.9540 B(  9-C , 11-H ) :   0.9513 B(  9-C , 12-C ) :   1.0650
B( 12-C , 13-H ) :   0.9755 B( 12-C , 14-H ) :   0.9810 B( 12-C , 15-H ) :   0.9740
B( 16-S , 17-C ) :   1.1553 B( 16-S , 20-C ) :   1.1471 B( 17-C , 18-C ) :   1.6055
B( 17-C , 20-C ) :   0.1129 B( 17-C , 33-H ) :   0.9617 B( 18-C , 19-C ) :   1.2648
B( 18-C , 21-H ) :   0.9746 B( 19-C , 20-C ) :   1.5740 B( 19-C , 22-C ) :   1.0411
B( 22-C , 23-H ) :   0.9298 B( 22-C , 24-H ) :   0.9286 B( 22-C , 25-C ) :   1.0827
B( 25-C , 26-H ) :   0.9492 B( 25-C , 27-H ) :   0.9560 B( 25-C , 28-C ) :   1.0789
B( 28-C , 29-H ) :   0.9795 B( 28-C , 30-H ) :   0.9677 B( 28-C , 31-H ) :   0.9639

Dispersion correction           -0.015283691
FINAL SINGLE POINT ENERGY     -1339.868397318064

DIPOLE MOMENT
-------------
                                X             Y             Z
Electronic contribution:    -17.69583     -13.10066      16.32791
Nuclear contribution   :     18.30081      13.33641     -16.68468
                        -----------------------------------------
Total Dipole Moment    :      0.60498       0.23575      -0.35677
                        -----------------------------------------
Magnitude (a.u.)       :      0.74086
Magnitude (Debye)      :      1.88312

Rotational constants in cm-1:     0.018360     0.009905     0.007731
Rotational constants in MHz :   550.418406   296.949416   231.769100

                             ****ORCA TERMINATED NORMALLY****
TOTAL RUN TIME: 0 days 0 hours 0 minutes 34 seconds 801 msec
