                         Program Version 4.2.1 -  RELEASE  -
|  1> ! wB97X-D3 SP def2-SVP
|  2> %pal
|  3> nprocs 16
|  4> end
|  5>
|  6> * xyz 0 1
|  7> S 	 -13.3498 	 73.8904 	 50.2931
|  8> C 	 -14.7825 	 74.4464 	 49.4506
|  9> C 	 -15.5557 	 73.3807 	 49.0284
| 10> C 	 -14.8908 	 72.1441 	 49.347
| 11> C 	 -13.6602 	 72.2201 	 49.9989
| 12> H 	 -15.25 	 71.1744 	 49.1755
| 13> C 	 -16.9418 	 73.5463 	 48.4868
| 14> H 	 -16.9048 	 73.9982 	 47.5273
| 15> H 	 -17.4749 	 74.1818 	 49.1593
| 16> C 	 -17.7634 	 72.2821 	 48.2972
| 17> H 	 -17.2278 	 71.6535 	 47.5706
| 18> H 	 -17.8305 	 71.8028 	 49.2716
| 19> C 	 -19.1843 	 72.589 	 47.7152
| 20> H 	 -19.7335 	 71.6492 	 47.5435
| 21> H 	 -19.8091 	 73.1631 	 48.348
| 22> H 	 -19.1024 	 73.2235 	 46.7765
| 23> S 	 -12.1078 	 71.2393 	 52.1464
| 24> C 	 -11.526 	 69.6815 	 52.1227
| 25> C 	 -11.75 	 69.0953 	 50.8778
| 26> C 	 -12.4862 	 69.8698 	 49.9878
| 27> C 	 -12.7714 	 71.141 	 50.5148
| 28> H 	 -11.4252 	 68.1085 	 50.7199
| 29> C 	 -12.7964 	 69.4358 	 48.6093
| 30> H 	 -11.8713 	 69.0648 	 48.2333
| 31> H 	 -12.9019 	 70.2675 	 47.9069
| 32> C 	 -14.0478 	 68.522 	 48.4395
| 33> H 	 -14.7818 	 68.9256 	 49.1822
| 34> H 	 -13.8369 	 67.4773 	 48.7261
| 35> C 	 -14.6328 	 68.6469 	 47.0867
| 36> H 	 -14.307 	 67.8241 	 46.4887
| 37> H 	 -14.4658 	 69.5905 	 46.5021
| 38> H 	 -15.6942 	 68.4385 	 47.0901
| 39> H 	 -15.1108 	 75.4439 	 49.4433
| 40> H 	 -11.1833 	 69.1695 	 52.9946
| 41> *
| 42>
| 43>                          ****END OF INPUT****

CARTESIAN COORDINATES (ANGSTROEM)
---------------------------------
  S    -13.349800   73.890400   50.293100
  C    -14.782500   74.446400   49.450600
  C    -15.555700   73.380700   49.028400
  C    -14.890800   72.144100   49.347000
  C    -13.660200   72.220100   49.998900
  H    -15.250000   71.174400   49.175500
  C    -16.941800   73.546300   48.486800
  H    -16.904800   73.998200   47.527300
  H    -17.474900   74.181800   49.159300
  C    -17.763400   72.282100   48.297200
  H    -17.227800   71.653500   47.570600
  H    -17.830500   71.802800   49.271600
  C    -19.184300   72.589000   47.715200
  H    -19.733500   71.649200   47.543500
  H    -19.809100   73.163100   48.348000
  H    -19.102400   73.223500   46.776500
  S    -12.107800   71.239300   52.146400
  C    -11.526000   69.681500   52.122700
  C    -11.750000   69.095300   50.877800
  C    -12.486200   69.869800   49.987800
  C    -12.771400   71.141000   50.514800
  H    -11.425200   68.108500   50.719900
  C    -12.796400   69.435800   48.609300
  H    -11.871300   69.064800   48.233300
  H    -12.901900   70.267500   47.906900
  C    -14.047800   68.522000   48.439500
  H    -14.781800   68.925600   49.182200
  H    -13.836900   67.477300   48.726100
  C    -14.632800   68.646900   47.086700
  H    -14.307000   67.824100   46.488700
  H    -14.465800   69.590500   46.502100
  H    -15.694200   68.438500   47.090100
  H    -15.110800   75.443900   49.443300
  H    -11.183300   69.169500   52.994600

 Total Charge           Charge          ....    0
 Multiplicity           Mult            ....    1
 Number of Electrons    NEL             ....  134
 Basis Dimension        Dim             ....  322

ORBITAL ENERGIES
----------------

  NO   OCC          E(Eh)            E(eV)
   0   2.0000     -88.967147     -2420.9191
   1   2.0000     -88.961669     -2420.7701
   2   2.0000     -10.331038      -281.1218
   3   2.0000     -10.330240      -281.1001
   4   2.0000     -10.312105      -280.6066
   5   2.0000     -10.307485      -280.4809
   6   2.0000     -10.300911      -280.3020
   7   2.0000     -10.299680      -280.2685
   8   2.0000     -10.291099      -280.0351
   9   2.0000     -10.289548      -279.9928
  10   2.0000     -10.289436      -279.9898
  11   2.0000     -10.286263      -279.9035
  12   2.0000     -10.284837      -279.8647
  13   2.0000     -10.284720      -279.8615
  14   2.0000     -10.284556      -279.8570
  15   2.0000     -10.274718      -279.5893
  16   2.0000      -8.083246      -219.9563
  17   2.0000      -8.076824      -219.7816
  18   2.0000      -6.041443      -164.3960
  19   2.0000      -6.037387      -164.2856
  20   2.0000      -6.035318      -164.2294
  21   2.0000      -6.034418      -164.2049
  22   2.0000      -6.031138      -164.1156
  23   2.0000      -6.027726      -164.0228
  24   2.0000      -1.010757       -27.5041
  25   2.0000      -0.989560       -26.9273
  26   2.0000      -0.916699       -24.9447
  27   2.0000      -0.915846       -24.9214
  28   2.0000      -0.868128       -23.6230
  29   2.0000      -0.862558       -23.4714
  30   2.0000      -0.840148       -22.8616
  31   2.0000      -0.815172       -22.1820
  32   2.0000      -0.786575       -21.4038
  33   2.0000      -0.775187       -21.0939
  34   2.0000      -0.711553       -19.3623
  35   2.0000      -0.701971       -19.1016
  36   2.0000      -0.689889       -18.7728
  37   2.0000      -0.661022       -17.9873
  38   2.0000      -0.645014       -17.5517
  39   2.0000      -0.620127       -16.8745
  40   2.0000      -0.605839       -16.4857
  41   2.0000      -0.581625       -15.8268
  42   2.0000      -0.570685       -15.5291
  43   2.0000      -0.565199       -15.3799
  44   2.0000      -0.528971       -14.3940
  45   2.0000      -0.523989       -14.2585
  46   2.0000      -0.517469       -14.0811
  47   2.0000      -0.512960       -13.9583
  48   2.0000      -0.504657       -13.7324
  49   2.0000      -0.500143       -13.6096
  50   2.0000      -0.496985       -13.5237
  51   2.0000      -0.485972       -13.2240
  52   2.0000      -0.477256       -12.9868
  53   2.0000      -0.467946       -12.7335
  54   2.0000      -0.461062       -12.5461
  55   2.0000      -0.448337       -12.1999
  56   2.0000      -0.441986       -12.0271
  57   2.0000      -0.439106       -11.9487
  58   2.0000      -0.433448       -11.7947
  59   2.0000      -0.426482       -11.6052
  60   2.0000      -0.424774       -11.5587
  61   2.0000      -0.413801       -11.2601
  62   2.0000      -0.407299       -11.0832
  63   2.0000      -0.350580        -9.5398
  64   2.0000      -0.334742        -9.1088
  65   2.0000      -0.327474        -8.9110
  66   2.0000      -0.285744        -7.7755
  67   0.0000       0.028620         0.7788
  68   0.0000       0.073739         2.0065
  69   0.0000       0.123578         3.3627
  70   0.0000       0.126386         3.4391
  71   0.0000       0.130823         3.5599

MULLIKEN ATOMIC CHARGES
-----------------------
   0 S :    0.096714
   1 C :   -0.109211
   2 C :   -0.073391
   3 C :    0.029160
   4 C :   -0.127700
   5 H :   -0.041550
   6 C :    0.086666
   7 H :    0.023450
   8 H :    0.026136
   9 C :   -0.111131
  10 H :    0.039963
  11 H :    0.038035
  12 C :   -0.040841
  13 H :    0.041852
  14 H :    0.019847
  15 H :    0.034776
  16 S :    0.124931
  17 C :   -0.088399
  18 C :   -0.024354
  19 C :   -0.030907
  20 C :   -0.142454
  21 H :   -0.005889
  22 C :    0.059539
  23 H :    0.016910
  24 H :    0.015633
  25 C :   -0.073728
  26 H :    0.043200
  27 H :    0.037497
  28 C :   -0.044303
  29 H :    0.020693
  30 H :    0.049682
  31 H :    0.022891
  32 H :    0.028915
  33 H :    0.057368
Sum of atomic charges:    0.0000000

LOEWDIN ATOMIC CHARGES
----------------------
   0 S :    0.413220
   1 C :   -0.190486
   2 C :   -0.059118
   3 C :   -0.069764
   4 C :   -0.196449
   5 H :    0.014917
   6 C :   -0.030817
   7 H :    0.029149
   8 H :    0.030058
   9 C :   -0.038951
  10 H :    0.025750
  11 H :    0.024387
  12 C :   -0.066064
  13 H :    0.030671
  14 H :    0.016439
  15 H :    0.031874
  16 S :    0.448405
  17 C :   -0.207380
  18 C :   -0.070589
  19 C :   -0.054676
  20 C :   -0.201211
  21 H :    0.022244
  22 C :   -0.035616
  23 H :    0.029258
  24 H :    0.031916
  25 C :   -0.040262
  26 H :    0.026775
  27 H :    0.028825
  28 C :   -0.075906
  29 H :    0.025205
  30 H :    0.033800
  31 H :    0.027043
  32 H :    0.018359
  33 H :    0.028994

  Mayer bond orders larger than 0.100000
B(  0-S ,  1-C ) :   1.1487 B(  0-S ,  4-C ) :   1.1656 B(  1-C ,  2-C ) :   1.5932
B(  1-C ,  4-C ) :   0.1006 B(  1-C , 32-H ) :   0.9802 B(  2-C ,  3-C ) :   1.2632
B(  2-C ,  6-C ) :   1.0085 B(  3-C ,  4-C ) :   1.5441 B(  3-C ,  5-H ) :   1.0037
B(  4-C , 20-C ) :   1.0258 B(  6-C ,  7-H ) :   0.9263 B(  6-C ,  8-H ) :   0.9412
B(  6-C ,  9-C ) :   1.0971 B(  9-C , 10-H ) :   0.9496 B(  9-C , 11-H ) :   0.9512
B(  9-C , 12-C ) :   1.0822 B( 12-C , 13-H ) :   0.9741 B( 12-C , 14-H ) :   0.9753
B( 12-C , 15-H ) :   0.9729 B( 16-S , 17-C ) :   1.2084 B( 16-S , 20-C ) :   1.1623
B( 17-C , 18-C ) :   1.5256 B( 17-C , 20-C ) :   0.1060 B( 17-C , 33-H ) :   0.9717
B( 18-C , 19-C ) :   1.3028 B( 18-C , 21-H ) :   1.0045 B( 19-C , 20-C ) :   1.5296
B( 19-C , 22-C ) :   1.0526 B( 22-C , 23-H ) :   0.9286 B( 22-C , 24-H ) :   0.9398
B( 22-C , 25-C ) :   1.0350 B( 25-C , 26-H ) :   0.9638 B( 25-C , 27-H ) :   0.9499
B( 25-C , 28-C ) :   1.0858 B( 28-C , 29-H ) :   0.9690 B( 28-C , 30-H ) :   0.9731
B( 28-C , 31-H ) :   0.9699

Dispersion correction           -0.014382468
FINAL SINGLE POINT ENERGY     -1339.879250964082

DIPOLE MOMENT
-------------
                                X             Y             Z
Electronic contribution:     22.99425      11.24227      20.74241
Nuclear contribution   :    -23.49554     -11.73110     -21.02276
                        -----------------------------------------
Total Dipole Moment    :     -0.50129      -0.48884      -0.28036
                        -----------------------------------------
Magnitude (a.u.)       :      0.75422
Magnitude (Debye)      :      1.91709

Rotational constants in cm-1:     0.017746     0.009296     0.006675
Rotational constants in MHz :   531.996806   278.682033   200.125748

                             ****ORCA TERMINATED NORMALLY****
TOTAL RUN TIME: 0 days 0 hours 0 minutes 34 seconds 462 msec
