                         Program Version 4.2.1 -  RELEASE  -
|  1> ! wB97X-D3 SP def2-SVP
|  2> %pal
|  3> nprocs 16
|  4> end
|  5>
|  6> * xyz 0 1
|  7> S 	 -26.5574 	 53.3638 	 109.404
|  8> C 	 -27.8176 	 52.1213 	 109.505
|  9> C 	 -28.9424 	 52.6159 	 110.213
| 10> C 	 -28.7486 	 53.9742 	 110.644
| 11> C 	 -27.5443 	 54.5323 	 110.283
| 12> H 	 -29.4731 	 54.5339 	 111.212
| 13> C 	 -30.2024 	 51.8348 	 110.51
| 14> H 	 -30.5919 	 51.2603 	 109.693
| 15> H 	 -30.8419 	 52.5669 	 110.886
| 16> C 	 -29.9945 	 50.9162 	 111.739
| 17> H 	 -30.8385 	 50.3632 	 112.004
| 18> H 	 -29.1912 	 50.1565 	 111.625
| 19> C 	 -29.6267 	 51.6508 	 113.029
| 20> H 	 -28.6804 	 52.2416 	 112.937
| 21> H 	 -30.4505 	 52.3257 	 113.295
| 22> H 	 -29.4765 	 50.8976 	 113.786
| 23> S 	 -26.5098 	 56.7905 	 109.254
| 24> C 	 -26.0674 	 58.1229 	 110.33
| 25> C 	 -26.4257 	 57.8696 	 111.676
| 26> C 	 -27.045 	 56.5908 	 111.82
| 27> C 	 -27.076 	 55.8335 	 110.622
| 28> H 	 -26.2955 	 58.6988 	 112.29
| 29> C 	 -27.3862 	 56.0499 	 113.179
| 30> H 	 -28.3742 	 55.6764 	 113.37
| 31> H 	 -27.6257 	 56.9367 	 113.847
| 32> C 	 -26.3242 	 55.0894 	 113.809
| 33> H 	 -26.1784 	 54.2167 	 113.182
| 34> H 	 -26.77 	 54.6406 	 114.754
| 35> C 	 -24.9747 	 55.56 	 114.083
| 36> H 	 -25.0174 	 56.446 	 114.697
| 37> H 	 -24.5119 	 55.9162 	 113.19
| 38> H 	 -24.5227 	 54.8127 	 114.721
| 39> H 	 -27.8159 	 51.1952 	 108.98
| 40> H 	 -25.601 	 59.0733 	 110.047
| 41> *
| 42>
| 43>                          ****END OF INPUT****

CARTESIAN COORDINATES (ANGSTROEM)
---------------------------------
  S    -26.557400   53.363800  109.404000
  C    -27.817600   52.121300  109.505000
  C    -28.942400   52.615900  110.213000
  C    -28.748600   53.974200  110.644000
  C    -27.544300   54.532300  110.283000
  H    -29.473100   54.533900  111.212000
  C    -30.202400   51.834800  110.510000
  H    -30.591900   51.260300  109.693000
  H    -30.841900   52.566900  110.886000
  C    -29.994500   50.916200  111.739000
  H    -30.838500   50.363200  112.004000
  H    -29.191200   50.156500  111.625000
  C    -29.626700   51.650800  113.029000
  H    -28.680400   52.241600  112.937000
  H    -30.450500   52.325700  113.295000
  H    -29.476500   50.897600  113.786000
  S    -26.509800   56.790500  109.254000
  C    -26.067400   58.122900  110.330000
  C    -26.425700   57.869600  111.676000
  C    -27.045000   56.590800  111.820000
  C    -27.076000   55.833500  110.622000
  H    -26.295500   58.698800  112.290000
  C    -27.386200   56.049900  113.179000
  H    -28.374200   55.676400  113.370000
  H    -27.625700   56.936700  113.847000
  C    -26.324200   55.089400  113.809000
  H    -26.178400   54.216700  113.182000
  H    -26.770000   54.640600  114.754000
  C    -24.974700   55.560000  114.083000
  H    -25.017400   56.446000  114.697000
  H    -24.511900   55.916200  113.190000
  H    -24.522700   54.812700  114.721000
  H    -27.815900   51.195200  108.980000
  H    -25.601000   59.073300  110.047000

 Total Charge           Charge          ....    0
 Multiplicity           Mult            ....    1
 Number of Electrons    NEL             ....  134
 Basis Dimension        Dim             ....  322

ORBITAL ENERGIES
----------------

  NO   OCC          E(Eh)            E(eV)
   0   2.0000     -88.969663     -2420.9876
   1   2.0000     -88.968435     -2420.9542
   2   2.0000     -10.329214      -281.0722
   3   2.0000     -10.328311      -281.0476
   4   2.0000     -10.322860      -280.8993
   5   2.0000     -10.316822      -280.7350
   6   2.0000     -10.311701      -280.5957
   7   2.0000     -10.305366      -280.4233
   8   2.0000     -10.296000      -280.1684
   9   2.0000     -10.294033      -280.1149
  10   2.0000     -10.293312      -280.0953
  11   2.0000     -10.288661      -279.9687
  12   2.0000     -10.281631      -279.7774
  13   2.0000     -10.281049      -279.7616
  14   2.0000     -10.275655      -279.6148
  15   2.0000     -10.262241      -279.2498
  16   2.0000      -8.083668      -219.9678
  17   2.0000      -8.082275      -219.9299
  18   2.0000      -6.042138      -164.4149
  19   2.0000      -6.040917      -164.3817
  20   2.0000      -6.038150      -164.3064
  21   2.0000      -6.036760      -164.2686
  22   2.0000      -6.034635      -164.2108
  23   2.0000      -6.033098      -164.1689
  24   2.0000      -1.003260       -27.3001
  25   2.0000      -0.976916       -26.5832
  26   2.0000      -0.915437       -24.9103
  27   2.0000      -0.908504       -24.7216
  28   2.0000      -0.869965       -23.6730
  29   2.0000      -0.855503       -23.2794
  30   2.0000      -0.844861       -22.9898
  31   2.0000      -0.815373       -22.1874
  32   2.0000      -0.786237       -21.3946
  33   2.0000      -0.771214       -20.9858
  34   2.0000      -0.708991       -19.2926
  35   2.0000      -0.699004       -19.0209
  36   2.0000      -0.684716       -18.6321
  37   2.0000      -0.664112       -18.0714
  38   2.0000      -0.641036       -17.4435
  39   2.0000      -0.618313       -16.8252
  40   2.0000      -0.596862       -16.2414
  41   2.0000      -0.573818       -15.6144
  42   2.0000      -0.559516       -15.2252
  43   2.0000      -0.557673       -15.1750
  44   2.0000      -0.550352       -14.9758
  45   2.0000      -0.533654       -14.5215
  46   2.0000      -0.516158       -14.0454
  47   2.0000      -0.515276       -14.0214
  48   2.0000      -0.505218       -13.7477
  49   2.0000      -0.499021       -13.5790
  50   2.0000      -0.484929       -13.1956
  51   2.0000      -0.480284       -13.0692
  52   2.0000      -0.470420       -12.8008
  53   2.0000      -0.465556       -12.6684
  54   2.0000      -0.458421       -12.4743
  55   2.0000      -0.443024       -12.0553
  56   2.0000      -0.436911       -11.8890
  57   2.0000      -0.435895       -11.8613
  58   2.0000      -0.429136       -11.6774
  59   2.0000      -0.425522       -11.5790
  60   2.0000      -0.417116       -11.3503
  61   2.0000      -0.414475       -11.2784
  62   2.0000      -0.400727       -10.9043
  63   2.0000      -0.344485        -9.3739
  64   2.0000      -0.333851        -9.0846
  65   2.0000      -0.329669        -8.9707
  66   2.0000      -0.288835        -7.8596
  67   0.0000       0.021536         0.5860
  68   0.0000       0.064459         1.7540
  69   0.0000       0.107216         2.9175
  70   0.0000       0.117996         3.2108
  71   0.0000       0.128037         3.4841

MULLIKEN ATOMIC CHARGES
-----------------------
   0 S :    0.114474
   1 C :   -0.111038
   2 C :   -0.134776
   3 C :    0.039927
   4 C :   -0.142991
   5 H :    0.007273
   6 C :    0.155396
   7 H :    0.035581
   8 H :   -0.003575
   9 C :   -0.075635
  10 H :    0.015448
  11 H :    0.026119
  12 C :   -0.091934
  13 H :    0.057937
  14 H :    0.027057
  15 H :    0.032749
  16 S :    0.113589
  17 C :   -0.111382
  18 C :   -0.028548
  19 C :    0.007774
  20 C :   -0.162414
  21 H :    0.003710
  22 C :    0.050314
  23 H :    0.011642
  24 H :    0.012721
  25 C :   -0.091534
  26 H :    0.034003
  27 H :    0.022370
  28 C :    0.006419
  29 H :    0.000371
  30 H :    0.037554
  31 H :    0.035689
  32 H :    0.043030
  33 H :    0.062678
Sum of atomic charges:   -0.0000000

LOEWDIN ATOMIC CHARGES
----------------------
   0 S :    0.396600
   1 C :   -0.191491
   2 C :   -0.053546
   3 C :   -0.058503
   4 C :   -0.199400
   5 H :    0.029417
   6 C :   -0.020586
   7 H :    0.032115
   8 H :    0.023126
   9 C :   -0.037325
  10 H :    0.013917
  11 H :    0.023746
  12 C :   -0.067108
  13 H :    0.030401
  14 H :    0.020265
  15 H :    0.025156
  16 S :    0.406989
  17 C :   -0.183635
  18 C :   -0.064100
  19 C :   -0.053885
  20 C :   -0.194100
  21 H :    0.025338
  22 C :   -0.048246
  23 H :    0.027856
  24 H :    0.037404
  25 C :   -0.042486
  26 H :    0.024466
  27 H :    0.027460
  28 C :   -0.063484
  29 H :    0.018157
  30 H :    0.025954
  31 H :    0.033790
  32 H :    0.023621
  33 H :    0.032117

  Mayer bond orders larger than 0.100000
B(  0-S ,  1-C ) :   1.1364 B(  0-S ,  4-C ) :   1.1415 B(  1-C ,  2-C ) :   1.5863
B(  1-C ,  4-C ) :   0.1032 B(  1-C , 32-H ) :   0.9731 B(  2-C ,  3-C ) :   1.2484
B(  2-C ,  6-C ) :   1.0272 B(  3-C ,  4-C ) :   1.5668 B(  3-C ,  5-H ) :   0.9946
B(  4-C , 20-C ) :   1.0699 B(  6-C ,  7-H ) :   0.9418 B(  6-C ,  8-H ) :   0.9302
B(  6-C ,  9-C ) :   1.0656 B(  9-C , 10-H ) :   0.9581 B(  9-C , 11-H ) :   0.9584
B(  9-C , 12-C ) :   1.0794 B( 12-C , 13-H ) :   0.9715 B( 12-C , 14-H ) :   0.9754
B( 12-C , 15-H ) :   0.9726 B( 16-S , 17-C ) :   1.1607 B( 16-S , 20-C ) :   1.1519
B( 17-C , 18-C ) :   1.6018 B( 17-C , 20-C ) :   0.1123 B( 17-C , 33-H ) :   0.9637
B( 18-C , 19-C ) :   1.2355 B( 18-C , 21-H ) :   1.0016 B( 19-C , 20-C ) :   1.5450
B( 19-C , 22-C ) :   1.0557 B( 22-C , 23-H ) :   0.9313 B( 22-C , 24-H ) :   0.9260
B( 22-C , 25-C ) :   1.0616 B( 25-C , 26-H ) :   0.9545 B( 25-C , 27-H ) :   0.9518
B( 25-C , 28-C ) :   1.0957 B( 28-C , 29-H ) :   0.9667 B( 28-C , 30-H ) :   0.9686
B( 28-C , 31-H ) :   0.9661

Dispersion correction           -0.015752671
FINAL SINGLE POINT ENERGY     -1339.863583415519

DIPOLE MOMENT
-------------
                                X             Y             Z
Electronic contribution:      7.56706      10.13013     -23.87512
Nuclear contribution   :     -7.97340     -10.19822      24.37064
                        -----------------------------------------
Total Dipole Moment    :     -0.40634      -0.06809       0.49553
                        -----------------------------------------
Magnitude (a.u.)       :      0.64443
Magnitude (Debye)      :      1.63802

Rotational constants in cm-1:     0.019835     0.009617     0.007598
Rotational constants in MHz :   594.633585   288.311289   227.779968

                             ****ORCA TERMINATED NORMALLY****
TOTAL RUN TIME: 0 days 0 hours 0 minutes 30 seconds 124 msec
