                         Program Version 4.2.1 -  RELEASE  -
|  1> ! wB97X-D3 SP def2-SVP
|  2> %pal
|  3> nprocs 16
|  4> end
|  5>
|  6> * xyz 0 1
|  7> S 	 -4.67457 	 -11.4022 	 82.6336
|  8> C 	 -4.1219 	 -9.78064 	 82.1908
|  9> C 	 -4.77771 	 -8.79757 	 82.9526
| 10> C 	 -5.67539 	 -9.45371 	 83.8933
| 11> C 	 -5.77225 	 -10.8139 	 83.7492
| 12> H 	 -6.40079 	 -8.87829 	 84.4714
| 13> C 	 -4.76749 	 -7.26664 	 82.7589
| 14> H 	 -3.76317 	 -6.81451 	 82.6176
| 15> H 	 -5.15346 	 -6.79691 	 83.6645
| 16> C 	 -5.82873 	 -6.86226 	 81.7521
| 17> H 	 -5.65492 	 -7.29651 	 80.7477
| 18> H 	 -6.77815 	 -7.32794 	 82.062
| 19> C 	 -6.18884 	 -5.38566 	 81.5702
| 20> H 	 -5.38562 	 -4.70589 	 81.3363
| 21> H 	 -6.72066 	 -5.26924 	 80.6323
| 22> H 	 -6.78561 	 -4.98364 	 82.3336
| 23> S 	 -6.32571 	 -13.4132 	 84.6943
| 24> C 	 -7.90905 	 -13.7608 	 85.438
| 25> C 	 -8.65217 	 -12.5828 	 85.5175
| 26> C 	 -8.12604 	 -11.4547 	 84.82
| 27> C 	 -6.78543 	 -11.7128 	 84.4046
| 28> H 	 -9.60773 	 -12.5791 	 86.1079
| 29> C 	 -8.78913 	 -10.0179 	 84.6448
| 30> H 	 -8.48248 	 -9.42854 	 83.792
| 31> H 	 -8.45009 	 -9.48125 	 85.5988
| 32> C 	 -10.2743 	 -9.97016 	 84.6486
| 33> H 	 -10.5551 	 -10.5806 	 85.4679
| 34> H 	 -10.6895 	 -10.4495 	 83.7354
| 35> C 	 -10.9143 	 -8.58972 	 84.6287
| 36> H 	 -10.7175 	 -8.0563 	 85.624
| 37> H 	 -11.9623 	 -8.6774 	 84.6092
| 38> H 	 -10.455 	 -8.0495 	 83.7371
| 39> H 	 -3.37797 	 -9.56605 	 81.5111
| 40> H 	 -8.10926 	 -14.6048 	 86.1059
| 41> *
| 42>
| 43>                          ****END OF INPUT****

CARTESIAN COORDINATES (ANGSTROEM)
---------------------------------
  S     -4.674570  -11.402200   82.633600
  C     -4.121900   -9.780640   82.190800
  C     -4.777710   -8.797570   82.952600
  C     -5.675390   -9.453710   83.893300
  C     -5.772250  -10.813900   83.749200
  H     -6.400790   -8.878290   84.471400
  C     -4.767490   -7.266640   82.758900
  H     -3.763170   -6.814510   82.617600
  H     -5.153460   -6.796910   83.664500
  C     -5.828730   -6.862260   81.752100
  H     -5.654920   -7.296510   80.747700
  H     -6.778150   -7.327940   82.062000
  C     -6.188840   -5.385660   81.570200
  H     -5.385620   -4.705890   81.336300
  H     -6.720660   -5.269240   80.632300
  H     -6.785610   -4.983640   82.333600
  S     -6.325710  -13.413200   84.694300
  C     -7.909050  -13.760800   85.438000
  C     -8.652170  -12.582800   85.517500
  C     -8.126040  -11.454700   84.820000
  C     -6.785430  -11.712800   84.404600
  H     -9.607730  -12.579100   86.107900
  C     -8.789130  -10.017900   84.644800
  H     -8.482480   -9.428540   83.792000
  H     -8.450090   -9.481250   85.598800
  C    -10.274300   -9.970160   84.648600
  H    -10.555100  -10.580600   85.467900
  H    -10.689500  -10.449500   83.735400
  C    -10.914300   -8.589720   84.628700
  H    -10.717500   -8.056300   85.624000
  H    -11.962300   -8.677400   84.609200
  H    -10.455000   -8.049500   83.737100
  H     -3.377970   -9.566050   81.511100
  H     -8.109260  -14.604800   86.105900

 Total Charge           Charge          ....    0
 Multiplicity           Mult            ....    1
 Number of Electrons    NEL             ....  134
 Basis Dimension        Dim             ....  322

ORBITAL ENERGIES
----------------

  NO   OCC          E(Eh)            E(eV)
   0   2.0000     -88.969678     -2420.9880
   1   2.0000     -88.967691     -2420.9340
   2   2.0000     -10.340160      -281.3701
   3   2.0000     -10.328433      -281.0510
   4   2.0000     -10.323512      -280.9170
   5   2.0000     -10.317501      -280.7535
   6   2.0000     -10.313067      -280.6328
   7   2.0000     -10.309660      -280.5401
   8   2.0000     -10.305964      -280.4395
   9   2.0000     -10.303450      -280.3711
  10   2.0000     -10.299827      -280.2725
  11   2.0000     -10.292797      -280.0812
  12   2.0000     -10.289845      -280.0009
  13   2.0000     -10.289393      -279.9886
  14   2.0000     -10.281854      -279.7835
  15   2.0000     -10.273430      -279.5543
  16   2.0000      -8.083506      -219.9634
  17   2.0000      -8.083090      -219.9521
  18   2.0000      -6.041983      -164.4107
  19   2.0000      -6.041650      -164.4017
  20   2.0000      -6.037823      -164.2975
  21   2.0000      -6.037807      -164.2971
  22   2.0000      -6.034274      -164.2010
  23   2.0000      -6.033851      -164.1894
  24   2.0000      -1.006932       -27.4000
  25   2.0000      -0.978916       -26.6377
  26   2.0000      -0.916062       -24.9273
  27   2.0000      -0.913439       -24.8559
  28   2.0000      -0.865194       -23.5431
  29   2.0000      -0.851972       -23.1833
  30   2.0000      -0.842727       -22.9318
  31   2.0000      -0.812501       -22.1093
  32   2.0000      -0.789518       -21.4839
  33   2.0000      -0.778323       -21.1792
  34   2.0000      -0.701674       -19.0935
  35   2.0000      -0.697625       -18.9833
  36   2.0000      -0.694868       -18.9083
  37   2.0000      -0.650211       -17.6931
  38   2.0000      -0.641282       -17.4502
  39   2.0000      -0.622078       -16.9276
  40   2.0000      -0.601829       -16.3766
  41   2.0000      -0.573161       -15.5965
  42   2.0000      -0.570034       -15.5114
  43   2.0000      -0.561548       -15.2805
  44   2.0000      -0.530914       -14.4469
  45   2.0000      -0.522681       -14.2229
  46   2.0000      -0.518092       -14.0980
  47   2.0000      -0.508558       -13.8386
  48   2.0000      -0.506093       -13.7715
  49   2.0000      -0.499016       -13.5789
  50   2.0000      -0.494906       -13.4671
  51   2.0000      -0.483539       -13.1578
  52   2.0000      -0.480761       -13.0822
  53   2.0000      -0.463913       -12.6237
  54   2.0000      -0.458783       -12.4841
  55   2.0000      -0.451440       -12.2843
  56   2.0000      -0.450947       -12.2709
  57   2.0000      -0.431133       -11.7317
  58   2.0000      -0.429458       -11.6861
  59   2.0000      -0.426155       -11.5963
  60   2.0000      -0.421974       -11.4825
  61   2.0000      -0.415625       -11.3097
  62   2.0000      -0.410512       -11.1706
  63   2.0000      -0.351878        -9.5751
  64   2.0000      -0.333815        -9.0836
  65   2.0000      -0.330858        -9.0031
  66   2.0000      -0.288194        -7.8421
  67   0.0000       0.021749         0.5918
  68   0.0000       0.076605         2.0845
  69   0.0000       0.096313         2.6208
  70   0.0000       0.114705         3.1213
  71   0.0000       0.125527         3.4158

MULLIKEN ATOMIC CHARGES
-----------------------
   0 S :    0.114550
   1 C :   -0.092767
   2 C :   -0.101429
   3 C :    0.000438
   4 C :   -0.109178
   5 H :    0.005369
   6 C :    0.088383
   7 H :    0.040543
   8 H :    0.013643
   9 C :   -0.101925
  10 H :    0.028733
  11 H :    0.024741
  12 C :   -0.013344
  13 H :    0.019167
  14 H :    0.021496
  15 H :    0.027251
  16 S :    0.090097
  17 C :   -0.092244
  18 C :   -0.078911
  19 C :   -0.019964
  20 C :   -0.137377
  21 H :    0.047565
  22 C :    0.009393
  23 H :    0.038141
  24 H :    0.056045
  25 C :   -0.082838
  26 H :    0.010587
  27 H :    0.033211
  28 C :   -0.044420
  29 H :    0.034374
  30 H :    0.033500
  31 H :    0.046209
  32 H :    0.017558
  33 H :    0.073401
Sum of atomic charges:   -0.0000000

LOEWDIN ATOMIC CHARGES
----------------------
   0 S :    0.433163
   1 C :   -0.183564
   2 C :   -0.048516
   3 C :   -0.073679
   4 C :   -0.216597
   5 H :    0.027208
   6 C :   -0.033340
   7 H :    0.033480
   8 H :    0.031189
   9 C :   -0.044875
  10 H :    0.024219
  11 H :    0.027659
  12 C :   -0.067331
  13 H :    0.023189
  14 H :    0.032564
  15 H :    0.017367
  16 S :    0.378382
  17 C :   -0.190367
  18 C :   -0.075173
  19 C :   -0.055338
  20 C :   -0.175642
  21 H :    0.039930
  22 C :   -0.033710
  23 H :    0.027057
  24 H :    0.040891
  25 C :   -0.052681
  26 H :    0.013595
  27 H :    0.028952
  28 C :   -0.062896
  29 H :    0.030095
  30 H :    0.021348
  31 H :    0.035201
  32 H :    0.011173
  33 H :    0.037047

  Mayer bond orders larger than 0.100000
B(  0-S ,  1-C ) :   1.1380 B(  0-S ,  4-C ) :   1.1724 B(  1-C ,  2-C ) :   1.5992
B(  1-C , 32-H ) :   0.9823 B(  2-C ,  3-C ) :   1.2555 B(  2-C ,  6-C ) :   1.0324
B(  3-C ,  4-C ) :   1.5619 B(  3-C ,  5-H ) :   0.9843 B(  4-C , 20-C ) :   1.0274
B(  6-C ,  7-H ) :   0.9444 B(  6-C ,  8-H ) :   0.9358 B(  6-C ,  9-C ) :   1.0533
B(  9-C , 10-H ) :   0.9599 B(  9-C , 11-H ) :   0.9531 B(  9-C , 12-C ) :   1.0860
B( 12-C , 13-H ) :   0.9709 B( 12-C , 14-H ) :   0.9683 B( 12-C , 15-H ) :   0.9766
B( 16-S , 17-C ) :   1.1371 B( 16-S , 20-C ) :   1.1532 B( 17-C , 18-C ) :   1.6258
B( 17-C , 20-C ) :   0.1098 B( 17-C , 33-H ) :   0.9595 B( 18-C , 19-C ) :   1.2552
B( 18-C , 21-H ) :   0.9685 B( 19-C , 20-C ) :   1.5768 B( 19-C , 22-C ) :   1.0148
B( 22-C , 23-H ) :   0.9416 B( 22-C , 24-H ) :   0.9337 B( 22-C , 25-C ) :   1.0705
B( 25-C , 26-H ) :   0.9457 B( 25-C , 27-H ) :   0.9524 B( 25-C , 28-C ) :   1.0909
B( 28-C , 29-H ) :   0.9719 B( 28-C , 30-H ) :   0.9720 B( 28-C , 31-H ) :   0.9711

Dispersion correction           -0.013600620
FINAL SINGLE POINT ENERGY     -1339.861019522456

DIPOLE MOMENT
-------------
                                X             Y             Z
Electronic contribution:     16.92969     -29.97181       3.00477
Nuclear contribution   :    -17.43817      30.67493      -2.91489
                        -----------------------------------------
Total Dipole Moment    :     -0.50849       0.70312       0.08988
                        -----------------------------------------
Magnitude (a.u.)       :      0.87237
Magnitude (Debye)      :      2.21738

Rotational constants in cm-1:     0.016028     0.009562     0.006206
Rotational constants in MHz :   480.497556   286.656789   186.047064

                             ****ORCA TERMINATED NORMALLY****
TOTAL RUN TIME: 0 days 0 hours 0 minutes 33 seconds 783 msec
