                         Program Version 4.2.1 -  RELEASE  -
|  1> ! wB97X-D3 SP def2-SVP
|  2> %pal
|  3> nprocs 16
|  4> end
|  5>
|  6> * xyz 0 1
|  7> S 	 -75.9454 	 45.4041 	 121.475
|  8> C 	 -76.0947 	 43.6551 	 121.354
|  9> C 	 -75.3795 	 43.1548 	 122.4
| 10> C 	 -74.7406 	 44.1159 	 123.245
| 11> C 	 -74.9039 	 45.4033 	 122.833
| 12> H 	 -74.1384 	 43.9303 	 124.121
| 13> C 	 -75.2703 	 41.6977 	 122.63
| 14> H 	 -75.9991 	 41.1921 	 122.032
| 15> H 	 -75.6293 	 41.5362 	 123.675
| 16> C 	 -73.9761 	 40.9116 	 122.269
| 17> H 	 -73.1828 	 41.2517 	 122.855
| 18> H 	 -73.9852 	 39.8827 	 122.439
| 19> C 	 -73.5167 	 41.0624 	 120.816
| 20> H 	 -72.4889 	 40.8188 	 120.808
| 21> H 	 -73.904 	 40.2868 	 120.241
| 22> H 	 -73.6414 	 42.0021 	 120.303
| 23> S 	 -75.9453 	 47.7511 	 123.827
| 24> C 	 -74.941 	 48.7663 	 124.793
| 25> C 	 -73.6591 	 48.2066 	 125.013
| 26> C 	 -73.4225 	 47.0346 	 124.203
| 27> C 	 -74.5662 	 46.6543 	 123.505
| 28> H 	 -72.996 	 48.8054 	 125.677
| 29> C 	 -72.1211 	 46.3216 	 124.181
| 30> H 	 -72.3407 	 45.3237 	 124.473
| 31> H 	 -71.3479 	 46.7766 	 124.899
| 32> C 	 -71.4387 	 46.1963 	 122.83
| 33> H 	 -71.743 	 46.9721 	 122.125
| 34> H 	 -71.6867 	 45.1818 	 122.368
| 35> C 	 -69.9514 	 46.2684 	 122.908
| 36> H 	 -69.6227 	 45.4536 	 123.525
| 37> H 	 -69.5741 	 47.1192 	 123.412
| 38> H 	 -69.5507 	 46.123 	 121.866
| 39> H 	 -76.6113 	 43.1033 	 120.645
| 40> H 	 -75.2053 	 49.7479 	 125.137
| 41> *
| 42>
| 43>                          ****END OF INPUT****

CARTESIAN COORDINATES (ANGSTROEM)
---------------------------------
  S    -75.945400   45.404100  121.475000
  C    -76.094700   43.655100  121.354000
  C    -75.379500   43.154800  122.400000
  C    -74.740600   44.115900  123.245000
  C    -74.903900   45.403300  122.833000
  H    -74.138400   43.930300  124.121000
  C    -75.270300   41.697700  122.630000
  H    -75.999100   41.192100  122.032000
  H    -75.629300   41.536200  123.675000
  C    -73.976100   40.911600  122.269000
  H    -73.182800   41.251700  122.855000
  H    -73.985200   39.882700  122.439000
  C    -73.516700   41.062400  120.816000
  H    -72.488900   40.818800  120.808000
  H    -73.904000   40.286800  120.241000
  H    -73.641400   42.002100  120.303000
  S    -75.945300   47.751100  123.827000
  C    -74.941000   48.766300  124.793000
  C    -73.659100   48.206600  125.013000
  C    -73.422500   47.034600  124.203000
  C    -74.566200   46.654300  123.505000
  H    -72.996000   48.805400  125.677000
  C    -72.121100   46.321600  124.181000
  H    -72.340700   45.323700  124.473000
  H    -71.347900   46.776600  124.899000
  C    -71.438700   46.196300  122.830000
  H    -71.743000   46.972100  122.125000
  H    -71.686700   45.181800  122.368000
  C    -69.951400   46.268400  122.908000
  H    -69.622700   45.453600  123.525000
  H    -69.574100   47.119200  123.412000
  H    -69.550700   46.123000  121.866000
  H    -76.611300   43.103300  120.645000
  H    -75.205300   49.747900  125.137000

 Total Charge           Charge          ....    0
 Multiplicity           Mult            ....    1
 Number of Electrons    NEL             ....  134
 Basis Dimension        Dim             ....  322

ORBITAL ENERGIES
----------------

  NO   OCC          E(Eh)            E(eV)
   0   2.0000     -88.967821     -2420.9375
   1   2.0000     -88.959659     -2420.7154
   2   2.0000     -10.329407      -281.0775
   3   2.0000     -10.326932      -281.0101
   4   2.0000     -10.319187      -280.7993
   5   2.0000     -10.309945      -280.5479
   6   2.0000     -10.309689      -280.5409
   7   2.0000     -10.302286      -280.3395
   8   2.0000     -10.297600      -280.2119
   9   2.0000     -10.292659      -280.0775
  10   2.0000     -10.290523      -280.0194
  11   2.0000     -10.287132      -279.9271
  12   2.0000     -10.282283      -279.7952
  13   2.0000     -10.277744      -279.6716
  14   2.0000     -10.272091      -279.5178
  15   2.0000     -10.263079      -279.2726
  16   2.0000      -8.082231      -219.9287
  17   2.0000      -8.075284      -219.7397
  18   2.0000      -6.040674      -164.3751
  19   2.0000      -6.036752      -164.2684
  20   2.0000      -6.033768      -164.1872
  21   2.0000      -6.033096      -164.1689
  22   2.0000      -6.029488      -164.0707
  23   2.0000      -6.026165      -163.9803
  24   2.0000      -1.012015       -27.5383
  25   2.0000      -0.985153       -26.8074
  26   2.0000      -0.917755       -24.9734
  27   2.0000      -0.913257       -24.8510
  28   2.0000      -0.872768       -23.7492
  29   2.0000      -0.858670       -23.3656
  30   2.0000      -0.845294       -23.0016
  31   2.0000      -0.818046       -22.2602
  32   2.0000      -0.785807       -21.3829
  33   2.0000      -0.775059       -21.0904
  34   2.0000      -0.713359       -19.4115
  35   2.0000      -0.703717       -19.1491
  36   2.0000      -0.687679       -18.7127
  37   2.0000      -0.659882       -17.9563
  38   2.0000      -0.646621       -17.5954
  39   2.0000      -0.622531       -16.9399
  40   2.0000      -0.598486       -16.2856
  41   2.0000      -0.571056       -15.5392
  42   2.0000      -0.568754       -15.4766
  43   2.0000      -0.554576       -15.0908
  44   2.0000      -0.545416       -14.8415
  45   2.0000      -0.528363       -14.3775
  46   2.0000      -0.525529       -14.3004
  47   2.0000      -0.522119       -14.2076
  48   2.0000      -0.506642       -13.7864
  49   2.0000      -0.497881       -13.5480
  50   2.0000      -0.493213       -13.4210
  51   2.0000      -0.483183       -13.1481
  52   2.0000      -0.470453       -12.8017
  53   2.0000      -0.467842       -12.7306
  54   2.0000      -0.460633       -12.5345
  55   2.0000      -0.449655       -12.2357
  56   2.0000      -0.443972       -12.0811
  57   2.0000      -0.436970       -11.8906
  58   2.0000      -0.433382       -11.7929
  59   2.0000      -0.425433       -11.5766
  60   2.0000      -0.413890       -11.2625
  61   2.0000      -0.410422       -11.1681
  62   2.0000      -0.406647       -11.0654
  63   2.0000      -0.348567        -9.4850
  64   2.0000      -0.331497        -9.0205
  65   2.0000      -0.326345        -8.8803
  66   2.0000      -0.293861        -7.9964
  67   0.0000       0.025738         0.7004
  68   0.0000       0.073204         1.9920
  69   0.0000       0.109392         2.9767
  70   0.0000       0.123491         3.3604
  71   0.0000       0.127535         3.4704

MULLIKEN ATOMIC CHARGES
-----------------------
   0 S :    0.084934
   1 C :   -0.081154
   2 C :   -0.100757
   3 C :    0.039641
   4 C :   -0.147139
   5 H :    0.006884
   6 C :    0.066369
   7 H :   -0.000863
   8 H :    0.035855
   9 C :   -0.014731
  10 H :    0.004664
  11 H :    0.013455
  12 C :   -0.036584
  13 H :    0.010323
  14 H :    0.008234
  15 H :    0.044090
  16 S :    0.117357
  17 C :   -0.094250
  18 C :   -0.065839
  19 C :   -0.037300
  20 C :   -0.124662
  21 H :    0.035008
  22 C :    0.083924
  23 H :    0.017389
  24 H :    0.032368
  25 C :   -0.092516
  26 H :    0.038466
  27 H :    0.040971
  28 C :   -0.046536
  29 H :    0.014989
  30 H :    0.024797
  31 H :    0.044820
  32 H :    0.023247
  33 H :    0.054545
Sum of atomic charges:   -0.0000000

LOEWDIN ATOMIC CHARGES
----------------------
   0 S :    0.411022
   1 C :   -0.179660
   2 C :   -0.065206
   3 C :   -0.069096
   4 C :   -0.200457
   5 H :    0.029270
   6 C :   -0.035465
   7 H :    0.023396
   8 H :    0.037428
   9 C :   -0.027831
  10 H :    0.011749
  11 H :    0.021381
  12 C :   -0.060127
  13 H :    0.024860
  14 H :    0.015886
  15 H :    0.026113
  16 S :    0.408839
  17 C :   -0.189470
  18 C :   -0.076608
  19 C :   -0.048705
  20 C :   -0.192533
  21 H :    0.038287
  22 C :   -0.036840
  23 H :    0.029698
  24 H :    0.039682
  25 C :   -0.046110
  26 H :    0.024262
  27 H :    0.033073
  28 C :   -0.063962
  29 H :    0.019270
  30 H :    0.015951
  31 H :    0.036196
  32 H :    0.019529
  33 H :    0.026177

  Mayer bond orders larger than 0.100000
B(  0-S ,  1-C ) :   1.1211 B(  0-S ,  4-C ) :   1.1675 B(  1-C ,  2-C ) :   1.5940
B(  1-C , 32-H ) :   0.9863 B(  2-C ,  3-C ) :   1.2287 B(  2-C ,  6-C ) :   1.0455
B(  3-C ,  4-C ) :   1.5608 B(  3-C ,  5-H ) :   0.9985 B(  4-C , 20-C ) :   1.0272
B(  6-C ,  7-H ) :   0.9384 B(  6-C ,  8-H ) :   0.9346 B(  6-C ,  9-C ) :   1.0613
B(  9-C , 10-H ) :   0.9622 B(  9-C , 11-H ) :   0.9549 B(  9-C , 12-C ) :   1.0775
B( 12-C , 13-H ) :   0.9694 B( 12-C , 14-H ) :   0.9747 B( 12-C , 15-H ) :   0.9776
B( 16-S , 17-C ) :   1.1722 B( 16-S , 20-C ) :   1.1336 B( 17-C , 18-C ) :   1.5975
B( 17-C , 20-C ) :   0.1023 B( 17-C , 33-H ) :   0.9679 B( 18-C , 19-C ) :   1.2392
B( 18-C , 21-H ) :   0.9865 B( 19-C , 20-C ) :   1.5819 B( 19-C , 22-C ) :   1.0592
B( 22-C , 23-H ) :   0.9115 B( 22-C , 24-H ) :   0.9448 B( 22-C , 25-C ) :   1.0449
B( 25-C , 26-H ) :   0.9656 B( 25-C , 27-H ) :   0.9479 B( 25-C , 28-C ) :   1.1000
B( 28-C , 29-H ) :   0.9709 B( 28-C , 30-H ) :   0.9739 B( 28-C , 31-H ) :   0.9717

Dispersion correction           -0.014382780
FINAL SINGLE POINT ENERGY     -1339.861713000296

DIPOLE MOMENT
-------------
                                X             Y             Z
Electronic contribution:    -22.35158      18.67097       2.48476
Nuclear contribution   :     22.84103     -19.05958      -2.22555
                        -----------------------------------------
Total Dipole Moment    :      0.48945      -0.38860       0.25921
                        -----------------------------------------
Magnitude (a.u.)       :      0.67659
Magnitude (Debye)      :      1.71975

Rotational constants in cm-1:     0.018437     0.009394     0.006995
Rotational constants in MHz :   552.730165   281.614635   209.711588

                             ****ORCA TERMINATED NORMALLY****
TOTAL RUN TIME: 0 days 0 hours 0 minutes 34 seconds 392 msec
