                         Program Version 4.2.1 -  RELEASE  -
|  1> ! wB97X-D3 SP def2-SVP
|  2> %pal
|  3> nprocs 16
|  4> end
|  5>
|  6> * xyz 0 1
|  7> S 	 39.9559 	 11.7224 	 79.9322
|  8> C 	 40.7751 	 10.3631 	 79.2233
|  9> C 	 41.8901 	 10.1204 	 79.9629
| 10> C 	 42.2096 	 11.0871 	 80.9545
| 11> C 	 41.2142 	 12.0451 	 81.052
| 12> H 	 43.0364 	 11.2249 	 81.623
| 13> C 	 42.6805 	 8.83196 	 79.8936
| 14> H 	 42.0842 	 8.24335 	 80.5761
| 15> H 	 43.6766 	 8.95369 	 80.192
| 16> C 	 42.6876 	 8.15317 	 78.5706
| 17> H 	 43.4041 	 7.37712 	 78.6709
| 18> H 	 41.7287 	 7.7294 	 78.443
| 19> C 	 43.1266 	 9.07936 	 77.4159
| 20> H 	 42.3824 	 9.81062 	 77.1096
| 21> H 	 44.109 	 9.5446 	 77.6288
| 22> H 	 43.3091 	 8.53191 	 76.5292
| 23> S 	 42.3957 	 14.4218 	 81.6542
| 24> C 	 42.0475 	 15.2344 	 83.1265
| 25> C 	 41.2332 	 14.5013 	 83.9536
| 26> C 	 40.7607 	 13.3551 	 83.2404
| 27> C 	 41.2809 	 13.1759 	 81.9578
| 28> H 	 40.9481 	 14.8296 	 84.9896
| 29> C 	 39.8208 	 12.4012 	 83.9216
| 30> H 	 39.5434 	 11.6583 	 83.1691
| 31> H 	 38.8662 	 12.9271 	 84.1202
| 32> C 	 40.1328 	 11.6694 	 85.2227
| 33> H 	 41.0484 	 11.1008 	 85.0124
| 34> H 	 39.3342 	 10.9236 	 85.3693
| 35> C 	 40.2585 	 12.5584 	 86.5025
| 36> H 	 41.2207 	 13.0703 	 86.5788
| 37> H 	 40.2113 	 11.8635 	 87.3766
| 38> H 	 39.3537 	 13.2436 	 86.507
| 39> H 	 40.4176 	 9.553 	 78.588
| 40> H 	 42.3545 	 16.267 	 83.2434
| 41> *
| 42>
| 43>                          ****END OF INPUT****

CARTESIAN COORDINATES (ANGSTROEM)
---------------------------------
  S     39.955900   11.722400   79.932200
  C     40.775100   10.363100   79.223300
  C     41.890100   10.120400   79.962900
  C     42.209600   11.087100   80.954500
  C     41.214200   12.045100   81.052000
  H     43.036400   11.224900   81.623000
  C     42.680500    8.831960   79.893600
  H     42.084200    8.243350   80.576100
  H     43.676600    8.953690   80.192000
  C     42.687600    8.153170   78.570600
  H     43.404100    7.377120   78.670900
  H     41.728700    7.729400   78.443000
  C     43.126600    9.079360   77.415900
  H     42.382400    9.810620   77.109600
  H     44.109000    9.544600   77.628800
  H     43.309100    8.531910   76.529200
  S     42.395700   14.421800   81.654200
  C     42.047500   15.234400   83.126500
  C     41.233200   14.501300   83.953600
  C     40.760700   13.355100   83.240400
  C     41.280900   13.175900   81.957800
  H     40.948100   14.829600   84.989600
  C     39.820800   12.401200   83.921600
  H     39.543400   11.658300   83.169100
  H     38.866200   12.927100   84.120200
  C     40.132800   11.669400   85.222700
  H     41.048400   11.100800   85.012400
  H     39.334200   10.923600   85.369300
  C     40.258500   12.558400   86.502500
  H     41.220700   13.070300   86.578800
  H     40.211300   11.863500   87.376600
  H     39.353700   13.243600   86.507000
  H     40.417600    9.553000   78.588000
  H     42.354500   16.267000   83.243400

 Total Charge           Charge          ....    0
 Multiplicity           Mult            ....    1
 Number of Electrons    NEL             ....  134
 Basis Dimension        Dim             ....  322

ORBITAL ENERGIES
----------------

  NO   OCC          E(Eh)            E(eV)
   0   2.0000     -88.965162     -2420.8651
   1   2.0000     -88.962599     -2420.7954
   2   2.0000     -10.324733      -280.9503
   3   2.0000     -10.320744      -280.8417
   4   2.0000     -10.314455      -280.6706
   5   2.0000     -10.306553      -280.4556
   6   2.0000     -10.301439      -280.3164
   7   2.0000     -10.296730      -280.1883
   8   2.0000     -10.294229      -280.1202
   9   2.0000     -10.288819      -279.9730
  10   2.0000     -10.288305      -279.9590
  11   2.0000     -10.288221      -279.9567
  12   2.0000     -10.283134      -279.8183
  13   2.0000     -10.278856      -279.7019
  14   2.0000     -10.277639      -279.6688
  15   2.0000     -10.272626      -279.5324
  16   2.0000      -8.080190      -219.8731
  17   2.0000      -8.079080      -219.8430
  18   2.0000      -6.038701      -164.3214
  19   2.0000      -6.037382      -164.2855
  20   2.0000      -6.034526      -164.2078
  21   2.0000      -6.033211      -164.1720
  22   2.0000      -6.031030      -164.1127
  23   2.0000      -6.030078      -164.0868
  24   2.0000      -1.015635       -27.6368
  25   2.0000      -0.994006       -27.0483
  26   2.0000      -0.923005       -25.1162
  27   2.0000      -0.905621       -24.6432
  28   2.0000      -0.873255       -23.7625
  29   2.0000      -0.847808       -23.0700
  30   2.0000      -0.844828       -22.9889
  31   2.0000      -0.815148       -22.1813
  32   2.0000      -0.787490       -21.4287
  33   2.0000      -0.774921       -21.0867
  34   2.0000      -0.709343       -19.3022
  35   2.0000      -0.703599       -19.1459
  36   2.0000      -0.688785       -18.7428
  37   2.0000      -0.660294       -17.9675
  38   2.0000      -0.640563       -17.4306
  39   2.0000      -0.604735       -16.4557
  40   2.0000      -0.594410       -16.1747
  41   2.0000      -0.589100       -16.0302
  42   2.0000      -0.564503       -15.3609
  43   2.0000      -0.553390       -15.0585
  44   2.0000      -0.539010       -14.6672
  45   2.0000      -0.536064       -14.5871
  46   2.0000      -0.519699       -14.1417
  47   2.0000      -0.516651       -14.0588
  48   2.0000      -0.506561       -13.7842
  49   2.0000      -0.492462       -13.4006
  50   2.0000      -0.486124       -13.2281
  51   2.0000      -0.482391       -13.1265
  52   2.0000      -0.476949       -12.9785
  53   2.0000      -0.469170       -12.7668
  54   2.0000      -0.462655       -12.5895
  55   2.0000      -0.442521       -12.0416
  56   2.0000      -0.440689       -11.9918
  57   2.0000      -0.439686       -11.9645
  58   2.0000      -0.427908       -11.6440
  59   2.0000      -0.423160       -11.5148
  60   2.0000      -0.418020       -11.3749
  61   2.0000      -0.414251       -11.2723
  62   2.0000      -0.410846       -11.1797
  63   2.0000      -0.335337        -9.1250
  64   2.0000      -0.332424        -9.0457
  65   2.0000      -0.322453        -8.7744
  66   2.0000      -0.304777        -8.2934
  67   0.0000       0.047974         1.3054
  68   0.0000       0.057385         1.5615
  69   0.0000       0.115128         3.1328
  70   0.0000       0.126449         3.4409
  71   0.0000       0.134411         3.6575

MULLIKEN ATOMIC CHARGES
-----------------------
   0 S :    0.123632
   1 C :   -0.109389
   2 C :   -0.123280
   3 C :    0.033171
   4 C :   -0.179074
   5 H :    0.008233
   6 C :    0.102364
   7 H :    0.039956
   8 H :    0.010837
   9 C :   -0.052119
  10 H :    0.019505
  11 H :    0.011712
  12 C :   -0.039669
  13 H :    0.039075
  14 H :    0.030804
  15 H :    0.016248
  16 S :    0.119722
  17 C :   -0.103002
  18 C :   -0.037009
  19 C :   -0.031535
  20 C :   -0.163656
  21 H :    0.044043
  22 C :    0.037541
  23 H :    0.015686
  24 H :    0.025069
  25 C :   -0.067803
  26 H :    0.028214
  27 H :    0.035293
  28 C :   -0.081619
  29 H :    0.050166
  30 H :    0.041047
  31 H :    0.041681
  32 H :    0.051344
  33 H :    0.062813
Sum of atomic charges:   -0.0000000

LOEWDIN ATOMIC CHARGES
----------------------
   0 S :    0.429965
   1 C :   -0.221943
   2 C :   -0.058770
   3 C :   -0.063557
   4 C :   -0.206329
   5 H :    0.031203
   6 C :   -0.024720
   7 H :    0.039953
   8 H :    0.020314
   9 C :   -0.037505
  10 H :    0.024705
  11 H :    0.014597
  12 C :   -0.063757
  13 H :    0.026718
  14 H :    0.030682
  15 H :    0.019039
  16 S :    0.445974
  17 C :   -0.190721
  18 C :   -0.078772
  19 C :   -0.054622
  20 C :   -0.227626
  21 H :    0.044585
  22 C :   -0.045938
  23 H :    0.028157
  24 H :    0.030577
  25 C :   -0.041316
  26 H :    0.023696
  27 H :    0.029610
  28 C :   -0.075562
  29 H :    0.025439
  30 H :    0.031808
  31 H :    0.030404
  32 H :    0.035665
  33 H :    0.028050

  Mayer bond orders larger than 0.100000
B(  0-S ,  1-C ) :   1.1222 B(  0-S ,  4-C ) :   1.1705 B(  1-C ,  2-C ) :   1.6260
B(  1-C , 32-H ) :   0.9582 B(  2-C ,  3-C ) :   1.2320 B(  2-C ,  6-C ) :   1.0071
B(  3-C ,  4-C ) :   1.5726 B(  3-C ,  5-H ) :   1.0041 B(  4-C , 20-C ) :   0.9990
B(  6-C ,  7-H ) :   0.9319 B(  6-C ,  8-H ) :   0.9421 B(  6-C ,  9-C ) :   1.0956
B(  9-C , 10-H ) :   0.9513 B(  9-C , 11-H ) :   0.9447 B(  9-C , 12-C ) :   1.0880
B( 12-C , 13-H ) :   0.9711 B( 12-C , 14-H ) :   0.9733 B( 12-C , 15-H ) :   0.9723
B( 16-S , 17-C ) :   1.1925 B( 16-S , 20-C ) :   1.1560 B( 17-C , 18-C ) :   1.5604
B( 17-C , 33-H ) :   0.9666 B( 18-C , 19-C ) :   1.2664 B( 18-C , 21-H ) :   0.9842
B( 19-C , 20-C ) :   1.5747 B( 19-C , 22-C ) :   1.0547 B( 22-C , 23-H ) :   0.9225
B( 22-C , 24-H ) :   0.9305 B( 22-C , 25-C ) :   1.0829 B( 25-C , 26-H ) :   0.9526
B( 25-C , 27-H ) :   0.9537 B( 25-C , 28-C ) :   1.0691 B( 28-C , 29-H ) :   0.9711
B( 28-C , 30-H ) :   0.9721 B( 28-C , 31-H ) :   0.9732

Dispersion correction           -0.014492201
FINAL SINGLE POINT ENERGY     -1339.872698311705

DIPOLE MOMENT
-------------
                                X             Y             Z
Electronic contribution:     -2.00453      16.50337      -7.05418
Nuclear contribution   :      2.15256     -16.97034       7.45583
                        -----------------------------------------
Total Dipole Moment    :      0.14803      -0.46697       0.40165
                        -----------------------------------------
Magnitude (a.u.)       :      0.63348
Magnitude (Debye)      :      1.61018

Rotational constants in cm-1:     0.023877     0.007392     0.006572
Rotational constants in MHz :   715.807324   221.607865   197.027103

                             ****ORCA TERMINATED NORMALLY****
TOTAL RUN TIME: 0 days 0 hours 0 minutes 30 seconds 382 msec
