                         Program Version 4.2.1 -  RELEASE  -
|  1> ! wB97X-D3 SP def2-SVP
|  2> %pal
|  3> nprocs 16
|  4> end
|  5>
|  6> * xyz 0 1
|  7> S 	 -8.30274 	 41.4146 	 35.2295
|  8> C 	 -8.64411 	 40.4674 	 33.7691
|  9> C 	 -8.0261 	 41.0873 	 32.6807
| 10> C 	 -7.18879 	 42.185 	 33.0562
| 11> C 	 -7.23803 	 42.5403 	 34.4176
| 12> H 	 -6.69713 	 42.8523 	 32.458
| 13> C 	 -8.12486 	 40.7869 	 31.208
| 14> H 	 -8.37973 	 41.748 	 30.6994
| 15> H 	 -9.0851 	 40.3031 	 30.9842
| 16> C 	 -6.87374 	 39.9987 	 30.4869
| 17> H 	 -6.11434 	 40.7748 	 30.4673
| 18> H 	 -6.53563 	 39.1399 	 31.0752
| 19> C 	 -7.12439 	 39.5576 	 29.0091
| 20> H 	 -7.40534 	 40.3563 	 28.4725
| 21> H 	 -6.18279 	 39.1625 	 28.6426
| 22> H 	 -7.89741 	 38.8124 	 28.8937
| 23> S 	 -8.08125 	 44.6482 	 35.988
| 24> C 	 -7.03889 	 45.9759 	 36.2164
| 25> C 	 -5.85131 	 45.8968 	 35.4986
| 26> C 	 -5.69773 	 44.6128 	 34.8119
| 27> C 	 -6.89879 	 43.8389 	 34.9177
| 28> H 	 -5.14637 	 46.7 	 35.5917
| 29> C 	 -4.37737 	 44.1938 	 34.1675
| 30> H 	 -3.74474 	 45.0976 	 34.0845
| 31> H 	 -4.63158 	 43.8292 	 33.1064
| 32> C 	 -3.61302 	 43.0389 	 34.9125
| 33> H 	 -4.16331 	 42.1114 	 34.7892
| 34> H 	 -3.67134 	 43.1456 	 36.0229
| 35> C 	 -2.18405 	 42.8709 	 34.3929
| 36> H 	 -2.279 	 42.4411 	 33.3895
| 37> H 	 -1.44749 	 42.3721 	 35.0258
| 38> H 	 -1.89976 	 43.9295 	 34.3266
| 39> H 	 -9.31689 	 39.6321 	 33.7513
| 40> H 	 -7.42602 	 46.8763 	 36.6499
| 41> *
| 42>
| 43>                          ****END OF INPUT****

CARTESIAN COORDINATES (ANGSTROEM)
---------------------------------
  S     -8.302740   41.414600   35.229500
  C     -8.644110   40.467400   33.769100
  C     -8.026100   41.087300   32.680700
  C     -7.188790   42.185000   33.056200
  C     -7.238030   42.540300   34.417600
  H     -6.697130   42.852300   32.458000
  C     -8.124860   40.786900   31.208000
  H     -8.379730   41.748000   30.699400
  H     -9.085100   40.303100   30.984200
  C     -6.873740   39.998700   30.486900
  H     -6.114340   40.774800   30.467300
  H     -6.535630   39.139900   31.075200
  C     -7.124390   39.557600   29.009100
  H     -7.405340   40.356300   28.472500
  H     -6.182790   39.162500   28.642600
  H     -7.897410   38.812400   28.893700
  S     -8.081250   44.648200   35.988000
  C     -7.038890   45.975900   36.216400
  C     -5.851310   45.896800   35.498600
  C     -5.697730   44.612800   34.811900
  C     -6.898790   43.838900   34.917700
  H     -5.146370   46.700000   35.591700
  C     -4.377370   44.193800   34.167500
  H     -3.744740   45.097600   34.084500
  H     -4.631580   43.829200   33.106400
  C     -3.613020   43.038900   34.912500
  H     -4.163310   42.111400   34.789200
  H     -3.671340   43.145600   36.022900
  C     -2.184050   42.870900   34.392900
  H     -2.279000   42.441100   33.389500
  H     -1.447490   42.372100   35.025800
  H     -1.899760   43.929500   34.326600
  H     -9.316890   39.632100   33.751300
  H     -7.426020   46.876300   36.649900

 Total Charge           Charge          ....    0
 Multiplicity           Mult            ....    1
 Number of Electrons    NEL             ....  134
 Basis Dimension        Dim             ....  322

ORBITAL ENERGIES
----------------

  NO   OCC          E(Eh)            E(eV)
   0   2.0000     -88.967539     -2420.9298
   1   2.0000     -88.966838     -2420.9107
   2   2.0000     -10.333616      -281.1920
   3   2.0000     -10.329918      -281.0914
   4   2.0000     -10.319675      -280.8126
   5   2.0000     -10.314790      -280.6797
   6   2.0000     -10.313191      -280.6362
   7   2.0000     -10.306591      -280.4566
   8   2.0000     -10.306283      -280.4482
   9   2.0000     -10.299521      -280.2642
  10   2.0000     -10.297867      -280.2192
  11   2.0000     -10.297762      -280.2164
  12   2.0000     -10.288105      -279.9536
  13   2.0000     -10.286335      -279.9054
  14   2.0000     -10.278288      -279.6864
  15   2.0000     -10.272308      -279.5237
  16   2.0000      -8.082476      -219.9353
  17   2.0000      -8.081021      -219.8958
  18   2.0000      -6.040896      -164.3811
  19   2.0000      -6.039650      -164.3472
  20   2.0000      -6.036874      -164.2717
  21   2.0000      -6.035411      -164.2319
  22   2.0000      -6.033400      -164.1772
  23   2.0000      -6.031878      -164.1357
  24   2.0000      -1.003108       -27.2959
  25   2.0000      -0.978784       -26.6341
  26   2.0000      -0.904302       -24.6073
  27   2.0000      -0.899250       -24.4698
  28   2.0000      -0.869824       -23.6691
  29   2.0000      -0.853434       -23.2231
  30   2.0000      -0.846546       -23.0357
  31   2.0000      -0.810932       -22.0666
  32   2.0000      -0.780055       -21.2264
  33   2.0000      -0.768280       -20.9060
  34   2.0000      -0.708545       -19.2805
  35   2.0000      -0.704898       -19.1813
  36   2.0000      -0.689774       -18.7697
  37   2.0000      -0.663339       -18.0504
  38   2.0000      -0.645317       -17.5600
  39   2.0000      -0.616463       -16.7748
  40   2.0000      -0.591834       -16.1046
  41   2.0000      -0.566336       -15.4108
  42   2.0000      -0.562415       -15.3041
  43   2.0000      -0.552548       -15.0356
  44   2.0000      -0.527512       -14.3543
  45   2.0000      -0.526639       -14.3306
  46   2.0000      -0.517360       -14.0781
  47   2.0000      -0.516504       -14.0548
  48   2.0000      -0.505391       -13.7524
  49   2.0000      -0.502148       -13.6641
  50   2.0000      -0.485890       -13.2217
  51   2.0000      -0.481749       -13.1090
  52   2.0000      -0.470255       -12.7963
  53   2.0000      -0.462171       -12.5763
  54   2.0000      -0.455685       -12.3998
  55   2.0000      -0.450545       -12.2600
  56   2.0000      -0.444280       -12.0895
  57   2.0000      -0.437688       -11.9101
  58   2.0000      -0.429729       -11.6935
  59   2.0000      -0.426298       -11.6002
  60   2.0000      -0.422616       -11.5000
  61   2.0000      -0.412099       -11.2138
  62   2.0000      -0.411797       -11.2056
  63   2.0000      -0.354364        -9.6427
  64   2.0000      -0.330783        -9.0011
  65   2.0000      -0.328072        -8.9273
  66   2.0000      -0.281793        -7.6680
  67   0.0000       0.019264         0.5242
  68   0.0000       0.069324         1.8864
  69   0.0000       0.111103         3.0233
  70   0.0000       0.118324         3.2198
  71   0.0000       0.126013         3.4290

MULLIKEN ATOMIC CHARGES
-----------------------
   0 S :    0.090066
   1 C :   -0.113812
   2 C :   -0.061532
   3 C :    0.047495
   4 C :   -0.127360
   5 H :   -0.022715
   6 C :    0.018851
   7 H :    0.033162
   8 H :    0.009638
   9 C :   -0.077045
  10 H :    0.028903
  11 H :    0.045497
  12 C :   -0.002150
  13 H :    0.005017
  14 H :    0.035341
  15 H :    0.030284
  16 S :    0.112453
  17 C :   -0.094926
  18 C :   -0.027421
  19 C :   -0.048541
  20 C :   -0.153390
  21 H :    0.017541
  22 C :    0.024810
  23 H :    0.028480
  24 H :    0.042707
  25 C :   -0.090259
  26 H :    0.034968
  27 H :    0.036916
  28 C :   -0.034043
  29 H :    0.037512
  30 H :    0.047109
  31 H :    0.020191
  32 H :    0.048030
  33 H :    0.058225
Sum of atomic charges:   -0.0000000

LOEWDIN ATOMIC CHARGES
----------------------
   0 S :    0.397764
   1 C :   -0.187755
   2 C :   -0.062129
   3 C :   -0.050383
   4 C :   -0.197527
   5 H :    0.011899
   6 C :   -0.046123
   7 H :    0.037177
   8 H :    0.024299
   9 C :   -0.026724
  10 H :    0.021482
  11 H :    0.026776
  12 C :   -0.051584
  13 H :    0.007876
  14 H :    0.030756
  15 H :    0.024456
  16 S :    0.415068
  17 C :   -0.199538
  18 C :   -0.070572
  19 C :   -0.051566
  20 C :   -0.188082
  21 H :    0.029114
  22 C :   -0.036125
  23 H :    0.029848
  24 H :    0.038540
  25 C :   -0.046420
  26 H :    0.022735
  27 H :    0.027809
  28 C :   -0.067619
  29 H :    0.029117
  30 H :    0.029127
  31 H :    0.025230
  32 H :    0.027836
  33 H :    0.025236

  Mayer bond orders larger than 0.100000
B(  0-S ,  1-C ) :   1.1318 B(  0-S ,  4-C ) :   1.1494 B(  1-C ,  2-C ) :   1.5725
B(  1-C , 32-H ) :   0.9786 B(  2-C ,  3-C ) :   1.2649 B(  2-C ,  6-C ) :   1.0343
B(  3-C ,  4-C ) :   1.5262 B(  3-C ,  5-H ) :   0.9996 B(  4-C , 20-C ) :   1.0998
B(  6-C ,  7-H ) :   0.9417 B(  6-C ,  8-H ) :   0.9450 B(  6-C ,  9-C ) :   1.0282
B(  9-C , 10-H ) :   0.9596 B(  9-C , 11-H ) :   0.9647 B(  9-C , 12-C ) :   1.0804
B( 12-C , 13-H ) :   0.9751 B( 12-C , 14-H ) :   0.9741 B( 12-C , 15-H ) :   0.9775
B( 16-S , 17-C ) :   1.1732 B( 16-S , 20-C ) :   1.1383 B( 17-C , 18-C ) :   1.6020
B( 17-C , 33-H ) :   0.9635 B( 18-C , 19-C ) :   1.2478 B( 18-C , 21-H ) :   0.9912
B( 19-C , 20-C ) :   1.5522 B( 19-C , 22-C ) :   1.0502 B( 22-C , 23-H ) :   0.9389
B( 22-C , 24-H ) :   0.9310 B( 22-C , 25-C ) :   1.0463 B( 25-C , 26-H ) :   0.9537
B( 25-C , 27-H ) :   0.9595 B( 25-C , 28-C ) :   1.0685 B( 28-C , 29-H ) :   0.9746
B( 28-C , 30-H ) :   0.9754 B( 28-C , 31-H ) :   0.9780

Dispersion correction           -0.013716386
FINAL SINGLE POINT ENERGY     -1339.860508875310

DIPOLE MOMENT
-------------
                                X             Y             Z
Electronic contribution:    -18.47359       9.03894      21.76845
Nuclear contribution   :     18.71440      -8.95161     -22.33067
                        -----------------------------------------
Total Dipole Moment    :      0.24081       0.08733      -0.56222
                        -----------------------------------------
Magnitude (a.u.)       :      0.61782
Magnitude (Debye)      :      1.57038

Rotational constants in cm-1:     0.016997     0.008436     0.006504
Rotational constants in MHz :   509.565468   252.896535   194.986592

                             ****ORCA TERMINATED NORMALLY****
TOTAL RUN TIME: 0 days 0 hours 0 minutes 32 seconds 256 msec
