                         Program Version 4.2.1 -  RELEASE  -
|  1> ! wB97X-D3 SP def2-SVP
|  2> %pal
|  3> nprocs 16
|  4> end
|  5>
|  6> * xyz 0 1
|  7> S 	 31.1102 	 2.70892 	 63.6286
|  8> C 	 31.8969 	 4.2091 	 63.3645
|  9> C 	 31.474 	 5.12666 	 64.3192
| 10> C 	 30.6658 	 4.58267 	 65.3474
| 11> C 	 30.2065 	 3.28541 	 65.0497
| 12> H 	 30.1711 	 5.13022 	 66.1435
| 13> C 	 31.9693 	 6.51608 	 64.38
| 14> H 	 32.8273 	 6.67859 	 63.7489
| 15> H 	 32.4237 	 6.5564 	 65.3862
| 16> C 	 30.879 	 7.58015 	 64.2292
| 17> H 	 30.2649 	 7.47231 	 65.1364
| 18> H 	 31.2748 	 8.64114 	 64.2102
| 19> C 	 30.0337 	 7.56509 	 62.9136
| 20> H 	 29.8113 	 6.48165 	 62.7842
| 21> H 	 29.0846 	 8.08986 	 63.1043
| 22> H 	 30.484 	 8.03022 	 62.0371
| 23> S 	 29.1391 	 0.742591 	 65.3114
| 24> C 	 27.7906 	 0.443978 	 66.4063
| 25> C 	 27.6701 	 1.51499 	 67.2693
| 26> C 	 28.4164 	 2.67607 	 66.8403
| 27> C 	 29.2468 	 2.41609 	 65.7832
| 28> H 	 26.9875 	 1.52889 	 68.1076
| 29> C 	 28.1801 	 3.97305 	 67.517
| 30> H 	 29.0696 	 4.39901 	 67.8934
| 31> H 	 27.5772 	 3.77683 	 68.3695
| 32> C 	 27.3479 	 5.05928 	 66.7182
| 33> H 	 26.341 	 4.67905 	 66.7014
| 34> H 	 27.6995 	 5.06676 	 65.7097
| 35> C 	 27.298 	 6.46425 	 67.3362
| 36> H 	 27.3716 	 6.3714 	 68.3974
| 37> H 	 26.3424 	 6.90848 	 67.0748
| 38> H 	 28.0932 	 7.19625 	 66.991
| 39> H 	 32.7072 	 4.40894 	 62.5868
| 40> H 	 27.2877 	 -0.506349 	 66.5282
| 41> *
| 42>
| 43>                          ****END OF INPUT****

CARTESIAN COORDINATES (ANGSTROEM)
---------------------------------
  S     31.110200    2.708920   63.628600
  C     31.896900    4.209100   63.364500
  C     31.474000    5.126660   64.319200
  C     30.665800    4.582670   65.347400
  C     30.206500    3.285410   65.049700
  H     30.171100    5.130220   66.143500
  C     31.969300    6.516080   64.380000
  H     32.827300    6.678590   63.748900
  H     32.423700    6.556400   65.386200
  C     30.879000    7.580150   64.229200
  H     30.264900    7.472310   65.136400
  H     31.274800    8.641140   64.210200
  C     30.033700    7.565090   62.913600
  H     29.811300    6.481650   62.784200
  H     29.084600    8.089860   63.104300
  H     30.484000    8.030220   62.037100
  S     29.139100    0.742591   65.311400
  C     27.790600    0.443978   66.406300
  C     27.670100    1.514990   67.269300
  C     28.416400    2.676070   66.840300
  C     29.246800    2.416090   65.783200
  H     26.987500    1.528890   68.107600
  C     28.180100    3.973050   67.517000
  H     29.069600    4.399010   67.893400
  H     27.577200    3.776830   68.369500
  C     27.347900    5.059280   66.718200
  H     26.341000    4.679050   66.701400
  H     27.699500    5.066760   65.709700
  C     27.298000    6.464250   67.336200
  H     27.371600    6.371400   68.397400
  H     26.342400    6.908480   67.074800
  H     28.093200    7.196250   66.991000
  H     32.707200    4.408940   62.586800
  H     27.287700   -0.506349   66.528200

 Total Charge           Charge          ....    0
 Multiplicity           Mult            ....    1
 Number of Electrons    NEL             ....  134
 Basis Dimension        Dim             ....  322

ORBITAL ENERGIES
----------------

  NO   OCC          E(Eh)            E(eV)
   0   2.0000     -88.966962     -2420.9141
   1   2.0000     -88.966364     -2420.8978
   2   2.0000     -10.340496      -281.3792
   3   2.0000     -10.331649      -281.1385
   4   2.0000     -10.322109      -280.8789
   5   2.0000     -10.318379      -280.7774
   6   2.0000     -10.302313      -280.3402
   7   2.0000     -10.298632      -280.2400
   8   2.0000     -10.298304      -280.2311
   9   2.0000     -10.297153      -280.1998
  10   2.0000     -10.292389      -280.0702
  11   2.0000     -10.287182      -279.9285
  12   2.0000     -10.286785      -279.9176
  13   2.0000     -10.285843      -279.8920
  14   2.0000     -10.283876      -279.8385
  15   2.0000     -10.278370      -279.6887
  16   2.0000      -8.081617      -219.9120
  17   2.0000      -8.081160      -219.8996
  18   2.0000      -6.040173      -164.3615
  19   2.0000      -6.039812      -164.3517
  20   2.0000      -6.035976      -164.2473
  21   2.0000      -6.035729      -164.2405
  22   2.0000      -6.032489      -164.1524
  23   2.0000      -6.031699      -164.1309
  24   2.0000      -1.008819       -27.4514
  25   2.0000      -0.988524       -26.8991
  26   2.0000      -0.912104       -24.8196
  27   2.0000      -0.909728       -24.7549
  28   2.0000      -0.867699       -23.6113
  29   2.0000      -0.855168       -23.2703
  30   2.0000      -0.843949       -22.9650
  31   2.0000      -0.817676       -22.2501
  32   2.0000      -0.782921       -21.3044
  33   2.0000      -0.772820       -21.0295
  34   2.0000      -0.710125       -19.3235
  35   2.0000      -0.698827       -19.0160
  36   2.0000      -0.689461       -18.7612
  37   2.0000      -0.667960       -18.1761
  38   2.0000      -0.636190       -17.3116
  39   2.0000      -0.624371       -16.9900
  40   2.0000      -0.599720       -16.3192
  41   2.0000      -0.567676       -15.4473
  42   2.0000      -0.566563       -15.4170
  43   2.0000      -0.548740       -14.9320
  44   2.0000      -0.539761       -14.6876
  45   2.0000      -0.525828       -14.3085
  46   2.0000      -0.522079       -14.2065
  47   2.0000      -0.512680       -13.9507
  48   2.0000      -0.507288       -13.8040
  49   2.0000      -0.501072       -13.6349
  50   2.0000      -0.491885       -13.3849
  51   2.0000      -0.486239       -13.2312
  52   2.0000      -0.478013       -13.0074
  53   2.0000      -0.468198       -12.7403
  54   2.0000      -0.459402       -12.5010
  55   2.0000      -0.451089       -12.2748
  56   2.0000      -0.443739       -12.0748
  57   2.0000      -0.434540       -11.8244
  58   2.0000      -0.430796       -11.7226
  59   2.0000      -0.427860       -11.6427
  60   2.0000      -0.420771       -11.4497
  61   2.0000      -0.415900       -11.3172
  62   2.0000      -0.399788       -10.8788
  63   2.0000      -0.363727        -9.8975
  64   2.0000      -0.334951        -9.1145
  65   2.0000      -0.326475        -8.8838
  66   2.0000      -0.284012        -7.7284
  67   0.0000       0.015836         0.4309
  68   0.0000       0.087255         2.3743
  69   0.0000       0.096469         2.6251
  70   0.0000       0.118175         3.2157
  71   0.0000       0.119160         3.2425

MULLIKEN ATOMIC CHARGES
-----------------------
   0 S :    0.100143
   1 C :   -0.127125
   2 C :   -0.122567
   3 C :    0.020463
   4 C :   -0.130302
   5 H :    0.006773
   6 C :    0.084694
   7 H :    0.006962
   8 H :    0.035437
   9 C :   -0.105044
  10 H :    0.029432
  11 H :    0.035771
  12 C :   -0.066650
  13 H :    0.048476
  14 H :    0.035961
  15 H :    0.041616
  16 S :    0.093066
  17 C :   -0.088161
  18 C :   -0.013673
  19 C :   -0.099519
  20 C :   -0.083931
  21 H :    0.018402
  22 C :    0.066908
  23 H :    0.023892
  24 H :   -0.001860
  25 C :   -0.068404
  26 H :    0.023316
  27 H :    0.033613
  28 C :   -0.050819
  29 H :    0.025822
  30 H :    0.037111
  31 H :    0.046767
  32 H :    0.080413
  33 H :    0.063017
Sum of atomic charges:   -0.0000000

LOEWDIN ATOMIC CHARGES
----------------------
   0 S :    0.406863
   1 C :   -0.221326
   2 C :   -0.072730
   3 C :   -0.069835
   4 C :   -0.171691
   5 H :    0.030199
   6 C :   -0.039242
   7 H :    0.023564
   8 H :    0.040415
   9 C :   -0.047117
  10 H :    0.021979
  11 H :    0.029443
  12 C :   -0.071567
  13 H :    0.030381
  14 H :    0.029323
  15 H :    0.024941
  16 S :    0.398441
  17 C :   -0.176795
  18 C :   -0.063434
  19 C :   -0.061398
  20 C :   -0.191545
  21 H :    0.030003
  22 C :   -0.031813
  23 H :    0.020273
  24 H :    0.025509
  25 C :   -0.032937
  26 H :    0.024536
  27 H :    0.019158
  28 C :   -0.067209
  29 H :    0.020799
  30 H :    0.029774
  31 H :    0.031207
  32 H :    0.049663
  33 H :    0.032169

  Mayer bond orders larger than 0.100000
B(  0-S ,  1-C ) :   1.1446 B(  0-S ,  4-C ) :   1.1605 B(  1-C ,  2-C ) :   1.5741
B(  1-C ,  4-C ) :   0.1013 B(  1-C , 32-H ) :   0.9588 B(  2-C ,  3-C ) :   1.2660
B(  2-C ,  6-C ) :   1.0272 B(  3-C ,  4-C ) :   1.5425 B(  3-C ,  5-H ) :   0.9787
B(  4-C , 20-C ) :   1.0721 B(  6-C ,  7-H ) :   0.9440 B(  6-C ,  8-H ) :   0.9392
B(  6-C ,  9-C ) :   1.0607 B(  9-C , 10-H ) :   0.9584 B(  9-C , 11-H ) :   0.9575
B(  9-C , 12-C ) :   1.0678 B( 12-C , 13-H ) :   0.9762 B( 12-C , 14-H ) :   0.9736
B( 12-C , 15-H ) :   0.9769 B( 16-S , 17-C ) :   1.1480 B( 16-S , 20-C ) :   1.1256
B( 17-C , 18-C ) :   1.6080 B( 17-C , 33-H ) :   0.9693 B( 18-C , 19-C ) :   1.2518
B( 18-C , 21-H ) :   0.9845 B( 19-C , 20-C ) :   1.5997 B( 19-C , 22-C ) :   1.0648
B( 22-C , 23-H ) :   0.9295 B( 22-C , 24-H ) :   0.9173 B( 22-C , 25-C ) :   1.0534
B( 25-C , 26-H ) :   0.9564 B( 25-C , 27-H ) :   0.9632 B( 25-C , 28-C ) :   1.0723
B( 28-C , 29-H ) :   0.9736 B( 28-C , 30-H ) :   0.9750 B( 28-C , 31-H ) :   0.9739

Dispersion correction           -0.015163819
FINAL SINGLE POINT ENERGY     -1339.880154817381

DIPOLE MOMENT
-------------
                                X             Y             Z
Electronic contribution:      7.05434     -30.20390      -5.37816
Nuclear contribution   :     -7.29858      30.72648       5.77844
                        -----------------------------------------
Total Dipole Moment    :     -0.24424       0.52258       0.40028
                        -----------------------------------------
Magnitude (a.u.)       :      0.70211
Magnitude (Debye)      :      1.78463

Rotational constants in cm-1:     0.018246     0.010355     0.007093
Rotational constants in MHz :   546.995877   310.448365   212.639794

                             ****ORCA TERMINATED NORMALLY****
TOTAL RUN TIME: 0 days 0 hours 0 minutes 31 seconds 773 msec
