                         Program Version 4.2.1 -  RELEASE  -
|  1> ! wB97X-D3 SP def2-SVP
|  2> %pal
|  3> nprocs 16
|  4> end
|  5>
|  6> * xyz 0 1
|  7> S 	 -15.5777 	 44.7377 	 31.3602
|  8> C 	 -13.8398 	 44.973 	 31.4511
|  9> C 	 -13.2283 	 43.7078 	 31.3025
| 10> C 	 -14.1804 	 42.6586 	 31.2401
| 11> C 	 -15.4769 	 43.0477 	 31.146
| 12> H 	 -13.9272 	 41.6186 	 31.2618
| 13> C 	 -11.6948 	 43.415 	 31.1903
| 14> H 	 -11.0833 	 44.034 	 30.4326
| 15> H 	 -11.5387 	 42.4796 	 30.7266
| 16> C 	 -11.0248 	 43.6362 	 32.5374
| 17> H 	 -11.4582 	 42.8957 	 33.1521
| 18> H 	 -10.0596 	 43.1582 	 32.467
| 19> C 	 -10.9923 	 45.0465 	 33.0455
| 20> H 	 -10.6747 	 45.7623 	 32.2696
| 21> H 	 -11.9546 	 45.3778 	 33.5203
| 22> H 	 -10.2561 	 45.0889 	 33.8208
| 23> S 	 -17.3773 	 42.2167 	 32.8999
| 24> C 	 -18.4363 	 40.9048 	 32.5319
| 25> C 	 -18.4135 	 40.7113 	 31.1678
| 26> C 	 -17.2474 	 41.2317 	 30.5019
| 27> C 	 -16.611 	 42.1622 	 31.3108
| 28> H 	 -19.1757 	 40.1197 	 30.6923
| 29> C 	 -16.9338 	 40.9826 	 29.0392
| 30> H 	 -16.5876 	 41.8356 	 28.4226
| 31> H 	 -17.7403 	 40.6177 	 28.4849
| 32> C 	 -15.8939 	 39.8441 	 28.8407
| 33> H 	 -16.2061 	 38.9724 	 29.2535
| 34> H 	 -15.0823 	 40.2117 	 29.5126
| 35> C 	 -15.3127 	 39.652 	 27.396
| 36> H 	 -14.8397 	 40.4944 	 26.928
| 37> H 	 -16.048 	 39.3121 	 26.6657
| 38> H 	 -14.6636 	 38.8001 	 27.5077
| 39> H 	 -13.3451 	 45.9334 	 31.6482
| 40> H 	 -19.2955 	 40.5488 	 33.1722
| 41> *
| 42>
| 43>                          ****END OF INPUT****

CARTESIAN COORDINATES (ANGSTROEM)
---------------------------------
  S    -15.577700   44.737700   31.360200
  C    -13.839800   44.973000   31.451100
  C    -13.228300   43.707800   31.302500
  C    -14.180400   42.658600   31.240100
  C    -15.476900   43.047700   31.146000
  H    -13.927200   41.618600   31.261800
  C    -11.694800   43.415000   31.190300
  H    -11.083300   44.034000   30.432600
  H    -11.538700   42.479600   30.726600
  C    -11.024800   43.636200   32.537400
  H    -11.458200   42.895700   33.152100
  H    -10.059600   43.158200   32.467000
  C    -10.992300   45.046500   33.045500
  H    -10.674700   45.762300   32.269600
  H    -11.954600   45.377800   33.520300
  H    -10.256100   45.088900   33.820800
  S    -17.377300   42.216700   32.899900
  C    -18.436300   40.904800   32.531900
  C    -18.413500   40.711300   31.167800
  C    -17.247400   41.231700   30.501900
  C    -16.611000   42.162200   31.310800
  H    -19.175700   40.119700   30.692300
  C    -16.933800   40.982600   29.039200
  H    -16.587600   41.835600   28.422600
  H    -17.740300   40.617700   28.484900
  C    -15.893900   39.844100   28.840700
  H    -16.206100   38.972400   29.253500
  H    -15.082300   40.211700   29.512600
  C    -15.312700   39.652000   27.396000
  H    -14.839700   40.494400   26.928000
  H    -16.048000   39.312100   26.665700
  H    -14.663600   38.800100   27.507700
  H    -13.345100   45.933400   31.648200
  H    -19.295500   40.548800   33.172200

 Total Charge           Charge          ....    0
 Multiplicity           Mult            ....    1
 Number of Electrons    NEL             ....  134
 Basis Dimension        Dim             ....  322

ORBITAL ENERGIES
----------------

  NO   OCC          E(Eh)            E(eV)
   0   2.0000     -88.966096     -2420.8906
   1   2.0000     -88.961769     -2420.7728
   2   2.0000     -10.327319      -281.0206
   3   2.0000     -10.321419      -280.8601
   4   2.0000     -10.320287      -280.8293
   5   2.0000     -10.317727      -280.7596
   6   2.0000     -10.306821      -280.4629
   7   2.0000     -10.305464      -280.4259
   8   2.0000     -10.294690      -280.1328
   9   2.0000     -10.293416      -280.0981
  10   2.0000     -10.287941      -279.9491
  11   2.0000     -10.286255      -279.9032
  12   2.0000     -10.281432      -279.7720
  13   2.0000     -10.280600      -279.7494
  14   2.0000     -10.277420      -279.6628
  15   2.0000     -10.277282      -279.6591
  16   2.0000      -8.081352      -219.9048
  17   2.0000      -8.076920      -219.7842
  18   2.0000      -6.039804      -164.3514
  19   2.0000      -6.035599      -164.2370
  20   2.0000      -6.035401      -164.2316
  21   2.0000      -6.032305      -164.1474
  22   2.0000      -6.031434      -164.1237
  23   2.0000      -6.027573      -164.0186
  24   2.0000      -1.012248       -27.5447
  25   2.0000      -0.986872       -26.8542
  26   2.0000      -0.914070       -24.8731
  27   2.0000      -0.905486       -24.6395
  28   2.0000      -0.869288       -23.6545
  29   2.0000      -0.848883       -23.0993
  30   2.0000      -0.845104       -22.9965
  31   2.0000      -0.810263       -22.0484
  32   2.0000      -0.787370       -21.4254
  33   2.0000      -0.778557       -21.1856
  34   2.0000      -0.706137       -19.2150
  35   2.0000      -0.700878       -19.0719
  36   2.0000      -0.692926       -18.8555
  37   2.0000      -0.659677       -17.9507
  38   2.0000      -0.645850       -17.5745
  39   2.0000      -0.620003       -16.8711
  40   2.0000      -0.599074       -16.3016
  41   2.0000      -0.574375       -15.6295
  42   2.0000      -0.562184       -15.2978
  43   2.0000      -0.551368       -15.0035
  44   2.0000      -0.537136       -14.6162
  45   2.0000      -0.525070       -14.2879
  46   2.0000      -0.515617       -14.0306
  47   2.0000      -0.512397       -13.9430
  48   2.0000      -0.503839       -13.7102
  49   2.0000      -0.496787       -13.5183
  50   2.0000      -0.486877       -13.2486
  51   2.0000      -0.484809       -13.1923
  52   2.0000      -0.475938       -12.9509
  53   2.0000      -0.470089       -12.7918
  54   2.0000      -0.459348       -12.4995
  55   2.0000      -0.446925       -12.1614
  56   2.0000      -0.443513       -12.0686
  57   2.0000      -0.441205       -12.0058
  58   2.0000      -0.436290       -11.8720
  59   2.0000      -0.424682       -11.5562
  60   2.0000      -0.414733       -11.2855
  61   2.0000      -0.406517       -11.0619
  62   2.0000      -0.404546       -11.0083
  63   2.0000      -0.340989        -9.2788
  64   2.0000      -0.326979        -8.8976
  65   2.0000      -0.323438        -8.8012
  66   2.0000      -0.302045        -8.2191
  67   0.0000       0.037755         1.0274
  68   0.0000       0.056746         1.5441
  69   0.0000       0.113939         3.1004
  70   0.0000       0.121343         3.3019
  71   0.0000       0.137183         3.7329

MULLIKEN ATOMIC CHARGES
-----------------------
   0 S :    0.111084
   1 C :   -0.143305
   2 C :   -0.070898
   3 C :    0.032033
   4 C :   -0.136709
   5 H :    0.014023
   6 C :    0.031925
   7 H :    0.035030
   8 H :    0.006597
   9 C :   -0.038350
  10 H :    0.007563
  11 H :    0.012310
  12 C :   -0.033348
  13 H :    0.033443
  14 H :    0.051193
  15 H :    0.028320
  16 S :    0.110324
  17 C :   -0.110029
  18 C :   -0.038631
  19 C :   -0.023269
  20 C :   -0.167922
  21 H :    0.017084
  22 C :    0.087691
  23 H :    0.034731
  24 H :   -0.004273
  25 C :   -0.084144
  26 H :    0.004334
  27 H :    0.018046
  28 C :   -0.027195
  29 H :    0.037762
  30 H :    0.023396
  31 H :    0.031462
  32 H :    0.067126
  33 H :    0.082592
Sum of atomic charges:    0.0000000

LOEWDIN ATOMIC CHARGES
----------------------
   0 S :    0.429158
   1 C :   -0.200287
   2 C :   -0.057641
   3 C :   -0.059330
   4 C :   -0.222224
   5 H :    0.027877
   6 C :   -0.033722
   7 H :    0.035217
   8 H :    0.021223
   9 C :   -0.047592
  10 H :    0.020917
  11 H :    0.023431
  12 C :   -0.065201
  13 H :    0.028140
  14 H :    0.034260
  15 H :    0.027116
  16 S :    0.410684
  17 C :   -0.208398
  18 C :   -0.068421
  19 C :   -0.052883
  20 C :   -0.187391
  21 H :    0.026926
  22 C :   -0.031210
  23 H :    0.035558
  24 H :    0.018535
  25 C :   -0.028847
  26 H :    0.006783
  27 H :    0.023784
  28 C :   -0.063818
  29 H :    0.024612
  30 H :    0.023609
  31 H :    0.029146
  32 H :    0.034768
  33 H :    0.045220

  Mayer bond orders larger than 0.100000
B(  0-S ,  1-C ) :   1.1576 B(  0-S ,  4-C ) :   1.1636 B(  1-C ,  2-C ) :   1.5633
B(  1-C , 32-H ) :   0.9675 B(  2-C ,  3-C ) :   1.2853 B(  2-C ,  6-C ) :   1.0034
B(  3-C ,  4-C ) :   1.5594 B(  3-C ,  5-H ) :   0.9896 B(  4-C , 20-C ) :   1.0160
B(  6-C ,  7-H ) :   0.9500 B(  6-C ,  8-H ) :   0.9438 B(  6-C ,  9-C ) :   1.0778
B(  9-C , 10-H ) :   0.9453 B(  9-C , 11-H ) :   0.9500 B(  9-C , 12-C ) :   1.0777
B( 12-C , 13-H ) :   0.9718 B( 12-C , 14-H ) :   0.9662 B( 12-C , 15-H ) :   0.9680
B( 16-S , 17-C ) :   1.1561 B( 16-S , 20-C ) :   1.1509 B( 17-C , 18-C ) :   1.6150
B( 17-C , 20-C ) :   0.1011 B( 17-C , 33-H ) :   0.9570 B( 18-C , 19-C ) :   1.2395
B( 18-C , 21-H ) :   0.9842 B( 19-C , 20-C ) :   1.6007 B( 19-C , 22-C ) :   1.0543
B( 22-C , 23-H ) :   0.9444 B( 22-C , 24-H ) :   0.9315 B( 22-C , 25-C ) :   1.0437
B( 25-C , 26-H ) :   0.9584 B( 25-C , 27-H ) :   0.9580 B( 25-C , 28-C ) :   1.0772
B( 28-C , 29-H ) :   0.9760 B( 28-C , 30-H ) :   0.9736 B( 28-C , 31-H ) :   0.9736

Dispersion correction           -0.014214980
FINAL SINGLE POINT ENERGY     -1339.852614945091

DIPOLE MOMENT
-------------
                                X             Y             Z
Electronic contribution:    -19.50249       8.21933      10.70761
Nuclear contribution   :     19.85831      -8.56081     -10.90362
                        -----------------------------------------
Total Dipole Moment    :      0.35582      -0.34148      -0.19601
                        -----------------------------------------
Magnitude (a.u.)       :      0.53069
Magnitude (Debye)      :      1.34891

Rotational constants in cm-1:     0.018890     0.008488     0.006744
Rotational constants in MHz :   566.313682   254.451053   202.176121

                             ****ORCA TERMINATED NORMALLY****
TOTAL RUN TIME: 0 days 0 hours 0 minutes 31 seconds 691 msec
