                         Program Version 4.2.1 -  RELEASE  -
|  1> ! wB97X-D3 SP def2-SVP
|  2> %pal
|  3> nprocs 16
|  4> end
|  5>
|  6> * xyz 0 1
|  7> S 	 -48.8101 	 1.03378 	 96.1241
|  8> C 	 -50.2977 	 0.459904 	 95.3327
|  9> C 	 -51.0194 	 1.5583 	 94.9214
| 10> C 	 -50.3701 	 2.81456 	 95.0376
| 11> C 	 -49.0376 	 2.68532 	 95.5737
| 12> H 	 -50.7928 	 3.75582 	 94.7065
| 13> C 	 -52.4461 	 1.40732 	 94.3224
| 14> H 	 -52.3231 	 0.597269 	 93.6063
| 15> H 	 -52.6807 	 2.16256 	 93.6807
| 16> C 	 -53.6005 	 1.22359 	 95.2339
| 17> H 	 -54.5506 	 1.0476 	 94.7088
| 18> H 	 -53.4283 	 0.214019 	 95.7333
| 19> C 	 -53.6751 	 2.49264 	 96.0829
| 20> H 	 -53.3434 	 3.38106 	 95.5262
| 21> H 	 -54.68 	 2.78148 	 96.4351
| 22> H 	 -53.0046 	 2.43284 	 96.8764
| 23> S 	 -47.7043 	 4.14889 	 97.5277
| 24> C 	 -46.5156 	 5.33167 	 97.0438
| 25> C 	 -46.4002 	 5.40212 	 95.668
| 26> C 	 -47.2779 	 4.48354 	 94.9625
| 27> C 	 -48.0603 	 3.758 	 95.7958
| 28> H 	 -45.8223 	 6.14503 	 95.1782
| 29> C 	 -47.1345 	 4.37196 	 93.3972
| 30> H 	 -46.4318 	 5.14667 	 93.0178
| 31> H 	 -48.1073 	 4.59933 	 92.9442
| 32> C 	 -46.7277 	 2.98454 	 92.9292
| 33> H 	 -47.3459 	 2.29478 	 93.4972
| 34> H 	 -45.7221 	 2.73555 	 93.1634
| 35> C 	 -46.9938 	 2.90202 	 91.3839
| 36> H 	 -48.0333 	 3.10679 	 91.0957
| 37> H 	 -46.7284 	 1.88213 	 91.1307
| 38> H 	 -46.319 	 3.65366 	 90.8625
| 39> H 	 -50.7208 	 -0.503186 	 95.2431
| 40> H 	 -45.993 	 6.05457 	 97.7152
| 41> *
| 42>
| 43>                          ****END OF INPUT****

CARTESIAN COORDINATES (ANGSTROEM)
---------------------------------
  S    -48.810100    1.033780   96.124100
  C    -50.297700    0.459904   95.332700
  C    -51.019400    1.558300   94.921400
  C    -50.370100    2.814560   95.037600
  C    -49.037600    2.685320   95.573700
  H    -50.792800    3.755820   94.706500
  C    -52.446100    1.407320   94.322400
  H    -52.323100    0.597269   93.606300
  H    -52.680700    2.162560   93.680700
  C    -53.600500    1.223590   95.233900
  H    -54.550600    1.047600   94.708800
  H    -53.428300    0.214019   95.733300
  C    -53.675100    2.492640   96.082900
  H    -53.343400    3.381060   95.526200
  H    -54.680000    2.781480   96.435100
  H    -53.004600    2.432840   96.876400
  S    -47.704300    4.148890   97.527700
  C    -46.515600    5.331670   97.043800
  C    -46.400200    5.402120   95.668000
  C    -47.277900    4.483540   94.962500
  C    -48.060300    3.758000   95.795800
  H    -45.822300    6.145030   95.178200
  C    -47.134500    4.371960   93.397200
  H    -46.431800    5.146670   93.017800
  H    -48.107300    4.599330   92.944200
  C    -46.727700    2.984540   92.929200
  H    -47.345900    2.294780   93.497200
  H    -45.722100    2.735550   93.163400
  C    -46.993800    2.902020   91.383900
  H    -48.033300    3.106790   91.095700
  H    -46.728400    1.882130   91.130700
  H    -46.319000    3.653660   90.862500
  H    -50.720800   -0.503186   95.243100
  H    -45.993000    6.054570   97.715200

 Total Charge           Charge          ....    0
 Multiplicity           Mult            ....    1
 Number of Electrons    NEL             ....  134
 Basis Dimension        Dim             ....  322

ORBITAL ENERGIES
----------------

  NO   OCC          E(Eh)            E(eV)
   0   2.0000     -88.972697     -2421.0702
   1   2.0000     -88.964087     -2420.8359
   2   2.0000     -10.339513      -281.3524
   3   2.0000     -10.329871      -281.0901
   4   2.0000     -10.322331      -280.8849
   5   2.0000     -10.315249      -280.6922
   6   2.0000     -10.306259      -280.4476
   7   2.0000     -10.302197      -280.3370
   8   2.0000     -10.301623      -280.3214
   9   2.0000     -10.295703      -280.1603
  10   2.0000     -10.292372      -280.0697
  11   2.0000     -10.289289      -279.9858
  12   2.0000     -10.282282      -279.7951
  13   2.0000     -10.280425      -279.7446
  14   2.0000     -10.278850      -279.7017
  15   2.0000     -10.272783      -279.5366
  16   2.0000      -8.086050      -220.0326
  17   2.0000      -8.078288      -219.8214
  18   2.0000      -6.044643      -164.4831
  19   2.0000      -6.040626      -164.3738
  20   2.0000      -6.036913      -164.2727
  21   2.0000      -6.036893      -164.2722
  22   2.0000      -6.032965      -164.1653
  23   2.0000      -6.028841      -164.0531
  24   2.0000      -1.000266       -27.2186
  25   2.0000      -0.979710       -26.6593
  26   2.0000      -0.918728       -24.9999
  27   2.0000      -0.903921       -24.5970
  28   2.0000      -0.866807       -23.5870
  29   2.0000      -0.845006       -22.9938
  30   2.0000      -0.840080       -22.8597
  31   2.0000      -0.810951       -22.0671
  32   2.0000      -0.783072       -21.3085
  33   2.0000      -0.771025       -20.9807
  34   2.0000      -0.708438       -19.2776
  35   2.0000      -0.703603       -19.1460
  36   2.0000      -0.691469       -18.8158
  37   2.0000      -0.662065       -18.0157
  38   2.0000      -0.638177       -17.3657
  39   2.0000      -0.610647       -16.6165
  40   2.0000      -0.591783       -16.1032
  41   2.0000      -0.577884       -15.7250
  42   2.0000      -0.563054       -15.3215
  43   2.0000      -0.556797       -15.1512
  44   2.0000      -0.546383       -14.8678
  45   2.0000      -0.518888       -14.1197
  46   2.0000      -0.508602       -13.8398
  47   2.0000      -0.507023       -13.7968
  48   2.0000      -0.504214       -13.7204
  49   2.0000      -0.495931       -13.4950
  50   2.0000      -0.486674       -13.2431
  51   2.0000      -0.479734       -13.0542
  52   2.0000      -0.477254       -12.9867
  53   2.0000      -0.465565       -12.6687
  54   2.0000      -0.460844       -12.5402
  55   2.0000      -0.447198       -12.1689
  56   2.0000      -0.442217       -12.0333
  57   2.0000      -0.437439       -11.9033
  58   2.0000      -0.431664       -11.7462
  59   2.0000      -0.424681       -11.5562
  60   2.0000      -0.417486       -11.3604
  61   2.0000      -0.409864       -11.1530
  62   2.0000      -0.405427       -11.0322
  63   2.0000      -0.337045        -9.1715
  64   2.0000      -0.334935        -9.1140
  65   2.0000      -0.328857        -8.9487
  66   2.0000      -0.301115        -8.1938
  67   0.0000       0.030645         0.8339
  68   0.0000       0.053318         1.4508
  69   0.0000       0.110413         3.0045
  70   0.0000       0.122929         3.3451
  71   0.0000       0.125537         3.4160

MULLIKEN ATOMIC CHARGES
-----------------------
   0 S :    0.126014
   1 C :   -0.091743
   2 C :   -0.110392
   3 C :    0.057559
   4 C :   -0.191365
   5 H :    0.016809
   6 C :    0.069174
   7 H :    0.015247
   8 H :   -0.009328
   9 C :   -0.048873
  10 H :    0.030491
  11 H :    0.029837
  12 C :   -0.034265
  13 H :    0.018623
  14 H :    0.033268
  15 H :    0.035757
  16 S :    0.096206
  17 C :   -0.094790
  18 C :   -0.032729
  19 C :   -0.007803
  20 C :   -0.187315
  21 H :    0.007811
  22 C :    0.072406
  23 H :    0.020396
  24 H :    0.024240
  25 C :   -0.065541
  26 H :    0.036602
  27 H :    0.024513
  28 C :   -0.059179
  29 H :    0.038148
  30 H :    0.035610
  31 H :    0.038419
  32 H :    0.031313
  33 H :    0.074879
Sum of atomic charges:    0.0000000

LOEWDIN ATOMIC CHARGES
----------------------
   0 S :    0.407947
   1 C :   -0.187124
   2 C :   -0.060536
   3 C :   -0.058605
   4 C :   -0.198651
   5 H :    0.031228
   6 C :   -0.032280
   7 H :    0.029337
   8 H :    0.012462
   9 C :   -0.043503
  10 H :    0.026356
  11 H :    0.028255
  12 C :   -0.060124
  13 H :    0.026710
  14 H :    0.027290
  15 H :    0.022142
  16 S :    0.377861
  17 C :   -0.186442
  18 C :   -0.072965
  19 C :   -0.048217
  20 C :   -0.189128
  21 H :    0.024361
  22 C :   -0.026641
  23 H :    0.028342
  24 H :    0.030282
  25 C :   -0.034986
  26 H :    0.024005
  27 H :    0.019986
  28 C :   -0.063730
  29 H :    0.024648
  30 H :    0.024672
  31 H :    0.030423
  32 H :    0.025197
  33 H :    0.041429

  Mayer bond orders larger than 0.100000
B(  0-S ,  1-C ) :   1.1292 B(  0-S ,  4-C ) :   1.1645 B(  1-C ,  2-C ) :   1.6022
B(  1-C ,  4-C ) :   0.1116 B(  1-C , 32-H ) :   0.9725 B(  2-C ,  3-C ) :   1.2685
B(  2-C ,  6-C ) :   1.0019 B(  3-C ,  4-C ) :   1.5248 B(  3-C ,  5-H ) :   0.9936
B(  4-C , 20-C ) :   1.0281 B(  6-C ,  7-H ) :   0.9374 B(  6-C ,  8-H ) :   0.9408
B(  6-C ,  9-C ) :   1.0856 B(  9-C , 10-H ) :   0.9547 B(  9-C , 11-H ) :   0.9562
B(  9-C , 12-C ) :   1.0521 B( 12-C , 13-H ) :   0.9747 B( 12-C , 14-H ) :   0.9745
B( 12-C , 15-H ) :   0.9735 B( 16-S , 17-C ) :   1.1455 B( 16-S , 20-C ) :   1.1117
B( 17-C , 18-C ) :   1.6370 B( 17-C , 33-H ) :   0.9583 B( 18-C , 19-C ) :   1.2195
B( 18-C , 21-H ) :   0.9900 B( 19-C , 20-C ) :   1.6631 B( 19-C , 22-C ) :   1.0207
B( 22-C , 23-H ) :   0.9385 B( 22-C , 24-H ) :   0.9369 B( 22-C , 25-C ) :   1.0645
B( 25-C , 26-H ) :   0.9563 B( 25-C , 27-H ) :   0.9536 B( 25-C , 28-C ) :   1.0750
B( 28-C , 29-H ) :   0.9773 B( 28-C , 30-H ) :   0.9752 B( 28-C , 31-H ) :   0.9748

Dispersion correction           -0.014691388
FINAL SINGLE POINT ENERGY     -1339.865647738236

DIPOLE MOMENT
-------------
                                X             Y             Z
Electronic contribution:     12.32211       0.50399      18.54208
Nuclear contribution   :    -12.58299      -0.30138     -19.05609
                        -----------------------------------------
Total Dipole Moment    :     -0.26088       0.20261      -0.51401
                        -----------------------------------------
Magnitude (a.u.)       :      0.61100
Magnitude (Debye)      :      1.55304

Rotational constants in cm-1:     0.018556     0.008772     0.007217
Rotational constants in MHz :   556.290860   262.971117   216.359359

                             ****ORCA TERMINATED NORMALLY****
TOTAL RUN TIME: 0 days 0 hours 0 minutes 30 seconds 157 msec
