                         Program Version 4.2.1 -  RELEASE  -
|  1> ! wB97X-D3 SP def2-SVP
|  2> %pal
|  3> nprocs 16
|  4> end
|  5>
|  6> * xyz 0 1
|  7> S 	 39.8365 	 25.7791 	 82.5276
|  8> C 	 38.3577 	 26.0157 	 83.4618
|  9> C 	 38.5216 	 25.5537 	 84.7369
| 10> C 	 39.8974 	 25.2253 	 84.9418
| 11> C 	 40.8095 	 25.3029 	 83.9081
| 12> H 	 40.2886 	 24.9087 	 85.9694
| 13> C 	 37.5059 	 25.4911 	 85.9222
| 14> H 	 37.1035 	 24.4457 	 85.9975
| 15> H 	 36.6526 	 26.1767 	 85.7475
| 16> C 	 38.1074 	 25.9239 	 87.3017
| 17> H 	 38.8598 	 25.1878 	 87.6127
| 18> H 	 38.7561 	 26.732 	 87.0542
| 19> C 	 37.014 	 26.1745 	 88.375
| 20> H 	 36.317 	 27.0157 	 88.0947
| 21> H 	 36.4411 	 25.3284 	 88.6076
| 22> H 	 37.4726 	 26.4988 	 89.3971
| 23> S 	 43.2297 	 26.7908 	 83.4637
| 24> C 	 44.7352 	 26.0898 	 83.983
| 25> C 	 44.5722 	 24.788 	 84.3455
| 26> C 	 43.2172 	 24.3315 	 84.3153
| 27> C 	 42.2501 	 25.3086 	 83.9622
| 28> H 	 45.5506 	 24.3042 	 84.5839
| 29> C 	 42.8243 	 22.982 	 84.8874
| 30> H 	 43.5623 	 22.2143 	 84.4654
| 31> H 	 41.8257 	 22.7513 	 84.5067
| 32> C 	 42.9178 	 22.6925 	 86.3365
| 33> H 	 42.5121 	 23.5685 	 86.8912
| 34> H 	 43.9267 	 22.6549 	 86.6613
| 35> C 	 42.1712 	 21.4408 	 86.8209
| 36> H 	 42.3771 	 21.247 	 87.8078
| 37> H 	 42.5762 	 20.6213 	 86.1597
| 38> H 	 41.091 	 21.4577 	 86.7438
| 39> H 	 37.4263 	 26.4525 	 83.0874
| 40> H 	 45.6699 	 26.6 	 84.0763
| 41> *
| 42>
| 43>                          ****END OF INPUT****

CARTESIAN COORDINATES (ANGSTROEM)
---------------------------------
  S     39.836500   25.779100   82.527600
  C     38.357700   26.015700   83.461800
  C     38.521600   25.553700   84.736900
  C     39.897400   25.225300   84.941800
  C     40.809500   25.302900   83.908100
  H     40.288600   24.908700   85.969400
  C     37.505900   25.491100   85.922200
  H     37.103500   24.445700   85.997500
  H     36.652600   26.176700   85.747500
  C     38.107400   25.923900   87.301700
  H     38.859800   25.187800   87.612700
  H     38.756100   26.732000   87.054200
  C     37.014000   26.174500   88.375000
  H     36.317000   27.015700   88.094700
  H     36.441100   25.328400   88.607600
  H     37.472600   26.498800   89.397100
  S     43.229700   26.790800   83.463700
  C     44.735200   26.089800   83.983000
  C     44.572200   24.788000   84.345500
  C     43.217200   24.331500   84.315300
  C     42.250100   25.308600   83.962200
  H     45.550600   24.304200   84.583900
  C     42.824300   22.982000   84.887400
  H     43.562300   22.214300   84.465400
  H     41.825700   22.751300   84.506700
  C     42.917800   22.692500   86.336500
  H     42.512100   23.568500   86.891200
  H     43.926700   22.654900   86.661300
  C     42.171200   21.440800   86.820900
  H     42.377100   21.247000   87.807800
  H     42.576200   20.621300   86.159700
  H     41.091000   21.457700   86.743800
  H     37.426300   26.452500   83.087400
  H     45.669900   26.600000   84.076300

 Total Charge           Charge          ....    0
 Multiplicity           Mult            ....    1
 Number of Electrons    NEL             ....  134
 Basis Dimension        Dim             ....  322

ORBITAL ENERGIES
----------------

  NO   OCC          E(Eh)            E(eV)
   0   2.0000     -88.964829     -2420.8561
   1   2.0000     -88.963318     -2420.8150
   2   2.0000     -10.340278      -281.3733
   3   2.0000     -10.333079      -281.1774
   4   2.0000     -10.321013      -280.8491
   5   2.0000     -10.317994      -280.7669
   6   2.0000     -10.313767      -280.6519
   7   2.0000     -10.306126      -280.4440
   8   2.0000     -10.305808      -280.4353
   9   2.0000     -10.300827      -280.2998
  10   2.0000     -10.296801      -280.1902
  11   2.0000     -10.292271      -280.0669
  12   2.0000     -10.291409      -280.0435
  13   2.0000     -10.290954      -280.0311
  14   2.0000     -10.281340      -279.7695
  15   2.0000     -10.276331      -279.6332
  16   2.0000      -8.079367      -219.8507
  17   2.0000      -8.077080      -219.7885
  18   2.0000      -6.038044      -164.3035
  19   2.0000      -6.035704      -164.2399
  20   2.0000      -6.033831      -164.1889
  21   2.0000      -6.031681      -164.1304
  22   2.0000      -6.029977      -164.0840
  23   2.0000      -6.027780      -164.0242
  24   2.0000      -1.004207       -27.3259
  25   2.0000      -0.982826       -26.7441
  26   2.0000      -0.913601       -24.8603
  27   2.0000      -0.906715       -24.6730
  28   2.0000      -0.874509       -23.7966
  29   2.0000      -0.848795       -23.0969
  30   2.0000      -0.838640       -22.8206
  31   2.0000      -0.815264       -22.1845
  32   2.0000      -0.782104       -21.2821
  33   2.0000      -0.774896       -21.0860
  34   2.0000      -0.718003       -19.5379
  35   2.0000      -0.700853       -19.0712
  36   2.0000      -0.695443       -18.9240
  37   2.0000      -0.650771       -17.7084
  38   2.0000      -0.642720       -17.4893
  39   2.0000      -0.616820       -16.7845
  40   2.0000      -0.597028       -16.2460
  41   2.0000      -0.572136       -15.5686
  42   2.0000      -0.566261       -15.4087
  43   2.0000      -0.562293       -15.3008
  44   2.0000      -0.530524       -14.4363
  45   2.0000      -0.525624       -14.3030
  46   2.0000      -0.514626       -14.0037
  47   2.0000      -0.511700       -13.9241
  48   2.0000      -0.503488       -13.7006
  49   2.0000      -0.498373       -13.5614
  50   2.0000      -0.493011       -13.4155
  51   2.0000      -0.483888       -13.1673
  52   2.0000      -0.475978       -12.9520
  53   2.0000      -0.467386       -12.7182
  54   2.0000      -0.457887       -12.4597
  55   2.0000      -0.451707       -12.2916
  56   2.0000      -0.446397       -12.1471
  57   2.0000      -0.430705       -11.7201
  58   2.0000      -0.428189       -11.6516
  59   2.0000      -0.423406       -11.5215
  60   2.0000      -0.421496       -11.4695
  61   2.0000      -0.413588       -11.2543
  62   2.0000      -0.399788       -10.8788
  63   2.0000      -0.345170        -9.3925
  64   2.0000      -0.331389        -9.0176
  65   2.0000      -0.328218        -8.9313
  66   2.0000      -0.299366        -8.1462
  67   0.0000       0.024174         0.6578
  68   0.0000       0.057719         1.5706
  69   0.0000       0.115838         3.1521
  70   0.0000       0.120857         3.2887
  71   0.0000       0.130510         3.5514

MULLIKEN ATOMIC CHARGES
-----------------------
   0 S :    0.102266
   1 C :   -0.143187
   2 C :   -0.059018
   3 C :   -0.017381
   4 C :   -0.158781
   5 H :    0.029165
   6 C :    0.043907
   7 H :    0.053190
   8 H :    0.026802
   9 C :   -0.090638
  10 H :    0.033672
  11 H :    0.031095
  12 C :   -0.057248
  13 H :    0.044133
  14 H :    0.030202
  15 H :    0.045572
  16 S :    0.092943
  17 C :   -0.087091
  18 C :   -0.052799
  19 C :   -0.003775
  20 C :   -0.140759
  21 H :    0.037493
  22 C :    0.038040
  23 H :    0.027786
  24 H :    0.029269
  25 C :   -0.057074
  26 H :    0.017020
  27 H :    0.015180
  28 C :   -0.021310
  29 H :    0.017607
  30 H :    0.029090
  31 H :    0.033028
  32 H :    0.056401
  33 H :    0.055201
Sum of atomic charges:    0.0000000

LOEWDIN ATOMIC CHARGES
----------------------
   0 S :    0.397704
   1 C :   -0.182835
   2 C :   -0.074688
   3 C :   -0.065023
   4 C :   -0.207728
   5 H :    0.035390
   6 C :   -0.029573
   7 H :    0.037658
   8 H :    0.029675
   9 C :   -0.046792
  10 H :    0.023098
  11 H :    0.023133
  12 C :   -0.069046
  13 H :    0.032207
  14 H :    0.017593
  15 H :    0.039027
  16 S :    0.370756
  17 C :   -0.173516
  18 C :   -0.087570
  19 C :   -0.044193
  20 C :   -0.173666
  21 H :    0.043859
  22 C :   -0.040742
  23 H :    0.038338
  24 H :    0.029847
  25 C :   -0.044696
  26 H :    0.019584
  27 H :    0.018251
  28 C :   -0.053489
  29 H :    0.015373
  30 H :    0.031304
  31 H :    0.024841
  32 H :    0.035176
  33 H :    0.030745

  Mayer bond orders larger than 0.100000
B(  0-S ,  1-C ) :   1.1512 B(  0-S ,  4-C ) :   1.1225 B(  1-C ,  2-C ) :   1.6062
B(  1-C , 32-H ) :   0.9659 B(  2-C ,  3-C ) :   1.2568 B(  2-C ,  6-C ) :   1.0067
B(  3-C ,  4-C ) :   1.5765 B(  3-C ,  5-H ) :   0.9739 B(  4-C , 20-C ) :   1.0850
B(  6-C ,  7-H ) :   0.9357 B(  6-C ,  8-H ) :   0.9535 B(  6-C ,  9-C ) :   1.0604
B(  9-C , 10-H ) :   0.9453 B(  9-C , 11-H ) :   0.9631 B(  9-C , 12-C ) :   1.0734
B( 12-C , 13-H ) :   0.9748 B( 12-C , 14-H ) :   0.9758 B( 12-C , 15-H ) :   0.9742
B( 16-S , 17-C ) :   1.1608 B( 16-S , 20-C ) :   1.1019 B( 17-C , 18-C ) :   1.6345
B( 17-C , 33-H ) :   0.9646 B( 18-C , 19-C ) :   1.2061 B( 18-C , 21-H ) :   0.9876
B( 19-C , 20-C ) :   1.5804 B( 19-C , 22-C ) :   1.0719 B( 22-C , 23-H ) :   0.9224
B( 22-C , 24-H ) :   0.9334 B( 22-C , 25-C ) :   1.0685 B( 25-C , 26-H ) :   0.9478
B( 25-C , 27-H ) :   0.9479 B( 25-C , 28-C ) :   1.0881 B( 28-C , 29-H ) :   0.9719
B( 28-C , 30-H ) :   0.9734 B( 28-C , 31-H ) :   0.9755

Dispersion correction           -0.013786397
FINAL SINGLE POINT ENERGY     -1339.859861490617

DIPOLE MOMENT
-------------
                                X             Y             Z
Electronic contribution:      9.73488      13.50194     -25.75212
Nuclear contribution   :     -9.78954     -13.74957      26.51479
                        -----------------------------------------
Total Dipole Moment    :     -0.05466      -0.24763       0.76267
                        -----------------------------------------
Magnitude (a.u.)       :      0.80373
Magnitude (Debye)      :      2.04291

Rotational constants in cm-1:     0.015713     0.008934     0.006849
Rotational constants in MHz :   471.062797   267.819953   205.334318

                             ****ORCA TERMINATED NORMALLY****
TOTAL RUN TIME: 0 days 0 hours 0 minutes 29 seconds 940 msec
