                         Program Version 4.2.1 -  RELEASE  -
|  1> ! wB97X-D3 SP def2-SVP
|  2> %pal
|  3> nprocs 16
|  4> end
|  5>
|  6> * xyz 0 1
|  7> S 	 -12.753 	 59.5439 	 53.6305
|  8> C 	 -11.9872 	 59.7847 	 52.0316
|  9> C 	 -10.9175 	 60.7563 	 52.2078
| 10> C 	 -10.7119 	 61.099 	 53.6105
| 11> C 	 -11.6586 	 60.5584 	 54.433
| 12> H 	 -9.89029 	 61.6693 	 54.089
| 13> C 	 -10.0579 	 61.2797 	 51.0615
| 14> H 	 -9.94124 	 62.3666 	 51.1443
| 15> H 	 -10.5325 	 61.0888 	 50.1007
| 16> C 	 -8.67155 	 60.5443 	 50.9552
| 17> H 	 -8.10501 	 61.2088 	 50.254
| 18> H 	 -8.14934 	 60.6127 	 51.9703
| 19> C 	 -8.6308 	 59.0458 	 50.5183
| 20> H 	 -8.88081 	 59.0458 	 49.4923
| 21> H 	 -7.62637 	 58.5439 	 50.5407
| 22> H 	 -9.19121 	 58.4302 	 51.2385
| 23> S 	 -11.7922 	 59.4448 	 56.9872
| 24> C 	 -11.9427 	 60.5218 	 58.3431
| 25> C 	 -11.7366 	 61.7983 	 57.9995
| 26> C 	 -11.5776 	 61.9989 	 56.5923
| 27> C 	 -11.6226 	 60.7877 	 55.8807
| 28> H 	 -11.9408 	 62.6863 	 58.6475
| 29> C 	 -11.3706 	 63.3493 	 56.0145
| 30> H 	 -12.2873 	 63.7831 	 55.6108
| 31> H 	 -10.7229 	 63.2672 	 55.0635
| 32> C 	 -10.7459 	 64.4202 	 56.98
| 33> H 	 -11.2673 	 64.379 	 57.9625
| 34> H 	 -10.9419 	 65.3729 	 56.425
| 35> C 	 -9.22389 	 64.2649 	 57.0986
| 36> H 	 -8.82909 	 63.2761 	 57.3367
| 37> H 	 -8.79822 	 64.9261 	 57.8315
| 38> H 	 -8.77347 	 64.427 	 56.1528
| 39> H 	 -12.2908 	 59.4541 	 51.0908
| 40> H 	 -12.2215 	 60.1874 	 59.3262
| 41> *
| 42>
| 43>                          ****END OF INPUT****

CARTESIAN COORDINATES (ANGSTROEM)
---------------------------------
  S    -12.753000   59.543900   53.630500
  C    -11.987200   59.784700   52.031600
  C    -10.917500   60.756300   52.207800
  C    -10.711900   61.099000   53.610500
  C    -11.658600   60.558400   54.433000
  H     -9.890290   61.669300   54.089000
  C    -10.057900   61.279700   51.061500
  H     -9.941240   62.366600   51.144300
  H    -10.532500   61.088800   50.100700
  C     -8.671550   60.544300   50.955200
  H     -8.105010   61.208800   50.254000
  H     -8.149340   60.612700   51.970300
  C     -8.630800   59.045800   50.518300
  H     -8.880810   59.045800   49.492300
  H     -7.626370   58.543900   50.540700
  H     -9.191210   58.430200   51.238500
  S    -11.792200   59.444800   56.987200
  C    -11.942700   60.521800   58.343100
  C    -11.736600   61.798300   57.999500
  C    -11.577600   61.998900   56.592300
  C    -11.622600   60.787700   55.880700
  H    -11.940800   62.686300   58.647500
  C    -11.370600   63.349300   56.014500
  H    -12.287300   63.783100   55.610800
  H    -10.722900   63.267200   55.063500
  C    -10.745900   64.420200   56.980000
  H    -11.267300   64.379000   57.962500
  H    -10.941900   65.372900   56.425000
  C     -9.223890   64.264900   57.098600
  H     -8.829090   63.276100   57.336700
  H     -8.798220   64.926100   57.831500
  H     -8.773470   64.427000   56.152800
  H    -12.290800   59.454100   51.090800
  H    -12.221500   60.187400   59.326200

 Total Charge           Charge          ....    0
 Multiplicity           Mult            ....    1
 Number of Electrons    NEL             ....  134
 Basis Dimension        Dim             ....  322

ORBITAL ENERGIES
----------------

  NO   OCC          E(Eh)            E(eV)
   0   2.0000     -88.970048     -2420.9981
   1   2.0000     -88.964167     -2420.8381
   2   2.0000     -10.326135      -280.9884
   3   2.0000     -10.325231      -280.9638
   4   2.0000     -10.320345      -280.8309
   5   2.0000     -10.313737      -280.6511
   6   2.0000     -10.312991      -280.6308
   7   2.0000     -10.301687      -280.3231
   8   2.0000     -10.298217      -280.2287
   9   2.0000     -10.297950      -280.2215
  10   2.0000     -10.297461      -280.2082
  11   2.0000     -10.295476      -280.1541
  12   2.0000     -10.295039      -280.1422
  13   2.0000     -10.291598      -280.0486
  14   2.0000     -10.281030      -279.7610
  15   2.0000     -10.272728      -279.5351
  16   2.0000      -8.084596      -219.9930
  17   2.0000      -8.079351      -219.8503
  18   2.0000      -6.043106      -164.4413
  19   2.0000      -6.039001      -164.3296
  20   2.0000      -6.037866      -164.2987
  21   2.0000      -6.035473      -164.2336
  22   2.0000      -6.033753      -164.1868
  23   2.0000      -6.030136      -164.0884
  24   2.0000      -1.008564       -27.4444
  25   2.0000      -0.983660       -26.7668
  26   2.0000      -0.908353       -24.7175
  27   2.0000      -0.903872       -24.5956
  28   2.0000      -0.866732       -23.5850
  29   2.0000      -0.849410       -23.1136
  30   2.0000      -0.840760       -22.8782
  31   2.0000      -0.815159       -22.1816
  32   2.0000      -0.784092       -21.3362
  33   2.0000      -0.773637       -21.0517
  34   2.0000      -0.706756       -19.2318
  35   2.0000      -0.699064       -19.0225
  36   2.0000      -0.691710       -18.8224
  37   2.0000      -0.649945       -17.6859
  38   2.0000      -0.640408       -17.4264
  39   2.0000      -0.617033       -16.7903
  40   2.0000      -0.605253       -16.4698
  41   2.0000      -0.568737       -15.4761
  42   2.0000      -0.550014       -14.9666
  43   2.0000      -0.545178       -14.8351
  44   2.0000      -0.542639       -14.7660
  45   2.0000      -0.534931       -14.5562
  46   2.0000      -0.518610       -14.1121
  47   2.0000      -0.507808       -13.8181
  48   2.0000      -0.503303       -13.6956
  49   2.0000      -0.498233       -13.5576
  50   2.0000      -0.490234       -13.3400
  51   2.0000      -0.477553       -12.9949
  52   2.0000      -0.470507       -12.8031
  53   2.0000      -0.469691       -12.7809
  54   2.0000      -0.457665       -12.4537
  55   2.0000      -0.451472       -12.2852
  56   2.0000      -0.445408       -12.1202
  57   2.0000      -0.438727       -11.9384
  58   2.0000      -0.435138       -11.8407
  59   2.0000      -0.422524       -11.4975
  60   2.0000      -0.418060       -11.3760
  61   2.0000      -0.413330       -11.2473
  62   2.0000      -0.403026       -10.9669
  63   2.0000      -0.348077        -9.4717
  64   2.0000      -0.330505        -8.9935
  65   2.0000      -0.326436        -8.8828
  66   2.0000      -0.290642        -7.9088
  67   0.0000       0.028190         0.7671
  68   0.0000       0.074136         2.0173
  69   0.0000       0.111309         3.0289
  70   0.0000       0.119182         3.2431
  71   0.0000       0.133029         3.6199

MULLIKEN ATOMIC CHARGES
-----------------------
   0 S :    0.122039
   1 C :   -0.092383
   2 C :   -0.106101
   3 C :   -0.009880
   4 C :   -0.127009
   5 H :    0.042233
   6 C :    0.074385
   7 H :    0.039977
   8 H :    0.014584
   9 C :   -0.127365
  10 H :    0.034932
  11 H :    0.037479
  12 C :   -0.046544
  13 H :    0.026481
  14 H :    0.038788
  15 H :    0.050866
  16 S :    0.107722
  17 C :   -0.082033
  18 C :   -0.028658
  19 C :   -0.040656
  20 C :   -0.173201
  21 H :    0.036611
  22 C :    0.027137
  23 H :    0.039419
  24 H :    0.020395
  25 C :   -0.092949
  26 H :    0.040124
  27 H :    0.040177
  28 C :   -0.018929
  29 H :    0.028402
  30 H :    0.032838
  31 H :    0.012033
  32 H :    0.028782
  33 H :    0.050304
Sum of atomic charges:   -0.0000000

LOEWDIN ATOMIC CHARGES
----------------------
   0 S :    0.422580
   1 C :   -0.192400
   2 C :   -0.047794
   3 C :   -0.075418
   4 C :   -0.212682
   5 H :    0.038709
   6 C :   -0.035729
   7 H :    0.035293
   8 H :    0.027271
   9 C :   -0.045950
  10 H :    0.024402
  11 H :    0.025606
  12 C :   -0.071973
  13 H :    0.018458
  14 H :    0.035623
  15 H :    0.032343
  16 S :    0.407081
  17 C :   -0.180823
  18 C :   -0.081238
  19 C :   -0.057910
  20 C :   -0.201314
  21 H :    0.040306
  22 C :   -0.042680
  23 H :    0.034794
  24 H :    0.036257
  25 C :   -0.038458
  26 H :    0.023504
  27 H :    0.033538
  28 C :   -0.066705
  29 H :    0.026684
  30 H :    0.024451
  31 H :    0.019941
  32 H :    0.016286
  33 H :    0.027946

  Mayer bond orders larger than 0.100000
B(  0-S ,  1-C ) :   1.1293 B(  0-S ,  4-C ) :   1.1670 B(  1-C ,  2-C ) :   1.5769
B(  1-C , 32-H ) :   0.9791 B(  2-C ,  3-C ) :   1.2346 B(  2-C ,  6-C ) :   1.0406
B(  3-C ,  4-C ) :   1.5715 B(  3-C ,  5-H ) :   0.9764 B(  4-C , 20-C ) :   1.0357
B(  6-C ,  7-H ) :   0.9427 B(  6-C ,  8-H ) :   0.9403 B(  6-C ,  9-C ) :   1.0525
B(  9-C , 10-H ) :   0.9596 B(  9-C , 11-H ) :   0.9616 B(  9-C , 12-C ) :   1.0683
B( 12-C , 13-H ) :   0.9763 B( 12-C , 14-H ) :   0.9735 B( 12-C , 15-H ) :   0.9727
B( 16-S , 17-C ) :   1.1556 B( 16-S , 20-C ) :   1.1409 B( 17-C , 18-C ) :   1.6141
B( 17-C , 33-H ) :   0.9646 B( 18-C , 19-C ) :   1.2674 B( 18-C , 21-H ) :   0.9719
B( 19-C , 20-C ) :   1.5846 B( 19-C , 22-C ) :   1.0449 B( 22-C , 23-H ) :   0.9191
B( 22-C , 24-H ) :   0.9341 B( 22-C , 25-C ) :   1.0723 B( 25-C , 26-H ) :   0.9523
B( 25-C , 27-H ) :   0.9533 B( 25-C , 28-C ) :   1.0754 B( 28-C , 29-H ) :   0.9765
B( 28-C , 30-H ) :   0.9754 B( 28-C , 31-H ) :   0.9698

Dispersion correction           -0.014368809
FINAL SINGLE POINT ENERGY     -1339.871357825614

DIPOLE MOMENT
-------------
                                X             Y             Z
Electronic contribution:    -18.08307     -15.56429       9.80392
Nuclear contribution   :     18.34747      16.12142      -9.97065
                        -----------------------------------------
Total Dipole Moment    :      0.26440       0.55713      -0.16673
                        -----------------------------------------
Magnitude (a.u.)       :      0.63883
Magnitude (Debye)      :      1.62377

Rotational constants in cm-1:     0.019380     0.008388     0.006692
Rotational constants in MHz :   581.008334   251.461006   200.628797

                             ****ORCA TERMINATED NORMALLY****
TOTAL RUN TIME: 0 days 0 hours 0 minutes 33 seconds 611 msec
