                         Program Version 4.2.1 -  RELEASE  -
|  1> ! wB97X-D3 SP def2-SVP
|  2> %pal
|  3> nprocs 16
|  4> end
|  5>
|  6> * xyz 0 1
|  7> S 	 7.92384 	 -19.395 	 76.9072
|  8> C 	 7.37771 	 -20.7252 	 77.9226
|  9> C 	 6.1767 	 -20.3768 	 78.5761
| 10> C 	 5.88533 	 -18.9898 	 78.4772
| 11> C 	 6.75298 	 -18.3595 	 77.6381
| 12> H 	 5.22057 	 -18.33 	 78.9486
| 13> C 	 5.48637 	 -21.2781 	 79.5355
| 14> H 	 5.50124 	 -20.7462 	 80.5183
| 15> H 	 6.01272 	 -22.222 	 79.7673
| 16> C 	 4.01359 	 -21.556 	 79.1084
| 17> H 	 3.48566 	 -20.6239 	 78.9854
| 18> H 	 4.04159 	 -22.0168 	 78.0193
| 19> C 	 3.22498 	 -22.5756 	 79.9757
| 20> H 	 3.68004 	 -23.5515 	 80.1442
| 21> H 	 3.07297 	 -22.2126 	 80.9797
| 22> H 	 2.27534 	 -22.7128 	 79.5973
| 23> S 	 6.52977 	 -16.5067 	 75.4554
| 24> C 	 6.13088 	 -14.8264 	 75.8311
| 25> C 	 6.41046 	 -14.5333 	 77.1646
| 26> C 	 6.78017 	 -15.7703 	 77.8849
| 27> C 	 6.71279 	 -16.9484 	 77.1911
| 28> H 	 6.24919 	 -13.524 	 77.5195
| 29> C 	 7.26113 	 -15.5705 	 79.3134
| 30> H 	 6.66312 	 -16.1497 	 80.0024
| 31> H 	 7.18672 	 -14.6053 	 79.7788
| 32> C 	 8.78222 	 -15.6785 	 79.5503
| 33> H 	 9.28527 	 -15 	 78.911
| 34> H 	 9.13681 	 -16.7319 	 79.2686
| 35> C 	 9.27867 	 -15.4997 	 81.0043
| 36> H 	 10.4094 	 -15.371 	 80.879
| 37> H 	 9.08124 	 -16.2688 	 81.6327
| 38> H 	 8.83097 	 -14.6114 	 81.4853
| 39> H 	 7.88036 	 -21.6748 	 78.0627
| 40> H 	 5.90245 	 -14.0412 	 75.1875
| 41> *
| 42>
| 43>                          ****END OF INPUT****

CARTESIAN COORDINATES (ANGSTROEM)
---------------------------------
  S      7.923840  -19.395000   76.907200
  C      7.377710  -20.725200   77.922600
  C      6.176700  -20.376800   78.576100
  C      5.885330  -18.989800   78.477200
  C      6.752980  -18.359500   77.638100
  H      5.220570  -18.330000   78.948600
  C      5.486370  -21.278100   79.535500
  H      5.501240  -20.746200   80.518300
  H      6.012720  -22.222000   79.767300
  C      4.013590  -21.556000   79.108400
  H      3.485660  -20.623900   78.985400
  H      4.041590  -22.016800   78.019300
  C      3.224980  -22.575600   79.975700
  H      3.680040  -23.551500   80.144200
  H      3.072970  -22.212600   80.979700
  H      2.275340  -22.712800   79.597300
  S      6.529770  -16.506700   75.455400
  C      6.130880  -14.826400   75.831100
  C      6.410460  -14.533300   77.164600
  C      6.780170  -15.770300   77.884900
  C      6.712790  -16.948400   77.191100
  H      6.249190  -13.524000   77.519500
  C      7.261130  -15.570500   79.313400
  H      6.663120  -16.149700   80.002400
  H      7.186720  -14.605300   79.778800
  C      8.782220  -15.678500   79.550300
  H      9.285270  -15.000000   78.911000
  H      9.136810  -16.731900   79.268600
  C      9.278670  -15.499700   81.004300
  H     10.409400  -15.371000   80.879000
  H      9.081240  -16.268800   81.632700
  H      8.830970  -14.611400   81.485300
  H      7.880360  -21.674800   78.062700
  H      5.902450  -14.041200   75.187500

 Total Charge           Charge          ....    0
 Multiplicity           Mult            ....    1
 Number of Electrons    NEL             ....  134
 Basis Dimension        Dim             ....  322

ORBITAL ENERGIES
----------------

  NO   OCC          E(Eh)            E(eV)
   0   2.0000     -88.968201     -2420.9478
   1   2.0000     -88.963574     -2420.8219
   2   2.0000     -10.332096      -281.1506
   3   2.0000     -10.329627      -281.0835
   4   2.0000     -10.318448      -280.7793
   5   2.0000     -10.317361      -280.7497
   6   2.0000     -10.309007      -280.5223
   7   2.0000     -10.306555      -280.4556
   8   2.0000     -10.298504      -280.2365
   9   2.0000     -10.297653      -280.2134
  10   2.0000     -10.296108      -280.1713
  11   2.0000     -10.293008      -280.0870
  12   2.0000     -10.284867      -279.8654
  13   2.0000     -10.284446      -279.8540
  14   2.0000     -10.276501      -279.6378
  15   2.0000     -10.273092      -279.5450
  16   2.0000      -8.083188      -219.9547
  17   2.0000      -8.077418      -219.7977
  18   2.0000      -6.041616      -164.4007
  19   2.0000      -6.037652      -164.2929
  20   2.0000      -6.036245      -164.2546
  21   2.0000      -6.034029      -164.1943
  22   2.0000      -6.032163      -164.1435
  23   2.0000      -6.027755      -164.0236
  24   2.0000      -1.007247       -27.4086
  25   2.0000      -0.980155       -26.6714
  26   2.0000      -0.909000       -24.7351
  27   2.0000      -0.903323       -24.5807
  28   2.0000      -0.866744       -23.5853
  29   2.0000      -0.853551       -23.2263
  30   2.0000      -0.841727       -22.9045
  31   2.0000      -0.821265       -22.3478
  32   2.0000      -0.783210       -21.3122
  33   2.0000      -0.772661       -21.0252
  34   2.0000      -0.708132       -19.2692
  35   2.0000      -0.696103       -18.9419
  36   2.0000      -0.689519       -18.7628
  37   2.0000      -0.661346       -17.9961
  38   2.0000      -0.653228       -17.7752
  39   2.0000      -0.621235       -16.9047
  40   2.0000      -0.594828       -16.1861
  41   2.0000      -0.571000       -15.5377
  42   2.0000      -0.559783       -15.2325
  43   2.0000      -0.553867       -15.0715
  44   2.0000      -0.528032       -14.3685
  45   2.0000      -0.526065       -14.3150
  46   2.0000      -0.514254       -13.9936
  47   2.0000      -0.512102       -13.9350
  48   2.0000      -0.510829       -13.9004
  49   2.0000      -0.501181       -13.6378
  50   2.0000      -0.496538       -13.5115
  51   2.0000      -0.479322       -13.0430
  52   2.0000      -0.472150       -12.8479
  53   2.0000      -0.466030       -12.6813
  54   2.0000      -0.458516       -12.4768
  55   2.0000      -0.454021       -12.3545
  56   2.0000      -0.444166       -12.0864
  57   2.0000      -0.436737       -11.8842
  58   2.0000      -0.433283       -11.7902
  59   2.0000      -0.426127       -11.5955
  60   2.0000      -0.413150       -11.2424
  61   2.0000      -0.408400       -11.1131
  62   2.0000      -0.396580       -10.7915
  63   2.0000      -0.345061        -9.3896
  64   2.0000      -0.332852        -9.0574
  65   2.0000      -0.324840        -8.8393
  66   2.0000      -0.296007        -8.0548
  67   0.0000       0.033852         0.9212
  68   0.0000       0.055995         1.5237
  69   0.0000       0.106118         2.8876
  70   0.0000       0.116783         3.1778
  71   0.0000       0.131215         3.5706

MULLIKEN ATOMIC CHARGES
-----------------------
   0 S :    0.116444
   1 C :   -0.117327
   2 C :   -0.054064
   3 C :    0.068161
   4 C :   -0.175231
   5 H :   -0.004578
   6 C :    0.048452
   7 H :    0.036242
   8 H :    0.020636
   9 C :   -0.133943
  10 H :    0.034395
  11 H :    0.043788
  12 C :    0.006747
  13 H :    0.028532
  14 H :    0.014226
  15 H :    0.019387
  16 S :    0.091167
  17 C :   -0.063923
  18 C :   -0.035048
  19 C :   -0.036768
  20 C :   -0.127724
  21 H :    0.028464
  22 C :    0.078327
  23 H :    0.011187
  24 H :   -0.002993
  25 C :   -0.089683
  26 H :    0.023729
  27 H :    0.032236
  28 C :   -0.039778
  29 H :    0.048257
  30 H :    0.019004
  31 H :    0.022908
  32 H :    0.051916
  33 H :    0.036857
Sum of atomic charges:   -0.0000000

LOEWDIN ATOMIC CHARGES
----------------------
   0 S :    0.413303
   1 C :   -0.193713
   2 C :   -0.056246
   3 C :   -0.052544
   4 C :   -0.188788
   5 H :    0.029783
   6 C :   -0.039493
   7 H :    0.035134
   8 H :    0.029466
   9 C :   -0.042339
  10 H :    0.021195
  11 H :    0.035724
  12 C :   -0.063015
  13 H :    0.026984
  14 H :    0.022093
  15 H :    0.018270
  16 S :    0.369365
  17 C :   -0.166126
  18 C :   -0.067706
  19 C :   -0.053038
  20 C :   -0.187471
  21 H :    0.033915
  22 C :   -0.043038
  23 H :    0.023959
  24 H :    0.025586
  25 C :   -0.035978
  26 H :    0.017549
  27 H :    0.026377
  28 C :   -0.060528
  29 H :    0.041681
  30 H :    0.008461
  31 H :    0.021898
  32 H :    0.029403
  33 H :    0.019879

  Mayer bond orders larger than 0.100000
B(  0-S ,  1-C ) :   1.1352 B(  0-S ,  4-C ) :   1.1556 B(  1-C ,  2-C ) :   1.6013
B(  1-C ,  4-C ) :   0.1009 B(  1-C , 32-H ) :   0.9733 B(  2-C ,  3-C ) :   1.1916
B(  2-C ,  6-C ) :   1.0416 B(  3-C ,  4-C ) :   1.6169 B(  3-C ,  5-H ) :   1.0008
B(  4-C , 20-C ) :   1.0111 B(  6-C ,  7-H ) :   0.9400 B(  6-C ,  8-H ) :   0.9473
B(  6-C ,  9-C ) :   1.0389 B(  9-C , 10-H ) :   0.9599 B(  9-C , 11-H ) :   0.9575
B(  9-C , 12-C ) :   1.0819 B( 12-C , 13-H ) :   0.9743 B( 12-C , 14-H ) :   0.9706
B( 12-C , 15-H ) :   0.9732 B( 16-S , 17-C ) :   1.1433 B( 16-S , 20-C ) :   1.0894
B( 17-C , 18-C ) :   1.6449 B( 17-C , 33-H ) :   0.9704 B( 18-C , 19-C ) :   1.1970
B( 18-C , 21-H ) :   0.9920 B( 19-C , 20-C ) :   1.6499 B( 19-C , 22-C ) :   1.0469
B( 22-C , 23-H ) :   0.9317 B( 22-C , 24-H ) :   0.9411 B( 22-C , 25-C ) :   1.0493
B( 25-C , 26-H ) :   0.9596 B( 25-C , 27-H ) :   0.9554 B( 25-C , 28-C ) :   1.0796
B( 28-C , 29-H ) :   0.9749 B( 28-C , 30-H ) :   0.9780 B( 28-C , 31-H ) :   0.9722

Dispersion correction           -0.013756218
FINAL SINGLE POINT ENERGY     -1339.846498923627

DIPOLE MOMENT
-------------
                                X             Y             Z
Electronic contribution:      5.08107       5.29545     -23.83470
Nuclear contribution   :     -5.27268      -5.22468      24.51149
                        -----------------------------------------
Total Dipole Moment    :     -0.19161       0.07077       0.67678
                        -----------------------------------------
Magnitude (a.u.)       :      0.70693
Magnitude (Debye)      :      1.79688

Rotational constants in cm-1:     0.017966     0.007688     0.006746
Rotational constants in MHz :   538.598196   230.488116   202.248695

                             ****ORCA TERMINATED NORMALLY****
TOTAL RUN TIME: 0 days 0 hours 0 minutes 33 seconds 607 msec
