                         Program Version 4.2.1 -  RELEASE  -
|  1> ! wB97X-D3 SP def2-SVP
|  2> %pal
|  3> nprocs 16
|  4> end
|  5>
|  6> * xyz 0 1
|  7> S 	 -3.1338 	 75.7226 	 47.2147
|  8> C 	 -2.55952 	 74.1517 	 46.9275
|  9> C 	 -2.2451 	 74.0773 	 45.5687
| 10> C 	 -2.42666 	 75.2618 	 44.8372
| 11> C 	 -2.76672 	 76.3115 	 45.614
| 12> H 	 -2.37385 	 75.3432 	 43.8265
| 13> C 	 -1.9252 	 72.7628 	 44.902
| 14> H 	 -2.73827 	 72.6014 	 44.217
| 15> H 	 -1.95928 	 71.9193 	 45.5901
| 16> C 	 -0.544143 	 72.836 	 44.229
| 17> H 	 -0.233497 	 71.9522 	 43.6856
| 18> H 	 -0.673216 	 73.6754 	 43.5554
| 19> C 	 0.548628 	 73.1891 	 45.2578
| 20> H 	 0.711427 	 72.422 	 46.0722
| 21> H 	 1.59399 	 73.3289 	 44.7877
| 22> H 	 0.214053 	 74.134 	 45.7476
| 23> S 	 -4.14798 	 78.7525 	 46.0232
| 24> C 	 -3.81292 	 80.0879 	 44.9522
| 25> C 	 -2.67784 	 79.7618 	 44.1759
| 26> C 	 -2.39299 	 78.3486 	 44.1731
| 27> C 	 -3.02889 	 77.6577 	 45.1763
| 28> H 	 -2.28003 	 80.4825 	 43.4163
| 29> C 	 -1.25149 	 77.8399 	 43.3536
| 30> H 	 -0.974953 	 78.6064 	 42.6164
| 31> H 	 -1.5275 	 77.0348 	 42.6892
| 32> C 	 0.000570018 	 77.5926 	 44.1361
| 33> H 	 0.720788 	 77.0095 	 43.5644
| 34> H 	 -0.0161063 	 76.8633 	 44.9351
| 35> C 	 0.55889 	 78.9495 	 44.6414
| 36> H 	 1.57988 	 78.7742 	 44.9851
| 37> H 	 -0.0319243 	 79.3167 	 45.5127
| 38> H 	 0.552797 	 79.6424 	 43.8038
| 39> H 	 -2.55576 	 73.3352 	 47.5965
| 40> H 	 -4.34283 	 81.0292 	 45.0777
| 41> *
| 42>
| 43>                          ****END OF INPUT****

CARTESIAN COORDINATES (ANGSTROEM)
---------------------------------
  S     -3.133800   75.722600   47.214700
  C     -2.559520   74.151700   46.927500
  C     -2.245100   74.077300   45.568700
  C     -2.426660   75.261800   44.837200
  C     -2.766720   76.311500   45.614000
  H     -2.373850   75.343200   43.826500
  C     -1.925200   72.762800   44.902000
  H     -2.738270   72.601400   44.217000
  H     -1.959280   71.919300   45.590100
  C     -0.544143   72.836000   44.229000
  H     -0.233497   71.952200   43.685600
  H     -0.673216   73.675400   43.555400
  C      0.548628   73.189100   45.257800
  H      0.711427   72.422000   46.072200
  H      1.593990   73.328900   44.787700
  H      0.214053   74.134000   45.747600
  S     -4.147980   78.752500   46.023200
  C     -3.812920   80.087900   44.952200
  C     -2.677840   79.761800   44.175900
  C     -2.392990   78.348600   44.173100
  C     -3.028890   77.657700   45.176300
  H     -2.280030   80.482500   43.416300
  C     -1.251490   77.839900   43.353600
  H     -0.974953   78.606400   42.616400
  H     -1.527500   77.034800   42.689200
  C      0.000570   77.592600   44.136100
  H      0.720788   77.009500   43.564400
  H     -0.016106   76.863300   44.935100
  C      0.558890   78.949500   44.641400
  H      1.579880   78.774200   44.985100
  H     -0.031924   79.316700   45.512700
  H      0.552797   79.642400   43.803800
  H     -2.555760   73.335200   47.596500
  H     -4.342830   81.029200   45.077700

 Total Charge           Charge          ....    0
 Multiplicity           Mult            ....    1
 Number of Electrons    NEL             ....  134
 Basis Dimension        Dim             ....  322

ORBITAL ENERGIES
----------------

  NO   OCC          E(Eh)            E(eV)
   0   2.0000     -88.966685     -2420.9066
   1   2.0000     -88.964788     -2420.8550
   2   2.0000     -10.329162      -281.0708
   3   2.0000     -10.328003      -281.0393
   4   2.0000     -10.326604      -281.0012
   5   2.0000     -10.309546      -280.5370
   6   2.0000     -10.304741      -280.4062
   7   2.0000     -10.302887      -280.3558
   8   2.0000     -10.297440      -280.2076
   9   2.0000     -10.288841      -279.9736
  10   2.0000     -10.287500      -279.9371
  11   2.0000     -10.285912      -279.8939
  12   2.0000     -10.285645      -279.8866
  13   2.0000     -10.282594      -279.8036
  14   2.0000     -10.279574      -279.7214
  15   2.0000     -10.276646      -279.6418
  16   2.0000      -8.081192      -219.9004
  17   2.0000      -8.080527      -219.8823
  18   2.0000      -6.039822      -164.3519
  19   2.0000      -6.039038      -164.3306
  20   2.0000      -6.035618      -164.2375
  21   2.0000      -6.034782      -164.2148
  22   2.0000      -6.031951      -164.1377
  23   2.0000      -6.031348      -164.1213
  24   2.0000      -1.016748       -27.6671
  25   2.0000      -0.989928       -26.9373
  26   2.0000      -0.916702       -24.9447
  27   2.0000      -0.915009       -24.8987
  28   2.0000      -0.875942       -23.8356
  29   2.0000      -0.848351       -23.0848
  30   2.0000      -0.842249       -22.9188
  31   2.0000      -0.814407       -22.1611
  32   2.0000      -0.782230       -21.2856
  33   2.0000      -0.769609       -20.9421
  34   2.0000      -0.714615       -19.4457
  35   2.0000      -0.698447       -19.0057
  36   2.0000      -0.692724       -18.8500
  37   2.0000      -0.664810       -18.0904
  38   2.0000      -0.648601       -17.6493
  39   2.0000      -0.630700       -17.1622
  40   2.0000      -0.598520       -16.2866
  41   2.0000      -0.569298       -15.4914
  42   2.0000      -0.563519       -15.3341
  43   2.0000      -0.550777       -14.9874
  44   2.0000      -0.545912       -14.8550
  45   2.0000      -0.542868       -14.7722
  46   2.0000      -0.520933       -14.1753
  47   2.0000      -0.509402       -13.8615
  48   2.0000      -0.507501       -13.8098
  49   2.0000      -0.498934       -13.5767
  50   2.0000      -0.483283       -13.1508
  51   2.0000      -0.480653       -13.0792
  52   2.0000      -0.471046       -12.8178
  53   2.0000      -0.468820       -12.7572
  54   2.0000      -0.458642       -12.4803
  55   2.0000      -0.446812       -12.1584
  56   2.0000      -0.444118       -12.0851
  57   2.0000      -0.441274       -12.0077
  58   2.0000      -0.430944       -11.7266
  59   2.0000      -0.421586       -11.4719
  60   2.0000      -0.418188       -11.3795
  61   2.0000      -0.408698       -11.1212
  62   2.0000      -0.404334       -11.0025
  63   2.0000      -0.363344        -9.8871
  64   2.0000      -0.333119        -9.0646
  65   2.0000      -0.328557        -8.9405
  66   2.0000      -0.283853        -7.7240
  67   0.0000       0.018765         0.5106
  68   0.0000       0.076779         2.0893
  69   0.0000       0.109023         2.9667
  70   0.0000       0.117859         3.2071
  71   0.0000       0.128438         3.4950

MULLIKEN ATOMIC CHARGES
-----------------------
   0 S :    0.106051
   1 C :   -0.085649
   2 C :   -0.134583
   3 C :    0.025573
   4 C :   -0.106285
   5 H :   -0.031643
   6 C :    0.093642
   7 H :    0.034811
   8 H :    0.009499
   9 C :   -0.051410
  10 H :    0.033775
  11 H :    0.018813
  12 C :   -0.120646
  13 H :    0.037152
  14 H :    0.046218
  15 H :    0.060170
  16 S :    0.098978
  17 C :   -0.106858
  18 C :   -0.035672
  19 C :   -0.077992
  20 C :   -0.103379
  21 H :    0.043859
  22 C :    0.057678
  23 H :    0.010496
  24 H :    0.026445
  25 C :   -0.065915
  26 H :    0.011308
  27 H :    0.032005
  28 C :   -0.048888
  29 H :    0.031303
  30 H :    0.061642
  31 H :    0.022053
  32 H :    0.033819
  33 H :    0.073631
Sum of atomic charges:    0.0000000

LOEWDIN ATOMIC CHARGES
----------------------
   0 S :    0.428297
   1 C :   -0.209581
   2 C :   -0.061873
   3 C :   -0.059921
   4 C :   -0.179086
   5 H :    0.014892
   6 C :   -0.027247
   7 H :    0.031219
   8 H :    0.023320
   9 C :   -0.040623
  10 H :    0.021308
  11 H :    0.020310
  12 C :   -0.080368
  13 H :    0.026558
  14 H :    0.032262
  15 H :    0.029032
  16 S :    0.394265
  17 C :   -0.182404
  18 C :   -0.074420
  19 C :   -0.057782
  20 C :   -0.186220
  21 H :    0.038169
  22 C :   -0.037053
  23 H :    0.032064
  24 H :    0.026342
  25 C :   -0.046849
  26 H :    0.023576
  27 H :    0.023712
  28 C :   -0.059494
  29 H :    0.026096
  30 H :    0.035301
  31 H :    0.019085
  32 H :    0.024406
  33 H :    0.032707

  Mayer bond orders larger than 0.100000
B(  0-S ,  1-C ) :   1.1493 B(  0-S ,  4-C ) :   1.1576 B(  1-C ,  2-C ) :   1.5574
B(  1-C , 32-H ) :   0.9807 B(  2-C ,  3-C ) :   1.2605 B(  2-C ,  6-C ) :   1.0222
B(  3-C ,  4-C ) :   1.5162 B(  3-C ,  5-H ) :   1.0212 B(  4-C , 20-C ) :   1.1051
B(  6-C ,  7-H ) :   0.9437 B(  6-C ,  8-H ) :   0.9454 B(  6-C ,  9-C ) :   1.0550
B(  9-C , 10-H ) :   0.9604 B(  9-C , 11-H ) :   0.9571 B(  9-C , 12-C ) :   1.0688
B( 12-C , 13-H ) :   0.9741 B( 12-C , 14-H ) :   0.9738 B( 12-C , 15-H ) :   0.9674
B( 16-S , 17-C ) :   1.1677 B( 16-S , 20-C ) :   1.1199 B( 17-C , 18-C ) :   1.5727
B( 17-C , 20-C ) :   0.1008 B( 17-C , 33-H ) :   0.9709 B( 18-C , 19-C ) :   1.2655
B( 18-C , 21-H ) :   0.9744 B( 19-C , 20-C ) :   1.5739 B( 19-C , 22-C ) :   1.0569
B( 22-C , 23-H ) :   0.9301 B( 22-C , 24-H ) :   0.9268 B( 22-C , 25-C ) :   1.0720
B( 25-C , 26-H ) :   0.9489 B( 25-C , 27-H ) :   0.9480 B( 25-C , 28-C ) :   1.0701
B( 28-C , 29-H ) :   0.9723 B( 28-C , 30-H ) :   0.9736 B( 28-C , 31-H ) :   0.9766

Dispersion correction           -0.016499256
FINAL SINGLE POINT ENERGY     -1339.873678421422

DIPOLE MOMENT
-------------
                                X             Y             Z
Electronic contribution:    -22.91624       9.60349      12.17287
Nuclear contribution   :     23.21814      -9.76258     -12.65373
                        -----------------------------------------
Total Dipole Moment    :      0.30191      -0.15908      -0.48086
                        -----------------------------------------
Magnitude (a.u.)       :      0.58964
Magnitude (Debye)      :      1.49876

Rotational constants in cm-1:     0.021285     0.010170     0.007771
Rotational constants in MHz :   638.119782   304.886883   232.980464

                             ****ORCA TERMINATED NORMALLY****
TOTAL RUN TIME: 0 days 0 hours 0 minutes 37 seconds 754 msec
