                         Program Version 4.2.1 -  RELEASE  -
|  1> ! wB97X-D3 SP def2-SVP
|  2> %pal
|  3> nprocs 16
|  4> end
|  5>
|  6> * xyz 0 1
|  7> S 	 -46.8218 	 6.73725 	 88.3238
|  8> C 	 -46.4888 	 7.69093 	 89.7218
|  9> C 	 -47.6575 	 8.15795 	 90.2053
| 10> C 	 -48.821 	 7.74734 	 89.4437
| 11> C 	 -48.5186 	 7.17759 	 88.219
| 12> H 	 -49.8203 	 8.0241 	 89.7908
| 13> C 	 -47.7895 	 8.89645 	 91.5124
| 14> H 	 -47.057 	 8.56083 	 92.2214
| 15> H 	 -48.7436 	 8.50456 	 92.0028
| 16> C 	 -47.5609 	 10.3789 	 91.502
| 17> H 	 -47.6308 	 10.6572 	 92.5717
| 18> H 	 -46.5658 	 10.6405 	 90.9994
| 19> C 	 -48.6625 	 11.0676 	 90.6703
| 20> H 	 -48.7377 	 10.7556 	 89.6378
| 21> H 	 -49.6132 	 10.9714 	 91.1793
| 22> H 	 -48.469 	 12.1513 	 90.6015
| 23> S 	 -48.7274 	 6.23722 	 85.6188
| 24> C 	 -50.3698 	 6.02516 	 84.9375
| 25> C 	 -51.3704 	 6.62859 	 85.7607
| 26> C 	 -50.8526 	 7.0672 	 86.9658
| 27> C 	 -49.4845 	 6.82112 	 87.1111
| 28> H 	 -52.3747 	 6.57493 	 85.3878
| 29> C 	 -51.7702 	 7.91043 	 87.8028
| 30> H 	 -51.7076 	 7.78163 	 88.8544
| 31> H 	 -52.7867 	 7.59423 	 87.6632
| 32> C 	 -51.59 	 9.38977 	 87.505
| 33> H 	 -51.6347 	 9.51457 	 86.4419
| 34> H 	 -50.5282 	 9.65801 	 87.5489
| 35> C 	 -52.5165 	 10.4196 	 88.2085
| 36> H 	 -52.6474 	 10.2432 	 89.2559
| 37> H 	 -53.5129 	 10.2852 	 87.8021
| 38> H 	 -52.3205 	 11.503 	 88.0692
| 39> H 	 -45.5134 	 7.92786 	 90.0689
| 40> H 	 -50.6496 	 5.63909 	 83.9889
| 41> *
| 42>
| 43>                          ****END OF INPUT****

CARTESIAN COORDINATES (ANGSTROEM)
---------------------------------
  S    -46.821800    6.737250   88.323800
  C    -46.488800    7.690930   89.721800
  C    -47.657500    8.157950   90.205300
  C    -48.821000    7.747340   89.443700
  C    -48.518600    7.177590   88.219000
  H    -49.820300    8.024100   89.790800
  C    -47.789500    8.896450   91.512400
  H    -47.057000    8.560830   92.221400
  H    -48.743600    8.504560   92.002800
  C    -47.560900   10.378900   91.502000
  H    -47.630800   10.657200   92.571700
  H    -46.565800   10.640500   90.999400
  C    -48.662500   11.067600   90.670300
  H    -48.737700   10.755600   89.637800
  H    -49.613200   10.971400   91.179300
  H    -48.469000   12.151300   90.601500
  S    -48.727400    6.237220   85.618800
  C    -50.369800    6.025160   84.937500
  C    -51.370400    6.628590   85.760700
  C    -50.852600    7.067200   86.965800
  C    -49.484500    6.821120   87.111100
  H    -52.374700    6.574930   85.387800
  C    -51.770200    7.910430   87.802800
  H    -51.707600    7.781630   88.854400
  H    -52.786700    7.594230   87.663200
  C    -51.590000    9.389770   87.505000
  H    -51.634700    9.514570   86.441900
  H    -50.528200    9.658010   87.548900
  C    -52.516500   10.419600   88.208500
  H    -52.647400   10.243200   89.255900
  H    -53.512900   10.285200   87.802100
  H    -52.320500   11.503000   88.069200
  H    -45.513400    7.927860   90.068900
  H    -50.649600    5.639090   83.988900

 Total Charge           Charge          ....    0
 Multiplicity           Mult            ....    1
 Number of Electrons    NEL             ....  134
 Basis Dimension        Dim             ....  322

ORBITAL ENERGIES
----------------

  NO   OCC          E(Eh)            E(eV)
   0   2.0000     -88.975679     -2421.1513
   1   2.0000     -88.961923     -2420.7770
   2   2.0000     -10.340189      -281.3709
   3   2.0000     -10.337179      -281.2889
   4   2.0000     -10.323455      -280.9155
   5   2.0000     -10.307216      -280.4736
   6   2.0000     -10.306540      -280.4552
   7   2.0000     -10.297067      -280.1974
   8   2.0000     -10.294679      -280.1325
   9   2.0000     -10.293233      -280.0931
  10   2.0000     -10.293166      -280.0913
  11   2.0000     -10.289942      -280.0036
  12   2.0000     -10.287874      -279.9473
  13   2.0000     -10.284463      -279.8545
  14   2.0000     -10.281127      -279.7637
  15   2.0000     -10.271841      -279.5110
  16   2.0000      -8.088857      -220.1090
  17   2.0000      -8.077144      -219.7903
  18   2.0000      -6.047321      -164.5560
  19   2.0000      -6.043758      -164.4590
  20   2.0000      -6.039585      -164.3455
  21   2.0000      -6.035871      -164.2444
  22   2.0000      -6.031573      -164.1274
  23   2.0000      -6.027638      -164.0204
  24   2.0000      -1.006670       -27.3929
  25   2.0000      -0.987375       -26.8679
  26   2.0000      -0.915372       -24.9085
  27   2.0000      -0.911566       -24.8050
  28   2.0000      -0.867129       -23.5958
  29   2.0000      -0.853032       -23.2122
  30   2.0000      -0.838747       -22.8235
  31   2.0000      -0.815396       -22.1880
  32   2.0000      -0.785908       -21.3856
  33   2.0000      -0.775688       -21.1075
  34   2.0000      -0.713892       -19.4260
  35   2.0000      -0.699880       -19.0447
  36   2.0000      -0.693281       -18.8651
  37   2.0000      -0.669065       -18.2062
  38   2.0000      -0.638480       -17.3739
  39   2.0000      -0.621516       -16.9123
  40   2.0000      -0.600421       -16.3383
  41   2.0000      -0.579307       -15.7637
  42   2.0000      -0.557197       -15.1621
  43   2.0000      -0.542187       -14.7537
  44   2.0000      -0.541180       -14.7262
  45   2.0000      -0.525409       -14.2971
  46   2.0000      -0.516388       -14.0516
  47   2.0000      -0.511296       -13.9131
  48   2.0000      -0.510157       -13.8821
  49   2.0000      -0.505276       -13.7493
  50   2.0000      -0.488150       -13.2832
  51   2.0000      -0.480050       -13.0628
  52   2.0000      -0.474575       -12.9138
  53   2.0000      -0.463552       -12.6139
  54   2.0000      -0.459457       -12.5025
  55   2.0000      -0.449753       -12.2384
  56   2.0000      -0.445658       -12.1270
  57   2.0000      -0.441320       -12.0089
  58   2.0000      -0.434933       -11.8351
  59   2.0000      -0.428921       -11.6715
  60   2.0000      -0.417086       -11.3495
  61   2.0000      -0.404475       -11.0063
  62   2.0000      -0.402293       -10.9470
  63   2.0000      -0.359194        -9.7742
  64   2.0000      -0.341007        -9.2793
  65   2.0000      -0.323509        -8.8031
  66   2.0000      -0.282314        -7.6821
  67   0.0000       0.013400         0.3646
  68   0.0000       0.082784         2.2527
  69   0.0000       0.089094         2.4244
  70   0.0000       0.112445         3.0598
  71   0.0000       0.131126         3.5681

MULLIKEN ATOMIC CHARGES
-----------------------
   0 S :    0.086136
   1 C :   -0.095758
   2 C :   -0.094520
   3 C :   -0.002395
   4 C :   -0.078699
   5 H :    0.000450
   6 C :    0.024217
   7 H :    0.014243
   8 H :    0.035412
   9 C :   -0.063662
  10 H :    0.038979
  11 H :    0.042848
  12 C :   -0.064588
  13 H :    0.047010
  14 H :    0.022284
  15 H :    0.027445
  16 S :    0.111634
  17 C :   -0.080014
  18 C :   -0.051120
  19 C :   -0.044315
  20 C :   -0.119024
  21 H :    0.022546
  22 C :    0.093056
  23 H :    0.004710
  24 H :    0.004679
  25 C :   -0.052695
  26 H :    0.003782
  27 H :    0.020591
  28 C :   -0.021990
  29 H :    0.022442
  30 H :    0.019996
  31 H :    0.045619
  32 H :    0.039145
  33 H :    0.041558
Sum of atomic charges:    0.0000000

LOEWDIN ATOMIC CHARGES
----------------------
   0 S :    0.399027
   1 C :   -0.193894
   2 C :   -0.069072
   3 C :   -0.072392
   4 C :   -0.185090
   5 H :    0.026469
   6 C :   -0.044948
   7 H :    0.026123
   8 H :    0.037949
   9 C :   -0.040793
  10 H :    0.030457
  11 H :    0.033937
  12 C :   -0.072222
  13 H :    0.025409
  14 H :    0.021038
  15 H :    0.025060
  16 S :    0.396020
  17 C :   -0.169308
  18 C :   -0.060015
  19 C :   -0.056101
  20 C :   -0.177809
  21 H :    0.034516
  22 C :   -0.025386
  23 H :    0.019479
  24 H :    0.027282
  25 C :   -0.045088
  26 H :    0.022332
  27 H :    0.027277
  28 C :   -0.067528
  29 H :    0.019673
  30 H :    0.024731
  31 H :    0.035365
  32 H :    0.026771
  33 H :    0.020730

  Mayer bond orders larger than 0.100000
B(  0-S ,  1-C ) :   1.1246 B(  0-S ,  4-C ) :   1.1490 B(  1-C ,  2-C ) :   1.6194
B(  1-C , 32-H ) :   0.9749 B(  2-C ,  3-C ) :   1.2504 B(  2-C ,  6-C ) :   1.0120
B(  3-C ,  4-C ) :   1.5506 B(  3-C ,  5-H ) :   0.9892 B(  4-C , 20-C ) :   1.0617
B(  6-C ,  7-H ) :   0.9410 B(  6-C ,  8-H ) :   0.9460 B(  6-C ,  9-C ) :   1.0719
B(  9-C , 10-H ) :   0.9532 B(  9-C , 11-H ) :   0.9526 B(  9-C , 12-C ) :   1.0800
B( 12-C , 13-H ) :   0.9737 B( 12-C , 14-H ) :   0.9746 B( 12-C , 15-H ) :   0.9735
B( 16-S , 17-C ) :   1.1556 B( 16-S , 20-C ) :   1.1454 B( 17-C , 18-C ) :   1.5910
B( 17-C , 20-C ) :   0.1145 B( 17-C , 33-H ) :   0.9699 B( 18-C , 19-C ) :   1.2674
B( 18-C , 21-H ) :   0.9935 B( 19-C , 20-C ) :   1.5672 B( 19-C , 22-C ) :   1.0519
B( 22-C , 23-H ) :   0.9273 B( 22-C , 24-H ) :   0.9257 B( 22-C , 25-C ) :   1.0535
B( 25-C , 26-H ) :   0.9453 B( 25-C , 27-H ) :   0.9509 B( 25-C , 28-C ) :   1.0638
B( 28-C , 29-H ) :   0.9769 B( 28-C , 30-H ) :   0.9732 B( 28-C , 31-H ) :   0.9755

Dispersion correction           -0.015275050
FINAL SINGLE POINT ENERGY     -1339.857595190434

DIPOLE MOMENT
-------------
                                X             Y             Z
Electronic contribution:     14.76025     -23.42788     -15.62683
Nuclear contribution   :    -15.27588      23.88798      15.86869
                        -----------------------------------------
Total Dipole Moment    :     -0.51562       0.46009       0.24185
                        -----------------------------------------
Magnitude (a.u.)       :      0.73215
Magnitude (Debye)      :      1.86098

Rotational constants in cm-1:     0.017553     0.010529     0.006998
Rotational constants in MHz :   526.220670   315.658653   209.803853

                             ****ORCA TERMINATED NORMALLY****
TOTAL RUN TIME: 0 days 0 hours 0 minutes 31 seconds 621 msec
