                         Program Version 4.2.1 -  RELEASE  -
|  1> ! wB97X-D3 SP def2-SVP
|  2> %pal
|  3> nprocs 16
|  4> end
|  5>
|  6> * xyz 0 1
|  7> S 	 34.7479 	 3.28243 	 87.3572
|  8> C 	 33.8663 	 4.068 	 85.9599
|  9> C 	 34.5193 	 3.6857 	 84.7715
| 10> C 	 35.7326 	 2.91876 	 84.9786
| 11> C 	 35.933 	 2.64203 	 86.3149
| 12> H 	 36.5106 	 2.69146 	 84.2747
| 13> C 	 34.033 	 4.10796 	 83.3801
| 14> H 	 33.1223 	 4.63728 	 83.5292
| 15> H 	 33.7765 	 3.08653 	 82.9953
| 16> C 	 35.0526 	 4.71441 	 82.4673
| 17> H 	 35.987 	 4.11125 	 82.5684
| 18> H 	 34.7158 	 4.67312 	 81.4059
| 19> C 	 35.5064 	 6.11962 	 82.7647
| 20> H 	 35.6629 	 6.36494 	 83.8369
| 21> H 	 36.4138 	 6.3028 	 82.239
| 22> H 	 34.8125 	 6.82365 	 82.3438
| 23> S 	 36.9186 	 0.757705 	 88.2698
| 24> C 	 38.6242 	 0.73847 	 88.4982
| 25> C 	 39.3574 	 1.59889 	 87.7023
| 26> C 	 38.4446 	 2.27774 	 86.7344
| 27> C 	 37.095 	 2.01837 	 86.9617
| 28> H 	 40.4045 	 1.72478 	 87.784
| 29> C 	 39.0495 	 3.31722 	 85.7822
| 30> H 	 38.6145 	 3.07906 	 84.8041
| 31> H 	 40.1432 	 3.13263 	 85.8822
| 32> C 	 38.6571 	 4.79631 	 86.1281
| 33> H 	 38.8313 	 4.87148 	 87.181
| 34> H 	 37.6034 	 4.92573 	 86.1157
| 35> C 	 39.3725 	 5.91334 	 85.2745
| 36> H 	 38.8527 	 6.83631 	 85.3991
| 37> H 	 39.2238 	 5.72514 	 84.2305
| 38> H 	 40.4008 	 6.10166 	 85.5691
| 39> H 	 33.0078 	 4.69081 	 85.9844
| 40> H 	 39.0644 	 0.108831 	 89.1839
| 41> *
| 42>
| 43>                          ****END OF INPUT****

CARTESIAN COORDINATES (ANGSTROEM)
---------------------------------
  S     34.747900    3.282430   87.357200
  C     33.866300    4.068000   85.959900
  C     34.519300    3.685700   84.771500
  C     35.732600    2.918760   84.978600
  C     35.933000    2.642030   86.314900
  H     36.510600    2.691460   84.274700
  C     34.033000    4.107960   83.380100
  H     33.122300    4.637280   83.529200
  H     33.776500    3.086530   82.995300
  C     35.052600    4.714410   82.467300
  H     35.987000    4.111250   82.568400
  H     34.715800    4.673120   81.405900
  C     35.506400    6.119620   82.764700
  H     35.662900    6.364940   83.836900
  H     36.413800    6.302800   82.239000
  H     34.812500    6.823650   82.343800
  S     36.918600    0.757705   88.269800
  C     38.624200    0.738470   88.498200
  C     39.357400    1.598890   87.702300
  C     38.444600    2.277740   86.734400
  C     37.095000    2.018370   86.961700
  H     40.404500    1.724780   87.784000
  C     39.049500    3.317220   85.782200
  H     38.614500    3.079060   84.804100
  H     40.143200    3.132630   85.882200
  C     38.657100    4.796310   86.128100
  H     38.831300    4.871480   87.181000
  H     37.603400    4.925730   86.115700
  C     39.372500    5.913340   85.274500
  H     38.852700    6.836310   85.399100
  H     39.223800    5.725140   84.230500
  H     40.400800    6.101660   85.569100
  H     33.007800    4.690810   85.984400
  H     39.064400    0.108831   89.183900

 Total Charge           Charge          ....    0
 Multiplicity           Mult            ....    1
 Number of Electrons    NEL             ....  134
 Basis Dimension        Dim             ....  322

ORBITAL ENERGIES
----------------

  NO   OCC          E(Eh)            E(eV)
   0   2.0000     -88.967681     -2420.9337
   1   2.0000     -88.966330     -2420.8969
   2   2.0000     -10.331748      -281.1412
   3   2.0000     -10.330477      -281.1066
   4   2.0000     -10.318555      -280.7821
   5   2.0000     -10.314346      -280.6676
   6   2.0000     -10.310325      -280.5582
   7   2.0000     -10.310070      -280.5513
   8   2.0000     -10.298182      -280.2278
   9   2.0000     -10.297939      -280.2212
  10   2.0000     -10.295314      -280.1497
  11   2.0000     -10.293253      -280.0937
  12   2.0000     -10.291386      -280.0429
  13   2.0000     -10.282300      -279.7956
  14   2.0000     -10.276349      -279.6337
  15   2.0000     -10.272943      -279.5410
  16   2.0000      -8.081868      -219.9188
  17   2.0000      -8.080640      -219.8854
  18   2.0000      -6.040493      -164.3702
  19   2.0000      -6.039256      -164.3365
  20   2.0000      -6.036498      -164.2615
  21   2.0000      -6.035149      -164.2247
  22   2.0000      -6.032500      -164.1527
  23   2.0000      -6.031337      -164.1210
  24   2.0000      -1.001185       -27.2436
  25   2.0000      -0.975944       -26.5568
  26   2.0000      -0.918371       -24.9902
  27   2.0000      -0.901117       -24.5207
  28   2.0000      -0.867551       -23.6073
  29   2.0000      -0.848347       -23.0847
  30   2.0000      -0.840405       -22.8686
  31   2.0000      -0.816194       -22.2098
  32   2.0000      -0.788397       -21.4534
  33   2.0000      -0.774840       -21.0845
  34   2.0000      -0.713619       -19.4185
  35   2.0000      -0.698909       -19.0183
  36   2.0000      -0.690578       -18.7916
  37   2.0000      -0.662757       -18.0345
  38   2.0000      -0.639998       -17.4152
  39   2.0000      -0.621905       -16.9229
  40   2.0000      -0.590592       -16.0708
  41   2.0000      -0.569530       -15.4977
  42   2.0000      -0.562289       -15.3007
  43   2.0000      -0.553671       -15.0661
  44   2.0000      -0.543387       -14.7863
  45   2.0000      -0.527329       -14.3494
  46   2.0000      -0.516050       -14.0424
  47   2.0000      -0.514778       -14.0078
  48   2.0000      -0.503623       -13.7043
  49   2.0000      -0.498374       -13.5615
  50   2.0000      -0.488520       -13.2933
  51   2.0000      -0.487401       -13.2628
  52   2.0000      -0.470019       -12.7899
  53   2.0000      -0.465239       -12.6598
  54   2.0000      -0.457422       -12.4471
  55   2.0000      -0.453257       -12.3337
  56   2.0000      -0.446062       -12.1380
  57   2.0000      -0.443366       -12.0646
  58   2.0000      -0.430930       -11.7262
  59   2.0000      -0.421748       -11.4763
  60   2.0000      -0.420664       -11.4468
  61   2.0000      -0.415534       -11.3073
  62   2.0000      -0.410015       -11.1571
  63   2.0000      -0.345622        -9.4048
  64   2.0000      -0.330538        -8.9944
  65   2.0000      -0.328477        -8.9383
  66   2.0000      -0.291704        -7.9377
  67   0.0000       0.029668         0.8073
  68   0.0000       0.067816         1.8454
  69   0.0000       0.105639         2.8746
  70   0.0000       0.113208         3.0805
  71   0.0000       0.121120         3.2959

MULLIKEN ATOMIC CHARGES
-----------------------
   0 S :    0.101259
   1 C :   -0.117590
   2 C :   -0.124967
   3 C :    0.017474
   4 C :   -0.144509
   5 H :    0.010021
   6 C :    0.114273
   7 H :    0.006102
   8 H :    0.044974
   9 C :   -0.098573
  10 H :    0.028712
  11 H :    0.039679
  12 C :   -0.032551
  13 H :    0.044759
  14 H :    0.021709
  15 H :    0.020463
  16 S :    0.107182
  17 C :   -0.050585
  18 C :   -0.022457
  19 C :   -0.071277
  20 C :   -0.145991
  21 H :    0.013357
  22 C :    0.067610
  23 H :    0.023849
  24 H :    0.030404
  25 C :   -0.067190
  26 H :    0.016820
  27 H :    0.031322
  28 C :   -0.013913
  29 H :    0.020183
  30 H :    0.024070
  31 H :    0.039832
  32 H :    0.035539
  33 H :    0.030009
Sum of atomic charges:   -0.0000000

LOEWDIN ATOMIC CHARGES
----------------------
   0 S :    0.398005
   1 C :   -0.189454
   2 C :   -0.046984
   3 C :   -0.077932
   4 C :   -0.192009
   5 H :    0.027671
   6 C :   -0.031317
   7 H :    0.022384
   8 H :    0.046125
   9 C :   -0.048999
  10 H :    0.027779
  11 H :    0.032314
  12 C :   -0.066082
  13 H :    0.030799
  14 H :    0.022932
  15 H :    0.021211
  16 S :    0.384125
  17 C :   -0.169438
  18 C :   -0.069086
  19 C :   -0.043728
  20 C :   -0.192215
  21 H :    0.026578
  22 C :   -0.030783
  23 H :    0.026248
  24 H :    0.034072
  25 C :   -0.035638
  26 H :    0.021564
  27 H :    0.022705
  28 C :   -0.060932
  29 H :    0.025515
  30 H :    0.023231
  31 H :    0.026586
  32 H :    0.022167
  33 H :    0.012585

  Mayer bond orders larger than 0.100000
B(  0-S ,  1-C ) :   1.0994 B(  0-S ,  4-C ) :   1.1722 B(  1-C ,  2-C ) :   1.6251
B(  1-C , 32-H ) :   0.9762 B(  2-C ,  3-C ) :   1.1992 B(  2-C ,  6-C ) :   1.0140
B(  3-C ,  4-C ) :   1.5913 B(  3-C ,  5-H ) :   0.9939 B(  4-C , 20-C ) :   1.0289
B(  6-C ,  7-H ) :   0.9432 B(  6-C ,  8-H ) :   0.9289 B(  6-C ,  9-C ) :   1.0728
B(  9-C , 10-H ) :   0.9554 B(  9-C , 11-H ) :   0.9513 B(  9-C , 12-C ) :   1.0818
B( 12-C , 13-H ) :   0.9745 B( 12-C , 14-H ) :   0.9717 B( 12-C , 15-H ) :   0.9721
B( 16-S , 17-C ) :   1.1597 B( 16-S , 20-C ) :   1.1027 B( 17-C , 18-C ) :   1.6313
B( 17-C , 33-H ) :   0.9714 B( 18-C , 19-C ) :   1.2061 B( 18-C , 21-H ) :   0.9929
B( 19-C , 20-C ) :   1.6287 B( 19-C , 22-C ) :   1.0405 B( 22-C , 23-H ) :   0.9278
B( 22-C , 24-H ) :   0.9384 B( 22-C , 25-C ) :   1.0605 B( 25-C , 26-H ) :   0.9541
B( 25-C , 27-H ) :   0.9551 B( 25-C , 28-C ) :   1.0780 B( 28-C , 29-H ) :   0.9726
B( 28-C , 30-H ) :   0.9742 B( 28-C , 31-H ) :   0.9781

Dispersion correction           -0.015726890
FINAL SINGLE POINT ENERGY     -1339.871844400600

DIPOLE MOMENT
-------------
                                X             Y             Z
Electronic contribution:     -7.99529     -20.82069      22.09276
Nuclear contribution   :      8.31940      21.22953     -22.58437
                        -----------------------------------------
Total Dipole Moment    :      0.32411       0.40883      -0.49161
                        -----------------------------------------
Magnitude (a.u.)       :      0.71685
Magnitude (Debye)      :      1.82208

Rotational constants in cm-1:     0.019387     0.009804     0.007373
Rotational constants in MHz :   581.204095   293.909257   221.030717

                             ****ORCA TERMINATED NORMALLY****
TOTAL RUN TIME: 0 days 0 hours 0 minutes 32 seconds 543 msec
