                         Program Version 4.2.1 -  RELEASE  -
|  1> ! wB97X-D3 SP def2-SVP
|  2> %pal
|  3> nprocs 16
|  4> end
|  5>
|  6> * xyz 0 1
|  7> S 	 51.3749 	 20.663 	 90.6265
|  8> C 	 50.1879 	 19.7351 	 91.5785
|  9> C 	 50.7233 	 18.5251 	 91.93
| 10> C 	 51.9099 	 18.2058 	 91.1738
| 11> C 	 52.4118 	 19.256 	 90.4104
| 12> H 	 52.3031 	 17.2674 	 91.1322
| 13> C 	 50.0587 	 17.4923 	 92.8013
| 14> H 	 50.1212 	 16.582 	 92.2131
| 15> H 	 49.0393 	 17.8043 	 92.949
| 16> C 	 50.7894 	 17.2115 	 94.0885
| 17> H 	 49.9088 	 16.8118 	 94.7149
| 18> H 	 51.5873 	 16.4219 	 93.9457
| 19> C 	 51.2567 	 18.4191 	 94.8238
| 20> H 	 51.4724 	 18.1061 	 95.8476
| 21> H 	 52.1449 	 18.8258 	 94.334
| 22> H 	 50.5488 	 19.2482 	 94.6891
| 23> S 	 52.8866 	 19.6782 	 87.8125
| 24> C 	 54.4829 	 19.2646 	 87.1005
| 25> C 	 55.3296 	 18.7836 	 88.1293
| 26> C 	 54.7048 	 18.624 	 89.4025
| 27> C 	 53.4223 	 19.1484 	 89.3842
| 28> H 	 56.2346 	 18.2787 	 87.7953
| 29> C 	 55.4191 	 17.9766 	 90.6697
| 30> H 	 56.3534 	 17.5304 	 90.389
| 31> H 	 54.727 	 17.1385 	 90.953
| 32> C 	 55.667 	 18.9379 	 91.7749
| 33> H 	 55.9703 	 18.2477 	 92.5925
| 34> H 	 54.7446 	 19.4173 	 92.1318
| 35> C 	 56.74 	 19.9987 	 91.4377
| 36> H 	 56.91 	 20.6627 	 92.2684
| 37> H 	 56.2873 	 20.6113 	 90.6532
| 38> H 	 57.6331 	 19.5761 	 91.0292
| 39> H 	 49.2154 	 20.0654 	 91.8956
| 40> H 	 54.6699 	 19.2451 	 85.9773
| 41> *
| 42>
| 43>                          ****END OF INPUT****

CARTESIAN COORDINATES (ANGSTROEM)
---------------------------------
  S     51.374900   20.663000   90.626500
  C     50.187900   19.735100   91.578500
  C     50.723300   18.525100   91.930000
  C     51.909900   18.205800   91.173800
  C     52.411800   19.256000   90.410400
  H     52.303100   17.267400   91.132200
  C     50.058700   17.492300   92.801300
  H     50.121200   16.582000   92.213100
  H     49.039300   17.804300   92.949000
  C     50.789400   17.211500   94.088500
  H     49.908800   16.811800   94.714900
  H     51.587300   16.421900   93.945700
  C     51.256700   18.419100   94.823800
  H     51.472400   18.106100   95.847600
  H     52.144900   18.825800   94.334000
  H     50.548800   19.248200   94.689100
  S     52.886600   19.678200   87.812500
  C     54.482900   19.264600   87.100500
  C     55.329600   18.783600   88.129300
  C     54.704800   18.624000   89.402500
  C     53.422300   19.148400   89.384200
  H     56.234600   18.278700   87.795300
  C     55.419100   17.976600   90.669700
  H     56.353400   17.530400   90.389000
  H     54.727000   17.138500   90.953000
  C     55.667000   18.937900   91.774900
  H     55.970300   18.247700   92.592500
  H     54.744600   19.417300   92.131800
  C     56.740000   19.998700   91.437700
  H     56.910000   20.662700   92.268400
  H     56.287300   20.611300   90.653200
  H     57.633100   19.576100   91.029200
  H     49.215400   20.065400   91.895600
  H     54.669900   19.245100   85.977300

 Total Charge           Charge          ....    0
 Multiplicity           Mult            ....    1
 Number of Electrons    NEL             ....  134
 Basis Dimension        Dim             ....  322

ORBITAL ENERGIES
----------------

  NO   OCC          E(Eh)            E(eV)
   0   2.0000     -88.967155     -2420.9194
   1   2.0000     -88.965154     -2420.8649
   2   2.0000     -10.331056      -281.1223
   3   2.0000     -10.329582      -281.0822
   4   2.0000     -10.326730      -281.0046
   5   2.0000     -10.314098      -280.6609
   6   2.0000     -10.308202      -280.5004
   7   2.0000     -10.299828      -280.2726
   8   2.0000     -10.298399      -280.2337
   9   2.0000     -10.297958      -280.2217
  10   2.0000     -10.291339      -280.0416
  11   2.0000     -10.288623      -279.9677
  12   2.0000     -10.287063      -279.9252
  13   2.0000     -10.283234      -279.8210
  14   2.0000     -10.273302      -279.5508
  15   2.0000     -10.271587      -279.5041
  16   2.0000      -8.081184      -219.9002
  17   2.0000      -8.079169      -219.8454
  18   2.0000      -6.039713      -164.3489
  19   2.0000      -6.037907      -164.2998
  20   2.0000      -6.035668      -164.2389
  21   2.0000      -6.033760      -164.1870
  22   2.0000      -6.032062      -164.1408
  23   2.0000      -6.029730      -164.0773
  24   2.0000      -1.004466       -27.3329
  25   2.0000      -0.978703       -26.6319
  26   2.0000      -0.920476       -25.0474
  27   2.0000      -0.909600       -24.7515
  28   2.0000      -0.869188       -23.6518
  29   2.0000      -0.846675       -23.0392
  30   2.0000      -0.841009       -22.8850
  31   2.0000      -0.810898       -22.0656
  32   2.0000      -0.786218       -21.3941
  33   2.0000      -0.777997       -21.1704
  34   2.0000      -0.708692       -19.2845
  35   2.0000      -0.689267       -18.7559
  36   2.0000      -0.685729       -18.6596
  37   2.0000      -0.661019       -17.9873
  38   2.0000      -0.639940       -17.4137
  39   2.0000      -0.620695       -16.8900
  40   2.0000      -0.590014       -16.0551
  41   2.0000      -0.565133       -15.3781
  42   2.0000      -0.561192       -15.2708
  43   2.0000      -0.555601       -15.1187
  44   2.0000      -0.549654       -14.9569
  45   2.0000      -0.540692       -14.7130
  46   2.0000      -0.519776       -14.1438
  47   2.0000      -0.509222       -13.8566
  48   2.0000      -0.501721       -13.6525
  49   2.0000      -0.496362       -13.5067
  50   2.0000      -0.491613       -13.3775
  51   2.0000      -0.476085       -12.9549
  52   2.0000      -0.473368       -12.8810
  53   2.0000      -0.464395       -12.6368
  54   2.0000      -0.456675       -12.4268
  55   2.0000      -0.447489       -12.1768
  56   2.0000      -0.442916       -12.0524
  57   2.0000      -0.439228       -11.9520
  58   2.0000      -0.430823       -11.7233
  59   2.0000      -0.426657       -11.6099
  60   2.0000      -0.420636       -11.4461
  61   2.0000      -0.405620       -11.0375
  62   2.0000      -0.401096       -10.9144
  63   2.0000      -0.345452        -9.4002
  64   2.0000      -0.333910        -9.0862
  65   2.0000      -0.325369        -8.8537
  66   2.0000      -0.291167        -7.9231
  67   0.0000       0.023758         0.6465
  68   0.0000       0.067531         1.8376
  69   0.0000       0.108511         2.9527
  70   0.0000       0.114858         3.1254
  71   0.0000       0.123239         3.3535

MULLIKEN ATOMIC CHARGES
-----------------------
   0 S :    0.097754
   1 C :   -0.129866
   2 C :   -0.110884
   3 C :    0.054209
   4 C :   -0.134514
   5 H :   -0.028723
   6 C :    0.107957
   7 H :    0.029083
   8 H :    0.013517
   9 C :   -0.134613
  10 H :    0.037899
  11 H :    0.043485
  12 C :   -0.011607
  13 H :    0.044072
  14 H :    0.032859
  15 H :    0.022170
  16 S :    0.112883
  17 C :   -0.142549
  18 C :   -0.034360
  19 C :   -0.055205
  20 C :   -0.164793
  21 H :    0.028142
  22 C :    0.081246
  23 H :    0.009377
  24 H :    0.039374
  25 C :   -0.079827
  26 H :    0.025783
  27 H :    0.043149
  28 C :   -0.025833
  29 H :    0.036848
  30 H :    0.037366
  31 H :    0.023214
  32 H :    0.041245
  33 H :    0.091145
Sum of atomic charges:    0.0000000

LOEWDIN ATOMIC CHARGES
----------------------
   0 S :    0.379487
   1 C :   -0.188770
   2 C :   -0.060846
   3 C :   -0.052447
   4 C :   -0.188333
   5 H :    0.010781
   6 C :   -0.032702
   7 H :    0.035585
   8 H :    0.026252
   9 C :   -0.053428
  10 H :    0.035872
  11 H :    0.028466
  12 C :   -0.068787
  13 H :    0.029695
  14 H :    0.027174
  15 H :    0.028000
  16 S :    0.402234
  17 C :   -0.188673
  18 C :   -0.077670
  19 C :   -0.057267
  20 C :   -0.201441
  21 H :    0.032136
  22 C :   -0.023196
  23 H :    0.024690
  24 H :    0.036241
  25 C :   -0.045848
  26 H :    0.025626
  27 H :    0.026795
  28 C :   -0.059114
  29 H :    0.026588
  30 H :    0.031290
  31 H :    0.019690
  32 H :    0.026001
  33 H :    0.045920

  Mayer bond orders larger than 0.100000
B(  0-S ,  1-C ) :   1.1137 B(  0-S ,  4-C ) :   1.1352 B(  1-C ,  2-C ) :   1.6253
B(  1-C , 32-H ) :   0.9684 B(  2-C ,  3-C ) :   1.2113 B(  2-C ,  6-C ) :   1.0311
B(  3-C ,  4-C ) :   1.5751 B(  3-C ,  5-H ) :   1.0057 B(  4-C , 20-C ) :   1.0527
B(  6-C ,  7-H ) :   0.9372 B(  6-C ,  8-H ) :   0.9373 B(  6-C ,  9-C ) :   1.0693
B(  9-C , 10-H ) :   0.9568 B(  9-C , 11-H ) :   0.9517 B(  9-C , 12-C ) :   1.0953
B( 12-C , 13-H ) :   0.9718 B( 12-C , 14-H ) :   0.9590 B( 12-C , 15-H ) :   0.9687
B( 16-S , 17-C ) :   1.1511 B( 16-S , 20-C ) :   1.1572 B( 17-C , 18-C ) :   1.5959
B( 17-C , 20-C ) :   0.1097 B( 17-C , 33-H ) :   0.9596 B( 18-C , 19-C ) :   1.2586
B( 18-C , 21-H ) :   0.9771 B( 19-C , 20-C ) :   1.5818 B( 19-C , 22-C ) :   1.0158
B( 22-C , 23-H ) :   0.9351 B( 22-C , 24-H ) :   0.9364 B( 22-C , 25-C ) :   1.0812
B( 25-C , 26-H ) :   0.9505 B( 25-C , 27-H ) :   0.9535 B( 25-C , 28-C ) :   1.0668
B( 28-C , 29-H ) :   0.9738 B( 28-C , 30-H ) :   0.9732 B( 28-C , 31-H ) :   0.9758

Dispersion correction           -0.015506819
FINAL SINGLE POINT ENERGY     -1339.868049233357

DIPOLE MOMENT
-------------
                                X             Y             Z
Electronic contribution:     -7.91079       9.74837     -22.18741
Nuclear contribution   :      8.01608     -10.38623      22.44849
                        -----------------------------------------
Total Dipole Moment    :      0.10529      -0.63786       0.26108
                        -----------------------------------------
Magnitude (a.u.)       :      0.69722
Magnitude (Debye)      :      1.77218

Rotational constants in cm-1:     0.019976     0.009478     0.007533
Rotational constants in MHz :   598.859736   284.131112   225.839033

                             ****ORCA TERMINATED NORMALLY****
TOTAL RUN TIME: 0 days 0 hours 0 minutes 30 seconds 278 msec
