                         Program Version 4.2.1 -  RELEASE  -
|  1> ! wB97X-D3 SP def2-SVP
|  2> %pal
|  3> nprocs 16
|  4> end
|  5>
|  6> * xyz 0 1
|  7> S 	 -18.9745 	 54.3274 	 65.3685
|  8> C 	 -18.4868 	 52.6875 	 65.8451
|  9> C 	 -19.6207 	 52.0381 	 66.3689
| 10> C 	 -20.7573 	 52.8688 	 66.4289
| 11> C 	 -20.5637 	 54.1692 	 66.0492
| 12> H 	 -21.7406 	 52.6131 	 66.6694
| 13> C 	 -19.6069 	 50.6545 	 66.939
| 14> H 	 -20.2919 	 50.7155 	 67.7022
| 15> H 	 -18.6618 	 50.5116 	 67.3959
| 16> C 	 -20.1761 	 49.5307 	 66.0576
| 17> H 	 -20.1117 	 48.5282 	 66.4112
| 18> H 	 -21.2467 	 49.6683 	 66.1193
| 19> C 	 -19.6176 	 49.5176 	 64.5935
| 20> H 	 -18.5376 	 49.4844 	 64.7208
| 21> H 	 -19.9745 	 48.7055 	 63.9246
| 22> H 	 -19.8817 	 50.4875 	 64.0642
| 23> S 	 -22.2313 	 55.543 	 64.2128
| 24> C 	 -23.2977 	 56.6614 	 64.8835
| 25> C 	 -23.325 	 56.6699 	 66.2771
| 26> C 	 -22.2464 	 55.9084 	 66.8302
| 27> C 	 -21.5532 	 55.2247 	 65.8251
| 28> H 	 -23.9987 	 57.4824 	 66.7466
| 29> C 	 -21.9736 	 55.8549 	 68.346
| 30> H 	 -21.2436 	 55.0419 	 68.5211
| 31> H 	 -22.8677 	 55.5404 	 68.8504
| 32> C 	 -21.3947 	 57.1032 	 69.01
| 33> H 	 -21.9584 	 57.9962 	 68.6997
| 34> H 	 -20.3633 	 57.286 	 68.7119
| 35> C 	 -21.7617 	 57.1512 	 70.5509
| 36> H 	 -21.714 	 58.1671 	 70.8407
| 37> H 	 -20.8565 	 56.7743 	 70.987
| 38> H 	 -22.6909 	 56.641 	 70.9211
| 39> H 	 -17.5494 	 52.1873 	 65.5724
| 40> H 	 -24.0005 	 57.2775 	 64.4037
| 41> *
| 42>
| 43>                          ****END OF INPUT****

CARTESIAN COORDINATES (ANGSTROEM)
---------------------------------
  S    -18.974500   54.327400   65.368500
  C    -18.486800   52.687500   65.845100
  C    -19.620700   52.038100   66.368900
  C    -20.757300   52.868800   66.428900
  C    -20.563700   54.169200   66.049200
  H    -21.740600   52.613100   66.669400
  C    -19.606900   50.654500   66.939000
  H    -20.291900   50.715500   67.702200
  H    -18.661800   50.511600   67.395900
  C    -20.176100   49.530700   66.057600
  H    -20.111700   48.528200   66.411200
  H    -21.246700   49.668300   66.119300
  C    -19.617600   49.517600   64.593500
  H    -18.537600   49.484400   64.720800
  H    -19.974500   48.705500   63.924600
  H    -19.881700   50.487500   64.064200
  S    -22.231300   55.543000   64.212800
  C    -23.297700   56.661400   64.883500
  C    -23.325000   56.669900   66.277100
  C    -22.246400   55.908400   66.830200
  C    -21.553200   55.224700   65.825100
  H    -23.998700   57.482400   66.746600
  C    -21.973600   55.854900   68.346000
  H    -21.243600   55.041900   68.521100
  H    -22.867700   55.540400   68.850400
  C    -21.394700   57.103200   69.010000
  H    -21.958400   57.996200   68.699700
  H    -20.363300   57.286000   68.711900
  C    -21.761700   57.151200   70.550900
  H    -21.714000   58.167100   70.840700
  H    -20.856500   56.774300   70.987000
  H    -22.690900   56.641000   70.921100
  H    -17.549400   52.187300   65.572400
  H    -24.000500   57.277500   64.403700

 Total Charge           Charge          ....    0
 Multiplicity           Mult            ....    1
 Number of Electrons    NEL             ....  134
 Basis Dimension        Dim             ....  322

ORBITAL ENERGIES
----------------

  NO   OCC          E(Eh)            E(eV)
   0   2.0000     -88.970856     -2421.0201
   1   2.0000     -88.962109     -2420.7821
   2   2.0000     -10.326367      -280.9947
   3   2.0000     -10.323951      -280.9290
   4   2.0000     -10.318979      -280.7937
   5   2.0000     -10.310641      -280.5668
   6   2.0000     -10.307308      -280.4761
   7   2.0000     -10.300745      -280.2975
   8   2.0000     -10.297378      -280.2059
   9   2.0000     -10.289899      -280.0024
  10   2.0000     -10.286895      -279.9207
  11   2.0000     -10.286576      -279.9120
  12   2.0000     -10.285157      -279.8733
  13   2.0000     -10.281454      -279.7726
  14   2.0000     -10.280581      -279.7488
  15   2.0000     -10.277820      -279.6737
  16   2.0000      -8.085981      -220.0307
  17   2.0000      -8.076711      -219.7785
  18   2.0000      -6.044335      -164.4747
  19   2.0000      -6.040474      -164.3697
  20   2.0000      -6.036841      -164.2708
  21   2.0000      -6.035146      -164.2247
  22   2.0000      -6.031079      -164.1140
  23   2.0000      -6.027709      -164.0223
  24   2.0000      -1.006906       -27.3993
  25   2.0000      -0.985665       -26.8213
  26   2.0000      -0.913477       -24.8570
  27   2.0000      -0.904798       -24.6208
  28   2.0000      -0.864404       -23.5216
  29   2.0000      -0.850056       -23.1312
  30   2.0000      -0.842726       -22.9317
  31   2.0000      -0.811962       -22.0946
  32   2.0000      -0.785603       -21.3773
  33   2.0000      -0.774021       -21.0622
  34   2.0000      -0.709344       -19.3022
  35   2.0000      -0.697860       -18.9897
  36   2.0000      -0.694017       -18.8852
  37   2.0000      -0.649013       -17.6605
  38   2.0000      -0.644602       -17.5405
  39   2.0000      -0.619715       -16.8633
  40   2.0000      -0.594260       -16.1706
  41   2.0000      -0.564349       -15.3567
  42   2.0000      -0.559517       -15.2252
  43   2.0000      -0.553678       -15.0663
  44   2.0000      -0.545573       -14.8458
  45   2.0000      -0.522110       -14.2073
  46   2.0000      -0.515840       -14.0367
  47   2.0000      -0.513277       -13.9670
  48   2.0000      -0.505217       -13.7476
  49   2.0000      -0.498388       -13.5618
  50   2.0000      -0.486025       -13.2254
  51   2.0000      -0.473375       -12.8812
  52   2.0000      -0.469936       -12.7876
  53   2.0000      -0.464634       -12.6433
  54   2.0000      -0.456175       -12.4132
  55   2.0000      -0.453253       -12.3336
  56   2.0000      -0.445094       -12.1116
  57   2.0000      -0.441491       -12.0136
  58   2.0000      -0.434693       -11.8286
  59   2.0000      -0.422487       -11.4965
  60   2.0000      -0.417405       -11.3582
  61   2.0000      -0.413182       -11.2432
  62   2.0000      -0.395428       -10.7602
  63   2.0000      -0.336948        -9.1688
  64   2.0000      -0.331796        -9.0286
  65   2.0000      -0.323627        -8.8063
  66   2.0000      -0.303445        -8.2572
  67   0.0000       0.036035         0.9806
  68   0.0000       0.059125         1.6089
  69   0.0000       0.116214         3.1623
  70   0.0000       0.123803         3.3689
  71   0.0000       0.127897         3.4803

MULLIKEN ATOMIC CHARGES
-----------------------
   0 S :    0.094016
   1 C :   -0.122735
   2 C :   -0.127279
   3 C :    0.072198
   4 C :   -0.193666
   5 H :   -0.012780
   6 C :    0.142221
   7 H :   -0.003167
   8 H :    0.018906
   9 C :   -0.060805
  10 H :    0.023163
  11 H :    0.015756
  12 C :   -0.088462
  13 H :    0.029316
  14 H :    0.045882
  15 H :    0.054131
  16 S :    0.144383
  17 C :   -0.071889
  18 C :   -0.079426
  19 C :   -0.029789
  20 C :   -0.162415
  21 H :    0.051671
  22 C :    0.090493
  23 H :    0.030625
  24 H :    0.019003
  25 C :   -0.097892
  26 H :    0.023221
  27 H :    0.042179
  28 C :   -0.047110
  29 H :    0.020459
  30 H :    0.025433
  31 H :    0.057646
  32 H :    0.061757
  33 H :    0.034955
Sum of atomic charges:    0.0000000

LOEWDIN ATOMIC CHARGES
----------------------
   0 S :    0.403775
   1 C :   -0.194271
   2 C :   -0.059434
   3 C :   -0.055856
   4 C :   -0.200492
   5 H :    0.023471
   6 C :   -0.023581
   7 H :    0.024656
   8 H :    0.026532
   9 C :   -0.038487
  10 H :    0.021791
  11 H :    0.020662
  12 C :   -0.074943
  13 H :    0.021828
  14 H :    0.028556
  15 H :    0.032870
  16 S :    0.430409
  17 C :   -0.198552
  18 C :   -0.087974
  19 C :   -0.045119
  20 C :   -0.210637
  21 H :    0.046200
  22 C :   -0.031995
  23 H :    0.033071
  24 H :    0.027752
  25 C :   -0.038594
  26 H :    0.020525
  27 H :    0.028506
  28 C :   -0.066660
  29 H :    0.020334
  30 H :    0.024652
  31 H :    0.035649
  32 H :    0.034234
  33 H :    0.021120

  Mayer bond orders larger than 0.100000
B(  0-S ,  1-C ) :   1.1505 B(  0-S ,  4-C ) :   1.1605 B(  1-C ,  2-C ) :   1.5666
B(  1-C ,  4-C ) :   0.1041 B(  1-C , 32-H ) :   0.9703 B(  2-C ,  3-C ) :   1.2554
B(  2-C ,  6-C ) :   1.0162 B(  3-C ,  4-C ) :   1.5717 B(  3-C ,  5-H ) :   1.0044
B(  4-C , 20-C ) :   1.0137 B(  6-C ,  7-H ) :   0.9348 B(  6-C ,  8-H ) :   0.9443
B(  6-C ,  9-C ) :   1.0581 B(  9-C , 10-H ) :   0.9591 B(  9-C , 11-H ) :   0.9570
B(  9-C , 12-C ) :   1.0693 B( 12-C , 13-H ) :   0.9781 B( 12-C , 14-H ) :   0.9769
B( 12-C , 15-H ) :   0.9718 B( 16-S , 17-C ) :   1.1755 B( 16-S , 20-C ) :   1.1366
B( 17-C , 18-C ) :   1.6235 B( 17-C , 33-H ) :   0.9656 B( 18-C , 19-C ) :   1.2487
B( 18-C , 21-H ) :   0.9713 B( 19-C , 20-C ) :   1.5985 B( 19-C , 22-C ) :   1.0384
B( 22-C , 23-H ) :   0.9268 B( 22-C , 24-H ) :   0.9401 B( 22-C , 25-C ) :   1.0627
B( 25-C , 26-H ) :   0.9704 B( 25-C , 27-H ) :   0.9578 B( 25-C , 28-C ) :   1.0505
B( 28-C , 29-H ) :   0.9786 B( 28-C , 30-H ) :   0.9778 B( 28-C , 31-H ) :   0.9758

Dispersion correction           -0.014227769
FINAL SINGLE POINT ENERGY     -1339.852230464061

DIPOLE MOMENT
-------------
                                X             Y             Z
Electronic contribution:      0.85948       9.91625     -17.03448
Nuclear contribution   :     -1.15603     -10.11531      17.45353
                        -----------------------------------------
Total Dipole Moment    :     -0.29655      -0.19906       0.41905
                        -----------------------------------------
Magnitude (a.u.)       :      0.55061
Magnitude (Debye)      :      1.39953

Rotational constants in cm-1:     0.019297     0.007910     0.006674
Rotational constants in MHz :   578.506520   237.146228   200.096391

                             ****ORCA TERMINATED NORMALLY****
TOTAL RUN TIME: 0 days 0 hours 0 minutes 32 seconds 905 msec
