                         Program Version 4.2.1 -  RELEASE  -
|  1> ! wB97X-D3 SP def2-SVP
|  2> %pal
|  3> nprocs 16
|  4> end
|  5>
|  6> * xyz 0 1
|  7> S 	 -76.1242 	 50.7508 	 137.205
|  8> C 	 -74.6294 	 50.1183 	 137.973
|  9> C 	 -73.5217 	 50.7672 	 137.392
| 10> C 	 -73.836 	 51.6717 	 136.334
| 11> C 	 -75.2303 	 51.896 	 136.233
| 12> H 	 -73.2757 	 52.1817 	 135.57
| 13> C 	 -72.0818 	 50.6952 	 137.864
| 14> H 	 -72.0208 	 49.6931 	 138.402
| 15> H 	 -72.0283 	 51.5363 	 138.672
| 16> C 	 -70.9608 	 50.8189 	 136.816
| 17> H 	 -71.068 	 51.7383 	 136.208
| 18> H 	 -70.0246 	 51.0558 	 137.369
| 19> C 	 -70.9763 	 49.518 	 135.899
| 20> H 	 -70.3464 	 49.6628 	 135.057
| 21> H 	 -70.7613 	 48.6312 	 136.35
| 22> H 	 -71.904 	 49.3923 	 135.354
| 23> S 	 -77.1092 	 51.9217 	 134.194
| 24> C 	 -77.345 	 53.3287 	 133.265
| 25> C 	 -76.5454 	 54.3035 	 133.667
| 26> C 	 -75.5867 	 54.0082 	 134.668
| 27> C 	 -75.9045 	 52.7118 	 135.216
| 28> H 	 -76.6793 	 55.2178 	 133.068
| 29> C 	 -74.6136 	 54.9873 	 135.348
| 30> H 	 -73.9909 	 55.2858 	 134.532
| 31> H 	 -73.9615 	 54.4605 	 136.052
| 32> C 	 -75.3496 	 56.1874 	 135.908
| 33> H 	 -76.0371 	 55.8437 	 136.614
| 34> H 	 -75.8712 	 56.8011 	 135.115
| 35> C 	 -74.4112 	 57.0915 	 136.654
| 36> H 	 -74.8715 	 57.5032 	 137.544
| 37> H 	 -74.0033 	 57.8895 	 136.033
| 38> H 	 -73.6057 	 56.5617 	 137.047
| 39> H 	 -74.4334 	 49.5475 	 138.825
| 40> H 	 -78.1566 	 53.4858 	 132.642
| 41> *
| 42>
| 43>                          ****END OF INPUT****

CARTESIAN COORDINATES (ANGSTROEM)
---------------------------------
  S    -76.124200   50.750800  137.205000
  C    -74.629400   50.118300  137.973000
  C    -73.521700   50.767200  137.392000
  C    -73.836000   51.671700  136.334000
  C    -75.230300   51.896000  136.233000
  H    -73.275700   52.181700  135.570000
  C    -72.081800   50.695200  137.864000
  H    -72.020800   49.693100  138.402000
  H    -72.028300   51.536300  138.672000
  C    -70.960800   50.818900  136.816000
  H    -71.068000   51.738300  136.208000
  H    -70.024600   51.055800  137.369000
  C    -70.976300   49.518000  135.899000
  H    -70.346400   49.662800  135.057000
  H    -70.761300   48.631200  136.350000
  H    -71.904000   49.392300  135.354000
  S    -77.109200   51.921700  134.194000
  C    -77.345000   53.328700  133.265000
  C    -76.545400   54.303500  133.667000
  C    -75.586700   54.008200  134.668000
  C    -75.904500   52.711800  135.216000
  H    -76.679300   55.217800  133.068000
  C    -74.613600   54.987300  135.348000
  H    -73.990900   55.285800  134.532000
  H    -73.961500   54.460500  136.052000
  C    -75.349600   56.187400  135.908000
  H    -76.037100   55.843700  136.614000
  H    -75.871200   56.801100  135.115000
  C    -74.411200   57.091500  136.654000
  H    -74.871500   57.503200  137.544000
  H    -74.003300   57.889500  136.033000
  H    -73.605700   56.561700  137.047000
  H    -74.433400   49.547500  138.825000
  H    -78.156600   53.485800  132.642000

 Total Charge           Charge          ....    0
 Multiplicity           Mult            ....    1
 Number of Electrons    NEL             ....  134
 Basis Dimension        Dim             ....  322

ORBITAL ENERGIES
----------------

  NO   OCC          E(Eh)            E(eV)
   0   2.0000     -88.970406     -2421.0078
   1   2.0000     -88.960734     -2420.7447
   2   2.0000     -10.333467      -281.1879
   3   2.0000     -10.331225      -281.1269
   4   2.0000     -10.314761      -280.6789
   5   2.0000     -10.309453      -280.5345
   6   2.0000     -10.305052      -280.4147
   7   2.0000     -10.304295      -280.3941
   8   2.0000     -10.301040      -280.3055
   9   2.0000     -10.300577      -280.2930
  10   2.0000     -10.294707      -280.1332
  11   2.0000     -10.291935      -280.0578
  12   2.0000     -10.287871      -279.9472
  13   2.0000     -10.280873      -279.7568
  14   2.0000     -10.271551      -279.5031
  15   2.0000     -10.266460      -279.3646
  16   2.0000      -8.083798      -219.9713
  17   2.0000      -8.076391      -219.7698
  18   2.0000      -6.042509      -164.4250
  19   2.0000      -6.038372      -164.3125
  20   2.0000      -6.034817      -164.2157
  21   2.0000      -6.034529      -164.2079
  22   2.0000      -6.030678      -164.1031
  23   2.0000      -6.027268      -164.0103
  24   2.0000      -1.005828       -27.3700
  25   2.0000      -0.981824       -26.7168
  26   2.0000      -0.917074       -24.9548
  27   2.0000      -0.907015       -24.6811
  28   2.0000      -0.868381       -23.6299
  29   2.0000      -0.853048       -23.2126
  30   2.0000      -0.839847       -22.8534
  31   2.0000      -0.816082       -22.2067
  32   2.0000      -0.784409       -21.3449
  33   2.0000      -0.775291       -21.0968
  34   2.0000      -0.715327       -19.4650
  35   2.0000      -0.702628       -19.1195
  36   2.0000      -0.701352       -19.0848
  37   2.0000      -0.649243       -17.6668
  38   2.0000      -0.636098       -17.3091
  39   2.0000      -0.617471       -16.8022
  40   2.0000      -0.599263       -16.3068
  41   2.0000      -0.573562       -15.6074
  42   2.0000      -0.565685       -15.3931
  43   2.0000      -0.549849       -14.9621
  44   2.0000      -0.532112       -14.4795
  45   2.0000      -0.527387       -14.3509
  46   2.0000      -0.519871       -14.1464
  47   2.0000      -0.512998       -13.9594
  48   2.0000      -0.505803       -13.7636
  49   2.0000      -0.504309       -13.7230
  50   2.0000      -0.488158       -13.2834
  51   2.0000      -0.482575       -13.1315
  52   2.0000      -0.472793       -12.8653
  53   2.0000      -0.464321       -12.6348
  54   2.0000      -0.456689       -12.4271
  55   2.0000      -0.444617       -12.0986
  56   2.0000      -0.444250       -12.0887
  57   2.0000      -0.437072       -11.8933
  58   2.0000      -0.433297       -11.7906
  59   2.0000      -0.426694       -11.6109
  60   2.0000      -0.425111       -11.5679
  61   2.0000      -0.415510       -11.3066
  62   2.0000      -0.410679       -11.1751
  63   2.0000      -0.348726        -9.4893
  64   2.0000      -0.329317        -8.9612
  65   2.0000      -0.326702        -8.8900
  66   2.0000      -0.287451        -7.8220
  67   0.0000       0.021661         0.5894
  68   0.0000       0.074205         2.0192
  69   0.0000       0.111867         3.0441
  70   0.0000       0.119731         3.2580
  71   0.0000       0.130091         3.5399

MULLIKEN ATOMIC CHARGES
-----------------------
   0 S :    0.108283
   1 C :   -0.070656
   2 C :   -0.106997
   3 C :    0.017872
   4 C :   -0.155089
   5 H :    0.023068
   6 C :   -0.006465
   7 H :    0.031303
   8 H :    0.064304
   9 C :   -0.066681
  10 H :    0.031074
  11 H :    0.037237
  12 C :   -0.007248
  13 H :    0.017562
  14 H :    0.020455
  15 H :    0.032423
  16 S :    0.098135
  17 C :   -0.054465
  18 C :   -0.058562
  19 C :   -0.045587
  20 C :   -0.162332
  21 H :    0.021288
  22 C :    0.087946
  23 H :    0.019375
  24 H :    0.022199
  25 C :   -0.069115
  26 H :    0.023321
  27 H :    0.042491
  28 C :   -0.006254
  29 H :    0.024596
  30 H :    0.031384
  31 H :    0.001932
  32 H :    0.021055
  33 H :    0.032148
Sum of atomic charges:    0.0000000

LOEWDIN ATOMIC CHARGES
----------------------
   0 S :    0.398735
   1 C :   -0.195211
   2 C :   -0.059408
   3 C :   -0.070371
   4 C :   -0.189575
   5 H :    0.030866
   6 C :   -0.046317
   7 H :    0.032860
   8 H :    0.044928
   9 C :   -0.042178
  10 H :    0.025399
  11 H :    0.031493
  12 C :   -0.055154
  13 H :    0.024110
  14 H :    0.012920
  15 H :    0.033096
  16 S :    0.412257
  17 C :   -0.191538
  18 C :   -0.080377
  19 C :   -0.050550
  20 C :   -0.198140
  21 H :    0.035994
  22 C :   -0.027177
  23 H :    0.028774
  24 H :    0.029527
  25 C :   -0.037335
  26 H :    0.020572
  27 H :    0.033614
  28 C :   -0.060598
  29 H :    0.027733
  30 H :    0.026057
  31 H :    0.015004
  32 H :    0.020821
  33 H :    0.019171

  Mayer bond orders larger than 0.100000
B(  0-S ,  1-C ) :   1.1114 B(  0-S ,  4-C ) :   1.1626 B(  1-C ,  2-C ) :   1.6184
B(  1-C ,  4-C ) :   0.1027 B(  1-C , 32-H ) :   0.9706 B(  2-C ,  3-C ) :   1.2210
B(  2-C ,  6-C ) :   1.0083 B(  3-C ,  4-C ) :   1.5533 B(  3-C ,  5-H ) :   0.9859
B(  4-C , 20-C ) :   1.0492 B(  6-C ,  7-H ) :   0.9427 B(  6-C ,  8-H ) :   0.9386
B(  6-C ,  9-C ) :   1.0728 B(  9-C , 10-H ) :   0.9499 B(  9-C , 11-H ) :   0.9559
B(  9-C , 12-C ) :   1.0602 B( 12-C , 13-H ) :   0.9730 B( 12-C , 14-H ) :   0.9809
B( 12-C , 15-H ) :   0.9725 B( 16-S , 17-C ) :   1.1476 B( 16-S , 20-C ) :   1.1617
B( 17-C , 18-C ) :   1.6434 B( 17-C , 33-H ) :   0.9674 B( 18-C , 19-C ) :   1.2328
B( 18-C , 21-H ) :   0.9832 B( 19-C , 20-C ) :   1.5456 B( 19-C , 22-C ) :   1.0417
B( 22-C , 23-H ) :   0.9204 B( 22-C , 24-H ) :   0.9341 B( 22-C , 25-C ) :   1.0801
B( 25-C , 26-H ) :   0.9582 B( 25-C , 27-H ) :   0.9511 B( 25-C , 28-C ) :   1.0893
B( 28-C , 29-H ) :   0.9742 B( 28-C , 30-H ) :   0.9746 B( 28-C , 31-H ) :   0.9698

Dispersion correction           -0.014034201
FINAL SINGLE POINT ENERGY     -1339.846669177092

DIPOLE MOMENT
-------------
                                X             Y             Z
Electronic contribution:    -22.69283     -12.11474      -4.09912
Nuclear contribution   :     23.25651      12.57651       4.06424
                        -----------------------------------------
Total Dipole Moment    :      0.56368       0.46177      -0.03488
                        -----------------------------------------
Magnitude (a.u.)       :      0.72951
Magnitude (Debye)      :      1.85427

Rotational constants in cm-1:     0.016654     0.008934     0.007180
Rotational constants in MHz :   499.273677   267.846687   215.261536

                             ****ORCA TERMINATED NORMALLY****
TOTAL RUN TIME: 0 days 0 hours 0 minutes 35 seconds 3 msec
