                         Program Version 4.2.1 -  RELEASE  -
|  1> ! wB97X-D3 SP def2-SVP
|  2> %pal
|  3> nprocs 16
|  4> end
|  5>
|  6> * xyz 0 1
|  7> S 	 -63.1582 	 53.3803 	 126.112
|  8> C 	 -64.4777 	 53.2247 	 125.035
|  9> C 	 -65.5243 	 52.4334 	 125.544
| 10> C 	 -65.1176 	 51.8573 	 126.826
| 11> C 	 -63.9243 	 52.3928 	 127.301
| 12> H 	 -65.6477 	 51.1156 	 127.405
| 13> C 	 -66.874 	 51.9746 	 124.912
| 14> H 	 -67.1669 	 52.6555 	 124.184
| 15> H 	 -67.6718 	 52.0495 	 125.675
| 16> C 	 -66.8118 	 50.551 	 124.316
| 17> H 	 -65.8473 	 50.4765 	 123.779
| 18> H 	 -66.7471 	 49.7885 	 125.198
| 19> C 	 -67.8995 	 50.1535 	 123.313
| 20> H 	 -67.8512 	 49.1008 	 123.147
| 21> H 	 -68.928 	 50.3302 	 123.628
| 22> H 	 -67.9051 	 50.6154 	 122.381
| 23> S 	 -61.6223 	 51.2276 	 128.216
| 24> C 	 -61.4076 	 51.0446 	 129.972
| 25> C 	 -62.4871 	 51.6178 	 130.62
| 26> C 	 -63.5074 	 52.1694 	 129.843
| 27> C 	 -63.2463 	 52.0242 	 128.493
| 28> H 	 -62.5082 	 51.5733 	 131.683
| 29> C 	 -64.7725 	 52.6778 	 130.44
| 30> H 	 -64.7361 	 52.3964 	 131.5
| 31> H 	 -65.6242 	 52.1638 	 129.879
| 32> C 	 -65.0007 	 54.1701 	 130.316
| 33> H 	 -65.9704 	 54.4662 	 130.599
| 34> H 	 -65.0075 	 54.3893 	 129.219
| 35> C 	 -63.8839 	 55.0705 	 130.866
| 36> H 	 -63.851 	 54.9585 	 131.948
| 37> H 	 -63.9232 	 56.1072 	 130.614
| 38> H 	 -62.9768 	 54.7515 	 130.399
| 39> H 	 -64.5787 	 53.5969 	 124.038
| 40> H 	 -60.6138 	 50.5566 	 130.436
| 41> *
| 42>
| 43>                          ****END OF INPUT****

CARTESIAN COORDINATES (ANGSTROEM)
---------------------------------
  S    -63.158200   53.380300  126.112000
  C    -64.477700   53.224700  125.035000
  C    -65.524300   52.433400  125.544000
  C    -65.117600   51.857300  126.826000
  C    -63.924300   52.392800  127.301000
  H    -65.647700   51.115600  127.405000
  C    -66.874000   51.974600  124.912000
  H    -67.166900   52.655500  124.184000
  H    -67.671800   52.049500  125.675000
  C    -66.811800   50.551000  124.316000
  H    -65.847300   50.476500  123.779000
  H    -66.747100   49.788500  125.198000
  C    -67.899500   50.153500  123.313000
  H    -67.851200   49.100800  123.147000
  H    -68.928000   50.330200  123.628000
  H    -67.905100   50.615400  122.381000
  S    -61.622300   51.227600  128.216000
  C    -61.407600   51.044600  129.972000
  C    -62.487100   51.617800  130.620000
  C    -63.507400   52.169400  129.843000
  C    -63.246300   52.024200  128.493000
  H    -62.508200   51.573300  131.683000
  C    -64.772500   52.677800  130.440000
  H    -64.736100   52.396400  131.500000
  H    -65.624200   52.163800  129.879000
  C    -65.000700   54.170100  130.316000
  H    -65.970400   54.466200  130.599000
  H    -65.007500   54.389300  129.219000
  C    -63.883900   55.070500  130.866000
  H    -63.851000   54.958500  131.948000
  H    -63.923200   56.107200  130.614000
  H    -62.976800   54.751500  130.399000
  H    -64.578700   53.596900  124.038000
  H    -60.613800   50.556600  130.436000

 Total Charge           Charge          ....    0
 Multiplicity           Mult            ....    1
 Number of Electrons    NEL             ....  134
 Basis Dimension        Dim             ....  322

ORBITAL ENERGIES
----------------

  NO   OCC          E(Eh)            E(eV)
   0   2.0000     -88.970103     -2420.9996
   1   2.0000     -88.962728     -2420.7989
   2   2.0000     -10.326897      -281.0091
   3   2.0000     -10.323654      -280.9209
   4   2.0000     -10.315854      -280.7087
   5   2.0000     -10.313899      -280.6555
   6   2.0000     -10.308368      -280.5049
   7   2.0000     -10.299711      -280.2694
   8   2.0000     -10.298239      -280.2293
   9   2.0000     -10.295942      -280.1668
  10   2.0000     -10.295263      -280.1484
  11   2.0000     -10.294622      -280.1309
  12   2.0000     -10.288357      -279.9604
  13   2.0000     -10.278430      -279.6903
  14   2.0000     -10.272673      -279.5336
  15   2.0000     -10.267156      -279.3835
  16   2.0000      -8.085519      -220.0182
  17   2.0000      -8.076112      -219.7622
  18   2.0000      -6.043984      -164.4652
  19   2.0000      -6.039844      -164.3525
  20   2.0000      -6.036368      -164.2579
  21   2.0000      -6.034640      -164.2109
  22   2.0000      -6.030850      -164.1078
  23   2.0000      -6.026883      -163.9998
  24   2.0000      -1.007493       -27.4153
  25   2.0000      -0.980823       -26.6896
  26   2.0000      -0.910615       -24.7791
  27   2.0000      -0.907010       -24.6810
  28   2.0000      -0.871313       -23.7096
  29   2.0000      -0.850901       -23.1542
  30   2.0000      -0.845705       -23.0128
  31   2.0000      -0.810709       -22.0605
  32   2.0000      -0.786988       -21.4150
  33   2.0000      -0.776706       -21.1353
  34   2.0000      -0.713345       -19.4111
  35   2.0000      -0.700261       -19.0551
  36   2.0000      -0.690390       -18.7865
  37   2.0000      -0.667607       -18.1665
  38   2.0000      -0.645152       -17.5555
  39   2.0000      -0.616588       -16.7782
  40   2.0000      -0.588014       -16.0007
  41   2.0000      -0.565880       -15.3984
  42   2.0000      -0.559365       -15.2211
  43   2.0000      -0.555244       -15.1090
  44   2.0000      -0.549122       -14.9424
  45   2.0000      -0.526136       -14.3169
  46   2.0000      -0.514499       -14.0002
  47   2.0000      -0.513322       -13.9682
  48   2.0000      -0.505549       -13.7567
  49   2.0000      -0.501212       -13.6387
  50   2.0000      -0.487285       -13.2597
  51   2.0000      -0.480314       -13.0700
  52   2.0000      -0.473299       -12.8791
  53   2.0000      -0.470816       -12.8115
  54   2.0000      -0.456419       -12.4198
  55   2.0000      -0.450556       -12.2603
  56   2.0000      -0.439973       -11.9723
  57   2.0000      -0.433626       -11.7996
  58   2.0000      -0.431842       -11.7510
  59   2.0000      -0.430164       -11.7054
  60   2.0000      -0.421773       -11.4770
  61   2.0000      -0.415403       -11.3037
  62   2.0000      -0.406621       -11.0647
  63   2.0000      -0.340500        -9.2655
  64   2.0000      -0.332980        -9.0608
  65   2.0000      -0.326378        -8.8812
  66   2.0000      -0.293787        -7.9944
  67   0.0000       0.029823         0.8115
  68   0.0000       0.059878         1.6294
  69   0.0000       0.111162         3.0249
  70   0.0000       0.119236         3.2446
  71   0.0000       0.128715         3.5025

MULLIKEN ATOMIC CHARGES
-----------------------
   0 S :    0.139832
   1 C :   -0.104801
   2 C :   -0.116332
   3 C :    0.029822
   4 C :   -0.170226
   5 H :    0.016907
   6 C :    0.109171
   7 H :   -0.002750
   8 H :    0.032524
   9 C :   -0.115963
  10 H :    0.039992
  11 H :    0.044325
  12 C :   -0.008816
  13 H :    0.028500
  14 H :    0.016407
  15 H :    0.018631
  16 S :    0.085235
  17 C :   -0.064125
  18 C :   -0.039158
  19 C :   -0.009007
  20 C :   -0.187809
  21 H :    0.002810
  22 C :    0.085029
  23 H :    0.017980
  24 H :    0.046153
  25 C :   -0.064312
  26 H :    0.013378
  27 H :    0.030336
  28 C :   -0.033611
  29 H :    0.025912
  30 H :    0.029618
  31 H :    0.031760
  32 H :    0.037020
  33 H :    0.035567
Sum of atomic charges:    0.0000000

LOEWDIN ATOMIC CHARGES
----------------------
   0 S :    0.440370
   1 C :   -0.213789
   2 C :   -0.056077
   3 C :   -0.054982
   4 C :   -0.217024
   5 H :    0.028898
   6 C :   -0.029140
   7 H :    0.017150
   8 H :    0.033933
   9 C :   -0.044634
  10 H :    0.029531
  11 H :    0.033442
  12 C :   -0.066416
  13 H :    0.028403
  14 H :    0.024655
  15 H :    0.017916
  16 S :    0.361114
  17 C :   -0.162230
  18 C :   -0.068813
  19 C :   -0.058280
  20 C :   -0.171801
  21 H :    0.024758
  22 C :   -0.029103
  23 H :    0.028722
  24 H :    0.045973
  25 C :   -0.041265
  26 H :    0.014222
  27 H :    0.030295
  28 C :   -0.061817
  29 H :    0.021263
  30 H :    0.024832
  31 H :    0.025457
  32 H :    0.026013
  33 H :    0.018426

  Mayer bond orders larger than 0.100000
B(  0-S ,  1-C ) :   1.1502 B(  0-S ,  4-C ) :   1.1487 B(  1-C ,  2-C ) :   1.6092
B(  1-C , 32-H ) :   0.9665 B(  2-C ,  3-C ) :   1.2311 B(  2-C ,  6-C ) :   1.0321
B(  3-C ,  4-C ) :   1.5765 B(  3-C ,  5-H ) :   0.9898 B(  4-C , 20-C ) :   1.0576
B(  6-C ,  7-H ) :   0.9379 B(  6-C ,  8-H ) :   0.9388 B(  6-C ,  9-C ) :   1.0528
B(  9-C , 10-H ) :   0.9575 B(  9-C , 11-H ) :   0.9558 B(  9-C , 12-C ) :   1.0821
B( 12-C , 13-H ) :   0.9721 B( 12-C , 14-H ) :   0.9723 B( 12-C , 15-H ) :   0.9731
B( 16-S , 17-C ) :   1.1407 B( 16-S , 20-C ) :   1.1280 B( 17-C , 18-C ) :   1.6095
B( 17-C , 20-C ) :   0.1137 B( 17-C , 33-H ) :   0.9768 B( 18-C , 19-C ) :   1.2388
B( 18-C , 21-H ) :   0.9878 B( 19-C , 20-C ) :   1.5878 B( 19-C , 22-C ) :   1.0322
B( 22-C , 23-H ) :   0.9319 B( 22-C , 24-H ) :   0.9314 B( 22-C , 25-C ) :   1.0715
B( 25-C , 26-H ) :   0.9570 B( 25-C , 27-H ) :   0.9541 B( 25-C , 28-C ) :   1.0715
B( 28-C , 29-H ) :   0.9776 B( 28-C , 30-H ) :   0.9739 B( 28-C , 31-H ) :   0.9706

Dispersion correction           -0.014668897
FINAL SINGLE POINT ENERGY     -1339.874180788788

DIPOLE MOMENT
-------------
                                X             Y             Z
Electronic contribution:     21.49361      -0.52464       0.20575
Nuclear contribution   :    -22.06177       0.39107      -0.17064
                        -----------------------------------------
Total Dipole Moment    :     -0.56816      -0.13358       0.03510
                        -----------------------------------------
Magnitude (a.u.)       :      0.58470
Magnitude (Debye)      :      1.48620

Rotational constants in cm-1:     0.021196     0.007614     0.006981
Rotational constants in MHz :   635.442461   228.254411   209.275291

                             ****ORCA TERMINATED NORMALLY****
TOTAL RUN TIME: 0 days 0 hours 0 minutes 31 seconds 690 msec
