                         Program Version 4.2.1 -  RELEASE  -
|  1> ! wB97X-D3 SP def2-SVP
|  2> %pal
|  3> nprocs 16
|  4> end
|  5>
|  6> * xyz 0 1
|  7> S 	 -67.0399 	 56.4031 	 131.752
|  8> C 	 -66.8215 	 57.0244 	 133.458
|  9> C 	 -67.8098 	 56.5103 	 134.249
| 10> C 	 -68.8199 	 55.7695 	 133.475
| 11> C 	 -68.5218 	 55.5095 	 132.155
| 12> H 	 -69.6916 	 55.2146 	 133.788
| 13> C 	 -67.957 	 56.62 	 135.782
| 14> H 	 -66.9929 	 57.0713 	 136.163
| 15> H 	 -67.959 	 55.5977 	 136.235
| 16> C 	 -69.1693 	 57.431 	 136.309
| 17> H 	 -69.1006 	 58.3354 	 135.657
| 18> H 	 -70.0472 	 56.8535 	 135.961
| 19> C 	 -69.1861 	 57.6942 	 137.765
| 20> H 	 -70.1901 	 58.1204 	 138.025
| 21> H 	 -68.937 	 56.8263 	 138.395
| 22> H 	 -68.4589 	 58.4763 	 138.078
| 23> S 	 -68.1273 	 53.28 	 130.484
| 24> C 	 -69.4476 	 52.6226 	 129.543
| 25> C 	 -70.6234 	 53.1705 	 130.03
| 26> C 	 -70.4636 	 54.2391 	 131.03
| 27> C 	 -69.1428 	 54.5972 	 131.252
| 28> H 	 -71.5763 	 52.7741 	 129.692
| 29> C 	 -71.6222 	 54.9201 	 131.736
| 30> H 	 -72.2078 	 55.2175 	 130.84
| 31> H 	 -71.3097 	 55.8126 	 132.247
| 32> C 	 -72.3182 	 54.1455 	 132.777
| 33> H 	 -72.8967 	 54.7656 	 133.475
| 34> H 	 -71.5958 	 53.5509 	 133.463
| 35> C 	 -73.2844 	 53.1396 	 132.106
| 36> H 	 -73.9109 	 53.6351 	 131.41
| 37> H 	 -73.9703 	 52.7125 	 132.898
| 38> H 	 -72.7359 	 52.2999 	 131.632
| 39> H 	 -65.9768 	 57.5871 	 133.861
| 40> H 	 -69.5233 	 51.7498 	 128.834
| 41> *
| 42>
| 43>                          ****END OF INPUT****

CARTESIAN COORDINATES (ANGSTROEM)
---------------------------------
  S    -67.039900   56.403100  131.752000
  C    -66.821500   57.024400  133.458000
  C    -67.809800   56.510300  134.249000
  C    -68.819900   55.769500  133.475000
  C    -68.521800   55.509500  132.155000
  H    -69.691600   55.214600  133.788000
  C    -67.957000   56.620000  135.782000
  H    -66.992900   57.071300  136.163000
  H    -67.959000   55.597700  136.235000
  C    -69.169300   57.431000  136.309000
  H    -69.100600   58.335400  135.657000
  H    -70.047200   56.853500  135.961000
  C    -69.186100   57.694200  137.765000
  H    -70.190100   58.120400  138.025000
  H    -68.937000   56.826300  138.395000
  H    -68.458900   58.476300  138.078000
  S    -68.127300   53.280000  130.484000
  C    -69.447600   52.622600  129.543000
  C    -70.623400   53.170500  130.030000
  C    -70.463600   54.239100  131.030000
  C    -69.142800   54.597200  131.252000
  H    -71.576300   52.774100  129.692000
  C    -71.622200   54.920100  131.736000
  H    -72.207800   55.217500  130.840000
  H    -71.309700   55.812600  132.247000
  C    -72.318200   54.145500  132.777000
  H    -72.896700   54.765600  133.475000
  H    -71.595800   53.550900  133.463000
  C    -73.284400   53.139600  132.106000
  H    -73.910900   53.635100  131.410000
  H    -73.970300   52.712500  132.898000
  H    -72.735900   52.299900  131.632000
  H    -65.976800   57.587100  133.861000
  H    -69.523300   51.749800  128.834000

 Total Charge           Charge          ....    0
 Multiplicity           Mult            ....    1
 Number of Electrons    NEL             ....  134
 Basis Dimension        Dim             ....  322

ORBITAL ENERGIES
----------------

  NO   OCC          E(Eh)            E(eV)
   0   2.0000     -88.964229     -2420.8397
   1   2.0000     -88.963829     -2420.8289
   2   2.0000     -10.334111      -281.2055
   3   2.0000     -10.333541      -281.1899
   4   2.0000     -10.327169      -281.0166
   5   2.0000     -10.325273      -280.9650
   6   2.0000     -10.312334      -280.6129
   7   2.0000     -10.311654      -280.5944
   8   2.0000     -10.302593      -280.3478
   9   2.0000     -10.299984      -280.2768
  10   2.0000     -10.299168      -280.2546
  11   2.0000     -10.295662      -280.1592
  12   2.0000     -10.291898      -280.0568
  13   2.0000     -10.289522      -279.9921
  14   2.0000     -10.287027      -279.9242
  15   2.0000     -10.281134      -279.7639
  16   2.0000      -8.077523      -219.8006
  17   2.0000      -8.077403      -219.7973
  18   2.0000      -6.036367      -164.2579
  19   2.0000      -6.036222      -164.2539
  20   2.0000      -6.032239      -164.1456
  21   2.0000      -6.032172      -164.1437
  22   2.0000      -6.027944      -164.0287
  23   2.0000      -6.027735      -164.0230
  24   2.0000      -1.000199       -27.2168
  25   2.0000      -0.975647       -26.5487
  26   2.0000      -0.918458       -24.9925
  27   2.0000      -0.911695       -24.8085
  28   2.0000      -0.877412       -23.8756
  29   2.0000      -0.846107       -23.0237
  30   2.0000      -0.835459       -22.7340
  31   2.0000      -0.815902       -22.2018
  32   2.0000      -0.783949       -21.3323
  33   2.0000      -0.775110       -21.0918
  34   2.0000      -0.714592       -19.4450
  35   2.0000      -0.695232       -18.9182
  36   2.0000      -0.691664       -18.8211
  37   2.0000      -0.657883       -17.9019
  38   2.0000      -0.644243       -17.5308
  39   2.0000      -0.611732       -16.6461
  40   2.0000      -0.592205       -16.1147
  41   2.0000      -0.571657       -15.5556
  42   2.0000      -0.562933       -15.3182
  43   2.0000      -0.550467       -14.9790
  44   2.0000      -0.548849       -14.9349
  45   2.0000      -0.528881       -14.3916
  46   2.0000      -0.519719       -14.1423
  47   2.0000      -0.515550       -14.0288
  48   2.0000      -0.506566       -13.7844
  49   2.0000      -0.500780       -13.6269
  50   2.0000      -0.498497       -13.5648
  51   2.0000      -0.483479       -13.1561
  52   2.0000      -0.473092       -12.8735
  53   2.0000      -0.467935       -12.7332
  54   2.0000      -0.458798       -12.4845
  55   2.0000      -0.447759       -12.1841
  56   2.0000      -0.442362       -12.0373
  57   2.0000      -0.429878       -11.6976
  58   2.0000      -0.425384       -11.5753
  59   2.0000      -0.419773       -11.4226
  60   2.0000      -0.415371       -11.3028
  61   2.0000      -0.413932       -11.2637
  62   2.0000      -0.403556       -10.9813
  63   2.0000      -0.354011        -9.6331
  64   2.0000      -0.329144        -8.9565
  65   2.0000      -0.322850        -8.7852
  66   2.0000      -0.297465        -8.0944
  67   0.0000       0.019337         0.5262
  68   0.0000       0.067773         1.8442
  69   0.0000       0.103334         2.8119
  70   0.0000       0.111032         3.0213
  71   0.0000       0.121256         3.2996

MULLIKEN ATOMIC CHARGES
-----------------------
   0 S :    0.087766
   1 C :   -0.117027
   2 C :   -0.072781
   3 C :    0.039794
   4 C :   -0.167966
   5 H :   -0.002018
   6 C :    0.017328
   7 H :    0.017028
   8 H :    0.042143
   9 C :   -0.085516
  10 H :    0.040358
  11 H :    0.033725
  12 C :   -0.041505
  13 H :    0.044846
  14 H :    0.037028
  15 H :    0.035138
  16 S :    0.086383
  17 C :   -0.088419
  18 C :   -0.050793
  19 C :   -0.054713
  20 C :   -0.116009
  21 H :    0.019869
  22 C :    0.055310
  23 H :    0.044638
  24 H :    0.018854
  25 C :   -0.091968
  26 H :    0.034917
  27 H :    0.051835
  28 C :   -0.063564
  29 H :    0.021658
  30 H :    0.035291
  31 H :    0.048071
  32 H :    0.057475
  33 H :    0.082822
Sum of atomic charges:   -0.0000000

LOEWDIN ATOMIC CHARGES
----------------------
   0 S :    0.360825
   1 C :   -0.171898
   2 C :   -0.061359
   3 C :   -0.061973
   4 C :   -0.182955
   5 H :    0.026697
   6 C :   -0.038646
   7 H :    0.027534
   8 H :    0.032639
   9 C :   -0.051478
  10 H :    0.032649
  11 H :    0.025253
  12 C :   -0.072494
  13 H :    0.036069
  14 H :    0.028878
  15 H :    0.030607
  16 S :    0.371243
  17 C :   -0.192058
  18 C :   -0.081364
  19 C :   -0.045449
  20 C :   -0.176736
  21 H :    0.027146
  22 C :   -0.041403
  23 H :    0.040142
  24 H :    0.028680
  25 C :   -0.047031
  26 H :    0.025498
  27 H :    0.035243
  28 C :   -0.067624
  29 H :    0.015742
  30 H :    0.030387
  31 H :    0.028108
  32 H :    0.036874
  33 H :    0.052255

  Mayer bond orders larger than 0.100000
B(  0-S ,  1-C ) :   1.1033 B(  0-S ,  4-C ) :   1.1127 B(  1-C ,  2-C ) :   1.6680
B(  1-C , 32-H ) :   0.9644 B(  2-C ,  3-C ) :   1.1743 B(  2-C ,  6-C ) :   1.0274
B(  3-C ,  4-C ) :   1.6228 B(  3-C ,  5-H ) :   0.9842 B(  4-C , 20-C ) :   1.0810
B(  6-C ,  7-H ) :   0.9452 B(  6-C ,  8-H ) :   0.9384 B(  6-C ,  9-C ) :   1.0476
B(  9-C , 10-H ) :   0.9541 B(  9-C , 11-H ) :   0.9539 B(  9-C , 12-C ) :   1.0903
B( 12-C , 13-H ) :   0.9709 B( 12-C , 14-H ) :   0.9710 B( 12-C , 15-H ) :   0.9709
B( 16-S , 17-C ) :   1.1406 B( 16-S , 20-C ) :   1.1005 B( 17-C , 18-C ) :   1.6291
B( 17-C , 33-H ) :   0.9576 B( 18-C , 19-C ) :   1.2140 B( 18-C , 21-H ) :   0.9820
B( 19-C , 20-C ) :   1.6119 B( 19-C , 22-C ) :   1.0388 B( 22-C , 23-H ) :   0.9396
B( 22-C , 24-H ) :   0.9289 B( 22-C , 25-C ) :   1.0647 B( 25-C , 26-H ) :   0.9579
B( 25-C , 27-H ) :   0.9449 B( 25-C , 28-C ) :   1.0791 B( 28-C , 29-H ) :   0.9758
B( 28-C , 30-H ) :   0.9720 B( 28-C , 31-H ) :   0.9717

Dispersion correction           -0.014213936
FINAL SINGLE POINT ENERGY     -1339.860689484160

DIPOLE MOMENT
-------------
                                X             Y             Z
Electronic contribution:     19.97010      -3.79079     -22.34533
Nuclear contribution   :    -20.60050       3.69813      22.98382
                        -----------------------------------------
Total Dipole Moment    :     -0.63040      -0.09266       0.63850
                        -----------------------------------------
Magnitude (a.u.)       :      0.90203
Magnitude (Debye)      :      2.29279

Rotational constants in cm-1:     0.018275     0.008634     0.006240
Rotational constants in MHz :   547.876565   258.833162   187.058518

                             ****ORCA TERMINATED NORMALLY****
TOTAL RUN TIME: 0 days 0 hours 0 minutes 35 seconds 432 msec
