                         Program Version 4.2.1 -  RELEASE  -
|  1> ! wB97X-D3 SP def2-SVP
|  2> %pal
|  3> nprocs 16
|  4> end
|  5>
|  6> * xyz 0 1
|  7> S 	 4.96331 	 -22.2249 	 58.8402
|  8> C 	 3.74524 	 -23.3981 	 58.5016
|  9> C 	 4.25461 	 -24.6727 	 58.1892
| 10> C 	 5.69679 	 -24.677 	 58.1964
| 11> C 	 6.17567 	 -23.4053 	 58.614
| 12> H 	 6.30953 	 -25.5023 	 57.9375
| 13> C 	 3.44399 	 -25.8375 	 57.7885
| 14> H 	 4.08364 	 -26.7102 	 57.5205
| 15> H 	 2.79369 	 -25.496 	 56.9504
| 16> C 	 2.38846 	 -26.33 	 58.7639
| 17> H 	 2.96679 	 -26.6453 	 59.5593
| 18> H 	 1.7634 	 -25.5498 	 59.1518
| 19> C 	 1.53812 	 -27.4619 	 58.2585
| 20> H 	 2.07844 	 -28.3756 	 58.0142
| 21> H 	 0.811719 	 -27.8255 	 58.9915
| 22> H 	 0.893248 	 -27.1482 	 57.4091
| 23> S 	 8.27384 	 -21.9012 	 57.6427
| 24> C 	 9.92329 	 -22.1454 	 58.3908
| 25> C 	 9.89576 	 -23.2079 	 59.2299
| 26> C 	 8.59141 	 -23.7072 	 59.4559
| 27> C 	 7.58376 	 -23.046 	 58.7605
| 28> H 	 10.8181 	 -23.525 	 59.6739
| 29> C 	 8.34398 	 -24.7741 	 60.4678
| 30> H 	 7.25461 	 -24.8292 	 60.714
| 31> H 	 8.77497 	 -24.3576 	 61.4061
| 32> C 	 8.89549 	 -26.2248 	 60.2106
| 33> H 	 8.57821 	 -26.7381 	 61.06
| 34> H 	 10.0265 	 -26.1454 	 60.195
| 35> C 	 8.36629 	 -27.0498 	 59.0148
| 36> H 	 8.7493 	 -28.0617 	 59.149
| 37> H 	 8.70581 	 -26.4581 	 58.1391
| 38> H 	 7.254 	 -26.9817 	 58.8788
| 39> H 	 2.6853 	 -23.1045 	 58.4696
| 40> H 	 10.7849 	 -21.5542 	 58.1436
| 41> *
| 42>
| 43>                          ****END OF INPUT****

CARTESIAN COORDINATES (ANGSTROEM)
---------------------------------
  S      4.963310  -22.224900   58.840200
  C      3.745240  -23.398100   58.501600
  C      4.254610  -24.672700   58.189200
  C      5.696790  -24.677000   58.196400
  C      6.175670  -23.405300   58.614000
  H      6.309530  -25.502300   57.937500
  C      3.443990  -25.837500   57.788500
  H      4.083640  -26.710200   57.520500
  H      2.793690  -25.496000   56.950400
  C      2.388460  -26.330000   58.763900
  H      2.966790  -26.645300   59.559300
  H      1.763400  -25.549800   59.151800
  C      1.538120  -27.461900   58.258500
  H      2.078440  -28.375600   58.014200
  H      0.811719  -27.825500   58.991500
  H      0.893248  -27.148200   57.409100
  S      8.273840  -21.901200   57.642700
  C      9.923290  -22.145400   58.390800
  C      9.895760  -23.207900   59.229900
  C      8.591410  -23.707200   59.455900
  C      7.583760  -23.046000   58.760500
  H     10.818100  -23.525000   59.673900
  C      8.343980  -24.774100   60.467800
  H      7.254610  -24.829200   60.714000
  H      8.774970  -24.357600   61.406100
  C      8.895490  -26.224800   60.210600
  H      8.578210  -26.738100   61.060000
  H     10.026500  -26.145400   60.195000
  C      8.366290  -27.049800   59.014800
  H      8.749300  -28.061700   59.149000
  H      8.705810  -26.458100   58.139100
  H      7.254000  -26.981700   58.878800
  H      2.685300  -23.104500   58.469600
  H     10.784900  -21.554200   58.143600

 Total Charge           Charge          ....    0
 Multiplicity           Mult            ....    1
 Number of Electrons    NEL             ....  134
 Basis Dimension        Dim             ....  322

ORBITAL ENERGIES
----------------

  NO   OCC          E(Eh)            E(eV)
   0   2.0000     -88.971132     -2421.0276
   1   2.0000     -88.960180     -2420.7296
   2   2.0000     -10.328237      -281.0456
   3   2.0000     -10.321656      -280.8665
   4   2.0000     -10.318616      -280.7838
   5   2.0000     -10.314066      -280.6600
   6   2.0000     -10.303461      -280.3714
   7   2.0000     -10.297849      -280.2187
   8   2.0000     -10.297274      -280.2031
   9   2.0000     -10.292112      -280.0626
  10   2.0000     -10.290823      -280.0275
  11   2.0000     -10.290354      -280.0148
  12   2.0000     -10.289027      -279.9787
  13   2.0000     -10.286194      -279.9016
  14   2.0000     -10.279717      -279.7253
  15   2.0000     -10.275619      -279.6138
  16   2.0000      -8.086802      -220.0531
  17   2.0000      -8.074278      -219.7123
  18   2.0000      -6.045038      -164.4938
  19   2.0000      -6.041082      -164.3862
  20   2.0000      -6.037908      -164.2998
  21   2.0000      -6.032894      -164.1634
  22   2.0000      -6.029006      -164.0576
  23   2.0000      -6.024828      -163.9439
  24   2.0000      -1.006864       -27.3982
  25   2.0000      -0.982580       -26.7374
  26   2.0000      -0.921173       -25.0664
  27   2.0000      -0.900529       -24.5046
  28   2.0000      -0.870792       -23.6954
  29   2.0000      -0.856580       -23.3087
  30   2.0000      -0.845692       -23.0124
  31   2.0000      -0.814948       -22.1759
  32   2.0000      -0.781511       -21.2660
  33   2.0000      -0.767288       -20.8790
  34   2.0000      -0.705936       -19.2095
  35   2.0000      -0.703351       -19.1391
  36   2.0000      -0.689737       -18.7687
  37   2.0000      -0.659550       -17.9473
  38   2.0000      -0.644209       -17.5298
  39   2.0000      -0.618160       -16.8210
  40   2.0000      -0.591656       -16.0998
  41   2.0000      -0.582132       -15.8406
  42   2.0000      -0.565317       -15.3831
  43   2.0000      -0.553742       -15.0681
  44   2.0000      -0.540152       -14.6983
  45   2.0000      -0.526929       -14.3385
  46   2.0000      -0.516228       -14.0473
  47   2.0000      -0.512919       -13.9572
  48   2.0000      -0.504690       -13.7333
  49   2.0000      -0.496639       -13.5142
  50   2.0000      -0.490702       -13.3527
  51   2.0000      -0.477230       -12.9861
  52   2.0000      -0.471366       -12.8265
  53   2.0000      -0.463818       -12.6211
  54   2.0000      -0.462999       -12.5988
  55   2.0000      -0.452522       -12.3137
  56   2.0000      -0.441631       -12.0174
  57   2.0000      -0.438859       -11.9420
  58   2.0000      -0.431570       -11.7436
  59   2.0000      -0.429202       -11.6792
  60   2.0000      -0.418566       -11.3898
  61   2.0000      -0.417089       -11.3496
  62   2.0000      -0.407855       -11.0983
  63   2.0000      -0.343717        -9.3530
  64   2.0000      -0.330246        -8.9864
  65   2.0000      -0.320499        -8.7212
  66   2.0000      -0.293219        -7.9789
  67   0.0000       0.030814         0.8385
  68   0.0000       0.066843         1.8189
  69   0.0000       0.109016         2.9665
  70   0.0000       0.118996         3.2381
  71   0.0000       0.124828         3.3967

MULLIKEN ATOMIC CHARGES
-----------------------
   0 S :    0.143469
   1 C :   -0.138626
   2 C :   -0.067800
   3 C :    0.065925
   4 C :   -0.190689
   5 H :   -0.016888
   6 C :    0.041690
   7 H :    0.028197
   8 H :    0.034570
   9 C :   -0.041241
  10 H :    0.004592
  11 H :    0.022265
  12 C :   -0.053997
  13 H :    0.029259
  14 H :    0.030064
  15 H :    0.031264
  16 S :    0.082831
  17 C :   -0.096754
  18 C :   -0.009272
  19 C :   -0.022650
  20 C :   -0.130183
  21 H :    0.013982
  22 C :    0.005505
  23 H :    0.033806
  24 H :    0.034719
  25 C :   -0.068982
  26 H :    0.019202
  27 H :    0.037561
  28 C :   -0.068561
  29 H :    0.054135
  30 H :    0.047959
  31 H :    0.036528
  32 H :    0.055012
  33 H :    0.053109
Sum of atomic charges:    0.0000000

LOEWDIN ATOMIC CHARGES
----------------------
   0 S :    0.452788
   1 C :   -0.216162
   2 C :   -0.059500
   3 C :   -0.048993
   4 C :   -0.211377
   5 H :    0.023813
   6 C :   -0.037777
   7 H :    0.034261
   8 H :    0.038397
   9 C :   -0.038929
  10 H :    0.014346
  11 H :    0.022098
  12 C :   -0.068648
  13 H :    0.024915
  14 H :    0.029492
  15 H :    0.027569
  16 S :    0.368288
  17 C :   -0.151737
  18 C :   -0.066513
  19 C :   -0.067257
  20 C :   -0.207029
  21 H :    0.032282
  22 C :   -0.041521
  23 H :    0.033571
  24 H :    0.037323
  25 C :   -0.038152
  26 H :    0.015096
  27 H :    0.027550
  28 C :   -0.071976
  29 H :    0.032856
  30 H :    0.031112
  31 H :    0.025300
  32 H :    0.027853
  33 H :    0.026662

  Mayer bond orders larger than 0.100000
B(  0-S ,  1-C ) :   1.1587 B(  0-S ,  4-C ) :   1.2001 B(  1-C ,  2-C ) :   1.5584
B(  1-C , 32-H ) :   0.9682 B(  2-C ,  3-C ) :   1.2711 B(  2-C ,  6-C ) :   1.0400
B(  3-C ,  4-C ) :   1.5094 B(  3-C ,  5-H ) :   0.9964 B(  4-C , 20-C ) :   1.0126
B(  6-C ,  7-H ) :   0.9445 B(  6-C ,  8-H ) :   0.9307 B(  6-C ,  9-C ) :   1.0589
B(  9-C , 10-H ) :   0.9490 B(  9-C , 11-H ) :   0.9525 B(  9-C , 12-C ) :   1.0980
B( 12-C , 13-H ) :   0.9720 B( 12-C , 14-H ) :   0.9708 B( 12-C , 15-H ) :   0.9719
B( 16-S , 17-C ) :   1.1305 B( 16-S , 20-C ) :   1.1369 B( 17-C , 18-C ) :   1.6295
B( 17-C , 33-H ) :   0.9713 B( 18-C , 19-C ) :   1.2142 B( 18-C , 21-H ) :   0.9964
B( 19-C , 20-C ) :   1.6031 B( 19-C , 22-C ) :   1.0504 B( 22-C , 23-H ) :   0.9352
B( 22-C , 24-H ) :   0.9371 B( 22-C , 25-C ) :   1.0692 B( 25-C , 26-H ) :   0.9551
B( 25-C , 27-H ) :   0.9567 B( 25-C , 28-C ) :   1.0692 B( 28-C , 29-H ) :   0.9677
B( 28-C , 30-H ) :   0.9747 B( 28-C , 31-H ) :   0.9651

Dispersion correction           -0.014860775
FINAL SINGLE POINT ENERGY     -1339.874411264571

DIPOLE MOMENT
-------------
                                X             Y             Z
Electronic contribution:      8.90584      28.56166      -4.27393
Nuclear contribution   :     -8.93268     -29.16875       4.50013
                        -----------------------------------------
Total Dipole Moment    :     -0.02684      -0.60709       0.22620
                        -----------------------------------------
Magnitude (a.u.)       :      0.64842
Magnitude (Debye)      :      1.64815

Rotational constants in cm-1:     0.020891     0.008435     0.006530
Rotational constants in MHz :   626.284534   252.860290   195.762498

                             ****ORCA TERMINATED NORMALLY****
TOTAL RUN TIME: 0 days 0 hours 0 minutes 36 seconds 646 msec
