                         Program Version 4.2.1 -  RELEASE  -
|  1> ! wB97X-D3 SP def2-SVP
|  2> %pal
|  3> nprocs 16
|  4> end
|  5>
|  6> * xyz 0 1
|  7> S 	 -111.533 	 52.1412 	 133.163
|  8> C 	 -111.861 	 53.3001 	 134.365
|  9> C 	 -112.554 	 52.839 	 135.409
| 10> C 	 -112.822 	 51.4719 	 135.266
| 11> C 	 -112.354 	 50.9387 	 134.056
| 12> H 	 -113.348 	 50.8722 	 136.08
| 13> C 	 -113.018 	 53.6475 	 136.549
| 14> H 	 -113.213 	 53.0981 	 137.429
| 15> H 	 -113.933 	 54.1884 	 136.26
| 16> C 	 -112.006 	 54.681 	 137.084
| 17> H 	 -111.066 	 54.1043 	 136.943
| 18> H 	 -111.981 	 55.5116 	 136.408
| 19> C 	 -112.124 	 55.1221 	 138.506
| 20> H 	 -111.578 	 56.0604 	 138.778
| 21> H 	 -113.146 	 55.3881 	 138.676
| 22> H 	 -111.782 	 54.3787 	 139.164
| 23> S 	 -110.837 	 48.8051 	 132.867
| 24> C 	 -111.627 	 47.3298 	 132.635
| 25> C 	 -112.824 	 47.221 	 133.344
| 26> C 	 -113.232 	 48.4661 	 133.947
| 27> C 	 -112.291 	 49.4961 	 133.701
| 28> H 	 -113.233 	 46.2474 	 133.212
| 29> C 	 -114.664 	 48.6381 	 134.428
| 30> H 	 -114.632 	 49.2333 	 135.268
| 31> H 	 -115.042 	 47.6515 	 134.741
| 32> C 	 -115.715 	 49.1403 	 133.429
| 33> H 	 -115.763 	 48.4096 	 132.615
| 34> H 	 -115.29 	 49.9902 	 132.847
| 35> C 	 -117.164 	 49.4227 	 134.011
| 36> H 	 -117.098 	 50.025 	 134.95
| 37> H 	 -117.648 	 48.5414 	 134.286
| 38> H 	 -117.91 	 49.8098 	 133.225
| 39> H 	 -111.473 	 54.3974 	 134.337
| 40> H 	 -111.189 	 46.6164 	 131.95
| 41> *
| 42>
| 43>                          ****END OF INPUT****

CARTESIAN COORDINATES (ANGSTROEM)
---------------------------------
  S    -111.533000   52.141200  133.163000
  C    -111.861000   53.300100  134.365000
  C    -112.554000   52.839000  135.409000
  C    -112.822000   51.471900  135.266000
  C    -112.354000   50.938700  134.056000
  H    -113.348000   50.872200  136.080000
  C    -113.018000   53.647500  136.549000
  H    -113.213000   53.098100  137.429000
  H    -113.933000   54.188400  136.260000
  C    -112.006000   54.681000  137.084000
  H    -111.066000   54.104300  136.943000
  H    -111.981000   55.511600  136.408000
  C    -112.124000   55.122100  138.506000
  H    -111.578000   56.060400  138.778000
  H    -113.146000   55.388100  138.676000
  H    -111.782000   54.378700  139.164000
  S    -110.837000   48.805100  132.867000
  C    -111.627000   47.329800  132.635000
  C    -112.824000   47.221000  133.344000
  C    -113.232000   48.466100  133.947000
  C    -112.291000   49.496100  133.701000
  H    -113.233000   46.247400  133.212000
  C    -114.664000   48.638100  134.428000
  H    -114.632000   49.233300  135.268000
  H    -115.042000   47.651500  134.741000
  C    -115.715000   49.140300  133.429000
  H    -115.763000   48.409600  132.615000
  H    -115.290000   49.990200  132.847000
  C    -117.164000   49.422700  134.011000
  H    -117.098000   50.025000  134.950000
  H    -117.648000   48.541400  134.286000
  H    -117.910000   49.809800  133.225000
  H    -111.473000   54.397400  134.337000
  H    -111.189000   46.616400  131.950000

 Total Charge           Charge          ....    0
 Multiplicity           Mult            ....    1
 Number of Electrons    NEL             ....  134
 Basis Dimension        Dim             ....  322

ORBITAL ENERGIES
----------------

  NO   OCC          E(Eh)            E(eV)
   0   2.0000     -88.969308     -2420.9779
   1   2.0000     -88.964603     -2420.8499
   2   2.0000     -10.335122      -281.2330
   3   2.0000     -10.330002      -281.0937
   4   2.0000     -10.312217      -280.6097
   5   2.0000     -10.310977      -280.5759
   6   2.0000     -10.310278      -280.5569
   7   2.0000     -10.297129      -280.1991
   8   2.0000     -10.293205      -280.0924
   9   2.0000     -10.289807      -279.9999
  10   2.0000     -10.289035      -279.9789
  11   2.0000     -10.286536      -279.9109
  12   2.0000     -10.286442      -279.9083
  13   2.0000     -10.285998      -279.8962
  14   2.0000     -10.281517      -279.7743
  15   2.0000     -10.275244      -279.6036
  16   2.0000      -8.085520      -220.0182
  17   2.0000      -8.079688      -219.8595
  18   2.0000      -6.043859      -164.4618
  19   2.0000      -6.039792      -164.3511
  20   2.0000      -6.038059      -164.3039
  21   2.0000      -6.036403      -164.2589
  22   2.0000      -6.034139      -164.1973
  23   2.0000      -6.030589      -164.1007
  24   2.0000      -1.015168       -27.6241
  25   2.0000      -0.986674       -26.8488
  26   2.0000      -0.921794       -25.0833
  27   2.0000      -0.904265       -24.6063
  28   2.0000      -0.869650       -23.6644
  29   2.0000      -0.854806       -23.2605
  30   2.0000      -0.843603       -22.9556
  31   2.0000      -0.810984       -22.0680
  32   2.0000      -0.788241       -21.4491
  33   2.0000      -0.774523       -21.0758
  34   2.0000      -0.708976       -19.2922
  35   2.0000      -0.703700       -19.1487
  36   2.0000      -0.687952       -18.7201
  37   2.0000      -0.659586       -17.9483
  38   2.0000      -0.629954       -17.1419
  39   2.0000      -0.619576       -16.8595
  40   2.0000      -0.595743       -16.2110
  41   2.0000      -0.582094       -15.8396
  42   2.0000      -0.573312       -15.6006
  43   2.0000      -0.556333       -15.1386
  44   2.0000      -0.527337       -14.3496
  45   2.0000      -0.519479       -14.1357
  46   2.0000      -0.515005       -14.0140
  47   2.0000      -0.506495       -13.7824
  48   2.0000      -0.504865       -13.7381
  49   2.0000      -0.495449       -13.4819
  50   2.0000      -0.490075       -13.3356
  51   2.0000      -0.480069       -13.0633
  52   2.0000      -0.474815       -12.9204
  53   2.0000      -0.465515       -12.6673
  54   2.0000      -0.459511       -12.5039
  55   2.0000      -0.458426       -12.4744
  56   2.0000      -0.446092       -12.1388
  57   2.0000      -0.442322       -12.0362
  58   2.0000      -0.436117       -11.8674
  59   2.0000      -0.424289       -11.5455
  60   2.0000      -0.419681       -11.4201
  61   2.0000      -0.407745       -11.0953
  62   2.0000      -0.406239       -11.0543
  63   2.0000      -0.352087        -9.5808
  64   2.0000      -0.335999        -9.1430
  65   2.0000      -0.330316        -8.9883
  66   2.0000      -0.284088        -7.7304
  67   0.0000       0.022539         0.6133
  68   0.0000       0.082712         2.2507
  69   0.0000       0.106873         2.9082
  70   0.0000       0.121654         3.3104
  71   0.0000       0.139821         3.8047

MULLIKEN ATOMIC CHARGES
-----------------------
   0 S :    0.131722
   1 C :   -0.164967
   2 C :   -0.082761
   3 C :   -0.017635
   4 C :   -0.145374
   5 H :    0.041078
   6 C :    0.112202
   7 H :    0.000358
   8 H :    0.043933
   9 C :   -0.136868
  10 H :    0.035255
  11 H :    0.023684
  12 C :   -0.010419
  13 H :    0.036164
  14 H :    0.020391
  15 H :    0.029316
  16 S :    0.104365
  17 C :   -0.121139
  18 C :   -0.026894
  19 C :   -0.033366
  20 C :   -0.144623
  21 H :    0.012744
  22 C :    0.114198
  23 H :   -0.014355
  24 H :    0.015871
  25 C :   -0.065669
  26 H :    0.015925
  27 H :    0.034700
  28 C :   -0.056667
  29 H :    0.043092
  30 H :    0.014677
  31 H :    0.051620
  32 H :    0.077025
  33 H :    0.062414
Sum of atomic charges:   -0.0000000

LOEWDIN ATOMIC CHARGES
----------------------
   0 S :    0.449760
   1 C :   -0.221665
   2 C :   -0.080785
   3 C :   -0.065161
   4 C :   -0.212108
   5 H :    0.041611
   6 C :   -0.027210
   7 H :    0.022704
   8 H :    0.037767
   9 C :   -0.046409
  10 H :    0.027648
  11 H :    0.014497
  12 C :   -0.062349
  13 H :    0.036521
  14 H :    0.022478
  15 H :    0.021000
  16 S :    0.399806
  17 C :   -0.200276
  18 C :   -0.073999
  19 C :   -0.050354
  20 C :   -0.179885
  21 H :    0.030604
  22 C :   -0.026723
  23 H :    0.011211
  24 H :    0.032914
  25 C :   -0.041924
  26 H :    0.022080
  27 H :    0.027941
  28 C :   -0.071266
  29 H :    0.030825
  30 H :    0.013569
  31 H :    0.041902
  32 H :    0.048065
  33 H :    0.027211

  Mayer bond orders larger than 0.100000
B(  0-S ,  1-C ) :   1.1499 B(  0-S ,  4-C ) :   1.1771 B(  1-C ,  2-C ) :   1.6000
B(  1-C , 32-H ) :   0.9470 B(  2-C ,  3-C ) :   1.3041 B(  2-C ,  6-C ) :   1.0322
B(  3-C ,  4-C ) :   1.5164 B(  3-C ,  5-H ) :   0.9772 B(  4-C , 20-C ) :   1.0676
B(  6-C ,  7-H ) :   0.9396 B(  6-C ,  8-H ) :   0.9184 B(  6-C ,  9-C ) :   1.0558
B(  9-C , 10-H ) :   0.9668 B(  9-C , 11-H ) :   0.9481 B(  9-C , 12-C ) :   1.0990
B( 12-C , 13-H ) :   0.9706 B( 12-C , 14-H ) :   0.9705 B( 12-C , 15-H ) :   0.9715
B( 16-S , 17-C ) :   1.1747 B( 16-S , 20-C ) :   1.1374 B( 17-C , 18-C ) :   1.5996
B( 17-C , 33-H ) :   0.9660 B( 18-C , 19-C ) :   1.2187 B( 18-C , 21-H ) :   1.0026
B( 19-C , 20-C ) :   1.5732 B( 19-C , 22-C ) :   1.0596 B( 22-C , 23-H ) :   0.9226
B( 22-C , 24-H ) :   0.9318 B( 22-C , 25-C ) :   1.0584 B( 25-C , 26-H ) :   0.9533
B( 25-C , 27-H ) :   0.9589 B( 25-C , 28-C ) :   1.0617 B( 28-C , 29-H ) :   0.9778
B( 28-C , 30-H ) :   0.9755 B( 28-C , 31-H ) :   0.9738

Dispersion correction           -0.013638986
FINAL SINGLE POINT ENERGY     -1339.859930450902

DIPOLE MOMENT
-------------
                                X             Y             Z
Electronic contribution:     19.04278      -9.76005     -17.21504
Nuclear contribution   :    -19.44459       9.82425      17.54830
                        -----------------------------------------
Total Dipole Moment    :     -0.40181       0.06420       0.33326
                        -----------------------------------------
Magnitude (a.u.)       :      0.52596
Magnitude (Debye)      :      1.33689

Rotational constants in cm-1:     0.018917     0.007850     0.006241
Rotational constants in MHz :   567.118767   235.345148   187.101225

                             ****ORCA TERMINATED NORMALLY****
TOTAL RUN TIME: 0 days 0 hours 0 minutes 33 seconds 206 msec
