                         Program Version 4.2.1 -  RELEASE  -
|  1> ! wB97X-D3 SP def2-SVP
|  2> %pal
|  3> nprocs 16
|  4> end
|  5>
|  6> * xyz 0 1
|  7> S 	 -79.4659 	 47.4979 	 124.026
|  8> C 	 -80.5598 	 46.2307 	 124.491
|  9> C 	 -79.945 	 45.1163 	 124.999
| 10> C 	 -78.5189 	 45.2971 	 124.943
| 11> C 	 -78.1042 	 46.543 	 124.539
| 12> H 	 -77.7881 	 44.5507 	 125.295
| 13> C 	 -80.634 	 43.9394 	 125.614
| 14> H 	 -81.5625 	 44.1098 	 126.032
| 15> H 	 -80.0887 	 43.4331 	 126.432
| 16> C 	 -80.8234 	 42.766 	 124.697
| 17> H 	 -79.8355 	 42.4916 	 124.294
| 18> H 	 -81.2367 	 41.9781 	 125.379
| 19> C 	 -82.0348 	 43.0356 	 123.74
| 20> H 	 -81.8608 	 43.8861 	 123.055
| 21> H 	 -82.1025 	 42.1618 	 122.999
| 22> H 	 -82.9177 	 43.3299 	 124.333
| 23> S 	 -76.6036 	 48.8142 	 124.883
| 24> C 	 -74.8907 	 48.8374 	 124.716
| 25> C 	 -74.5001 	 47.661 	 124.152
| 26> C 	 -75.4737 	 46.627 	 124
| 27> C 	 -76.7307 	 47.0849 	 124.45
| 28> H 	 -73.4867 	 47.5122 	 123.845
| 29> C 	 -75.2115 	 45.2668 	 123.445
| 30> H 	 -76.2262 	 44.9539 	 123.08
| 31> H 	 -74.873 	 44.6259 	 124.287
| 32> C 	 -74.3107 	 45.1479 	 122.182
| 33> H 	 -73.3193 	 45.622 	 122.44
| 34> H 	 -74.6868 	 45.8165 	 121.439
| 35> C 	 -74.1907 	 43.8093 	 121.644
| 36> H 	 -75.0671 	 43.6071 	 120.96
| 37> H 	 -74.3053 	 43.0142 	 122.442
| 38> H 	 -73.328 	 43.4912 	 121.061
| 39> H 	 -81.6213 	 46.2712 	 124.329
| 40> H 	 -74.3301 	 49.7407 	 124.884
| 41> *
| 42>
| 43>                          ****END OF INPUT****

CARTESIAN COORDINATES (ANGSTROEM)
---------------------------------
  S    -79.465900   47.497900  124.026000
  C    -80.559800   46.230700  124.491000
  C    -79.945000   45.116300  124.999000
  C    -78.518900   45.297100  124.943000
  C    -78.104200   46.543000  124.539000
  H    -77.788100   44.550700  125.295000
  C    -80.634000   43.939400  125.614000
  H    -81.562500   44.109800  126.032000
  H    -80.088700   43.433100  126.432000
  C    -80.823400   42.766000  124.697000
  H    -79.835500   42.491600  124.294000
  H    -81.236700   41.978100  125.379000
  C    -82.034800   43.035600  123.740000
  H    -81.860800   43.886100  123.055000
  H    -82.102500   42.161800  122.999000
  H    -82.917700   43.329900  124.333000
  S    -76.603600   48.814200  124.883000
  C    -74.890700   48.837400  124.716000
  C    -74.500100   47.661000  124.152000
  C    -75.473700   46.627000  124.000000
  C    -76.730700   47.084900  124.450000
  H    -73.486700   47.512200  123.845000
  C    -75.211500   45.266800  123.445000
  H    -76.226200   44.953900  123.080000
  H    -74.873000   44.625900  124.287000
  C    -74.310700   45.147900  122.182000
  H    -73.319300   45.622000  122.440000
  H    -74.686800   45.816500  121.439000
  C    -74.190700   43.809300  121.644000
  H    -75.067100   43.607100  120.960000
  H    -74.305300   43.014200  122.442000
  H    -73.328000   43.491200  121.061000
  H    -81.621300   46.271200  124.329000
  H    -74.330100   49.740700  124.884000

 Total Charge           Charge          ....    0
 Multiplicity           Mult            ....    1
 Number of Electrons    NEL             ....  134
 Basis Dimension        Dim             ....  322

ORBITAL ENERGIES
----------------

  NO   OCC          E(Eh)            E(eV)
   0   2.0000     -88.967201     -2420.9206
   1   2.0000     -88.960440     -2420.7366
   2   2.0000     -10.333337      -281.1844
   3   2.0000     -10.331338      -281.1300
   4   2.0000     -10.314757      -280.6788
   5   2.0000     -10.311231      -280.5829
   6   2.0000     -10.306769      -280.4615
   7   2.0000     -10.301173      -280.3092
   8   2.0000     -10.298785      -280.2442
   9   2.0000     -10.296124      -280.1718
  10   2.0000     -10.290507      -280.0189
  11   2.0000     -10.290102      -280.0079
  12   2.0000     -10.287701      -279.9426
  13   2.0000     -10.287608      -279.9400
  14   2.0000     -10.284029      -279.8427
  15   2.0000     -10.282780      -279.8087
  16   2.0000      -8.082382      -219.9328
  17   2.0000      -8.075566      -219.7473
  18   2.0000      -6.040929      -164.3820
  19   2.0000      -6.036903      -164.2725
  20   2.0000      -6.034024      -164.1941
  21   2.0000      -6.032988      -164.1659
  22   2.0000      -6.030029      -164.0854
  23   2.0000      -6.026345      -163.9852
  24   2.0000      -1.008273       -27.4365
  25   2.0000      -0.987376       -26.8679
  26   2.0000      -0.921194       -25.0670
  27   2.0000      -0.916056       -24.9271
  28   2.0000      -0.868892       -23.6437
  29   2.0000      -0.858084       -23.3496
  30   2.0000      -0.843679       -22.9577
  31   2.0000      -0.812584       -22.1115
  32   2.0000      -0.783744       -21.3267
  33   2.0000      -0.774516       -21.0756
  34   2.0000      -0.707253       -19.2453
  35   2.0000      -0.699851       -19.0439
  36   2.0000      -0.689830       -18.7712
  37   2.0000      -0.656051       -17.8521
  38   2.0000      -0.643936       -17.5224
  39   2.0000      -0.624997       -17.0070
  40   2.0000      -0.603381       -16.4188
  41   2.0000      -0.575462       -15.6591
  42   2.0000      -0.569779       -15.5045
  43   2.0000      -0.549123       -14.9424
  44   2.0000      -0.535039       -14.5592
  45   2.0000      -0.533841       -14.5266
  46   2.0000      -0.520951       -14.1758
  47   2.0000      -0.514840       -14.0095
  48   2.0000      -0.505948       -13.7676
  49   2.0000      -0.499119       -13.5817
  50   2.0000      -0.491837       -13.3836
  51   2.0000      -0.481493       -13.1021
  52   2.0000      -0.472866       -12.8673
  53   2.0000      -0.465610       -12.6699
  54   2.0000      -0.462967       -12.5980
  55   2.0000      -0.453486       -12.3400
  56   2.0000      -0.444150       -12.0859
  57   2.0000      -0.443143       -12.0585
  58   2.0000      -0.426249       -11.5988
  59   2.0000      -0.418237       -11.3808
  60   2.0000      -0.417758       -11.3678
  61   2.0000      -0.409268       -11.1367
  62   2.0000      -0.404560       -11.0086
  63   2.0000      -0.354485        -9.6460
  64   2.0000      -0.331462        -9.0196
  65   2.0000      -0.328258        -8.9323
  66   2.0000      -0.288772        -7.8579
  67   0.0000       0.028593         0.7780
  68   0.0000       0.071469         1.9448
  69   0.0000       0.113027         3.0756
  70   0.0000       0.119140         3.2420
  71   0.0000       0.133312         3.6276

MULLIKEN ATOMIC CHARGES
-----------------------
   0 S :    0.117294
   1 C :   -0.116745
   2 C :   -0.051003
   3 C :   -0.002272
   4 C :   -0.128874
   5 H :    0.018621
   6 C :    0.082909
   7 H :   -0.006040
   8 H :    0.026299
   9 C :   -0.094210
  10 H :    0.037180
  11 H :    0.035550
  12 C :   -0.082657
  13 H :    0.030893
  14 H :    0.050726
  15 H :    0.036620
  16 S :    0.077264
  17 C :   -0.076149
  18 C :   -0.028091
  19 C :   -0.027704
  20 C :   -0.161016
  21 H :    0.005193
  22 C :    0.026109
  23 H :    0.036460
  24 H :    0.054543
  25 C :   -0.066765
  26 H :    0.028849
  27 H :    0.029150
  28 C :   -0.056577
  29 H :    0.034151
  30 H :    0.028600
  31 H :    0.040819
  32 H :    0.039351
  33 H :    0.061523
Sum of atomic charges:    0.0000000

LOEWDIN ATOMIC CHARGES
----------------------
   0 S :    0.412758
   1 C :   -0.193574
   2 C :   -0.060355
   3 C :   -0.066479
   4 C :   -0.198217
   5 H :    0.034018
   6 C :   -0.034281
   7 H :    0.017972
   8 H :    0.037904
   9 C :   -0.039097
  10 H :    0.024393
  11 H :    0.029138
  12 C :   -0.079625
  13 H :    0.021935
  14 H :    0.036046
  15 H :    0.027732
  16 S :    0.395931
  17 C :   -0.187996
  18 C :   -0.073993
  19 C :   -0.060123
  20 C :   -0.180549
  21 H :    0.024111
  22 C :   -0.035332
  23 H :    0.038413
  24 H :    0.037750
  25 C :   -0.049693
  26 H :    0.024072
  27 H :    0.025849
  28 C :   -0.076487
  29 H :    0.033574
  30 H :    0.030275
  31 H :    0.029230
  32 H :    0.023588
  33 H :    0.031111

  Mayer bond orders larger than 0.100000
B(  0-S ,  1-C ) :   1.1351 B(  0-S ,  4-C ) :   1.1483 B(  1-C ,  2-C ) :   1.6248
B(  1-C , 32-H ) :   0.9643 B(  2-C ,  3-C ) :   1.2305 B(  2-C ,  6-C ) :   1.0271
B(  3-C ,  4-C ) :   1.5906 B(  3-C ,  5-H ) :   0.9928 B(  4-C , 20-C ) :   1.0370
B(  6-C ,  7-H ) :   0.9385 B(  6-C ,  8-H ) :   0.9420 B(  6-C ,  9-C ) :   1.0730
B(  9-C , 10-H ) :   0.9578 B(  9-C , 11-H ) :   0.9573 B(  9-C , 12-C ) :   1.0654
B( 12-C , 13-H ) :   0.9760 B( 12-C , 14-H ) :   0.9740 B( 12-C , 15-H ) :   0.9714
B( 16-S , 17-C ) :   1.1569 B( 16-S , 20-C ) :   1.1492 B( 17-C , 18-C ) :   1.5807
B( 17-C , 20-C ) :   0.1031 B( 17-C , 33-H ) :   0.9737 B( 18-C , 19-C ) :   1.2522
B( 18-C , 21-H ) :   0.9933 B( 19-C , 20-C ) :   1.5613 B( 19-C , 22-C ) :   1.0404
B( 22-C , 23-H ) :   0.9379 B( 22-C , 24-H ) :   0.9247 B( 22-C , 25-C ) :   1.0677
B( 25-C , 26-H ) :   0.9477 B( 25-C , 27-H ) :   0.9561 B( 25-C , 28-C ) :   1.0884
B( 28-C , 29-H ) :   0.9697 B( 28-C , 30-H ) :   0.9709 B( 28-C , 31-H ) :   0.9726

Dispersion correction           -0.013635625
FINAL SINGLE POINT ENERGY     -1339.872098882057

DIPOLE MOMENT
-------------
                                X             Y             Z
Electronic contribution:      0.25499      27.33055       7.89395
Nuclear contribution   :     -0.08063     -27.91114      -7.99856
                        -----------------------------------------
Total Dipole Moment    :      0.17436      -0.58059      -0.10461
                        -----------------------------------------
Magnitude (a.u.)       :      0.61517
Magnitude (Debye)      :      1.56363

Rotational constants in cm-1:     0.018186     0.008359     0.006203
Rotational constants in MHz :   545.187768   250.609704   185.954300

                             ****ORCA TERMINATED NORMALLY****
TOTAL RUN TIME: 0 days 0 hours 0 minutes 33 seconds 232 msec
