                         Program Version 4.2.1 -  RELEASE  -
|  1> ! wB97X-D3 SP def2-SVP
|  2> %pal
|  3> nprocs 16
|  4> end
|  5>
|  6> * xyz 0 1
|  7> S 	 -37.2693 	 60.055 	 104.507
|  8> C 	 -38.4847 	 58.8899 	 104.014
|  9> C 	 -38.2836 	 57.7406 	 104.811
| 10> C 	 -37.0991 	 57.8041 	 105.664
| 11> C 	 -36.4092 	 59.04 	 105.638
| 12> H 	 -36.7368 	 57.0842 	 106.388
| 13> C 	 -39.1317 	 56.486 	 104.789
| 14> H 	 -39.9646 	 56.6805 	 104.19
| 15> H 	 -39.5307 	 56.2773 	 105.779
| 16> C 	 -38.4669 	 55.3105 	 104.195
| 17> H 	 -37.5846 	 54.9664 	 104.807
| 18> H 	 -39.2195 	 54.5711 	 104.239
| 19> C 	 -38.0567 	 55.5029 	 102.687
| 20> H 	 -37.2401 	 56.1759 	 102.634
| 21> H 	 -37.8324 	 54.5414 	 102.215
| 22> H 	 -38.8905 	 55.9589 	 102.13
| 23> S 	 -34.7235 	 58.9968 	 107.808
| 24> C 	 -32.9853 	 59.3202 	 107.615
| 25> C 	 -32.7423 	 59.4787 	 106.268
| 26> C 	 -33.8507 	 59.482 	 105.331
| 27> C 	 -35.0178 	 59.206 	 106.074
| 28> H 	 -31.7004 	 59.6129 	 105.998
| 29> C 	 -33.7099 	 59.5725 	 103.814
| 30> H 	 -32.7483 	 60.0914 	 103.689
| 31> H 	 -34.5123 	 60.3049 	 103.494
| 32> C 	 -33.98 	 58.3014 	 103.019
| 33> H 	 -34.9916 	 57.9735 	 103.292
| 34> H 	 -33.3319 	 57.4562 	 103.29
| 35> C 	 -33.9103 	 58.5887 	 101.507
| 36> H 	 -32.9948 	 58.2616 	 101.035
| 37> H 	 -34.0049 	 59.6182 	 101.137
| 38> H 	 -34.7067 	 57.999 	 101.057
| 39> H 	 -39.3493 	 59.0345 	 103.349
| 40> H 	 -32.2363 	 59.2919 	 108.394
| 41> *
| 42>
| 43>                          ****END OF INPUT****

CARTESIAN COORDINATES (ANGSTROEM)
---------------------------------
  S    -37.269300   60.055000  104.507000
  C    -38.484700   58.889900  104.014000
  C    -38.283600   57.740600  104.811000
  C    -37.099100   57.804100  105.664000
  C    -36.409200   59.040000  105.638000
  H    -36.736800   57.084200  106.388000
  C    -39.131700   56.486000  104.789000
  H    -39.964600   56.680500  104.190000
  H    -39.530700   56.277300  105.779000
  C    -38.466900   55.310500  104.195000
  H    -37.584600   54.966400  104.807000
  H    -39.219500   54.571100  104.239000
  C    -38.056700   55.502900  102.687000
  H    -37.240100   56.175900  102.634000
  H    -37.832400   54.541400  102.215000
  H    -38.890500   55.958900  102.130000
  S    -34.723500   58.996800  107.808000
  C    -32.985300   59.320200  107.615000
  C    -32.742300   59.478700  106.268000
  C    -33.850700   59.482000  105.331000
  C    -35.017800   59.206000  106.074000
  H    -31.700400   59.612900  105.998000
  C    -33.709900   59.572500  103.814000
  H    -32.748300   60.091400  103.689000
  H    -34.512300   60.304900  103.494000
  C    -33.980000   58.301400  103.019000
  H    -34.991600   57.973500  103.292000
  H    -33.331900   57.456200  103.290000
  C    -33.910300   58.588700  101.507000
  H    -32.994800   58.261600  101.035000
  H    -34.004900   59.618200  101.137000
  H    -34.706700   57.999000  101.057000
  H    -39.349300   59.034500  103.349000
  H    -32.236300   59.291900  108.394000

 Total Charge           Charge          ....    0
 Multiplicity           Mult            ....    1
 Number of Electrons    NEL             ....  134
 Basis Dimension        Dim             ....  322

ORBITAL ENERGIES
----------------

  NO   OCC          E(Eh)            E(eV)
   0   2.0000     -88.968889     -2420.9666
   1   2.0000     -88.966122     -2420.8912
   2   2.0000     -10.334479      -281.2155
   3   2.0000     -10.334320      -281.2111
   4   2.0000     -10.325375      -280.9677
   5   2.0000     -10.319139      -280.7981
   6   2.0000     -10.309114      -280.5253
   7   2.0000     -10.309015      -280.5226
   8   2.0000     -10.300216      -280.2831
   9   2.0000     -10.296619      -280.1852
  10   2.0000     -10.295843      -280.1641
  11   2.0000     -10.287831      -279.9461
  12   2.0000     -10.284492      -279.8553
  13   2.0000     -10.283334      -279.8238
  14   2.0000     -10.277447      -279.6635
  15   2.0000     -10.274146      -279.5737
  16   2.0000      -8.082733      -219.9424
  17   2.0000      -8.079921      -219.8658
  18   2.0000      -6.041345      -164.3934
  19   2.0000      -6.038573      -164.3179
  20   2.0000      -6.036989      -164.2748
  21   2.0000      -6.034519      -164.2076
  22   2.0000      -6.033762      -164.1870
  23   2.0000      -6.030624      -164.1016
  24   2.0000      -1.000600       -27.2277
  25   2.0000      -0.978057       -26.6143
  26   2.0000      -0.919535       -25.0218
  27   2.0000      -0.905484       -24.6395
  28   2.0000      -0.867980       -23.6189
  29   2.0000      -0.846965       -23.0471
  30   2.0000      -0.837506       -22.7897
  31   2.0000      -0.810996       -22.0683
  32   2.0000      -0.784705       -21.3529
  33   2.0000      -0.773024       -21.0351
  34   2.0000      -0.710790       -19.3416
  35   2.0000      -0.698970       -19.0199
  36   2.0000      -0.690236       -18.7823
  37   2.0000      -0.661619       -18.0036
  38   2.0000      -0.636323       -17.3152
  39   2.0000      -0.617201       -16.7949
  40   2.0000      -0.591302       -16.0901
  41   2.0000      -0.570979       -15.5371
  42   2.0000      -0.560264       -15.2456
  43   2.0000      -0.554344       -15.0845
  44   2.0000      -0.542318       -14.7572
  45   2.0000      -0.522832       -14.2270
  46   2.0000      -0.519405       -14.1337
  47   2.0000      -0.517017       -14.0688
  48   2.0000      -0.502879       -13.6840
  49   2.0000      -0.497222       -13.5301
  50   2.0000      -0.488837       -13.3019
  51   2.0000      -0.475402       -12.9363
  52   2.0000      -0.471714       -12.8360
  53   2.0000      -0.466400       -12.6914
  54   2.0000      -0.457266       -12.4428
  55   2.0000      -0.449615       -12.2346
  56   2.0000      -0.438905       -11.9432
  57   2.0000      -0.436444       -11.8762
  58   2.0000      -0.433336       -11.7917
  59   2.0000      -0.424041       -11.5387
  60   2.0000      -0.417098       -11.3498
  61   2.0000      -0.414091       -11.2680
  62   2.0000      -0.405959       -11.0467
  63   2.0000      -0.345937        -9.4134
  64   2.0000      -0.329773        -8.9736
  65   2.0000      -0.325568        -8.8592
  66   2.0000      -0.295117        -8.0305
  67   0.0000       0.024764         0.6739
  68   0.0000       0.067566         1.8386
  69   0.0000       0.108235         2.9452
  70   0.0000       0.121823         3.3150
  71   0.0000       0.126508         3.4425

MULLIKEN ATOMIC CHARGES
-----------------------
   0 S :    0.101538
   1 C :   -0.123064
   2 C :   -0.121161
   3 C :    0.013768
   4 C :   -0.134708
   5 H :    0.021197
   6 C :    0.112124
   7 H :   -0.013431
   8 H :    0.035303
   9 C :   -0.075189
  10 H :    0.040635
  11 H :    0.017198
  12 C :   -0.051914
  13 H :    0.039898
  14 H :    0.040384
  15 H :    0.020727
  16 S :    0.093772
  17 C :   -0.088730
  18 C :   -0.051814
  19 C :   -0.024103
  20 C :   -0.184756
  21 H :    0.014599
  22 C :    0.055315
  23 H :    0.025906
  24 H :    0.038193
  25 C :   -0.050702
  26 H :    0.041213
  27 H :    0.035210
  28 C :   -0.045900
  29 H :    0.027643
  30 H :    0.033595
  31 H :    0.030747
  32 H :    0.067749
  33 H :    0.058756
Sum of atomic charges:    0.0000000

LOEWDIN ATOMIC CHARGES
----------------------
   0 S :    0.418154
   1 C :   -0.208865
   2 C :   -0.060305
   3 C :   -0.062645
   4 C :   -0.207881
   5 H :    0.028340
   6 C :   -0.032244
   7 H :    0.018799
   8 H :    0.035271
   9 C :   -0.036629
  10 H :    0.027675
  11 H :    0.018297
  12 C :   -0.059320
  13 H :    0.019573
  14 H :    0.028349
  15 H :    0.023988
  16 S :    0.387560
  17 C :   -0.184474
  18 C :   -0.070105
  19 C :   -0.057109
  20 C :   -0.186171
  21 H :    0.027842
  22 C :   -0.038821
  23 H :    0.030672
  24 H :    0.035470
  25 C :   -0.036794
  26 H :    0.028724
  27 H :    0.027858
  28 C :   -0.069352
  29 H :    0.023787
  30 H :    0.027820
  31 H :    0.029046
  32 H :    0.040841
  33 H :    0.032650

  Mayer bond orders larger than 0.100000
B(  0-S ,  1-C ) :   1.1450 B(  0-S ,  4-C ) :   1.1621 B(  1-C ,  2-C ) :   1.5661
B(  1-C , 32-H ) :   0.9680 B(  2-C ,  3-C ) :   1.2560 B(  2-C ,  6-C ) :   1.0366
B(  3-C ,  4-C ) :   1.5448 B(  3-C ,  5-H ) :   0.9880 B(  4-C , 20-C ) :   1.0131
B(  6-C ,  7-H ) :   0.9294 B(  6-C ,  8-H ) :   0.9355 B(  6-C ,  9-C ) :   1.0871
B(  9-C , 10-H ) :   0.9545 B(  9-C , 11-H ) :   0.9534 B(  9-C , 12-C ) :   1.0661
B( 12-C , 13-H ) :   0.9768 B( 12-C , 14-H ) :   0.9753 B( 12-C , 15-H ) :   0.9739
B( 16-S , 17-C ) :   1.1234 B( 16-S , 20-C ) :   1.1560 B( 17-C , 18-C ) :   1.6328
B( 17-C , 33-H ) :   0.9702 B( 18-C , 19-C ) :   1.2293 B( 18-C , 21-H ) :   0.9822
B( 19-C , 20-C ) :   1.5709 B( 19-C , 22-C ) :   1.0387 B( 22-C , 23-H ) :   0.9322
B( 22-C , 24-H ) :   0.9248 B( 22-C , 25-C ) :   1.0653 B( 25-C , 26-H ) :   0.9578
B( 25-C , 27-H ) :   0.9555 B( 25-C , 28-C ) :   1.0642 B( 28-C , 29-H ) :   0.9774
B( 28-C , 30-H ) :   0.9775 B( 28-C , 31-H ) :   0.9767

Dispersion correction           -0.015710957
FINAL SINGLE POINT ENERGY     -1339.875232293824

DIPOLE MOMENT
-------------
                                X             Y             Z
Electronic contribution:      1.17437      15.41002      20.89280
Nuclear contribution   :     -1.15731     -15.91280     -21.28091
                        -----------------------------------------
Total Dipole Moment    :      0.01707      -0.50277      -0.38810
                        -----------------------------------------
Magnitude (a.u.)       :      0.63537
Magnitude (Debye)      :      1.61499

Rotational constants in cm-1:     0.017999     0.009659     0.008024
Rotational constants in MHz :   539.594098   289.567894   240.567751

                             ****ORCA TERMINATED NORMALLY****
TOTAL RUN TIME: 0 days 0 hours 0 minutes 29 seconds 838 msec
