                         Program Version 4.2.1 -  RELEASE  -
|  1> ! wB97X-D3 SP def2-SVP
|  2> %pal
|  3> nprocs 16
|  4> end
|  5>
|  6> * xyz 0 1
|  7> S 	 -58.3864 	 18.3033 	 84.9776
|  8> C 	 -58.6932 	 17.4552 	 86.4864
|  9> C 	 -57.4893 	 17.3139 	 87.2314
| 10> C 	 -56.4226 	 18.0548 	 86.7063
| 11> C 	 -56.717 	 18.6876 	 85.5042
| 12> H 	 -55.4376 	 18.05 	 87.1825
| 13> C 	 -57.3611 	 16.3944 	 88.3793
| 14> H 	 -56.4707 	 15.8385 	 88.1388
| 15> H 	 -58.3084 	 15.748 	 88.508
| 16> C 	 -57.1541 	 17.0258 	 89.7899
| 17> H 	 -56.7275 	 16.3158 	 90.5059
| 18> H 	 -56.403 	 17.7513 	 89.6036
| 19> C 	 -58.3313 	 17.7635 	 90.3631
| 20> H 	 -59.3307 	 17.2936 	 90.3579
| 21> H 	 -58.1183 	 18.3107 	 91.2788
| 22> H 	 -58.4081 	 18.6655 	 89.6686
| 23> S 	 -56.0722 	 19.3216 	 82.8217
| 24> C 	 -54.6206 	 20.2551 	 82.4991
| 25> C 	 -54.0072 	 20.6653 	 83.6826
| 26> C 	 -54.773 	 20.2662 	 84.8409
| 27> C 	 -55.8582 	 19.4366 	 84.5814
| 28> H 	 -53.052 	 21.1728 	 83.5557
| 29> C 	 -54.3375 	 20.6063 	 86.2388
| 30> H 	 -53.6737 	 19.7865 	 86.795
| 31> H 	 -55.1119 	 20.6078 	 86.9406
| 32> C 	 -53.6299 	 21.9925 	 86.3401
| 33> H 	 -52.6191 	 21.9168 	 85.8399
| 34> H 	 -53.3967 	 22.2515 	 87.413
| 35> C 	 -54.4524 	 23.1362 	 85.7939
| 36> H 	 -54.0121 	 24.1423 	 85.9681
| 37> H 	 -55.5015 	 23.2304 	 86.1279
| 38> H 	 -54.4923 	 23.06 	 84.6636
| 39> H 	 -59.7409 	 17.0241 	 86.7127
| 40> H 	 -54.2012 	 20.4787 	 81.5041
| 41> *
| 42>
| 43>                          ****END OF INPUT****

CARTESIAN COORDINATES (ANGSTROEM)
---------------------------------
  S    -58.386400   18.303300   84.977600
  C    -58.693200   17.455200   86.486400
  C    -57.489300   17.313900   87.231400
  C    -56.422600   18.054800   86.706300
  C    -56.717000   18.687600   85.504200
  H    -55.437600   18.050000   87.182500
  C    -57.361100   16.394400   88.379300
  H    -56.470700   15.838500   88.138800
  H    -58.308400   15.748000   88.508000
  C    -57.154100   17.025800   89.789900
  H    -56.727500   16.315800   90.505900
  H    -56.403000   17.751300   89.603600
  C    -58.331300   17.763500   90.363100
  H    -59.330700   17.293600   90.357900
  H    -58.118300   18.310700   91.278800
  H    -58.408100   18.665500   89.668600
  S    -56.072200   19.321600   82.821700
  C    -54.620600   20.255100   82.499100
  C    -54.007200   20.665300   83.682600
  C    -54.773000   20.266200   84.840900
  C    -55.858200   19.436600   84.581400
  H    -53.052000   21.172800   83.555700
  C    -54.337500   20.606300   86.238800
  H    -53.673700   19.786500   86.795000
  H    -55.111900   20.607800   86.940600
  C    -53.629900   21.992500   86.340100
  H    -52.619100   21.916800   85.839900
  H    -53.396700   22.251500   87.413000
  C    -54.452400   23.136200   85.793900
  H    -54.012100   24.142300   85.968100
  H    -55.501500   23.230400   86.127900
  H    -54.492300   23.060000   84.663600
  H    -59.740900   17.024100   86.712700
  H    -54.201200   20.478700   81.504100

 Total Charge           Charge          ....    0
 Multiplicity           Mult            ....    1
 Number of Electrons    NEL             ....  134
 Basis Dimension        Dim             ....  322

ORBITAL ENERGIES
----------------

  NO   OCC          E(Eh)            E(eV)
   0   2.0000     -88.969581     -2420.9854
   1   2.0000     -88.967456     -2420.9276
   2   2.0000     -10.340613      -281.3824
   3   2.0000     -10.332738      -281.1681
   4   2.0000     -10.327342      -281.0213
   5   2.0000     -10.323862      -280.9266
   6   2.0000     -10.308324      -280.5038
   7   2.0000     -10.304522      -280.4003
   8   2.0000     -10.301271      -280.3118
   9   2.0000     -10.300983      -280.3040
  10   2.0000     -10.297273      -280.2031
  11   2.0000     -10.296894      -280.1927
  12   2.0000     -10.294834      -280.1367
  13   2.0000     -10.284939      -279.8674
  14   2.0000     -10.280463      -279.7456
  15   2.0000     -10.279169      -279.7104
  16   2.0000      -8.083538      -219.9642
  17   2.0000      -8.081613      -219.9119
  18   2.0000      -6.042000      -164.4112
  19   2.0000      -6.040265      -164.3640
  20   2.0000      -6.038195      -164.3076
  21   2.0000      -6.036193      -164.2532
  22   2.0000      -6.034356      -164.2032
  23   2.0000      -6.032254      -164.1460
  24   2.0000      -1.003838       -27.3158
  25   2.0000      -0.982103       -26.7244
  26   2.0000      -0.915316       -24.9070
  27   2.0000      -0.906035       -24.6545
  28   2.0000      -0.868434       -23.6313
  29   2.0000      -0.854734       -23.2585
  30   2.0000      -0.839866       -22.8539
  31   2.0000      -0.816551       -22.2195
  32   2.0000      -0.782300       -21.2875
  33   2.0000      -0.768679       -20.9168
  34   2.0000      -0.708800       -19.2874
  35   2.0000      -0.693714       -18.8769
  36   2.0000      -0.690955       -18.8018
  37   2.0000      -0.652875       -17.7656
  38   2.0000      -0.635531       -17.2937
  39   2.0000      -0.629668       -17.1341
  40   2.0000      -0.601396       -16.3648
  41   2.0000      -0.568430       -15.4678
  42   2.0000      -0.557451       -15.1690
  43   2.0000      -0.544899       -14.8274
  44   2.0000      -0.542008       -14.7488
  45   2.0000      -0.529240       -14.4014
  46   2.0000      -0.518726       -14.1153
  47   2.0000      -0.512781       -13.9535
  48   2.0000      -0.501344       -13.6423
  49   2.0000      -0.492278       -13.3956
  50   2.0000      -0.487552       -13.2670
  51   2.0000      -0.480656       -13.0793
  52   2.0000      -0.473954       -12.8969
  53   2.0000      -0.468548       -12.7498
  54   2.0000      -0.460244       -12.5239
  55   2.0000      -0.449772       -12.2389
  56   2.0000      -0.441490       -12.0136
  57   2.0000      -0.433658       -11.8004
  58   2.0000      -0.431219       -11.7341
  59   2.0000      -0.418981       -11.4011
  60   2.0000      -0.415553       -11.3078
  61   2.0000      -0.411304       -11.1921
  62   2.0000      -0.408619       -11.1191
  63   2.0000      -0.356593        -9.7034
  64   2.0000      -0.335488        -9.1291
  65   2.0000      -0.328365        -8.9353
  66   2.0000      -0.282362        -7.6835
  67   0.0000       0.016789         0.4569
  68   0.0000       0.071223         1.9381
  69   0.0000       0.098380         2.6771
  70   0.0000       0.113388         3.0854
  71   0.0000       0.123185         3.3520

MULLIKEN ATOMIC CHARGES
-----------------------
   0 S :    0.098969
   1 C :   -0.154563
   2 C :   -0.085847
   3 C :    0.006290
   4 C :   -0.134482
   5 H :    0.019994
   6 C :    0.044251
   7 H :    0.035453
   8 H :    0.037705
   9 C :   -0.051009
  10 H :    0.033657
  11 H :    0.003245
  12 C :   -0.070941
  13 H :    0.041804
  14 H :    0.035282
  15 H :    0.029586
  16 S :    0.097460
  17 C :   -0.107054
  18 C :   -0.043401
  19 C :   -0.038607
  20 C :   -0.102730
  21 H :    0.034341
  22 C :    0.038177
  23 H :    0.052076
  24 H :    0.009285
  25 C :   -0.097619
  26 H :    0.038726
  27 H :    0.034529
  28 C :   -0.074474
  29 H :    0.034648
  30 H :    0.041227
  31 H :    0.037801
  32 H :    0.087671
  33 H :    0.068549
Sum of atomic charges:    0.0000000

LOEWDIN ATOMIC CHARGES
----------------------
   0 S :    0.389556
   1 C :   -0.207251
   2 C :   -0.069933
   3 C :   -0.065289
   4 C :   -0.167881
   5 H :    0.036279
   6 C :   -0.032230
   7 H :    0.035727
   8 H :    0.038680
   9 C :   -0.043901
  10 H :    0.022235
  11 H :    0.017012
  12 C :   -0.078638
  13 H :    0.025484
  14 H :    0.028670
  15 H :    0.035651
  16 S :    0.387951
  17 C :   -0.184462
  18 C :   -0.072237
  19 C :   -0.060200
  20 C :   -0.188852
  21 H :    0.037983
  22 C :   -0.041874
  23 H :    0.042315
  24 H :    0.018454
  25 C :   -0.050919
  26 H :    0.026692
  27 H :    0.029145
  28 C :   -0.080872
  29 H :    0.028165
  30 H :    0.029536
  31 H :    0.030403
  32 H :    0.047203
  33 H :    0.037401

  Mayer bond orders larger than 0.100000
B(  0-S ,  1-C ) :   1.1472 B(  0-S ,  4-C ) :   1.1531 B(  1-C ,  2-C ) :   1.5581
B(  1-C ,  4-C ) :   0.1086 B(  1-C , 32-H ) :   0.9584 B(  2-C ,  3-C ) :   1.2708
B(  2-C ,  6-C ) :   1.0327 B(  3-C ,  4-C ) :   1.5290 B(  3-C ,  5-H ) :   0.9870
B(  4-C , 20-C ) :   1.0786 B(  6-C ,  7-H ) :   0.9324 B(  6-C ,  8-H ) :   0.9467
B(  6-C ,  9-C ) :   1.0652 B(  9-C , 10-H ) :   0.9569 B(  9-C , 11-H ) :   0.9537
B(  9-C , 12-C ) :   1.0772 B( 12-C , 13-H ) :   0.9769 B( 12-C , 14-H ) :   0.9696
B( 12-C , 15-H ) :   0.9714 B( 16-S , 17-C ) :   1.1531 B( 16-S , 20-C ) :   1.1183
B( 17-C , 18-C ) :   1.6213 B( 17-C , 33-H ) :   0.9617 B( 18-C , 19-C ) :   1.2112
B( 18-C , 21-H ) :   0.9888 B( 19-C , 20-C ) :   1.6006 B( 19-C , 22-C ) :   1.0516
B( 22-C , 23-H ) :   0.9297 B( 22-C , 24-H ) :   0.9290 B( 22-C , 25-C ) :   1.0673
B( 25-C , 26-H ) :   0.9482 B( 25-C , 27-H ) :   0.9567 B( 25-C , 28-C ) :   1.0798
B( 28-C , 29-H ) :   0.9729 B( 28-C , 30-H ) :   0.9733 B( 28-C , 31-H ) :   0.9665

Dispersion correction           -0.014361128
FINAL SINGLE POINT ENERGY     -1339.869666174949

DIPOLE MOMENT
-------------
                                X             Y             Z
Electronic contribution:     -7.43852      -6.73001     -24.93752
Nuclear contribution   :      7.85160       6.74908      25.40569
                        -----------------------------------------
Total Dipole Moment    :      0.41308       0.01907       0.46817
                        -----------------------------------------
Magnitude (a.u.)       :      0.62464
Magnitude (Debye)      :      1.58772

Rotational constants in cm-1:     0.020044     0.008447     0.006531
Rotational constants in MHz :   600.915779   253.246944   195.804643

                             ****ORCA TERMINATED NORMALLY****
TOTAL RUN TIME: 0 days 0 hours 0 minutes 29 seconds 931 msec
