                         Program Version 4.2.1 -  RELEASE  -
|  1> ! wB97X-D3 SP def2-SVP
|  2> %pal
|  3> nprocs 16
|  4> end
|  5>
|  6> * xyz 0 1
|  7> S 	 -55.0891 	 23.2773 	 94.2926
|  8> C 	 -54.3697 	 24.9159 	 94.3837
|  9> C 	 -54.5516 	 25.6383 	 93.2473
| 10> C 	 -55.4715 	 24.9616 	 92.395
| 11> C 	 -56.0414 	 23.7798 	 92.9097
| 12> H 	 -55.9167 	 25.3654 	 91.4542
| 13> C 	 -54.0214 	 27.0126 	 92.9512
| 14> H 	 -53.9354 	 27.3243 	 91.9072
| 15> H 	 -52.9246 	 26.9546 	 93.1795
| 16> C 	 -54.8117 	 28.153 	 93.6752
| 17> H 	 -55.7965 	 27.8842 	 93.4672
| 18> H 	 -54.6755 	 28.2496 	 94.7814
| 19> C 	 -54.5509 	 29.5735 	 93.164
| 20> H 	 -53.5569 	 29.8472 	 93.4389
| 21> H 	 -54.4914 	 29.5789 	 92.0988
| 22> H 	 -55.4331 	 30.2044 	 93.4966
| 23> S 	 -56.9644 	 22.3601 	 90.7004
| 24> C 	 -58.4657 	 21.4939 	 90.8918
| 25> C 	 -59.0162 	 21.6568 	 92.1478
| 26> C 	 -58.246 	 22.5727 	 92.9544
| 27> C 	 -57.0698 	 22.9326 	 92.3502
| 28> H 	 -59.8364 	 21.0933 	 92.4204
| 29> C 	 -58.6255 	 22.8523 	 94.3523
| 30> H 	 -57.796 	 23.3131 	 94.8803
| 31> H 	 -58.8576 	 21.9351 	 94.7754
| 32> C 	 -59.8501 	 23.7257 	 94.606
| 33> H 	 -60.8318 	 23.1857 	 94.5129
| 34> H 	 -59.7707 	 24.6502 	 93.9087
| 35> C 	 -59.8517 	 24.2194 	 96.1153
| 36> H 	 -59.9619 	 23.3744 	 96.7768
| 37> H 	 -60.6128 	 24.9207 	 96.3231
| 38> H 	 -58.9438 	 24.7936 	 96.3582
| 39> H 	 -53.7827 	 25.2348 	 95.2008
| 40> H 	 -58.8348 	 20.9319 	 90.0873
| 41> *
| 42>
| 43>                          ****END OF INPUT****

CARTESIAN COORDINATES (ANGSTROEM)
---------------------------------
  S    -55.089100   23.277300   94.292600
  C    -54.369700   24.915900   94.383700
  C    -54.551600   25.638300   93.247300
  C    -55.471500   24.961600   92.395000
  C    -56.041400   23.779800   92.909700
  H    -55.916700   25.365400   91.454200
  C    -54.021400   27.012600   92.951200
  H    -53.935400   27.324300   91.907200
  H    -52.924600   26.954600   93.179500
  C    -54.811700   28.153000   93.675200
  H    -55.796500   27.884200   93.467200
  H    -54.675500   28.249600   94.781400
  C    -54.550900   29.573500   93.164000
  H    -53.556900   29.847200   93.438900
  H    -54.491400   29.578900   92.098800
  H    -55.433100   30.204400   93.496600
  S    -56.964400   22.360100   90.700400
  C    -58.465700   21.493900   90.891800
  C    -59.016200   21.656800   92.147800
  C    -58.246000   22.572700   92.954400
  C    -57.069800   22.932600   92.350200
  H    -59.836400   21.093300   92.420400
  C    -58.625500   22.852300   94.352300
  H    -57.796000   23.313100   94.880300
  H    -58.857600   21.935100   94.775400
  C    -59.850100   23.725700   94.606000
  H    -60.831800   23.185700   94.512900
  H    -59.770700   24.650200   93.908700
  C    -59.851700   24.219400   96.115300
  H    -59.961900   23.374400   96.776800
  H    -60.612800   24.920700   96.323100
  H    -58.943800   24.793600   96.358200
  H    -53.782700   25.234800   95.200800
  H    -58.834800   20.931900   90.087300

 Total Charge           Charge          ....    0
 Multiplicity           Mult            ....    1
 Number of Electrons    NEL             ....  134
 Basis Dimension        Dim             ....  322

ORBITAL ENERGIES
----------------

  NO   OCC          E(Eh)            E(eV)
   0   2.0000     -88.965357     -2420.8704
   1   2.0000     -88.964325     -2420.8423
   2   2.0000     -10.328218      -281.0451
   3   2.0000     -10.321025      -280.8494
   4   2.0000     -10.315427      -280.6970
   5   2.0000     -10.310987      -280.5762
   6   2.0000     -10.300997      -280.3044
   7   2.0000     -10.299494      -280.2635
   8   2.0000     -10.298142      -280.2267
   9   2.0000     -10.296598      -280.1847
  10   2.0000     -10.296139      -280.1722
  11   2.0000     -10.290682      -280.0237
  12   2.0000     -10.285711      -279.8884
  13   2.0000     -10.278586      -279.6946
  14   2.0000     -10.276863      -279.6477
  15   2.0000     -10.273846      -279.5656
  16   2.0000      -8.079409      -219.8519
  17   2.0000      -8.079126      -219.8442
  18   2.0000      -6.037827      -164.2976
  19   2.0000      -6.037642      -164.2926
  20   2.0000      -6.033966      -164.1926
  21   2.0000      -6.033954      -164.1922
  22   2.0000      -6.030172      -164.0893
  23   2.0000      -6.029722      -164.0771
  24   2.0000      -1.006457       -27.3871
  25   2.0000      -0.983469       -26.7615
  26   2.0000      -0.911731       -24.8095
  27   2.0000      -0.908996       -24.7350
  28   2.0000      -0.871733       -23.7211
  29   2.0000      -0.849108       -23.1054
  30   2.0000      -0.844592       -22.9825
  31   2.0000      -0.811044       -22.0696
  32   2.0000      -0.784677       -21.3521
  33   2.0000      -0.773304       -21.0427
  34   2.0000      -0.703919       -19.1546
  35   2.0000      -0.702344       -19.1118
  36   2.0000      -0.692666       -18.8484
  37   2.0000      -0.668693       -18.1961
  38   2.0000      -0.638647       -17.3785
  39   2.0000      -0.613925       -16.7058
  40   2.0000      -0.599460       -16.3121
  41   2.0000      -0.575335       -15.6557
  42   2.0000      -0.569698       -15.5023
  43   2.0000      -0.562221       -15.2988
  44   2.0000      -0.533917       -14.5286
  45   2.0000      -0.525197       -14.2913
  46   2.0000      -0.521005       -14.1773
  47   2.0000      -0.510973       -13.9043
  48   2.0000      -0.507778       -13.8173
  49   2.0000      -0.496332       -13.5059
  50   2.0000      -0.488331       -13.2882
  51   2.0000      -0.471204       -12.8221
  52   2.0000      -0.466949       -12.7063
  53   2.0000      -0.464426       -12.6377
  54   2.0000      -0.454144       -12.3579
  55   2.0000      -0.448627       -12.2078
  56   2.0000      -0.442267       -12.0347
  57   2.0000      -0.435058       -11.8385
  58   2.0000      -0.431720       -11.7477
  59   2.0000      -0.425658       -11.5827
  60   2.0000      -0.423466       -11.5231
  61   2.0000      -0.417360       -11.3569
  62   2.0000      -0.415425       -11.3043
  63   2.0000      -0.337269        -9.1776
  64   2.0000      -0.330694        -8.9986
  65   2.0000      -0.328392        -8.9360
  66   2.0000      -0.295658        -8.0453
  67   0.0000       0.029432         0.8009
  68   0.0000       0.069204         1.8831
  69   0.0000       0.100912         2.7459
  70   0.0000       0.121553         3.3076
  71   0.0000       0.123471         3.3598

MULLIKEN ATOMIC CHARGES
-----------------------
   0 S :    0.104068
   1 C :   -0.119770
   2 C :   -0.049745
   3 C :    0.010984
   4 C :   -0.186042
   5 H :    0.022612
   6 C :    0.044682
   7 H :    0.019667
   8 H :    0.030755
   9 C :   -0.068878
  10 H :    0.017431
  11 H :    0.040492
  12 C :   -0.035031
  13 H :    0.025317
  14 H :    0.010757
  15 H :    0.057125
  16 S :    0.111599
  17 C :   -0.083315
  18 C :    0.014833
  19 C :   -0.023773
  20 C :   -0.148281
  21 H :   -0.006951
  22 C :    0.119520
  23 H :    0.016016
  24 H :    0.007285
  25 C :   -0.132244
  26 H :    0.040735
  27 H :    0.048326
  28 C :   -0.046143
  29 H :    0.030106
  30 H :    0.023670
  31 H :    0.033951
  32 H :    0.027644
  33 H :    0.042600
Sum of atomic charges:   -0.0000000

LOEWDIN ATOMIC CHARGES
----------------------
   0 S :    0.393662
   1 C :   -0.170391
   2 C :   -0.065881
   3 C :   -0.066736
   4 C :   -0.189801
   5 H :    0.033343
   6 C :   -0.038472
   7 H :    0.031737
   8 H :    0.034678
   9 C :   -0.036751
  10 H :    0.015708
  11 H :    0.029584
  12 C :   -0.064850
  13 H :    0.021894
  14 H :    0.015539
  15 H :    0.041430
  16 S :    0.405453
  17 C :   -0.166501
  18 C :   -0.056321
  19 C :   -0.044530
  20 C :   -0.211429
  21 H :    0.020147
  22 C :   -0.035861
  23 H :    0.023215
  24 H :    0.025028
  25 C :   -0.040217
  26 H :    0.026220
  27 H :    0.032942
  28 C :   -0.065182
  29 H :    0.022253
  30 H :    0.018750
  31 H :    0.026940
  32 H :    0.017431
  33 H :    0.016969

  Mayer bond orders larger than 0.100000
B(  0-S ,  1-C ) :   1.1306 B(  0-S ,  4-C ) :   1.1417 B(  1-C ,  2-C ) :   1.6193
B(  1-C ,  4-C ) :   0.1020 B(  1-C , 32-H ) :   0.9760 B(  2-C ,  3-C ) :   1.2285
B(  2-C ,  6-C ) :   1.0313 B(  3-C ,  4-C ) :   1.5851 B(  3-C ,  5-H ) :   0.9893
B(  4-C , 20-C ) :   1.0469 B(  6-C ,  7-H ) :   0.9459 B(  6-C ,  8-H ) :   0.9327
B(  6-C ,  9-C ) :   1.0449 B(  9-C , 10-H ) :   0.9581 B(  9-C , 11-H ) :   0.9578
B(  9-C , 12-C ) :   1.0877 B( 12-C , 13-H ) :   0.9755 B( 12-C , 14-H ) :   0.9724
B( 12-C , 15-H ) :   0.9734 B( 16-S , 17-C ) :   1.1604 B( 16-S , 20-C ) :   1.1238
B( 17-C , 18-C ) :   1.6056 B( 17-C , 33-H ) :   0.9757 B( 18-C , 19-C ) :   1.2084
B( 18-C , 21-H ) :   1.0075 B( 19-C , 20-C ) :   1.5994 B( 19-C , 22-C ) :   1.0682
B( 22-C , 23-H ) :   0.9246 B( 22-C , 24-H ) :   0.9188 B( 22-C , 25-C ) :   1.0570
B( 25-C , 26-H ) :   0.9545 B( 25-C , 27-H ) :   0.9584 B( 25-C , 28-C ) :   1.0807
B( 28-C , 29-H ) :   0.9752 B( 28-C , 30-H ) :   0.9763 B( 28-C , 31-H ) :   0.9751

Dispersion correction           -0.013820576
FINAL SINGLE POINT ENERGY     -1339.864508605964

DIPOLE MOMENT
-------------
                                X             Y             Z
Electronic contribution:      6.43953     -22.16114     -11.85833
Nuclear contribution   :     -6.68165      22.47812      11.96932
                        -----------------------------------------
Total Dipole Moment    :     -0.24212       0.31698       0.11099
                        -----------------------------------------
Magnitude (a.u.)       :      0.41402
Magnitude (Debye)      :      1.05237

Rotational constants in cm-1:     0.017699     0.008115     0.006881
Rotational constants in MHz :   530.594125   243.296304   206.276657

                             ****ORCA TERMINATED NORMALLY****
TOTAL RUN TIME: 0 days 0 hours 0 minutes 28 seconds 996 msec
