                         Program Version 4.2.1 -  RELEASE  -
|  1> ! wB97X-D3 SP def2-SVP
|  2> %pal
|  3> nprocs 16
|  4> end
|  5>
|  6> * xyz 0 1
|  7> S 	 -3.9068 	 -12.3929 	 80.3385
|  8> C 	 -2.48322 	 -11.6546 	 81.0514
|  9> C 	 -2.53909 	 -11.7668 	 82.413
| 10> C 	 -3.8427 	 -12.1973 	 82.8723
| 11> C 	 -4.68342 	 -12.6109 	 81.8744
| 12> H 	 -4.08846 	 -12.1154 	 83.9031
| 13> C 	 -1.42923 	 -11.3887 	 83.3672
| 14> H 	 -0.84828 	 -12.3158 	 83.4135
| 15> H 	 -1.76695 	 -11.1887 	 84.3739
| 16> C 	 -0.484684 	 -10.269 	 82.9569
| 17> H 	 0.23019 	 -10.1655 	 83.7793
| 18> H 	 0.0112339 	 -10.5893 	 81.9938
| 19> C 	 -1.26316 	 -8.9405 	 82.7753
| 20> H 	 -2.07226 	 -8.87104 	 83.5443
| 21> H 	 -0.510263 	 -8.23394 	 82.9861
| 22> H 	 -1.6609 	 -8.65778 	 81.818
| 23> S 	 -7.09026 	 -12.2798 	 80.7016
| 24> C 	 -8.58732 	 -12.7408 	 81.468
| 25> C 	 -8.28521 	 -13.3507 	 82.7232
| 26> C 	 -6.9187 	 -13.5331 	 83.0247
| 27> C 	 -6.11753 	 -12.9821 	 82.0182
| 28> H 	 -9.11224 	 -13.537 	 83.3725
| 29> C 	 -6.40554 	 -14.1049 	 84.4181
| 30> H 	 -6.22178 	 -13.1496 	 84.9487
| 31> H 	 -5.46191 	 -14.4786 	 84.1973
| 32> C 	 -7.24953 	 -14.999 	 85.2876
| 33> H 	 -7.70281 	 -15.9119 	 84.9446
| 34> H 	 -8.1084 	 -14.3889 	 85.5915
| 35> C 	 -6.57664 	 -15.3889 	 86.5346
| 36> H 	 -7.20912 	 -16.146 	 87.0139
| 37> H 	 -6.42297 	 -14.5911 	 87.3496
| 38> H 	 -5.58645 	 -15.9651 	 86.3306
| 39> H 	 -1.67834 	 -11.1767 	 80.5384
| 40> H 	 -9.53971 	 -12.4541 	 81.1475
| 41> *
| 42>
| 43>                          ****END OF INPUT****

CARTESIAN COORDINATES (ANGSTROEM)
---------------------------------
  S     -3.906800  -12.392900   80.338500
  C     -2.483220  -11.654600   81.051400
  C     -2.539090  -11.766800   82.413000
  C     -3.842700  -12.197300   82.872300
  C     -4.683420  -12.610900   81.874400
  H     -4.088460  -12.115400   83.903100
  C     -1.429230  -11.388700   83.367200
  H     -0.848280  -12.315800   83.413500
  H     -1.766950  -11.188700   84.373900
  C     -0.484684  -10.269000   82.956900
  H      0.230190  -10.165500   83.779300
  H      0.011234  -10.589300   81.993800
  C     -1.263160   -8.940500   82.775300
  H     -2.072260   -8.871040   83.544300
  H     -0.510263   -8.233940   82.986100
  H     -1.660900   -8.657780   81.818000
  S     -7.090260  -12.279800   80.701600
  C     -8.587320  -12.740800   81.468000
  C     -8.285210  -13.350700   82.723200
  C     -6.918700  -13.533100   83.024700
  C     -6.117530  -12.982100   82.018200
  H     -9.112240  -13.537000   83.372500
  C     -6.405540  -14.104900   84.418100
  H     -6.221780  -13.149600   84.948700
  H     -5.461910  -14.478600   84.197300
  C     -7.249530  -14.999000   85.287600
  H     -7.702810  -15.911900   84.944600
  H     -8.108400  -14.388900   85.591500
  C     -6.576640  -15.388900   86.534600
  H     -7.209120  -16.146000   87.013900
  H     -6.422970  -14.591100   87.349600
  H     -5.586450  -15.965100   86.330600
  H     -1.678340  -11.176700   80.538400
  H     -9.539710  -12.454100   81.147500

 Total Charge           Charge          ....    0
 Multiplicity           Mult            ....    1
 Number of Electrons    NEL             ....  134
 Basis Dimension        Dim             ....  322

ORBITAL ENERGIES
----------------

  NO   OCC          E(Eh)            E(eV)
   0   2.0000     -88.965051     -2420.8621
   1   2.0000     -88.963011     -2420.8066
   2   2.0000     -10.332622      -281.1649
   3   2.0000     -10.330291      -281.1015
   4   2.0000     -10.316929      -280.7379
   5   2.0000     -10.311671      -280.5948
   6   2.0000     -10.308551      -280.5099
   7   2.0000     -10.298201      -280.2283
   8   2.0000     -10.297644      -280.2131
   9   2.0000     -10.294554      -280.1290
  10   2.0000     -10.294401      -280.1249
  11   2.0000     -10.290355      -280.0148
  12   2.0000     -10.288736      -279.9708
  13   2.0000     -10.288443      -279.9628
  14   2.0000     -10.286926      -279.9215
  15   2.0000     -10.274746      -279.5901
  16   2.0000      -8.079216      -219.8466
  17   2.0000      -8.077923      -219.8115
  18   2.0000      -6.037687      -164.2938
  19   2.0000      -6.036621      -164.2648
  20   2.0000      -6.033631      -164.1835
  21   2.0000      -6.032406      -164.1501
  22   2.0000      -6.030206      -164.0902
  23   2.0000      -6.028454      -164.0426
  24   2.0000      -1.004602       -27.3366
  25   2.0000      -0.980501       -26.6808
  26   2.0000      -0.918934       -25.0055
  27   2.0000      -0.914391       -24.8819
  28   2.0000      -0.863393       -23.4941
  29   2.0000      -0.857549       -23.3351
  30   2.0000      -0.842473       -22.9249
  31   2.0000      -0.810490       -22.0546
  32   2.0000      -0.785417       -21.3723
  33   2.0000      -0.777809       -21.1653
  34   2.0000      -0.705338       -19.1932
  35   2.0000      -0.701962       -19.1014
  36   2.0000      -0.694216       -18.8906
  37   2.0000      -0.658828       -17.9276
  38   2.0000      -0.636162       -17.3108
  39   2.0000      -0.613312       -16.6891
  40   2.0000      -0.595710       -16.2101
  41   2.0000      -0.581103       -15.8126
  42   2.0000      -0.576681       -15.6923
  43   2.0000      -0.556088       -15.1319
  44   2.0000      -0.540982       -14.7209
  45   2.0000      -0.533924       -14.5288
  46   2.0000      -0.514109       -13.9896
  47   2.0000      -0.511456       -13.9174
  48   2.0000      -0.505311       -13.7502
  49   2.0000      -0.499626       -13.5955
  50   2.0000      -0.487600       -13.2683
  51   2.0000      -0.484340       -13.1796
  52   2.0000      -0.474668       -12.9164
  53   2.0000      -0.471688       -12.8353
  54   2.0000      -0.456936       -12.4339
  55   2.0000      -0.446402       -12.1472
  56   2.0000      -0.442486       -12.0407
  57   2.0000      -0.433937       -11.8080
  58   2.0000      -0.427092       -11.6218
  59   2.0000      -0.422944       -11.5089
  60   2.0000      -0.419196       -11.4069
  61   2.0000      -0.416543       -11.3347
  62   2.0000      -0.413124       -11.2417
  63   2.0000      -0.350022        -9.5246
  64   2.0000      -0.332140        -9.0380
  65   2.0000      -0.324588        -8.8325
  66   2.0000      -0.285364        -7.7652
  67   0.0000       0.025165         0.6848
  68   0.0000       0.079422         2.1612
  69   0.0000       0.106043         2.8856
  70   0.0000       0.122561         3.3351
  71   0.0000       0.134364         3.6562

MULLIKEN ATOMIC CHARGES
-----------------------
   0 S :    0.101648
   1 C :   -0.130256
   2 C :   -0.084448
   3 C :    0.001794
   4 C :   -0.095385
   5 H :   -0.006845
   6 C :    0.059161
   7 H :    0.042965
   8 H :    0.016853
   9 C :   -0.105017
  10 H :    0.038365
  11 H :    0.039574
  12 C :   -0.030276
  13 H :    0.033232
  14 H :    0.020685
  15 H :    0.036761
  16 S :    0.094731
  17 C :   -0.066452
  18 C :   -0.070589
  19 C :   -0.020435
  20 C :   -0.151023
  21 H :    0.012484
  22 C :    0.077401
  23 H :    0.048765
  24 H :    0.012536
  25 C :   -0.021282
  26 H :    0.032797
  27 H :    0.021672
  28 C :   -0.108991
  29 H :    0.030431
  30 H :    0.046678
  31 H :    0.043831
  32 H :    0.039143
  33 H :    0.039494
Sum of atomic charges:   -0.0000000

LOEWDIN ATOMIC CHARGES
----------------------
   0 S :    0.400688
   1 C :   -0.198200
   2 C :   -0.056879
   3 C :   -0.068570
   4 C :   -0.196495
   5 H :    0.022971
   6 C :   -0.038266
   7 H :    0.039195
   8 H :    0.023399
   9 C :   -0.040849
  10 H :    0.029287
  11 H :    0.027502
  12 C :   -0.065568
  13 H :    0.030770
  14 H :    0.021461
  15 H :    0.024325
  16 S :    0.405657
  17 C :   -0.181762
  18 C :   -0.072191
  19 C :   -0.052581
  20 C :   -0.184359
  21 H :    0.024553
  22 C :   -0.020912
  23 H :    0.042880
  24 H :    0.019324
  25 C :   -0.052247
  26 H :    0.029146
  27 H :    0.029465
  28 C :   -0.074920
  29 H :    0.027198
  30 H :    0.030815
  31 H :    0.033317
  32 H :    0.024439
  33 H :    0.017409

  Mayer bond orders larger than 0.100000
B(  0-S ,  1-C ) :   1.1154 B(  0-S ,  4-C ) :   1.1496 B(  1-C ,  2-C ) :   1.6259
B(  1-C , 32-H ) :   0.9705 B(  2-C ,  3-C ) :   1.2389 B(  2-C ,  6-C ) :   1.0104
B(  3-C ,  4-C ) :   1.5670 B(  3-C ,  5-H ) :   1.0010 B(  4-C , 20-C ) :   1.0305
B(  6-C ,  7-H ) :   0.9258 B(  6-C ,  8-H ) :   0.9459 B(  6-C ,  9-C ) :   1.0979
B(  9-C , 10-H ) :   0.9567 B(  9-C , 11-H ) :   0.9468 B(  9-C , 12-C ) :   1.0646
B( 12-C , 13-H ) :   0.9772 B( 12-C , 14-H ) :   0.9762 B( 12-C , 15-H ) :   0.9756
B( 16-S , 17-C ) :   1.1688 B( 16-S , 20-C ) :   1.1560 B( 17-C , 18-C ) :   1.5678
B( 17-C , 20-C ) :   0.1124 B( 17-C , 33-H ) :   0.9778 B( 18-C , 19-C ) :   1.2687
B( 18-C , 21-H ) :   0.9923 B( 19-C , 20-C ) :   1.5778 B( 19-C , 22-C ) :   1.0056
B( 22-C , 23-H ) :   0.9327 B( 22-C , 24-H ) :   0.9406 B( 22-C , 25-C ) :   1.0654
B( 25-C , 26-H ) :   0.9572 B( 25-C , 27-H ) :   0.9345 B( 25-C , 28-C ) :   1.1025
B( 28-C , 29-H ) :   0.9720 B( 28-C , 30-H ) :   0.9713 B( 28-C , 31-H ) :   0.9693

Dispersion correction           -0.013538819
FINAL SINGLE POINT ENERGY     -1339.859683193129

DIPOLE MOMENT
-------------
                                X             Y             Z
Electronic contribution:    -10.20065      -0.80487     -24.35190
Nuclear contribution   :     10.31066       0.95958      25.20857
                        -----------------------------------------
Total Dipole Moment    :      0.11002       0.15472       0.85666
                        -----------------------------------------
Magnitude (a.u.)       :      0.87745
Magnitude (Debye)      :      2.23029

Rotational constants in cm-1:     0.018255     0.008007     0.006083
Rotational constants in MHz :   547.279858   240.033335   182.373159

                             ****ORCA TERMINATED NORMALLY****
TOTAL RUN TIME: 0 days 0 hours 0 minutes 32 seconds 701 msec
