                         Program Version 4.2.1 -  RELEASE  -
|  1> ! wB97X-D3 SP def2-SVP
|  2> %pal
|  3> nprocs 16
|  4> end
|  5>
|  6> * xyz 0 1
|  7> S 	 -14.5657 	 34.1489 	 36.4063
|  8> C 	 -14.1859 	 35.6754 	 35.7404
|  9> C 	 -15.3196 	 36.1339 	 34.9959
| 10> C 	 -16.4164 	 35.2243 	 34.9698
| 11> C 	 -16.1412 	 34.1055 	 35.6524
| 12> H 	 -17.3168 	 35.3785 	 34.4023
| 13> C 	 -15.4051 	 37.5369 	 34.2543
| 14> H 	 -16.3549 	 37.6229 	 33.6461
| 15> H 	 -14.6724 	 37.7013 	 33.4772
| 16> C 	 -15.4181 	 38.6935 	 35.3053
| 17> H 	 -16.1076 	 38.5088 	 36.1291
| 18> H 	 -14.4976 	 38.5755 	 35.8558
| 19> C 	 -15.7351 	 40.0871 	 34.8345
| 20> H 	 -15.0348 	 40.4783 	 34.1643
| 21> H 	 -16.7178 	 40.0604 	 34.3559
| 22> H 	 -15.7833 	 40.6942 	 35.6851
| 23> S 	 -17.245 	 32.4961 	 37.5695
| 24> C 	 -18.1431 	 31.0573 	 37.0898
| 25> C 	 -18.4583 	 31.083 	 35.7491
| 26> C 	 -17.8798 	 32.2227 	 35.071
| 27> C 	 -17.0269 	 32.9528 	 35.9195
| 28> H 	 -19.2243 	 30.313 	 35.4213
| 29> C 	 -17.9991 	 32.3429 	 33.5616
| 30> H 	 -17.8291 	 31.369 	 33.0218
| 31> H 	 -17.1594 	 32.9808 	 33.2252
| 32> C 	 -19.4156 	 32.6978 	 33.0436
| 33> H 	 -20.1091 	 31.8853 	 33.2942
| 34> H 	 -19.3939 	 32.6824 	 31.9691
| 35> C 	 -20.0132 	 33.9444 	 33.5671
| 36> H 	 -21.1175 	 33.9545 	 33.4055
| 37> H 	 -19.6686 	 34.7691 	 32.8462
| 38> H 	 -19.8091 	 34.2926 	 34.6119
| 39> H 	 -13.2983 	 36.2406 	 35.9558
| 40> H 	 -18.6084 	 30.4394 	 37.8268
| 41> *
| 42>
| 43>                          ****END OF INPUT****

CARTESIAN COORDINATES (ANGSTROEM)
---------------------------------
  S    -14.565700   34.148900   36.406300
  C    -14.185900   35.675400   35.740400
  C    -15.319600   36.133900   34.995900
  C    -16.416400   35.224300   34.969800
  C    -16.141200   34.105500   35.652400
  H    -17.316800   35.378500   34.402300
  C    -15.405100   37.536900   34.254300
  H    -16.354900   37.622900   33.646100
  H    -14.672400   37.701300   33.477200
  C    -15.418100   38.693500   35.305300
  H    -16.107600   38.508800   36.129100
  H    -14.497600   38.575500   35.855800
  C    -15.735100   40.087100   34.834500
  H    -15.034800   40.478300   34.164300
  H    -16.717800   40.060400   34.355900
  H    -15.783300   40.694200   35.685100
  S    -17.245000   32.496100   37.569500
  C    -18.143100   31.057300   37.089800
  C    -18.458300   31.083000   35.749100
  C    -17.879800   32.222700   35.071000
  C    -17.026900   32.952800   35.919500
  H    -19.224300   30.313000   35.421300
  C    -17.999100   32.342900   33.561600
  H    -17.829100   31.369000   33.021800
  H    -17.159400   32.980800   33.225200
  C    -19.415600   32.697800   33.043600
  H    -20.109100   31.885300   33.294200
  H    -19.393900   32.682400   31.969100
  C    -20.013200   33.944400   33.567100
  H    -21.117500   33.954500   33.405500
  H    -19.668600   34.769100   32.846200
  H    -19.809100   34.292600   34.611900
  H    -13.298300   36.240600   35.955800
  H    -18.608400   30.439400   37.826800

 Total Charge           Charge          ....    0
 Multiplicity           Mult            ....    1
 Number of Electrons    NEL             ....  134
 Basis Dimension        Dim             ....  322

ORBITAL ENERGIES
----------------

  NO   OCC          E(Eh)            E(eV)
   0   2.0000     -88.967767     -2420.9360
   1   2.0000     -88.964405     -2420.8445
   2   2.0000     -10.329852      -281.0896
   3   2.0000     -10.327055      -281.0135
   4   2.0000     -10.316647      -280.7302
   5   2.0000     -10.314107      -280.6611
   6   2.0000     -10.309819      -280.5444
   7   2.0000     -10.307880      -280.4917
   8   2.0000     -10.300587      -280.2932
   9   2.0000     -10.298688      -280.2415
  10   2.0000     -10.295775      -280.1623
  11   2.0000     -10.291037      -280.0334
  12   2.0000     -10.285149      -279.8731
  13   2.0000     -10.282880      -279.8114
  14   2.0000     -10.280078      -279.7351
  15   2.0000     -10.267837      -279.4021
  16   2.0000      -8.083123      -219.9529
  17   2.0000      -8.079548      -219.8557
  18   2.0000      -6.041526      -164.3983
  19   2.0000      -6.037969      -164.3015
  20   2.0000      -6.037397      -164.2859
  21   2.0000      -6.034087      -164.1958
  22   2.0000      -6.034077      -164.1956
  23   2.0000      -6.030292      -164.0926
  24   2.0000      -1.010436       -27.4954
  25   2.0000      -0.985421       -26.8147
  26   2.0000      -0.910066       -24.7642
  27   2.0000      -0.903313       -24.5804
  28   2.0000      -0.869246       -23.6534
  29   2.0000      -0.855721       -23.2854
  30   2.0000      -0.846515       -23.0348
  31   2.0000      -0.816951       -22.2304
  32   2.0000      -0.780536       -21.2395
  33   2.0000      -0.769328       -20.9345
  34   2.0000      -0.701919       -19.1002
  35   2.0000      -0.698908       -19.0183
  36   2.0000      -0.689427       -18.7603
  37   2.0000      -0.656706       -17.8699
  38   2.0000      -0.644313       -17.5327
  39   2.0000      -0.622650       -16.9432
  40   2.0000      -0.594547       -16.1784
  41   2.0000      -0.565245       -15.3811
  42   2.0000      -0.555351       -15.1119
  43   2.0000      -0.546659       -14.8754
  44   2.0000      -0.542851       -14.7717
  45   2.0000      -0.530124       -14.4254
  46   2.0000      -0.520501       -14.1636
  47   2.0000      -0.514423       -13.9982
  48   2.0000      -0.512141       -13.9361
  49   2.0000      -0.497054       -13.5255
  50   2.0000      -0.492251       -13.3948
  51   2.0000      -0.476542       -12.9674
  52   2.0000      -0.471038       -12.8176
  53   2.0000      -0.464581       -12.6419
  54   2.0000      -0.453741       -12.3469
  55   2.0000      -0.452713       -12.3190
  56   2.0000      -0.447766       -12.1843
  57   2.0000      -0.436548       -11.8791
  58   2.0000      -0.431002       -11.7282
  59   2.0000      -0.425083       -11.5671
  60   2.0000      -0.417482       -11.3603
  61   2.0000      -0.405736       -11.0406
  62   2.0000      -0.403431       -10.9779
  63   2.0000      -0.353320        -9.6143
  64   2.0000      -0.330571        -8.9953
  65   2.0000      -0.328660        -8.9433
  66   2.0000      -0.292040        -7.9468
  67   0.0000       0.030458         0.8288
  68   0.0000       0.070686         1.9235
  69   0.0000       0.108166         2.9434
  70   0.0000       0.121072         3.2945
  71   0.0000       0.128012         3.4834

MULLIKEN ATOMIC CHARGES
-----------------------
   0 S :    0.123869
   1 C :   -0.114845
   2 C :   -0.101690
   3 C :    0.047547
   4 C :   -0.148395
   5 H :    0.005546
   6 C :    0.049313
   7 H :    0.014672
   8 H :    0.033959
   9 C :   -0.106705
  10 H :    0.023203
  11 H :    0.009588
  12 C :    0.021884
  13 H :    0.018853
  14 H :    0.027341
  15 H :    0.022907
  16 S :    0.104442
  17 C :   -0.096490
  18 C :   -0.055241
  19 C :   -0.016379
  20 C :   -0.147780
  21 H :    0.050777
  22 C :    0.025114
  23 H :    0.038482
  24 H :    0.035064
  25 C :   -0.055201
  26 H :    0.022806
  27 H :    0.026592
  28 C :   -0.095091
  29 H :    0.035729
  30 H :    0.029887
  31 H :    0.063658
  32 H :    0.054643
  33 H :    0.051941
Sum of atomic charges:   -0.0000000

LOEWDIN ATOMIC CHARGES
----------------------
   0 S :    0.433474
   1 C :   -0.214910
   2 C :   -0.052321
   3 C :   -0.063795
   4 C :   -0.195450
   5 H :    0.034614
   6 C :   -0.033396
   7 H :    0.027544
   8 H :    0.025813
   9 C :   -0.048049
  10 H :    0.026506
  11 H :    0.016412
  12 C :   -0.053321
  13 H :    0.015869
  14 H :    0.028995
  15 H :    0.023989
  16 S :    0.407583
  17 C :   -0.182059
  18 C :   -0.074402
  19 C :   -0.061621
  20 C :   -0.201581
  21 H :    0.046699
  22 C :   -0.037846
  23 H :    0.039735
  24 H :    0.031396
  25 C :   -0.047665
  26 H :    0.023030
  27 H :    0.025716
  28 C :   -0.083815
  29 H :    0.030428
  30 H :    0.029764
  31 H :    0.032121
  32 H :    0.027932
  33 H :    0.022612

  Mayer bond orders larger than 0.100000
B(  0-S ,  1-C ) :   1.1572 B(  0-S ,  4-C ) :   1.1704 B(  1-C ,  2-C ) :   1.5655
B(  1-C , 32-H ) :   0.9757 B(  2-C ,  3-C ) :   1.2726 B(  2-C ,  6-C ) :   1.0081
B(  3-C ,  4-C ) :   1.5588 B(  3-C ,  5-H ) :   0.9990 B(  4-C , 20-C ) :   1.0102
B(  6-C ,  7-H ) :   0.9505 B(  6-C ,  8-H ) :   0.9499 B(  6-C ,  9-C ) :   1.0456
B(  9-C , 10-H ) :   0.9572 B(  9-C , 11-H ) :   0.9557 B(  9-C , 12-C ) :   1.0886
B( 12-C , 13-H ) :   0.9738 B( 12-C , 14-H ) :   0.9706 B( 12-C , 15-H ) :   0.9705
B( 16-S , 17-C ) :   1.1414 B( 16-S , 20-C ) :   1.1679 B( 17-C , 18-C ) :   1.6319
B( 17-C , 33-H ) :   0.9693 B( 18-C , 19-C ) :   1.2210 B( 18-C , 21-H ) :   0.9776
B( 19-C , 20-C ) :   1.5728 B( 19-C , 22-C ) :   1.0506 B( 22-C , 23-H ) :   0.9421
B( 22-C , 24-H ) :   0.9410 B( 22-C , 25-C ) :   1.0610 B( 25-C , 26-H ) :   0.9573
B( 25-C , 27-H ) :   0.9530 B( 25-C , 28-C ) :   1.0793 B( 28-C , 29-H ) :   0.9704
B( 28-C , 30-H ) :   0.9713 B( 28-C , 31-H ) :   0.9706

Dispersion correction           -0.014381580
FINAL SINGLE POINT ENERGY     -1339.872344985556

DIPOLE MOMENT
-------------
                                X             Y             Z
Electronic contribution:     10.59573     -19.03784      17.40683
Nuclear contribution   :    -10.97211      19.28167     -17.80218
                        -----------------------------------------
Total Dipole Moment    :     -0.37637       0.24383      -0.39535
                        -----------------------------------------
Magnitude (a.u.)       :      0.59784
Magnitude (Debye)      :      1.51959

Rotational constants in cm-1:     0.019903     0.008200     0.006510
Rotational constants in MHz :   596.685687   245.835307   195.177090

                             ****ORCA TERMINATED NORMALLY****
TOTAL RUN TIME: 0 days 0 hours 0 minutes 31 seconds 613 msec
