                         Program Version 4.2.1 -  RELEASE  -
|  1> ! wB97X-D3 SP def2-SVP
|  2> %pal
|  3> nprocs 16
|  4> end
|  5>
|  6> * xyz 0 1
|  7> S 	 45.2327 	 25.1705 	 90.556
|  8> C 	 45.5195 	 26.1671 	 91.9737
|  9> C 	 46.6056 	 26.9606 	 91.769
| 10> C 	 47.3121 	 26.6339 	 90.5634
| 11> C 	 46.7911 	 25.5906 	 89.8155
| 12> H 	 48.2306 	 27.1477 	 90.3243
| 13> C 	 47.0508 	 28.2501 	 92.5594
| 14> H 	 46.5758 	 29.1535 	 92.0919
| 15> H 	 48.1418 	 28.319 	 92.4486
| 16> C 	 46.7624 	 28.1856 	 94.0587
| 17> H 	 46.9205 	 29.1298 	 94.4926
| 18> H 	 45.7811 	 27.8227 	 94.2547
| 19> C 	 47.4909 	 27.2058 	 94.9324
| 20> H 	 47.3954 	 26.1849 	 94.5886
| 21> H 	 48.504 	 27.5261 	 94.8721
| 22> H 	 47.1066 	 27.371 	 95.9481
| 23> S 	 45.9657 	 24.537 	 87.4578
| 24> C 	 47.1023 	 24.4187 	 86.1577
| 25> C 	 48.4178 	 24.3375 	 86.6598
| 26> C 	 48.521 	 24.6395 	 88.0623
| 27> C 	 47.3013 	 24.967 	 88.5762
| 28> H 	 49.1985 	 24.0109 	 85.9846
| 29> C 	 49.7992 	 24.5494 	 88.8472
| 30> H 	 49.6897 	 24.2173 	 89.8665
| 31> H 	 50.2731 	 25.5259 	 88.9417
| 32> C 	 50.8655 	 23.5586 	 88.3549
| 33> H 	 51.14 	 23.8694 	 87.3488
| 34> H 	 50.598 	 22.4676 	 88.3907
| 35> C 	 52.1836 	 23.8532 	 89.0843
| 36> H 	 52.8523 	 22.9833 	 88.895
| 37> H 	 52.0765 	 23.9367 	 90.2072
| 38> H 	 52.6204 	 24.7556 	 88.7696
| 39> H 	 44.8068 	 26.2874 	 92.7809
| 40> H 	 46.8393 	 24.1872 	 85.1195
| 41> *
| 42>
| 43>                          ****END OF INPUT****

CARTESIAN COORDINATES (ANGSTROEM)
---------------------------------
  S     45.232700   25.170500   90.556000
  C     45.519500   26.167100   91.973700
  C     46.605600   26.960600   91.769000
  C     47.312100   26.633900   90.563400
  C     46.791100   25.590600   89.815500
  H     48.230600   27.147700   90.324300
  C     47.050800   28.250100   92.559400
  H     46.575800   29.153500   92.091900
  H     48.141800   28.319000   92.448600
  C     46.762400   28.185600   94.058700
  H     46.920500   29.129800   94.492600
  H     45.781100   27.822700   94.254700
  C     47.490900   27.205800   94.932400
  H     47.395400   26.184900   94.588600
  H     48.504000   27.526100   94.872100
  H     47.106600   27.371000   95.948100
  S     45.965700   24.537000   87.457800
  C     47.102300   24.418700   86.157700
  C     48.417800   24.337500   86.659800
  C     48.521000   24.639500   88.062300
  C     47.301300   24.967000   88.576200
  H     49.198500   24.010900   85.984600
  C     49.799200   24.549400   88.847200
  H     49.689700   24.217300   89.866500
  H     50.273100   25.525900   88.941700
  C     50.865500   23.558600   88.354900
  H     51.140000   23.869400   87.348800
  H     50.598000   22.467600   88.390700
  C     52.183600   23.853200   89.084300
  H     52.852300   22.983300   88.895000
  H     52.076500   23.936700   90.207200
  H     52.620400   24.755600   88.769600
  H     44.806800   26.287400   92.780900
  H     46.839300   24.187200   85.119500

 Total Charge           Charge          ....    0
 Multiplicity           Mult            ....    1
 Number of Electrons    NEL             ....  134
 Basis Dimension        Dim             ....  322

ORBITAL ENERGIES
----------------

  NO   OCC          E(Eh)            E(eV)
   0   2.0000     -88.964061     -2420.8352
   1   2.0000     -88.963101     -2420.8091
   2   2.0000     -10.335736      -281.2497
   3   2.0000     -10.331620      -281.1377
   4   2.0000     -10.322198      -280.8813
   5   2.0000     -10.314030      -280.6590
   6   2.0000     -10.308052      -280.4964
   7   2.0000     -10.301528      -280.3188
   8   2.0000     -10.300861      -280.3007
   9   2.0000     -10.299198      -280.2554
  10   2.0000     -10.291761      -280.0530
  11   2.0000     -10.291709      -280.0516
  12   2.0000     -10.291545      -280.0472
  13   2.0000     -10.282084      -279.7897
  14   2.0000     -10.274475      -279.5827
  15   2.0000     -10.270094      -279.4635
  16   2.0000      -8.078981      -219.8402
  17   2.0000      -8.077497      -219.7999
  18   2.0000      -6.037495      -164.2886
  19   2.0000      -6.036311      -164.2564
  20   2.0000      -6.033724      -164.1860
  21   2.0000      -6.032121      -164.1424
  22   2.0000      -6.029465      -164.0701
  23   2.0000      -6.027890      -164.0272
  24   2.0000      -1.004646       -27.3378
  25   2.0000      -0.983210       -26.7545
  26   2.0000      -0.915422       -24.9099
  27   2.0000      -0.912761       -24.8375
  28   2.0000      -0.868048       -23.6208
  29   2.0000      -0.856101       -23.2957
  30   2.0000      -0.843063       -22.9409
  31   2.0000      -0.811037       -22.0694
  32   2.0000      -0.782866       -21.3029
  33   2.0000      -0.776217       -21.1219
  34   2.0000      -0.703901       -19.1541
  35   2.0000      -0.700663       -19.0660
  36   2.0000      -0.689512       -18.7626
  37   2.0000      -0.658265       -17.9123
  38   2.0000      -0.635744       -17.2995
  39   2.0000      -0.616167       -16.7668
  40   2.0000      -0.602339       -16.3905
  41   2.0000      -0.582300       -15.8452
  42   2.0000      -0.576383       -15.6842
  43   2.0000      -0.552544       -15.0355
  44   2.0000      -0.543056       -14.7773
  45   2.0000      -0.523476       -14.2445
  46   2.0000      -0.516541       -14.0558
  47   2.0000      -0.511476       -13.9180
  48   2.0000      -0.507071       -13.7981
  49   2.0000      -0.502355       -13.6698
  50   2.0000      -0.490150       -13.3376
  51   2.0000      -0.479309       -13.0427
  52   2.0000      -0.469545       -12.7770
  53   2.0000      -0.466497       -12.6940
  54   2.0000      -0.460164       -12.5217
  55   2.0000      -0.451161       -12.2767
  56   2.0000      -0.447364       -12.1734
  57   2.0000      -0.441786       -12.0216
  58   2.0000      -0.434910       -11.8345
  59   2.0000      -0.418927       -11.3996
  60   2.0000      -0.414036       -11.2665
  61   2.0000      -0.411552       -11.1989
  62   2.0000      -0.407105       -11.0779
  63   2.0000      -0.355475        -9.6730
  64   2.0000      -0.332847        -9.0572
  65   2.0000      -0.325397        -8.8545
  66   2.0000      -0.285174        -7.7600
  67   0.0000       0.021171         0.5761
  68   0.0000       0.065065         1.7705
  69   0.0000       0.098226         2.6729
  70   0.0000       0.118784         3.2323
  71   0.0000       0.136716         3.7202

MULLIKEN ATOMIC CHARGES
-----------------------
   0 S :    0.085416
   1 C :   -0.132708
   2 C :   -0.100189
   3 C :    0.011384
   4 C :   -0.099950
   5 H :    0.003338
   6 C :    0.073342
   7 H :    0.062440
   8 H :    0.020172
   9 C :   -0.069831
  10 H :    0.016408
  11 H :    0.007122
  12 C :   -0.039781
  13 H :    0.041103
  14 H :    0.012653
  15 H :    0.038259
  16 S :    0.088847
  17 C :   -0.087587
  18 C :   -0.062118
  19 C :    0.012911
  20 C :   -0.147221
  21 H :    0.024349
  22 C :    0.049229
  23 H :    0.031024
  24 H :    0.031095
  25 C :   -0.105010
  26 H :    0.026154
  27 H :    0.057384
  28 C :   -0.064532
  29 H :    0.041589
  30 H :    0.029945
  31 H :    0.027290
  32 H :    0.052622
  33 H :    0.064852
Sum of atomic charges:   -0.0000000

LOEWDIN ATOMIC CHARGES
----------------------
   0 S :    0.381030
   1 C :   -0.194649
   2 C :   -0.068525
   3 C :   -0.069807
   4 C :   -0.179885
   5 H :    0.026633
   6 C :   -0.024149
   7 H :    0.043742
   8 H :    0.026807
   9 C :   -0.046055
  10 H :    0.019228
  11 H :    0.016565
  12 C :   -0.054771
  13 H :    0.023921
  14 H :    0.015227
  15 H :    0.031742
  16 S :    0.389942
  17 C :   -0.186398
  18 C :   -0.071339
  19 C :   -0.056812
  20 C :   -0.169335
  21 H :    0.030932
  22 C :   -0.034200
  23 H :    0.033019
  24 H :    0.033759
  25 C :   -0.041959
  26 H :    0.021425
  27 H :    0.032803
  28 C :   -0.064200
  29 H :    0.032072
  30 H :    0.025449
  31 H :    0.016399
  32 H :    0.028816
  33 H :    0.032574

  Mayer bond orders larger than 0.100000
B(  0-S ,  1-C ) :   1.1223 B(  0-S ,  4-C ) :   1.1322 B(  1-C ,  2-C ) :   1.6336
B(  1-C , 32-H ) :   0.9686 B(  2-C ,  3-C ) :   1.2447 B(  2-C ,  6-C ) :   0.9923
B(  3-C ,  4-C ) :   1.5760 B(  3-C ,  5-H ) :   0.9991 B(  4-C , 20-C ) :   1.0480
B(  6-C ,  7-H ) :   0.9419 B(  6-C ,  8-H ) :   0.9451 B(  6-C ,  9-C ) :   1.0793
B(  9-C , 10-H ) :   0.9552 B(  9-C , 11-H ) :   0.9564 B(  9-C , 12-C ) :   1.0762
B( 12-C , 13-H ) :   0.9754 B( 12-C , 14-H ) :   0.9751 B( 12-C , 15-H ) :   0.9742
B( 16-S , 17-C ) :   1.1631 B( 16-S , 20-C ) :   1.1181 B( 17-C , 18-C ) :   1.6059
B( 17-C , 33-H ) :   0.9655 B( 18-C , 19-C ) :   1.2116 B( 18-C , 21-H ) :   0.9895
B( 19-C , 20-C ) :   1.6256 B( 19-C , 22-C ) :   1.0259 B( 22-C , 23-H ) :   0.9409
B( 22-C , 24-H ) :   0.9304 B( 22-C , 25-C ) :   1.0712 B( 25-C , 26-H ) :   0.9447
B( 25-C , 27-H ) :   0.9621 B( 25-C , 28-C ) :   1.0793 B( 28-C , 29-H ) :   0.9729
B( 28-C , 30-H ) :   0.9728 B( 28-C , 31-H ) :   0.9776

Dispersion correction           -0.013178292
FINAL SINGLE POINT ENERGY     -1339.859628677329

DIPOLE MOMENT
-------------
                                X             Y             Z
Electronic contribution:    -22.90105      -5.82849     -16.43995
Nuclear contribution   :     23.54722       6.08354      16.53490
                        -----------------------------------------
Total Dipole Moment    :      0.64617       0.25505       0.09495
                        -----------------------------------------
Magnitude (a.u.)       :      0.70114
Magnitude (Debye)      :      1.78216

Rotational constants in cm-1:     0.018316     0.007987     0.005952
Rotational constants in MHz :   549.087349   239.442007   178.436517

                             ****ORCA TERMINATED NORMALLY****
TOTAL RUN TIME: 0 days 0 hours 0 minutes 28 seconds 971 msec
