                         Program Version 4.2.1 -  RELEASE  -
|  1> ! wB97X-D3 SP def2-SVP
|  2> %pal
|  3> nprocs 16
|  4> end
|  5>
|  6> * xyz 0 1
|  7> S 	 62.4966 	 19.0904 	 76.999
|  8> C 	 61.1567 	 19.6872 	 77.8652
|  9> C 	 61.403 	 19.6758 	 79.2341
| 10> C 	 62.5738 	 18.9482 	 79.4944
| 11> C 	 63.3309 	 18.5768 	 78.4007
| 12> H 	 62.9434 	 18.7814 	 80.5649
| 13> C 	 60.4905 	 20.1687 	 80.3476
| 14> H 	 59.7357 	 20.66 	 79.7584
| 15> H 	 61.0414 	 20.7876 	 81.0099
| 16> C 	 59.8485 	 19.0133 	 81.116
| 17> H 	 60.589 	 18.2813 	 81.4977
| 18> H 	 59.5052 	 19.4565 	 82.1057
| 19> C 	 58.76 	 18.1986 	 80.4107
| 20> H 	 57.8972 	 18.052 	 81.0906
| 21> H 	 58.231 	 18.715 	 79.5902
| 22> H 	 59.121 	 17.3051 	 80.0667
| 23> S 	 65.9172 	 18.3049 	 77.5385
| 24> C 	 66.8189 	 16.8833 	 78.0577
| 25> C 	 66.0003 	 16.0311 	 78.7873
| 26> C 	 64.6828 	 16.4835 	 78.8745
| 27> C 	 64.5272 	 17.7345 	 78.4147
| 28> H 	 66.4292 	 15.091 	 79.1496
| 29> C 	 63.6801 	 15.7201 	 79.6981
| 30> H 	 62.81 	 15.5929 	 79.0665
| 31> H 	 63.1778 	 16.2576 	 80.495
| 32> C 	 64.1034 	 14.2738 	 80.2087
| 33> H 	 64.9555 	 14.33 	 80.7233
| 34> H 	 64.2133 	 13.5291 	 79.401
| 35> C 	 63.0375 	 13.7906 	 81.1868
| 36> H 	 63.074 	 14.352 	 82.1437
| 37> H 	 63.2101 	 12.7458 	 81.3477
| 38> H 	 62.0054 	 13.8981 	 80.8139
| 39> H 	 60.2015 	 19.9356 	 77.4832
| 40> H 	 67.8066 	 16.6394 	 77.6884
| 41> *
| 42>
| 43>                          ****END OF INPUT****

CARTESIAN COORDINATES (ANGSTROEM)
---------------------------------
  S     62.496600   19.090400   76.999000
  C     61.156700   19.687200   77.865200
  C     61.403000   19.675800   79.234100
  C     62.573800   18.948200   79.494400
  C     63.330900   18.576800   78.400700
  H     62.943400   18.781400   80.564900
  C     60.490500   20.168700   80.347600
  H     59.735700   20.660000   79.758400
  H     61.041400   20.787600   81.009900
  C     59.848500   19.013300   81.116000
  H     60.589000   18.281300   81.497700
  H     59.505200   19.456500   82.105700
  C     58.760000   18.198600   80.410700
  H     57.897200   18.052000   81.090600
  H     58.231000   18.715000   79.590200
  H     59.121000   17.305100   80.066700
  S     65.917200   18.304900   77.538500
  C     66.818900   16.883300   78.057700
  C     66.000300   16.031100   78.787300
  C     64.682800   16.483500   78.874500
  C     64.527200   17.734500   78.414700
  H     66.429200   15.091000   79.149600
  C     63.680100   15.720100   79.698100
  H     62.810000   15.592900   79.066500
  H     63.177800   16.257600   80.495000
  C     64.103400   14.273800   80.208700
  H     64.955500   14.330000   80.723300
  H     64.213300   13.529100   79.401000
  C     63.037500   13.790600   81.186800
  H     63.074000   14.352000   82.143700
  H     63.210100   12.745800   81.347700
  H     62.005400   13.898100   80.813900
  H     60.201500   19.935600   77.483200
  H     67.806600   16.639400   77.688400

 Total Charge           Charge          ....    0
 Multiplicity           Mult            ....    1
 Number of Electrons    NEL             ....  134
 Basis Dimension        Dim             ....  322

ORBITAL ENERGIES
----------------

  NO   OCC          E(Eh)            E(eV)
   0   2.0000     -88.966225     -2420.8941
   1   2.0000     -88.963203     -2420.8118
   2   2.0000     -10.322981      -280.9026
   3   2.0000     -10.319237      -280.8007
   4   2.0000     -10.315757      -280.7060
   5   2.0000     -10.308563      -280.5103
   6   2.0000     -10.294578      -280.1297
   7   2.0000     -10.294109      -280.1169
   8   2.0000     -10.293501      -280.1004
   9   2.0000     -10.291793      -280.0539
  10   2.0000     -10.290938      -280.0307
  11   2.0000     -10.290597      -280.0214
  12   2.0000     -10.288492      -279.9641
  13   2.0000     -10.282473      -279.8003
  14   2.0000     -10.278354      -279.6882
  15   2.0000     -10.275716      -279.6164
  16   2.0000      -8.082235      -219.9288
  17   2.0000      -8.078194      -219.8188
  18   2.0000      -6.040594      -164.3729
  19   2.0000      -6.036612      -164.2646
  20   2.0000      -6.036413      -164.2591
  21   2.0000      -6.033219      -164.1722
  22   2.0000      -6.032694      -164.1579
  23   2.0000      -6.029024      -164.0581
  24   2.0000      -1.015354       -27.6292
  25   2.0000      -0.993163       -27.0253
  26   2.0000      -0.915057       -24.9000
  27   2.0000      -0.907838       -24.7035
  28   2.0000      -0.869321       -23.6554
  29   2.0000      -0.855901       -23.2903
  30   2.0000      -0.846963       -23.0470
  31   2.0000      -0.814007       -22.1503
  32   2.0000      -0.787210       -21.4211
  33   2.0000      -0.772855       -21.0305
  34   2.0000      -0.712690       -19.3933
  35   2.0000      -0.706555       -19.2263
  36   2.0000      -0.694955       -18.9107
  37   2.0000      -0.656223       -17.8567
  38   2.0000      -0.637477       -17.3466
  39   2.0000      -0.622446       -16.9376
  40   2.0000      -0.602332       -16.3903
  41   2.0000      -0.572693       -15.5838
  42   2.0000      -0.568975       -15.4826
  43   2.0000      -0.555771       -15.1233
  44   2.0000      -0.542236       -14.7550
  45   2.0000      -0.527423       -14.3519
  46   2.0000      -0.524583       -14.2746
  47   2.0000      -0.511840       -13.9279
  48   2.0000      -0.503148       -13.6914
  49   2.0000      -0.498805       -13.5732
  50   2.0000      -0.482740       -13.1360
  51   2.0000      -0.475960       -12.9515
  52   2.0000      -0.474785       -12.9195
  53   2.0000      -0.465181       -12.6582
  54   2.0000      -0.458521       -12.4770
  55   2.0000      -0.451817       -12.2946
  56   2.0000      -0.445123       -12.1124
  57   2.0000      -0.437964       -11.9176
  58   2.0000      -0.434433       -11.8215
  59   2.0000      -0.431754       -11.7486
  60   2.0000      -0.427940       -11.6448
  61   2.0000      -0.415452       -11.3050
  62   2.0000      -0.406869       -11.0715
  63   2.0000      -0.341676        -9.2975
  64   2.0000      -0.332172        -9.0389
  65   2.0000      -0.330806        -9.0017
  66   2.0000      -0.293456        -7.9854
  67   0.0000       0.037675         1.0252
  68   0.0000       0.065236         1.7752
  69   0.0000       0.114668         3.1203
  70   0.0000       0.122690         3.3386
  71   0.0000       0.129731         3.5302

MULLIKEN ATOMIC CHARGES
-----------------------
   0 S :    0.137030
   1 C :   -0.117466
   2 C :   -0.113641
   3 C :   -0.024796
   4 C :   -0.143087
   5 H :    0.035787
   6 C :    0.140989
   7 H :    0.012487
   8 H :    0.028044
   9 C :   -0.122937
  10 H :    0.028583
  11 H :    0.032334
  12 C :   -0.019498
  13 H :    0.033573
  14 H :    0.020204
  15 H :    0.028277
  16 S :    0.103525
  17 C :   -0.086889
  18 C :   -0.065118
  19 C :    0.028568
  20 C :   -0.177281
  21 H :    0.028044
  22 C :    0.039974
  23 H :    0.019214
  24 H :    0.021506
  25 C :   -0.042585
  26 H :    0.010149
  27 H :    0.039132
  28 C :   -0.055038
  29 H :    0.038572
  30 H :    0.027579
  31 H :    0.028570
  32 H :    0.031900
  33 H :    0.054294
Sum of atomic charges:   -0.0000000

LOEWDIN ATOMIC CHARGES
----------------------
   0 S :    0.448442
   1 C :   -0.211542
   2 C :   -0.068669
   3 C :   -0.073746
   4 C :   -0.217529
   5 H :    0.038645
   6 C :   -0.019645
   7 H :    0.028557
   8 H :    0.030604
   9 C :   -0.048324
  10 H :    0.025191
  11 H :    0.027638
  12 C :   -0.062936
  13 H :    0.035507
  14 H :    0.026182
  15 H :    0.015134
  16 S :    0.403535
  17 C :   -0.179813
  18 C :   -0.071538
  19 C :   -0.062753
  20 C :   -0.198479
  21 H :    0.035701
  22 C :   -0.032246
  23 H :    0.035518
  24 H :    0.029327
  25 C :   -0.027290
  26 H :    0.003913
  27 H :    0.028879
  28 C :   -0.062439
  29 H :    0.028272
  30 H :    0.022770
  31 H :    0.024411
  32 H :    0.021575
  33 H :    0.027147

  Mayer bond orders larger than 0.100000
B(  0-S ,  1-C ) :   1.1718 B(  0-S ,  4-C ) :   1.1697 B(  1-C ,  2-C ) :   1.5634
B(  1-C ,  4-C ) :   0.1014 B(  1-C , 32-H ) :   0.9696 B(  2-C ,  3-C ) :   1.2866
B(  2-C ,  6-C ) :   1.0199 B(  3-C ,  4-C ) :   1.5543 B(  3-C ,  5-H ) :   0.9790
B(  4-C , 20-C ) :   1.0194 B(  6-C ,  7-H ) :   0.9407 B(  6-C ,  8-H ) :   0.9331
B(  6-C ,  9-C ) :   1.0808 B(  9-C , 10-H ) :   0.9579 B(  9-C , 11-H ) :   0.9615
B(  9-C , 12-C ) :   1.0537 B( 12-C , 13-H ) :   0.9745 B( 12-C , 14-H ) :   0.9783
B( 12-C , 15-H ) :   0.9797 B( 16-S , 17-C ) :   1.1573 B( 16-S , 20-C ) :   1.1423
B( 17-C , 18-C ) :   1.5967 B( 17-C , 20-C ) :   0.1033 B( 17-C , 33-H ) :   0.9658
B( 18-C , 19-C ) :   1.2530 B( 18-C , 21-H ) :   0.9830 B( 19-C , 20-C ) :   1.6166
B( 19-C , 22-C ) :   1.0234 B( 22-C , 23-H ) :   0.9070 B( 22-C , 24-H ) :   0.9450
B( 22-C , 25-C ) :   1.0733 B( 25-C , 26-H ) :   0.9453 B( 25-C , 27-H ) :   0.9560
B( 25-C , 28-C ) :   1.0897 B( 28-C , 29-H ) :   0.9748 B( 28-C , 30-H ) :   0.9711
B( 28-C , 31-H ) :   0.9755

Dispersion correction           -0.014337050
FINAL SINGLE POINT ENERGY     -1339.863173584788

DIPOLE MOMENT
-------------
                                X             Y             Z
Electronic contribution:     18.44768      14.18384     -21.24401
Nuclear contribution   :    -18.83333     -14.59750      21.78583
                        -----------------------------------------
Total Dipole Moment    :     -0.38565      -0.41366       0.54182
                        -----------------------------------------
Magnitude (a.u.)       :      0.78320
Magnitude (Debye)      :      1.99075

Rotational constants in cm-1:     0.016801     0.009907     0.006808
Rotational constants in MHz :   503.695375   296.994142   204.092153

                             ****ORCA TERMINATED NORMALLY****
TOTAL RUN TIME: 0 days 0 hours 0 minutes 30 seconds 711 msec
