                         Program Version 4.2.1 -  RELEASE  -
|  1> ! wB97X-D3 SP def2-SVP
|  2> %pal
|  3> nprocs 16
|  4> end
|  5>
|  6> * xyz 0 1
|  7> S 	 -14.6898 	 41.1801 	 33.8533
|  8> C 	 -13.1466 	 40.3447 	 34.1286
|  9> C 	 -12.4321 	 40.1296 	 32.9437
| 10> C 	 -13.2192 	 40.4586 	 31.7874
| 11> C 	 -14.4637 	 40.9115 	 32.0903
| 12> H 	 -13.0148 	 40.2652 	 30.77
| 13> C 	 -11.0768 	 39.389 	 32.9388
| 14> H 	 -10.8614 	 38.7383 	 33.8577
| 15> H 	 -10.4088 	 40.265 	 33.2242
| 16> C 	 -10.4974 	 38.8942 	 31.6451
| 17> H 	 -10.4795 	 39.642 	 30.8964
| 18> H 	 -9.44778 	 38.5197 	 31.8782
| 19> C 	 -11.2601 	 37.6916 	 30.9675
| 20> H 	 -12.3529 	 37.811 	 30.7837
| 21> H 	 -10.8154 	 37.367 	 30.0527
| 22> H 	 -11.1628 	 36.8347 	 31.6986
| 23> S 	 -17.2047 	 40.7266 	 31.6002
| 24> C 	 -17.8808 	 41.337 	 30.0916
| 25> C 	 -16.9349 	 42.1025 	 29.4607
| 26> C 	 -15.5962 	 41.9245 	 29.9278
| 27> C 	 -15.5279 	 41.2659 	 31.1691
| 28> H 	 -17.0186 	 42.6513 	 28.5562
| 29> C 	 -14.4584 	 42.7681 	 29.4228
| 30> H 	 -13.6126 	 42.6074 	 30.1509
| 31> H 	 -14.7943 	 43.826 	 29.3408
| 32> C 	 -13.8923 	 42.4421 	 28.078
| 33> H 	 -14.664 	 42.5739 	 27.3835
| 34> H 	 -13.5841 	 41.3754 	 27.9837
| 35> C 	 -12.6727 	 43.3467 	 27.8537
| 36> H 	 -12.3984 	 43.2484 	 26.8232
| 37> H 	 -11.8171 	 43.0544 	 28.4897
| 38> H 	 -12.7819 	 44.4076 	 28.1366
| 39> H 	 -12.7593 	 39.9616 	 35.1153
| 40> H 	 -18.7894 	 41.0424 	 29.6083
| 41> *
| 42>
| 43>                          ****END OF INPUT****

CARTESIAN COORDINATES (ANGSTROEM)
---------------------------------
  S    -14.689800   41.180100   33.853300
  C    -13.146600   40.344700   34.128600
  C    -12.432100   40.129600   32.943700
  C    -13.219200   40.458600   31.787400
  C    -14.463700   40.911500   32.090300
  H    -13.014800   40.265200   30.770000
  C    -11.076800   39.389000   32.938800
  H    -10.861400   38.738300   33.857700
  H    -10.408800   40.265000   33.224200
  C    -10.497400   38.894200   31.645100
  H    -10.479500   39.642000   30.896400
  H     -9.447780   38.519700   31.878200
  C    -11.260100   37.691600   30.967500
  H    -12.352900   37.811000   30.783700
  H    -10.815400   37.367000   30.052700
  H    -11.162800   36.834700   31.698600
  S    -17.204700   40.726600   31.600200
  C    -17.880800   41.337000   30.091600
  C    -16.934900   42.102500   29.460700
  C    -15.596200   41.924500   29.927800
  C    -15.527900   41.265900   31.169100
  H    -17.018600   42.651300   28.556200
  C    -14.458400   42.768100   29.422800
  H    -13.612600   42.607400   30.150900
  H    -14.794300   43.826000   29.340800
  C    -13.892300   42.442100   28.078000
  H    -14.664000   42.573900   27.383500
  H    -13.584100   41.375400   27.983700
  C    -12.672700   43.346700   27.853700
  H    -12.398400   43.248400   26.823200
  H    -11.817100   43.054400   28.489700
  H    -12.781900   44.407600   28.136600
  H    -12.759300   39.961600   35.115300
  H    -18.789400   41.042400   29.608300

 Total Charge           Charge          ....    0
 Multiplicity           Mult            ....    1
 Number of Electrons    NEL             ....  134
 Basis Dimension        Dim             ....  322

ORBITAL ENERGIES
----------------

  NO   OCC          E(Eh)            E(eV)
   0   2.0000     -88.968046     -2420.9436
   1   2.0000     -88.964497     -2420.8470
   2   2.0000     -10.333799      -281.1970
   3   2.0000     -10.333169      -281.1798
   4   2.0000     -10.321270      -280.8560
   5   2.0000     -10.318749      -280.7874
   6   2.0000     -10.310643      -280.5669
   7   2.0000     -10.305943      -280.4390
   8   2.0000     -10.303068      -280.3607
   9   2.0000     -10.295943      -280.1668
  10   2.0000     -10.295104      -280.1440
  11   2.0000     -10.292061      -280.0612
  12   2.0000     -10.290889      -280.0293
  13   2.0000     -10.282423      -279.7989
  14   2.0000     -10.281480      -279.7733
  15   2.0000     -10.279369      -279.7158
  16   2.0000      -8.081532      -219.9097
  17   2.0000      -8.078201      -219.8190
  18   2.0000      -6.040226      -164.3629
  19   2.0000      -6.036921      -164.2730
  20   2.0000      -6.036430      -164.2596
  21   2.0000      -6.032759      -164.1597
  22   2.0000      -6.031947      -164.1376
  23   2.0000      -6.028868      -164.0538
  24   2.0000      -1.001223       -27.2447
  25   2.0000      -0.978677       -26.6312
  26   2.0000      -0.916917       -24.9506
  27   2.0000      -0.909146       -24.7391
  28   2.0000      -0.869427       -23.6583
  29   2.0000      -0.851094       -23.1594
  30   2.0000      -0.841827       -22.9073
  31   2.0000      -0.816909       -22.2292
  32   2.0000      -0.781326       -21.2609
  33   2.0000      -0.769118       -20.9288
  34   2.0000      -0.710519       -19.3342
  35   2.0000      -0.698558       -19.0087
  36   2.0000      -0.689035       -18.7496
  37   2.0000      -0.662670       -18.0322
  38   2.0000      -0.641880       -17.4665
  39   2.0000      -0.623042       -16.9538
  40   2.0000      -0.600101       -16.3296
  41   2.0000      -0.573452       -15.6044
  42   2.0000      -0.565639       -15.3918
  43   2.0000      -0.545074       -14.8322
  44   2.0000      -0.536601       -14.6017
  45   2.0000      -0.529476       -14.4078
  46   2.0000      -0.511954       -13.9310
  47   2.0000      -0.508406       -13.8344
  48   2.0000      -0.507450       -13.8084
  49   2.0000      -0.495845       -13.4926
  50   2.0000      -0.490611       -13.3502
  51   2.0000      -0.482641       -13.1333
  52   2.0000      -0.475921       -12.9505
  53   2.0000      -0.463330       -12.6079
  54   2.0000      -0.454436       -12.3658
  55   2.0000      -0.448253       -12.1976
  56   2.0000      -0.443539       -12.0693
  57   2.0000      -0.440533       -11.9875
  58   2.0000      -0.436171       -11.8688
  59   2.0000      -0.422435       -11.4950
  60   2.0000      -0.421027       -11.4567
  61   2.0000      -0.412088       -11.2135
  62   2.0000      -0.408679       -11.1207
  63   2.0000      -0.350138        -9.5278
  64   2.0000      -0.329905        -8.9772
  65   2.0000      -0.329173        -8.9572
  66   2.0000      -0.284902        -7.7526
  67   0.0000       0.019901         0.5415
  68   0.0000       0.062280         1.6947
  69   0.0000       0.104789         2.8515
  70   0.0000       0.113394         3.0856
  71   0.0000       0.124811         3.3963

MULLIKEN ATOMIC CHARGES
-----------------------
   0 S :    0.107450
   1 C :   -0.147889
   2 C :   -0.059398
   3 C :    0.023390
   4 C :   -0.123106
   5 H :   -0.000915
   6 C :    0.009580
   7 H :    0.045389
   8 H :    0.048807
   9 C :   -0.059087
  10 H :    0.024587
  11 H :    0.045561
  12 C :   -0.084774
  13 H :    0.048966
  14 H :    0.031834
  15 H :    0.028964
  16 S :    0.087562
  17 C :   -0.075544
  18 C :    0.005820
  19 C :   -0.020958
  20 C :   -0.153022
  21 H :    0.004618
  22 C :   -0.027221
  23 H :    0.031580
  24 H :    0.043934
  25 C :   -0.057169
  26 H :    0.008970
  27 H :    0.029700
  28 C :   -0.038499
  29 H :    0.032534
  30 H :    0.030562
  31 H :    0.030027
  32 H :    0.064379
  33 H :    0.063367
Sum of atomic charges:    0.0000000

LOEWDIN ATOMIC CHARGES
----------------------
   0 S :    0.371963
   1 C :   -0.202468
   2 C :   -0.055844
   3 C :   -0.065671
   4 C :   -0.168285
   5 H :    0.026168
   6 C :   -0.050726
   7 H :    0.041602
   8 H :    0.048884
   9 C :   -0.044360
  10 H :    0.017036
  11 H :    0.040229
  12 C :   -0.076077
  13 H :    0.028567
  14 H :    0.019519
  15 H :    0.028521
  16 S :    0.375252
  17 C :   -0.172963
  18 C :   -0.066883
  19 C :   -0.058902
  20 C :   -0.175987
  21 H :    0.023347
  22 C :   -0.038811
  23 H :    0.033726
  24 H :    0.038500
  25 C :   -0.040943
  26 H :    0.011075
  27 H :    0.027149
  28 C :   -0.064858
  29 H :    0.023110
  30 H :    0.028809
  31 H :    0.027086
  32 H :    0.038628
  33 H :    0.033607

  Mayer bond orders larger than 0.100000
B(  0-S ,  1-C ) :   1.1127 B(  0-S ,  4-C ) :   1.1245 B(  1-C ,  2-C ) :   1.6430
B(  1-C , 32-H ) :   0.9626 B(  2-C ,  3-C ) :   1.2049 B(  2-C ,  6-C ) :   0.9944
B(  3-C ,  4-C ) :   1.6135 B(  3-C ,  5-H ) :   0.9939 B(  4-C , 20-C ) :   1.0603
B(  6-C ,  7-H ) :   0.9478 B(  6-C ,  8-H ) :   0.9248 B(  6-C ,  9-C ) :   1.0970
B(  9-C , 10-H ) :   0.9484 B(  9-C , 11-H ) :   0.9505 B(  9-C , 12-C ) :   1.0665
B( 12-C , 13-H ) :   0.9763 B( 12-C , 14-H ) :   0.9773 B( 12-C , 15-H ) :   0.9759
B( 16-S , 17-C ) :   1.1496 B( 16-S , 20-C ) :   1.1175 B( 17-C , 18-C ) :   1.5817
B( 17-C , 20-C ) :   0.1029 B( 17-C , 33-H ) :   0.9716 B( 18-C , 19-C ) :   1.2641
B( 18-C , 21-H ) :   0.9807 B( 19-C , 20-C ) :   1.5635 B( 19-C , 22-C ) :   1.0435
B( 22-C , 23-H ) :   0.9424 B( 22-C , 24-H ) :   0.9414 B( 22-C , 25-C ) :   1.0615
B( 25-C , 26-H ) :   0.9551 B( 25-C , 27-H ) :   0.9495 B( 25-C , 28-C ) :   1.0803
B( 28-C , 29-H ) :   0.9738 B( 28-C , 30-H ) :   0.9727 B( 28-C , 31-H ) :   0.9724

Dispersion correction           -0.014103645
FINAL SINGLE POINT ENERGY     -1339.855796197019

DIPOLE MOMENT
-------------
                                X             Y             Z
Electronic contribution:    -24.05776       2.26876      17.31963
Nuclear contribution   :     24.61523      -2.30915     -17.86767
                        -----------------------------------------
Total Dipole Moment    :      0.55746      -0.04039      -0.54804
                        -----------------------------------------
Magnitude (a.u.)       :      0.78277
Magnitude (Debye)      :      1.98965

Rotational constants in cm-1:     0.015625     0.009842     0.007158
Rotational constants in MHz :   468.435027   295.069449   214.583366

                             ****ORCA TERMINATED NORMALLY****
TOTAL RUN TIME: 0 days 0 hours 0 minutes 31 seconds 994 msec
