                         Program Version 4.2.1 -  RELEASE  -
|  1> ! wB97X-D3 SP def2-SVP
|  2> %pal
|  3> nprocs 16
|  4> end
|  5>
|  6> * xyz 0 1
|  7> S 	 -35.571 	 41.0546 	 98.1426
|  8> C 	 -34.0665 	 40.8255 	 97.3188
|  9> C 	 -33.8771 	 39.4907 	 96.951
| 10> C 	 -34.9585 	 38.6434 	 97.3366
| 11> C 	 -35.9985 	 39.3483 	 97.9307
| 12> H 	 -34.9117 	 37.6086 	 97.042
| 13> C 	 -32.5759 	 38.8893 	 96.364
| 14> H 	 -32.1889 	 38.215 	 97.0407
| 15> H 	 -31.8255 	 39.7662 	 96.4397
| 16> C 	 -32.6405 	 38.3304 	 94.9276
| 17> H 	 -33.229 	 37.4717 	 94.8924
| 18> H 	 -33.1446 	 39.1017 	 94.3469
| 19> C 	 -31.2616 	 38.0627 	 94.325
| 20> H 	 -30.4552 	 38.8695 	 94.3969
| 21> H 	 -30.7382 	 37.2007 	 94.7011
| 22> H 	 -31.385 	 37.8613 	 93.2406
| 23> S 	 -38.6329 	 39.0327 	 97.3645
| 24> C 	 -39.6245 	 37.7664 	 98.1734
| 25> C 	 -38.7928 	 37.0767 	 99.0384
| 26> C 	 -37.4944 	 37.6806 	 99.2117
| 27> C 	 -37.2573 	 38.7301 	 98.306
| 28> H 	 -39.2895 	 36.165 	 99.5173
| 29> C 	 -36.3709 	 37.1339 	 100.111
| 30> H 	 -35.528 	 37.0872 	 99.4368
| 31> H 	 -36.6404 	 36.0408 	 100.321
| 32> C 	 -36.1537 	 37.8451 	 101.49
| 33> H 	 -35.8001 	 38.855 	 101.217
| 34> H 	 -35.3284 	 37.2919 	 102.017
| 35> C 	 -37.4555 	 38.0246 	 102.278
| 36> H 	 -38.0664 	 38.7026 	 101.672
| 37> H 	 -37.2916 	 38.4061 	 103.318
| 38> H 	 -37.8928 	 36.9836 	 102.405
| 39> H 	 -33.2198 	 41.5946 	 97.2728
| 40> H 	 -40.6615 	 37.5321 	 97.9866
| 41> *
| 42>
| 43>                          ****END OF INPUT****

CARTESIAN COORDINATES (ANGSTROEM)
---------------------------------
  S    -35.571000   41.054600   98.142600
  C    -34.066500   40.825500   97.318800
  C    -33.877100   39.490700   96.951000
  C    -34.958500   38.643400   97.336600
  C    -35.998500   39.348300   97.930700
  H    -34.911700   37.608600   97.042000
  C    -32.575900   38.889300   96.364000
  H    -32.188900   38.215000   97.040700
  H    -31.825500   39.766200   96.439700
  C    -32.640500   38.330400   94.927600
  H    -33.229000   37.471700   94.892400
  H    -33.144600   39.101700   94.346900
  C    -31.261600   38.062700   94.325000
  H    -30.455200   38.869500   94.396900
  H    -30.738200   37.200700   94.701100
  H    -31.385000   37.861300   93.240600
  S    -38.632900   39.032700   97.364500
  C    -39.624500   37.766400   98.173400
  C    -38.792800   37.076700   99.038400
  C    -37.494400   37.680600   99.211700
  C    -37.257300   38.730100   98.306000
  H    -39.289500   36.165000   99.517300
  C    -36.370900   37.133900  100.111000
  H    -35.528000   37.087200   99.436800
  H    -36.640400   36.040800  100.321000
  C    -36.153700   37.845100  101.490000
  H    -35.800100   38.855000  101.217000
  H    -35.328400   37.291900  102.017000
  C    -37.455500   38.024600  102.278000
  H    -38.066400   38.702600  101.672000
  H    -37.291600   38.406100  103.318000
  H    -37.892800   36.983600  102.405000
  H    -33.219800   41.594600   97.272800
  H    -40.661500   37.532100   97.986600

 Total Charge           Charge          ....    0
 Multiplicity           Mult            ....    1
 Number of Electrons    NEL             ....  134
 Basis Dimension        Dim             ....  322

ORBITAL ENERGIES
----------------

  NO   OCC          E(Eh)            E(eV)
   0   2.0000     -88.973437     -2421.0903
   1   2.0000     -88.963264     -2420.8135
   2   2.0000     -10.334927      -281.2277
   3   2.0000     -10.323695      -280.9220
   4   2.0000     -10.322391      -280.8865
   5   2.0000     -10.319644      -280.8118
   6   2.0000     -10.305919      -280.4383
   7   2.0000     -10.302844      -280.3546
   8   2.0000     -10.302390      -280.3423
   9   2.0000     -10.297124      -280.1990
  10   2.0000     -10.294785      -280.1353
  11   2.0000     -10.293059      -280.0884
  12   2.0000     -10.288549      -279.9656
  13   2.0000     -10.287158      -279.9278
  14   2.0000     -10.285118      -279.8723
  15   2.0000     -10.281711      -279.7796
  16   2.0000      -8.087700      -220.0775
  17   2.0000      -8.078222      -219.8196
  18   2.0000      -6.046220      -164.5260
  19   2.0000      -6.042199      -164.4166
  20   2.0000      -6.038548      -164.3172
  21   2.0000      -6.036737      -164.2680
  22   2.0000      -6.032483      -164.1522
  23   2.0000      -6.029150      -164.0615
  24   2.0000      -1.007087       -27.4042
  25   2.0000      -0.982764       -26.7424
  26   2.0000      -0.909052       -24.7366
  27   2.0000      -0.898167       -24.4404
  28   2.0000      -0.871647       -23.7187
  29   2.0000      -0.852642       -23.2016
  30   2.0000      -0.839072       -22.8323
  31   2.0000      -0.813845       -22.1459
  32   2.0000      -0.778033       -21.1714
  33   2.0000      -0.764343       -20.7988
  34   2.0000      -0.711250       -19.3541
  35   2.0000      -0.700407       -19.0591
  36   2.0000      -0.681911       -18.5557
  37   2.0000      -0.655621       -17.8403
  38   2.0000      -0.637400       -17.3445
  39   2.0000      -0.623513       -16.9667
  40   2.0000      -0.579523       -15.7696
  41   2.0000      -0.572070       -15.5668
  42   2.0000      -0.559536       -15.2257
  43   2.0000      -0.551819       -15.0158
  44   2.0000      -0.541956       -14.7474
  45   2.0000      -0.522724       -14.2241
  46   2.0000      -0.513116       -13.9626
  47   2.0000      -0.509730       -13.8705
  48   2.0000      -0.502467       -13.6728
  49   2.0000      -0.499281       -13.5861
  50   2.0000      -0.478448       -13.0192
  51   2.0000      -0.476706       -12.9718
  52   2.0000      -0.467437       -12.7196
  53   2.0000      -0.466136       -12.6842
  54   2.0000      -0.458724       -12.4825
  55   2.0000      -0.447739       -12.1836
  56   2.0000      -0.439494       -11.9592
  57   2.0000      -0.435892       -11.8612
  58   2.0000      -0.431269       -11.7354
  59   2.0000      -0.424500       -11.5512
  60   2.0000      -0.422386       -11.4937
  61   2.0000      -0.413314       -11.2468
  62   2.0000      -0.404283       -11.0011
  63   2.0000      -0.344974        -9.3872
  64   2.0000      -0.332630        -9.0513
  65   2.0000      -0.323199        -8.7947
  66   2.0000      -0.300401        -8.1743
  67   0.0000       0.034982         0.9519
  68   0.0000       0.057853         1.5743
  69   0.0000       0.112951         3.0736
  70   0.0000       0.116045         3.1577
  71   0.0000       0.133192         3.6243

MULLIKEN ATOMIC CHARGES
-----------------------
   0 S :    0.131291
   1 C :   -0.146798
   2 C :   -0.109838
   3 C :    0.063729
   4 C :   -0.172220
   5 H :    0.021115
   6 C :    0.041293
   7 H :    0.018213
   8 H :    0.017383
   9 C :   -0.018246
  10 H :    0.020955
  11 H :    0.034538
  12 C :   -0.081218
  13 H :    0.038515
  14 H :    0.026410
  15 H :    0.038197
  16 S :    0.108334
  17 C :   -0.116429
  18 C :   -0.057157
  19 C :   -0.070140
  20 C :   -0.144831
  21 H :    0.050605
  22 C :    0.057086
  23 H :    0.021351
  24 H :    0.023026
  25 C :   -0.069198
  26 H :    0.030532
  27 H :    0.041878
  28 C :   -0.072872
  29 H :    0.058421
  30 H :    0.046838
  31 H :    0.031526
  32 H :    0.078667
  33 H :    0.059044
Sum of atomic charges:    0.0000000

LOEWDIN ATOMIC CHARGES
----------------------
   0 S :    0.416475
   1 C :   -0.219090
   2 C :   -0.067689
   3 C :   -0.050873
   4 C :   -0.195390
   5 H :    0.033084
   6 C :   -0.028967
   7 H :    0.017043
   8 H :    0.035021
   9 C :   -0.033797
  10 H :    0.017798
  11 H :    0.030703
  12 C :   -0.074654
  13 H :    0.032133
  14 H :    0.020594
  15 H :    0.031325
  16 S :    0.415567
  17 C :   -0.181843
  18 C :   -0.078882
  19 C :   -0.065286
  20 C :   -0.223645
  21 H :    0.047128
  22 C :   -0.037116
  23 H :    0.026888
  24 H :    0.030729
  25 C :   -0.044053
  26 H :    0.023015
  27 H :    0.027623
  28 C :   -0.071414
  29 H :    0.031790
  30 H :    0.031014
  31 H :    0.027718
  32 H :    0.045931
  33 H :    0.031118

  Mayer bond orders larger than 0.100000
B(  0-S ,  1-C ) :   1.1467 B(  0-S ,  4-C ) :   1.1510 B(  1-C ,  2-C ) :   1.6094
B(  1-C , 32-H ) :   0.9506 B(  2-C ,  3-C ) :   1.2748 B(  2-C ,  6-C ) :   1.0178
B(  3-C ,  4-C ) :   1.5508 B(  3-C ,  5-H ) :   0.9874 B(  4-C , 20-C ) :   1.0273
B(  6-C ,  7-H ) :   0.9447 B(  6-C ,  8-H ) :   0.9452 B(  6-C ,  9-C ) :   1.0548
B(  9-C , 10-H ) :   0.9523 B(  9-C , 11-H ) :   0.9567 B(  9-C , 12-C ) :   1.0841
B( 12-C , 13-H ) :   0.9759 B( 12-C , 14-H ) :   0.9749 B( 12-C , 15-H ) :   0.9743
B( 16-S , 17-C ) :   1.1466 B( 16-S , 20-C ) :   1.1733 B( 17-C , 18-C ) :   1.6135
B( 17-C , 20-C ) :   0.1020 B( 17-C , 33-H ) :   0.9706 B( 18-C , 19-C ) :   1.2438
B( 18-C , 21-H ) :   0.9767 B( 19-C , 20-C ) :   1.5567 B( 19-C , 22-C ) :   1.0263
B( 22-C , 23-H ) :   0.9350 B( 22-C , 24-H ) :   0.9398 B( 22-C , 25-C ) :   1.0570
B( 25-C , 26-H ) :   0.9572 B( 25-C , 27-H ) :   0.9582 B( 25-C , 28-C ) :   1.0699
B( 28-C , 29-H ) :   0.9685 B( 28-C , 30-H ) :   0.9736 B( 28-C , 31-H ) :   0.9764

Dispersion correction           -0.014558329
FINAL SINGLE POINT ENERGY     -1339.871873387755

DIPOLE MOMENT
-------------
                                X             Y             Z
Electronic contribution:    -17.70987      12.46857      -2.52173
Nuclear contribution   :     18.15488     -12.98904       2.49475
                        -----------------------------------------
Total Dipole Moment    :      0.44502      -0.52046      -0.02698
                        -----------------------------------------
Magnitude (a.u.)       :      0.68531
Magnitude (Debye)      :      1.74193

Rotational constants in cm-1:     0.020331     0.007419     0.007028
Rotational constants in MHz :   609.522121   222.417033   210.699158

                             ****ORCA TERMINATED NORMALLY****
TOTAL RUN TIME: 0 days 0 hours 0 minutes 28 seconds 540 msec
