                         Program Version 4.2.1 -  RELEASE  -
|  1> ! wB97X-D3 SP def2-SVP
|  2> %pal
|  3> nprocs 16
|  4> end
|  5>
|  6> * xyz 0 1
|  7> S 	 54.2663 	 22.1468 	 93.2338
|  8> C 	 52.6441 	 22.3213 	 93.758
|  9> C 	 51.9174 	 21.1393 	 93.7191
| 10> C 	 52.8416 	 20.0283 	 93.6374
| 11> C 	 54.1909 	 20.3377 	 93.525
| 12> H 	 52.6624 	 18.9334 	 93.6544
| 13> C 	 50.3846 	 20.9094 	 93.836
| 14> H 	 49.9367 	 21.1305 	 92.8886
| 15> H 	 50.0579 	 21.7454 	 94.5062
| 16> C 	 49.8657 	 19.5917 	 94.2991
| 17> H 	 48.7487 	 19.6173 	 94.2483
| 18> H 	 50.2259 	 18.7174 	 93.721
| 19> C 	 50.1653 	 19.2047 	 95.7553
| 20> H 	 49.6599 	 19.8287 	 96.4747
| 21> H 	 49.7944 	 18.2363 	 95.8817
| 22> H 	 51.2615 	 19.2854 	 96.1368
| 23> S 	 56.2488 	 19.5147 	 92.0643
| 24> C 	 57.3532 	 18.3051 	 92.602
| 25> C 	 56.9448 	 17.8288 	 93.8595
| 26> C 	 55.7245 	 18.3706 	 94.3418
| 27> C 	 55.2977 	 19.4303 	 93.5271
| 28> H 	 57.6155 	 17.0815 	 94.291
| 29> C 	 55.1334 	 17.9551 	 95.6608
| 30> H 	 55.61 	 17.0492 	 96.1216
| 31> H 	 54.1724 	 17.5801 	 95.3114
| 32> C 	 54.9329 	 19.1084 	 96.6384
| 33> H 	 54.2467 	 18.7009 	 97.4203
| 34> H 	 54.4196 	 19.9184 	 96.1319
| 35> C 	 56.2677 	 19.4866 	 97.3519
| 36> H 	 56.1706 	 20.197 	 98.2068
| 37> H 	 56.9735 	 19.8623 	 96.5973
| 38> H 	 56.7243 	 18.6255 	 97.7428
| 39> H 	 51.9828 	 23.195 	 93.7835
| 40> H 	 58.2029 	 18.1108 	 92.026
| 41> *
| 42>
| 43>                          ****END OF INPUT****

CARTESIAN COORDINATES (ANGSTROEM)
---------------------------------
  S     54.266300   22.146800   93.233800
  C     52.644100   22.321300   93.758000
  C     51.917400   21.139300   93.719100
  C     52.841600   20.028300   93.637400
  C     54.190900   20.337700   93.525000
  H     52.662400   18.933400   93.654400
  C     50.384600   20.909400   93.836000
  H     49.936700   21.130500   92.888600
  H     50.057900   21.745400   94.506200
  C     49.865700   19.591700   94.299100
  H     48.748700   19.617300   94.248300
  H     50.225900   18.717400   93.721000
  C     50.165300   19.204700   95.755300
  H     49.659900   19.828700   96.474700
  H     49.794400   18.236300   95.881700
  H     51.261500   19.285400   96.136800
  S     56.248800   19.514700   92.064300
  C     57.353200   18.305100   92.602000
  C     56.944800   17.828800   93.859500
  C     55.724500   18.370600   94.341800
  C     55.297700   19.430300   93.527100
  H     57.615500   17.081500   94.291000
  C     55.133400   17.955100   95.660800
  H     55.610000   17.049200   96.121600
  H     54.172400   17.580100   95.311400
  C     54.932900   19.108400   96.638400
  H     54.246700   18.700900   97.420300
  H     54.419600   19.918400   96.131900
  C     56.267700   19.486600   97.351900
  H     56.170600   20.197000   98.206800
  H     56.973500   19.862300   96.597300
  H     56.724300   18.625500   97.742800
  H     51.982800   23.195000   93.783500
  H     58.202900   18.110800   92.026000

 Total Charge           Charge          ....    0
 Multiplicity           Mult            ....    1
 Number of Electrons    NEL             ....  134
 Basis Dimension        Dim             ....  322

ORBITAL ENERGIES
----------------

  NO   OCC          E(Eh)            E(eV)
   0   2.0000     -88.967396     -2420.9259
   1   2.0000     -88.962062     -2420.7808
   2   2.0000     -10.331888      -281.1450
   3   2.0000     -10.326117      -280.9879
   4   2.0000     -10.314317      -280.6668
   5   2.0000     -10.312811      -280.6259
   6   2.0000     -10.308551      -280.5099
   7   2.0000     -10.306349      -280.4500
   8   2.0000     -10.298743      -280.2430
   9   2.0000     -10.297645      -280.2132
  10   2.0000     -10.296347      -280.1778
  11   2.0000     -10.294781      -280.1352
  12   2.0000     -10.293358      -280.0965
  13   2.0000     -10.285482      -279.8822
  14   2.0000     -10.277401      -279.6623
  15   2.0000     -10.272886      -279.5394
  16   2.0000      -8.081253      -219.9021
  17   2.0000      -8.077648      -219.8040
  18   2.0000      -6.039933      -164.3549
  19   2.0000      -6.036143      -164.2518
  20   2.0000      -6.035937      -164.2462
  21   2.0000      -6.031902      -164.1364
  22   2.0000      -6.031591      -164.1279
  23   2.0000      -6.028729      -164.0501
  24   2.0000      -1.005953       -27.3734
  25   2.0000      -0.982218       -26.7275
  26   2.0000      -0.913360       -24.8538
  27   2.0000      -0.910122       -24.7657
  28   2.0000      -0.873983       -23.7823
  29   2.0000      -0.846779       -23.0420
  30   2.0000      -0.841555       -22.8999
  31   2.0000      -0.812754       -22.1162
  32   2.0000      -0.785370       -21.3710
  33   2.0000      -0.775688       -21.1075
  34   2.0000      -0.712633       -19.3917
  35   2.0000      -0.695127       -18.9154
  36   2.0000      -0.688388       -18.7320
  37   2.0000      -0.666215       -18.1286
  38   2.0000      -0.635875       -17.3031
  39   2.0000      -0.616138       -16.7660
  40   2.0000      -0.592916       -16.1341
  41   2.0000      -0.566499       -15.4152
  42   2.0000      -0.557670       -15.1750
  43   2.0000      -0.552410       -15.0318
  44   2.0000      -0.545127       -14.8337
  45   2.0000      -0.534624       -14.5479
  46   2.0000      -0.520692       -14.1687
  47   2.0000      -0.506195       -13.7743
  48   2.0000      -0.505236       -13.7482
  49   2.0000      -0.495424       -13.4812
  50   2.0000      -0.482989       -13.1428
  51   2.0000      -0.477365       -12.9898
  52   2.0000      -0.475618       -12.9422
  53   2.0000      -0.467607       -12.7242
  54   2.0000      -0.450716       -12.2646
  55   2.0000      -0.443764       -12.0754
  56   2.0000      -0.441070       -12.0021
  57   2.0000      -0.435821       -11.8593
  58   2.0000      -0.433902       -11.8071
  59   2.0000      -0.429793       -11.6953
  60   2.0000      -0.420641       -11.4462
  61   2.0000      -0.413730       -11.2582
  62   2.0000      -0.408221       -11.1083
  63   2.0000      -0.346502        -9.4288
  64   2.0000      -0.329944        -8.9782
  65   2.0000      -0.325105        -8.8466
  66   2.0000      -0.287182        -7.8146
  67   0.0000       0.023983         0.6526
  68   0.0000       0.058466         1.5909
  69   0.0000       0.111088         3.0228
  70   0.0000       0.124902         3.3987
  71   0.0000       0.129864         3.5338

MULLIKEN ATOMIC CHARGES
-----------------------
   0 S :    0.118106
   1 C :   -0.098906
   2 C :   -0.121544
   3 C :    0.014049
   4 C :   -0.169563
   5 H :    0.023720
   6 C :    0.102401
   7 H :    0.038538
   8 H :    0.026631
   9 C :   -0.096809
  10 H :    0.040429
  11 H :    0.041541
  12 C :   -0.065037
  13 H :    0.019668
  14 H :    0.022882
  15 H :    0.049746
  16 S :    0.100716
  17 C :   -0.085375
  18 C :   -0.055704
  19 C :   -0.013293
  20 C :   -0.190161
  21 H :    0.024569
  22 C :    0.061703
  23 H :    0.027638
  24 H :    0.022325
  25 C :   -0.074093
  26 H :    0.029609
  27 H :    0.056614
  28 C :   -0.033440
  29 H :    0.044058
  30 H :    0.039946
  31 H :    0.007029
  32 H :    0.047809
  33 H :    0.044197
Sum of atomic charges:   -0.0000000

LOEWDIN ATOMIC CHARGES
----------------------
   0 S :    0.384916
   1 C :   -0.212635
   2 C :   -0.064646
   3 C :   -0.063879
   4 C :   -0.186050
   5 H :    0.034864
   6 C :   -0.034856
   7 H :    0.033351
   8 H :    0.037962
   9 C :   -0.048791
  10 H :    0.037493
  11 H :    0.029045
  12 C :   -0.071215
  13 H :    0.019327
  14 H :    0.017846
  15 H :    0.035907
  16 S :    0.425269
  17 C :   -0.185998
  18 C :   -0.075448
  19 C :   -0.052931
  20 C :   -0.205433
  21 H :    0.034077
  22 C :   -0.035374
  23 H :    0.035369
  24 H :    0.033305
  25 C :   -0.036873
  26 H :    0.026549
  27 H :    0.027542
  28 C :   -0.064796
  29 H :    0.030778
  30 H :    0.029595
  31 H :    0.014547
  32 H :    0.034827
  33 H :    0.016356

  Mayer bond orders larger than 0.100000
B(  0-S ,  1-C ) :   1.1443 B(  0-S ,  4-C ) :   1.0974 B(  1-C ,  2-C ) :   1.6401
B(  1-C , 32-H ) :   0.9558 B(  2-C ,  3-C ) :   1.2153 B(  2-C ,  6-C ) :   0.9961
B(  3-C ,  4-C ) :   1.5998 B(  3-C ,  5-H ) :   0.9841 B(  4-C , 20-C ) :   1.0785
B(  6-C ,  7-H ) :   0.9298 B(  6-C ,  8-H ) :   0.9379 B(  6-C ,  9-C ) :   1.0973
B(  9-C , 10-H ) :   0.9465 B(  9-C , 11-H ) :   0.9482 B(  9-C , 12-C ) :   1.0790
B( 12-C , 13-H ) :   0.9726 B( 12-C , 14-H ) :   0.9748 B( 12-C , 15-H ) :   0.9735
B( 16-S , 17-C ) :   1.1784 B( 16-S , 20-C ) :   1.1690 B( 17-C , 18-C ) :   1.5598
B( 17-C , 20-C ) :   0.1168 B( 17-C , 33-H ) :   0.9798 B( 18-C , 19-C ) :   1.2510
B( 18-C , 21-H ) :   0.9961 B( 19-C , 20-C ) :   1.5389 B( 19-C , 22-C ) :   1.0309
B( 22-C , 23-H ) :   0.9400 B( 22-C , 24-H ) :   0.9173 B( 22-C , 25-C ) :   1.0857
B( 25-C , 26-H ) :   0.9516 B( 25-C , 27-H ) :   0.9540 B( 25-C , 28-C ) :   1.0629
B( 28-C , 29-H ) :   0.9767 B( 28-C , 30-H ) :   0.9772 B( 28-C , 31-H ) :   0.9719

Dispersion correction           -0.015621939
FINAL SINGLE POINT ENERGY     -1339.861503960177

DIPOLE MOMENT
-------------
                                X             Y             Z
Electronic contribution:     14.90360       8.96721     -20.51322
Nuclear contribution   :    -15.38675      -9.40488      20.78930
                        -----------------------------------------
Total Dipole Moment    :     -0.48315      -0.43767       0.27608
                        -----------------------------------------
Magnitude (a.u.)       :      0.70796
Magnitude (Debye)      :      1.79949

Rotational constants in cm-1:     0.018345     0.009683     0.007963
Rotational constants in MHz :   549.972901   290.300645   238.723467

                             ****ORCA TERMINATED NORMALLY****
TOTAL RUN TIME: 0 days 0 hours 0 minutes 30 seconds 803 msec
