                         Program Version 4.2.1 -  RELEASE  -
|  1> ! wB97X-D3 SP def2-SVP
|  2> %pal
|  3> nprocs 16
|  4> end
|  5>
|  6> * xyz 0 1
|  7> S 	 44.4793 	 15.1849 	 86.6225
|  8> C 	 45.7286 	 16.4595 	 86.7813
|  9> C 	 46.7081 	 16.2981 	 85.8003
| 10> C 	 46.4579 	 15.2128 	 84.9201
| 11> C 	 45.3451 	 14.4918 	 85.2635
| 12> H 	 47.0668 	 14.8636 	 84.0545
| 13> C 	 47.8884 	 17.2162 	 85.5397
| 14> H 	 48.8019 	 16.6684 	 85.8348
| 15> H 	 47.8179 	 18.0763 	 86.2247
| 16> C 	 48.0794 	 17.7735 	 84.0551
| 17> H 	 48.838 	 18.5136 	 84.1409
| 18> H 	 48.4922 	 17.0244 	 83.3444
| 19> C 	 46.8292 	 18.4548 	 83.4553
| 20> H 	 46.3186 	 19.0251 	 84.2277
| 21> H 	 47.0343 	 19.159 	 82.6631
| 22> H 	 46.0988 	 17.7129 	 83.0744
| 23> S 	 44.9159 	 11.8109 	 85.4778
| 24> C 	 44.3001 	 10.9686 	 83.9949
| 25> C 	 44.1556 	 11.7943 	 82.9111
| 26> C 	 44.6682 	 13.1366 	 83.2452
| 27> C 	 44.9153 	 13.3142 	 84.5855
| 28> H 	 43.7126 	 11.4506 	 82.0244
| 29> C 	 44.5838 	 14.233 	 82.1894
| 30> H 	 44.9899 	 13.7476 	 81.2885
| 31> H 	 45.3068 	 15.0087 	 82.364
| 32> C 	 43.2311 	 14.9829 	 81.9438
| 33> H 	 42.4401 	 14.4008 	 81.4991
| 34> H 	 43.3684 	 15.6088 	 81.0643
| 35> C 	 42.8549 	 15.9378 	 83.0382
| 36> H 	 42.7856 	 15.434 	 84.0164
| 37> H 	 41.9792 	 16.4665 	 82.8321
| 38> H 	 43.6674 	 16.6764 	 83.1495
| 39> H 	 45.6752 	 17.2574 	 87.5053
| 40> H 	 43.8734 	 9.94151 	 84.0094
| 41> *
| 42>
| 43>                          ****END OF INPUT****

CARTESIAN COORDINATES (ANGSTROEM)
---------------------------------
  S     44.479300   15.184900   86.622500
  C     45.728600   16.459500   86.781300
  C     46.708100   16.298100   85.800300
  C     46.457900   15.212800   84.920100
  C     45.345100   14.491800   85.263500
  H     47.066800   14.863600   84.054500
  C     47.888400   17.216200   85.539700
  H     48.801900   16.668400   85.834800
  H     47.817900   18.076300   86.224700
  C     48.079400   17.773500   84.055100
  H     48.838000   18.513600   84.140900
  H     48.492200   17.024400   83.344400
  C     46.829200   18.454800   83.455300
  H     46.318600   19.025100   84.227700
  H     47.034300   19.159000   82.663100
  H     46.098800   17.712900   83.074400
  S     44.915900   11.810900   85.477800
  C     44.300100   10.968600   83.994900
  C     44.155600   11.794300   82.911100
  C     44.668200   13.136600   83.245200
  C     44.915300   13.314200   84.585500
  H     43.712600   11.450600   82.024400
  C     44.583800   14.233000   82.189400
  H     44.989900   13.747600   81.288500
  H     45.306800   15.008700   82.364000
  C     43.231100   14.982900   81.943800
  H     42.440100   14.400800   81.499100
  H     43.368400   15.608800   81.064300
  C     42.854900   15.937800   83.038200
  H     42.785600   15.434000   84.016400
  H     41.979200   16.466500   82.832100
  H     43.667400   16.676400   83.149500
  H     45.675200   17.257400   87.505300
  H     43.873400    9.941510   84.009400

 Total Charge           Charge          ....    0
 Multiplicity           Mult            ....    1
 Number of Electrons    NEL             ....  134
 Basis Dimension        Dim             ....  322

ORBITAL ENERGIES
----------------

  NO   OCC          E(Eh)            E(eV)
   0   2.0000     -88.968600     -2420.9587
   1   2.0000     -88.963304     -2420.8146
   2   2.0000     -10.324609      -280.9469
   3   2.0000     -10.321726      -280.8684
   4   2.0000     -10.321679      -280.8672
   5   2.0000     -10.319781      -280.8155
   6   2.0000     -10.304934      -280.4115
   7   2.0000     -10.304317      -280.3947
   8   2.0000     -10.300262      -280.2844
   9   2.0000     -10.295650      -280.1589
  10   2.0000     -10.294398      -280.1248
  11   2.0000     -10.293592      -280.1029
  12   2.0000     -10.291240      -280.0389
  13   2.0000     -10.282168      -279.7920
  14   2.0000     -10.278745      -279.6989
  15   2.0000     -10.266839      -279.3749
  16   2.0000      -8.082294      -219.9304
  17   2.0000      -8.077502      -219.8000
  18   2.0000      -6.040811      -164.3788
  19   2.0000      -6.036988      -164.2748
  20   2.0000      -6.036253      -164.2548
  21   2.0000      -6.033054      -164.1677
  22   2.0000      -6.032263      -164.1462
  23   2.0000      -6.027848      -164.0261
  24   2.0000      -1.004769       -27.3412
  25   2.0000      -0.976630       -26.5755
  26   2.0000      -0.904520       -24.6132
  27   2.0000      -0.902710       -24.5640
  28   2.0000      -0.870619       -23.6908
  29   2.0000      -0.848863       -23.0987
  30   2.0000      -0.843509       -22.9531
  31   2.0000      -0.814736       -22.1701
  32   2.0000      -0.782522       -21.2935
  33   2.0000      -0.769256       -20.9325
  34   2.0000      -0.710317       -19.3287
  35   2.0000      -0.701204       -19.0807
  36   2.0000      -0.692667       -18.8484
  37   2.0000      -0.661559       -18.0019
  38   2.0000      -0.638894       -17.3852
  39   2.0000      -0.618695       -16.8355
  40   2.0000      -0.590018       -16.0552
  41   2.0000      -0.563803       -15.3419
  42   2.0000      -0.555593       -15.1185
  43   2.0000      -0.549978       -14.9657
  44   2.0000      -0.540736       -14.7142
  45   2.0000      -0.530441       -14.4340
  46   2.0000      -0.517133       -14.0719
  47   2.0000      -0.507304       -13.8044
  48   2.0000      -0.499133       -13.5821
  49   2.0000      -0.494117       -13.4456
  50   2.0000      -0.488852       -13.3023
  51   2.0000      -0.475353       -12.9350
  52   2.0000      -0.470143       -12.7932
  53   2.0000      -0.460615       -12.5340
  54   2.0000      -0.456827       -12.4309
  55   2.0000      -0.447261       -12.1706
  56   2.0000      -0.441680       -12.0187
  57   2.0000      -0.439313       -11.9543
  58   2.0000      -0.433935       -11.8080
  59   2.0000      -0.427341       -11.6285
  60   2.0000      -0.425256       -11.5718
  61   2.0000      -0.419048       -11.4029
  62   2.0000      -0.400728       -10.9044
  63   2.0000      -0.344754        -9.3812
  64   2.0000      -0.330886        -9.0039
  65   2.0000      -0.327298        -8.9062
  66   2.0000      -0.295924        -8.0525
  67   0.0000       0.032422         0.8822
  68   0.0000       0.067877         1.8470
  69   0.0000       0.109855         2.9893
  70   0.0000       0.111821         3.0428
  71   0.0000       0.120566         3.2808

MULLIKEN ATOMIC CHARGES
-----------------------
   0 S :    0.111017
   1 C :   -0.129977
   2 C :   -0.068252
   3 C :    0.015302
   4 C :   -0.167012
   5 H :    0.039082
   6 C :    0.052514
   7 H :    0.047451
   8 H :    0.018109
   9 C :   -0.080118
  10 H :    0.024798
  11 H :    0.036280
  12 C :   -0.054686
  13 H :    0.025010
  14 H :    0.034441
  15 H :    0.044930
  16 S :    0.098325
  17 C :   -0.105200
  18 C :   -0.004258
  19 C :   -0.054254
  20 C :   -0.144421
  21 H :    0.008673
  22 C :    0.076852
  23 H :    0.020513
  24 H :   -0.004745
  25 C :   -0.043817
  26 H :    0.013094
  27 H :    0.010333
  28 C :   -0.009041
  29 H :    0.032213
  30 H :    0.020908
  31 H :    0.020120
  32 H :    0.045862
  33 H :    0.069952
Sum of atomic charges:    0.0000000

LOEWDIN ATOMIC CHARGES
----------------------
   0 S :    0.392732
   1 C :   -0.187005
   2 C :   -0.062880
   3 C :   -0.063368
   4 C :   -0.191900
   5 H :    0.042569
   6 C :   -0.031578
   7 H :    0.038556
   8 H :    0.028228
   9 C :   -0.039332
  10 H :    0.021564
  11 H :    0.025184
  12 C :   -0.068844
  13 H :    0.025466
  14 H :    0.025441
  15 H :    0.026977
  16 S :    0.373660
  17 C :   -0.168458
  18 C :   -0.055367
  19 C :   -0.054589
  20 C :   -0.201106
  21 H :    0.027056
  22 C :   -0.033477
  23 H :    0.033477
  24 H :    0.022795
  25 C :   -0.042269
  26 H :    0.019021
  27 H :    0.025930
  28 C :   -0.058762
  29 H :    0.022616
  30 H :    0.018626
  31 H :    0.027492
  32 H :    0.026125
  33 H :    0.035423

  Mayer bond orders larger than 0.100000
B(  0-S ,  1-C ) :   1.1190 B(  0-S ,  4-C ) :   1.1457 B(  1-C ,  2-C ) :   1.6142
B(  1-C , 32-H ) :   0.9718 B(  2-C ,  3-C ) :   1.2208 B(  2-C ,  6-C ) :   1.0272
B(  3-C ,  4-C ) :   1.5996 B(  3-C ,  5-H ) :   0.9851 B(  4-C , 20-C ) :   1.0364
B(  6-C ,  7-H ) :   0.9367 B(  6-C ,  8-H ) :   0.9428 B(  6-C ,  9-C ) :   1.0694
B(  9-C , 10-H ) :   0.9573 B(  9-C , 11-H ) :   0.9544 B(  9-C , 12-C ) :   1.0748
B( 12-C , 13-H ) :   0.9752 B( 12-C , 14-H ) :   0.9733 B( 12-C , 15-H ) :   0.9717
B( 16-S , 17-C ) :   1.1170 B( 16-S , 20-C ) :   1.1223 B( 17-C , 18-C ) :   1.6785
B( 17-C , 33-H ) :   0.9578 B( 18-C , 19-C ) :   1.1657 B( 18-C , 21-H ) :   0.9977
B( 19-C , 20-C ) :   1.6438 B( 19-C , 22-C ) :   1.0597 B( 22-C , 23-H ) :   0.9265
B( 22-C , 24-H ) :   0.9292 B( 22-C , 25-C ) :   1.0708 B( 25-C , 26-H ) :   0.9555
B( 25-C , 27-H ) :   0.9430 B( 25-C , 28-C ) :   1.0825 B( 28-C , 29-H ) :   0.9728
B( 28-C , 30-H ) :   0.9677 B( 28-C , 31-H ) :   0.9695

Dispersion correction           -0.016792348
FINAL SINGLE POINT ENERGY     -1339.883070609872

DIPOLE MOMENT
-------------
                                X             Y             Z
Electronic contribution:     -3.69759     -20.73322      17.32318
Nuclear contribution   :      3.87866      21.16689     -17.90181
                        -----------------------------------------
Total Dipole Moment    :      0.18107       0.43367      -0.57862
                        -----------------------------------------
Magnitude (a.u.)       :      0.74542
Magnitude (Debye)      :      1.89472

Rotational constants in cm-1:     0.019457     0.010044     0.008334
Rotational constants in MHz :   583.300004   301.113595   249.835863

                             ****ORCA TERMINATED NORMALLY****
TOTAL RUN TIME: 0 days 0 hours 0 minutes 33 seconds 233 msec
