                         Program Version 4.2.1 -  RELEASE  -
|  1> ! wB97X-D3 SP def2-SVP
|  2> %pal
|  3> nprocs 16
|  4> end
|  5>
|  6> * xyz 0 1
|  7> S 	 -7.1887 	 13.4359 	 86.0793
|  8> C 	 -7.95604 	 12.0029 	 85.4351
|  9> C 	 -7.22753 	 10.8482 	 85.6741
| 10> C 	 -5.97334 	 11.1103 	 86.2953
| 11> C 	 -5.84889 	 12.4421 	 86.624
| 12> H 	 -5.28284 	 10.3031 	 86.3865
| 13> C 	 -7.63591 	 9.46296 	 85.2225
| 14> H 	 -6.78472 	 9.16532 	 84.4973
| 15> H 	 -8.56926 	 9.4947 	 84.6403
| 16> C 	 -7.81175 	 8.41927 	 86.4145
| 17> H 	 -7.91487 	 7.45935 	 86.0026
| 18> H 	 -6.86326 	 8.44856 	 87.0968
| 19> C 	 -9.02544 	 8.76867 	 87.3104
| 20> H 	 -9.3235 	 8.07986 	 88.0225
| 21> H 	 -8.6706 	 9.71113 	 87.7916
| 22> H 	 -9.93739 	 8.97461 	 86.8049
| 23> S 	 -5.31512 	 14.1392 	 88.5561
| 24> C 	 -3.75307 	 14.6141 	 88.977
| 25> C 	 -2.76806 	 13.943 	 88.2407
| 26> C 	 -3.40228 	 12.995 	 87.2756
| 27> C 	 -4.74532 	 13.0966 	 87.2928
| 28> H 	 -1.69494 	 14.1569 	 88.3314
| 29> C 	 -2.5402 	 12.0667 	 86.4471
| 30> H 	 -1.76928 	 12.7313 	 86.0299
| 31> H 	 -3.14846 	 11.598 	 85.6522
| 32> C 	 -1.84884 	 10.9795 	 87.2682
| 33> H 	 -1.3122 	 11.4411 	 88.0894
| 34> H 	 -1.06277 	 10.4145 	 86.7
| 35> C 	 -2.84834 	 9.99689 	 87.9809
| 36> H 	 -3.36654 	 9.52094 	 87.0972
| 37> H 	 -3.55752 	 10.4786 	 88.664
| 38> H 	 -2.30549 	 9.27523 	 88.5367
| 39> H 	 -8.95727 	 11.8416 	 85.0216
| 40> H 	 -3.53995 	 15.3458 	 89.7454
| 41> *
| 42>
| 43>                          ****END OF INPUT****

CARTESIAN COORDINATES (ANGSTROEM)
---------------------------------
  S     -7.188700   13.435900   86.079300
  C     -7.956040   12.002900   85.435100
  C     -7.227530   10.848200   85.674100
  C     -5.973340   11.110300   86.295300
  C     -5.848890   12.442100   86.624000
  H     -5.282840   10.303100   86.386500
  C     -7.635910    9.462960   85.222500
  H     -6.784720    9.165320   84.497300
  H     -8.569260    9.494700   84.640300
  C     -7.811750    8.419270   86.414500
  H     -7.914870    7.459350   86.002600
  H     -6.863260    8.448560   87.096800
  C     -9.025440    8.768670   87.310400
  H     -9.323500    8.079860   88.022500
  H     -8.670600    9.711130   87.791600
  H     -9.937390    8.974610   86.804900
  S     -5.315120   14.139200   88.556100
  C     -3.753070   14.614100   88.977000
  C     -2.768060   13.943000   88.240700
  C     -3.402280   12.995000   87.275600
  C     -4.745320   13.096600   87.292800
  H     -1.694940   14.156900   88.331400
  C     -2.540200   12.066700   86.447100
  H     -1.769280   12.731300   86.029900
  H     -3.148460   11.598000   85.652200
  C     -1.848840   10.979500   87.268200
  H     -1.312200   11.441100   88.089400
  H     -1.062770   10.414500   86.700000
  C     -2.848340    9.996890   87.980900
  H     -3.366540    9.520940   87.097200
  H     -3.557520   10.478600   88.664000
  H     -2.305490    9.275230   88.536700
  H     -8.957270   11.841600   85.021600
  H     -3.539950   15.345800   89.745400

 Total Charge           Charge          ....    0
 Multiplicity           Mult            ....    1
 Number of Electrons    NEL             ....  134
 Basis Dimension        Dim             ....  322

ORBITAL ENERGIES
----------------

  NO   OCC          E(Eh)            E(eV)
   0   2.0000     -88.970582     -2421.0126
   1   2.0000     -88.960680     -2420.7432
   2   2.0000     -10.330101      -281.0963
   3   2.0000     -10.318229      -280.7733
   4   2.0000     -10.315304      -280.6937
   5   2.0000     -10.310258      -280.5564
   6   2.0000     -10.304510      -280.4000
   7   2.0000     -10.303888      -280.3830
   8   2.0000     -10.301110      -280.3075
   9   2.0000     -10.296891      -280.1926
  10   2.0000     -10.295901      -280.1657
  11   2.0000     -10.294862      -280.1374
  12   2.0000     -10.291100      -280.0351
  13   2.0000     -10.290968      -280.0315
  14   2.0000     -10.281016      -279.7607
  15   2.0000     -10.270068      -279.4628
  16   2.0000      -8.084925      -220.0020
  17   2.0000      -8.077420      -219.7978
  18   2.0000      -6.043540      -164.4531
  19   2.0000      -6.039559      -164.3448
  20   2.0000      -6.035854      -164.2439
  21   2.0000      -6.035505      -164.2344
  22   2.0000      -6.031601      -164.1282
  23   2.0000      -6.028162      -164.0346
  24   2.0000      -1.013326       -27.5740
  25   2.0000      -0.985641       -26.8207
  26   2.0000      -0.910822       -24.7847
  27   2.0000      -0.905402       -24.6372
  28   2.0000      -0.867307       -23.6006
  29   2.0000      -0.851205       -23.1625
  30   2.0000      -0.842946       -22.9377
  31   2.0000      -0.812190       -22.1008
  32   2.0000      -0.782705       -21.2985
  33   2.0000      -0.772588       -21.0232
  34   2.0000      -0.710628       -19.3372
  35   2.0000      -0.695498       -18.9255
  36   2.0000      -0.691732       -18.8230
  37   2.0000      -0.663177       -18.0460
  38   2.0000      -0.630002       -17.1432
  39   2.0000      -0.627915       -17.0864
  40   2.0000      -0.595436       -16.2026
  41   2.0000      -0.564743       -15.3674
  42   2.0000      -0.555393       -15.1130
  43   2.0000      -0.549646       -14.9566
  44   2.0000      -0.544203       -14.8085
  45   2.0000      -0.536719       -14.6049
  46   2.0000      -0.515543       -14.0286
  47   2.0000      -0.504674       -13.7329
  48   2.0000      -0.501399       -13.6438
  49   2.0000      -0.497751       -13.5445
  50   2.0000      -0.491779       -13.3820
  51   2.0000      -0.472862       -12.8672
  52   2.0000      -0.472050       -12.8451
  53   2.0000      -0.460122       -12.5205
  54   2.0000      -0.456198       -12.4138
  55   2.0000      -0.452606       -12.3160
  56   2.0000      -0.448021       -12.1913
  57   2.0000      -0.442843       -12.0504
  58   2.0000      -0.437022       -11.8920
  59   2.0000      -0.424688       -11.5563
  60   2.0000      -0.418962       -11.4005
  61   2.0000      -0.415694       -11.3116
  62   2.0000      -0.410723       -11.1763
  63   2.0000      -0.350190        -9.5291
  64   2.0000      -0.332588        -9.0502
  65   2.0000      -0.324840        -8.8393
  66   2.0000      -0.291657        -7.9364
  67   0.0000       0.035674         0.9707
  68   0.0000       0.072974         1.9857
  69   0.0000       0.109916         2.9910
  70   0.0000       0.113614         3.0916
  71   0.0000       0.127297         3.4639

MULLIKEN ATOMIC CHARGES
-----------------------
   0 S :    0.126841
   1 C :   -0.104446
   2 C :   -0.127999
   3 C :    0.054698
   4 C :   -0.117040
   5 H :   -0.033136
   6 C :    0.021434
   7 H :    0.054485
   8 H :    0.023358
   9 C :   -0.080782
  10 H :    0.025431
  11 H :    0.046982
  12 C :   -0.036825
  13 H :    0.024481
  14 H :    0.047286
  15 H :    0.015965
  16 S :    0.102399
  17 C :   -0.080226
  18 C :   -0.055254
  19 C :   -0.075661
  20 C :   -0.141624
  21 H :    0.031658
  22 C :    0.086796
  23 H :    0.033193
  24 H :    0.029858
  25 C :   -0.096878
  26 H :    0.020903
  27 H :    0.041428
  28 C :   -0.067888
  29 H :    0.041432
  30 H :    0.058712
  31 H :    0.029795
  32 H :    0.041667
  33 H :    0.058957
Sum of atomic charges:   -0.0000000

LOEWDIN ATOMIC CHARGES
----------------------
   0 S :    0.410233
   1 C :   -0.213004
   2 C :   -0.067787
   3 C :   -0.060774
   4 C :   -0.185388
   5 H :    0.023135
   6 C :   -0.035184
   7 H :    0.043616
   8 H :    0.027898
   9 C :   -0.035834
  10 H :    0.011979
  11 H :    0.034041
  12 C :   -0.065060
  13 H :    0.016726
  14 H :    0.037136
  15 H :    0.018645
  16 S :    0.429582
  17 C :   -0.201913
  18 C :   -0.074212
  19 C :   -0.055572
  20 C :   -0.206260
  21 H :    0.033521
  22 C :   -0.032207
  23 H :    0.037187
  24 H :    0.030531
  25 C :   -0.042642
  26 H :    0.018205
  27 H :    0.029079
  28 C :   -0.063660
  29 H :    0.025669
  30 H :    0.031003
  31 H :    0.020489
  32 H :    0.031838
  33 H :    0.028983

  Mayer bond orders larger than 0.100000
B(  0-S ,  1-C ) :   1.1165 B(  0-S ,  4-C ) :   1.1533 B(  1-C ,  2-C ) :   1.6364
B(  1-C , 32-H ) :   0.9543 B(  2-C ,  3-C ) :   1.2403 B(  2-C ,  6-C ) :   1.0224
B(  3-C ,  4-C ) :   1.5596 B(  3-C ,  5-H ) :   0.9981 B(  4-C , 20-C ) :   1.0134
B(  6-C ,  7-H ) :   0.9425 B(  6-C ,  8-H ) :   0.9452 B(  6-C ,  9-C ) :   1.0524
B(  9-C , 10-H ) :   0.9613 B(  9-C , 11-H ) :   0.9616 B(  9-C , 12-C ) :   1.0575
B( 12-C , 13-H ) :   0.9763 B( 12-C , 14-H ) :   0.9768 B( 12-C , 15-H ) :   0.9758
B( 16-S , 17-C ) :   1.1651 B( 16-S , 20-C ) :   1.1346 B( 17-C , 18-C ) :   1.6145
B( 17-C , 33-H ) :   0.9692 B( 18-C , 19-C ) :   1.1881 B( 18-C , 21-H ) :   0.9872
B( 19-C , 20-C ) :   1.6644 B( 19-C , 22-C ) :   1.0431 B( 22-C , 23-H ) :   0.9262
B( 22-C , 24-H ) :   0.9408 B( 22-C , 25-C ) :   1.0725 B( 25-C , 26-H ) :   0.9544
B( 25-C , 27-H ) :   0.9589 B( 25-C , 28-C ) :   1.0671 B( 28-C , 29-H ) :   0.9701
B( 28-C , 30-H ) :   0.9749 B( 28-C , 31-H ) :   0.9712

Dispersion correction           -0.015587555
FINAL SINGLE POINT ENERGY     -1339.879593651333

DIPOLE MOMENT
-------------
                                X             Y             Z
Electronic contribution:     -4.34707      25.42345       0.91232
Nuclear contribution   :      4.66483     -25.93974      -0.91731
                        -----------------------------------------
Total Dipole Moment    :      0.31776      -0.51629      -0.00498
                        -----------------------------------------
Magnitude (a.u.)       :      0.60626
Magnitude (Debye)      :      1.54099

Rotational constants in cm-1:     0.019612     0.009545     0.007515
Rotational constants in MHz :   587.941146   286.139572   225.281233

                             ****ORCA TERMINATED NORMALLY****
TOTAL RUN TIME: 0 days 0 hours 0 minutes 36 seconds 575 msec
