                         Program Version 4.2.1 -  RELEASE  -
|  1> ! wB97X-D3 SP def2-SVP
|  2> %pal
|  3> nprocs 16
|  4> end
|  5>
|  6> * xyz 0 1
|  7> S 	 -71.809 	 33.6442 	 115.632
|  8> C 	 -73.315 	 34.4032 	 116.055
|  9> C 	 -73.2727 	 35.7211 	 115.729
| 10> C 	 -72.014 	 36.1603 	 115.221
| 11> C 	 -71.1107 	 35.1172 	 115.078
| 12> H 	 -71.7041 	 37.1996 	 115.057
| 13> C 	 -74.3481 	 36.6905 	 116.108
| 14> H 	 -75.1937 	 36.5795 	 115.54
| 15> H 	 -73.8134 	 37.6328 	 116.025
| 16> C 	 -74.9088 	 36.548 	 117.555
| 17> H 	 -75.2221 	 35.5326 	 117.627
| 18> H 	 -74.0452 	 36.6722 	 118.252
| 19> C 	 -76.0799 	 37.4033 	 117.732
| 20> H 	 -76.9838 	 36.9399 	 117.328
| 21> H 	 -76.3597 	 37.5757 	 118.717
| 22> H 	 -75.8548 	 38.3653 	 117.284
| 23> S 	 -68.6403 	 34.3337 	 115.527
| 24> C 	 -67.2609 	 35.0006 	 114.662
| 25> C 	 -67.6809 	 36.1079 	 113.949
| 26> C 	 -69.1213 	 36.2641 	 113.821
| 27> C 	 -69.7512 	 35.357 	 114.698
| 28> H 	 -66.9538 	 36.661 	 113.435
| 29> C 	 -69.7297 	 37.328 	 112.967
| 30> H 	 -70.7791 	 37.4192 	 113.214
| 31> H 	 -69.5976 	 37.0518 	 111.915
| 32> C 	 -69.2184 	 38.7337 	 113.174
| 33> H 	 -68.2636 	 38.7928 	 112.644
| 34> H 	 -69.1163 	 38.9932 	 114.256
| 35> C 	 -70.0254 	 39.8688 	 112.509
| 36> H 	 -69.4867 	 40.7615 	 112.674
| 37> H 	 -70.967 	 39.9533 	 112.937
| 38> H 	 -70.1688 	 39.6537 	 111.492
| 39> H 	 -74.0085 	 33.8148 	 116.621
| 40> H 	 -66.2952 	 34.6266 	 114.674
| 41> *
| 42>
| 43>                          ****END OF INPUT****

CARTESIAN COORDINATES (ANGSTROEM)
---------------------------------
  S    -71.809000   33.644200  115.632000
  C    -73.315000   34.403200  116.055000
  C    -73.272700   35.721100  115.729000
  C    -72.014000   36.160300  115.221000
  C    -71.110700   35.117200  115.078000
  H    -71.704100   37.199600  115.057000
  C    -74.348100   36.690500  116.108000
  H    -75.193700   36.579500  115.540000
  H    -73.813400   37.632800  116.025000
  C    -74.908800   36.548000  117.555000
  H    -75.222100   35.532600  117.627000
  H    -74.045200   36.672200  118.252000
  C    -76.079900   37.403300  117.732000
  H    -76.983800   36.939900  117.328000
  H    -76.359700   37.575700  118.717000
  H    -75.854800   38.365300  117.284000
  S    -68.640300   34.333700  115.527000
  C    -67.260900   35.000600  114.662000
  C    -67.680900   36.107900  113.949000
  C    -69.121300   36.264100  113.821000
  C    -69.751200   35.357000  114.698000
  H    -66.953800   36.661000  113.435000
  C    -69.729700   37.328000  112.967000
  H    -70.779100   37.419200  113.214000
  H    -69.597600   37.051800  111.915000
  C    -69.218400   38.733700  113.174000
  H    -68.263600   38.792800  112.644000
  H    -69.116300   38.993200  114.256000
  C    -70.025400   39.868800  112.509000
  H    -69.486700   40.761500  112.674000
  H    -70.967000   39.953300  112.937000
  H    -70.168800   39.653700  111.492000
  H    -74.008500   33.814800  116.621000
  H    -66.295200   34.626600  114.674000

 Total Charge           Charge          ....    0
 Multiplicity           Mult            ....    1
 Number of Electrons    NEL             ....  134
 Basis Dimension        Dim             ....  322

ORBITAL ENERGIES
----------------

  NO   OCC          E(Eh)            E(eV)
   0   2.0000     -88.964319     -2420.8422
   1   2.0000     -88.961192     -2420.7571
   2   2.0000     -10.325824      -280.9800
   3   2.0000     -10.324587      -280.9463
   4   2.0000     -10.311466      -280.5892
   5   2.0000     -10.309188      -280.5273
   6   2.0000     -10.306689      -280.4593
   7   2.0000     -10.295941      -280.1668
   8   2.0000     -10.292611      -280.0762
   9   2.0000     -10.291114      -280.0354
  10   2.0000     -10.289248      -279.9847
  11   2.0000     -10.287256      -279.9305
  12   2.0000     -10.280657      -279.7509
  13   2.0000     -10.280005      -279.7331
  14   2.0000     -10.269057      -279.4352
  15   2.0000     -10.267296      -279.3873
  16   2.0000      -8.079859      -219.8641
  17   2.0000      -8.076588      -219.7751
  18   2.0000      -6.038325      -164.3112
  19   2.0000      -6.035158      -164.2250
  20   2.0000      -6.034133      -164.1971
  21   2.0000      -6.030896      -164.1090
  22   2.0000      -6.030736      -164.1047
  23   2.0000      -6.027351      -164.0125
  24   2.0000      -1.012862       -27.5614
  25   2.0000      -0.985808       -26.8252
  26   2.0000      -0.922295       -25.0969
  27   2.0000      -0.915806       -24.9204
  28   2.0000      -0.876944       -23.8628
  29   2.0000      -0.858803       -23.3692
  30   2.0000      -0.850512       -23.1436
  31   2.0000      -0.817165       -22.2362
  32   2.0000      -0.784789       -21.3552
  33   2.0000      -0.774953       -21.0875
  34   2.0000      -0.710935       -19.3455
  35   2.0000      -0.702347       -19.1118
  36   2.0000      -0.693855       -18.8808
  37   2.0000      -0.664816       -18.0906
  38   2.0000      -0.644252       -17.5310
  39   2.0000      -0.621077       -16.9004
  40   2.0000      -0.600564       -16.3422
  41   2.0000      -0.582416       -15.8484
  42   2.0000      -0.578214       -15.7340
  43   2.0000      -0.567920       -15.4539
  44   2.0000      -0.534725       -14.5506
  45   2.0000      -0.528500       -14.3812
  46   2.0000      -0.525607       -14.3025
  47   2.0000      -0.515593       -14.0300
  48   2.0000      -0.508677       -13.8418
  49   2.0000      -0.504460       -13.7271
  50   2.0000      -0.499831       -13.6011
  51   2.0000      -0.483426       -13.1547
  52   2.0000      -0.476838       -12.9754
  53   2.0000      -0.468666       -12.7531
  54   2.0000      -0.465880       -12.6772
  55   2.0000      -0.449865       -12.2415
  56   2.0000      -0.449103       -12.2207
  57   2.0000      -0.437533       -11.9059
  58   2.0000      -0.428767       -11.6674
  59   2.0000      -0.423352       -11.5200
  60   2.0000      -0.420931       -11.4541
  61   2.0000      -0.411993       -11.2109
  62   2.0000      -0.411077       -11.1860
  63   2.0000      -0.353722        -9.6253
  64   2.0000      -0.330261        -8.9869
  65   2.0000      -0.326897        -8.8953
  66   2.0000      -0.285111        -7.7583
  67   0.0000       0.022760         0.6193
  68   0.0000       0.087521         2.3816
  69   0.0000       0.105098         2.8599
  70   0.0000       0.123556         3.3621
  71   0.0000       0.131366         3.5746

MULLIKEN ATOMIC CHARGES
-----------------------
   0 S :    0.111423
   1 C :   -0.156554
   2 C :   -0.043516
   3 C :   -0.026743
   4 C :   -0.109097
   5 H :    0.028200
   6 C :    0.106207
   7 H :    0.012314
   8 H :    0.015402
   9 C :   -0.108256
  10 H :    0.013197
  11 H :    0.039009
  12 C :    0.011120
  13 H :    0.028509
  14 H :    0.011985
  15 H :    0.024264
  16 S :    0.092395
  17 C :   -0.068634
  18 C :   -0.017986
  19 C :   -0.040432
  20 C :   -0.153975
  21 H :   -0.000155
  22 C :    0.099300
  23 H :    0.002958
  24 H :    0.038369
  25 C :   -0.144861
  26 H :    0.028226
  27 H :    0.042351
  28 C :    0.021746
  29 H :    0.030104
  30 H :    0.009853
  31 H :    0.016787
  32 H :    0.052574
  33 H :    0.033915
Sum of atomic charges:   -0.0000000

LOEWDIN ATOMIC CHARGES
----------------------
   0 S :    0.419725
   1 C :   -0.196503
   2 C :   -0.063925
   3 C :   -0.067933
   4 C :   -0.206805
   5 H :    0.033387
   6 C :   -0.021349
   7 H :    0.020130
   8 H :    0.028402
   9 C :   -0.039129
  10 H :    0.015201
  11 H :    0.027954
  12 C :   -0.059917
  13 H :    0.031158
  14 H :    0.019098
  15 H :    0.026530
  16 S :    0.408876
  17 C :   -0.173580
  18 C :   -0.057513
  19 C :   -0.055754
  20 C :   -0.194283
  21 H :    0.019962
  22 C :   -0.037151
  23 H :    0.024751
  24 H :    0.037768
  25 C :   -0.041071
  26 H :    0.021745
  27 H :    0.028544
  28 C :   -0.047527
  29 H :    0.026140
  30 H :    0.013466
  31 H :    0.019353
  32 H :    0.023885
  33 H :    0.016366

  Mayer bond orders larger than 0.100000
B(  0-S ,  1-C ) :   1.1352 B(  0-S ,  4-C ) :   1.1672 B(  1-C ,  2-C ) :   1.5697
B(  1-C , 32-H ) :   0.9803 B(  2-C ,  3-C ) :   1.2711 B(  2-C ,  6-C ) :   1.0209
B(  3-C ,  4-C ) :   1.5339 B(  3-C ,  5-H ) :   0.9832 B(  4-C , 20-C ) :   1.0796
B(  6-C ,  7-H ) :   0.9284 B(  6-C ,  8-H ) :   0.9404 B(  6-C ,  9-C ) :   1.0772
B(  9-C , 10-H ) :   0.9500 B(  9-C , 11-H ) :   0.9575 B(  9-C , 12-C ) :   1.0956
B( 12-C , 13-H ) :   0.9668 B( 12-C , 14-H ) :   0.9663 B( 12-C , 15-H ) :   0.9711
B( 16-S , 17-C ) :   1.1382 B( 16-S , 20-C ) :   1.1519 B( 17-C , 18-C ) :   1.6148
B( 17-C , 33-H ) :   0.9809 B( 18-C , 19-C ) :   1.2228 B( 18-C , 21-H ) :   0.9928
B( 19-C , 20-C ) :   1.5667 B( 19-C , 22-C ) :   1.0585 B( 22-C , 23-H ) :   0.9340
B( 22-C , 24-H ) :   0.9151 B( 22-C , 25-C ) :   1.0701 B( 25-C , 26-H ) :   0.9476
B( 25-C , 27-H ) :   0.9600 B( 25-C , 28-C ) :   1.0928 B( 28-C , 29-H ) :   0.9733
B( 28-C , 30-H ) :   0.9720 B( 28-C , 31-H ) :   0.9712

Dispersion correction           -0.013377393
FINAL SINGLE POINT ENERGY     -1339.863152507953

DIPOLE MOMENT
-------------
                                X             Y             Z
Electronic contribution:     14.71924     -25.58440       2.15696
Nuclear contribution   :    -14.92375      26.19876      -2.19987
                        -----------------------------------------
Total Dipole Moment    :     -0.20451       0.61436      -0.04290
                        -----------------------------------------
Magnitude (a.u.)       :      0.64892
Magnitude (Debye)      :      1.64943

Rotational constants in cm-1:     0.017817     0.008444     0.006104
Rotational constants in MHz :   534.129822   253.151480   182.978329

                             ****ORCA TERMINATED NORMALLY****
TOTAL RUN TIME: 0 days 0 hours 0 minutes 32 seconds 732 msec
