                         Program Version 4.2.1 -  RELEASE  -
|  1> ! wB97X-D3 SP def2-SVP
|  2> %pal
|  3> nprocs 16
|  4> end
|  5>
|  6> * xyz 0 1
|  7> S 	 70.5532 	 23.1917 	 77.6329
|  8> C 	 72.2348 	 22.9969 	 78.0537
|  9> C 	 73.0463 	 23.5562 	 77.0389
| 10> C 	 72.3314 	 24.1997 	 75.9509
| 11> C 	 70.9447 	 24.1896 	 76.2066
| 12> H 	 72.7863 	 24.7595 	 75.106
| 13> C 	 74.4554 	 23.5971 	 77.255
| 14> H 	 75.0313 	 23.5905 	 76.3671
| 15> H 	 74.8633 	 22.7041 	 77.7502
| 16> C 	 74.9863 	 24.8158 	 78.0152
| 17> H 	 74.7086 	 24.7158 	 79.0856
| 18> H 	 76.0834 	 24.7087 	 78.0723
| 19> C 	 74.4397 	 26.1256 	 77.4539
| 20> H 	 74.755 	 27.0487 	 77.9371
| 21> H 	 74.6949 	 26.4022 	 76.3868
| 22> H 	 73.3704 	 26.0493 	 77.4987
| 23> S 	 68.6154 	 23.7729 	 74.8083
| 24> C 	 68.0264 	 25.0336 	 73.7704
| 25> C 	 68.828 	 26.1259 	 73.7874
| 26> C 	 69.851 	 26.0674 	 74.7824
| 27> C 	 69.9104 	 24.8096 	 75.3667
| 28> H 	 68.5724 	 26.9384 	 73.1141
| 29> C 	 70.8627 	 27.1529 	 74.9789
| 30> H 	 70.5977 	 27.8825 	 74.2472
| 31> H 	 71.7778 	 26.8557 	 74.7446
| 32> C 	 70.9928 	 27.8122 	 76.346
| 33> H 	 71.1703 	 27.0705 	 77.074
| 34> H 	 69.9616 	 28.1171 	 76.5926
| 35> C 	 71.8091 	 29.1959 	 76.3972
| 36> H 	 71.6447 	 29.5763 	 75.4193
| 37> H 	 72.8275 	 28.9053 	 76.6384
| 38> H 	 71.3676 	 29.7874 	 77.1924
| 39> H 	 72.4914 	 22.5023 	 78.9405
| 40> H 	 67.0479 	 24.9212 	 73.2066
| 41> *
| 42>
| 43>                          ****END OF INPUT****

CARTESIAN COORDINATES (ANGSTROEM)
---------------------------------
  S     70.553200   23.191700   77.632900
  C     72.234800   22.996900   78.053700
  C     73.046300   23.556200   77.038900
  C     72.331400   24.199700   75.950900
  C     70.944700   24.189600   76.206600
  H     72.786300   24.759500   75.106000
  C     74.455400   23.597100   77.255000
  H     75.031300   23.590500   76.367100
  H     74.863300   22.704100   77.750200
  C     74.986300   24.815800   78.015200
  H     74.708600   24.715800   79.085600
  H     76.083400   24.708700   78.072300
  C     74.439700   26.125600   77.453900
  H     74.755000   27.048700   77.937100
  H     74.694900   26.402200   76.386800
  H     73.370400   26.049300   77.498700
  S     68.615400   23.772900   74.808300
  C     68.026400   25.033600   73.770400
  C     68.828000   26.125900   73.787400
  C     69.851000   26.067400   74.782400
  C     69.910400   24.809600   75.366700
  H     68.572400   26.938400   73.114100
  C     70.862700   27.152900   74.978900
  H     70.597700   27.882500   74.247200
  H     71.777800   26.855700   74.744600
  C     70.992800   27.812200   76.346000
  H     71.170300   27.070500   77.074000
  H     69.961600   28.117100   76.592600
  C     71.809100   29.195900   76.397200
  H     71.644700   29.576300   75.419300
  H     72.827500   28.905300   76.638400
  H     71.367600   29.787400   77.192400
  H     72.491400   22.502300   78.940500
  H     67.047900   24.921200   73.206600

 Total Charge           Charge          ....    0
 Multiplicity           Mult            ....    1
 Number of Electrons    NEL             ....  134
 Basis Dimension        Dim             ....  322

ORBITAL ENERGIES
----------------

  NO   OCC          E(Eh)            E(eV)
   0   2.0000     -88.967160     -2420.9195
   1   2.0000     -88.963292     -2420.8142
   2   2.0000     -10.337433      -281.2959
   3   2.0000     -10.325481      -280.9706
   4   2.0000     -10.317917      -280.7648
   5   2.0000     -10.315455      -280.6978
   6   2.0000     -10.306653      -280.4583
   7   2.0000     -10.303659      -280.3768
   8   2.0000     -10.303241      -280.3654
   9   2.0000     -10.292960      -280.0857
  10   2.0000     -10.290037      -280.0061
  11   2.0000     -10.281507      -279.7740
  12   2.0000     -10.279771      -279.7268
  13   2.0000     -10.278828      -279.7011
  14   2.0000     -10.278566      -279.6940
  15   2.0000     -10.275689      -279.6157
  16   2.0000      -8.081440      -219.9072
  17   2.0000      -8.078676      -219.8320
  18   2.0000      -6.039872      -164.3533
  19   2.0000      -6.037078      -164.2773
  20   2.0000      -6.035917      -164.2457
  21   2.0000      -6.033104      -164.1691
  22   2.0000      -6.032410      -164.1502
  23   2.0000      -6.029495      -164.0709
  24   2.0000      -1.006152       -27.3788
  25   2.0000      -0.983828       -26.7713
  26   2.0000      -0.919278       -25.0148
  27   2.0000      -0.911321       -24.7983
  28   2.0000      -0.867726       -23.6120
  29   2.0000      -0.850367       -23.1397
  30   2.0000      -0.842574       -22.9276
  31   2.0000      -0.818433       -22.2707
  32   2.0000      -0.787018       -21.4159
  33   2.0000      -0.772415       -21.0185
  34   2.0000      -0.709734       -19.3128
  35   2.0000      -0.704076       -19.1589
  36   2.0000      -0.692114       -18.8334
  37   2.0000      -0.661828       -18.0093
  38   2.0000      -0.644936       -17.5496
  39   2.0000      -0.617561       -16.8047
  40   2.0000      -0.600526       -16.3411
  41   2.0000      -0.576032       -15.6746
  42   2.0000      -0.569806       -15.5052
  43   2.0000      -0.552571       -15.0362
  44   2.0000      -0.538935       -14.6652
  45   2.0000      -0.524418       -14.2702
  46   2.0000      -0.515156       -14.0181
  47   2.0000      -0.511686       -13.9237
  48   2.0000      -0.510130       -13.8813
  49   2.0000      -0.498981       -13.5780
  50   2.0000      -0.488658       -13.2971
  51   2.0000      -0.487340       -13.2612
  52   2.0000      -0.481203       -13.0942
  53   2.0000      -0.465387       -12.6638
  54   2.0000      -0.456902       -12.4329
  55   2.0000      -0.445567       -12.1245
  56   2.0000      -0.444873       -12.1056
  57   2.0000      -0.438794       -11.9402
  58   2.0000      -0.432638       -11.7727
  59   2.0000      -0.429534       -11.6882
  60   2.0000      -0.419822       -11.4239
  61   2.0000      -0.407839       -11.0979
  62   2.0000      -0.404932       -11.0188
  63   2.0000      -0.347517        -9.4564
  64   2.0000      -0.332509        -9.0480
  65   2.0000      -0.326476        -8.8839
  66   2.0000      -0.290837        -7.9141
  67   0.0000       0.025636         0.6976
  68   0.0000       0.068485         1.8636
  69   0.0000       0.107021         2.9122
  70   0.0000       0.119076         3.2402
  71   0.0000       0.126008         3.4288

MULLIKEN ATOMIC CHARGES
-----------------------
   0 S :    0.107542
   1 C :   -0.105168
   2 C :   -0.088390
   3 C :    0.031003
   4 C :   -0.163694
   5 H :    0.041477
   6 C :    0.068544
   7 H :    0.005083
   8 H :    0.021221
   9 C :   -0.055422
  10 H :    0.024163
  11 H :    0.028413
  12 C :   -0.080714
  13 H :    0.033422
  14 H :    0.024840
  15 H :    0.053408
  16 S :    0.105786
  17 C :   -0.118477
  18 C :   -0.042204
  19 C :   -0.046278
  20 C :   -0.146648
  21 H :    0.022389
  22 C :    0.169571
  23 H :   -0.008476
  24 H :   -0.023157
  25 C :   -0.124477
  26 H :    0.030818
  27 H :    0.013872
  28 C :   -0.012645
  29 H :    0.027980
  30 H :    0.040840
  31 H :    0.045872
  32 H :    0.038898
  33 H :    0.080609
Sum of atomic charges:    0.0000000

LOEWDIN ATOMIC CHARGES
----------------------
   0 S :    0.396673
   1 C :   -0.186155
   2 C :   -0.062542
   3 C :   -0.058046
   4 C :   -0.184860
   5 H :    0.041993
   6 C :   -0.044866
   7 H :    0.024788
   8 H :    0.035157
   9 C :   -0.035328
  10 H :    0.024072
  11 H :    0.023720
  12 C :   -0.075163
  13 H :    0.025492
  14 H :    0.026835
  15 H :    0.025862
  16 S :    0.408260
  17 C :   -0.195135
  18 C :   -0.076897
  19 C :   -0.050507
  20 C :   -0.198517
  21 H :    0.034751
  22 C :   -0.023197
  23 H :    0.026077
  24 H :    0.006188
  25 C :   -0.035567
  26 H :    0.013929
  27 H :    0.022303
  28 C :   -0.049726
  29 H :    0.022143
  30 H :    0.025556
  31 H :    0.030831
  32 H :    0.018470
  33 H :    0.043406

  Mayer bond orders larger than 0.100000
B(  0-S ,  1-C ) :   1.1387 B(  0-S ,  4-C ) :   1.1620 B(  1-C ,  2-C ) :   1.5577
B(  1-C ,  4-C ) :   0.1030 B(  1-C , 32-H ) :   0.9856 B(  2-C ,  3-C ) :   1.2322
B(  2-C ,  6-C ) :   1.0729 B(  3-C ,  4-C ) :   1.5463 B(  3-C ,  5-H ) :   0.9858
B(  4-C , 20-C ) :   1.0398 B(  6-C ,  7-H ) :   0.9265 B(  6-C ,  8-H ) :   0.9327
B(  6-C ,  9-C ) :   1.0685 B(  9-C , 10-H ) :   0.9526 B(  9-C , 11-H ) :   0.9555
B(  9-C , 12-C ) :   1.0720 B( 12-C , 13-H ) :   0.9699 B( 12-C , 14-H ) :   0.9717
B( 12-C , 15-H ) :   0.9647 B( 16-S , 17-C ) :   1.1561 B( 16-S , 20-C ) :   1.1489
B( 17-C , 18-C ) :   1.6209 B( 17-C , 33-H ) :   0.9571 B( 18-C , 19-C ) :   1.2381
B( 18-C , 21-H ) :   0.9896 B( 19-C , 20-C ) :   1.5848 B( 19-C , 22-C ) :   1.0480
B( 22-C , 23-H ) :   0.9145 B( 22-C , 24-H ) :   0.9182 B( 22-C , 25-C ) :   1.0572
B( 25-C , 26-H ) :   0.9588 B( 25-C , 27-H ) :   0.9557 B( 25-C , 28-C ) :   1.0572
B( 28-C , 29-H ) :   0.9747 B( 28-C , 30-H ) :   0.9795 B( 28-C , 31-H ) :   0.9806

Dispersion correction           -0.016401090
FINAL SINGLE POINT ENERGY     -1339.860557364586

DIPOLE MOMENT
-------------
                                X             Y             Z
Electronic contribution:    -21.12824     -21.23674      -4.41483
Nuclear contribution   :     21.56002      21.65998       4.32211
                        -----------------------------------------
Total Dipole Moment    :      0.43178       0.42324      -0.09272
                        -----------------------------------------
Magnitude (a.u.)       :      0.61169
Magnitude (Debye)      :      1.55479

Rotational constants in cm-1:     0.018023     0.010830     0.007515
Rotational constants in MHz :   540.321723   324.671798   225.300780

                             ****ORCA TERMINATED NORMALLY****
TOTAL RUN TIME: 0 days 0 hours 0 minutes 32 seconds 767 msec
