                         Program Version 4.2.1 -  RELEASE  -
|  1> ! wB97X-D3 SP def2-SVP
|  2> %pal
|  3> nprocs 16
|  4> end
|  5>
|  6> * xyz 0 1
|  7> S 	 2.15526 	 -12.7943 	 58.9201
|  8> C 	 3.24606 	 -12.0043 	 60.0024
|  9> C 	 4.07049 	 -12.8819 	 60.6772
| 10> C 	 3.83851 	 -14.2266 	 60.2194
| 11> C 	 2.78458 	 -14.3524 	 59.3626
| 12> H 	 4.46417 	 -15.0819 	 60.483
| 13> C 	 5.15187 	 -12.5682 	 61.655
| 14> H 	 5.97288 	 -11.9919 	 61.146
| 15> H 	 5.69488 	 -13.537 	 61.9539
| 16> C 	 4.48513 	 -11.8139 	 62.8145
| 17> H 	 5.15458 	 -11.6162 	 63.606
| 18> H 	 3.99573 	 -10.9316 	 62.5038
| 19> C 	 3.34249 	 -12.588 	 63.4972
| 20> H 	 3.5554 	 -13.6923 	 63.69
| 21> H 	 3.29528 	 -12.0569 	 64.4652
| 22> H 	 2.38713 	 -12.5004 	 62.9351
| 23> S 	 2.1854 	 -15.3178 	 56.8618
| 24> C 	 1.55428 	 -16.9012 	 56.6301
| 25> C 	 1.66608 	 -17.5776 	 57.8307
| 26> C 	 2.16117 	 -16.8352 	 58.9411
| 27> C 	 2.37127 	 -15.5 	 58.6056
| 28> H 	 1.39322 	 -18.6218 	 57.8356
| 29> C 	 2.21085 	 -17.3147 	 60.3676
| 30> H 	 2.79191 	 -16.6185 	 60.9957
| 31> H 	 2.77955 	 -18.232 	 60.5137
| 32> C 	 0.803642 	 -17.5223 	 60.9621
| 33> H 	 0.295292 	 -18.3541 	 60.4155
| 34> H 	 0.248599 	 -16.6488 	 60.7166
| 35> C 	 0.680868 	 -17.6553 	 62.4816
| 36> H 	 -0.330538 	 -17.4444 	 62.8515
| 37> H 	 1.53731 	 -17.131 	 62.9139
| 38> H 	 0.729672 	 -18.7232 	 62.8059
| 39> H 	 3.31404 	 -10.9363 	 60.2478
| 40> H 	 1.3991 	 -17.375 	 55.6943
| 41> *
| 42>
| 43>                          ****END OF INPUT****

CARTESIAN COORDINATES (ANGSTROEM)
---------------------------------
  S      2.155260  -12.794300   58.920100
  C      3.246060  -12.004300   60.002400
  C      4.070490  -12.881900   60.677200
  C      3.838510  -14.226600   60.219400
  C      2.784580  -14.352400   59.362600
  H      4.464170  -15.081900   60.483000
  C      5.151870  -12.568200   61.655000
  H      5.972880  -11.991900   61.146000
  H      5.694880  -13.537000   61.953900
  C      4.485130  -11.813900   62.814500
  H      5.154580  -11.616200   63.606000
  H      3.995730  -10.931600   62.503800
  C      3.342490  -12.588000   63.497200
  H      3.555400  -13.692300   63.690000
  H      3.295280  -12.056900   64.465200
  H      2.387130  -12.500400   62.935100
  S      2.185400  -15.317800   56.861800
  C      1.554280  -16.901200   56.630100
  C      1.666080  -17.577600   57.830700
  C      2.161170  -16.835200   58.941100
  C      2.371270  -15.500000   58.605600
  H      1.393220  -18.621800   57.835600
  C      2.210850  -17.314700   60.367600
  H      2.791910  -16.618500   60.995700
  H      2.779550  -18.232000   60.513700
  C      0.803642  -17.522300   60.962100
  H      0.295292  -18.354100   60.415500
  H      0.248599  -16.648800   60.716600
  C      0.680868  -17.655300   62.481600
  H     -0.330538  -17.444400   62.851500
  H      1.537310  -17.131000   62.913900
  H      0.729672  -18.723200   62.805900
  H      3.314040  -10.936300   60.247800
  H      1.399100  -17.375000   55.694300

 Total Charge           Charge          ....    0
 Multiplicity           Mult            ....    1
 Number of Electrons    NEL             ....  134
 Basis Dimension        Dim             ....  322

ORBITAL ENERGIES
----------------

  NO   OCC          E(Eh)            E(eV)
   0   2.0000     -88.969105     -2420.9724
   1   2.0000     -88.962501     -2420.7927
   2   2.0000     -10.326749      -281.0051
   3   2.0000     -10.325879      -280.9815
   4   2.0000     -10.312711      -280.6231
   5   2.0000     -10.312147      -280.6078
   6   2.0000     -10.303170      -280.3635
   7   2.0000     -10.301355      -280.3141
   8   2.0000     -10.298846      -280.2458
   9   2.0000     -10.293506      -280.1005
  10   2.0000     -10.292308      -280.0679
  11   2.0000     -10.290927      -280.0304
  12   2.0000     -10.282282      -279.7951
  13   2.0000     -10.281996      -279.7873
  14   2.0000     -10.280520      -279.7472
  15   2.0000     -10.279458      -279.7183
  16   2.0000      -8.084155      -219.9810
  17   2.0000      -8.077593      -219.8025
  18   2.0000      -6.042685      -164.4298
  19   2.0000      -6.038591      -164.3184
  20   2.0000      -6.036030      -164.2487
  21   2.0000      -6.034892      -164.2178
  22   2.0000      -6.031938      -164.1374
  23   2.0000      -6.028485      -164.0434
  24   2.0000      -1.013370       -27.5752
  25   2.0000      -0.988632       -26.9020
  26   2.0000      -0.918779       -25.0013
  27   2.0000      -0.907826       -24.7032
  28   2.0000      -0.871394       -23.7118
  29   2.0000      -0.853018       -23.2118
  30   2.0000      -0.844381       -22.9768
  31   2.0000      -0.814080       -22.1522
  32   2.0000      -0.781550       -21.2671
  33   2.0000      -0.772038       -21.0082
  34   2.0000      -0.707094       -19.2410
  35   2.0000      -0.699365       -19.0307
  36   2.0000      -0.694094       -18.8873
  37   2.0000      -0.660825       -17.9820
  38   2.0000      -0.636628       -17.3235
  39   2.0000      -0.615889       -16.7592
  40   2.0000      -0.599480       -16.3127
  41   2.0000      -0.583146       -15.8682
  42   2.0000      -0.558808       -15.2059
  43   2.0000      -0.551609       -15.0100
  44   2.0000      -0.546917       -14.8824
  45   2.0000      -0.531907       -14.4739
  46   2.0000      -0.515726       -14.0336
  47   2.0000      -0.508660       -13.8413
  48   2.0000      -0.505415       -13.7530
  49   2.0000      -0.502113       -13.6632
  50   2.0000      -0.493653       -13.4330
  51   2.0000      -0.474517       -12.9123
  52   2.0000      -0.469906       -12.7868
  53   2.0000      -0.464855       -12.6493
  54   2.0000      -0.454698       -12.3730
  55   2.0000      -0.446973       -12.1628
  56   2.0000      -0.445294       -12.1171
  57   2.0000      -0.433799       -11.8043
  58   2.0000      -0.429501       -11.6873
  59   2.0000      -0.423298       -11.5185
  60   2.0000      -0.420250       -11.4356
  61   2.0000      -0.417142       -11.3510
  62   2.0000      -0.404573       -11.0090
  63   2.0000      -0.355136        -9.6638
  64   2.0000      -0.331554        -9.0220
  65   2.0000      -0.327649        -8.9158
  66   2.0000      -0.289208        -7.8697
  67   0.0000       0.026457         0.7199
  68   0.0000       0.073521         2.0006
  69   0.0000       0.113438         3.0868
  70   0.0000       0.119138         3.2419
  71   0.0000       0.131209         3.5704

MULLIKEN ATOMIC CHARGES
-----------------------
   0 S :    0.124229
   1 C :   -0.125289
   2 C :   -0.112047
   3 C :    0.020611
   4 C :   -0.146976
   5 H :    0.024890
   6 C :    0.051192
   7 H :    0.051537
   8 H :    0.033840
   9 C :   -0.047595
  10 H :    0.021121
  11 H :    0.022331
  12 C :   -0.098917
  13 H :    0.039628
  14 H :    0.037083
  15 H :    0.055163
  16 S :    0.101462
  17 C :   -0.075882
  18 C :   -0.056301
  19 C :   -0.010756
  20 C :   -0.157982
  21 H :    0.015632
  22 C :    0.074028
  23 H :    0.003447
  24 H :    0.022998
  25 C :   -0.085719
  26 H :    0.030634
  27 H :    0.025899
  28 C :   -0.039912
  29 H :    0.038663
  30 H :    0.037215
  31 H :    0.022781
  32 H :    0.050477
  33 H :    0.052515
Sum of atomic charges:    0.0000000

LOEWDIN ATOMIC CHARGES
----------------------
   0 S :    0.427068
   1 C :   -0.211378
   2 C :   -0.063068
   3 C :   -0.061627
   4 C :   -0.199983
   5 H :    0.032579
   6 C :   -0.040161
   7 H :    0.038457
   8 H :    0.037140
   9 C :   -0.036342
  10 H :    0.017245
  11 H :    0.020914
  12 C :   -0.071150
  13 H :    0.027916
  14 H :    0.029550
  15 H :    0.028990
  16 S :    0.411333
  17 C :   -0.194679
  18 C :   -0.069978
  19 C :   -0.058661
  20 C :   -0.190209
  21 H :    0.028302
  22 C :   -0.035063
  23 H :    0.026488
  24 H :    0.028833
  25 C :   -0.043700
  26 H :    0.025866
  27 H :    0.021431
  28 C :   -0.071040
  29 H :    0.031327
  30 H :    0.027723
  31 H :    0.026239
  32 H :    0.032080
  33 H :    0.027558

  Mayer bond orders larger than 0.100000
B(  0-S ,  1-C ) :   1.1395 B(  0-S ,  4-C ) :   1.1487 B(  1-C ,  2-C ) :   1.6119
B(  1-C , 32-H ) :   0.9608 B(  2-C ,  3-C ) :   1.2503 B(  2-C ,  6-C ) :   1.0105
B(  3-C ,  4-C ) :   1.5729 B(  3-C ,  5-H ) :   0.9815 B(  4-C , 20-C ) :   1.0550
B(  6-C ,  7-H ) :   0.9405 B(  6-C ,  8-H ) :   0.9471 B(  6-C ,  9-C ) :   1.0623
B(  9-C , 10-H ) :   0.9641 B(  9-C , 11-H ) :   0.9570 B(  9-C , 12-C ) :   1.0623
B( 12-C , 13-H ) :   0.9777 B( 12-C , 14-H ) :   0.9775 B( 12-C , 15-H ) :   0.9729
B( 16-S , 17-C ) :   1.1548 B( 16-S , 20-C ) :   1.1573 B( 17-C , 18-C ) :   1.5880
B( 17-C , 20-C ) :   0.1040 B( 17-C , 33-H ) :   0.9733 B( 18-C , 19-C ) :   1.2516
B( 18-C , 21-H ) :   0.9916 B( 19-C , 20-C ) :   1.5604 B( 19-C , 22-C ) :   1.0695
B( 22-C , 23-H ) :   0.9250 B( 22-C , 24-H ) :   0.9261 B( 22-C , 25-C ) :   1.0609
B( 25-C , 26-H ) :   0.9543 B( 25-C , 27-H ) :   0.9583 B( 25-C , 28-C ) :   1.0780
B( 28-C , 29-H ) :   0.9745 B( 28-C , 30-H ) :   0.9743 B( 28-C , 31-H ) :   0.9738

Dispersion correction           -0.014550589
FINAL SINGLE POINT ENERGY     -1339.880395577519

DIPOLE MOMENT
-------------
                                X             Y             Z
Electronic contribution:     -1.62613       5.43491     -27.88926
Nuclear contribution   :      1.92326      -5.63069      28.37769
                        -----------------------------------------
Total Dipole Moment    :      0.29713      -0.19578       0.48843
                        -----------------------------------------
Magnitude (a.u.)       :      0.60431
Magnitude (Debye)      :      1.53602

Rotational constants in cm-1:     0.018723     0.009544     0.007000
Rotational constants in MHz :   561.296357   286.118918   209.855118

                             ****ORCA TERMINATED NORMALLY****
TOTAL RUN TIME: 0 days 0 hours 0 minutes 29 seconds 597 msec
