                         Program Version 4.2.1 -  RELEASE  -
|  1> ! wB97X-D3 SP def2-SVP
|  2> %pal
|  3> nprocs 16
|  4> end
|  5>
|  6> * xyz 0 1
|  7> S 	 6.30614 	 25.6718 	 68.2765
|  8> C 	 4.9424 	 25.5132 	 67.1573
|  9> C 	 5.35602 	 25.0827 	 65.9078
| 10> C 	 6.7458 	 24.8636 	 65.8344
| 11> C 	 7.45724 	 25.2679 	 66.9768
| 12> H 	 7.30888 	 24.4841 	 64.969
| 13> C 	 4.47039 	 24.7303 	 64.7412
| 14> H 	 4.65885 	 25.5272 	 63.9553
| 15> H 	 3.41521 	 24.8423 	 65.0594
| 16> C 	 4.66202 	 23.3067 	 64.197
| 17> H 	 4.10604 	 23.1207 	 63.2766
| 18> H 	 5.70359 	 23.2188 	 63.8828
| 19> C 	 4.1727 	 22.2284 	 65.1435
| 20> H 	 4.42957 	 22.3651 	 66.187
| 21> H 	 3.08266 	 22.3713 	 65.2817
| 22> H 	 4.28418 	 21.2093 	 64.7875
| 23> S 	 9.50672 	 23.6365 	 67.0383
| 24> C 	 11.1258 	 24.1419 	 67.5525
| 25> C 	 11.0865 	 25.3613 	 68.0155
| 26> C 	 9.86121 	 26.0314 	 67.7384
| 27> C 	 8.87644 	 25.1767 	 67.1824
| 28> H 	 11.988 	 25.7466 	 68.4728
| 29> C 	 9.65321 	 27.4853 	 68.2001
| 30> H 	 9.86443 	 27.5602 	 69.3233
| 31> H 	 8.56788 	 27.7612 	 68.2149
| 32> C 	 10.4289 	 28.4707 	 67.3158
| 33> H 	 10.2618 	 28.2711 	 66.2523
| 34> H 	 11.546 	 28.3214 	 67.4532
| 35> C 	 9.98754 	 29.878 	 67.6937
| 36> H 	 10.1595 	 30.1863 	 68.7462
| 37> H 	 8.98539 	 30.0713 	 67.4347
| 38> H 	 10.5 	 30.676 	 67.189
| 39> H 	 3.88176 	 25.5723 	 67.4083
| 40> H 	 11.7959 	 23.3433 	 67.8053
| 41> *
| 42>
| 43>                          ****END OF INPUT****

CARTESIAN COORDINATES (ANGSTROEM)
---------------------------------
  S      6.306140   25.671800   68.276500
  C      4.942400   25.513200   67.157300
  C      5.356020   25.082700   65.907800
  C      6.745800   24.863600   65.834400
  C      7.457240   25.267900   66.976800
  H      7.308880   24.484100   64.969000
  C      4.470390   24.730300   64.741200
  H      4.658850   25.527200   63.955300
  H      3.415210   24.842300   65.059400
  C      4.662020   23.306700   64.197000
  H      4.106040   23.120700   63.276600
  H      5.703590   23.218800   63.882800
  C      4.172700   22.228400   65.143500
  H      4.429570   22.365100   66.187000
  H      3.082660   22.371300   65.281700
  H      4.284180   21.209300   64.787500
  S      9.506720   23.636500   67.038300
  C     11.125800   24.141900   67.552500
  C     11.086500   25.361300   68.015500
  C      9.861210   26.031400   67.738400
  C      8.876440   25.176700   67.182400
  H     11.988000   25.746600   68.472800
  C      9.653210   27.485300   68.200100
  H      9.864430   27.560200   69.323300
  H      8.567880   27.761200   68.214900
  C     10.428900   28.470700   67.315800
  H     10.261800   28.271100   66.252300
  H     11.546000   28.321400   67.453200
  C      9.987540   29.878000   67.693700
  H     10.159500   30.186300   68.746200
  H      8.985390   30.071300   67.434700
  H     10.500000   30.676000   67.189000
  H      3.881760   25.572300   67.408300
  H     11.795900   23.343300   67.805300

 Total Charge           Charge          ....    0
 Multiplicity           Mult            ....    1
 Number of Electrons    NEL             ....  134
 Basis Dimension        Dim             ....  322

ORBITAL ENERGIES
----------------

  NO   OCC          E(Eh)            E(eV)
   0   2.0000     -88.970037     -2420.9978
   1   2.0000     -88.957654     -2420.6608
   2   2.0000     -10.333705      -281.1944
   3   2.0000     -10.322779      -280.8971
   4   2.0000     -10.317464      -280.7525
   5   2.0000     -10.307263      -280.4749
   6   2.0000     -10.304025      -280.3868
   7   2.0000     -10.299874      -280.2738
   8   2.0000     -10.298835      -280.2456
   9   2.0000     -10.296019      -280.1689
  10   2.0000     -10.295476      -280.1541
  11   2.0000     -10.289565      -279.9933
  12   2.0000     -10.288355      -279.9604
  13   2.0000     -10.288068      -279.9526
  14   2.0000     -10.275065      -279.5987
  15   2.0000     -10.269606      -279.4502
  16   2.0000      -8.083347      -219.9590
  17   2.0000      -8.074267      -219.7120
  18   2.0000      -6.041973      -164.4104
  19   2.0000      -6.038067      -164.3042
  20   2.0000      -6.034044      -164.1947
  21   2.0000      -6.032653      -164.1568
  22   2.0000      -6.028457      -164.0427
  23   2.0000      -6.025057      -163.9501
  24   2.0000      -1.013925       -27.5903
  25   2.0000      -0.985636       -26.8205
  26   2.0000      -0.913940       -24.8696
  27   2.0000      -0.904023       -24.5997
  28   2.0000      -0.880923       -23.9711
  29   2.0000      -0.849316       -23.1111
  30   2.0000      -0.840277       -22.8651
  31   2.0000      -0.817675       -22.2501
  32   2.0000      -0.780402       -21.2358
  33   2.0000      -0.766077       -20.8460
  34   2.0000      -0.713800       -19.4235
  35   2.0000      -0.699354       -19.0304
  36   2.0000      -0.692725       -18.8500
  37   2.0000      -0.661746       -18.0070
  38   2.0000      -0.632536       -17.2122
  39   2.0000      -0.622867       -16.9491
  40   2.0000      -0.600432       -16.3386
  41   2.0000      -0.567606       -15.4453
  42   2.0000      -0.557508       -15.1706
  43   2.0000      -0.554593       -15.0912
  44   2.0000      -0.536587       -14.6013
  45   2.0000      -0.519007       -14.1229
  46   2.0000      -0.517188       -14.0734
  47   2.0000      -0.512452       -13.9445
  48   2.0000      -0.510394       -13.8885
  49   2.0000      -0.497654       -13.5419
  50   2.0000      -0.488958       -13.3052
  51   2.0000      -0.477931       -13.0052
  52   2.0000      -0.470084       -12.7916
  53   2.0000      -0.463328       -12.6078
  54   2.0000      -0.451930       -12.2976
  55   2.0000      -0.447860       -12.1869
  56   2.0000      -0.444142       -12.0857
  57   2.0000      -0.440147       -11.9770
  58   2.0000      -0.433103       -11.7853
  59   2.0000      -0.425888       -11.5890
  60   2.0000      -0.416580       -11.3357
  61   2.0000      -0.410029       -11.1575
  62   2.0000      -0.407680       -11.0935
  63   2.0000      -0.353493        -9.6190
  64   2.0000      -0.334152        -9.0927
  65   2.0000      -0.321697        -8.7538
  66   2.0000      -0.293584        -7.9888
  67   0.0000       0.030046         0.8176
  68   0.0000       0.067334         1.8323
  69   0.0000       0.109573         2.9816
  70   0.0000       0.123846         3.3700
  71   0.0000       0.125489         3.4147

MULLIKEN ATOMIC CHARGES
-----------------------
   0 S :    0.117240
   1 C :   -0.127491
   2 C :   -0.076529
   3 C :   -0.002562
   4 C :   -0.133678
   5 H :    0.028512
   6 C :    0.040064
   7 H :    0.054673
   8 H :    0.014278
   9 C :   -0.057467
  10 H :    0.029131
  11 H :    0.028627
  12 C :   -0.045385
  13 H :    0.033272
  14 H :    0.011303
  15 H :    0.043261
  16 S :    0.088849
  17 C :   -0.087820
  18 C :   -0.018863
  19 C :   -0.043903
  20 C :   -0.147000
  21 H :    0.025214
  22 C :    0.009473
  23 H :    0.043717
  24 H :    0.021816
  25 C :   -0.076046
  26 H :    0.040451
  27 H :    0.036609
  28 C :   -0.022356
  29 H :    0.027017
  30 H :    0.022909
  31 H :    0.014493
  32 H :    0.049629
  33 H :    0.058561
Sum of atomic charges:    0.0000000

LOEWDIN ATOMIC CHARGES
----------------------
   0 S :    0.393553
   1 C :   -0.197163
   2 C :   -0.069174
   3 C :   -0.063547
   4 C :   -0.184797
   5 H :    0.034588
   6 C :   -0.033030
   7 H :    0.042794
   8 H :    0.026860
   9 C :   -0.043176
  10 H :    0.028200
  11 H :    0.020691
  12 C :   -0.070360
  13 H :    0.025783
  14 H :    0.027535
  15 H :    0.028270
  16 S :    0.431162
  17 C :   -0.175279
  18 C :   -0.068270
  19 C :   -0.061677
  20 C :   -0.226257
  21 H :    0.037661
  22 C :   -0.043823
  23 H :    0.038775
  24 H :    0.025709
  25 C :   -0.042704
  26 H :    0.029869
  27 H :    0.028060
  28 C :   -0.069382
  29 H :    0.029241
  30 H :    0.020369
  31 H :    0.021925
  32 H :    0.031608
  33 H :    0.025985

  Mayer bond orders larger than 0.100000
B(  0-S ,  1-C ) :   1.1327 B(  0-S ,  4-C ) :   1.1389 B(  1-C ,  2-C ) :   1.6077
B(  1-C ,  4-C ) :   0.1005 B(  1-C , 32-H ) :   0.9629 B(  2-C ,  3-C ) :   1.2397
B(  2-C ,  6-C ) :   1.0230 B(  3-C ,  4-C ) :   1.5588 B(  3-C ,  5-H ) :   0.9895
B(  4-C , 20-C ) :   1.0549 B(  6-C ,  7-H ) :   0.9345 B(  6-C ,  8-H ) :   0.9446
B(  6-C ,  9-C ) :   1.0737 B(  9-C , 10-H ) :   0.9527 B(  9-C , 11-H ) :   0.9529
B(  9-C , 12-C ) :   1.0680 B( 12-C , 13-H ) :   0.9766 B( 12-C , 14-H ) :   0.9664
B( 12-C , 15-H ) :   0.9746 B( 16-S , 17-C ) :   1.1425 B( 16-S , 20-C ) :   1.1802
B( 17-C , 18-C ) :   1.6273 B( 17-C , 33-H ) :   0.9660 B( 18-C , 19-C ) :   1.2397
B( 18-C , 21-H ) :   0.9916 B( 19-C , 20-C ) :   1.5521 B( 19-C , 22-C ) :   1.0392
B( 22-C , 23-H ) :   0.9418 B( 22-C , 24-H ) :   0.9428 B( 22-C , 25-C ) :   1.0447
B( 25-C , 26-H ) :   0.9552 B( 25-C , 27-H ) :   0.9565 B( 25-C , 28-C ) :   1.0868
B( 28-C , 29-H ) :   0.9720 B( 28-C , 30-H ) :   0.9732 B( 28-C , 31-H ) :   0.9701

Dispersion correction           -0.014140916
FINAL SINGLE POINT ENERGY     -1339.875920407669

DIPOLE MOMENT
-------------
                                X             Y             Z
Electronic contribution:      5.20868      -8.12815       8.21687
Nuclear contribution   :     -5.26409       8.17618      -8.33085
                        -----------------------------------------
Total Dipole Moment    :     -0.05541       0.04803      -0.11398
                        -----------------------------------------
Magnitude (a.u.)       :      0.13553
Magnitude (Debye)      :      0.34449

Rotational constants in cm-1:     0.021430     0.008022     0.006666
Rotational constants in MHz :   642.459500   240.500274   199.852683

                             ****ORCA TERMINATED NORMALLY****
TOTAL RUN TIME: 0 days 0 hours 0 minutes 33 seconds 946 msec
