                         Program Version 4.2.1 -  RELEASE  -
|  1> ! wB97X-D3 SP def2-SVP
|  2> %pal
|  3> nprocs 16
|  4> end
|  5>
|  6> * xyz 0 1
|  7> S 	 -42.5595 	 53.4204 	 103.99
|  8> C 	 -42.9249 	 52.1483 	 102.868
|  9> C 	 -42.7228 	 52.501 	 101.522
| 10> C 	 -42.1372 	 53.8256 	 101.412
| 11> C 	 -42.0394 	 54.4532 	 102.66
| 12> H 	 -41.8893 	 54.3515 	 100.445
| 13> C 	 -42.8689 	 51.6201 	 100.293
| 14> H 	 -43.4031 	 52.1343 	 99.6167
| 15> H 	 -43.3973 	 50.7272 	 100.61
| 16> C 	 -41.5453 	 51.1582 	 99.5978
| 17> H 	 -41.8912 	 50.8369 	 98.5632
| 18> H 	 -41.0847 	 52.1016 	 99.4213
| 19> C 	 -40.6764 	 50.1169 	 100.328
| 20> H 	 -40.6772 	 50.3837 	 101.348
| 21> H 	 -41.0546 	 49.1785 	 100.341
| 22> H 	 -39.7344 	 50.0544 	 99.8648
| 23> S 	 -40.4533 	 56.3592 	 101.414
| 24> C 	 -39.6761 	 57.52 	 102.423
| 25> C 	 -40.2485 	 57.5956 	 103.709
| 26> C 	 -41.1565 	 56.5702 	 104.006
| 27> C 	 -41.2932 	 55.7389 	 102.83
| 28> H 	 -40.0551 	 58.3472 	 104.449
| 29> C 	 -41.8683 	 56.3412 	 105.378
| 30> H 	 -41.6226 	 55.3182 	 105.761
| 31> H 	 -42.879 	 56.2887 	 105.179
| 32> C 	 -41.5748 	 57.4666 	 106.403
| 33> H 	 -42.1292 	 58.4246 	 106.24
| 34> H 	 -40.5112 	 57.7123 	 106.312
| 35> C 	 -41.7437 	 57.106 	 107.833
| 36> H 	 -42.8038 	 57.0394 	 108.179
| 37> H 	 -41.189 	 57.8814 	 108.355
| 38> H 	 -41.268 	 56.158 	 108.079
| 39> H 	 -43.27 	 51.1846 	 103.22
| 40> H 	 -38.8042 	 58.1741 	 102.09
| 41> *
| 42>
| 43>                          ****END OF INPUT****

CARTESIAN COORDINATES (ANGSTROEM)
---------------------------------
  S    -42.559500   53.420400  103.990000
  C    -42.924900   52.148300  102.868000
  C    -42.722800   52.501000  101.522000
  C    -42.137200   53.825600  101.412000
  C    -42.039400   54.453200  102.660000
  H    -41.889300   54.351500  100.445000
  C    -42.868900   51.620100  100.293000
  H    -43.403100   52.134300   99.616700
  H    -43.397300   50.727200  100.610000
  C    -41.545300   51.158200   99.597800
  H    -41.891200   50.836900   98.563200
  H    -41.084700   52.101600   99.421300
  C    -40.676400   50.116900  100.328000
  H    -40.677200   50.383700  101.348000
  H    -41.054600   49.178500  100.341000
  H    -39.734400   50.054400   99.864800
  S    -40.453300   56.359200  101.414000
  C    -39.676100   57.520000  102.423000
  C    -40.248500   57.595600  103.709000
  C    -41.156500   56.570200  104.006000
  C    -41.293200   55.738900  102.830000
  H    -40.055100   58.347200  104.449000
  C    -41.868300   56.341200  105.378000
  H    -41.622600   55.318200  105.761000
  H    -42.879000   56.288700  105.179000
  C    -41.574800   57.466600  106.403000
  H    -42.129200   58.424600  106.240000
  H    -40.511200   57.712300  106.312000
  C    -41.743700   57.106000  107.833000
  H    -42.803800   57.039400  108.179000
  H    -41.189000   57.881400  108.355000
  H    -41.268000   56.158000  108.079000
  H    -43.270000   51.184600  103.220000
  H    -38.804200   58.174100  102.090000

 Total Charge           Charge          ....    0
 Multiplicity           Mult            ....    1
 Number of Electrons    NEL             ....  134
 Basis Dimension        Dim             ....  322

ORBITAL ENERGIES
----------------

  NO   OCC          E(Eh)            E(eV)
   0   2.0000     -88.972736     -2421.0712
   1   2.0000     -88.971398     -2421.0348
   2   2.0000     -10.333603      -281.1916
   3   2.0000     -10.331114      -281.1239
   4   2.0000     -10.321577      -280.8644
   5   2.0000     -10.313931      -280.6563
   6   2.0000     -10.307594      -280.4839
   7   2.0000     -10.304598      -280.4024
   8   2.0000     -10.297434      -280.2074
   9   2.0000     -10.297250      -280.2024
  10   2.0000     -10.291964      -280.0586
  11   2.0000     -10.290459      -280.0176
  12   2.0000     -10.287955      -279.9495
  13   2.0000     -10.281922      -279.7853
  14   2.0000     -10.277901      -279.6759
  15   2.0000     -10.262088      -279.2456
  16   2.0000      -8.087094      -220.0610
  17   2.0000      -8.085334      -220.0131
  18   2.0000      -6.045461      -164.5054
  19   2.0000      -6.043967      -164.4647
  20   2.0000      -6.041794      -164.4056
  21   2.0000      -6.039993      -164.3566
  22   2.0000      -6.037934      -164.3005
  23   2.0000      -6.036012      -164.2482
  24   2.0000      -1.000525       -27.2257
  25   2.0000      -0.979399       -26.6508
  26   2.0000      -0.913442       -24.8560
  27   2.0000      -0.908174       -24.7127
  28   2.0000      -0.862166       -23.4607
  29   2.0000      -0.857204       -23.3257
  30   2.0000      -0.846305       -23.0291
  31   2.0000      -0.807323       -21.9684
  32   2.0000      -0.789938       -21.4953
  33   2.0000      -0.772262       -21.0143
  34   2.0000      -0.705858       -19.2074
  35   2.0000      -0.701144       -19.0791
  36   2.0000      -0.685987       -18.6667
  37   2.0000      -0.657398       -17.8887
  38   2.0000      -0.629847       -17.1390
  39   2.0000      -0.610953       -16.6249
  40   2.0000      -0.599791       -16.3211
  41   2.0000      -0.569643       -15.5008
  42   2.0000      -0.563948       -15.3458
  43   2.0000      -0.550661       -14.9842
  44   2.0000      -0.537845       -14.6355
  45   2.0000      -0.532167       -14.4810
  46   2.0000      -0.518749       -14.1159
  47   2.0000      -0.510185       -13.8829
  48   2.0000      -0.502246       -13.6668
  49   2.0000      -0.492231       -13.3943
  50   2.0000      -0.483029       -13.1439
  51   2.0000      -0.481943       -13.1143
  52   2.0000      -0.472563       -12.8591
  53   2.0000      -0.470794       -12.8110
  54   2.0000      -0.462213       -12.5775
  55   2.0000      -0.455081       -12.3834
  56   2.0000      -0.446548       -12.1512
  57   2.0000      -0.441286       -12.0080
  58   2.0000      -0.435571       -11.8525
  59   2.0000      -0.424814       -11.5598
  60   2.0000      -0.420572       -11.4443
  61   2.0000      -0.415393       -11.3034
  62   2.0000      -0.411466       -11.1966
  63   2.0000      -0.355936        -9.6855
  64   2.0000      -0.336686        -9.1617
  65   2.0000      -0.329193        -8.9578
  66   2.0000      -0.269954        -7.3458
  67   0.0000       0.016812         0.4575
  68   0.0000       0.080650         2.1946
  69   0.0000       0.105867         2.8808
  70   0.0000       0.113329         3.0838
  71   0.0000       0.131370         3.5748

MULLIKEN ATOMIC CHARGES
-----------------------
   0 S :    0.091476
   1 C :   -0.125125
   2 C :   -0.080690
   3 C :   -0.076243
   4 C :   -0.090908
   5 H :    0.052260
   6 C :    0.110869
   7 H :    0.000408
   8 H :    0.010064
   9 C :   -0.099124
  10 H :    0.029083
  11 H :    0.012658
  12 C :    0.045844
  13 H :    0.022041
  14 H :    0.000093
  15 H :    0.030888
  16 S :    0.107783
  17 C :   -0.103492
  18 C :   -0.038576
  19 C :   -0.083918
  20 C :   -0.147610
  21 H :    0.009555
  22 C :    0.109989
  23 H :    0.047226
  24 H :    0.021997
  25 C :   -0.125877
  26 H :    0.046306
  27 H :    0.035538
  28 C :   -0.038180
  29 H :    0.041375
  30 H :    0.031315
  31 H :    0.026612
  32 H :    0.045551
  33 H :    0.080810
Sum of atomic charges:    0.0000000

LOEWDIN ATOMIC CHARGES
----------------------
   0 S :    0.414001
   1 C :   -0.212284
   2 C :   -0.053951
   3 C :   -0.089891
   4 C :   -0.181939
   5 H :    0.033576
   6 C :   -0.021239
   7 H :    0.015867
   8 H :    0.025979
   9 C :   -0.031740
  10 H :    0.027506
  11 H :    0.015231
  12 C :   -0.048654
  13 H :    0.026739
  14 H :    0.013395
  15 H :    0.027080
  16 S :    0.429989
  17 C :   -0.211321
  18 C :   -0.074864
  19 C :   -0.053651
  20 C :   -0.191915
  21 H :    0.026196
  22 C :   -0.030499
  23 H :    0.031780
  24 H :    0.021499
  25 C :   -0.048596
  26 H :    0.033348
  27 H :    0.025149
  28 C :   -0.064553
  29 H :    0.027816
  30 H :    0.029601
  31 H :    0.022980
  32 H :    0.023883
  33 H :    0.043482

  Mayer bond orders larger than 0.100000
B(  0-S ,  1-C ) :   1.1296 B(  0-S ,  4-C ) :   1.1435 B(  1-C ,  2-C ) :   1.6019
B(  1-C , 32-H ) :   0.9656 B(  2-C ,  3-C ) :   1.2448 B(  2-C ,  6-C ) :   1.0372
B(  3-C ,  4-C ) :   1.5669 B(  3-C ,  5-H ) :   0.9640 B(  4-C , 20-C ) :   1.0875
B(  6-C ,  7-H ) :   0.9275 B(  6-C ,  8-H ) :   0.9413 B(  6-C ,  9-C ) :   1.0731
B(  9-C , 10-H ) :   0.9557 B(  9-C , 11-H ) :   0.9582 B(  9-C , 12-C ) :   1.0658
B( 12-C , 13-H ) :   0.9740 B( 12-C , 14-H ) :   0.9696 B( 12-C , 15-H ) :   0.9720
B( 16-S , 17-C ) :   1.1674 B( 16-S , 20-C ) :   1.1691 B( 17-C , 18-C ) :   1.5451
B( 17-C , 20-C ) :   0.1045 B( 17-C , 33-H ) :   0.9577 B( 18-C , 19-C ) :   1.3289
B( 18-C , 21-H ) :   0.9803 B( 19-C , 20-C ) :   1.5109 B( 19-C , 22-C ) :   1.0075
B( 22-C , 23-H ) :   0.9330 B( 22-C , 24-H ) :   0.9250 B( 22-C , 25-C ) :   1.0683
B( 25-C , 26-H ) :   0.9495 B( 25-C , 27-H ) :   0.9538 B( 25-C , 28-C ) :   1.0979
B( 28-C , 29-H ) :   0.9727 B( 28-C , 30-H ) :   0.9734 B( 28-C , 31-H ) :   0.9723

Dispersion correction           -0.013601587
FINAL SINGLE POINT ENERGY     -1339.855362062156

DIPOLE MOMENT
-------------
                                X             Y             Z
Electronic contribution:     -0.57117       6.70313      -5.34948
Nuclear contribution   :      0.64149      -6.73408       5.44260
                        -----------------------------------------
Total Dipole Moment    :      0.07031      -0.03096       0.09312
                        -----------------------------------------
Magnitude (a.u.)       :      0.12072
Magnitude (Debye)      :      0.30684

Rotational constants in cm-1:     0.023108     0.007554     0.006042
Rotational constants in MHz :   692.768058   226.455323   181.136015

                             ****ORCA TERMINATED NORMALLY****
TOTAL RUN TIME: 0 days 0 hours 0 minutes 30 seconds 272 msec
