                         Program Version 4.2.1 -  RELEASE  -
|  1> ! wB97X-D3 SP def2-SVP
|  2> %pal
|  3> nprocs 16
|  4> end
|  5>
|  6> * xyz 0 1
|  7> S 	 8.98234 	 24.4203 	 40.6293
|  8> C 	 7.63796 	 24.752 	 39.7358
|  9> C 	 7.0179 	 23.6022 	 39.2653
| 10> C 	 7.69328 	 22.4232 	 39.6477
| 11> C 	 8.87336 	 22.7165 	 40.2216
| 12> H 	 7.54603 	 21.398 	 39.368
| 13> C 	 5.83285 	 23.5313 	 38.3133
| 14> H 	 5.63723 	 22.5087 	 37.9259
| 15> H 	 5.98549 	 24.2408 	 37.4337
| 16> C 	 4.42781 	 23.8715 	 39.0126
| 17> H 	 3.60684 	 23.7814 	 38.3319
| 18> H 	 4.37493 	 23.1142 	 39.7147
| 19> C 	 4.33097 	 25.1536 	 39.7271
| 20> H 	 4.6675 	 26.0558 	 39.1035
| 21> H 	 3.24259 	 25.3022 	 40.034
| 22> H 	 4.85409 	 25.2196 	 40.686
| 23> S 	 11.5385 	 22.0641 	 40.0449
| 24> C 	 12.1286 	 20.4167 	 40.3126
| 25> C 	 11.0354 	 19.6442 	 40.6065
| 26> C 	 9.79589 	 20.3328 	 40.7296
| 27> C 	 9.90934 	 21.6897 	 40.5336
| 28> H 	 11.1334 	 18.5626 	 40.8584
| 29> C 	 8.50485 	 19.6521 	 41.1679
| 30> H 	 7.84928 	 19.5306 	 40.3653
| 31> H 	 8.09224 	 20.3862 	 41.8835
| 32> C 	 8.57609 	 18.1931 	 41.8775
| 33> H 	 9.22903 	 18.3969 	 42.7278
| 34> H 	 9.23999 	 17.5485 	 41.2985
| 35> C 	 7.14745 	 17.6342 	 42.0834
| 36> H 	 6.48729 	 18.3518 	 42.5813
| 37> H 	 7.36477 	 16.7491 	 42.7321
| 38> H 	 6.64947 	 17.38 	 41.1075
| 39> H 	 7.12422 	 25.6777 	 39.4741
| 40> H 	 13.091 	 19.945 	 40.1106
| 41> *
| 42>
| 43>                          ****END OF INPUT****

CARTESIAN COORDINATES (ANGSTROEM)
---------------------------------
  S      8.982340   24.420300   40.629300
  C      7.637960   24.752000   39.735800
  C      7.017900   23.602200   39.265300
  C      7.693280   22.423200   39.647700
  C      8.873360   22.716500   40.221600
  H      7.546030   21.398000   39.368000
  C      5.832850   23.531300   38.313300
  H      5.637230   22.508700   37.925900
  H      5.985490   24.240800   37.433700
  C      4.427810   23.871500   39.012600
  H      3.606840   23.781400   38.331900
  H      4.374930   23.114200   39.714700
  C      4.330970   25.153600   39.727100
  H      4.667500   26.055800   39.103500
  H      3.242590   25.302200   40.034000
  H      4.854090   25.219600   40.686000
  S     11.538500   22.064100   40.044900
  C     12.128600   20.416700   40.312600
  C     11.035400   19.644200   40.606500
  C      9.795890   20.332800   40.729600
  C      9.909340   21.689700   40.533600
  H     11.133400   18.562600   40.858400
  C      8.504850   19.652100   41.167900
  H      7.849280   19.530600   40.365300
  H      8.092240   20.386200   41.883500
  C      8.576090   18.193100   41.877500
  H      9.229030   18.396900   42.727800
  H      9.239990   17.548500   41.298500
  C      7.147450   17.634200   42.083400
  H      6.487290   18.351800   42.581300
  H      7.364770   16.749100   42.732100
  H      6.649470   17.380000   41.107500
  H      7.124220   25.677700   39.474100
  H     13.091000   19.945000   40.110600

 Total Charge           Charge          ....    0
 Multiplicity           Mult            ....    1
 Number of Electrons    NEL             ....  134
 Basis Dimension        Dim             ....  322

ORBITAL ENERGIES
----------------

  NO   OCC          E(Eh)            E(eV)
   0   2.0000     -88.970648     -2421.0144
   1   2.0000     -88.962918     -2420.8041
   2   2.0000     -10.326195      -280.9901
   3   2.0000     -10.325764      -280.9783
   4   2.0000     -10.318245      -280.7737
   5   2.0000     -10.307099      -280.4704
   6   2.0000     -10.300405      -280.2883
   7   2.0000     -10.299610      -280.2666
   8   2.0000     -10.297436      -280.2075
   9   2.0000     -10.295869      -280.1648
  10   2.0000     -10.293980      -280.1134
  11   2.0000     -10.293420      -280.0982
  12   2.0000     -10.291081      -280.0345
  13   2.0000     -10.286624      -279.9133
  14   2.0000     -10.282857      -279.8108
  15   2.0000     -10.277653      -279.6692
  16   2.0000      -8.086850      -220.0544
  17   2.0000      -8.077459      -219.7988
  18   2.0000      -6.045202      -164.4983
  19   2.0000      -6.041171      -164.3886
  20   2.0000      -6.037656      -164.2930
  21   2.0000      -6.036131      -164.2515
  22   2.0000      -6.031843      -164.1348
  23   2.0000      -6.028188      -164.0353
  24   2.0000      -1.017714       -27.6934
  25   2.0000      -0.991619       -26.9833
  26   2.0000      -0.908435       -24.7198
  27   2.0000      -0.900466       -24.5029
  28   2.0000      -0.875484       -23.8231
  29   2.0000      -0.857877       -23.3440
  30   2.0000      -0.845716       -23.0131
  31   2.0000      -0.817197       -22.2371
  32   2.0000      -0.776686       -21.1347
  33   2.0000      -0.769308       -20.9339
  34   2.0000      -0.710736       -19.3401
  35   2.0000      -0.700581       -19.0638
  36   2.0000      -0.691748       -18.8234
  37   2.0000      -0.656014       -17.8510
  38   2.0000      -0.642098       -17.4724
  39   2.0000      -0.616755       -16.7827
  40   2.0000      -0.592275       -16.1166
  41   2.0000      -0.573052       -15.5935
  42   2.0000      -0.563834       -15.3427
  43   2.0000      -0.556019       -15.1300
  44   2.0000      -0.534647       -14.5485
  45   2.0000      -0.526468       -14.3259
  46   2.0000      -0.519757       -14.1433
  47   2.0000      -0.510858       -13.9012
  48   2.0000      -0.503293       -13.6953
  49   2.0000      -0.499552       -13.5935
  50   2.0000      -0.491843       -13.3837
  51   2.0000      -0.483719       -13.1627
  52   2.0000      -0.478077       -13.0091
  53   2.0000      -0.468128       -12.7384
  54   2.0000      -0.459426       -12.5016
  55   2.0000      -0.453573       -12.3424
  56   2.0000      -0.447474       -12.1764
  57   2.0000      -0.430819       -11.7232
  58   2.0000      -0.427601       -11.6356
  59   2.0000      -0.421285       -11.4637
  60   2.0000      -0.419978       -11.4282
  61   2.0000      -0.413356       -11.2480
  62   2.0000      -0.405140       -11.0244
  63   2.0000      -0.360099        -9.7988
  64   2.0000      -0.332263        -9.0413
  65   2.0000      -0.325781        -8.8650
  66   2.0000      -0.288911        -7.8617
  67   0.0000       0.029050         0.7905
  68   0.0000       0.077380         2.1056
  69   0.0000       0.118783         3.2323
  70   0.0000       0.120661         3.2833
  71   0.0000       0.136234         3.7071

MULLIKEN ATOMIC CHARGES
-----------------------
   0 S :    0.148031
   1 C :   -0.080776
   2 C :   -0.100999
   3 C :    0.017050
   4 C :   -0.153586
   5 H :    0.005311
   6 C :    0.009895
   7 H :    0.031380
   8 H :    0.048189
   9 C :   -0.017667
  10 H :    0.028190
  11 H :    0.006329
  12 C :   -0.105667
  13 H :    0.037392
  14 H :    0.039074
  15 H :    0.042479
  16 S :    0.089047
  17 C :   -0.078200
  18 C :   -0.064131
  19 C :   -0.067830
  20 C :   -0.117021
  21 H :    0.028414
  22 C :    0.019300
  23 H :    0.022473
  24 H :    0.050480
  25 C :   -0.100162
  26 H :    0.032780
  27 H :    0.032421
  28 C :   -0.049522
  29 H :    0.042761
  30 H :    0.052750
  31 H :    0.050598
  32 H :    0.040363
  33 H :    0.060858
Sum of atomic charges:   -0.0000000

LOEWDIN ATOMIC CHARGES
----------------------
   0 S :    0.450264
   1 C :   -0.231566
   2 C :   -0.070226
   3 C :   -0.058345
   4 C :   -0.192276
   5 H :    0.033043
   6 C :   -0.033306
   7 H :    0.032792
   8 H :    0.034482
   9 C :   -0.039623
  10 H :    0.021919
  11 H :    0.016353
  12 C :   -0.080262
  13 H :    0.026300
  14 H :    0.035585
  15 H :    0.024681
  16 S :    0.403111
  17 C :   -0.188335
  18 C :   -0.080924
  19 C :   -0.069639
  20 C :   -0.197207
  21 H :    0.034839
  22 C :   -0.033050
  23 H :    0.013862
  24 H :    0.039665
  25 C :   -0.043561
  26 H :    0.024659
  27 H :    0.018863
  28 C :   -0.067035
  29 H :    0.027960
  30 H :    0.038039
  31 H :    0.034417
  32 H :    0.035389
  33 H :    0.039133

  Mayer bond orders larger than 0.100000
B(  0-S ,  1-C ) :   1.1560 B(  0-S ,  4-C ) :   1.1518 B(  1-C ,  2-C ) :   1.5970
B(  1-C , 32-H ) :   0.9579 B(  2-C ,  3-C ) :   1.2509 B(  2-C ,  6-C ) :   1.0177
B(  3-C ,  4-C ) :   1.5951 B(  3-C ,  5-H ) :   0.9908 B(  4-C , 20-C ) :   1.0080
B(  6-C ,  7-H ) :   0.9498 B(  6-C ,  8-H ) :   0.9493 B(  6-C ,  9-C ) :   1.0579
B(  9-C , 10-H ) :   0.9593 B(  9-C , 11-H ) :   0.9464 B(  9-C , 12-C ) :   1.0996
B( 12-C , 13-H ) :   0.9713 B( 12-C , 14-H ) :   0.9674 B( 12-C , 15-H ) :   0.9669
B( 16-S , 17-C ) :   1.1479 B( 16-S , 20-C ) :   1.1435 B( 17-C , 18-C ) :   1.6019
B( 17-C , 33-H ) :   0.9632 B( 18-C , 19-C ) :   1.2784 B( 18-C , 21-H ) :   0.9736
B( 19-C , 20-C ) :   1.6019 B( 19-C , 22-C ) :   1.0084 B( 22-C , 23-H ) :   0.9304
B( 22-C , 24-H ) :   0.9466 B( 22-C , 25-C ) :   1.0632 B( 25-C , 26-H ) :   0.9607
B( 25-C , 27-H ) :   0.9506 B( 25-C , 28-C ) :   1.0652 B( 28-C , 29-H ) :   0.9767
B( 28-C , 30-H ) :   0.9729 B( 28-C , 31-H ) :   0.9723

Dispersion correction           -0.013918169
FINAL SINGLE POINT ENERGY     -1339.855303241440

DIPOLE MOMENT
-------------
                                X             Y             Z
Electronic contribution:     25.56383      11.64388      -1.01315
Nuclear contribution   :    -26.12251     -12.19911       0.91049
                        -----------------------------------------
Total Dipole Moment    :     -0.55868      -0.55522      -0.10266
                        -----------------------------------------
Magnitude (a.u.)       :      0.79432
Magnitude (Debye)      :      2.01900

Rotational constants in cm-1:     0.018097     0.008511     0.006232
Rotational constants in MHz :   542.529509   255.167288   186.839385

                             ****ORCA TERMINATED NORMALLY****
TOTAL RUN TIME: 0 days 0 hours 0 minutes 34 seconds 352 msec
