                         Program Version 4.2.1 -  RELEASE  -
|  1> ! wB97X-D3 SP def2-SVP
|  2> %pal
|  3> nprocs 16
|  4> end
|  5>
|  6> * xyz 0 1
|  7> S 	 -114.35 	 47.923 	 134.893
|  8> C 	 -113.983 	 47.9948 	 133.178
|  9> C 	 -114.649 	 49.0866 	 132.543
| 10> C 	 -115.309 	 49.9779 	 133.505
| 11> C 	 -114.996 	 49.5842 	 134.822
| 12> H 	 -115.775 	 50.8927 	 133.234
| 13> C 	 -114.566 	 49.4337 	 131.083
| 14> H 	 -113.491 	 49.7017 	 130.992
| 15> H 	 -115.095 	 50.3762 	 130.855
| 16> C 	 -114.897 	 48.3635 	 130.027
| 17> H 	 -114.755 	 48.6711 	 129.05
| 18> H 	 -114.119 	 47.622 	 130.11
| 19> C 	 -116.281 	 47.7668 	 130.028
| 20> H 	 -116.464 	 47.0532 	 129.224
| 21> H 	 -116.553 	 47.2285 	 130.979
| 22> H 	 -117.029 	 48.5197 	 129.826
| 23> S 	 -116.179 	 49.5854 	 137.387
| 24> C 	 -116.207 	 51.0195 	 138.37
| 25> C 	 -115.862 	 52.1047 	 137.584
| 26> C 	 -115.278 	 51.7357 	 136.317
| 27> C 	 -115.35 	 50.3582 	 136.001
| 28> H 	 -115.874 	 53.0969 	 137.957
| 29> C 	 -114.774 	 52.7961 	 135.326
| 30> H 	 -114.301 	 52.3451 	 134.447
| 31> H 	 -113.909 	 53.2635 	 135.774
| 32> C 	 -115.772 	 53.8298 	 134.914
| 33> H 	 -116.2 	 54.3494 	 135.756
| 34> H 	 -116.491 	 53.2223 	 134.427
| 35> C 	 -115.25 	 54.7945 	 133.848
| 36> H 	 -115.917 	 55.6469 	 133.656
| 37> H 	 -115.13 	 54.133 	 132.997
| 38> H 	 -114.312 	 55.2672 	 134.05
| 39> H 	 -113.409 	 47.2138 	 132.692
| 40> H 	 -116.791 	 51.1469 	 139.253
| 41> *
| 42>
| 43>                          ****END OF INPUT****

CARTESIAN COORDINATES (ANGSTROEM)
---------------------------------
  S    -114.350000   47.923000  134.893000
  C    -113.983000   47.994800  133.178000
  C    -114.649000   49.086600  132.543000
  C    -115.309000   49.977900  133.505000
  C    -114.996000   49.584200  134.822000
  H    -115.775000   50.892700  133.234000
  C    -114.566000   49.433700  131.083000
  H    -113.491000   49.701700  130.992000
  H    -115.095000   50.376200  130.855000
  C    -114.897000   48.363500  130.027000
  H    -114.755000   48.671100  129.050000
  H    -114.119000   47.622000  130.110000
  C    -116.281000   47.766800  130.028000
  H    -116.464000   47.053200  129.224000
  H    -116.553000   47.228500  130.979000
  H    -117.029000   48.519700  129.826000
  S    -116.179000   49.585400  137.387000
  C    -116.207000   51.019500  138.370000
  C    -115.862000   52.104700  137.584000
  C    -115.278000   51.735700  136.317000
  C    -115.350000   50.358200  136.001000
  H    -115.874000   53.096900  137.957000
  C    -114.774000   52.796100  135.326000
  H    -114.301000   52.345100  134.447000
  H    -113.909000   53.263500  135.774000
  C    -115.772000   53.829800  134.914000
  H    -116.200000   54.349400  135.756000
  H    -116.491000   53.222300  134.427000
  C    -115.250000   54.794500  133.848000
  H    -115.917000   55.646900  133.656000
  H    -115.130000   54.133000  132.997000
  H    -114.312000   55.267200  134.050000
  H    -113.409000   47.213800  132.692000
  H    -116.791000   51.146900  139.253000

 Total Charge           Charge          ....    0
 Multiplicity           Mult            ....    1
 Number of Electrons    NEL             ....  134
 Basis Dimension        Dim             ....  322

ORBITAL ENERGIES
----------------

  NO   OCC          E(Eh)            E(eV)
   0   2.0000     -88.971509     -2421.0378
   1   2.0000     -88.961926     -2420.7771
   2   2.0000     -10.339270      -281.3458
   3   2.0000     -10.333075      -281.1773
   4   2.0000     -10.320865      -280.8450
   5   2.0000     -10.316573      -280.7282
   6   2.0000     -10.313460      -280.6435
   7   2.0000     -10.307899      -280.4922
   8   2.0000     -10.303693      -280.3777
   9   2.0000     -10.298239      -280.2293
  10   2.0000     -10.294207      -280.1196
  11   2.0000     -10.285331      -279.8781
  12   2.0000     -10.281444      -279.7723
  13   2.0000     -10.279839      -279.7286
  14   2.0000     -10.277634      -279.6687
  15   2.0000     -10.276706      -279.6434
  16   2.0000      -8.085412      -220.0152
  17   2.0000      -8.076370      -219.7692
  18   2.0000      -6.044014      -164.4660
  19   2.0000      -6.040222      -164.3628
  20   2.0000      -6.035937      -164.2462
  21   2.0000      -6.034971      -164.2199
  22   2.0000      -6.030855      -164.1079
  23   2.0000      -6.027091      -164.0055
  24   2.0000      -0.998719       -27.1765
  25   2.0000      -0.977256       -26.5925
  26   2.0000      -0.916009       -24.9259
  27   2.0000      -0.912664       -24.8349
  28   2.0000      -0.868651       -23.6372
  29   2.0000      -0.853937       -23.2368
  30   2.0000      -0.844548       -22.9813
  31   2.0000      -0.813386       -22.1333
  32   2.0000      -0.782581       -21.2951
  33   2.0000      -0.770890       -20.9770
  34   2.0000      -0.709754       -19.3134
  35   2.0000      -0.705182       -19.1890
  36   2.0000      -0.698363       -19.0034
  37   2.0000      -0.660361       -17.9693
  38   2.0000      -0.640657       -17.4332
  39   2.0000      -0.613632       -16.6978
  40   2.0000      -0.596275       -16.2255
  41   2.0000      -0.576232       -15.6801
  42   2.0000      -0.573636       -15.6094
  43   2.0000      -0.553637       -15.0652
  44   2.0000      -0.546581       -14.8732
  45   2.0000      -0.524691       -14.2776
  46   2.0000      -0.516148       -14.0451
  47   2.0000      -0.509758       -13.8712
  48   2.0000      -0.507975       -13.8227
  49   2.0000      -0.500193       -13.6110
  50   2.0000      -0.492605       -13.4045
  51   2.0000      -0.478522       -13.0213
  52   2.0000      -0.473841       -12.8939
  53   2.0000      -0.466412       -12.6917
  54   2.0000      -0.459031       -12.4909
  55   2.0000      -0.450644       -12.2626
  56   2.0000      -0.446417       -12.1476
  57   2.0000      -0.438137       -11.9223
  58   2.0000      -0.432694       -11.7742
  59   2.0000      -0.424219       -11.5436
  60   2.0000      -0.419675       -11.4199
  61   2.0000      -0.416450       -11.3322
  62   2.0000      -0.407946       -11.1008
  63   2.0000      -0.351483        -9.5643
  64   2.0000      -0.329254        -8.9594
  65   2.0000      -0.325413        -8.8549
  66   2.0000      -0.285036        -7.7562
  67   0.0000       0.016562         0.4507
  68   0.0000       0.063535         1.7289
  69   0.0000       0.099086         2.6963
  70   0.0000       0.116798         3.1782
  71   0.0000       0.127717         3.4753

MULLIKEN ATOMIC CHARGES
-----------------------
   0 S :    0.121878
   1 C :   -0.123656
   2 C :   -0.092472
   3 C :    0.048535
   4 C :   -0.149896
   5 H :    0.007542
   6 C :    0.033099
   7 H :    0.049380
   8 H :    0.021322
   9 C :   -0.012750
  10 H :    0.004760
  11 H :    0.009512
  12 C :   -0.061963
  13 H :    0.028476
  14 H :    0.047088
  15 H :    0.022023
  16 S :    0.080643
  17 C :   -0.069421
  18 C :   -0.032984
  19 C :   -0.053378
  20 C :   -0.128995
  21 H :    0.014565
  22 C :    0.045240
  23 H :    0.011982
  24 H :    0.015516
  25 C :   -0.049715
  26 H :    0.027368
  27 H :    0.016726
  28 C :   -0.031366
  29 H :    0.039066
  30 H :    0.022219
  31 H :    0.021954
  32 H :    0.056222
  33 H :    0.061480
Sum of atomic charges:    0.0000000

LOEWDIN ATOMIC CHARGES
----------------------
   0 S :    0.398270
   1 C :   -0.201183
   2 C :   -0.053350
   3 C :   -0.047749
   4 C :   -0.179339
   5 H :    0.025817
   6 C :   -0.038802
   7 H :    0.046365
   8 H :    0.028597
   9 C :   -0.040848
  10 H :    0.018724
  11 H :    0.020462
  12 C :   -0.069034
  13 H :    0.027267
  14 H :    0.031534
  15 H :    0.022740
  16 S :    0.388081
  17 C :   -0.185001
  18 C :   -0.066840
  19 C :   -0.052617
  20 C :   -0.188052
  21 H :    0.025415
  22 C :   -0.036693
  23 H :    0.026933
  24 H :    0.025415
  25 C :   -0.036747
  26 H :    0.019255
  27 H :    0.020472
  28 C :   -0.060070
  29 H :    0.030161
  30 H :    0.025100
  31 H :    0.019136
  32 H :    0.026763
  33 H :    0.029818

  Mayer bond orders larger than 0.100000
B(  0-S ,  1-C ) :   1.1312 B(  0-S ,  4-C ) :   1.1500 B(  1-C ,  2-C ) :   1.5860
B(  1-C ,  4-C ) :   0.1004 B(  1-C , 32-H ) :   0.9728 B(  2-C ,  3-C ) :   1.2317
B(  2-C ,  6-C ) :   1.0177 B(  3-C ,  4-C ) :   1.5346 B(  3-C ,  5-H ) :   0.9950
B(  4-C , 20-C ) :   1.0836 B(  6-C ,  7-H ) :   0.9351 B(  6-C ,  8-H ) :   0.9470
B(  6-C ,  9-C ) :   1.0777 B(  9-C , 10-H ) :   0.9484 B(  9-C , 11-H ) :   0.9494
B(  9-C , 12-C ) :   1.0847 B( 12-C , 13-H ) :   0.9722 B( 12-C , 14-H ) :   0.9744
B( 12-C , 15-H ) :   0.9724 B( 16-S , 17-C ) :   1.1612 B( 16-S , 20-C ) :   1.1272
B( 17-C , 18-C ) :   1.5947 B( 17-C , 33-H ) :   0.9653 B( 18-C , 19-C ) :   1.2603
B( 18-C , 21-H ) :   0.9902 B( 19-C , 20-C ) :   1.5721 B( 19-C , 22-C ) :   1.0439
B( 22-C , 23-H ) :   0.9380 B( 22-C , 24-H ) :   0.9234 B( 22-C , 25-C ) :   1.0639
B( 25-C , 26-H ) :   0.9516 B( 25-C , 27-H ) :   0.9574 B( 25-C , 28-C ) :   1.0800
B( 28-C , 29-H ) :   0.9743 B( 28-C , 30-H ) :   0.9757 B( 28-C , 31-H ) :   0.9763

Dispersion correction           -0.014093012
FINAL SINGLE POINT ENERGY     -1339.864431420653

DIPOLE MOMENT
-------------
                                X             Y             Z
Electronic contribution:      1.18550     -14.93932      24.51181
Nuclear contribution   :     -1.17036      15.49119     -25.14798
                        -----------------------------------------
Total Dipole Moment    :      0.01514       0.55188      -0.63617
                        -----------------------------------------
Magnitude (a.u.)       :      0.84232
Magnitude (Debye)      :      2.14101

Rotational constants in cm-1:     0.018060     0.008548     0.006320
Rotational constants in MHz :   541.421779   256.273498   189.470399

                             ****ORCA TERMINATED NORMALLY****
TOTAL RUN TIME: 0 days 0 hours 0 minutes 34 seconds 814 msec
