                         Program Version 4.2.1 -  RELEASE  -
|  1> ! wB97X-D3 SP def2-SVP
|  2> %pal
|  3> nprocs 16
|  4> end
|  5>
|  6> * xyz 0 1
|  7> S 	 -109.232 	 43.3227 	 128.549
|  8> C 	 -108.21 	 43.3048 	 129.976
|  9> C 	 -106.967 	 43.8134 	 129.755
| 10> C 	 -106.76 	 43.9166 	 128.327
| 11> C 	 -107.837 	 43.6178 	 127.507
| 12> H 	 -105.859 	 44.3815 	 127.954
| 13> C 	 -105.928 	 44.0913 	 130.781
| 14> H 	 -104.926 	 43.732 	 130.369
| 15> H 	 -106.191 	 43.5651 	 131.699
| 16> C 	 -105.673 	 45.537 	 131.236
| 17> H 	 -105.479 	 46.0095 	 130.254
| 18> H 	 -106.615 	 45.978 	 131.508
| 19> C 	 -104.528 	 45.8436 	 132.286
| 20> H 	 -103.544 	 45.3719 	 131.922
| 21> H 	 -104.557 	 46.945 	 132.429
| 22> H 	 -104.788 	 45.3791 	 133.33
| 23> S 	 -108.961 	 42.6418 	 125.234
| 24> C 	 -108.557 	 43.4173 	 123.744
| 25> C 	 -107.75 	 44.5095 	 123.93
| 26> C 	 -107.258 	 44.6227 	 125.274
| 27> C 	 -107.834 	 43.6681 	 126.047
| 28> H 	 -107.435 	 45.1267 	 123.086
| 29> C 	 -106.513 	 45.9006 	 125.821
| 30> H 	 -105.549 	 45.6393 	 126.32
| 31> H 	 -107.073 	 46.3438 	 126.651
| 32> C 	 -106.292 	 47.0997 	 124.816
| 33> H 	 -107.289 	 47.4093 	 124.61
| 34> H 	 -105.734 	 46.8268 	 123.896
| 35> C 	 -105.672 	 48.2686 	 125.553
| 36> H 	 -104.723 	 47.8918 	 125.853
| 37> H 	 -106.317 	 48.6498 	 126.456
| 38> H 	 -105.648 	 49.0989 	 124.86
| 39> H 	 -108.599 	 43.2368 	 130.952
| 40> H 	 -109.133 	 43.2521 	 122.831
| 41> *
| 42>
| 43>                          ****END OF INPUT****

CARTESIAN COORDINATES (ANGSTROEM)
---------------------------------
  S    -109.232000   43.322700  128.549000
  C    -108.210000   43.304800  129.976000
  C    -106.967000   43.813400  129.755000
  C    -106.760000   43.916600  128.327000
  C    -107.837000   43.617800  127.507000
  H    -105.859000   44.381500  127.954000
  C    -105.928000   44.091300  130.781000
  H    -104.926000   43.732000  130.369000
  H    -106.191000   43.565100  131.699000
  C    -105.673000   45.537000  131.236000
  H    -105.479000   46.009500  130.254000
  H    -106.615000   45.978000  131.508000
  C    -104.528000   45.843600  132.286000
  H    -103.544000   45.371900  131.922000
  H    -104.557000   46.945000  132.429000
  H    -104.788000   45.379100  133.330000
  S    -108.961000   42.641800  125.234000
  C    -108.557000   43.417300  123.744000
  C    -107.750000   44.509500  123.930000
  C    -107.258000   44.622700  125.274000
  C    -107.834000   43.668100  126.047000
  H    -107.435000   45.126700  123.086000
  C    -106.513000   45.900600  125.821000
  H    -105.549000   45.639300  126.320000
  H    -107.073000   46.343800  126.651000
  C    -106.292000   47.099700  124.816000
  H    -107.289000   47.409300  124.610000
  H    -105.734000   46.826800  123.896000
  C    -105.672000   48.268600  125.553000
  H    -104.723000   47.891800  125.853000
  H    -106.317000   48.649800  126.456000
  H    -105.648000   49.098900  124.860000
  H    -108.599000   43.236800  130.952000
  H    -109.133000   43.252100  122.831000

 Total Charge           Charge          ....    0
 Multiplicity           Mult            ....    1
 Number of Electrons    NEL             ....  134
 Basis Dimension        Dim             ....  322

ORBITAL ENERGIES
----------------

  NO   OCC          E(Eh)            E(eV)
   0   2.0000     -88.967246     -2420.9219
   1   2.0000     -88.965765     -2420.8815
   2   2.0000     -10.329697      -281.0853
   3   2.0000     -10.322767      -280.8968
   4   2.0000     -10.314885      -280.6823
   5   2.0000     -10.308024      -280.4956
   6   2.0000     -10.305481      -280.4264
   7   2.0000     -10.305356      -280.4230
   8   2.0000     -10.303243      -280.3655
   9   2.0000     -10.298560      -280.2381
  10   2.0000     -10.296117      -280.1716
  11   2.0000     -10.295959      -280.1673
  12   2.0000     -10.290884      -280.0292
  13   2.0000     -10.290316      -280.0137
  14   2.0000     -10.289930      -280.0032
  15   2.0000     -10.285472      -279.8819
  16   2.0000      -8.082990      -219.9493
  17   2.0000      -8.080140      -219.8718
  18   2.0000      -6.041322      -164.3927
  19   2.0000      -6.038824      -164.3248
  20   2.0000      -6.037514      -164.2891
  21   2.0000      -6.034897      -164.2179
  22   2.0000      -6.033718      -164.1858
  23   2.0000      -6.030547      -164.0995
  24   2.0000      -1.012222       -27.5439
  25   2.0000      -0.987053       -26.8591
  26   2.0000      -0.909827       -24.7576
  27   2.0000      -0.908800       -24.7297
  28   2.0000      -0.870764       -23.6947
  29   2.0000      -0.856966       -23.3192
  30   2.0000      -0.841548       -22.8997
  31   2.0000      -0.812366       -22.1056
  32   2.0000      -0.780958       -21.2510
  33   2.0000      -0.772693       -21.0260
  34   2.0000      -0.703594       -19.1458
  35   2.0000      -0.699075       -19.0228
  36   2.0000      -0.694111       -18.8877
  37   2.0000      -0.655886       -17.8476
  38   2.0000      -0.635783       -17.3005
  39   2.0000      -0.623434       -16.9645
  40   2.0000      -0.600536       -16.3414
  41   2.0000      -0.577115       -15.7041
  42   2.0000      -0.571264       -15.5449
  43   2.0000      -0.555233       -15.1087
  44   2.0000      -0.528993       -14.3946
  45   2.0000      -0.523014       -14.2319
  46   2.0000      -0.516313       -14.0496
  47   2.0000      -0.508301       -13.8316
  48   2.0000      -0.500087       -13.6081
  49   2.0000      -0.495300       -13.4778
  50   2.0000      -0.483360       -13.1529
  51   2.0000      -0.479221       -13.0403
  52   2.0000      -0.473066       -12.8728
  53   2.0000      -0.463977       -12.6255
  54   2.0000      -0.460148       -12.5213
  55   2.0000      -0.456794       -12.4300
  56   2.0000      -0.447593       -12.1796
  57   2.0000      -0.437156       -11.8956
  58   2.0000      -0.434316       -11.8183
  59   2.0000      -0.427326       -11.6281
  60   2.0000      -0.421758       -11.4766
  61   2.0000      -0.417613       -11.3638
  62   2.0000      -0.409893       -11.1537
  63   2.0000      -0.354360        -9.6426
  64   2.0000      -0.335998        -9.1430
  65   2.0000      -0.326316        -8.8795
  66   2.0000      -0.289828        -7.8866
  67   0.0000       0.025777         0.7014
  68   0.0000       0.077333         2.1043
  69   0.0000       0.103500         2.8164
  70   0.0000       0.120801         3.2872
  71   0.0000       0.127918         3.4808

MULLIKEN ATOMIC CHARGES
-----------------------
   0 S :    0.101093
   1 C :   -0.100735
   2 C :   -0.075217
   3 C :    0.005820
   4 C :   -0.113023
   5 H :   -0.008564
   6 C :    0.043127
   7 H :    0.035395
   8 H :    0.017618
   9 C :   -0.080631
  10 H :    0.015998
  11 H :    0.017541
  12 C :   -0.083787
  13 H :    0.056269
  14 H :    0.058036
  15 H :    0.049183
  16 S :    0.114626
  17 C :   -0.081407
  18 C :   -0.061088
  19 C :   -0.002161
  20 C :   -0.148790
  21 H :    0.027580
  22 C :   -0.019250
  23 H :    0.037210
  24 H :    0.041059
  25 C :   -0.077450
  26 H :    0.023769
  27 H :    0.050551
  28 C :   -0.046496
  29 H :    0.028269
  30 H :    0.047538
  31 H :    0.036901
  32 H :    0.029353
  33 H :    0.061662
Sum of atomic charges:    0.0000000

LOEWDIN ATOMIC CHARGES
----------------------
   0 S :    0.387652
   1 C :   -0.183503
   2 C :   -0.064052
   3 C :   -0.064698
   4 C :   -0.185018
   5 H :    0.022343
   6 C :   -0.038267
   7 H :    0.037282
   8 H :    0.027582
   9 C :   -0.049820
  10 H :    0.021451
  11 H :    0.017774
  12 C :   -0.076179
  13 H :    0.036266
  14 H :    0.035484
  15 H :    0.035233
  16 S :    0.423670
  17 C :   -0.194942
  18 C :   -0.069040
  19 C :   -0.056427
  20 C :   -0.200317
  21 H :    0.033767
  22 C :   -0.032516
  23 H :    0.025792
  24 H :    0.034524
  25 C :   -0.042952
  26 H :    0.020370
  27 H :    0.027658
  28 C :   -0.061675
  29 H :    0.018822
  30 H :    0.038468
  31 H :    0.025768
  32 H :    0.017733
  33 H :    0.031767

  Mayer bond orders larger than 0.100000
B(  0-S ,  1-C ) :   1.1293 B(  0-S ,  4-C ) :   1.1310 B(  1-C ,  2-C ) :   1.6294
B(  1-C , 32-H ) :   0.9625 B(  2-C ,  3-C ) :   1.2357 B(  2-C ,  6-C ) :   1.0417
B(  3-C ,  4-C ) :   1.5746 B(  3-C ,  5-H ) :   0.9905 B(  4-C , 20-C ) :   1.0682
B(  6-C ,  7-H ) :   0.9387 B(  6-C ,  8-H ) :   0.9370 B(  6-C ,  9-C ) :   1.0568
B(  9-C , 10-H ) :   0.9556 B(  9-C , 11-H ) :   0.9534 B(  9-C , 12-C ) :   1.0662
B( 12-C , 13-H ) :   0.9722 B( 12-C , 14-H ) :   0.9726 B( 12-C , 15-H ) :   0.9739
B( 16-S , 17-C ) :   1.1514 B( 16-S , 20-C ) :   1.1462 B( 17-C , 18-C ) :   1.6203
B( 17-C , 33-H ) :   0.9618 B( 18-C , 19-C ) :   1.2557 B( 18-C , 21-H ) :   0.9816
B( 19-C , 20-C ) :   1.6068 B( 19-C , 22-C ) :   1.0122 B( 22-C , 23-H ) :   0.9346
B( 22-C , 24-H ) :   0.9396 B( 22-C , 25-C ) :   1.0727 B( 25-C , 26-H ) :   0.9475
B( 25-C , 27-H ) :   0.9519 B( 25-C , 28-C ) :   1.0850 B( 28-C , 29-H ) :   0.9766
B( 28-C , 30-H ) :   0.9715 B( 28-C , 31-H ) :   0.9713

Dispersion correction           -0.013533406
FINAL SINGLE POINT ENERGY     -1339.864195277031

DIPOLE MOMENT
-------------
                                X             Y             Z
Electronic contribution:    -21.43503     -22.88677     -11.24687
Nuclear contribution   :     21.76062      23.65502      11.30151
                        -----------------------------------------
Total Dipole Moment    :      0.32559       0.76825       0.05464
                        -----------------------------------------
Magnitude (a.u.)       :      0.83618
Magnitude (Debye)      :      2.12540

Rotational constants in cm-1:     0.016820     0.008881     0.006140
Rotational constants in MHz :   504.243404   266.249022   184.074387

                             ****ORCA TERMINATED NORMALLY****
TOTAL RUN TIME: 0 days 0 hours 0 minutes 33 seconds 86 msec
