                         Program Version 4.2.1 -  RELEASE  -
|  1> ! wB97X-D3 SP def2-SVP
|  2> %pal
|  3> nprocs 16
|  4> end
|  5>
|  6> * xyz 0 1
|  7> S 	 -37.9793 	 29.2969 	 92.0394
|  8> C 	 -38.1943 	 27.8329 	 93.0072
|  9> C 	 -39.363 	 27.1823 	 92.7506
| 10> C 	 -40.0946 	 27.9119 	 91.7616
| 11> C 	 -39.4774 	 29.0521 	 91.3387
| 12> H 	 -41.1408 	 27.8764 	 91.3925
| 13> C 	 -39.8224 	 25.8883 	 93.3123
| 14> H 	 -38.9138 	 25.2159 	 93.3138
| 15> H 	 -40.5989 	 25.4396 	 92.7049
| 16> C 	 -40.5234 	 26.0031 	 94.7247
| 17> H 	 -40.8617 	 25.079 	 95.1514
| 18> H 	 -39.8209 	 26.398 	 95.3625
| 19> C 	 -41.7317 	 26.9173 	 94.7221
| 20> H 	 -41.5783 	 27.9268 	 94.3213
| 21> H 	 -42.5986 	 26.5955 	 94.1333
| 22> H 	 -42.2088 	 26.9933 	 95.7353
| 23> S 	 -40.4355 	 31.5355 	 90.8849
| 24> C 	 -41.558 	 31.7723 	 89.6059
| 25> C 	 -41.2926 	 30.7775 	 88.6286
| 26> C 	 -40.7078 	 29.612 	 89.1762
| 27> C 	 -40.0529 	 29.8952 	 90.3481
| 28> H 	 -41.7704 	 30.9081 	 87.6859
| 29> C 	 -40.622 	 28.2828 	 88.4144
| 30> H 	 -41.0145 	 28.3743 	 87.3773
| 31> H 	 -41.3409 	 27.6469 	 88.8513
| 32> C 	 -39.3486 	 27.4694 	 88.3939
| 33> H 	 -39.5025 	 26.5637 	 87.7995
| 34> H 	 -39.1532 	 27.0631 	 89.4057
| 35> C 	 -38.1381 	 28.2476 	 87.7802
| 36> H 	 -37.4826 	 27.5788 	 87.2266
| 37> H 	 -37.658 	 28.9022 	 88.517
| 38> H 	 -38.4529 	 28.9018 	 87.0023
| 39> H 	 -37.4562 	 27.4139 	 93.6967
| 40> H 	 -41.9417 	 32.6584 	 89.3
| 41> *
| 42>
| 43>                          ****END OF INPUT****

CARTESIAN COORDINATES (ANGSTROEM)
---------------------------------
  S    -37.979300   29.296900   92.039400
  C    -38.194300   27.832900   93.007200
  C    -39.363000   27.182300   92.750600
  C    -40.094600   27.911900   91.761600
  C    -39.477400   29.052100   91.338700
  H    -41.140800   27.876400   91.392500
  C    -39.822400   25.888300   93.312300
  H    -38.913800   25.215900   93.313800
  H    -40.598900   25.439600   92.704900
  C    -40.523400   26.003100   94.724700
  H    -40.861700   25.079000   95.151400
  H    -39.820900   26.398000   95.362500
  C    -41.731700   26.917300   94.722100
  H    -41.578300   27.926800   94.321300
  H    -42.598600   26.595500   94.133300
  H    -42.208800   26.993300   95.735300
  S    -40.435500   31.535500   90.884900
  C    -41.558000   31.772300   89.605900
  C    -41.292600   30.777500   88.628600
  C    -40.707800   29.612000   89.176200
  C    -40.052900   29.895200   90.348100
  H    -41.770400   30.908100   87.685900
  C    -40.622000   28.282800   88.414400
  H    -41.014500   28.374300   87.377300
  H    -41.340900   27.646900   88.851300
  C    -39.348600   27.469400   88.393900
  H    -39.502500   26.563700   87.799500
  H    -39.153200   27.063100   89.405700
  C    -38.138100   28.247600   87.780200
  H    -37.482600   27.578800   87.226600
  H    -37.658000   28.902200   88.517000
  H    -38.452900   28.901800   87.002300
  H    -37.456200   27.413900   93.696700
  H    -41.941700   32.658400   89.300000

 Total Charge           Charge          ....    0
 Multiplicity           Mult            ....    1
 Number of Electrons    NEL             ....  134
 Basis Dimension        Dim             ....  322

ORBITAL ENERGIES
----------------

  NO   OCC          E(Eh)            E(eV)
   0   2.0000     -88.969331     -2420.9786
   1   2.0000     -88.963014     -2420.8067
   2   2.0000     -10.321224      -280.8548
   3   2.0000     -10.315820      -280.7077
   4   2.0000     -10.312885      -280.6279
   5   2.0000     -10.310768      -280.5703
   6   2.0000     -10.305545      -280.4281
   7   2.0000     -10.300888      -280.3014
   8   2.0000     -10.297625      -280.2126
   9   2.0000     -10.294868      -280.1376
  10   2.0000     -10.289232      -279.9843
  11   2.0000     -10.287948      -279.9493
  12   2.0000     -10.282642      -279.8049
  13   2.0000     -10.282350      -279.7970
  14   2.0000     -10.276604      -279.6406
  15   2.0000     -10.268775      -279.4276
  16   2.0000      -8.085099      -220.0067
  17   2.0000      -8.078258      -219.8206
  18   2.0000      -6.043435      -164.4502
  19   2.0000      -6.039549      -164.3445
  20   2.0000      -6.036671      -164.2662
  21   2.0000      -6.035892      -164.2450
  22   2.0000      -6.032675      -164.1574
  23   2.0000      -6.029087      -164.0598
  24   2.0000      -1.019016       -27.7288
  25   2.0000      -0.991098       -26.9692
  26   2.0000      -0.916273       -24.9331
  27   2.0000      -0.907086       -24.6831
  28   2.0000      -0.873485       -23.7687
  29   2.0000      -0.852467       -23.1968
  30   2.0000      -0.844913       -22.9912
  31   2.0000      -0.811575       -22.0841
  32   2.0000      -0.786385       -21.3986
  33   2.0000      -0.778262       -21.1776
  34   2.0000      -0.710660       -19.3380
  35   2.0000      -0.708816       -19.2879
  36   2.0000      -0.690888       -18.8000
  37   2.0000      -0.668882       -18.2012
  38   2.0000      -0.643463       -17.5095
  39   2.0000      -0.608127       -16.5480
  40   2.0000      -0.588915       -16.0252
  41   2.0000      -0.579689       -15.7742
  42   2.0000      -0.553935       -15.0733
  43   2.0000      -0.548641       -14.9293
  44   2.0000      -0.545475       -14.8431
  45   2.0000      -0.544019       -14.8035
  46   2.0000      -0.514996       -14.0138
  47   2.0000      -0.509424       -13.8621
  48   2.0000      -0.504601       -13.7309
  49   2.0000      -0.492816       -13.4102
  50   2.0000      -0.487392       -13.2626
  51   2.0000      -0.476957       -12.9787
  52   2.0000      -0.472486       -12.8570
  53   2.0000      -0.467274       -12.7152
  54   2.0000      -0.464026       -12.6268
  55   2.0000      -0.443920       -12.0797
  56   2.0000      -0.440353       -11.9826
  57   2.0000      -0.435306       -11.8453
  58   2.0000      -0.430824       -11.7233
  59   2.0000      -0.426651       -11.6098
  60   2.0000      -0.422279       -11.4908
  61   2.0000      -0.417130       -11.3507
  62   2.0000      -0.409334       -11.1385
  63   2.0000      -0.343741        -9.3537
  64   2.0000      -0.333795        -9.0830
  65   2.0000      -0.329203        -8.9581
  66   2.0000      -0.292827        -7.9682
  67   0.0000       0.031013         0.8439
  68   0.0000       0.063119         1.7175
  69   0.0000       0.105548         2.8721
  70   0.0000       0.125744         3.4217
  71   0.0000       0.127647         3.4735

MULLIKEN ATOMIC CHARGES
-----------------------
   0 S :    0.129299
   1 C :   -0.132897
   2 C :   -0.063029
   3 C :   -0.015646
   4 C :   -0.148885
   5 H :    0.029604
   6 C :    0.056046
   7 H :    0.044524
   8 H :    0.022843
   9 C :    0.003714
  10 H :    0.026920
  11 H :    0.009419
  12 C :   -0.102895
  13 H :    0.047468
  14 H :    0.017763
  15 H :    0.036772
  16 S :    0.102158
  17 C :   -0.051063
  18 C :   -0.053893
  19 C :   -0.039730
  20 C :   -0.153425
  21 H :    0.014567
  22 C :    0.072449
  23 H :    0.020667
  24 H :    0.013994
  25 C :   -0.073647
  26 H :    0.021967
  27 H :    0.043120
  28 C :   -0.025931
  29 H :    0.027426
  30 H :    0.041505
  31 H :    0.008096
  32 H :    0.043177
  33 H :    0.027545
Sum of atomic charges:    0.0000000

LOEWDIN ATOMIC CHARGES
----------------------
   0 S :    0.434097
   1 C :   -0.194843
   2 C :   -0.063444
   3 C :   -0.074415
   4 C :   -0.224984
   5 H :    0.039521
   6 C :   -0.029878
   7 H :    0.040001
   8 H :    0.029453
   9 C :   -0.027423
  10 H :    0.024450
  11 H :    0.012526
  12 C :   -0.077082
  13 H :    0.027603
  14 H :    0.021589
  15 H :    0.032861
  16 S :    0.415068
  17 C :   -0.183051
  18 C :   -0.058038
  19 C :   -0.052319
  20 C :   -0.196484
  21 H :    0.024499
  22 C :   -0.034380
  23 H :    0.033804
  24 H :    0.028081
  25 C :   -0.043934
  26 H :    0.026126
  27 H :    0.027972
  28 C :   -0.066513
  29 H :    0.026043
  30 H :    0.027761
  31 H :    0.019164
  32 H :    0.029282
  33 H :    0.006887

  Mayer bond orders larger than 0.100000
B(  0-S ,  1-C ) :   1.1272 B(  0-S ,  4-C ) :   1.1620 B(  1-C ,  2-C ) :   1.6355
B(  1-C , 32-H ) :   0.9644 B(  2-C ,  3-C ) :   1.2060 B(  2-C ,  6-C ) :   1.0207
B(  3-C ,  4-C ) :   1.6048 B(  3-C ,  5-H ) :   0.9859 B(  4-C , 20-C ) :   1.0081
B(  6-C ,  7-H ) :   0.9418 B(  6-C ,  8-H ) :   0.9447 B(  6-C ,  9-C ) :   1.0609
B(  9-C , 10-H ) :   0.9577 B(  9-C , 11-H ) :   0.9556 B(  9-C , 12-C ) :   1.0770
B( 12-C , 13-H ) :   0.9729 B( 12-C , 14-H ) :   0.9736 B( 12-C , 15-H ) :   0.9719
B( 16-S , 17-C ) :   1.1818 B( 16-S , 20-C ) :   1.1394 B( 17-C , 18-C ) :   1.5896
B( 17-C , 20-C ) :   0.1125 B( 17-C , 33-H ) :   0.9690 B( 18-C , 19-C ) :   1.2502
B( 18-C , 21-H ) :   0.9855 B( 19-C , 20-C ) :   1.5951 B( 19-C , 22-C ) :   1.0269
B( 22-C , 23-H ) :   0.9369 B( 22-C , 24-H ) :   0.9180 B( 22-C , 25-C ) :   1.0996
B( 25-C , 26-H ) :   0.9494 B( 25-C , 27-H ) :   0.9462 B( 25-C , 28-C ) :   1.0703
B( 28-C , 29-H ) :   0.9774 B( 28-C , 30-H ) :   0.9734 B( 28-C , 31-H ) :   0.9749

Dispersion correction           -0.016085938
FINAL SINGLE POINT ENERGY     -1339.855119559527

DIPOLE MOMENT
-------------
                                X             Y             Z
Electronic contribution:      5.44265      19.58174       0.95557
Nuclear contribution   :     -5.75513     -20.08908      -1.13891
                        -----------------------------------------
Total Dipole Moment    :     -0.31248      -0.50733      -0.18334
                        -----------------------------------------
Magnitude (a.u.)       :      0.62341
Magnitude (Debye)      :      1.58459

Rotational constants in cm-1:     0.019535     0.009403     0.008445
Rotational constants in MHz :   585.635584   281.879971   253.185296

                             ****ORCA TERMINATED NORMALLY****
TOTAL RUN TIME: 0 days 0 hours 0 minutes 32 seconds 512 msec
