                         Program Version 4.2.1 -  RELEASE  -
|  1> ! wB97X-D3 SP def2-SVP
|  2> %pal
|  3> nprocs 16
|  4> end
|  5>
|  6> * xyz 0 1
|  7> S 	 6.1058 	 19.2811 	 52.0686
|  8> C 	 5.087 	 18.1998 	 53.0384
|  9> C 	 4.54015 	 17.1908 	 52.246
| 10> C 	 4.9169 	 17.3483 	 50.871
| 11> C 	 5.85725 	 18.3507 	 50.6133
| 12> H 	 4.6137 	 16.816 	 49.9546
| 13> C 	 3.644 	 16.133 	 52.808
| 14> H 	 4.10161 	 15.747 	 53.6805
| 15> H 	 3.66789 	 15.3488 	 52.1215
| 16> C 	 2.11826 	 16.6046 	 52.8665
| 17> H 	 2.14581 	 17.5704 	 53.2924
| 18> H 	 1.77536 	 16.7276 	 51.82
| 19> C 	 1.16849 	 15.6926 	 53.678
| 20> H 	 0.217022 	 16.1144 	 53.7634
| 21> H 	 1.11371 	 14.7157 	 53.1198
| 22> H 	 1.62259 	 15.5655 	 54.6606
| 23> S 	 8.13842 	 18.8981 	 49.1511
| 24> C 	 7.97063 	 19.3032 	 47.4991
| 25> C 	 6.6474 	 19.2509 	 47.078
| 26> C 	 5.71472 	 19.0233 	 48.143
| 27> C 	 6.34632 	 18.708 	 49.3108
| 28> H 	 6.40679 	 19.475 	 46.0344
| 29> C 	 4.19591 	 18.943 	 47.9395
| 30> H 	 3.86237 	 18.2259 	 48.6189
| 31> H 	 4.16897 	 18.4763 	 46.9715
| 32> C 	 3.34132 	 20.2584 	 47.9368
| 33> H 	 2.37535 	 20.0293 	 47.4901
| 34> H 	 3.97999 	 20.8762 	 47.3116
| 35> C 	 3.20154 	 20.716 	 49.4607
| 36> H 	 2.71282 	 19.8837 	 50.067
| 37> H 	 2.51675 	 21.5318 	 49.4347
| 38> H 	 4.12348 	 21.0796 	 49.9909
| 39> H 	 4.92384 	 18.4014 	 54.0595
| 40> H 	 8.82248 	 19.3786 	 46.8541
| 41> *
| 42>
| 43>                          ****END OF INPUT****

CARTESIAN COORDINATES (ANGSTROEM)
---------------------------------
  S      6.105800   19.281100   52.068600
  C      5.087000   18.199800   53.038400
  C      4.540150   17.190800   52.246000
  C      4.916900   17.348300   50.871000
  C      5.857250   18.350700   50.613300
  H      4.613700   16.816000   49.954600
  C      3.644000   16.133000   52.808000
  H      4.101610   15.747000   53.680500
  H      3.667890   15.348800   52.121500
  C      2.118260   16.604600   52.866500
  H      2.145810   17.570400   53.292400
  H      1.775360   16.727600   51.820000
  C      1.168490   15.692600   53.678000
  H      0.217022   16.114400   53.763400
  H      1.113710   14.715700   53.119800
  H      1.622590   15.565500   54.660600
  S      8.138420   18.898100   49.151100
  C      7.970630   19.303200   47.499100
  C      6.647400   19.250900   47.078000
  C      5.714720   19.023300   48.143000
  C      6.346320   18.708000   49.310800
  H      6.406790   19.475000   46.034400
  C      4.195910   18.943000   47.939500
  H      3.862370   18.225900   48.618900
  H      4.168970   18.476300   46.971500
  C      3.341320   20.258400   47.936800
  H      2.375350   20.029300   47.490100
  H      3.979990   20.876200   47.311600
  C      3.201540   20.716000   49.460700
  H      2.712820   19.883700   50.067000
  H      2.516750   21.531800   49.434700
  H      4.123480   21.079600   49.990900
  H      4.923840   18.401400   54.059500
  H      8.822480   19.378600   46.854100

 Total Charge           Charge          ....    0
 Multiplicity           Mult            ....    1
 Number of Electrons    NEL             ....  134
 Basis Dimension        Dim             ....  322

ORBITAL ENERGIES
----------------

  NO   OCC          E(Eh)            E(eV)
   0   2.0000     -88.965161     -2420.8651
   1   2.0000     -88.962239     -2420.7856
   2   2.0000     -10.326491      -280.9981
   3   2.0000     -10.324832      -280.9530
   4   2.0000     -10.315284      -280.6931
   5   2.0000     -10.314091      -280.6607
   6   2.0000     -10.305274      -280.4208
   7   2.0000     -10.303935      -280.3843
   8   2.0000     -10.296832      -280.1910
   9   2.0000     -10.295463      -280.1538
  10   2.0000     -10.294082      -280.1162
  11   2.0000     -10.289542      -279.9927
  12   2.0000     -10.285816      -279.8913
  13   2.0000     -10.283662      -279.8327
  14   2.0000     -10.282258      -279.7945
  15   2.0000     -10.280487      -279.7463
  16   2.0000      -8.079356      -219.8504
  17   2.0000      -8.077287      -219.7942
  18   2.0000      -6.037824      -164.2976
  19   2.0000      -6.035711      -164.2400
  20   2.0000      -6.033837      -164.1890
  21   2.0000      -6.031783      -164.1331
  22   2.0000      -6.030283      -164.0923
  23   2.0000      -6.028089      -164.0327
  24   2.0000      -1.004549       -27.3352
  25   2.0000      -0.981395       -26.7051
  26   2.0000      -0.909454       -24.7475
  27   2.0000      -0.903290       -24.5798
  28   2.0000      -0.868370       -23.6296
  29   2.0000      -0.848801       -23.0970
  30   2.0000      -0.841797       -22.9065
  31   2.0000      -0.810868       -22.0649
  32   2.0000      -0.782896       -21.3037
  33   2.0000      -0.772082       -21.0094
  34   2.0000      -0.707860       -19.2618
  35   2.0000      -0.704098       -19.1595
  36   2.0000      -0.697631       -18.9835
  37   2.0000      -0.660230       -17.9658
  38   2.0000      -0.647501       -17.6194
  39   2.0000      -0.612602       -16.6698
  40   2.0000      -0.592929       -16.1344
  41   2.0000      -0.571146       -15.5417
  42   2.0000      -0.557189       -15.1619
  43   2.0000      -0.548937       -14.9373
  44   2.0000      -0.541536       -14.7359
  45   2.0000      -0.528612       -14.3843
  46   2.0000      -0.518942       -14.1211
  47   2.0000      -0.509132       -13.8542
  48   2.0000      -0.500683       -13.6243
  49   2.0000      -0.497110       -13.5271
  50   2.0000      -0.494208       -13.4481
  51   2.0000      -0.475933       -12.9508
  52   2.0000      -0.471346       -12.8260
  53   2.0000      -0.465040       -12.6544
  54   2.0000      -0.458142       -12.4667
  55   2.0000      -0.447640       -12.1809
  56   2.0000      -0.439738       -11.9659
  57   2.0000      -0.437100       -11.8941
  58   2.0000      -0.431076       -11.7302
  59   2.0000      -0.426229       -11.5983
  60   2.0000      -0.421631       -11.4732
  61   2.0000      -0.418432       -11.3861
  62   2.0000      -0.414035       -11.2665
  63   2.0000      -0.344256        -9.3677
  64   2.0000      -0.331485        -9.0202
  65   2.0000      -0.327825        -8.9206
  66   2.0000      -0.291720        -7.9381
  67   0.0000       0.030748         0.8367
  68   0.0000       0.064903         1.7661
  69   0.0000       0.115701         3.1484
  70   0.0000       0.118228         3.2171
  71   0.0000       0.127374         3.4660

MULLIKEN ATOMIC CHARGES
-----------------------
   0 S :    0.107015
   1 C :   -0.121662
   2 C :   -0.090779
   3 C :    0.004194
   4 C :   -0.137690
   5 H :    0.028820
   6 C :    0.120382
   7 H :    0.021312
   8 H :   -0.001864
   9 C :   -0.091063
  10 H :    0.017306
  11 H :    0.030687
  12 C :   -0.015785
  13 H :    0.031857
  14 H :    0.038225
  15 H :    0.033148
  16 S :    0.099978
  17 C :   -0.079428
  18 C :   -0.050119
  19 C :   -0.042099
  20 C :   -0.194916
  21 H :    0.023626
  22 C :    0.091449
  23 H :   -0.018908
  24 H :    0.013144
  25 C :   -0.030066
  26 H :    0.039848
  27 H :    0.031293
  28 C :   -0.081581
  29 H :    0.045898
  30 H :    0.025632
  31 H :    0.057602
  32 H :    0.038098
  33 H :    0.056444
Sum of atomic charges:    0.0000000

LOEWDIN ATOMIC CHARGES
----------------------
   0 S :    0.401393
   1 C :   -0.181838
   2 C :   -0.057777
   3 C :   -0.068371
   4 C :   -0.201476
   5 H :    0.034491
   6 C :   -0.025103
   7 H :    0.027419
   8 H :    0.021338
   9 C :   -0.030832
  10 H :    0.012982
  11 H :    0.026108
  12 C :   -0.059759
  13 H :    0.019018
  14 H :    0.032225
  15 H :    0.026680
  16 S :    0.395107
  17 C :   -0.188001
  18 C :   -0.078741
  19 C :   -0.050120
  20 C :   -0.184769
  21 H :    0.032236
  22 C :   -0.026203
  23 H :    0.012437
  24 H :    0.027670
  25 C :   -0.026143
  26 H :    0.027117
  27 H :    0.024943
  28 C :   -0.071443
  29 H :    0.034377
  30 H :    0.016642
  31 H :    0.033776
  32 H :    0.018404
  33 H :    0.026214

  Mayer bond orders larger than 0.100000
B(  0-S ,  1-C ) :   1.1427 B(  0-S ,  4-C ) :   1.1520 B(  1-C ,  2-C ) :   1.5736
B(  1-C ,  4-C ) :   0.1031 B(  1-C , 32-H ) :   0.9819 B(  2-C ,  3-C ) :   1.2408
B(  2-C ,  6-C ) :   1.0324 B(  3-C ,  4-C ) :   1.5689 B(  3-C ,  5-H ) :   0.9849
B(  4-C , 20-C ) :   1.0502 B(  6-C ,  7-H ) :   0.9414 B(  6-C ,  8-H ) :   0.9297
B(  6-C ,  9-C ) :   1.0408 B(  9-C , 10-H ) :   0.9651 B(  9-C , 11-H ) :   0.9565
B(  9-C , 12-C ) :   1.0792 B( 12-C , 13-H ) :   0.9744 B( 12-C , 14-H ) :   0.9756
B( 12-C , 15-H ) :   0.9761 B( 16-S , 17-C ) :   1.1686 B( 16-S , 20-C ) :   1.1207
B( 17-C , 18-C ) :   1.6112 B( 17-C , 33-H ) :   0.9672 B( 18-C , 19-C ) :   1.2239
B( 18-C , 21-H ) :   0.9855 B( 19-C , 20-C ) :   1.6197 B( 19-C , 22-C ) :   1.0167
B( 22-C , 23-H ) :   0.9331 B( 22-C , 24-H ) :   0.9293 B( 22-C , 25-C ) :   1.0624
B( 25-C , 26-H ) :   0.9557 B( 25-C , 27-H ) :   0.9582 B( 25-C , 28-C ) :   1.0632
B( 28-C , 29-H ) :   0.9756 B( 28-C , 30-H ) :   0.9772 B( 28-C , 31-H ) :   0.9749

Dispersion correction           -0.015311759
FINAL SINGLE POINT ENERGY     -1339.872326836839

DIPOLE MOMENT
-------------
                                X             Y             Z
Electronic contribution:     27.75175       5.83442      -2.75708
Nuclear contribution   :    -28.40022      -6.05439       2.56795
                        -----------------------------------------
Total Dipole Moment    :     -0.64846      -0.21996      -0.18912
                        -----------------------------------------
Magnitude (a.u.)       :      0.71039
Magnitude (Debye)      :      1.80567

Rotational constants in cm-1:     0.021644     0.008233     0.006967
Rotational constants in MHz :   648.879632   246.806001   208.874590

                             ****ORCA TERMINATED NORMALLY****
TOTAL RUN TIME: 0 days 0 hours 0 minutes 34 seconds 195 msec
