                         Program Version 4.2.1 -  RELEASE  -
|  1> ! wB97X-D3 SP def2-SVP
|  2> %pal
|  3> nprocs 16
|  4> end
|  5>
|  6> * xyz 0 1
|  7> S 	 -13.7661 	 38.8911 	 32.7666
|  8> C 	 -14.5054 	 37.5335 	 33.8586
|  9> C 	 -14.3606 	 36.3012 	 33.2721
| 10> C 	 -13.917 	 36.4171 	 31.9209
| 11> C 	 -13.7054 	 37.6665 	 31.4679
| 12> H 	 -13.7978 	 35.5288 	 31.3481
| 13> C 	 -14.4096 	 34.9707 	 33.9575
| 14> H 	 -14.0064 	 34.9811 	 34.9549
| 15> H 	 -13.7029 	 34.376 	 33.4564
| 16> C 	 -15.7169 	 34.1719 	 33.9468
| 17> H 	 -16.0877 	 34.1323 	 32.8245
| 18> H 	 -15.514 	 33.1849 	 34.4002
| 19> C 	 -16.7982 	 34.6897 	 34.8232
| 20> H 	 -17.1246 	 35.6919 	 34.5949
| 21> H 	 -17.6269 	 34.0126 	 34.9248
| 22> H 	 -16.4962 	 34.7502 	 35.8923
| 23> S 	 -11.3584 	 38.1745 	 30.1052
| 24> C 	 -11.2875 	 38.5503 	 28.4245
| 25> C 	 -12.5623 	 38.3061 	 27.8755
| 26> C 	 -13.578 	 37.8518 	 28.8694
| 27> C 	 -13.0982 	 37.8765 	 30.1718
| 28> H 	 -12.7186 	 38.4759 	 26.8294
| 29> C 	 -15.013 	 37.6637 	 28.4818
| 30> H 	 -15.3156 	 36.7937 	 29.0313
| 31> H 	 -15.0034 	 37.5515 	 27.3465
| 32> C 	 -15.8467 	 38.8412 	 28.9786
| 33> H 	 -15.524 	 39.8187 	 28.5895
| 34> H 	 -15.5924 	 38.8406 	 30.0072
| 35> C 	 -17.3605 	 38.7058 	 28.7567
| 36> H 	 -17.7088 	 37.902 	 29.3568
| 37> H 	 -17.5124 	 38.5415 	 27.7131
| 38> H 	 -17.9978 	 39.6003 	 29.1025
| 39> H 	 -14.9031 	 37.7291 	 34.8336
| 40> H 	 -10.3902 	 38.9243 	 27.9325
| 41> *
| 42>
| 43>                          ****END OF INPUT****

CARTESIAN COORDINATES (ANGSTROEM)
---------------------------------
  S    -13.766100   38.891100   32.766600
  C    -14.505400   37.533500   33.858600
  C    -14.360600   36.301200   33.272100
  C    -13.917000   36.417100   31.920900
  C    -13.705400   37.666500   31.467900
  H    -13.797800   35.528800   31.348100
  C    -14.409600   34.970700   33.957500
  H    -14.006400   34.981100   34.954900
  H    -13.702900   34.376000   33.456400
  C    -15.716900   34.171900   33.946800
  H    -16.087700   34.132300   32.824500
  H    -15.514000   33.184900   34.400200
  C    -16.798200   34.689700   34.823200
  H    -17.124600   35.691900   34.594900
  H    -17.626900   34.012600   34.924800
  H    -16.496200   34.750200   35.892300
  S    -11.358400   38.174500   30.105200
  C    -11.287500   38.550300   28.424500
  C    -12.562300   38.306100   27.875500
  C    -13.578000   37.851800   28.869400
  C    -13.098200   37.876500   30.171800
  H    -12.718600   38.475900   26.829400
  C    -15.013000   37.663700   28.481800
  H    -15.315600   36.793700   29.031300
  H    -15.003400   37.551500   27.346500
  C    -15.846700   38.841200   28.978600
  H    -15.524000   39.818700   28.589500
  H    -15.592400   38.840600   30.007200
  C    -17.360500   38.705800   28.756700
  H    -17.708800   37.902000   29.356800
  H    -17.512400   38.541500   27.713100
  H    -17.997800   39.600300   29.102500
  H    -14.903100   37.729100   34.833600
  H    -10.390200   38.924300   27.932500

 Total Charge           Charge          ....    0
 Multiplicity           Mult            ....    1
 Number of Electrons    NEL             ....  134
 Basis Dimension        Dim             ....  322

ORBITAL ENERGIES
----------------

  NO   OCC          E(Eh)            E(eV)
   0   2.0000     -88.971062     -2421.0257
   1   2.0000     -88.957530     -2420.6575
   2   2.0000     -10.332374      -281.1582
   3   2.0000     -10.327628      -281.0291
   4   2.0000     -10.324134      -280.9340
   5   2.0000     -10.319180      -280.7992
   6   2.0000     -10.305922      -280.4384
   7   2.0000     -10.304934      -280.4115
   8   2.0000     -10.298806      -280.2448
   9   2.0000     -10.298222      -280.2289
  10   2.0000     -10.293461      -280.0993
  11   2.0000     -10.290584      -280.0210
  12   2.0000     -10.290150      -280.0092
  13   2.0000     -10.276042      -279.6253
  14   2.0000     -10.275137      -279.6007
  15   2.0000     -10.273446      -279.5547
  16   2.0000      -8.083246      -219.9563
  17   2.0000      -8.072761      -219.6710
  18   2.0000      -6.042070      -164.4131
  19   2.0000      -6.038474      -164.3152
  20   2.0000      -6.033440      -164.1783
  21   2.0000      -6.031333      -164.1209
  22   2.0000      -6.027036      -164.0040
  23   2.0000      -6.023582      -163.9100
  24   2.0000      -1.002578       -27.2815
  25   2.0000      -0.977517       -26.5996
  26   2.0000      -0.918961       -25.0062
  27   2.0000      -0.910701       -24.7814
  28   2.0000      -0.871686       -23.7198
  29   2.0000      -0.849513       -23.1164
  30   2.0000      -0.840927       -22.8828
  31   2.0000      -0.813060       -22.1245
  32   2.0000      -0.790059       -21.4986
  33   2.0000      -0.770960       -20.9789
  34   2.0000      -0.708784       -19.2870
  35   2.0000      -0.697733       -18.9863
  36   2.0000      -0.689716       -18.7681
  37   2.0000      -0.661606       -18.0032
  38   2.0000      -0.640849       -17.4384
  39   2.0000      -0.626112       -17.0374
  40   2.0000      -0.590091       -16.0572
  41   2.0000      -0.576294       -15.6818
  42   2.0000      -0.568805       -15.4780
  43   2.0000      -0.550195       -14.9716
  44   2.0000      -0.549152       -14.9432
  45   2.0000      -0.523787       -14.2530
  46   2.0000      -0.516315       -14.0497
  47   2.0000      -0.514054       -13.9881
  48   2.0000      -0.503481       -13.7004
  49   2.0000      -0.500978       -13.6323
  50   2.0000      -0.487730       -13.2718
  51   2.0000      -0.483136       -13.1468
  52   2.0000      -0.480522       -13.0757
  53   2.0000      -0.460424       -12.5288
  54   2.0000      -0.457577       -12.4513
  55   2.0000      -0.445976       -12.1356
  56   2.0000      -0.441917       -12.0252
  57   2.0000      -0.435343       -11.8463
  58   2.0000      -0.424820       -11.5599
  59   2.0000      -0.421434       -11.4678
  60   2.0000      -0.418929       -11.3996
  61   2.0000      -0.416592       -11.3360
  62   2.0000      -0.407891       -11.0993
  63   2.0000      -0.337318        -9.1789
  64   2.0000      -0.332374        -9.0444
  65   2.0000      -0.319489        -8.6937
  66   2.0000      -0.305248        -8.3062
  67   0.0000       0.030186         0.8214
  68   0.0000       0.053971         1.4686
  69   0.0000       0.086979         2.3668
  70   0.0000       0.116700         3.1756
  71   0.0000       0.128431         3.4948

MULLIKEN ATOMIC CHARGES
-----------------------
   0 S :    0.093454
   1 C :   -0.132994
   2 C :   -0.045015
   3 C :    0.047146
   4 C :   -0.145665
   5 H :    0.008421
   6 C :    0.091719
   7 H :    0.019858
   8 H :    0.009456
   9 C :   -0.087560
  10 H :    0.044498
  11 H :    0.034442
  12 C :   -0.041127
  13 H :    0.028252
  14 H :    0.031104
  15 H :    0.013105
  16 S :    0.095789
  17 C :   -0.102567
  18 C :   -0.040106
  19 C :   -0.052008
  20 C :   -0.178539
  21 H :    0.015681
  22 C :    0.090457
  23 H :    0.015779
  24 H :    0.031111
  25 C :   -0.070015
  26 H :    0.025543
  27 H :    0.017201
  28 C :   -0.026246
  29 H :    0.020497
  30 H :    0.026876
  31 H :    0.044487
  32 H :    0.045757
  33 H :    0.071209
Sum of atomic charges:    0.0000000

LOEWDIN ATOMIC CHARGES
----------------------
   0 S :    0.336668
   1 C :   -0.136518
   2 C :   -0.059216
   3 C :   -0.044398
   4 C :   -0.188382
   5 H :    0.029467
   6 C :   -0.030609
   7 H :    0.031207
   8 H :    0.029421
   9 C :   -0.044353
  10 H :    0.035675
  11 H :    0.030909
  12 C :   -0.073697
  13 H :    0.019978
  14 H :    0.026009
  15 H :    0.026203
  16 S :    0.403855
  17 C :   -0.195825
  18 C :   -0.075698
  19 C :   -0.051494
  20 C :   -0.200605
  21 H :    0.025080
  22 C :   -0.031519
  23 H :    0.029675
  24 H :    0.034865
  25 C :   -0.038156
  26 H :    0.024503
  27 H :    0.017994
  28 C :   -0.064988
  29 H :    0.018862
  30 H :    0.019867
  31 H :    0.036929
  32 H :    0.022978
  33 H :    0.035312

  Mayer bond orders larger than 0.100000
B(  0-S ,  1-C ) :   1.0988 B(  0-S ,  4-C ) :   1.1040 B(  1-C ,  2-C ) :   1.6445
B(  1-C , 32-H ) :   0.9733 B(  2-C ,  3-C ) :   1.2088 B(  2-C ,  6-C ) :   1.0096
B(  3-C ,  4-C ) :   1.6208 B(  3-C ,  5-H ) :   0.9935 B(  4-C , 20-C ) :   1.0294
B(  6-C ,  7-H ) :   0.9387 B(  6-C ,  8-H ) :   0.9332 B(  6-C ,  9-C ) :   1.0817
B(  9-C , 10-H ) :   0.9503 B(  9-C , 11-H ) :   0.9487 B(  9-C , 12-C ) :   1.0928
B( 12-C , 13-H ) :   0.9728 B( 12-C , 14-H ) :   0.9715 B( 12-C , 15-H ) :   0.9666
B( 16-S , 17-C ) :   1.1663 B( 16-S , 20-C ) :   1.1388 B( 17-C , 18-C ) :   1.5914
B( 17-C , 33-H ) :   0.9699 B( 18-C , 19-C ) :   1.2293 B( 18-C , 21-H ) :   0.9925
B( 19-C , 20-C ) :   1.5946 B( 19-C , 22-C ) :   1.0608 B( 22-C , 23-H ) :   0.9181
B( 22-C , 24-H ) :   0.9289 B( 22-C , 25-C ) :   1.0716 B( 25-C , 26-H ) :   0.9544
B( 25-C , 27-H ) :   0.9533 B( 25-C , 28-C ) :   1.0818 B( 28-C , 29-H ) :   0.9743
B( 28-C , 30-H ) :   0.9754 B( 28-C , 31-H ) :   0.9740

Dispersion correction           -0.014446346
FINAL SINGLE POINT ENERGY     -1339.854884378885

DIPOLE MOMENT
-------------
                                X             Y             Z
Electronic contribution:     22.81674      11.91791      -1.79570
Nuclear contribution   :    -23.08768     -12.43721       1.91909
                        -----------------------------------------
Total Dipole Moment    :     -0.27095      -0.51930       0.12339
                        -----------------------------------------
Magnitude (a.u.)       :      0.59859
Magnitude (Debye)      :      1.52149

Rotational constants in cm-1:     0.019036     0.008404     0.007064
Rotational constants in MHz :   570.681190   251.936248   211.766227

                             ****ORCA TERMINATED NORMALLY****
TOTAL RUN TIME: 0 days 0 hours 0 minutes 31 seconds 937 msec
