                         Program Version 4.2.1 -  RELEASE  -
|  1> ! wB97X-D3 SP def2-SVP
|  2> %pal
|  3> nprocs 16
|  4> end
|  5>
|  6> * xyz 0 1
|  7> S 	 -4.50935 	 21.8826 	 53.1226
|  8> C 	 -3.79094 	 20.9775 	 51.9102
|  9> C 	 -4.60789 	 20.9133 	 50.8027
| 10> C 	 -5.8096 	 21.6405 	 50.9362
| 11> C 	 -5.92619 	 22.2151 	 52.1988
| 12> H 	 -6.59529 	 21.6813 	 50.2719
| 13> C 	 -4.20773 	 20.1005 	 49.583
| 14> H 	 -5.00209 	 20.1451 	 48.8644
| 15> H 	 -4.04564 	 18.9751 	 49.7685
| 16> C 	 -2.90628 	 20.675 	 49.0693
| 17> H 	 -2.94989 	 21.6844 	 48.7604
| 18> H 	 -2.20071 	 20.6443 	 49.837
| 19> C 	 -2.30318 	 19.9133 	 47.8614
| 20> H 	 -1.41308 	 20.424 	 47.6196
| 21> H 	 -2.15867 	 18.8806 	 47.8804
| 22> H 	 -2.96577 	 20.0761 	 47.0261
| 23> S 	 -8.69727 	 22.561 	 52.4367
| 24> C 	 -9.30276 	 23.8245 	 53.4416
| 25> C 	 -8.29273 	 24.7268 	 53.8008
| 26> C 	 -6.97028 	 24.1891 	 53.5405
| 27> C 	 -7.00391 	 23.0332 	 52.7723
| 28> H 	 -8.62559 	 25.7203 	 54.1434
| 29> C 	 -5.69892 	 25.0027 	 53.8917
| 30> H 	 -5.02004 	 24.8081 	 53.137
| 31> H 	 -5.19281 	 24.661 	 54.8313
| 32> C 	 -5.78589 	 26.5682 	 54.1125
| 33> H 	 -6.31354 	 27.1757 	 53.3699
| 34> H 	 -4.73724 	 26.8915 	 54.0573
| 35> C 	 -6.4417 	 26.9627 	 55.518
| 36> H 	 -5.7892 	 26.6664 	 56.381
| 37> H 	 -7.39996 	 26.5025 	 55.7177
| 38> H 	 -6.57906 	 28.0446 	 55.5368
| 39> H 	 -2.87434 	 20.3992 	 51.9762
| 40> H 	 -10.4047 	 24.138 	 53.5517
| 41> *
| 42>
| 43>                          ****END OF INPUT****

CARTESIAN COORDINATES (ANGSTROEM)
---------------------------------
  S     -4.509350   21.882600   53.122600
  C     -3.790940   20.977500   51.910200
  C     -4.607890   20.913300   50.802700
  C     -5.809600   21.640500   50.936200
  C     -5.926190   22.215100   52.198800
  H     -6.595290   21.681300   50.271900
  C     -4.207730   20.100500   49.583000
  H     -5.002090   20.145100   48.864400
  H     -4.045640   18.975100   49.768500
  C     -2.906280   20.675000   49.069300
  H     -2.949890   21.684400   48.760400
  H     -2.200710   20.644300   49.837000
  C     -2.303180   19.913300   47.861400
  H     -1.413080   20.424000   47.619600
  H     -2.158670   18.880600   47.880400
  H     -2.965770   20.076100   47.026100
  S     -8.697270   22.561000   52.436700
  C     -9.302760   23.824500   53.441600
  C     -8.292730   24.726800   53.800800
  C     -6.970280   24.189100   53.540500
  C     -7.003910   23.033200   52.772300
  H     -8.625590   25.720300   54.143400
  C     -5.698920   25.002700   53.891700
  H     -5.020040   24.808100   53.137000
  H     -5.192810   24.661000   54.831300
  C     -5.785890   26.568200   54.112500
  H     -6.313540   27.175700   53.369900
  H     -4.737240   26.891500   54.057300
  C     -6.441700   26.962700   55.518000
  H     -5.789200   26.666400   56.381000
  H     -7.399960   26.502500   55.717700
  H     -6.579060   28.044600   55.536800
  H     -2.874340   20.399200   51.976200
  H    -10.404700   24.138000   53.551700

 Total Charge           Charge          ....    0
 Multiplicity           Mult            ....    1
 Number of Electrons    NEL             ....  134
 Basis Dimension        Dim             ....  322

ORBITAL ENERGIES
----------------

  NO   OCC          E(Eh)            E(eV)
   0   2.0000     -88.968008     -2420.9426
   1   2.0000     -88.967344     -2420.9245
   2   2.0000     -10.332234      -281.1544
   3   2.0000     -10.329474      -281.0793
   4   2.0000     -10.322408      -280.8870
   5   2.0000     -10.310630      -280.5665
   6   2.0000     -10.305398      -280.4241
   7   2.0000     -10.298743      -280.2430
   8   2.0000     -10.296999      -280.1956
   9   2.0000     -10.295582      -280.1570
  10   2.0000     -10.293665      -280.1049
  11   2.0000     -10.292456      -280.0720
  12   2.0000     -10.289058      -279.9795
  13   2.0000     -10.282865      -279.8110
  14   2.0000     -10.275715      -279.6164
  15   2.0000     -10.264946      -279.3234
  16   2.0000      -8.083953      -219.9756
  17   2.0000      -8.081702      -219.9143
  18   2.0000      -6.042213      -164.4170
  19   2.0000      -6.040324      -164.3656
  20   2.0000      -6.038065      -164.3041
  21   2.0000      -6.036335      -164.2570
  22   2.0000      -6.035131      -164.2243
  23   2.0000      -6.032305      -164.1474
  24   2.0000      -1.013501       -27.5788
  25   2.0000      -0.986122       -26.8337
  26   2.0000      -0.915786       -24.9198
  27   2.0000      -0.896326       -24.3903
  28   2.0000      -0.868541       -23.6342
  29   2.0000      -0.855458       -23.2782
  30   2.0000      -0.840107       -22.8605
  31   2.0000      -0.814817       -22.1723
  32   2.0000      -0.784909       -21.3585
  33   2.0000      -0.770861       -20.9762
  34   2.0000      -0.709686       -19.3115
  35   2.0000      -0.703179       -19.1345
  36   2.0000      -0.690988       -18.8027
  37   2.0000      -0.660789       -17.9810
  38   2.0000      -0.643468       -17.5096
  39   2.0000      -0.615488       -16.7483
  40   2.0000      -0.594890       -16.1878
  41   2.0000      -0.576636       -15.6911
  42   2.0000      -0.561671       -15.2838
  43   2.0000      -0.547572       -14.9002
  44   2.0000      -0.529913       -14.4197
  45   2.0000      -0.521591       -14.1932
  46   2.0000      -0.516211       -14.0468
  47   2.0000      -0.512698       -13.9512
  48   2.0000      -0.506033       -13.7698
  49   2.0000      -0.501516       -13.6470
  50   2.0000      -0.496143       -13.5007
  51   2.0000      -0.477853       -13.0031
  52   2.0000      -0.470640       -12.8068
  53   2.0000      -0.467889       -12.7319
  54   2.0000      -0.465474       -12.6662
  55   2.0000      -0.447180       -12.1684
  56   2.0000      -0.443072       -12.0566
  57   2.0000      -0.438160       -11.9229
  58   2.0000      -0.430067       -11.7027
  59   2.0000      -0.424528       -11.5520
  60   2.0000      -0.422892       -11.5075
  61   2.0000      -0.418712       -11.3937
  62   2.0000      -0.413059       -11.2399
  63   2.0000      -0.354585        -9.6487
  64   2.0000      -0.331776        -9.0281
  65   2.0000      -0.328186        -8.9304
  66   2.0000      -0.286426        -7.7940
  67   0.0000       0.028341         0.7712
  68   0.0000       0.073622         2.0034
  69   0.0000       0.105581         2.8730
  70   0.0000       0.123649         3.3647
  71   0.0000       0.137151         3.7321

MULLIKEN ATOMIC CHARGES
-----------------------
   0 S :    0.135312
   1 C :   -0.124380
   2 C :   -0.093499
   3 C :    0.061458
   4 C :   -0.172802
   5 H :   -0.023438
   6 C :    0.078347
   7 H :    0.006515
   8 H :    0.046064
   9 C :   -0.073361
  10 H :    0.021204
  11 H :    0.006419
  12 C :    0.001496
  13 H :    0.017733
  14 H :    0.018780
  15 H :    0.012600
  16 S :    0.109155
  17 C :   -0.115737
  18 C :   -0.076132
  19 C :   -0.017011
  20 C :   -0.134904
  21 H :    0.042074
  22 C :    0.064197
  23 H :    0.015976
  24 H :    0.043630
  25 C :   -0.085767
  26 H :    0.035331
  27 H :    0.037807
  28 C :   -0.083504
  29 H :    0.037311
  30 H :    0.033622
  31 H :    0.036684
  32 H :    0.054835
  33 H :    0.083987
Sum of atomic charges:   -0.0000000

LOEWDIN ATOMIC CHARGES
----------------------
   0 S :    0.468166
   1 C :   -0.227208
   2 C :   -0.063038
   3 C :   -0.059156
   4 C :   -0.198467
   5 H :    0.016923
   6 C :   -0.030881
   7 H :    0.021293
   8 H :    0.040890
   9 C :   -0.028558
  10 H :    0.024025
  11 H :    0.011285
  12 C :   -0.057535
  13 H :    0.022175
  14 H :    0.014382
  15 H :    0.022894
  16 S :    0.401319
  17 C :   -0.210280
  18 C :   -0.078897
  19 C :   -0.053486
  20 C :   -0.190013
  21 H :    0.037222
  22 C :   -0.033753
  23 H :    0.014538
  24 H :    0.039450
  25 C :   -0.037421
  26 H :    0.022262
  27 H :    0.031120
  28 C :   -0.072975
  29 H :    0.028758
  30 H :    0.019489
  31 H :    0.025372
  32 H :    0.032115
  33 H :    0.047992

  Mayer bond orders larger than 0.100000
B(  0-S ,  1-C ) :   1.1689 B(  0-S ,  4-C ) :   1.1924 B(  1-C ,  2-C ) :   1.5575
B(  1-C , 32-H ) :   0.9664 B(  2-C ,  3-C ) :   1.2953 B(  2-C ,  6-C ) :   1.0217
B(  3-C ,  4-C ) :   1.5142 B(  3-C ,  5-H ) :   1.0094 B(  4-C , 20-C ) :   1.0330
B(  6-C ,  7-H ) :   0.9409 B(  6-C ,  8-H ) :   0.9416 B(  6-C ,  9-C ) :   1.0621
B(  9-C , 10-H ) :   0.9524 B(  9-C , 11-H ) :   0.9594 B(  9-C , 12-C ) :   1.0858
B( 12-C , 13-H ) :   0.9720 B( 12-C , 14-H ) :   0.9763 B( 12-C , 15-H ) :   0.9726
B( 16-S , 17-C ) :   1.1612 B( 16-S , 20-C ) :   1.1268 B( 17-C , 18-C ) :   1.6274
B( 17-C , 33-H ) :   0.9510 B( 18-C , 19-C ) :   1.2276 B( 18-C , 21-H ) :   0.9756
B( 19-C , 20-C ) :   1.6024 B( 19-C , 22-C ) :   1.0239 B( 22-C , 23-H ) :   0.9360
B( 22-C , 24-H ) :   0.9331 B( 22-C , 25-C ) :   1.0709 B( 25-C , 26-H ) :   0.9632
B( 25-C , 27-H ) :   0.9561 B( 25-C , 28-C ) :   1.0585 B( 28-C , 29-H ) :   0.9744
B( 28-C , 30-H ) :   0.9790 B( 28-C , 31-H ) :   0.9773

Dispersion correction           -0.013647247
FINAL SINGLE POINT ENERGY     -1339.865945999254

DIPOLE MOMENT
-------------
                                X             Y             Z
Electronic contribution:    -13.84928      -7.20394       7.16791
Nuclear contribution   :     14.07233       7.47594      -7.41214
                        -----------------------------------------
Total Dipole Moment    :      0.22305       0.27200      -0.24422
                        -----------------------------------------
Magnitude (a.u.)       :      0.42823
Magnitude (Debye)      :      1.08847

Rotational constants in cm-1:     0.024842     0.006717     0.005788
Rotational constants in MHz :   744.744757   201.364012   173.511828

                             ****ORCA TERMINATED NORMALLY****
TOTAL RUN TIME: 0 days 0 hours 0 minutes 32 seconds 415 msec
