                         Program Version 4.2.1 -  RELEASE  -
|  1> ! wB97X-D3 SP def2-SVP
|  2> %pal
|  3> nprocs 16
|  4> end
|  5>
|  6> * xyz 0 1
|  7> S 	 22.6606 	 1.09424 	 84.4323
|  8> C 	 23.2831 	 2.51268 	 83.7528
|  9> C 	 22.4275 	 3.60434 	 83.9184
| 10> C 	 21.2346 	 3.29091 	 84.579
| 11> C 	 21.2101 	 1.94265 	 84.9857
| 12> H 	 20.3911 	 3.96637 	 84.7344
| 13> C 	 22.7562 	 4.98344 	 83.5164
| 14> H 	 22.4516 	 5.06025 	 82.4842
| 15> H 	 23.8542 	 5.10677 	 83.5175
| 16> C 	 22.3004 	 6.19372 	 84.3087
| 17> H 	 21.2207 	 6.23633 	 84.2502
| 18> H 	 22.7133 	 6.01378 	 85.3612
| 19> C 	 22.7653 	 7.57227 	 83.8732
| 20> H 	 22.7022 	 7.82373 	 82.8142
| 21> H 	 22.1231 	 8.34081 	 84.395
| 22> H 	 23.7331 	 7.76446 	 84.278
| 23> S 	 20.6577 	 0.790419 	 87.2662
| 24> C 	 19.2238 	 -0.174992 	 87.3911
| 25> C 	 18.4678 	 -0.265014 	 86.2503
| 26> C 	 19.0151 	 0.594627 	 85.2364
| 27> C 	 20.1931 	 1.17001 	 85.6432
| 28> H 	 17.6411 	 -0.927715 	 86.2239
| 29> C 	 18.6004 	 0.590627 	 83.813
| 30> H 	 19.5048 	 0.441852 	 83.1893
| 31> H 	 18.2845 	 1.58105 	 83.555
| 32> C 	 17.5433 	 -0.537732 	 83.4319
| 33> H 	 16.5977 	 -0.481164 	 83.9611
| 34> H 	 17.7964 	 -1.54725 	 83.7061
| 35> C 	 17.2034 	 -0.40409 	 81.9616
| 36> H 	 16.9518 	 0.570584 	 81.7626
| 37> H 	 16.4769 	 -1.13088 	 81.6822
| 38> H 	 18.0534 	 -0.585008 	 81.4246
| 39> H 	 24.1711 	 2.55357 	 83.1863
| 40> H 	 18.9956 	 -0.733573 	 88.2802
| 41> *
| 42>
| 43>                          ****END OF INPUT****

CARTESIAN COORDINATES (ANGSTROEM)
---------------------------------
  S     22.660600    1.094240   84.432300
  C     23.283100    2.512680   83.752800
  C     22.427500    3.604340   83.918400
  C     21.234600    3.290910   84.579000
  C     21.210100    1.942650   84.985700
  H     20.391100    3.966370   84.734400
  C     22.756200    4.983440   83.516400
  H     22.451600    5.060250   82.484200
  H     23.854200    5.106770   83.517500
  C     22.300400    6.193720   84.308700
  H     21.220700    6.236330   84.250200
  H     22.713300    6.013780   85.361200
  C     22.765300    7.572270   83.873200
  H     22.702200    7.823730   82.814200
  H     22.123100    8.340810   84.395000
  H     23.733100    7.764460   84.278000
  S     20.657700    0.790419   87.266200
  C     19.223800   -0.174992   87.391100
  C     18.467800   -0.265014   86.250300
  C     19.015100    0.594627   85.236400
  C     20.193100    1.170010   85.643200
  H     17.641100   -0.927715   86.223900
  C     18.600400    0.590627   83.813000
  H     19.504800    0.441852   83.189300
  H     18.284500    1.581050   83.555000
  C     17.543300   -0.537732   83.431900
  H     16.597700   -0.481164   83.961100
  H     17.796400   -1.547250   83.706100
  C     17.203400   -0.404090   81.961600
  H     16.951800    0.570584   81.762600
  H     16.476900   -1.130880   81.682200
  H     18.053400   -0.585008   81.424600
  H     24.171100    2.553570   83.186300
  H     18.995600   -0.733573   88.280200

 Total Charge           Charge          ....    0
 Multiplicity           Mult            ....    1
 Number of Electrons    NEL             ....  134
 Basis Dimension        Dim             ....  322

ORBITAL ENERGIES
----------------

  NO   OCC          E(Eh)            E(eV)
   0   2.0000     -88.966208     -2420.8936
   1   2.0000     -88.960582     -2420.7405
   2   2.0000     -10.325381      -280.9679
   3   2.0000     -10.312378      -280.6141
   4   2.0000     -10.308549      -280.5099
   5   2.0000     -10.305314      -280.4219
   6   2.0000     -10.298173      -280.2275
   7   2.0000     -10.294522      -280.1282
   8   2.0000     -10.293924      -280.1119
   9   2.0000     -10.290710      -280.0245
  10   2.0000     -10.290303      -280.0134
  11   2.0000     -10.288927      -279.9759
  12   2.0000     -10.283961      -279.8408
  13   2.0000     -10.283706      -279.8339
  14   2.0000     -10.280563      -279.7483
  15   2.0000     -10.257714      -279.1266
  16   2.0000      -8.081500      -219.9088
  17   2.0000      -8.076385      -219.7696
  18   2.0000      -6.039689      -164.3483
  19   2.0000      -6.035815      -164.2429
  20   2.0000      -6.034642      -164.2109
  21   2.0000      -6.032689      -164.1578
  22   2.0000      -6.030841      -164.1075
  23   2.0000      -6.027238      -164.0095
  24   2.0000      -1.010429       -27.4952
  25   2.0000      -0.987001       -26.8577
  26   2.0000      -0.915442       -24.9104
  27   2.0000      -0.908675       -24.7263
  28   2.0000      -0.871608       -23.7177
  29   2.0000      -0.858020       -23.3479
  30   2.0000      -0.854282       -23.2462
  31   2.0000      -0.816945       -22.2302
  32   2.0000      -0.782793       -21.3009
  33   2.0000      -0.766356       -20.8536
  34   2.0000      -0.715301       -19.4643
  35   2.0000      -0.705009       -19.1843
  36   2.0000      -0.685926       -18.6650
  37   2.0000      -0.655505       -17.8372
  38   2.0000      -0.641462       -17.4551
  39   2.0000      -0.623008       -16.9529
  40   2.0000      -0.598286       -16.2802
  41   2.0000      -0.578997       -15.7553
  42   2.0000      -0.565135       -15.3781
  43   2.0000      -0.563065       -15.3218
  44   2.0000      -0.535193       -14.5634
  45   2.0000      -0.524270       -14.2661
  46   2.0000      -0.519750       -14.1431
  47   2.0000      -0.511014       -13.9054
  48   2.0000      -0.507578       -13.8119
  49   2.0000      -0.496995       -13.5239
  50   2.0000      -0.492356       -13.3977
  51   2.0000      -0.473973       -12.8974
  52   2.0000      -0.469419       -12.7735
  53   2.0000      -0.466749       -12.7009
  54   2.0000      -0.460995       -12.5443
  55   2.0000      -0.456967       -12.4347
  56   2.0000      -0.450115       -12.2482
  57   2.0000      -0.442610       -12.0440
  58   2.0000      -0.431909       -11.7528
  59   2.0000      -0.424581       -11.5534
  60   2.0000      -0.420147       -11.4328
  61   2.0000      -0.417164       -11.3516
  62   2.0000      -0.405827       -11.0431
  63   2.0000      -0.339651        -9.2424
  64   2.0000      -0.329354        -8.9622
  65   2.0000      -0.319450        -8.6927
  66   2.0000      -0.295475        -8.0403
  67   0.0000       0.044128         1.2008
  68   0.0000       0.058168         1.5828
  69   0.0000       0.120458         3.2778
  70   0.0000       0.127806         3.4778
  71   0.0000       0.134238         3.6528

MULLIKEN ATOMIC CHARGES
-----------------------
   0 S :    0.133990
   1 C :   -0.103112
   2 C :   -0.080826
   3 C :    0.045848
   4 C :   -0.194489
   5 H :    0.020188
   6 C :    0.065183
   7 H :    0.028383
   8 H :    0.018001
   9 C :   -0.109082
  10 H :    0.028292
  11 H :    0.047109
  12 C :   -0.040664
  13 H :    0.036286
  14 H :    0.034432
  15 H :    0.025914
  16 S :    0.119083
  17 C :   -0.071578
  18 C :   -0.045966
  19 C :    0.018465
  20 C :   -0.201521
  21 H :    0.006453
  22 C :    0.065791
  23 H :    0.038291
  24 H :    0.019296
  25 C :   -0.107970
  26 H :    0.019791
  27 H :    0.021345
  28 C :    0.067062
  29 H :    0.003877
  30 H :    0.023231
  31 H :   -0.002138
  32 H :    0.029525
  33 H :    0.041510
Sum of atomic charges:   -0.0000000

LOEWDIN ATOMIC CHARGES
----------------------
   0 S :    0.435225
   1 C :   -0.212670
   2 C :   -0.068661
   3 C :   -0.057534
   4 C :   -0.200907
   5 H :    0.036836
   6 C :   -0.044157
   7 H :    0.030458
   8 H :    0.031493
   9 C :   -0.046934
  10 H :    0.017590
  11 H :    0.038230
  12 C :   -0.066207
  13 H :    0.025238
  14 H :    0.036382
  15 H :    0.020685
  16 S :    0.423350
  17 C :   -0.182208
  18 C :   -0.067943
  19 C :   -0.052273
  20 C :   -0.218546
  21 H :    0.028018
  22 C :   -0.027164
  23 H :    0.038255
  24 H :    0.030633
  25 C :   -0.036982
  26 H :    0.019627
  27 H :    0.019984
  28 C :   -0.043795
  29 H :    0.015373
  30 H :    0.024970
  31 H :    0.013628
  32 H :    0.019246
  33 H :    0.020758

  Mayer bond orders larger than 0.100000
B(  0-S ,  1-C ) :   1.1640 B(  0-S ,  4-C ) :   1.1790 B(  1-C ,  2-C ) :   1.5665
B(  1-C ,  4-C ) :   0.1113 B(  1-C , 32-H ) :   0.9745 B(  2-C ,  3-C ) :   1.2823
B(  2-C ,  6-C ) :   1.0228 B(  3-C ,  4-C ) :   1.5395 B(  3-C ,  5-H ) :   0.9958
B(  4-C , 20-C ) :   1.0061 B(  6-C ,  7-H ) :   0.9155 B(  6-C ,  8-H ) :   0.9474
B(  6-C ,  9-C ) :   1.0786 B(  9-C , 10-H ) :   0.9474 B(  9-C , 11-H ) :   0.9566
B(  9-C , 12-C ) :   1.0921 B( 12-C , 13-H ) :   0.9736 B( 12-C , 14-H ) :   0.9726
B( 12-C , 15-H ) :   0.9742 B( 16-S , 17-C ) :   1.1591 B( 16-S , 20-C ) :   1.1575
B( 17-C , 18-C ) :   1.6229 B( 17-C , 33-H ) :   0.9633 B( 18-C , 19-C ) :   1.2115
B( 18-C , 21-H ) :   0.9984 B( 19-C , 20-C ) :   1.6179 B( 19-C , 22-C ) :   1.0437
B( 22-C , 23-H ) :   0.9355 B( 22-C , 24-H ) :   0.9188 B( 22-C , 25-C ) :   1.0677
B( 25-C , 26-H ) :   0.9516 B( 25-C , 27-H ) :   0.9543 B( 25-C , 28-C ) :   1.0904
B( 28-C , 29-H ) :   0.9696 B( 28-C , 30-H ) :   0.9688 B( 28-C , 31-H ) :   0.9689

Dispersion correction           -0.013519279
FINAL SINGLE POINT ENERGY     -1339.866160585923

DIPOLE MOMENT
-------------
                                X             Y             Z
Electronic contribution:      8.86402     -14.15568      15.84443
Nuclear contribution   :     -9.08164      14.37109     -16.23326
                        -----------------------------------------
Total Dipole Moment    :     -0.21762       0.21542      -0.38883
                        -----------------------------------------
Magnitude (a.u.)       :      0.49492
Magnitude (Debye)      :      1.25799

Rotational constants in cm-1:     0.019166     0.007385     0.006489
Rotational constants in MHz :   574.578010   221.409524   194.521425

                             ****ORCA TERMINATED NORMALLY****
TOTAL RUN TIME: 0 days 0 hours 0 minutes 33 seconds 357 msec
