                         Program Version 4.2.1 -  RELEASE  -
|  1> ! wB97X-D3 SP def2-SVP
|  2> %pal
|  3> nprocs 16
|  4> end
|  5>
|  6> * xyz 0 1
|  7> S 	 11.9834 	 -6.90298 	 89.2702
|  8> C 	 10.5507 	 -6.96059 	 90.215
|  9> C 	 9.57004 	 -7.63098 	 89.5373
| 10> C 	 9.95245 	 -8.12072 	 88.2894
| 11> C 	 11.1678 	 -7.56893 	 87.8678
| 12> H 	 9.37753 	 -8.67587 	 87.5645
| 13> C 	 8.21704 	 -7.92038 	 90.21
| 14> H 	 7.69108 	 -8.64636 	 89.6322
| 15> H 	 7.67445 	 -6.94714 	 90.0881
| 16> C 	 8.37101 	 -8.35039 	 91.7096
| 17> H 	 9.08273 	 -9.20061 	 91.7096
| 18> H 	 8.90415 	 -7.65711 	 92.2936
| 19> C 	 6.99762 	 -8.7439 	 92.3174
| 20> H 	 6.28495 	 -7.92691 	 92.4661
| 21> H 	 6.41183 	 -9.43079 	 91.6689
| 22> H 	 7.1275 	 -9.16402 	 93.3163
| 23> S 	 13.5037 	 -8.147 	 86.5235
| 24> C 	 13.523 	 -8.23117 	 84.7431
| 25> C 	 12.3464 	 -7.81182 	 84.2682
| 26> C 	 11.3086 	 -7.46793 	 85.2436
| 27> C 	 11.7702 	 -7.67299 	 86.5683
| 28> H 	 12.3144 	 -7.67992 	 83.2301
| 29> C 	 10.0214 	 -6.83475 	 84.7932
| 30> H 	 9.0737 	 -7.30287 	 85.045
| 31> H 	 10.0662 	 -6.80878 	 83.6477
| 32> C 	 9.86848 	 -5.35189 	 85.1288
| 33> H 	 10.6619 	 -4.75818 	 84.7251
| 34> H 	 9.96728 	 -5.20734 	 86.2514
| 35> C 	 8.48642 	 -4.83467 	 84.7588
| 36> H 	 8.35476 	 -3.85961 	 85.1209
| 37> H 	 7.76252 	 -5.49005 	 85.2059
| 38> H 	 8.29598 	 -4.74682 	 83.6497
| 39> H 	 10.3203 	 -6.53324 	 91.1312
| 40> H 	 14.3576 	 -8.45526 	 84.1307
| 41> *
| 42>
| 43>                          ****END OF INPUT****

CARTESIAN COORDINATES (ANGSTROEM)
---------------------------------
  S     11.983400   -6.902980   89.270200
  C     10.550700   -6.960590   90.215000
  C      9.570040   -7.630980   89.537300
  C      9.952450   -8.120720   88.289400
  C     11.167800   -7.568930   87.867800
  H      9.377530   -8.675870   87.564500
  C      8.217040   -7.920380   90.210000
  H      7.691080   -8.646360   89.632200
  H      7.674450   -6.947140   90.088100
  C      8.371010   -8.350390   91.709600
  H      9.082730   -9.200610   91.709600
  H      8.904150   -7.657110   92.293600
  C      6.997620   -8.743900   92.317400
  H      6.284950   -7.926910   92.466100
  H      6.411830   -9.430790   91.668900
  H      7.127500   -9.164020   93.316300
  S     13.503700   -8.147000   86.523500
  C     13.523000   -8.231170   84.743100
  C     12.346400   -7.811820   84.268200
  C     11.308600   -7.467930   85.243600
  C     11.770200   -7.672990   86.568300
  H     12.314400   -7.679920   83.230100
  C     10.021400   -6.834750   84.793200
  H      9.073700   -7.302870   85.045000
  H     10.066200   -6.808780   83.647700
  C      9.868480   -5.351890   85.128800
  H     10.661900   -4.758180   84.725100
  H      9.967280   -5.207340   86.251400
  C      8.486420   -4.834670   84.758800
  H      8.354760   -3.859610   85.120900
  H      7.762520   -5.490050   85.205900
  H      8.295980   -4.746820   83.649700
  H     10.320300   -6.533240   91.131200
  H     14.357600   -8.455260   84.130700

 Total Charge           Charge          ....    0
 Multiplicity           Mult            ....    1
 Number of Electrons    NEL             ....  134
 Basis Dimension        Dim             ....  322

ORBITAL ENERGIES
----------------

  NO   OCC          E(Eh)            E(eV)
   0   2.0000     -88.967710     -2420.9345
   1   2.0000     -88.960862     -2420.7481
   2   2.0000     -10.335782      -281.2509
   3   2.0000     -10.330758      -281.1142
   4   2.0000     -10.314421      -280.6697
   5   2.0000     -10.313402      -280.6419
   6   2.0000     -10.303324      -280.3677
   7   2.0000     -10.296346      -280.1778
   8   2.0000     -10.295344      -280.1506
   9   2.0000     -10.294614      -280.1307
  10   2.0000     -10.293063      -280.0885
  11   2.0000     -10.292087      -280.0619
  12   2.0000     -10.289506      -279.9917
  13   2.0000     -10.283942      -279.8403
  14   2.0000     -10.282959      -279.8136
  15   2.0000     -10.274053      -279.5712
  16   2.0000      -8.082719      -219.9420
  17   2.0000      -8.074836      -219.7275
  18   2.0000      -6.041177      -164.3888
  19   2.0000      -6.037225      -164.2813
  20   2.0000      -6.033607      -164.1828
  21   2.0000      -6.033458      -164.1787
  22   2.0000      -6.029510      -164.0713
  23   2.0000      -6.025307      -163.9569
  24   2.0000      -1.009193       -27.4615
  25   2.0000      -0.982176       -26.7264
  26   2.0000      -0.910074       -24.7644
  27   2.0000      -0.908146       -24.7119
  28   2.0000      -0.873418       -23.7669
  29   2.0000      -0.852316       -23.1927
  30   2.0000      -0.844051       -22.9678
  31   2.0000      -0.819883       -22.3102
  32   2.0000      -0.779375       -21.2079
  33   2.0000      -0.768926       -20.9235
  34   2.0000      -0.719243       -19.5716
  35   2.0000      -0.708571       -19.2812
  36   2.0000      -0.689660       -18.7666
  37   2.0000      -0.662546       -18.0288
  38   2.0000      -0.642243       -17.4763
  39   2.0000      -0.615999       -16.7622
  40   2.0000      -0.601652       -16.3718
  41   2.0000      -0.575486       -15.6598
  42   2.0000      -0.562864       -15.3163
  43   2.0000      -0.553275       -15.0554
  44   2.0000      -0.526293       -14.3212
  45   2.0000      -0.525523       -14.3002
  46   2.0000      -0.519403       -14.1337
  47   2.0000      -0.514351       -13.9962
  48   2.0000      -0.510239       -13.8843
  49   2.0000      -0.501939       -13.6584
  50   2.0000      -0.494981       -13.4691
  51   2.0000      -0.480990       -13.0884
  52   2.0000      -0.477072       -12.9818
  53   2.0000      -0.462628       -12.5887
  54   2.0000      -0.456936       -12.4339
  55   2.0000      -0.449480       -12.2310
  56   2.0000      -0.445676       -12.1275
  57   2.0000      -0.440736       -11.9930
  58   2.0000      -0.435750       -11.8574
  59   2.0000      -0.423090       -11.5129
  60   2.0000      -0.418235       -11.3808
  61   2.0000      -0.417133       -11.3508
  62   2.0000      -0.403826       -10.9887
  63   2.0000      -0.353491        -9.6190
  64   2.0000      -0.333412        -9.0726
  65   2.0000      -0.325700        -8.8627
  66   2.0000      -0.286620        -7.7993
  67   0.0000       0.019186         0.5221
  68   0.0000       0.069978         1.9042
  69   0.0000       0.104121         2.8333
  70   0.0000       0.127696         3.4748
  71   0.0000       0.137073         3.7299

MULLIKEN ATOMIC CHARGES
-----------------------
   0 S :    0.125801
   1 C :   -0.077449
   2 C :   -0.112166
   3 C :    0.036524
   4 C :   -0.162785
   5 H :    0.012213
   6 C :    0.079480
   7 H :    0.011973
   8 H :    0.046157
   9 C :   -0.075959
  10 H :    0.038785
  11 H :    0.017201
  12 C :   -0.049450
  13 H :    0.027725
  14 H :    0.032335
  15 H :    0.037354
  16 S :    0.070412
  17 C :   -0.067137
  18 C :   -0.018790
  19 C :    0.004633
  20 C :   -0.149575
  21 H :    0.000617
  22 C :    0.036489
  23 H :    0.025182
  24 H :    0.026319
  25 C :   -0.098692
  26 H :    0.023573
  27 H :    0.041929
  28 C :   -0.022348
  29 H :    0.022118
  30 H :    0.024299
  31 H :    0.033454
  32 H :    0.013824
  33 H :    0.045957
Sum of atomic charges:   -0.0000000

LOEWDIN ATOMIC CHARGES
----------------------
   0 S :    0.423388
   1 C :   -0.202757
   2 C :   -0.066610
   3 C :   -0.060455
   4 C :   -0.193133
   5 H :    0.031601
   6 C :   -0.026783
   7 H :    0.022595
   8 H :    0.038796
   9 C :   -0.037393
  10 H :    0.032083
  11 H :    0.014051
  12 C :   -0.070921
  13 H :    0.025114
  14 H :    0.028369
  15 H :    0.027596
  16 S :    0.360293
  17 C :   -0.163649
  18 C :   -0.066712
  19 C :   -0.053030
  20 C :   -0.174606
  21 H :    0.024134
  22 C :   -0.040006
  23 H :    0.026456
  24 H :    0.038864
  25 C :   -0.041491
  26 H :    0.018962
  27 H :    0.030853
  28 C :   -0.061424
  29 H :    0.020288
  30 H :    0.022150
  31 H :    0.028713
  32 H :    0.016630
  33 H :    0.028030

  Mayer bond orders larger than 0.100000
B(  0-S ,  1-C ) :   1.1383 B(  0-S ,  4-C ) :   1.1605 B(  1-C ,  2-C ) :   1.5933
B(  1-C ,  4-C ) :   0.1061 B(  1-C , 32-H ) :   0.9773 B(  2-C ,  3-C ) :   1.2715
B(  2-C ,  6-C ) :   1.0068 B(  3-C ,  4-C ) :   1.5284 B(  3-C ,  5-H ) :   0.9962
B(  4-C , 20-C ) :   1.0893 B(  6-C ,  7-H ) :   0.9482 B(  6-C ,  8-H ) :   0.9332
B(  6-C ,  9-C ) :   1.0622 B(  9-C , 10-H ) :   0.9590 B(  9-C , 11-H ) :   0.9530
B(  9-C , 12-C ) :   1.0761 B( 12-C , 13-H ) :   0.9755 B( 12-C , 14-H ) :   0.9759
B( 12-C , 15-H ) :   0.9745 B( 16-S , 17-C ) :   1.1166 B( 16-S , 20-C ) :   1.1207
B( 17-C , 18-C ) :   1.6712 B( 17-C , 33-H ) :   0.9686 B( 18-C , 19-C ) :   1.2059
B( 18-C , 21-H ) :   0.9900 B( 19-C , 20-C ) :   1.5860 B( 19-C , 22-C ) :   1.0446
B( 22-C , 23-H ) :   0.9364 B( 22-C , 24-H ) :   0.9365 B( 22-C , 25-C ) :   1.0606
B( 25-C , 26-H ) :   0.9532 B( 25-C , 27-H ) :   0.9549 B( 25-C , 28-C ) :   1.0856
B( 28-C , 29-H ) :   0.9708 B( 28-C , 30-H ) :   0.9720 B( 28-C , 31-H ) :   0.9738

Dispersion correction           -0.013721874
FINAL SINGLE POINT ENERGY     -1339.868123112999

DIPOLE MOMENT
-------------
                                X             Y             Z
Electronic contribution:     27.25198      -4.42103      -3.03305
Nuclear contribution   :    -27.88063       4.56499       2.85739
                        -----------------------------------------
Total Dipole Moment    :     -0.62865       0.14396      -0.17567
                        -----------------------------------------
Magnitude (a.u.)       :      0.66842
Magnitude (Debye)      :      1.69899

Rotational constants in cm-1:     0.019990     0.007779     0.006260
Rotational constants in MHz :   599.291712   233.222822   187.673170

                             ****ORCA TERMINATED NORMALLY****
TOTAL RUN TIME: 0 days 0 hours 0 minutes 34 seconds 70 msec
