                         Program Version 4.2.1 -  RELEASE  -
|  1> ! wB97X-D3 SP def2-SVP
|  2> %pal
|  3> nprocs 16
|  4> end
|  5>
|  6> * xyz 0 1
|  7> S 	 49.1146 	 10.5297 	 51.734
|  8> C 	 47.5927 	 9.69453 	 51.5824
|  9> C 	 46.5369 	 10.5982 	 51.6424
| 10> C 	 46.965 	 11.9589 	 51.7692
| 11> C 	 48.3481 	 12.1218 	 51.7037
| 12> H 	 46.2137 	 12.722 	 51.8292
| 13> C 	 45.0742 	 10.3123 	 51.6166
| 14> H 	 44.8211 	 9.37061 	 51.1714
| 15> H 	 44.5853 	 11.1507 	 51.0774
| 16> C 	 44.3979 	 10.2568 	 52.9698
| 17> H 	 44.6157 	 11.149 	 53.4651
| 18> H 	 43.3521 	 10.1593 	 52.8032
| 19> C 	 44.7392 	 9.0293 	 53.7363
| 20> H 	 45.7057 	 8.95862 	 54.2186
| 21> H 	 43.9159 	 8.91731 	 54.4233
| 22> H 	 44.6603 	 8.07741 	 53.1357
| 23> S 	 50.4251 	 13.6489 	 50.6513
| 24> C 	 50.5096 	 15.3843 	 51.0416
| 25> C 	 49.5931 	 15.6783 	 52.0066
| 26> C 	 48.628 	 14.6538 	 52.2213
| 27> C 	 49.0159 	 13.4557 	 51.657
| 28> H 	 49.6298 	 16.709 	 52.2808
| 29> C 	 47.4846 	 14.9503 	 53.1818
| 30> H 	 46.8987 	 14.0475 	 53.2352
| 31> H 	 46.8414 	 15.6853 	 52.6626
| 32> C 	 47.8376 	 15.4833 	 54.5036
| 33> H 	 46.9336 	 15.8855 	 54.9727
| 34> H 	 48.515 	 16.3987 	 54.2963
| 35> C 	 48.4916 	 14.4755 	 55.4559
| 36> H 	 47.8339 	 13.6369 	 55.6766
| 37> H 	 48.8179 	 14.9198 	 56.3676
| 38> H 	 49.4514 	 14.0895 	 55.0833
| 39> H 	 47.4451 	 8.64584 	 51.6144
| 40> H 	 51.2714 	 16.0894 	 50.6418
| 41> *
| 42>
| 43>                          ****END OF INPUT****

CARTESIAN COORDINATES (ANGSTROEM)
---------------------------------
  S     49.114600   10.529700   51.734000
  C     47.592700    9.694530   51.582400
  C     46.536900   10.598200   51.642400
  C     46.965000   11.958900   51.769200
  C     48.348100   12.121800   51.703700
  H     46.213700   12.722000   51.829200
  C     45.074200   10.312300   51.616600
  H     44.821100    9.370610   51.171400
  H     44.585300   11.150700   51.077400
  C     44.397900   10.256800   52.969800
  H     44.615700   11.149000   53.465100
  H     43.352100   10.159300   52.803200
  C     44.739200    9.029300   53.736300
  H     45.705700    8.958620   54.218600
  H     43.915900    8.917310   54.423300
  H     44.660300    8.077410   53.135700
  S     50.425100   13.648900   50.651300
  C     50.509600   15.384300   51.041600
  C     49.593100   15.678300   52.006600
  C     48.628000   14.653800   52.221300
  C     49.015900   13.455700   51.657000
  H     49.629800   16.709000   52.280800
  C     47.484600   14.950300   53.181800
  H     46.898700   14.047500   53.235200
  H     46.841400   15.685300   52.662600
  C     47.837600   15.483300   54.503600
  H     46.933600   15.885500   54.972700
  H     48.515000   16.398700   54.296300
  C     48.491600   14.475500   55.455900
  H     47.833900   13.636900   55.676600
  H     48.817900   14.919800   56.367600
  H     49.451400   14.089500   55.083300
  H     47.445100    8.645840   51.614400
  H     51.271400   16.089400   50.641800

 Total Charge           Charge          ....    0
 Multiplicity           Mult            ....    1
 Number of Electrons    NEL             ....  134
 Basis Dimension        Dim             ....  322

ORBITAL ENERGIES
----------------

  NO   OCC          E(Eh)            E(eV)
   0   2.0000     -88.970264     -2421.0040
   1   2.0000     -88.963575     -2420.8219
   2   2.0000     -10.337957      -281.3101
   3   2.0000     -10.331713      -281.1402
   4   2.0000     -10.319964      -280.8205
   5   2.0000     -10.312681      -280.6223
   6   2.0000     -10.303053      -280.3603
   7   2.0000     -10.298036      -280.2238
   8   2.0000     -10.292805      -280.0815
   9   2.0000     -10.290145      -280.0091
  10   2.0000     -10.290082      -280.0074
  11   2.0000     -10.287254      -279.9304
  12   2.0000     -10.285783      -279.8904
  13   2.0000     -10.275580      -279.6128
  14   2.0000     -10.274792      -279.5913
  15   2.0000     -10.271957      -279.5142
  16   2.0000      -8.084400      -219.9877
  17   2.0000      -8.078195      -219.8189
  18   2.0000      -6.043154      -164.4426
  19   2.0000      -6.038931      -164.3277
  20   2.0000      -6.036770      -164.2689
  21   2.0000      -6.034991      -164.2205
  22   2.0000      -6.032761      -164.1598
  23   2.0000      -6.028847      -164.0533
  24   2.0000      -1.005585       -27.3634
  25   2.0000      -0.985695       -26.8221
  26   2.0000      -0.923263       -25.1233
  27   2.0000      -0.915611       -24.9150
  28   2.0000      -0.869973       -23.6732
  29   2.0000      -0.853433       -23.2231
  30   2.0000      -0.843978       -22.9658
  31   2.0000      -0.815314       -22.1858
  32   2.0000      -0.785091       -21.3634
  33   2.0000      -0.778567       -21.1859
  34   2.0000      -0.709284       -19.3006
  35   2.0000      -0.698083       -18.9958
  36   2.0000      -0.694023       -18.8853
  37   2.0000      -0.657086       -17.8802
  38   2.0000      -0.636635       -17.3237
  39   2.0000      -0.631216       -17.1763
  40   2.0000      -0.598175       -16.2772
  41   2.0000      -0.578372       -15.7383
  42   2.0000      -0.557075       -15.1588
  43   2.0000      -0.555193       -15.1076
  44   2.0000      -0.549827       -14.9616
  45   2.0000      -0.537631       -14.6297
  46   2.0000      -0.521117       -14.1803
  47   2.0000      -0.510882       -13.9018
  48   2.0000      -0.503890       -13.7115
  49   2.0000      -0.497313       -13.5326
  50   2.0000      -0.493637       -13.4325
  51   2.0000      -0.478837       -13.0298
  52   2.0000      -0.470668       -12.8075
  53   2.0000      -0.464883       -12.6501
  54   2.0000      -0.457026       -12.4363
  55   2.0000      -0.449171       -12.2226
  56   2.0000      -0.440104       -11.9758
  57   2.0000      -0.438057       -11.9201
  58   2.0000      -0.434483       -11.8229
  59   2.0000      -0.423321       -11.5192
  60   2.0000      -0.422288       -11.4910
  61   2.0000      -0.416741       -11.3401
  62   2.0000      -0.409251       -11.1363
  63   2.0000      -0.357494        -9.7279
  64   2.0000      -0.331140        -9.0108
  65   2.0000      -0.327433        -8.9099
  66   2.0000      -0.287890        -7.8339
  67   0.0000       0.026982         0.7342
  68   0.0000       0.076796         2.0897
  69   0.0000       0.114014         3.1025
  70   0.0000       0.117458         3.1962
  71   0.0000       0.129826         3.5327

MULLIKEN ATOMIC CHARGES
-----------------------
   0 S :    0.115247
   1 C :   -0.102770
   2 C :   -0.086020
   3 C :    0.003714
   4 C :   -0.110799
   5 H :    0.008827
   6 C :    0.048092
   7 H :    0.008640
   8 H :    0.029106
   9 C :   -0.011090
  10 H :    0.009585
  11 H :    0.020496
  12 C :   -0.065583
  13 H :    0.045718
  14 H :    0.025750
  15 H :    0.017657
  16 S :    0.094629
  17 C :   -0.122040
  18 C :   -0.029884
  19 C :   -0.067557
  20 C :   -0.128130
  21 H :    0.019620
  22 C :    0.096387
  23 H :   -0.003171
  24 H :    0.032610
  25 C :   -0.083749
  26 H :    0.028824
  27 H :    0.033672
  28 C :   -0.024565
  29 H :    0.034349
  30 H :    0.020748
  31 H :    0.034020
  32 H :    0.034526
  33 H :    0.073138
Sum of atomic charges:   -0.0000000

LOEWDIN ATOMIC CHARGES
----------------------
   0 S :    0.405832
   1 C :   -0.199183
   2 C :   -0.060720
   3 C :   -0.064780
   4 C :   -0.182088
   5 H :    0.024878
   6 C :   -0.031908
   7 H :    0.023639
   8 H :    0.034124
   9 C :   -0.032039
  10 H :    0.015258
  11 H :    0.025016
  12 C :   -0.068654
  13 H :    0.024303
  14 H :    0.026698
  15 H :    0.027294
  16 S :    0.388710
  17 C :   -0.176418
  18 C :   -0.073138
  19 C :   -0.057434
  20 C :   -0.193766
  21 H :    0.030909
  22 C :   -0.035900
  23 H :    0.021839
  24 H :    0.037877
  25 C :   -0.045494
  26 H :    0.026556
  27 H :    0.030802
  28 C :   -0.064235
  29 H :    0.027037
  30 H :    0.022115
  31 H :    0.030310
  32 H :    0.023464
  33 H :    0.039097

  Mayer bond orders larger than 0.100000
B(  0-S ,  1-C ) :   1.1273 B(  0-S ,  4-C ) :   1.1537 B(  1-C ,  2-C ) :   1.5973
B(  1-C , 32-H ) :   0.9726 B(  2-C ,  3-C ) :   1.2675 B(  2-C ,  6-C ) :   1.0411
B(  3-C ,  4-C ) :   1.5373 B(  3-C ,  5-H ) :   0.9853 B(  4-C , 20-C ) :   1.0437
B(  6-C ,  7-H ) :   0.9399 B(  6-C ,  8-H ) :   0.9360 B(  6-C ,  9-C ) :   1.0890
B(  9-C , 10-H ) :   0.9476 B(  9-C , 11-H ) :   0.9523 B(  9-C , 12-C ) :   1.0819
B( 12-C , 13-H ) :   0.9751 B( 12-C , 14-H ) :   0.9739 B( 12-C , 15-H ) :   0.9696
B( 16-S , 17-C ) :   1.1364 B( 16-S , 20-C ) :   1.1351 B( 17-C , 18-C ) :   1.6522
B( 17-C , 33-H ) :   0.9610 B( 18-C , 19-C ) :   1.2054 B( 18-C , 21-H ) :   0.9849
B( 19-C , 20-C ) :   1.6076 B( 19-C , 22-C ) :   1.0375 B( 22-C , 23-H ) :   0.9247
B( 22-C , 24-H ) :   0.9207 B( 22-C , 25-C ) :   1.0944 B( 25-C , 26-H ) :   0.9463
B( 25-C , 27-H ) :   0.9458 B( 25-C , 28-C ) :   1.0795 B( 28-C , 29-H ) :   0.9726
B( 28-C , 30-H ) :   0.9715 B( 28-C , 31-H ) :   0.9734

Dispersion correction           -0.014595128
FINAL SINGLE POINT ENERGY     -1339.877079518370

DIPOLE MOMENT
-------------
                                X             Y             Z
Electronic contribution:     21.20101      -0.43501     -17.43984
Nuclear contribution   :    -21.82954       0.73264      17.78517
                        -----------------------------------------
Total Dipole Moment    :     -0.62854       0.29763       0.34533
                        -----------------------------------------
Magnitude (a.u.)       :      0.77646
Magnitude (Debye)      :      1.97361

Rotational constants in cm-1:     0.020073     0.008884     0.007004
Rotational constants in MHz :   601.769073   266.334441   209.965647

                             ****ORCA TERMINATED NORMALLY****
TOTAL RUN TIME: 0 days 0 hours 0 minutes 35 seconds 568 msec
