                         Program Version 4.2.1 -  RELEASE  -
|  1> ! wB97X-D3 SP def2-SVP
|  2> %pal
|  3> nprocs 16
|  4> end
|  5>
|  6> * xyz 0 1
|  7> S 	 -73.4956 	 51.9058 	 138.644
|  8> C 	 -72.7101 	 51.5654 	 140.168
|  9> C 	 -73.4727 	 51.203 	 141.254
| 10> C 	 -74.8091 	 51.2601 	 140.805
| 11> C 	 -75.0301 	 51.6237 	 139.475
| 12> H 	 -75.6213 	 51.2194 	 141.463
| 13> C 	 -72.9904 	 50.9476 	 142.661
| 14> H 	 -72.8171 	 51.9767 	 143.071
| 15> H 	 -72.0747 	 50.3741 	 142.724
| 16> C 	 -74.0083 	 50.1654 	 143.524
| 17> H 	 -75.078 	 50.6368 	 143.496
| 18> H 	 -74.0138 	 49.1398 	 143.029
| 19> C 	 -73.7152 	 50.2536 	 145.054
| 20> H 	 -73.6516 	 51.2754 	 145.454
| 21> H 	 -74.4285 	 49.6895 	 145.721
| 22> H 	 -72.7319 	 49.7817 	 145.231
| 23> S 	 -76.4817 	 53.3478 	 137.888
| 24> C 	 -78.1151 	 52.9717 	 137.446
| 25> C 	 -78.4258 	 51.7602 	 137.967
| 26> C 	 -77.4599 	 51.1351 	 138.854
| 27> C 	 -76.3233 	 51.9007 	 138.892
| 28> H 	 -79.4646 	 51.4537 	 138.011
| 29> C 	 -77.6393 	 49.8235 	 139.597
| 30> H 	 -78.6655 	 49.5198 	 139.574
| 31> H 	 -77.4757 	 49.9559 	 140.694
| 32> C 	 -76.8511 	 48.6026 	 139.09
| 33> H 	 -75.7556 	 48.7759 	 139.173
| 34> H 	 -77.0914 	 48.4527 	 138.04
| 35> C 	 -77.1697 	 47.3022 	 139.839
| 36> H 	 -76.7448 	 46.4151 	 139.309
| 37> H 	 -78.2489 	 47.1194 	 139.956
| 38> H 	 -76.8616 	 47.1809 	 140.867
| 39> H 	 -71.6323 	 51.6894 	 140.227
| 40> H 	 -78.8528 	 53.5962 	 136.883
| 41> *
| 42>
| 43>                          ****END OF INPUT****

CARTESIAN COORDINATES (ANGSTROEM)
---------------------------------
  S    -73.495600   51.905800  138.644000
  C    -72.710100   51.565400  140.168000
  C    -73.472700   51.203000  141.254000
  C    -74.809100   51.260100  140.805000
  C    -75.030100   51.623700  139.475000
  H    -75.621300   51.219400  141.463000
  C    -72.990400   50.947600  142.661000
  H    -72.817100   51.976700  143.071000
  H    -72.074700   50.374100  142.724000
  C    -74.008300   50.165400  143.524000
  H    -75.078000   50.636800  143.496000
  H    -74.013800   49.139800  143.029000
  C    -73.715200   50.253600  145.054000
  H    -73.651600   51.275400  145.454000
  H    -74.428500   49.689500  145.721000
  H    -72.731900   49.781700  145.231000
  S    -76.481700   53.347800  137.888000
  C    -78.115100   52.971700  137.446000
  C    -78.425800   51.760200  137.967000
  C    -77.459900   51.135100  138.854000
  C    -76.323300   51.900700  138.892000
  H    -79.464600   51.453700  138.011000
  C    -77.639300   49.823500  139.597000
  H    -78.665500   49.519800  139.574000
  H    -77.475700   49.955900  140.694000
  C    -76.851100   48.602600  139.090000
  H    -75.755600   48.775900  139.173000
  H    -77.091400   48.452700  138.040000
  C    -77.169700   47.302200  139.839000
  H    -76.744800   46.415100  139.309000
  H    -78.248900   47.119400  139.956000
  H    -76.861600   47.180900  140.867000
  H    -71.632300   51.689400  140.227000
  H    -78.852800   53.596200  136.883000

 Total Charge           Charge          ....    0
 Multiplicity           Mult            ....    1
 Number of Electrons    NEL             ....  134
 Basis Dimension        Dim             ....  322

ORBITAL ENERGIES
----------------

  NO   OCC          E(Eh)            E(eV)
   0   2.0000     -88.970980     -2421.0234
   1   2.0000     -88.962186     -2420.7842
   2   2.0000     -10.326950      -281.0106
   3   2.0000     -10.323682      -280.9217
   4   2.0000     -10.317710      -280.7592
   5   2.0000     -10.310525      -280.5637
   6   2.0000     -10.307115      -280.4708
   7   2.0000     -10.302332      -280.3407
   8   2.0000     -10.301611      -280.3211
   9   2.0000     -10.300654      -280.2951
  10   2.0000     -10.292158      -280.0639
  11   2.0000     -10.291161      -280.0367
  12   2.0000     -10.289912      -280.0027
  13   2.0000     -10.288175      -279.9555
  14   2.0000     -10.285481      -279.8822
  15   2.0000     -10.277449      -279.6636
  16   2.0000      -8.085196      -220.0094
  17   2.0000      -8.077121      -219.7896
  18   2.0000      -6.043603      -164.4548
  19   2.0000      -6.039945      -164.3553
  20   2.0000      -6.035956      -164.2467
  21   2.0000      -6.035739      -164.2408
  22   2.0000      -6.031510      -164.1257
  23   2.0000      -6.027829      -164.0256
  24   2.0000      -1.007096       -27.4045
  25   2.0000      -0.985021       -26.8038
  26   2.0000      -0.912264       -24.8240
  27   2.0000      -0.905177       -24.6311
  28   2.0000      -0.869062       -23.6484
  29   2.0000      -0.851999       -23.1841
  30   2.0000      -0.843153       -22.9434
  31   2.0000      -0.812316       -22.1042
  32   2.0000      -0.783622       -21.3234
  33   2.0000      -0.772720       -21.0268
  34   2.0000      -0.710442       -19.3321
  35   2.0000      -0.695449       -18.9241
  36   2.0000      -0.684610       -18.6292
  37   2.0000      -0.658528       -17.9195
  38   2.0000      -0.638354       -17.3705
  39   2.0000      -0.626637       -17.0517
  40   2.0000      -0.595218       -16.1967
  41   2.0000      -0.571757       -15.5583
  42   2.0000      -0.561588       -15.2816
  43   2.0000      -0.557499       -15.1703
  44   2.0000      -0.524044       -14.2600
  45   2.0000      -0.517671       -14.0865
  46   2.0000      -0.511111       -13.9080
  47   2.0000      -0.510614       -13.8945
  48   2.0000      -0.504935       -13.7400
  49   2.0000      -0.497636       -13.5414
  50   2.0000      -0.485683       -13.2161
  51   2.0000      -0.485277       -13.2051
  52   2.0000      -0.469429       -12.7738
  53   2.0000      -0.464795       -12.6477
  54   2.0000      -0.456634       -12.4256
  55   2.0000      -0.449822       -12.2403
  56   2.0000      -0.442136       -12.0311
  57   2.0000      -0.439692       -11.9646
  58   2.0000      -0.432056       -11.7568
  59   2.0000      -0.428161       -11.6508
  60   2.0000      -0.418366       -11.3843
  61   2.0000      -0.413346       -11.2477
  62   2.0000      -0.411694       -11.2028
  63   2.0000      -0.349508        -9.5106
  64   2.0000      -0.336220        -9.1490
  65   2.0000      -0.328714        -8.9448
  66   2.0000      -0.286269        -7.7898
  67   0.0000       0.028319         0.7706
  68   0.0000       0.071652         1.9497
  69   0.0000       0.110188         2.9984
  70   0.0000       0.123318         3.3556
  71   0.0000       0.128850         3.5062

MULLIKEN ATOMIC CHARGES
-----------------------
   0 S :    0.129110
   1 C :   -0.145832
   2 C :   -0.045293
   3 C :    0.011373
   4 C :   -0.138602
   5 H :   -0.018404
   6 C :    0.080361
   7 H :    0.050921
   8 H :    0.036157
   9 C :   -0.158230
  10 H :    0.054052
  11 H :    0.058475
  12 C :   -0.063000
  13 H :    0.042417
  14 H :    0.047818
  15 H :    0.026321
  16 S :    0.095268
  17 C :   -0.103459
  18 C :   -0.024990
  19 C :   -0.038588
  20 C :   -0.161161
  21 H :    0.018162
  22 C :    0.061443
  23 H :   -0.001168
  24 H :    0.031818
  25 C :   -0.058820
  26 H :    0.051960
  27 H :    0.031868
  28 C :   -0.065232
  29 H :    0.039952
  30 H :    0.017843
  31 H :    0.023196
  32 H :    0.036671
  33 H :    0.077593
Sum of atomic charges:    0.0000000

LOEWDIN ATOMIC CHARGES
----------------------
   0 S :    0.404350
   1 C :   -0.189571
   2 C :   -0.066193
   3 C :   -0.052672
   4 C :   -0.192233
   5 H :    0.015984
   6 C :   -0.031981
   7 H :    0.042118
   8 H :    0.033073
   9 C :   -0.053677
  10 H :    0.032551
  11 H :    0.036263
  12 C :   -0.076067
  13 H :    0.028955
  14 H :    0.033106
  15 H :    0.022799
  16 S :    0.395813
  17 C :   -0.198135
  18 C :   -0.078016
  19 C :   -0.058247
  20 C :   -0.185946
  21 H :    0.027816
  22 C :   -0.035629
  23 H :    0.024365
  24 H :    0.034135
  25 C :   -0.038116
  26 H :    0.030992
  27 H :    0.026857
  28 C :   -0.075221
  29 H :    0.033111
  30 H :    0.022243
  31 H :    0.021115
  32 H :    0.019063
  33 H :    0.046994

  Mayer bond orders larger than 0.100000
B(  0-S ,  1-C ) :   1.1543 B(  0-S ,  4-C ) :   1.1324 B(  1-C ,  2-C ) :   1.6120
B(  1-C , 32-H ) :   0.9629 B(  2-C ,  3-C ) :   1.2594 B(  2-C ,  6-C ) :   1.0085
B(  3-C ,  4-C ) :   1.5611 B(  3-C ,  5-H ) :   0.9948 B(  4-C , 20-C ) :   1.0736
B(  6-C ,  7-H ) :   0.9334 B(  6-C ,  8-H ) :   0.9414 B(  6-C ,  9-C ) :   1.0601
B(  9-C , 10-H ) :   0.9507 B(  9-C , 11-H ) :   0.9598 B(  9-C , 12-C ) :   1.0655
B( 12-C , 13-H ) :   0.9752 B( 12-C , 14-H ) :   0.9762 B( 12-C , 15-H ) :   0.9736
B( 16-S , 17-C ) :   1.1370 B( 16-S , 20-C ) :   1.1307 B( 17-C , 18-C ) :   1.6359
B( 17-C , 33-H ) :   0.9603 B( 18-C , 19-C ) :   1.2454 B( 18-C , 21-H ) :   0.9742
B( 19-C , 20-C ) :   1.6046 B( 19-C , 22-C ) :   1.0485 B( 22-C , 23-H ) :   0.9249
B( 22-C , 24-H ) :   0.9351 B( 22-C , 25-C ) :   1.0635 B( 25-C , 26-H ) :   0.9533
B( 25-C , 27-H ) :   0.9529 B( 25-C , 28-C ) :   1.0801 B( 28-C , 29-H ) :   0.9743
B( 28-C , 30-H ) :   0.9723 B( 28-C , 31-H ) :   0.9746

Dispersion correction           -0.014259571
FINAL SINGLE POINT ENERGY     -1339.880224549917

DIPOLE MOMENT
-------------
                                X             Y             Z
Electronic contribution:      2.64159      21.18780     -23.14700
Nuclear contribution   :     -2.76839     -21.48009      23.79136
                        -----------------------------------------
Total Dipole Moment    :     -0.12679      -0.29228       0.64436
                        -----------------------------------------
Magnitude (a.u.)       :      0.71883
Magnitude (Debye)      :      1.82711

Rotational constants in cm-1:     0.017194     0.009044     0.007085
Rotational constants in MHz :   515.451733   271.128693   212.411201

                             ****ORCA TERMINATED NORMALLY****
TOTAL RUN TIME: 0 days 0 hours 0 minutes 33 seconds 384 msec
