                         Program Version 4.2.1 -  RELEASE  -
|  1> ! wB97X-D3 SP def2-SVP
|  2> %pal
|  3> nprocs 16
|  4> end
|  5>
|  6> * xyz 0 1
|  7> S 	 24.4878 	 11.7029 	 71.3165
|  8> C 	 25.1492 	 12.3126 	 69.7662
|  9> C 	 24.1071 	 12.7881 	 68.8838
| 10> C 	 22.8253 	 12.7318 	 69.5535
| 11> C 	 22.8392 	 12.0739 	 70.7448
| 12> H 	 21.8801 	 12.9865 	 69.128
| 13> C 	 24.3039 	 13.4014 	 67.4884
| 14> H 	 23.3703 	 13.1294 	 66.8998
| 15> H 	 25.1024 	 12.859 	 67.0225
| 16> C 	 24.5549 	 14.8838 	 67.4751
| 17> H 	 23.7937 	 15.4661 	 68.0621
| 18> H 	 25.5013 	 15.0404 	 67.9937
| 19> C 	 24.7484 	 15.3304 	 66.0006
| 20> H 	 25.4966 	 14.7148 	 65.4843
| 21> H 	 23.8233 	 15.1598 	 65.5023
| 22> H 	 24.9533 	 16.3735 	 65.9423
| 23> S 	 21.0543 	 10.0399 	 71.365
| 24> C 	 19.5842 	 10.4132 	 72.2208
| 25> C 	 19.3631 	 11.8018 	 72.2158
| 26> C 	 20.5298 	 12.5402 	 71.848
| 27> C 	 21.6207 	 11.7625 	 71.4901
| 28> H 	 18.4576 	 12.1564 	 72.7156
| 29> C 	 20.492 	 14.0061 	 72.0628
| 30> H 	 19.4368 	 14.2 	 72.2831
| 31> H 	 20.5832 	 14.5905 	 71.1501
| 32> C 	 21.4049 	 14.5448 	 73.1624
| 33> H 	 22.42 	 14.2672 	 72.8648
| 34> H 	 21.2828 	 14.0924 	 74.1491
| 35> C 	 21.2329 	 16.0952 	 73.3477
| 36> H 	 21.5398 	 16.6405 	 72.4086
| 37> H 	 21.8694 	 16.549 	 74.1723
| 38> H 	 20.2119 	 16.2785 	 73.5536
| 39> H 	 26.2936 	 12.2505 	 69.5587
| 40> H 	 18.8087 	 9.67078 	 72.5208
| 41> *
| 42>
| 43>                          ****END OF INPUT****

CARTESIAN COORDINATES (ANGSTROEM)
---------------------------------
  S     24.487800   11.702900   71.316500
  C     25.149200   12.312600   69.766200
  C     24.107100   12.788100   68.883800
  C     22.825300   12.731800   69.553500
  C     22.839200   12.073900   70.744800
  H     21.880100   12.986500   69.128000
  C     24.303900   13.401400   67.488400
  H     23.370300   13.129400   66.899800
  H     25.102400   12.859000   67.022500
  C     24.554900   14.883800   67.475100
  H     23.793700   15.466100   68.062100
  H     25.501300   15.040400   67.993700
  C     24.748400   15.330400   66.000600
  H     25.496600   14.714800   65.484300
  H     23.823300   15.159800   65.502300
  H     24.953300   16.373500   65.942300
  S     21.054300   10.039900   71.365000
  C     19.584200   10.413200   72.220800
  C     19.363100   11.801800   72.215800
  C     20.529800   12.540200   71.848000
  C     21.620700   11.762500   71.490100
  H     18.457600   12.156400   72.715600
  C     20.492000   14.006100   72.062800
  H     19.436800   14.200000   72.283100
  H     20.583200   14.590500   71.150100
  C     21.404900   14.544800   73.162400
  H     22.420000   14.267200   72.864800
  H     21.282800   14.092400   74.149100
  C     21.232900   16.095200   73.347700
  H     21.539800   16.640500   72.408600
  H     21.869400   16.549000   74.172300
  H     20.211900   16.278500   73.553600
  H     26.293600   12.250500   69.558700
  H     18.808700    9.670780   72.520800

 Total Charge           Charge          ....    0
 Multiplicity           Mult            ....    1
 Number of Electrons    NEL             ....  134
 Basis Dimension        Dim             ....  322

ORBITAL ENERGIES
----------------

  NO   OCC          E(Eh)            E(eV)
   0   2.0000     -88.969653     -2420.9873
   1   2.0000     -88.961648     -2420.7695
   2   2.0000     -10.333192      -281.1805
   3   2.0000     -10.329466      -281.0791
   4   2.0000     -10.327883      -281.0360
   5   2.0000     -10.322844      -280.8989
   6   2.0000     -10.313009      -280.6312
   7   2.0000     -10.304095      -280.3887
   8   2.0000     -10.296617      -280.1852
   9   2.0000     -10.295174      -280.1459
  10   2.0000     -10.294367      -280.1240
  11   2.0000     -10.290408      -280.0162
  12   2.0000     -10.287063      -279.9252
  13   2.0000     -10.285789      -279.8906
  14   2.0000     -10.282674      -279.8058
  15   2.0000     -10.276714      -279.6436
  16   2.0000      -8.082918      -219.9474
  17   2.0000      -8.075808      -219.7539
  18   2.0000      -6.041481      -164.3971
  19   2.0000      -6.037681      -164.2936
  20   2.0000      -6.034313      -164.2020
  21   2.0000      -6.033661      -164.1843
  22   2.0000      -6.030453      -164.0970
  23   2.0000      -6.026539      -163.9905
  24   2.0000      -0.998137       -27.1607
  25   2.0000      -0.974143       -26.5078
  26   2.0000      -0.913403       -24.8550
  27   2.0000      -0.907031       -24.6816
  28   2.0000      -0.863309       -23.4918
  29   2.0000      -0.848288       -23.0831
  30   2.0000      -0.844592       -22.9825
  31   2.0000      -0.807436       -21.9715
  32   2.0000      -0.778195       -21.1758
  33   2.0000      -0.764849       -20.8126
  34   2.0000      -0.706513       -19.2252
  35   2.0000      -0.701441       -19.0872
  36   2.0000      -0.686253       -18.6739
  37   2.0000      -0.658558       -17.9203
  38   2.0000      -0.640732       -17.4352
  39   2.0000      -0.617980       -16.8161
  40   2.0000      -0.593163       -16.1408
  41   2.0000      -0.567253       -15.4357
  42   2.0000      -0.560012       -15.2387
  43   2.0000      -0.554527       -15.0894
  44   2.0000      -0.528683       -14.3862
  45   2.0000      -0.520416       -14.1612
  46   2.0000      -0.514381       -13.9970
  47   2.0000      -0.505343       -13.7511
  48   2.0000      -0.501918       -13.6579
  49   2.0000      -0.490624       -13.3506
  50   2.0000      -0.488189       -13.2843
  51   2.0000      -0.482624       -13.1329
  52   2.0000      -0.465745       -12.6736
  53   2.0000      -0.464070       -12.6280
  54   2.0000      -0.454415       -12.3653
  55   2.0000      -0.447764       -12.1843
  56   2.0000      -0.445411       -12.1202
  57   2.0000      -0.439239       -11.9523
  58   2.0000      -0.435598       -11.8532
  59   2.0000      -0.426593       -11.6082
  60   2.0000      -0.417348       -11.3566
  61   2.0000      -0.415954       -11.3187
  62   2.0000      -0.409996       -11.1566
  63   2.0000      -0.339757        -9.2452
  64   2.0000      -0.327020        -8.8987
  65   2.0000      -0.324940        -8.8421
  66   2.0000      -0.299553        -8.1513
  67   0.0000       0.026879         0.7314
  68   0.0000       0.056134         1.5275
  69   0.0000       0.107591         2.9277
  70   0.0000       0.110726         3.0130
  71   0.0000       0.120442         3.2774

MULLIKEN ATOMIC CHARGES
-----------------------
   0 S :    0.110447
   1 C :   -0.164165
   2 C :   -0.091157
   3 C :    0.052626
   4 C :   -0.170510
   5 H :    0.010796
   6 C :    0.035727
   7 H :    0.032990
   8 H :    0.021392
   9 C :   -0.073905
  10 H :    0.040076
  11 H :    0.024595
  12 C :   -0.010295
  13 H :    0.031731
  14 H :    0.017509
  15 H :    0.033160
  16 S :    0.090048
  17 C :   -0.108382
  18 C :   -0.049521
  19 C :   -0.035346
  20 C :   -0.138387
  21 H :    0.031891
  22 C :    0.080787
  23 H :   -0.001336
  24 H :    0.017998
  25 C :   -0.057812
  26 H :    0.031822
  27 H :    0.031808
  28 C :   -0.069410
  29 H :    0.036570
  30 H :    0.046701
  31 H :    0.025505
  32 H :    0.089999
  33 H :    0.076046
Sum of atomic charges:   -0.0000000

LOEWDIN ATOMIC CHARGES
----------------------
   0 S :    0.378531
   1 C :   -0.203691
   2 C :   -0.056677
   3 C :   -0.051370
   4 C :   -0.194937
   5 H :    0.030515
   6 C :   -0.036254
   7 H :    0.035305
   8 H :    0.027769
   9 C :   -0.041416
  10 H :    0.030311
  11 H :    0.023621
  12 C :   -0.057585
  13 H :    0.028697
  14 H :    0.020118
  15 H :    0.022713
  16 S :    0.383774
  17 C :   -0.185266
  18 C :   -0.081962
  19 C :   -0.052802
  20 C :   -0.184164
  21 H :    0.034236
  22 C :   -0.036590
  23 H :    0.027159
  24 H :    0.029785
  25 C :   -0.034811
  26 H :    0.023907
  27 H :    0.026061
  28 C :   -0.069267
  29 H :    0.028580
  30 H :    0.033495
  31 H :    0.016170
  32 H :    0.046916
  33 H :    0.039127

  Mayer bond orders larger than 0.100000
B(  0-S ,  1-C ) :   1.1391 B(  0-S ,  4-C ) :   1.1236 B(  1-C ,  2-C ) :   1.6000
B(  1-C , 32-H ) :   0.9564 B(  2-C ,  3-C ) :   1.2255 B(  2-C ,  6-C ) :   1.0208
B(  3-C ,  4-C ) :   1.6140 B(  3-C ,  5-H ) :   0.9911 B(  4-C , 20-C ) :   1.0260
B(  6-C ,  7-H ) :   0.9422 B(  6-C ,  8-H ) :   0.9390 B(  6-C ,  9-C ) :   1.0667
B(  9-C , 10-H ) :   0.9565 B(  9-C , 11-H ) :   0.9517 B(  9-C , 12-C ) :   1.0734
B( 12-C , 13-H ) :   0.9732 B( 12-C , 14-H ) :   0.9753 B( 12-C , 15-H ) :   0.9740
B( 16-S , 17-C ) :   1.1769 B( 16-S , 20-C ) :   1.1182 B( 17-C , 18-C ) :   1.5999
B( 17-C , 20-C ) :   0.1039 B( 17-C , 33-H ) :   0.9597 B( 18-C , 19-C ) :   1.2514
B( 18-C , 21-H ) :   0.9820 B( 19-C , 20-C ) :   1.5870 B( 19-C , 22-C ) :   1.0532
B( 22-C , 23-H ) :   0.9297 B( 22-C , 24-H ) :   0.9223 B( 22-C , 25-C ) :   1.0559
B( 25-C , 26-H ) :   0.9554 B( 25-C , 27-H ) :   0.9573 B( 25-C , 28-C ) :   1.0731
B( 28-C , 29-H ) :   0.9759 B( 28-C , 30-H ) :   0.9763 B( 28-C , 31-H ) :   0.9777

Dispersion correction           -0.014022621
FINAL SINGLE POINT ENERGY     -1339.869808175604

DIPOLE MOMENT
-------------
                                X             Y             Z
Electronic contribution:     -0.68448     -26.11249       9.33116
Nuclear contribution   :      0.47548      26.64750      -9.67940
                        -----------------------------------------
Total Dipole Moment    :     -0.20901       0.53500      -0.34824
                        -----------------------------------------
Magnitude (a.u.)       :      0.67170
Magnitude (Debye)      :      1.70733

Rotational constants in cm-1:     0.017277     0.008144     0.006840
Rotational constants in MHz :   517.944504   244.151537   205.072962

                             ****ORCA TERMINATED NORMALLY****
TOTAL RUN TIME: 0 days 0 hours 0 minutes 27 seconds 567 msec
