                         Program Version 4.2.1 -  RELEASE  -
|  1> ! wB97X-D3 SP def2-SVP
|  2> %pal
|  3> nprocs 16
|  4> end
|  5>
|  6> * xyz 0 1
|  7> S 	 -13.3719 	 38.084 	 30.4904
|  8> C 	 -15.1316 	 37.8801 	 30.4451
|  9> C 	 -15.7175 	 38.7471 	 29.5474
| 10> C 	 -14.7905 	 39.5988 	 28.9317
| 11> C 	 -13.4407 	 39.3021 	 29.2293
| 12> H 	 -15.0665 	 40.4228 	 28.221
| 13> C 	 -17.276 	 38.8893 	 29.3113
| 14> H 	 -17.4119 	 40.0019 	 29.362
| 15> H 	 -17.8018 	 38.5679 	 30.2161
| 16> C 	 -17.8654 	 38.4481 	 27.9705
| 17> H 	 -18.8043 	 38.9963 	 27.9147
| 18> H 	 -17.3022 	 38.6245 	 27.1253
| 19> C 	 -18.0707 	 36.9073 	 27.7962
| 20> H 	 -18.6626 	 36.5788 	 26.8796
| 21> H 	 -17.0387 	 36.4479 	 27.6185
| 22> H 	 -18.6016 	 36.3864 	 28.6411
| 23> S 	 -11.764 	 39.7519 	 27.1604
| 24> C 	 -10.4549 	 40.8708 	 27.3536
| 25> C 	 -10.3543 	 41.2688 	 28.6341
| 26> C 	 -11.4284 	 40.9161 	 29.4866
| 27> C 	 -12.1925 	 39.9475 	 28.8412
| 28> H 	 -9.5702 	 41.914 	 28.8921
| 29> C 	 -11.5111 	 41.2939 	 30.9245
| 30> H 	 -10.5999 	 41.151 	 31.4821
| 31> H 	 -12.0979 	 40.6429 	 31.5128
| 32> C 	 -12.1902 	 42.7006 	 31.239
| 33> H 	 -12.402 	 42.7272 	 32.3677
| 34> H 	 -13.2064 	 42.769 	 30.7646
| 35> C 	 -11.4311 	 43.9663 	 30.7129
| 36> H 	 -12.0323 	 44.8211 	 30.8301
| 37> H 	 -11.2869 	 43.8171 	 29.67
| 38> H 	 -10.4926 	 44.1037 	 31.2342
| 39> H 	 -15.6059 	 37.1169 	 30.9951
| 40> H 	 -9.79375 	 41.1438 	 26.5411
| 41> *
| 42>
| 43>                          ****END OF INPUT****

CARTESIAN COORDINATES (ANGSTROEM)
---------------------------------
  S    -13.371900   38.084000   30.490400
  C    -15.131600   37.880100   30.445100
  C    -15.717500   38.747100   29.547400
  C    -14.790500   39.598800   28.931700
  C    -13.440700   39.302100   29.229300
  H    -15.066500   40.422800   28.221000
  C    -17.276000   38.889300   29.311300
  H    -17.411900   40.001900   29.362000
  H    -17.801800   38.567900   30.216100
  C    -17.865400   38.448100   27.970500
  H    -18.804300   38.996300   27.914700
  H    -17.302200   38.624500   27.125300
  C    -18.070700   36.907300   27.796200
  H    -18.662600   36.578800   26.879600
  H    -17.038700   36.447900   27.618500
  H    -18.601600   36.386400   28.641100
  S    -11.764000   39.751900   27.160400
  C    -10.454900   40.870800   27.353600
  C    -10.354300   41.268800   28.634100
  C    -11.428400   40.916100   29.486600
  C    -12.192500   39.947500   28.841200
  H     -9.570200   41.914000   28.892100
  C    -11.511100   41.293900   30.924500
  H    -10.599900   41.151000   31.482100
  H    -12.097900   40.642900   31.512800
  C    -12.190200   42.700600   31.239000
  H    -12.402000   42.727200   32.367700
  H    -13.206400   42.769000   30.764600
  C    -11.431100   43.966300   30.712900
  H    -12.032300   44.821100   30.830100
  H    -11.286900   43.817100   29.670000
  H    -10.492600   44.103700   31.234200
  H    -15.605900   37.116900   30.995100
  H     -9.793750   41.143800   26.541100

 Total Charge           Charge          ....    0
 Multiplicity           Mult            ....    1
 Number of Electrons    NEL             ....  134
 Basis Dimension        Dim             ....  322

ORBITAL ENERGIES
----------------

  NO   OCC          E(Eh)            E(eV)
   0   2.0000     -88.964964     -2420.8597
   1   2.0000     -88.963552     -2420.8213
   2   2.0000     -10.330529      -281.1080
   3   2.0000     -10.324731      -280.9502
   4   2.0000     -10.311727      -280.5963
   5   2.0000     -10.311612      -280.5932
   6   2.0000     -10.302882      -280.3557
   7   2.0000     -10.302636      -280.3490
   8   2.0000     -10.302296      -280.3397
   9   2.0000     -10.299322      -280.2588
  10   2.0000     -10.296820      -280.1907
  11   2.0000     -10.289464      -279.9905
  12   2.0000     -10.286880      -279.9202
  13   2.0000     -10.286484      -279.9095
  14   2.0000     -10.284272      -279.8493
  15   2.0000     -10.268709      -279.4258
  16   2.0000      -8.079079      -219.8429
  17   2.0000      -8.078992      -219.8405
  18   2.0000      -6.037444      -164.2872
  19   2.0000      -6.037368      -164.2851
  20   2.0000      -6.033563      -164.1816
  21   2.0000      -6.033357      -164.1760
  22   2.0000      -6.030153      -164.0888
  23   2.0000      -6.029890      -164.0816
  24   2.0000      -1.008605       -27.4455
  25   2.0000      -0.984158       -26.7803
  26   2.0000      -0.904779       -24.6203
  27   2.0000      -0.900779       -24.5114
  28   2.0000      -0.869006       -23.6469
  29   2.0000      -0.847870       -23.0717
  30   2.0000      -0.842181       -22.9169
  31   2.0000      -0.811215       -22.0743
  32   2.0000      -0.786668       -21.4063
  33   2.0000      -0.774274       -21.0691
  34   2.0000      -0.707582       -19.2543
  35   2.0000      -0.695355       -18.9216
  36   2.0000      -0.686433       -18.6788
  37   2.0000      -0.662942       -18.0396
  38   2.0000      -0.639450       -17.4003
  39   2.0000      -0.619918       -16.8688
  40   2.0000      -0.605043       -16.4641
  41   2.0000      -0.569580       -15.4990
  42   2.0000      -0.544537       -14.8176
  43   2.0000      -0.539282       -14.6746
  44   2.0000      -0.538542       -14.6545
  45   2.0000      -0.533524       -14.5179
  46   2.0000      -0.520775       -14.1710
  47   2.0000      -0.514085       -13.9890
  48   2.0000      -0.500445       -13.6178
  49   2.0000      -0.494271       -13.4498
  50   2.0000      -0.489383       -13.3168
  51   2.0000      -0.480172       -13.0661
  52   2.0000      -0.471713       -12.8360
  53   2.0000      -0.460622       -12.5342
  54   2.0000      -0.459460       -12.5025
  55   2.0000      -0.443577       -12.0703
  56   2.0000      -0.440000       -11.9730
  57   2.0000      -0.435136       -11.8406
  58   2.0000      -0.431383       -11.7385
  59   2.0000      -0.423429       -11.5221
  60   2.0000      -0.422822       -11.5056
  61   2.0000      -0.411669       -11.2021
  62   2.0000      -0.407546       -11.0899
  63   2.0000      -0.336318        -9.1517
  64   2.0000      -0.331767        -9.0279
  65   2.0000      -0.329141        -8.9564
  66   2.0000      -0.301901        -8.2152
  67   0.0000       0.037442         1.0189
  68   0.0000       0.060963         1.6589
  69   0.0000       0.112233         3.0540
  70   0.0000       0.121042         3.2937
  71   0.0000       0.127865         3.4794

MULLIKEN ATOMIC CHARGES
-----------------------
   0 S :    0.102227
   1 C :   -0.122347
   2 C :   -0.074535
   3 C :    0.032971
   4 C :   -0.176464
   5 H :    0.032278
   6 C :    0.038562
   7 H :    0.033163
   8 H :    0.028787
   9 C :   -0.003647
  10 H :    0.033162
  11 H :    0.019358
  12 C :   -0.130171
  13 H :    0.043579
  14 H :    0.049774
  15 H :    0.037599
  16 S :    0.111403
  17 C :   -0.094891
  18 C :   -0.000892
  19 C :    0.020233
  20 C :   -0.182110
  21 H :   -0.002138
  22 C :    0.084672
  23 H :    0.026516
  24 H :   -0.001558
  25 C :   -0.143008
  26 H :    0.040238
  27 H :    0.038473
  28 C :   -0.013920
  29 H :    0.024625
  30 H :    0.028153
  31 H :    0.029126
  32 H :    0.034247
  33 H :    0.056533
Sum of atomic charges:   -0.0000000

LOEWDIN ATOMIC CHARGES
----------------------
   0 S :    0.404178
   1 C :   -0.184801
   2 C :   -0.069656
   3 C :   -0.067549
   4 C :   -0.198027
   5 H :    0.040491
   6 C :   -0.028068
   7 H :    0.038486
   8 H :    0.031471
   9 C :   -0.037283
  10 H :    0.027688
  11 H :    0.019614
  12 C :   -0.083987
  13 H :    0.031280
  14 H :    0.034006
  15 H :    0.023085
  16 S :    0.417695
  17 C :   -0.186265
  18 C :   -0.066579
  19 C :   -0.050834
  20 C :   -0.204541
  21 H :    0.022790
  22 C :   -0.037476
  23 H :    0.033703
  24 H :    0.023254
  25 C :   -0.039001
  26 H :    0.028079
  27 H :    0.028345
  28 C :   -0.062628
  29 H :    0.020315
  30 H :    0.021942
  31 H :    0.022350
  32 H :    0.017598
  33 H :    0.030325

  Mayer bond orders larger than 0.100000
B(  0-S ,  1-C ) :   1.1485 B(  0-S ,  4-C ) :   1.1669 B(  1-C ,  2-C ) :   1.5919
B(  1-C ,  4-C ) :   0.1111 B(  1-C , 32-H ) :   0.9789 B(  2-C ,  3-C ) :   1.2704
B(  2-C ,  6-C ) :   0.9976 B(  3-C ,  4-C ) :   1.5637 B(  3-C ,  5-H ) :   0.9851
B(  4-C , 20-C ) :   0.9924 B(  6-C ,  7-H ) :   0.9445 B(  6-C ,  8-H ) :   0.9497
B(  6-C ,  9-C ) :   1.0620 B(  9-C , 10-H ) :   0.9560 B(  9-C , 11-H ) :   0.9596
B(  9-C , 12-C ) :   1.0594 B( 12-C , 13-H ) :   0.9757 B( 12-C , 14-H ) :   0.9776
B( 12-C , 15-H ) :   0.9783 B( 16-S , 17-C ) :   1.1513 B( 16-S , 20-C ) :   1.1626
B( 17-C , 18-C ) :   1.6148 B( 17-C , 33-H ) :   0.9683 B( 18-C , 19-C ) :   1.2252
B( 18-C , 21-H ) :   0.9931 B( 19-C , 20-C ) :   1.5902 B( 19-C , 22-C ) :   1.0473
B( 22-C , 23-H ) :   0.9413 B( 22-C , 24-H ) :   0.9242 B( 22-C , 25-C ) :   1.0555
B( 25-C , 26-H ) :   0.9590 B( 25-C , 27-H ) :   0.9583 B( 25-C , 28-C ) :   1.0724
B( 28-C , 29-H ) :   0.9745 B( 28-C , 30-H ) :   0.9723 B( 28-C , 31-H ) :   0.9773

Dispersion correction           -0.014468581
FINAL SINGLE POINT ENERGY     -1339.870026200217

DIPOLE MOMENT
-------------
                                X             Y             Z
Electronic contribution:     14.35780      -9.18170      -4.32164
Nuclear contribution   :    -14.62866       9.55623       4.38877
                        -----------------------------------------
Total Dipole Moment    :     -0.27086       0.37453       0.06713
                        -----------------------------------------
Magnitude (a.u.)       :      0.46706
Magnitude (Debye)      :      1.18717

Rotational constants in cm-1:     0.021741     0.007465     0.006749
Rotational constants in MHz :   651.787979   223.798331   202.333469

                             ****ORCA TERMINATED NORMALLY****
TOTAL RUN TIME: 0 days 0 hours 0 minutes 33 seconds 190 msec
