                         Program Version 4.2.1 -  RELEASE  -
|  1> ! wB97X-D3 SP def2-SVP
|  2> %pal
|  3> nprocs 16
|  4> end
|  5>
|  6> * xyz 0 1
|  7> S 	 -13.7925 	 38.0407 	 38.1432
|  8> C 	 -13.044 	 39.3226 	 37.1757
|  9> C 	 -11.6725 	 39.1305 	 37.0956
| 10> C 	 -11.1128 	 38.1248 	 37.9104
| 11> C 	 -12.1395 	 37.5048 	 38.6206
| 12> H 	 -10.1212 	 37.8343 	 38.1039
| 13> C 	 -10.8693 	 39.9128 	 36.1429
| 14> H 	 -9.80208 	 39.709 	 36.46
| 15> H 	 -11.138 	 40.975 	 36.1753
| 16> C 	 -10.8515 	 39.4365 	 34.6817
| 17> H 	 -11.82 	 39.5718 	 34.2752
| 18> H 	 -10.2388 	 40.0701 	 33.975
| 19> C 	 -10.515 	 37.9929 	 34.2977
| 20> H 	 -9.48372 	 37.7541 	 34.506
| 21> H 	 -11.1669 	 37.3902 	 34.8484
| 22> H 	 -10.6897 	 37.7635 	 33.2465
| 23> S 	 -11.1394 	 36.8462 	 41.0985
| 24> C 	 -11.3726 	 35.1954 	 41.6454
| 25> C 	 -11.9576 	 34.3849 	 40.6883
| 26> C 	 -12.2705 	 35.058 	 39.5131
| 27> C 	 -12.0589 	 36.4632 	 39.6102
| 28> H 	 -12.0355 	 33.3435 	 40.9362
| 29> C 	 -12.8915 	 34.3487 	 38.345
| 30> H 	 -13.4685 	 35.0775 	 37.7917
| 31> H 	 -13.6222 	 33.6125 	 38.6796
| 32> C 	 -11.8369 	 33.7173 	 37.4723
| 33> H 	 -11.3282 	 32.8893 	 37.9712
| 34> H 	 -11.0894 	 34.5227 	 37.4127
| 35> C 	 -12.4121 	 33.0875 	 36.1629
| 36> H 	 -13.0207 	 33.7978 	 35.6081
| 37> H 	 -13.1159 	 32.2758 	 36.4239
| 38> H 	 -11.5685 	 32.7954 	 35.4697
| 39> H 	 -13.5788 	 40.065 	 36.5515
| 40> H 	 -11.1853 	 34.7751 	 42.603
| 41> *
| 42>
| 43>                          ****END OF INPUT****

CARTESIAN COORDINATES (ANGSTROEM)
---------------------------------
  S    -13.792500   38.040700   38.143200
  C    -13.044000   39.322600   37.175700
  C    -11.672500   39.130500   37.095600
  C    -11.112800   38.124800   37.910400
  C    -12.139500   37.504800   38.620600
  H    -10.121200   37.834300   38.103900
  C    -10.869300   39.912800   36.142900
  H     -9.802080   39.709000   36.460000
  H    -11.138000   40.975000   36.175300
  C    -10.851500   39.436500   34.681700
  H    -11.820000   39.571800   34.275200
  H    -10.238800   40.070100   33.975000
  C    -10.515000   37.992900   34.297700
  H     -9.483720   37.754100   34.506000
  H    -11.166900   37.390200   34.848400
  H    -10.689700   37.763500   33.246500
  S    -11.139400   36.846200   41.098500
  C    -11.372600   35.195400   41.645400
  C    -11.957600   34.384900   40.688300
  C    -12.270500   35.058000   39.513100
  C    -12.058900   36.463200   39.610200
  H    -12.035500   33.343500   40.936200
  C    -12.891500   34.348700   38.345000
  H    -13.468500   35.077500   37.791700
  H    -13.622200   33.612500   38.679600
  C    -11.836900   33.717300   37.472300
  H    -11.328200   32.889300   37.971200
  H    -11.089400   34.522700   37.412700
  C    -12.412100   33.087500   36.162900
  H    -13.020700   33.797800   35.608100
  H    -13.115900   32.275800   36.423900
  H    -11.568500   32.795400   35.469700
  H    -13.578800   40.065000   36.551500
  H    -11.185300   34.775100   42.603000

 Total Charge           Charge          ....    0
 Multiplicity           Mult            ....    1
 Number of Electrons    NEL             ....  134
 Basis Dimension        Dim             ....  322

ORBITAL ENERGIES
----------------

  NO   OCC          E(Eh)            E(eV)
   0   2.0000     -88.969841     -2420.9924
   1   2.0000     -88.969644     -2420.9871
   2   2.0000     -10.333970      -281.2016
   3   2.0000     -10.328122      -281.0425
   4   2.0000     -10.317490      -280.7532
   5   2.0000     -10.315127      -280.6889
   6   2.0000     -10.304143      -280.3900
   7   2.0000     -10.299277      -280.2576
   8   2.0000     -10.297218      -280.2015
   9   2.0000     -10.293309      -280.0952
  10   2.0000     -10.288942      -279.9763
  11   2.0000     -10.284914      -279.8667
  12   2.0000     -10.284656      -279.8597
  13   2.0000     -10.284318      -279.8505
  14   2.0000     -10.283056      -279.8162
  15   2.0000     -10.268902      -279.4310
  16   2.0000      -8.083542      -219.9644
  17   2.0000      -8.082893      -219.9467
  18   2.0000      -6.042011      -164.4115
  19   2.0000      -6.041372      -164.3941
  20   2.0000      -6.038215      -164.3082
  21   2.0000      -6.037706      -164.2943
  22   2.0000      -6.034397      -164.2043
  23   2.0000      -6.033671      -164.1845
  24   2.0000      -1.003439       -27.3050
  25   2.0000      -0.981977       -26.7210
  26   2.0000      -0.912021       -24.8173
  27   2.0000      -0.911326       -24.7984
  28   2.0000      -0.869017       -23.6472
  29   2.0000      -0.853195       -23.2166
  30   2.0000      -0.846442       -23.0329
  31   2.0000      -0.817064       -22.2334
  32   2.0000      -0.784427       -21.3453
  33   2.0000      -0.766564       -20.8593
  34   2.0000      -0.708870       -19.2893
  35   2.0000      -0.700509       -19.0618
  36   2.0000      -0.694854       -18.9079
  37   2.0000      -0.660216       -17.9654
  38   2.0000      -0.644201       -17.5296
  39   2.0000      -0.612052       -16.6548
  40   2.0000      -0.594255       -16.1705
  41   2.0000      -0.572607       -15.5814
  42   2.0000      -0.565535       -15.3890
  43   2.0000      -0.553393       -15.0586
  44   2.0000      -0.544272       -14.8104
  45   2.0000      -0.523682       -14.2501
  46   2.0000      -0.518199       -14.1009
  47   2.0000      -0.515347       -14.0233
  48   2.0000      -0.504053       -13.7160
  49   2.0000      -0.491744       -13.3810
  50   2.0000      -0.488699       -13.2982
  51   2.0000      -0.481377       -13.0989
  52   2.0000      -0.470080       -12.7915
  53   2.0000      -0.466445       -12.6926
  54   2.0000      -0.458902       -12.4874
  55   2.0000      -0.449946       -12.2437
  56   2.0000      -0.444104       -12.0847
  57   2.0000      -0.439481       -11.9589
  58   2.0000      -0.436437       -11.8761
  59   2.0000      -0.422509       -11.4971
  60   2.0000      -0.416908       -11.3447
  61   2.0000      -0.412546       -11.2260
  62   2.0000      -0.405059       -11.0222
  63   2.0000      -0.340800        -9.2736
  64   2.0000      -0.336712        -9.1624
  65   2.0000      -0.327708        -8.9174
  66   2.0000      -0.291918        -7.9435
  67   0.0000       0.029076         0.7912
  68   0.0000       0.049212         1.3391
  69   0.0000       0.100037         2.7221
  70   0.0000       0.108739         2.9589
  71   0.0000       0.128625         3.5001

MULLIKEN ATOMIC CHARGES
-----------------------
   0 S :    0.107964
   1 C :   -0.121646
   2 C :   -0.089324
   3 C :    0.072646
   4 C :   -0.187305
   5 H :    0.003546
   6 C :    0.072980
   7 H :    0.022491
   8 H :    0.042360
   9 C :   -0.085857
  10 H :    0.002127
  11 H :    0.029201
  12 C :   -0.030048
  13 H :    0.023387
  14 H :    0.025157
  15 H :    0.031702
  16 S :    0.113374
  17 C :   -0.073300
  18 C :   -0.036509
  19 C :   -0.024117
  20 C :   -0.174165
  21 H :    0.014203
  22 C :    0.105151
  23 H :    0.003935
  24 H :    0.018672
  25 C :   -0.093589
  26 H :    0.026594
  27 H :    0.032049
  28 C :   -0.042887
  29 H :    0.024948
  30 H :    0.036197
  31 H :    0.051255
  32 H :    0.058822
  33 H :    0.039984
Sum of atomic charges:   -0.0000000

LOEWDIN ATOMIC CHARGES
----------------------
   0 S :    0.385547
   1 C :   -0.197647
   2 C :   -0.068854
   3 C :   -0.051390
   4 C :   -0.169184
   5 H :    0.030310
   6 C :   -0.035562
   7 H :    0.034057
   8 H :    0.038419
   9 C :   -0.046524
  10 H :    0.012338
  11 H :    0.027662
  12 C :   -0.058401
  13 H :    0.019270
  14 H :    0.017353
  15 H :    0.030477
  16 S :    0.398528
  17 C :   -0.176996
  18 C :   -0.070538
  19 C :   -0.046513
  20 C :   -0.203259
  21 H :    0.032346
  22 C :   -0.032246
  23 H :    0.020846
  24 H :    0.027439
  25 C :   -0.042326
  26 H :    0.022854
  27 H :    0.026877
  28 C :   -0.069392
  29 H :    0.020769
  30 H :    0.029438
  31 H :    0.035659
  32 H :    0.034828
  33 H :    0.023814

  Mayer bond orders larger than 0.100000
B(  0-S ,  1-C ) :   1.1223 B(  0-S ,  4-C ) :   1.1522 B(  1-C ,  2-C ) :   1.6109
B(  1-C ,  4-C ) :   0.1028 B(  1-C , 32-H ) :   0.9661 B(  2-C ,  3-C ) :   1.2104
B(  2-C ,  6-C ) :   1.0307 B(  3-C ,  4-C ) :   1.5771 B(  3-C ,  5-H ) :   1.0032
B(  4-C , 20-C ) :   1.0330 B(  6-C ,  7-H ) :   0.9397 B(  6-C ,  8-H ) :   0.9373
B(  6-C ,  9-C ) :   1.0632 B(  9-C , 10-H ) :   0.9523 B(  9-C , 11-H ) :   0.9570
B(  9-C , 12-C ) :   1.0837 B( 12-C , 13-H ) :   0.9764 B( 12-C , 14-H ) :   0.9738
B( 12-C , 15-H ) :   0.9715 B( 16-S , 17-C ) :   1.1595 B( 16-S , 20-C ) :   1.1345
B( 17-C , 18-C ) :   1.6090 B( 17-C , 20-C ) :   0.1124 B( 17-C , 33-H ) :   0.9646
B( 18-C , 19-C ) :   1.2569 B( 18-C , 21-H ) :   0.9930 B( 19-C , 20-C ) :   1.5488
B( 19-C , 22-C ) :   1.0519 B( 22-C , 23-H ) :   0.9242 B( 22-C , 24-H ) :   0.9335
B( 22-C , 25-C ) :   1.0527 B( 25-C , 26-H ) :   0.9566 B( 25-C , 27-H ) :   0.9561
B( 25-C , 28-C ) :   1.0722 B( 28-C , 29-H ) :   0.9769 B( 28-C , 30-H ) :   0.9710
B( 28-C , 31-H ) :   0.9750

Dispersion correction           -0.015050244
FINAL SINGLE POINT ENERGY     -1339.867426091962

DIPOLE MOMENT
-------------
                                X             Y             Z
Electronic contribution:     -6.00748       8.39064      24.57301
Nuclear contribution   :      6.16845      -8.70086     -24.93581
                        -----------------------------------------
Total Dipole Moment    :      0.16096      -0.31021      -0.36280
                        -----------------------------------------
Magnitude (a.u.)       :      0.50375
Magnitude (Debye)      :      1.28043

Rotational constants in cm-1:     0.017698     0.009496     0.007573
Rotational constants in MHz :   530.572249   284.672858   227.042682

                             ****ORCA TERMINATED NORMALLY****
TOTAL RUN TIME: 0 days 0 hours 0 minutes 35 seconds 160 msec
