                         Program Version 4.2.1 -  RELEASE  -
|  1> ! wB97X-D3 SP def2-SVP
|  2> %pal
|  3> nprocs 16
|  4> end
|  5>
|  6> * xyz 0 1
|  7> S 	 -43.743 	 39.2258 	 76.3027
|  8> C 	 -44.7994 	 38.9406 	 77.625
|  9> C 	 -44.1648 	 39.1909 	 78.8266
| 10> C 	 -42.7554 	 39.4717 	 78.6566
| 11> C 	 -42.3661 	 39.4253 	 77.3529
| 12> H 	 -42.0052 	 39.6546 	 79.4227
| 13> C 	 -44.8798 	 39.3679 	 80.1866
| 14> H 	 -44.3724 	 38.7844 	 80.9661
| 15> H 	 -45.9097 	 39.0358 	 80.1207
| 16> C 	 -44.8539 	 40.8731 	 80.7398
| 17> H 	 -43.8594 	 41.2496 	 80.7535
| 18> H 	 -45.3809 	 41.4523 	 80.019
| 19> C 	 -45.6152 	 40.9798 	 82.0879
| 20> H 	 -45.4989 	 41.9955 	 82.4388
| 21> H 	 -46.6696 	 40.8574 	 81.8228
| 22> H 	 -45.3982 	 40.2188 	 82.8416
| 23> S 	 -41.0741 	 41.6035 	 76.3078
| 24> C 	 -39.2767 	 41.437 	 76.1904
| 25> C 	 -38.7635 	 40.2744 	 76.6114
| 26> C 	 -39.8083 	 39.4134 	 77.0572
| 27> C 	 -41.1121 	 39.9494 	 76.9491
| 28> H 	 -37.7767 	 40.0352 	 76.4258
| 29> C 	 -39.5517 	 37.9512 	 77.5564
| 30> H 	 -40.278 	 37.6013 	 78.2572
| 31> H 	 -38.5629 	 38.0336 	 78.0813
| 32> C 	 -39.382 	 36.9059 	 76.4703
| 33> H 	 -40.3641 	 36.6872 	 76.0598
| 34> H 	 -38.9888 	 35.9565 	 76.9032
| 35> C 	 -38.483 	 37.3026 	 75.3511
| 36> H 	 -38.8575 	 38.1323 	 74.7553
| 37> H 	 -38.2327 	 36.4898 	 74.6478
| 38> H 	 -37.6324 	 37.6524 	 75.9004
| 39> H 	 -45.8382 	 38.7558 	 77.4315
| 40> H 	 -38.6943 	 42.1372 	 75.7145
| 41> *
| 42>
| 43>                          ****END OF INPUT****

CARTESIAN COORDINATES (ANGSTROEM)
---------------------------------
  S    -43.743000   39.225800   76.302700
  C    -44.799400   38.940600   77.625000
  C    -44.164800   39.190900   78.826600
  C    -42.755400   39.471700   78.656600
  C    -42.366100   39.425300   77.352900
  H    -42.005200   39.654600   79.422700
  C    -44.879800   39.367900   80.186600
  H    -44.372400   38.784400   80.966100
  H    -45.909700   39.035800   80.120700
  C    -44.853900   40.873100   80.739800
  H    -43.859400   41.249600   80.753500
  H    -45.380900   41.452300   80.019000
  C    -45.615200   40.979800   82.087900
  H    -45.498900   41.995500   82.438800
  H    -46.669600   40.857400   81.822800
  H    -45.398200   40.218800   82.841600
  S    -41.074100   41.603500   76.307800
  C    -39.276700   41.437000   76.190400
  C    -38.763500   40.274400   76.611400
  C    -39.808300   39.413400   77.057200
  C    -41.112100   39.949400   76.949100
  H    -37.776700   40.035200   76.425800
  C    -39.551700   37.951200   77.556400
  H    -40.278000   37.601300   78.257200
  H    -38.562900   38.033600   78.081300
  C    -39.382000   36.905900   76.470300
  H    -40.364100   36.687200   76.059800
  H    -38.988800   35.956500   76.903200
  C    -38.483000   37.302600   75.351100
  H    -38.857500   38.132300   74.755300
  H    -38.232700   36.489800   74.647800
  H    -37.632400   37.652400   75.900400
  H    -45.838200   38.755800   77.431500
  H    -38.694300   42.137200   75.714500

 Total Charge           Charge          ....    0
 Multiplicity           Mult            ....    1
 Number of Electrons    NEL             ....  134
 Basis Dimension        Dim             ....  322

ORBITAL ENERGIES
----------------

  NO   OCC          E(Eh)            E(eV)
   0   2.0000     -88.964613     -2420.8502
   1   2.0000     -88.964241     -2420.8401
   2   2.0000     -10.324675      -280.9487
   3   2.0000     -10.320387      -280.8320
   4   2.0000     -10.313844      -280.6540
   5   2.0000     -10.311126      -280.5800
   6   2.0000     -10.306369      -280.4505
   7   2.0000     -10.305560      -280.4285
   8   2.0000     -10.296437      -280.1803
   9   2.0000     -10.294244      -280.1206
  10   2.0000     -10.290776      -280.0262
  11   2.0000     -10.287591      -279.9396
  12   2.0000     -10.285297      -279.8772
  13   2.0000     -10.280310      -279.7415
  14   2.0000     -10.278478      -279.6916
  15   2.0000     -10.268634      -279.4237
  16   2.0000      -8.080011      -219.8683
  17   2.0000      -8.078353      -219.8232
  18   2.0000      -6.038446      -164.3145
  19   2.0000      -6.036900      -164.2724
  20   2.0000      -6.034403      -164.2044
  21   2.0000      -6.033248      -164.1730
  22   2.0000      -6.030754      -164.1052
  23   2.0000      -6.028885      -164.0543
  24   2.0000      -1.009538       -27.4709
  25   2.0000      -0.981313       -26.7029
  26   2.0000      -0.909881       -24.7591
  27   2.0000      -0.902551       -24.5597
  28   2.0000      -0.879606       -23.9353
  29   2.0000      -0.848749       -23.0956
  30   2.0000      -0.842112       -22.9150
  31   2.0000      -0.818219       -22.2649
  32   2.0000      -0.780306       -21.2332
  33   2.0000      -0.768316       -20.9069
  34   2.0000      -0.711125       -19.3507
  35   2.0000      -0.699478       -19.0338
  36   2.0000      -0.682724       -18.5779
  37   2.0000      -0.664961       -18.0945
  38   2.0000      -0.651831       -17.7372
  39   2.0000      -0.616529       -16.7766
  40   2.0000      -0.589946       -16.0532
  41   2.0000      -0.570366       -15.5205
  42   2.0000      -0.564327       -15.3561
  43   2.0000      -0.559188       -15.2163
  44   2.0000      -0.544307       -14.8113
  45   2.0000      -0.525817       -14.3082
  46   2.0000      -0.518114       -14.0986
  47   2.0000      -0.511967       -13.9313
  48   2.0000      -0.505918       -13.7667
  49   2.0000      -0.498399       -13.5621
  50   2.0000      -0.485055       -13.1990
  51   2.0000      -0.474997       -12.9253
  52   2.0000      -0.470844       -12.8123
  53   2.0000      -0.462885       -12.5958
  54   2.0000      -0.458417       -12.4742
  55   2.0000      -0.450709       -12.2644
  56   2.0000      -0.442696       -12.0464
  57   2.0000      -0.440114       -11.9761
  58   2.0000      -0.434812       -11.8318
  59   2.0000      -0.427590       -11.6353
  60   2.0000      -0.418105       -11.3772
  61   2.0000      -0.417555       -11.3622
  62   2.0000      -0.404956       -11.0194
  63   2.0000      -0.347732        -9.4623
  64   2.0000      -0.330545        -8.9946
  65   2.0000      -0.322559        -8.7773
  66   2.0000      -0.298787        -8.1304
  67   0.0000       0.037762         1.0276
  68   0.0000       0.059775         1.6265
  69   0.0000       0.112049         3.0490
  70   0.0000       0.118484         3.2241
  71   0.0000       0.128090         3.4855

MULLIKEN ATOMIC CHARGES
-----------------------
   0 S :    0.106421
   1 C :   -0.118377
   2 C :   -0.061644
   3 C :    0.031185
   4 C :   -0.169019
   5 H :    0.026454
   6 C :    0.048199
   7 H :    0.029957
   8 H :    0.015827
   9 C :   -0.074185
  10 H :    0.028354
  11 H :    0.023053
  12 C :   -0.044434
  13 H :    0.039396
  14 H :    0.027140
  15 H :    0.039236
  16 S :    0.098784
  17 C :   -0.055185
  18 C :    0.005100
  19 C :   -0.056978
  20 C :   -0.162706
  21 H :   -0.002478
  22 C :    0.071140
  23 H :    0.025781
  24 H :    0.023756
  25 C :   -0.059006
  26 H :    0.021788
  27 H :    0.031070
  28 C :   -0.053259
  29 H :    0.046298
  30 H :    0.041730
  31 H :    0.007368
  32 H :    0.049261
  33 H :    0.019975
Sum of atomic charges:   -0.0000000

LOEWDIN ATOMIC CHARGES
----------------------
   0 S :    0.417893
   1 C :   -0.199543
   2 C :   -0.063874
   3 C :   -0.049009
   4 C :   -0.212125
   5 H :    0.036261
   6 C :   -0.028074
   7 H :    0.027844
   8 H :    0.024322
   9 C :   -0.029824
  10 H :    0.016064
  11 H :    0.020547
  12 C :   -0.064824
  13 H :    0.027956
  14 H :    0.027411
  15 H :    0.025245
  16 S :    0.366633
  17 C :   -0.141852
  18 C :   -0.060470
  19 C :   -0.049279
  20 C :   -0.191790
  21 H :    0.024574
  22 C :   -0.029674
  23 H :    0.027329
  24 H :    0.030514
  25 C :   -0.042475
  26 H :    0.019760
  27 H :    0.028364
  28 C :   -0.066934
  29 H :    0.026909
  30 H :    0.030358
  31 H :    0.016599
  32 H :    0.025704
  33 H :    0.009460

  Mayer bond orders larger than 0.100000
B(  0-S ,  1-C ) :   1.1476 B(  0-S ,  4-C ) :   1.1461 B(  1-C ,  2-C ) :   1.6007
B(  1-C , 32-H ) :   0.9748 B(  2-C ,  3-C ) :   1.2249 B(  2-C ,  6-C ) :   1.0355
B(  3-C ,  4-C ) :   1.5842 B(  3-C ,  5-H ) :   0.9935 B(  4-C , 20-C ) :   1.0494
B(  6-C ,  7-H ) :   0.9417 B(  6-C ,  8-H ) :   0.9483 B(  6-C ,  9-C ) :   1.0508
B(  9-C , 10-H ) :   0.9616 B(  9-C , 11-H ) :   0.9574 B(  9-C , 12-C ) :   1.0748
B( 12-C , 13-H ) :   0.9742 B( 12-C , 14-H ) :   0.9762 B( 12-C , 15-H ) :   0.9783
B( 16-S , 17-C ) :   1.1288 B( 16-S , 20-C ) :   1.1221 B( 17-C , 18-C ) :   1.6674
B( 17-C , 33-H ) :   0.9677 B( 18-C , 19-C ) :   1.2045 B( 18-C , 21-H ) :   0.9978
B( 19-C , 20-C ) :   1.6304 B( 19-C , 22-C ) :   1.0307 B( 22-C , 23-H ) :   0.9350
B( 22-C , 24-H ) :   0.9334 B( 22-C , 25-C ) :   1.0862 B( 25-C , 26-H ) :   0.9498
B( 25-C , 27-H ) :   0.9533 B( 25-C , 28-C ) :   1.0910 B( 28-C , 29-H ) :   0.9644
B( 28-C , 30-H ) :   0.9697 B( 28-C , 31-H ) :   0.9732

Dispersion correction           -0.014438259
FINAL SINGLE POINT ENERGY     -1339.873114950839

DIPOLE MOMENT
-------------
                                X             Y             Z
Electronic contribution:     -1.43530       8.15236     -14.75874
Nuclear contribution   :      1.48036      -8.22786      15.12714
                        -----------------------------------------
Total Dipole Moment    :      0.04506      -0.07551       0.36840
                        -----------------------------------------
Magnitude (a.u.)       :      0.37874
Magnitude (Debye)      :      0.96269

Rotational constants in cm-1:     0.022325     0.007364     0.006944
Rotational constants in MHz :   669.293477   220.759815   208.189823

                             ****ORCA TERMINATED NORMALLY****
TOTAL RUN TIME: 0 days 0 hours 0 minutes 31 seconds 855 msec
