                         Program Version 4.2.1 -  RELEASE  -
|  1> ! wB97X-D3 SP def2-SVP
|  2> %pal
|  3> nprocs 16
|  4> end
|  5>
|  6> * xyz 0 1
|  7> S 	 -91.6801 	 50.4313 	 124.261
|  8> C 	 -93.3309 	 50.3201 	 124.744
|  9> C 	 -94.158 	 50.4179 	 123.595
| 10> C 	 -93.4944 	 50.4555 	 122.345
| 11> C 	 -92.124 	 50.2467 	 122.535
| 12> H 	 -93.9097 	 50.4917 	 121.309
| 13> C 	 -95.678 	 50.434 	 123.767
| 14> H 	 -95.8608 	 51.5122 	 123.934
| 15> H 	 -95.9003 	 49.9867 	 124.737
| 16> C 	 -96.5012 	 49.9398 	 122.538
| 17> H 	 -97.5426 	 50.126 	 122.711
| 18> H 	 -96.2422 	 50.5471 	 121.707
| 19> C 	 -96.2639 	 48.5102 	 122.133
| 20> H 	 -95.2316 	 48.4781 	 121.581
| 21> H 	 -96.337 	 47.8436 	 122.991
| 22> H 	 -96.9543 	 48.1443 	 121.325
| 23> S 	 -89.8278 	 51.4217 	 121.686
| 24> C 	 -89.1301 	 50.9961 	 120.199
| 25> C 	 -89.7289 	 49.8944 	 119.666
| 26> C 	 -90.9101 	 49.4713 	 120.372
| 27> C 	 -91.1514 	 50.2528 	 121.453
| 28> H 	 -89.339 	 49.5227 	 118.785
| 29> C 	 -91.7325 	 48.2765 	 120.027
| 30> H 	 -92.6206 	 48.2912 	 120.682
| 31> H 	 -91.1296 	 47.4084 	 120.285
| 32> C 	 -92.1155 	 48.2419 	 118.517
| 33> H 	 -91.2812 	 47.8587 	 117.859
| 34> H 	 -92.3589 	 49.2656 	 118.249
| 35> C 	 -93.4279 	 47.5119 	 118.421
| 36> H 	 -94.1841 	 47.5887 	 119.24
| 37> H 	 -93.2303 	 46.3883 	 118.43
| 38> H 	 -93.9458 	 47.7528 	 117.447
| 39> H 	 -93.6042 	 50.2006 	 125.764
| 40> H 	 -88.1099 	 51.339 	 119.768
| 41> *
| 42>
| 43>                          ****END OF INPUT****

CARTESIAN COORDINATES (ANGSTROEM)
---------------------------------
  S    -91.680100   50.431300  124.261000
  C    -93.330900   50.320100  124.744000
  C    -94.158000   50.417900  123.595000
  C    -93.494400   50.455500  122.345000
  C    -92.124000   50.246700  122.535000
  H    -93.909700   50.491700  121.309000
  C    -95.678000   50.434000  123.767000
  H    -95.860800   51.512200  123.934000
  H    -95.900300   49.986700  124.737000
  C    -96.501200   49.939800  122.538000
  H    -97.542600   50.126000  122.711000
  H    -96.242200   50.547100  121.707000
  C    -96.263900   48.510200  122.133000
  H    -95.231600   48.478100  121.581000
  H    -96.337000   47.843600  122.991000
  H    -96.954300   48.144300  121.325000
  S    -89.827800   51.421700  121.686000
  C    -89.130100   50.996100  120.199000
  C    -89.728900   49.894400  119.666000
  C    -90.910100   49.471300  120.372000
  C    -91.151400   50.252800  121.453000
  H    -89.339000   49.522700  118.785000
  C    -91.732500   48.276500  120.027000
  H    -92.620600   48.291200  120.682000
  H    -91.129600   47.408400  120.285000
  C    -92.115500   48.241900  118.517000
  H    -91.281200   47.858700  117.859000
  H    -92.358900   49.265600  118.249000
  C    -93.427900   47.511900  118.421000
  H    -94.184100   47.588700  119.240000
  H    -93.230300   46.388300  118.430000
  H    -93.945800   47.752800  117.447000
  H    -93.604200   50.200600  125.764000
  H    -88.109900   51.339000  119.768000

 Total Charge           Charge          ....    0
 Multiplicity           Mult            ....    1
 Number of Electrons    NEL             ....  134
 Basis Dimension        Dim             ....  322

ORBITAL ENERGIES
----------------

  NO   OCC          E(Eh)            E(eV)
   0   2.0000     -88.967138     -2420.9189
   1   2.0000     -88.958047     -2420.6715
   2   2.0000     -10.333021      -281.1758
   3   2.0000     -10.320621      -280.8384
   4   2.0000     -10.315751      -280.7058
   5   2.0000     -10.312247      -280.6105
   6   2.0000     -10.305418      -280.4247
   7   2.0000     -10.301048      -280.3058
   8   2.0000     -10.298391      -280.2335
   9   2.0000     -10.294154      -280.1182
  10   2.0000     -10.291928      -280.0576
  11   2.0000     -10.289860      -280.0013
  12   2.0000     -10.287696      -279.9424
  13   2.0000     -10.287331      -279.9325
  14   2.0000     -10.284392      -279.8525
  15   2.0000     -10.283570      -279.8302
  16   2.0000      -8.081459      -219.9077
  17   2.0000      -8.073803      -219.6994
  18   2.0000      -6.039968      -164.3559
  19   2.0000      -6.036036      -164.2489
  20   2.0000      -6.032364      -164.1490
  21   2.0000      -6.032235      -164.1455
  22   2.0000      -6.028207      -164.0358
  23   2.0000      -6.024392      -163.9320
  24   2.0000      -1.008198       -27.4344
  25   2.0000      -0.984718       -26.7955
  26   2.0000      -0.913581       -24.8598
  27   2.0000      -0.909469       -24.7479
  28   2.0000      -0.872089       -23.7308
  29   2.0000      -0.852529       -23.1985
  30   2.0000      -0.845772       -23.0146
  31   2.0000      -0.817431       -22.2434
  32   2.0000      -0.777979       -21.1699
  33   2.0000      -0.764297       -20.7976
  34   2.0000      -0.707804       -19.2603
  35   2.0000      -0.698823       -19.0160
  36   2.0000      -0.691005       -18.8032
  37   2.0000      -0.654718       -17.8158
  38   2.0000      -0.640181       -17.4202
  39   2.0000      -0.621758       -16.9189
  40   2.0000      -0.592285       -16.1169
  41   2.0000      -0.570963       -15.5367
  42   2.0000      -0.563177       -15.3248
  43   2.0000      -0.551111       -14.9965
  44   2.0000      -0.535074       -14.5601
  45   2.0000      -0.525553       -14.3010
  46   2.0000      -0.523911       -14.2564
  47   2.0000      -0.515098       -14.0165
  48   2.0000      -0.503888       -13.7115
  49   2.0000      -0.495629       -13.4867
  50   2.0000      -0.491059       -13.3624
  51   2.0000      -0.481844       -13.1116
  52   2.0000      -0.473180       -12.8759
  53   2.0000      -0.467817       -12.7299
  54   2.0000      -0.455240       -12.3877
  55   2.0000      -0.446371       -12.1464
  56   2.0000      -0.443150       -12.0587
  57   2.0000      -0.436161       -11.8686
  58   2.0000      -0.432846       -11.7783
  59   2.0000      -0.428814       -11.6686
  60   2.0000      -0.421365       -11.4659
  61   2.0000      -0.410565       -11.1720
  62   2.0000      -0.406058       -11.0494
  63   2.0000      -0.350543        -9.5388
  64   2.0000      -0.326510        -8.8848
  65   2.0000      -0.325622        -8.8606
  66   2.0000      -0.286189        -7.7876
  67   0.0000       0.030188         0.8215
  68   0.0000       0.065440         1.7807
  69   0.0000       0.112079         3.0498
  70   0.0000       0.116060         3.1581
  71   0.0000       0.121574         3.3082

MULLIKEN ATOMIC CHARGES
-----------------------
   0 S :    0.112596
   1 C :   -0.120487
   2 C :   -0.096780
   3 C :    0.005476
   4 C :   -0.150302
   5 H :    0.044783
   6 C :    0.061580
   7 H :    0.045233
   8 H :    0.019833
   9 C :   -0.041242
  10 H :    0.025634
  11 H :    0.017645
  12 C :   -0.086271
  13 H :    0.041928
  14 H :    0.043119
  15 H :    0.041035
  16 S :    0.090567
  17 C :   -0.100790
  18 C :   -0.022713
  19 C :   -0.041511
  20 C :   -0.174527
  21 H :   -0.017266
  22 C :    0.083383
  23 H :    0.020793
  24 H :    0.042592
  25 C :   -0.077542
  26 H :    0.056614
  27 H :    0.033534
  28 C :   -0.100735
  29 H :    0.041552
  30 H :    0.032223
  31 H :    0.042154
  32 H :    0.044240
  33 H :    0.083651
Sum of atomic charges:    0.0000000

LOEWDIN ATOMIC CHARGES
----------------------
   0 S :    0.403413
   1 C :   -0.210855
   2 C :   -0.057620
   3 C :   -0.069292
   4 C :   -0.179578
   5 H :    0.043692
   6 C :   -0.033373
   7 H :    0.041236
   8 H :    0.027704
   9 C :   -0.044737
  10 H :    0.023704
  11 H :    0.019830
  12 C :   -0.073942
  13 H :    0.032064
  14 H :    0.025261
  15 H :    0.030669
  16 S :    0.399594
  17 C :   -0.209024
  18 C :   -0.073048
  19 C :   -0.057431
  20 C :   -0.188642
  21 H :    0.016019
  22 C :   -0.026995
  23 H :    0.030254
  24 H :    0.036589
  25 C :   -0.045823
  26 H :    0.035934
  27 H :    0.024087
  28 C :   -0.081176
  29 H :    0.027766
  30 H :    0.030252
  31 H :    0.028565
  32 H :    0.022719
  33 H :    0.052184

  Mayer bond orders larger than 0.100000
B(  0-S ,  1-C ) :   1.1406 B(  0-S ,  4-C ) :   1.1635 B(  1-C ,  2-C ) :   1.5662
B(  1-C ,  4-C ) :   0.1101 B(  1-C , 32-H ) :   0.9804 B(  2-C ,  3-C ) :   1.2612
B(  2-C ,  6-C ) :   1.0048 B(  3-C ,  4-C ) :   1.5337 B(  3-C ,  5-H ) :   0.9806
B(  4-C , 20-C ) :   1.0461 B(  6-C ,  7-H ) :   0.9333 B(  6-C ,  8-H ) :   0.9465
B(  6-C ,  9-C ) :   1.0760 B(  9-C , 10-H ) :   0.9524 B(  9-C , 11-H ) :   0.9454
B(  9-C , 12-C ) :   1.0845 B( 12-C , 13-H ) :   0.9656 B( 12-C , 14-H ) :   0.9743
B( 12-C , 15-H ) :   0.9714 B( 16-S , 17-C ) :   1.1559 B( 16-S , 20-C ) :   1.1149
B( 17-C , 18-C ) :   1.6420 B( 17-C , 33-H ) :   0.9497 B( 18-C , 19-C ) :   1.1925
B( 18-C , 21-H ) :   1.0042 B( 19-C , 20-C ) :   1.6424 B( 19-C , 22-C ) :   1.0543
B( 22-C , 23-H ) :   0.9402 B( 22-C , 24-H ) :   0.9181 B( 22-C , 25-C ) :   1.0468
B( 25-C , 26-H ) :   0.9476 B( 25-C , 27-H ) :   0.9659 B( 25-C , 28-C ) :   1.0781
B( 28-C , 29-H ) :   0.9773 B( 28-C , 30-H ) :   0.9692 B( 28-C , 31-H ) :   0.9743

Dispersion correction           -0.014958420
FINAL SINGLE POINT ENERGY     -1339.864760591116

DIPOLE MOMENT
-------------
                                X             Y             Z
Electronic contribution:     23.17262      14.70359      14.41961
Nuclear contribution   :    -23.62383     -15.00389     -14.75447
                        -----------------------------------------
Total Dipole Moment    :     -0.45122      -0.30031      -0.33485
                        -----------------------------------------
Magnitude (a.u.)       :      0.63711
Magnitude (Debye)      :      1.61940

Rotational constants in cm-1:     0.016353     0.010905     0.007035
Rotational constants in MHz :   490.259533   326.917360   210.910898

                             ****ORCA TERMINATED NORMALLY****
TOTAL RUN TIME: 0 days 0 hours 0 minutes 33 seconds 791 msec
