                         Program Version 4.2.1 -  RELEASE  -
|  1> ! wB97X-D3 SP def2-SVP
|  2> %pal
|  3> nprocs 16
|  4> end
|  5>
|  6> * xyz 0 1
|  7> S 	 56.0439 	 21.111 	 79.9203
|  8> C 	 56.5078 	 21.4215 	 81.6198
|  9> C 	 55.5156 	 21.652 	 82.4886
| 10> C 	 54.2433 	 21.4043 	 81.873
| 11> C 	 54.4345 	 21.1614 	 80.5258
| 12> H 	 53.3026 	 21.6295 	 82.2645
| 13> C 	 55.6596 	 22.1002 	 83.9338
| 14> H 	 56.5383 	 21.5016 	 84.3082
| 15> H 	 54.8694 	 21.8221 	 84.6159
| 16> C 	 55.8724 	 23.6296 	 84.1315
| 17> H 	 56.3347 	 23.8728 	 85.0976
| 18> H 	 56.6151 	 23.8115 	 83.4224
| 19> C 	 54.7948 	 24.651 	 83.6325
| 20> H 	 54.89 	 24.8634 	 82.5555
| 21> H 	 53.7706 	 24.2541 	 83.6749
| 22> H 	 54.824 	 25.5556 	 84.2062
| 23> S 	 53.0468 	 19.6092 	 78.7783
| 24> C 	 51.6261 	 20.1126 	 78.0014
| 25> C 	 51.2728 	 21.3539 	 78.4645
| 26> C 	 52.2373 	 21.8828 	 79.3724
| 27> C 	 53.3174 	 21.0726 	 79.6388
| 28> H 	 50.3927 	 21.8478 	 78.0929
| 29> C 	 51.9978 	 23.2495 	 80.1078
| 30> H 	 51.8267 	 24.0212 	 79.2854
| 31> H 	 52.9363 	 23.5514 	 80.5471
| 32> C 	 50.908 	 23.2513 	 81.1023
| 33> H 	 50.935 	 22.3863 	 81.8079
| 34> H 	 50.0023 	 23.1782 	 80.539
| 35> C 	 50.9846 	 24.605 	 81.9187
| 36> H 	 51.9913 	 24.8277 	 82.2782
| 37> H 	 50.2057 	 24.8239 	 82.6489
| 38> H 	 50.8443 	 25.312 	 81.1364
| 39> H 	 57.5412 	 21.6594 	 82.0473
| 40> H 	 51.0068 	 19.4503 	 77.3772
| 41> *
| 42>
| 43>                          ****END OF INPUT****

CARTESIAN COORDINATES (ANGSTROEM)
---------------------------------
  S     56.043900   21.111000   79.920300
  C     56.507800   21.421500   81.619800
  C     55.515600   21.652000   82.488600
  C     54.243300   21.404300   81.873000
  C     54.434500   21.161400   80.525800
  H     53.302600   21.629500   82.264500
  C     55.659600   22.100200   83.933800
  H     56.538300   21.501600   84.308200
  H     54.869400   21.822100   84.615900
  C     55.872400   23.629600   84.131500
  H     56.334700   23.872800   85.097600
  H     56.615100   23.811500   83.422400
  C     54.794800   24.651000   83.632500
  H     54.890000   24.863400   82.555500
  H     53.770600   24.254100   83.674900
  H     54.824000   25.555600   84.206200
  S     53.046800   19.609200   78.778300
  C     51.626100   20.112600   78.001400
  C     51.272800   21.353900   78.464500
  C     52.237300   21.882800   79.372400
  C     53.317400   21.072600   79.638800
  H     50.392700   21.847800   78.092900
  C     51.997800   23.249500   80.107800
  H     51.826700   24.021200   79.285400
  H     52.936300   23.551400   80.547100
  C     50.908000   23.251300   81.102300
  H     50.935000   22.386300   81.807900
  H     50.002300   23.178200   80.539000
  C     50.984600   24.605000   81.918700
  H     51.991300   24.827700   82.278200
  H     50.205700   24.823900   82.648900
  H     50.844300   25.312000   81.136400
  H     57.541200   21.659400   82.047300
  H     51.006800   19.450300   77.377200

 Total Charge           Charge          ....    0
 Multiplicity           Mult            ....    1
 Number of Electrons    NEL             ....  134
 Basis Dimension        Dim             ....  322

ORBITAL ENERGIES
----------------

  NO   OCC          E(Eh)            E(eV)
   0   2.0000     -88.977214     -2421.1931
   1   2.0000     -88.957166     -2420.6476
   2   2.0000     -10.325987      -280.9844
   3   2.0000     -10.316063      -280.7143
   4   2.0000     -10.315815      -280.7076
   5   2.0000     -10.313586      -280.6469
   6   2.0000     -10.300147      -280.2812
   7   2.0000     -10.299479      -280.2631
   8   2.0000     -10.298866      -280.2464
   9   2.0000     -10.290632      -280.0223
  10   2.0000     -10.290458      -280.0176
  11   2.0000     -10.289782      -279.9992
  12   2.0000     -10.287825      -279.9459
  13   2.0000     -10.286807      -279.9183
  14   2.0000     -10.283088      -279.8170
  15   2.0000     -10.278154      -279.6828
  16   2.0000      -8.091614      -220.1840
  17   2.0000      -8.073945      -219.7032
  18   2.0000      -6.050089      -164.6313
  19   2.0000      -6.046599      -164.5363
  20   2.0000      -6.041961      -164.4101
  21   2.0000      -6.032284      -164.1468
  22   2.0000      -6.027923      -164.0281
  23   2.0000      -6.024992      -163.9484
  24   2.0000      -1.017104       -27.6768
  25   2.0000      -0.992326       -27.0026
  26   2.0000      -0.912599       -24.8331
  27   2.0000      -0.912097       -24.8194
  28   2.0000      -0.872718       -23.7479
  29   2.0000      -0.854857       -23.2618
  30   2.0000      -0.843099       -22.9419
  31   2.0000      -0.814848       -22.1731
  32   2.0000      -0.786577       -21.4039
  33   2.0000      -0.773139       -21.0382
  34   2.0000      -0.706919       -19.2363
  35   2.0000      -0.705742       -19.2042
  36   2.0000      -0.697958       -18.9924
  37   2.0000      -0.661126       -17.9901
  38   2.0000      -0.635076       -17.2813
  39   2.0000      -0.618579       -16.8324
  40   2.0000      -0.597419       -16.2566
  41   2.0000      -0.578036       -15.7292
  42   2.0000      -0.566119       -15.4049
  43   2.0000      -0.552163       -15.0251
  44   2.0000      -0.538957       -14.6658
  45   2.0000      -0.525021       -14.2865
  46   2.0000      -0.518717       -14.1150
  47   2.0000      -0.508455       -13.8358
  48   2.0000      -0.502672       -13.6784
  49   2.0000      -0.492021       -13.3886
  50   2.0000      -0.484505       -13.1840
  51   2.0000      -0.481868       -13.1123
  52   2.0000      -0.476735       -12.9726
  53   2.0000      -0.468464       -12.7476
  54   2.0000      -0.462210       -12.5774
  55   2.0000      -0.458448       -12.4750
  56   2.0000      -0.452139       -12.3033
  57   2.0000      -0.445075       -12.1111
  58   2.0000      -0.431827       -11.7506
  59   2.0000      -0.428549       -11.6614
  60   2.0000      -0.423389       -11.5210
  61   2.0000      -0.405831       -11.0432
  62   2.0000      -0.401690       -10.9305
  63   2.0000      -0.341640        -9.2965
  64   2.0000      -0.340984        -9.2787
  65   2.0000      -0.326115        -8.8740
  66   2.0000      -0.300191        -8.1686
  67   0.0000       0.036715         0.9991
  68   0.0000       0.070001         1.9048
  69   0.0000       0.099719         2.7135
  70   0.0000       0.126005         3.4288
  71   0.0000       0.126581         3.4445

MULLIKEN ATOMIC CHARGES
-----------------------
   0 S :    0.147174
   1 C :   -0.118631
   2 C :   -0.097330
   3 C :    0.070015
   4 C :   -0.156432
   5 H :   -0.017474
   6 C :    0.045024
   7 H :    0.036894
   8 H :    0.026543
   9 C :   -0.042870
  10 H :    0.038190
  11 H :    0.001957
  12 C :   -0.073088
  13 H :    0.045658
  14 H :    0.028110
  15 H :    0.040917
  16 S :    0.099727
  17 C :   -0.094407
  18 C :   -0.037427
  19 C :   -0.037860
  20 C :   -0.164663
  21 H :    0.014257
  22 C :    0.019790
  23 H :    0.035111
  24 H :    0.014070
  25 C :   -0.054403
  26 H :    0.041169
  27 H :    0.022523
  28 C :   -0.025102
  29 H :    0.022742
  30 H :    0.041819
  31 H :    0.007004
  32 H :    0.052502
  33 H :    0.068493
Sum of atomic charges:    0.0000000

LOEWDIN ATOMIC CHARGES
----------------------
   0 S :    0.415115
   1 C :   -0.198925
   2 C :   -0.063810
   3 C :   -0.042301
   4 C :   -0.197198
   5 H :    0.021756
   6 C :   -0.031643
   7 H :    0.041308
   8 H :    0.025929
   9 C :   -0.043369
  10 H :    0.028113
  11 H :    0.017095
  12 C :   -0.067411
  13 H :    0.030169
  14 H :    0.020464
  15 H :    0.028357
  16 S :    0.435809
  17 C :   -0.202278
  18 C :   -0.079745
  19 C :   -0.058536
  20 C :   -0.219591
  21 H :    0.029445
  22 C :   -0.035212
  23 H :    0.035911
  24 H :    0.020381
  25 C :   -0.038357
  26 H :    0.023609
  27 H :    0.021451
  28 C :   -0.064782
  29 H :    0.024207
  30 H :    0.026497
  31 H :    0.021818
  32 H :    0.039227
  33 H :    0.036497

  Mayer bond orders larger than 0.100000
B(  0-S ,  1-C ) :   1.1000 B(  0-S ,  4-C ) :   1.1579 B(  1-C ,  2-C ) :   1.7033
B(  1-C , 32-H ) :   0.9410 B(  2-C ,  3-C ) :   1.1963 B(  2-C ,  6-C ) :   1.0154
B(  3-C ,  4-C ) :   1.5863 B(  3-C ,  5-H ) :   1.0047 B(  4-C , 20-C ) :   1.0225
B(  6-C ,  7-H ) :   0.9401 B(  6-C ,  8-H ) :   0.9486 B(  6-C ,  9-C ) :   1.0652
B(  9-C , 10-H ) :   0.9607 B(  9-C , 11-H ) :   0.9557 B(  9-C , 12-C ) :   1.0554
B( 12-C , 13-H ) :   0.9794 B( 12-C , 14-H ) :   0.9753 B( 12-C , 15-H ) :   0.9732
B( 16-S , 17-C ) :   1.1870 B( 16-S , 20-C ) :   1.1555 B( 17-C , 18-C ) :   1.5636
B( 17-C , 33-H ) :   0.9667 B( 18-C , 19-C ) :   1.2605 B( 18-C , 21-H ) :   1.0003
B( 19-C , 20-C ) :   1.5957 B( 19-C , 22-C ) :   1.0300 B( 22-C , 23-H ) :   0.9337
B( 22-C , 24-H ) :   0.9413 B( 22-C , 25-C ) :   1.0593 B( 25-C , 26-H ) :   0.9563
B( 25-C , 27-H ) :   0.9515 B( 25-C , 28-C ) :   1.0658 B( 28-C , 29-H ) :   0.9742
B( 28-C , 30-H ) :   0.9756 B( 28-C , 31-H ) :   0.9668

Dispersion correction           -0.016008815
FINAL SINGLE POINT ENERGY     -1339.858664272796

DIPOLE MOMENT
-------------
                                X             Y             Z
Electronic contribution:      8.23828     -23.22839     -20.14767
Nuclear contribution   :     -8.49771      23.76843      20.52533
                        -----------------------------------------
Total Dipole Moment    :     -0.25943       0.54003       0.37765
                        -----------------------------------------
Magnitude (a.u.)       :      0.70821
Magnitude (Debye)      :      1.80012

Rotational constants in cm-1:     0.017899     0.010814     0.007286
Rotational constants in MHz :   536.611524   324.182634   218.416737

                             ****ORCA TERMINATED NORMALLY****
TOTAL RUN TIME: 0 days 0 hours 0 minutes 32 seconds 725 msec
