                         Program Version 4.2.1 -  RELEASE  -
|  1> ! wB97X-D3 SP def2-SVP
|  2> %pal
|  3> nprocs 16
|  4> end
|  5>
|  6> * xyz 0 1
|  7> S 	 -90.5979 	 42.6444 	 114.383
|  8> C 	 -89.5389 	 43.7215 	 113.599
|  9> C 	 -90.1956 	 44.7933 	 113.008
| 10> C 	 -91.6021 	 44.6636 	 113.311
| 11> C 	 -92.0302 	 43.5727 	 114.021
| 12> H 	 -92.3911 	 45.2702 	 112.957
| 13> C 	 -89.6066 	 45.7498 	 111.945
| 14> H 	 -90.3204 	 46.5339 	 111.635
| 15> H 	 -89.5926 	 44.9225 	 111.214
| 16> C 	 -88.1488 	 46.2401 	 112.004
| 17> H 	 -87.4094 	 45.4298 	 111.92
| 18> H 	 -88.0317 	 46.9593 	 111.212
| 19> C 	 -87.8892 	 46.9967 	 113.351
| 20> H 	 -86.9767 	 47.6141 	 113.352
| 21> H 	 -88.7295 	 47.6662 	 113.426
| 22> H 	 -87.8466 	 46.2698 	 114.154
| 23> S 	 -93.779 	 41.5236 	 113.637
| 24> C 	 -95.4251 	 41.6415 	 114.361
| 25> C 	 -95.7412 	 42.9823 	 114.704
| 26> C 	 -94.5442 	 43.7832 	 114.667
| 27> C 	 -93.4061 	 43.119 	 114.251
| 28> H 	 -96.7829 	 43.3658 	 114.87
| 29> C 	 -94.4975 	 45.2998 	 114.946
| 30> H 	 -94.4325 	 45.728 	 113.965
| 31> H 	 -93.5558 	 45.5563 	 115.432
| 32> C 	 -95.6107 	 45.9339 	 115.772
| 33> H 	 -95.5337 	 45.6549 	 116.812
| 34> H 	 -96.566 	 45.4654 	 115.433
| 35> C 	 -95.7786 	 47.474 	 115.65
| 36> H 	 -94.9442 	 47.9614 	 116.12
| 37> H 	 -96.7553 	 47.7421 	 116.12
| 38> H 	 -95.7781 	 48.0535 	 114.655
| 39> H 	 -88.5091 	 43.4527 	 113.48
| 40> H 	 -96.1827 	 40.8542 	 114.269
| 41> *
| 42>
| 43>                          ****END OF INPUT****

CARTESIAN COORDINATES (ANGSTROEM)
---------------------------------
  S    -90.597900   42.644400  114.383000
  C    -89.538900   43.721500  113.599000
  C    -90.195600   44.793300  113.008000
  C    -91.602100   44.663600  113.311000
  C    -92.030200   43.572700  114.021000
  H    -92.391100   45.270200  112.957000
  C    -89.606600   45.749800  111.945000
  H    -90.320400   46.533900  111.635000
  H    -89.592600   44.922500  111.214000
  C    -88.148800   46.240100  112.004000
  H    -87.409400   45.429800  111.920000
  H    -88.031700   46.959300  111.212000
  C    -87.889200   46.996700  113.351000
  H    -86.976700   47.614100  113.352000
  H    -88.729500   47.666200  113.426000
  H    -87.846600   46.269800  114.154000
  S    -93.779000   41.523600  113.637000
  C    -95.425100   41.641500  114.361000
  C    -95.741200   42.982300  114.704000
  C    -94.544200   43.783200  114.667000
  C    -93.406100   43.119000  114.251000
  H    -96.782900   43.365800  114.870000
  C    -94.497500   45.299800  114.946000
  H    -94.432500   45.728000  113.965000
  H    -93.555800   45.556300  115.432000
  C    -95.610700   45.933900  115.772000
  H    -95.533700   45.654900  116.812000
  H    -96.566000   45.465400  115.433000
  C    -95.778600   47.474000  115.650000
  H    -94.944200   47.961400  116.120000
  H    -96.755300   47.742100  116.120000
  H    -95.778100   48.053500  114.655000
  H    -88.509100   43.452700  113.480000
  H    -96.182700   40.854200  114.269000

 Total Charge           Charge          ....    0
 Multiplicity           Mult            ....    1
 Number of Electrons    NEL             ....  134
 Basis Dimension        Dim             ....  322

ORBITAL ENERGIES
----------------

  NO   OCC          E(Eh)            E(eV)
   0   2.0000     -88.967326     -2420.9240
   1   2.0000     -88.961650     -2420.7696
   2   2.0000     -10.327160      -281.0163
   3   2.0000     -10.326169      -280.9894
   4   2.0000     -10.325969      -280.9839
   5   2.0000     -10.310335      -280.5585
   6   2.0000     -10.309579      -280.5379
   7   2.0000     -10.307473      -280.4806
   8   2.0000     -10.306446      -280.4526
   9   2.0000     -10.302751      -280.3521
  10   2.0000     -10.293568      -280.1022
  11   2.0000     -10.291831      -280.0550
  12   2.0000     -10.290003      -280.0052
  13   2.0000     -10.289400      -279.9888
  14   2.0000     -10.288045      -279.9519
  15   2.0000     -10.276195      -279.6295
  16   2.0000      -8.081167      -219.8997
  17   2.0000      -8.077402      -219.7973
  18   2.0000      -6.039704      -164.3487
  19   2.0000      -6.036007      -164.2481
  20   2.0000      -6.035858      -164.2440
  21   2.0000      -6.031730      -164.1317
  22   2.0000      -6.031571      -164.1274
  23   2.0000      -6.028349      -164.0397
  24   2.0000      -1.007743       -27.4221
  25   2.0000      -0.981974       -26.7209
  26   2.0000      -0.911025       -24.7903
  27   2.0000      -0.904293       -24.6071
  28   2.0000      -0.868279       -23.6271
  29   2.0000      -0.849865       -23.1260
  30   2.0000      -0.842968       -22.9383
  31   2.0000      -0.813618       -22.1397
  32   2.0000      -0.781675       -21.2705
  33   2.0000      -0.771474       -20.9929
  34   2.0000      -0.706816       -19.2334
  35   2.0000      -0.701231       -19.0815
  36   2.0000      -0.694224       -18.8908
  37   2.0000      -0.656487       -17.8639
  38   2.0000      -0.647191       -17.6110
  39   2.0000      -0.607692       -16.5361
  40   2.0000      -0.591122       -16.0853
  41   2.0000      -0.584088       -15.8938
  42   2.0000      -0.561749       -15.2860
  43   2.0000      -0.549995       -14.9661
  44   2.0000      -0.543198       -14.7812
  45   2.0000      -0.524229       -14.2650
  46   2.0000      -0.516896       -14.0655
  47   2.0000      -0.506961       -13.7951
  48   2.0000      -0.504654       -13.7323
  49   2.0000      -0.499456       -13.5909
  50   2.0000      -0.487833       -13.2746
  51   2.0000      -0.477937       -13.0053
  52   2.0000      -0.474350       -12.9077
  53   2.0000      -0.466956       -12.7065
  54   2.0000      -0.458248       -12.4696
  55   2.0000      -0.454112       -12.3570
  56   2.0000      -0.441612       -12.0169
  57   2.0000      -0.436608       -11.8807
  58   2.0000      -0.433062       -11.7842
  59   2.0000      -0.425321       -11.5736
  60   2.0000      -0.419663       -11.4196
  61   2.0000      -0.412380       -11.2214
  62   2.0000      -0.411508       -11.1977
  63   2.0000      -0.346756        -9.4357
  64   2.0000      -0.329164        -8.9570
  65   2.0000      -0.321200        -8.7403
  66   2.0000      -0.291935        -7.9439
  67   0.0000       0.026458         0.7200
  68   0.0000       0.069144         1.8815
  69   0.0000       0.098674         2.6851
  70   0.0000       0.127780         3.4771
  71   0.0000       0.134611         3.6629

MULLIKEN ATOMIC CHARGES
-----------------------
   0 S :    0.115237
   1 C :   -0.137601
   2 C :   -0.054708
   3 C :    0.021612
   4 C :   -0.165270
   5 H :   -0.016541
   6 C :    0.009430
   7 H :    0.043743
   8 H :    0.059181
   9 C :   -0.057786
  10 H :    0.032999
  11 H :    0.032500
  12 C :   -0.056654
  13 H :    0.037180
  14 H :    0.025303
  15 H :    0.041343
  16 S :    0.103672
  17 C :   -0.100968
  18 C :   -0.060546
  19 C :   -0.049362
  20 C :   -0.142503
  21 H :    0.052215
  22 C :    0.058374
  23 H :    0.035631
  24 H :    0.039095
  25 C :   -0.070336
  26 H :    0.039167
  27 H :    0.022002
  28 C :   -0.082825
  29 H :    0.030671
  30 H :    0.044266
  31 H :    0.039098
  32 H :    0.047348
  33 H :    0.065030
Sum of atomic charges:   -0.0000000

LOEWDIN ATOMIC CHARGES
----------------------
   0 S :    0.426336
   1 C :   -0.215829
   2 C :   -0.059966
   3 C :   -0.063250
   4 C :   -0.207181
   5 H :    0.019763
   6 C :   -0.039404
   7 H :    0.035088
   8 H :    0.051190
   9 C :   -0.037525
  10 H :    0.023073
  11 H :    0.026538
  12 C :   -0.063117
  13 H :    0.025345
  14 H :    0.022156
  15 H :    0.023975
  16 S :    0.392164
  17 C :   -0.172727
  18 C :   -0.074231
  19 C :   -0.054789
  20 C :   -0.199617
  21 H :    0.043466
  22 C :   -0.034285
  23 H :    0.028898
  24 H :    0.034360
  25 C :   -0.042116
  26 H :    0.028586
  27 H :    0.021342
  28 C :   -0.077606
  29 H :    0.020801
  30 H :    0.032871
  31 H :    0.034139
  32 H :    0.022342
  33 H :    0.029206

  Mayer bond orders larger than 0.100000
B(  0-S ,  1-C ) :   1.1708 B(  0-S ,  4-C ) :   1.1511 B(  1-C ,  2-C ) :   1.5680
B(  1-C , 32-H ) :   0.9704 B(  2-C ,  3-C ) :   1.2562 B(  2-C ,  6-C ) :   0.9845
B(  3-C ,  4-C ) :   1.5680 B(  3-C ,  5-H ) :   0.9993 B(  4-C , 20-C ) :   1.0366
B(  6-C ,  7-H ) :   0.9486 B(  6-C ,  8-H ) :   0.9377 B(  6-C ,  9-C ) :   1.0816
B(  9-C , 10-H ) :   0.9544 B(  9-C , 11-H ) :   0.9540 B(  9-C , 12-C ) :   1.0738
B( 12-C , 13-H ) :   0.9781 B( 12-C , 14-H ) :   0.9778 B( 12-C , 15-H ) :   0.9763
B( 16-S , 17-C ) :   1.1522 B( 16-S , 20-C ) :   1.1388 B( 17-C , 18-C ) :   1.5964
B( 17-C , 20-C ) :   0.1053 B( 17-C , 33-H ) :   0.9650 B( 18-C , 19-C ) :   1.2459
B( 18-C , 21-H ) :   0.9756 B( 19-C , 20-C ) :   1.6137 B( 19-C , 22-C ) :   1.0292
B( 22-C , 23-H ) :   0.9318 B( 22-C , 24-H ) :   0.9341 B( 22-C , 25-C ) :   1.0663
B( 25-C , 26-H ) :   0.9548 B( 25-C , 27-H ) :   0.9536 B( 25-C , 28-C ) :   1.0734
B( 28-C , 29-H ) :   0.9764 B( 28-C , 30-H ) :   0.9753 B( 28-C , 31-H ) :   0.9762

Dispersion correction           -0.013635401
FINAL SINGLE POINT ENERGY     -1339.859332136349

DIPOLE MOMENT
-------------
                                X             Y             Z
Electronic contribution:     -2.01873     -27.96453       0.14836
Nuclear contribution   :      1.90189      28.60762      -0.56052
                        -----------------------------------------
Total Dipole Moment    :     -0.11684       0.64309      -0.41217
                        -----------------------------------------
Magnitude (a.u.)       :      0.77272
Magnitude (Debye)      :      1.96409

Rotational constants in cm-1:     0.018187     0.008030     0.005994
Rotational constants in MHz :   545.241086   240.746925   179.706855

                             ****ORCA TERMINATED NORMALLY****
TOTAL RUN TIME: 0 days 0 hours 0 minutes 32 seconds 634 msec
