                         Program Version 4.2.1 -  RELEASE  -
|  1> ! wB97X-D3 SP def2-SVP
|  2> %pal
|  3> nprocs 16
|  4> end
|  5>
|  6> * xyz 0 1
|  7> S 	 -7.55643 	 76.9442 	 51.2743
|  8> C 	 -5.87682 	 76.723 	 50.6273
|  9> C 	 -5.36789 	 75.4411 	 50.9401
| 10> C 	 -6.41667 	 74.5841 	 51.4412
| 11> C 	 -7.6359 	 75.2055 	 51.7016
| 12> H 	 -6.32217 	 73.5529 	 51.648
| 13> C 	 -3.95325 	 75.0486 	 50.6009
| 14> H 	 -3.59597 	 74.2544 	 51.188
| 15> H 	 -3.36468 	 75.9132 	 50.9995
| 16> C 	 -3.76531 	 74.7843 	 49.1204
| 17> H 	 -4.44067 	 74.0136 	 48.8154
| 18> H 	 -4.04358 	 75.612 	 48.5087
| 19> C 	 -2.27112 	 74.3926 	 48.8452
| 20> H 	 -2.21937 	 73.9001 	 47.941
| 21> H 	 -1.58158 	 75.2986 	 48.8286
| 22> H 	 -1.70077 	 73.8138 	 49.5304
| 23> S 	 -9.56648 	 74.9446 	 53.6992
| 24> C 	 -10.9273 	 73.9247 	 53.48
| 25> C 	 -10.7616 	 73.1852 	 52.3327
| 26> C 	 -9.54971 	 73.5219 	 51.5682
| 27> C 	 -8.91218 	 74.5831 	 52.1459
| 28> H 	 -11.6348 	 72.5637 	 52.0415
| 29> C 	 -9.05771 	 72.9617 	 50.2666
| 30> H 	 -8.21249 	 73.4247 	 49.8846
| 31> H 	 -9.88944 	 73.3495 	 49.6099
| 32> C 	 -8.78294 	 71.4746 	 50.1439
| 33> H 	 -8.45752 	 71.3781 	 49.1087
| 34> H 	 -9.66919 	 70.9072 	 50.451
| 35> C 	 -7.68622 	 71.1095 	 51.0853
| 36> H 	 -7.65219 	 69.9677 	 51.1219
| 37> H 	 -7.70796 	 71.3439 	 52.1506
| 38> H 	 -6.72852 	 71.4443 	 50.6844
| 39> H 	 -5.35961 	 77.4951 	 50.1682
| 40> H 	 -11.6485 	 73.6062 	 54.1663
| 41> *
| 42>
| 43>                          ****END OF INPUT****

CARTESIAN COORDINATES (ANGSTROEM)
---------------------------------
  S     -7.556430   76.944200   51.274300
  C     -5.876820   76.723000   50.627300
  C     -5.367890   75.441100   50.940100
  C     -6.416670   74.584100   51.441200
  C     -7.635900   75.205500   51.701600
  H     -6.322170   73.552900   51.648000
  C     -3.953250   75.048600   50.600900
  H     -3.595970   74.254400   51.188000
  H     -3.364680   75.913200   50.999500
  C     -3.765310   74.784300   49.120400
  H     -4.440670   74.013600   48.815400
  H     -4.043580   75.612000   48.508700
  C     -2.271120   74.392600   48.845200
  H     -2.219370   73.900100   47.941000
  H     -1.581580   75.298600   48.828600
  H     -1.700770   73.813800   49.530400
  S     -9.566480   74.944600   53.699200
  C    -10.927300   73.924700   53.480000
  C    -10.761600   73.185200   52.332700
  C     -9.549710   73.521900   51.568200
  C     -8.912180   74.583100   52.145900
  H    -11.634800   72.563700   52.041500
  C     -9.057710   72.961700   50.266600
  H     -8.212490   73.424700   49.884600
  H     -9.889440   73.349500   49.609900
  C     -8.782940   71.474600   50.143900
  H     -8.457520   71.378100   49.108700
  H     -9.669190   70.907200   50.451000
  C     -7.686220   71.109500   51.085300
  H     -7.652190   69.967700   51.121900
  H     -7.707960   71.343900   52.150600
  H     -6.728520   71.444300   50.684400
  H     -5.359610   77.495100   50.168200
  H    -11.648500   73.606200   54.166300

 Total Charge           Charge          ....    0
 Multiplicity           Mult            ....    1
 Number of Electrons    NEL             ....  134
 Basis Dimension        Dim             ....  322

ORBITAL ENERGIES
----------------

  NO   OCC          E(Eh)            E(eV)
   0   2.0000     -88.965291     -2420.8687
   1   2.0000     -88.961261     -2420.7590
   2   2.0000     -10.334161      -281.2068
   3   2.0000     -10.320751      -280.8419
   4   2.0000     -10.316914      -280.7375
   5   2.0000     -10.310100      -280.5521
   6   2.0000     -10.307326      -280.4766
   7   2.0000     -10.303652      -280.3766
   8   2.0000     -10.298170      -280.2275
   9   2.0000     -10.295579      -280.1569
  10   2.0000     -10.291065      -280.0341
  11   2.0000     -10.289059      -279.9795
  12   2.0000     -10.286550      -279.9113
  13   2.0000     -10.281630      -279.7774
  14   2.0000     -10.280107      -279.7359
  15   2.0000     -10.277264      -279.6586
  16   2.0000      -8.078334      -219.8226
  17   2.0000      -8.077134      -219.7900
  18   2.0000      -6.036910      -164.2727
  19   2.0000      -6.035656      -164.2386
  20   2.0000      -6.033131      -164.1698
  21   2.0000      -6.031431      -164.1236
  22   2.0000      -6.029090      -164.0599
  23   2.0000      -6.027851      -164.0262
  24   2.0000      -1.005846       -27.3705
  25   2.0000      -0.975335       -26.5402
  26   2.0000      -0.920241       -25.0410
  27   2.0000      -0.913646       -24.8616
  28   2.0000      -0.867316       -23.6009
  29   2.0000      -0.849196       -23.1078
  30   2.0000      -0.841177       -22.8896
  31   2.0000      -0.817321       -22.2404
  32   2.0000      -0.783424       -21.3180
  33   2.0000      -0.773800       -21.0562
  34   2.0000      -0.717069       -19.5124
  35   2.0000      -0.703290       -19.1375
  36   2.0000      -0.697842       -18.9893
  37   2.0000      -0.649276       -17.6677
  38   2.0000      -0.646635       -17.5958
  39   2.0000      -0.620520       -16.8852
  40   2.0000      -0.603897       -16.4329
  41   2.0000      -0.574089       -15.6218
  42   2.0000      -0.558429       -15.1956
  43   2.0000      -0.550461       -14.9788
  44   2.0000      -0.548603       -14.9283
  45   2.0000      -0.534237       -14.5373
  46   2.0000      -0.523955       -14.2576
  47   2.0000      -0.515278       -14.0214
  48   2.0000      -0.504928       -13.7398
  49   2.0000      -0.492996       -13.4151
  50   2.0000      -0.490277       -13.3411
  51   2.0000      -0.481004       -13.0888
  52   2.0000      -0.472480       -12.8568
  53   2.0000      -0.468040       -12.7360
  54   2.0000      -0.457439       -12.4476
  55   2.0000      -0.453451       -12.3390
  56   2.0000      -0.442438       -12.0393
  57   2.0000      -0.436289       -11.8720
  58   2.0000      -0.425977       -11.5914
  59   2.0000      -0.423767       -11.5313
  60   2.0000      -0.423198       -11.5158
  61   2.0000      -0.416615       -11.3367
  62   2.0000      -0.408876       -11.1261
  63   2.0000      -0.339723        -9.2443
  64   2.0000      -0.329735        -8.9726
  65   2.0000      -0.321979        -8.7615
  66   2.0000      -0.297118        -8.0850
  67   0.0000       0.035254         0.9593
  68   0.0000       0.063226         1.7205
  69   0.0000       0.110797         3.0149
  70   0.0000       0.117618         3.2005
  71   0.0000       0.125872         3.4251

MULLIKEN ATOMIC CHARGES
-----------------------
   0 S :    0.097035
   1 C :   -0.112911
   2 C :   -0.090278
   3 C :    0.060675
   4 C :   -0.164839
   5 H :   -0.022466
   6 C :    0.074428
   7 H :    0.008601
   8 H :    0.035412
   9 C :   -0.032810
  10 H :    0.021957
  11 H :    0.024444
  12 C :   -0.032217
  13 H :    0.020246
  14 H :    0.030491
  15 H :    0.018113
  16 S :    0.113570
  17 C :   -0.065098
  18 C :   -0.075462
  19 C :   -0.038680
  20 C :   -0.154919
  21 H :    0.035428
  22 C :    0.051531
  23 H :    0.006967
  24 H :    0.042166
  25 C :   -0.011467
  26 H :    0.038544
  27 H :    0.032620
  28 C :   -0.099007
  29 H :    0.033550
  30 H :    0.054267
  31 H :    0.028574
  32 H :    0.028416
  33 H :    0.043118
Sum of atomic charges:   -0.0000000

LOEWDIN ATOMIC CHARGES
----------------------
   0 S :    0.366327
   1 C :   -0.166483
   2 C :   -0.053656
   3 C :   -0.057945
   4 C :   -0.176594
   5 H :    0.022125
   6 C :   -0.033481
   7 H :    0.022853
   8 H :    0.039581
   9 C :   -0.025939
  10 H :    0.022814
  11 H :    0.023883
  12 C :   -0.065974
  13 H :    0.015325
  14 H :    0.034404
  15 H :    0.020438
  16 S :    0.424246
  17 C :   -0.193085
  18 C :   -0.079847
  19 C :   -0.052544
  20 C :   -0.216169
  21 H :    0.036425
  22 C :   -0.036156
  23 H :    0.019667
  24 H :    0.042232
  25 C :   -0.035244
  26 H :    0.034034
  27 H :    0.025177
  28 C :   -0.074861
  29 H :    0.033344
  30 H :    0.028565
  31 H :    0.020559
  32 H :    0.010672
  33 H :    0.025309

  Mayer bond orders larger than 0.100000
B(  0-S ,  1-C ) :   1.1374 B(  0-S ,  4-C ) :   1.1408 B(  1-C ,  2-C ) :   1.5941
B(  1-C ,  4-C ) :   0.1070 B(  1-C , 32-H ) :   0.9805 B(  2-C ,  3-C ) :   1.2261
B(  2-C ,  6-C ) :   1.0228 B(  3-C ,  4-C ) :   1.5880 B(  3-C ,  5-H ) :   0.9986
B(  4-C , 20-C ) :   0.9999 B(  6-C ,  7-H ) :   0.9410 B(  6-C ,  8-H ) :   0.9377
B(  6-C ,  9-C ) :   1.0621 B(  9-C , 10-H ) :   0.9574 B(  9-C , 11-H ) :   0.9560
B(  9-C , 12-C ) :   1.0666 B( 12-C , 13-H ) :   0.9763 B( 12-C , 14-H ) :   0.9748
B( 12-C , 15-H ) :   0.9779 B( 16-S , 17-C ) :   1.1531 B( 16-S , 20-C ) :   1.1479
B( 17-C , 18-C ) :   1.6392 B( 17-C , 33-H ) :   0.9693 B( 18-C , 19-C ) :   1.2037
B( 18-C , 21-H ) :   0.9831 B( 19-C , 20-C ) :   1.6126 B( 19-C , 22-C ) :   1.0404
B( 22-C , 23-H ) :   0.9316 B( 22-C , 24-H ) :   0.9280 B( 22-C , 25-C ) :   1.0729
B( 25-C , 26-H ) :   0.9511 B( 25-C , 27-H ) :   0.9574 B( 25-C , 28-C ) :   1.0809
B( 28-C , 29-H ) :   0.9691 B( 28-C , 30-H ) :   0.9711 B( 28-C , 31-H ) :   0.9670

Dispersion correction           -0.015134168
FINAL SINGLE POINT ENERGY     -1339.852025628058

DIPOLE MOMENT
-------------
                                X             Y             Z
Electronic contribution:    -19.08764      17.47716      16.03129
Nuclear contribution   :     19.45788     -18.09449     -16.44254
                        -----------------------------------------
Total Dipole Moment    :      0.37023      -0.61732      -0.41126
                        -----------------------------------------
Magnitude (a.u.)       :      0.82903
Magnitude (Debye)      :      2.10723

Rotational constants in cm-1:     0.020936     0.008559     0.006665
Rotational constants in MHz :   627.641552   256.580177   199.800358

                             ****ORCA TERMINATED NORMALLY****
TOTAL RUN TIME: 0 days 0 hours 0 minutes 34 seconds 892 msec
