                         Program Version 4.2.1 -  RELEASE  -
|  1> ! wB97X-D3 SP def2-SVP
|  2> %pal
|  3> nprocs 16
|  4> end
|  5>
|  6> * xyz 0 1
|  7> S 	 1.00455 	 13.0386 	 85.2176
|  8> C 	 0.69914 	 13.1098 	 83.4634
|  9> C 	 1.83936 	 12.8929 	 82.7621
| 10> C 	 2.90804 	 12.4035 	 83.5523
| 11> C 	 2.59998 	 12.3569 	 84.9075
| 12> H 	 3.92542 	 12.1332 	 83.2016
| 13> C 	 1.91829 	 13.0196 	 81.2791
| 14> H 	 2.89299 	 12.8619 	 80.873
| 15> H 	 1.63695 	 14.0443 	 80.9885
| 16> C 	 0.941444 	 12.0837 	 80.5327
| 17> H 	 1.08964 	 11.0616 	 80.7667
| 18> H 	 -0.0165985 	 12.3639 	 80.8301
| 19> C 	 1.0989 	 12.2064 	 79.0473
| 20> H 	 0.558112 	 11.4511 	 78.4761
| 21> H 	 0.620616 	 13.0701 	 78.5802
| 22> H 	 2.11484 	 11.9832 	 78.7483
| 23> S 	 3.72576 	 13.1819 	 87.4033
| 24> C 	 5.17876 	 12.3634 	 87.9428
| 25> C 	 5.61577 	 11.4809 	 87.0266
| 26> C 	 4.79567 	 11.3181 	 85.8771
| 27> C 	 3.63925 	 12.0948 	 85.9376
| 28> H 	 6.52393 	 11.0636 	 87.0545
| 29> C 	 5.17595 	 10.4001 	 84.751
| 30> H 	 4.29327 	 10.3134 	 84.1017
| 31> H 	 5.21331 	 9.37751 	 85.072
| 32> C 	 6.38455 	 10.7358 	 83.9002
| 33> H 	 7.22895 	 10.7501 	 84.5883
| 34> H 	 6.38594 	 11.7457 	 83.4383
| 35> C 	 6.63114 	 9.78333 	 82.6776
| 36> H 	 7.46744 	 10.1819 	 81.9705
| 37> H 	 5.71842 	 9.56714 	 82.0668
| 38> H 	 7.07759 	 8.88052 	 83.0861
| 39> H 	 -0.21831 	 13.2183 	 82.9509
| 40> H 	 5.89541 	 12.6511 	 88.7107
| 41> *
| 42>
| 43>                          ****END OF INPUT****

CARTESIAN COORDINATES (ANGSTROEM)
---------------------------------
  S      1.004550   13.038600   85.217600
  C      0.699140   13.109800   83.463400
  C      1.839360   12.892900   82.762100
  C      2.908040   12.403500   83.552300
  C      2.599980   12.356900   84.907500
  H      3.925420   12.133200   83.201600
  C      1.918290   13.019600   81.279100
  H      2.892990   12.861900   80.873000
  H      1.636950   14.044300   80.988500
  C      0.941444   12.083700   80.532700
  H      1.089640   11.061600   80.766700
  H     -0.016598   12.363900   80.830100
  C      1.098900   12.206400   79.047300
  H      0.558112   11.451100   78.476100
  H      0.620616   13.070100   78.580200
  H      2.114840   11.983200   78.748300
  S      3.725760   13.181900   87.403300
  C      5.178760   12.363400   87.942800
  C      5.615770   11.480900   87.026600
  C      4.795670   11.318100   85.877100
  C      3.639250   12.094800   85.937600
  H      6.523930   11.063600   87.054500
  C      5.175950   10.400100   84.751000
  H      4.293270   10.313400   84.101700
  H      5.213310    9.377510   85.072000
  C      6.384550   10.735800   83.900200
  H      7.228950   10.750100   84.588300
  H      6.385940   11.745700   83.438300
  C      6.631140    9.783330   82.677600
  H      7.467440   10.181900   81.970500
  H      5.718420    9.567140   82.066800
  H      7.077590    8.880520   83.086100
  H     -0.218310   13.218300   82.950900
  H      5.895410   12.651100   88.710700

 Total Charge           Charge          ....    0
 Multiplicity           Mult            ....    1
 Number of Electrons    NEL             ....  134
 Basis Dimension        Dim             ....  322

ORBITAL ENERGIES
----------------

  NO   OCC          E(Eh)            E(eV)
   0   2.0000     -88.971001     -2421.0240
   1   2.0000     -88.966008     -2420.8881
   2   2.0000     -10.336305      -281.2651
   3   2.0000     -10.334996      -281.2295
   4   2.0000     -10.313676      -280.6494
   5   2.0000     -10.310328      -280.5583
   6   2.0000     -10.301541      -280.3192
   7   2.0000     -10.296367      -280.1784
   8   2.0000     -10.296022      -280.1690
   9   2.0000     -10.295111      -280.1442
  10   2.0000     -10.294856      -280.1373
  11   2.0000     -10.289512      -279.9918
  12   2.0000     -10.288471      -279.9635
  13   2.0000     -10.279269      -279.7131
  14   2.0000     -10.279221      -279.7118
  15   2.0000     -10.276088      -279.6266
  16   2.0000      -8.084620      -219.9937
  17   2.0000      -8.079534      -219.8553
  18   2.0000      -6.043330      -164.4474
  19   2.0000      -6.039415      -164.3408
  20   2.0000      -6.038246      -164.3090
  21   2.0000      -6.035111      -164.2237
  22   2.0000      -6.034381      -164.2039
  23   2.0000      -6.029974      -164.0839
  24   2.0000      -1.003384       -27.3035
  25   2.0000      -0.983745       -26.7691
  26   2.0000      -0.919570       -25.0228
  27   2.0000      -0.910465       -24.7750
  28   2.0000      -0.871707       -23.7204
  29   2.0000      -0.853704       -23.2305
  30   2.0000      -0.845823       -23.0160
  31   2.0000      -0.816762       -22.2252
  32   2.0000      -0.784220       -21.3397
  33   2.0000      -0.773520       -21.0485
  34   2.0000      -0.714083       -19.4312
  35   2.0000      -0.705657       -19.2019
  36   2.0000      -0.698703       -19.0127
  37   2.0000      -0.664473       -18.0812
  38   2.0000      -0.638632       -17.3781
  39   2.0000      -0.618670       -16.8349
  40   2.0000      -0.599353       -16.3092
  41   2.0000      -0.584998       -15.9186
  42   2.0000      -0.570590       -15.5266
  43   2.0000      -0.563188       -15.3251
  44   2.0000      -0.525781       -14.3072
  45   2.0000      -0.521883       -14.2012
  46   2.0000      -0.518836       -14.1182
  47   2.0000      -0.513880       -13.9834
  48   2.0000      -0.506305       -13.7773
  49   2.0000      -0.499492       -13.5919
  50   2.0000      -0.492638       -13.4053
  51   2.0000      -0.481542       -13.1034
  52   2.0000      -0.476760       -12.9733
  53   2.0000      -0.466072       -12.6825
  54   2.0000      -0.463264       -12.6060
  55   2.0000      -0.452555       -12.3146
  56   2.0000      -0.447586       -12.1794
  57   2.0000      -0.435812       -11.8591
  58   2.0000      -0.429535       -11.6882
  59   2.0000      -0.427941       -11.6449
  60   2.0000      -0.424762       -11.5584
  61   2.0000      -0.418147       -11.3784
  62   2.0000      -0.410325       -11.1655
  63   2.0000      -0.356525        -9.7015
  64   2.0000      -0.333655        -9.0792
  65   2.0000      -0.330866        -9.0033
  66   2.0000      -0.285022        -7.7558
  67   0.0000       0.021198         0.5768
  68   0.0000       0.071479         1.9450
  69   0.0000       0.098942         2.6923
  70   0.0000       0.124294         3.3822
  71   0.0000       0.131047         3.5660

MULLIKEN ATOMIC CHARGES
-----------------------
   0 S :    0.110864
   1 C :   -0.115541
   2 C :   -0.045668
   3 C :   -0.006696
   4 C :   -0.130018
   5 H :    0.019782
   6 C :    0.074541
   7 H :    0.002968
   8 H :    0.030695
   9 C :   -0.036828
  10 H :    0.023469
  11 H :    0.004685
  12 C :   -0.043637
  13 H :    0.015991
  14 H :    0.031048
  15 H :    0.025921
  16 S :    0.084613
  17 C :   -0.061458
  18 C :    0.017473
  19 C :   -0.046138
  20 C :   -0.122600
  21 H :   -0.037514
  22 C :    0.052977
  23 H :    0.008640
  24 H :    0.023371
  25 C :   -0.079193
  26 H :    0.023828
  27 H :    0.038061
  28 C :   -0.089348
  29 H :    0.049681
  30 H :    0.050436
  31 H :    0.034223
  32 H :    0.031754
  33 H :    0.059617
Sum of atomic charges:   -0.0000000

LOEWDIN ATOMIC CHARGES
----------------------
   0 S :    0.390709
   1 C :   -0.181913
   2 C :   -0.061451
   3 C :   -0.063425
   4 C :   -0.184765
   5 H :    0.037957
   6 C :   -0.025641
   7 H :    0.021180
   8 H :    0.035726
   9 C :   -0.027745
  10 H :    0.022485
  11 H :    0.012372
  12 C :   -0.070676
  13 H :    0.027328
  14 H :    0.027443
  15 H :    0.024729
  16 S :    0.367638
  17 C :   -0.182367
  18 C :   -0.058596
  19 C :   -0.055537
  20 C :   -0.161905
  21 H :    0.009053
  22 C :   -0.042853
  23 H :    0.028758
  24 H :    0.031826
  25 C :   -0.044655
  26 H :    0.021870
  27 H :    0.025567
  28 C :   -0.074847
  29 H :    0.038405
  30 H :    0.030205
  31 H :    0.022728
  32 H :    0.022059
  33 H :    0.038340

  Mayer bond orders larger than 0.100000
B(  0-S ,  1-C ) :   1.1149 B(  0-S ,  4-C ) :   1.1471 B(  1-C ,  2-C ) :   1.6131
B(  1-C , 32-H ) :   0.9741 B(  2-C ,  3-C ) :   1.2527 B(  2-C ,  6-C ) :   1.0289
B(  3-C ,  4-C ) :   1.5461 B(  3-C ,  5-H ) :   0.9842 B(  4-C , 20-C ) :   1.0547
B(  6-C ,  7-H ) :   0.9465 B(  6-C ,  8-H ) :   0.9328 B(  6-C ,  9-C ) :   1.0655
B(  9-C , 10-H ) :   0.9563 B(  9-C , 11-H ) :   0.9515 B(  9-C , 12-C ) :   1.1026
B( 12-C , 13-H ) :   0.9676 B( 12-C , 14-H ) :   0.9718 B( 12-C , 15-H ) :   0.9712
B( 16-S , 17-C ) :   1.1289 B( 16-S , 20-C ) :   1.1172 B( 17-C , 18-C ) :   1.6354
B( 17-C , 33-H ) :   0.9580 B( 18-C , 19-C ) :   1.2443 B( 18-C , 21-H ) :   1.0009
B( 19-C , 20-C ) :   1.6154 B( 19-C , 22-C ) :   1.0439 B( 22-C , 23-H ) :   0.9298
B( 22-C , 24-H ) :   0.9278 B( 22-C , 25-C ) :   1.0522 B( 25-C , 26-H ) :   0.9542
B( 25-C , 27-H ) :   0.9559 B( 25-C , 28-C ) :   1.0704 B( 28-C , 29-H ) :   0.9762
B( 28-C , 30-H ) :   0.9749 B( 28-C , 31-H ) :   0.9769

Dispersion correction           -0.013771102
FINAL SINGLE POINT ENERGY     -1339.859399977997

DIPOLE MOMENT
-------------
                                X             Y             Z
Electronic contribution:     -8.86609      11.25530      30.46681
Nuclear contribution   :      9.31912     -11.51419     -31.26163
                        -----------------------------------------
Total Dipole Moment    :      0.45303      -0.25890      -0.79482
                        -----------------------------------------
Magnitude (a.u.)       :      0.95079
Magnitude (Debye)      :      2.41672

Rotational constants in cm-1:     0.017821     0.008855     0.006135
Rotational constants in MHz :   534.265787   265.452739   183.932682

                             ****ORCA TERMINATED NORMALLY****
TOTAL RUN TIME: 0 days 0 hours 0 minutes 34 seconds 906 msec
