                         Program Version 4.2.1 -  RELEASE  -
|  1> ! wB97X-D3 SP def2-SVP
|  2> %pal
|  3> nprocs 16
|  4> end
|  5>
|  6> * xyz 0 1
|  7> S 	 -17.1067 	 32.5888 	 33.6663
|  8> C 	 -15.9108 	 33.7954 	 33.2779
|  9> C 	 -16.4014 	 35.0562 	 33.4193
| 10> C 	 -17.7217 	 35.0781 	 33.9748
| 11> C 	 -18.1825 	 33.8181 	 34.2422
| 12> H 	 -18.2047 	 36.0332 	 34.1226
| 13> C 	 -15.6399 	 36.2763 	 33.231
| 14> H 	 -14.7166 	 36.0336 	 33.7445
| 15> H 	 -16.1983 	 37.1047 	 33.6819
| 16> C 	 -15.2175 	 36.6582 	 31.8534
| 17> H 	 -14.7918 	 35.7874 	 31.414
| 18> H 	 -16.0473 	 36.9731 	 31.2611
| 19> C 	 -14.153 	 37.8287 	 31.968
| 20> H 	 -14.3815 	 38.4265 	 32.8747
| 21> H 	 -13.1197 	 37.4064 	 32.0445
| 22> H 	 -14.1443 	 38.2532 	 30.982
| 23> S 	 -19.9964 	 34.2389 	 36.2868
| 24> C 	 -21.5851 	 33.587 	 36.2574
| 25> C 	 -21.7033 	 32.773 	 35.143
| 26> C 	 -20.5848 	 32.8091 	 34.2078
| 27> C 	 -19.5401 	 33.6175 	 34.7059
| 28> H 	 -22.6289 	 32.2181 	 35.0542
| 29> C 	 -20.708 	 32.1934 	 32.8134
| 30> H 	 -20.8734 	 31.1282 	 32.9906
| 31> H 	 -19.7248 	 32.4536 	 32.3942
| 32> C 	 -21.8465 	 32.7685 	 31.8817
| 33> H 	 -22.8119 	 32.5047 	 32.3789
| 34> H 	 -21.9089 	 32.2608 	 30.9877
| 35> C 	 -21.6629 	 34.2291 	 31.5242
| 36> H 	 -20.9138 	 34.4658 	 30.6669
| 37> H 	 -21.5005 	 34.7916 	 32.3872
| 38> H 	 -22.6619 	 34.4604 	 31.0845
| 39> H 	 -14.8752 	 33.5727 	 33.0894
| 40> H 	 -22.1653 	 33.5227 	 37.1789
| 41> *
| 42>
| 43>                          ****END OF INPUT****

CARTESIAN COORDINATES (ANGSTROEM)
---------------------------------
  S    -17.106700   32.588800   33.666300
  C    -15.910800   33.795400   33.277900
  C    -16.401400   35.056200   33.419300
  C    -17.721700   35.078100   33.974800
  C    -18.182500   33.818100   34.242200
  H    -18.204700   36.033200   34.122600
  C    -15.639900   36.276300   33.231000
  H    -14.716600   36.033600   33.744500
  H    -16.198300   37.104700   33.681900
  C    -15.217500   36.658200   31.853400
  H    -14.791800   35.787400   31.414000
  H    -16.047300   36.973100   31.261100
  C    -14.153000   37.828700   31.968000
  H    -14.381500   38.426500   32.874700
  H    -13.119700   37.406400   32.044500
  H    -14.144300   38.253200   30.982000
  S    -19.996400   34.238900   36.286800
  C    -21.585100   33.587000   36.257400
  C    -21.703300   32.773000   35.143000
  C    -20.584800   32.809100   34.207800
  C    -19.540100   33.617500   34.705900
  H    -22.628900   32.218100   35.054200
  C    -20.708000   32.193400   32.813400
  H    -20.873400   31.128200   32.990600
  H    -19.724800   32.453600   32.394200
  C    -21.846500   32.768500   31.881700
  H    -22.811900   32.504700   32.378900
  H    -21.908900   32.260800   30.987700
  C    -21.662900   34.229100   31.524200
  H    -20.913800   34.465800   30.666900
  H    -21.500500   34.791600   32.387200
  H    -22.661900   34.460400   31.084500
  H    -14.875200   33.572700   33.089400
  H    -22.165300   33.522700   37.178900

 Total Charge           Charge          ....    0
 Multiplicity           Mult            ....    1
 Number of Electrons    NEL             ....  134
 Basis Dimension        Dim             ....  322

ORBITAL ENERGIES
----------------

  NO   OCC          E(Eh)            E(eV)
   0   2.0000     -88.970115     -2420.9999
   1   2.0000     -88.960328     -2420.7336
   2   2.0000     -10.327694      -281.0308
   3   2.0000     -10.327106      -281.0148
   4   2.0000     -10.312755      -280.6243
   5   2.0000     -10.308768      -280.5158
   6   2.0000     -10.304900      -280.4106
   7   2.0000     -10.293312      -280.0953
   8   2.0000     -10.290937      -280.0306
   9   2.0000     -10.290685      -280.0238
  10   2.0000     -10.290556      -280.0203
  11   2.0000     -10.284756      -279.8624
  12   2.0000     -10.282142      -279.7913
  13   2.0000     -10.281877      -279.7841
  14   2.0000     -10.280071      -279.7350
  15   2.0000     -10.276049      -279.6255
  16   2.0000      -8.084844      -219.9998
  17   2.0000      -8.075621      -219.7488
  18   2.0000      -6.043438      -164.4503
  19   2.0000      -6.039363      -164.3394
  20   2.0000      -6.035490      -164.2340
  21   2.0000      -6.034071      -164.1954
  22   2.0000      -6.029905      -164.0821
  23   2.0000      -6.026540      -163.9905
  24   2.0000      -1.010484       -27.4967
  25   2.0000      -0.985444       -26.8153
  26   2.0000      -0.924184       -25.1483
  27   2.0000      -0.902450       -24.5569
  28   2.0000      -0.871522       -23.7153
  29   2.0000      -0.853975       -23.2378
  30   2.0000      -0.844017       -22.9669
  31   2.0000      -0.811819       -22.0907
  32   2.0000      -0.779325       -21.2065
  33   2.0000      -0.768717       -20.9179
  34   2.0000      -0.709341       -19.3022
  35   2.0000      -0.704007       -19.1570
  36   2.0000      -0.693683       -18.8761
  37   2.0000      -0.655930       -17.8488
  38   2.0000      -0.641246       -17.4492
  39   2.0000      -0.618668       -16.8348
  40   2.0000      -0.587288       -15.9809
  41   2.0000      -0.580349       -15.7921
  42   2.0000      -0.561269       -15.2729
  43   2.0000      -0.554108       -15.0780
  44   2.0000      -0.543654       -14.7936
  45   2.0000      -0.531481       -14.4623
  46   2.0000      -0.517694       -14.0872
  47   2.0000      -0.512372       -13.9423
  48   2.0000      -0.505755       -13.7623
  49   2.0000      -0.496933       -13.5222
  50   2.0000      -0.493026       -13.4159
  51   2.0000      -0.479042       -13.0354
  52   2.0000      -0.469047       -12.7634
  53   2.0000      -0.461627       -12.5615
  54   2.0000      -0.454216       -12.3598
  55   2.0000      -0.446059       -12.1379
  56   2.0000      -0.443920       -12.0797
  57   2.0000      -0.440592       -11.9891
  58   2.0000      -0.437201       -11.8968
  59   2.0000      -0.425012       -11.5652
  60   2.0000      -0.417406       -11.3582
  61   2.0000      -0.415011       -11.2930
  62   2.0000      -0.399539       -10.8720
  63   2.0000      -0.349131        -9.5003
  64   2.0000      -0.329642        -8.9700
  65   2.0000      -0.322873        -8.7858
  66   2.0000      -0.292492        -7.9591
  67   0.0000       0.033742         0.9182
  68   0.0000       0.065414         1.7800
  69   0.0000       0.108293         2.9468
  70   0.0000       0.119551         3.2531
  71   0.0000       0.129099         3.5130

MULLIKEN ATOMIC CHARGES
-----------------------
   0 S :    0.130948
   1 C :   -0.140418
   2 C :   -0.054541
   3 C :    0.007314
   4 C :   -0.115196
   5 H :    0.014290
   6 C :    0.043992
   7 H :    0.027303
   8 H :    0.019239
   9 C :   -0.054646
  10 H :    0.014432
  11 H :    0.023871
  12 C :   -0.057650
  13 H :    0.051921
  14 H :    0.035481
  15 H :    0.034571
  16 S :    0.097802
  17 C :   -0.105120
  18 C :   -0.051882
  19 C :   -0.070383
  20 C :   -0.170964
  21 H :    0.021498
  22 C :    0.076247
  23 H :    0.037474
  24 H :    0.019336
  25 C :   -0.050227
  26 H :    0.026574
  27 H :    0.011470
  28 C :   -0.062566
  29 H :    0.051607
  30 H :    0.039542
  31 H :    0.031521
  32 H :    0.042951
  33 H :    0.074209
Sum of atomic charges:   -0.0000000

LOEWDIN ATOMIC CHARGES
----------------------
   0 S :    0.425827
   1 C :   -0.200813
   2 C :   -0.062761
   3 C :   -0.055486
   4 C :   -0.202400
   5 H :    0.032275
   6 C :   -0.041115
   7 H :    0.038211
   8 H :    0.029353
   9 C :   -0.030328
  10 H :    0.017609
  11 H :    0.018218
  12 C :   -0.066575
  13 H :    0.031670
  14 H :    0.029763
  15 H :    0.025605
  16 S :    0.415996
  17 C :   -0.208162
  18 C :   -0.073150
  19 C :   -0.066005
  20 C :   -0.195122
  21 H :    0.028021
  22 C :   -0.033795
  23 H :    0.033583
  24 H :    0.022901
  25 C :   -0.036612
  26 H :    0.025813
  27 H :    0.014849
  28 C :   -0.065891
  29 H :    0.038440
  30 H :    0.016470
  31 H :    0.032892
  32 H :    0.025573
  33 H :    0.035148

  Mayer bond orders larger than 0.100000
B(  0-S ,  1-C ) :   1.1276 B(  0-S ,  4-C ) :   1.1530 B(  1-C ,  2-C ) :   1.6017
B(  1-C , 32-H ) :   0.9692 B(  2-C ,  3-C ) :   1.2579 B(  2-C ,  6-C ) :   1.0284
B(  3-C ,  4-C ) :   1.5268 B(  3-C ,  5-H ) :   0.9994 B(  4-C , 20-C ) :   1.0369
B(  6-C ,  7-H ) :   0.9357 B(  6-C ,  8-H ) :   0.9333 B(  6-C ,  9-C ) :   1.0775
B(  9-C , 10-H ) :   0.9544 B(  9-C , 11-H ) :   0.9574 B(  9-C , 12-C ) :   1.0683
B( 12-C , 13-H ) :   0.9748 B( 12-C , 14-H ) :   0.9759 B( 12-C , 15-H ) :   0.9754
B( 16-S , 17-C ) :   1.1581 B( 16-S , 20-C ) :   1.1643 B( 17-C , 18-C ) :   1.6035
B( 17-C , 33-H ) :   0.9641 B( 18-C , 19-C ) :   1.2307 B( 18-C , 21-H ) :   0.9893
B( 19-C , 20-C ) :   1.5616 B( 19-C , 22-C ) :   1.0382 B( 22-C , 23-H ) :   0.9319
B( 22-C , 24-H ) :   0.9320 B( 22-C , 25-C ) :   1.0738 B( 25-C , 26-H ) :   0.9560
B( 25-C , 27-H ) :   0.9523 B( 25-C , 28-C ) :   1.0697 B( 28-C , 29-H ) :   0.9729
B( 28-C , 30-H ) :   0.9798 B( 28-C , 31-H ) :   0.9706

Dispersion correction           -0.014199236
FINAL SINGLE POINT ENERGY     -1339.861778809401

DIPOLE MOMENT
-------------
                                X             Y             Z
Electronic contribution:     -2.82070     -12.20072      18.45888
Nuclear contribution   :      2.88321      12.33839     -18.80707
                        -----------------------------------------
Total Dipole Moment    :      0.06251       0.13766      -0.34819
                        -----------------------------------------
Magnitude (a.u.)       :      0.37960
Magnitude (Debye)      :      0.96486

Rotational constants in cm-1:     0.021524     0.007413     0.006821
Rotational constants in MHz :   645.275191   222.248958   204.474776

                             ****ORCA TERMINATED NORMALLY****
TOTAL RUN TIME: 0 days 0 hours 0 minutes 41 seconds 394 msec
