                         Program Version 4.2.1 -  RELEASE  -
|  1> ! wB97X-D3 SP def2-SVP
|  2> %pal
|  3> nprocs 16
|  4> end
|  5>
|  6> * xyz 0 1
|  7> S 	 34.713 	 25.2681 	 84.8658
|  8> C 	 34.7666 	 26.9295 	 85.2719
|  9> C 	 35.7595 	 27.6553 	 84.6
| 10> C 	 36.2681 	 26.7788 	 83.6069
| 11> C 	 35.9486 	 25.4764 	 83.653
| 12> H 	 37.0287 	 27.0964 	 82.861
| 13> C 	 36.1911 	 29.0723 	 84.7414
| 14> H 	 35.3682 	 29.5755 	 84.1865
| 15> H 	 37.0602 	 29.0866 	 84.1475
| 16> C 	 36.1639 	 29.5617 	 86.2161
| 17> H 	 35.1904 	 29.2882 	 86.6516
| 18> H 	 36.9077 	 28.9496 	 86.7916
| 19> C 	 36.3401 	 31.1261 	 86.266
| 20> H 	 36.5466 	 31.4449 	 87.2275
| 21> H 	 37.0012 	 31.4428 	 85.5048
| 22> H 	 35.4308 	 31.7376 	 86.1516
| 23> S 	 35.1644 	 23.5844 	 81.9367
| 24> C 	 36.2249 	 22.4494 	 81.294
| 25> C 	 37.5623 	 22.6934 	 81.6468
| 26> C 	 37.668 	 23.8272 	 82.4883
| 27> C 	 36.4206 	 24.388 	 82.8161
| 28> H 	 38.2869 	 22.1067 	 81.1724
| 29> C 	 38.9798 	 24.3402 	 82.9184
| 30> H 	 38.7727 	 25.1223 	 83.6651
| 31> H 	 39.3741 	 24.8402 	 82.0408
| 32> C 	 40.0554 	 23.285 	 83.4541
| 33> H 	 40.1518 	 22.3927 	 82.8528
| 34> H 	 39.5579 	 22.7944 	 84.2955
| 35> C 	 41.3911 	 23.8052 	 83.8547
| 36> H 	 42.0903 	 24.0454 	 83.0422
| 37> H 	 41.9954 	 23.1638 	 84.4662
| 38> H 	 41.2784 	 24.7385 	 84.3153
| 39> H 	 34.1887 	 27.3982 	 86.1082
| 40> H 	 36.0228 	 21.6705 	 80.5063
| 41> *
| 42>
| 43>                          ****END OF INPUT****

CARTESIAN COORDINATES (ANGSTROEM)
---------------------------------
  S     34.713000   25.268100   84.865800
  C     34.766600   26.929500   85.271900
  C     35.759500   27.655300   84.600000
  C     36.268100   26.778800   83.606900
  C     35.948600   25.476400   83.653000
  H     37.028700   27.096400   82.861000
  C     36.191100   29.072300   84.741400
  H     35.368200   29.575500   84.186500
  H     37.060200   29.086600   84.147500
  C     36.163900   29.561700   86.216100
  H     35.190400   29.288200   86.651600
  H     36.907700   28.949600   86.791600
  C     36.340100   31.126100   86.266000
  H     36.546600   31.444900   87.227500
  H     37.001200   31.442800   85.504800
  H     35.430800   31.737600   86.151600
  S     35.164400   23.584400   81.936700
  C     36.224900   22.449400   81.294000
  C     37.562300   22.693400   81.646800
  C     37.668000   23.827200   82.488300
  C     36.420600   24.388000   82.816100
  H     38.286900   22.106700   81.172400
  C     38.979800   24.340200   82.918400
  H     38.772700   25.122300   83.665100
  H     39.374100   24.840200   82.040800
  C     40.055400   23.285000   83.454100
  H     40.151800   22.392700   82.852800
  H     39.557900   22.794400   84.295500
  C     41.391100   23.805200   83.854700
  H     42.090300   24.045400   83.042200
  H     41.995400   23.163800   84.466200
  H     41.278400   24.738500   84.315300
  H     34.188700   27.398200   86.108200
  H     36.022800   21.670500   80.506300

 Total Charge           Charge          ....    0
 Multiplicity           Mult            ....    1
 Number of Electrons    NEL             ....  134
 Basis Dimension        Dim             ....  322

ORBITAL ENERGIES
----------------

  NO   OCC          E(Eh)            E(eV)
   0   2.0000     -88.964602     -2420.8499
   1   2.0000     -88.963263     -2420.8134
   2   2.0000     -10.322245      -280.8826
   3   2.0000     -10.320658      -280.8394
   4   2.0000     -10.314646      -280.6758
   5   2.0000     -10.311829      -280.5991
   6   2.0000     -10.303099      -280.3616
   7   2.0000     -10.301634      -280.3217
   8   2.0000     -10.296444      -280.1805
   9   2.0000     -10.292914      -280.0844
  10   2.0000     -10.291266      -280.0396
  11   2.0000     -10.286789      -279.9177
  12   2.0000     -10.286299      -279.9044
  13   2.0000     -10.285876      -279.8929
  14   2.0000     -10.276118      -279.6274
  15   2.0000     -10.270095      -279.4635
  16   2.0000      -8.080738      -219.8881
  17   2.0000      -8.078770      -219.8345
  18   2.0000      -6.038956      -164.3283
  19   2.0000      -6.037199      -164.2805
  20   2.0000      -6.034886      -164.2176
  21   2.0000      -6.033159      -164.1706
  22   2.0000      -6.031875      -164.1357
  23   2.0000      -6.029563      -164.0728
  24   2.0000      -1.013630       -27.5823
  25   2.0000      -0.991505       -26.9802
  26   2.0000      -0.914527       -24.8855
  27   2.0000      -0.908135       -24.7116
  28   2.0000      -0.867454       -23.6046
  29   2.0000      -0.860054       -23.4033
  30   2.0000      -0.851264       -23.1641
  31   2.0000      -0.815153       -22.1814
  32   2.0000      -0.785851       -21.3841
  33   2.0000      -0.769774       -20.9466
  34   2.0000      -0.719207       -19.5706
  35   2.0000      -0.712101       -19.3773
  36   2.0000      -0.690077       -18.7780
  37   2.0000      -0.658589       -17.9211
  38   2.0000      -0.636336       -17.3156
  39   2.0000      -0.616924       -16.7874
  40   2.0000      -0.592713       -16.1285
  41   2.0000      -0.574338       -15.6285
  42   2.0000      -0.560242       -15.2450
  43   2.0000      -0.554660       -15.0931
  44   2.0000      -0.537029       -14.6133
  45   2.0000      -0.528937       -14.3931
  46   2.0000      -0.522887       -14.2285
  47   2.0000      -0.513893       -13.9837
  48   2.0000      -0.500751       -13.6261
  49   2.0000      -0.497964       -13.5503
  50   2.0000      -0.496797       -13.5185
  51   2.0000      -0.474684       -12.9168
  52   2.0000      -0.472464       -12.8564
  53   2.0000      -0.467634       -12.7250
  54   2.0000      -0.460100       -12.5200
  55   2.0000      -0.453010       -12.3270
  56   2.0000      -0.446694       -12.1552
  57   2.0000      -0.440245       -11.9797
  58   2.0000      -0.433122       -11.7858
  59   2.0000      -0.430998       -11.7280
  60   2.0000      -0.422637       -11.5005
  61   2.0000      -0.417673       -11.3655
  62   2.0000      -0.406966       -11.0741
  63   2.0000      -0.343642        -9.3510
  64   2.0000      -0.328738        -8.9454
  65   2.0000      -0.323109        -8.7922
  66   2.0000      -0.291674        -7.9369
  67   0.0000       0.039739         1.0813
  68   0.0000       0.069849         1.9007
  69   0.0000       0.120809         3.2874
  70   0.0000       0.125552         3.4164
  71   0.0000       0.135301         3.6817

MULLIKEN ATOMIC CHARGES
-----------------------
   0 S :    0.128106
   1 C :   -0.148462
   2 C :   -0.135599
   3 C :    0.016059
   4 C :   -0.160406
   5 H :    0.013199
   6 C :    0.111694
   7 H :    0.050603
   8 H :    0.013491
   9 C :   -0.109820
  10 H :    0.031502
  11 H :    0.049068
  12 C :    0.001583
  13 H :    0.012214
  14 H :    0.032894
  15 H :    0.025528
  16 S :    0.130785
  17 C :   -0.104428
  18 C :   -0.048290
  19 C :   -0.014993
  20 C :   -0.183724
  21 H :    0.000201
  22 C :    0.078739
  23 H :    0.027339
  24 H :    0.035206
  25 C :   -0.084475
  26 H :    0.019854
  27 H :    0.024458
  28 C :   -0.002131
  29 H :    0.019227
  30 H :    0.028549
  31 H :    0.011375
  32 H :    0.059186
  33 H :    0.071468
Sum of atomic charges:    0.0000000

LOEWDIN ATOMIC CHARGES
----------------------
   0 S :    0.423110
   1 C :   -0.221547
   2 C :   -0.067686
   3 C :   -0.071625
   4 C :   -0.211898
   5 H :    0.031874
   6 C :   -0.032416
   7 H :    0.047202
   8 H :    0.024795
   9 C :   -0.033113
  10 H :    0.024914
  11 H :    0.032036
  12 C :   -0.062437
  13 H :    0.017769
  14 H :    0.022252
  15 H :    0.032949
  16 S :    0.454229
  17 C :   -0.215650
  18 C :   -0.073963
  19 C :   -0.051360
  20 C :   -0.214646
  21 H :    0.022658
  22 C :   -0.031120
  23 H :    0.032419
  24 H :    0.033337
  25 C :   -0.044540
  26 H :    0.020814
  27 H :    0.029268
  28 C :   -0.064862
  29 H :    0.026826
  30 H :    0.027762
  31 H :    0.019583
  32 H :    0.031492
  33 H :    0.041578

  Mayer bond orders larger than 0.100000
B(  0-S ,  1-C ) :   1.1601 B(  0-S ,  4-C ) :   1.1407 B(  1-C ,  2-C ) :   1.5824
B(  1-C , 32-H ) :   0.9569 B(  2-C ,  3-C ) :   1.2583 B(  2-C ,  6-C ) :   1.0038
B(  3-C ,  4-C ) :   1.6032 B(  3-C ,  5-H ) :   0.9808 B(  4-C , 20-C ) :   1.0222
B(  6-C ,  7-H ) :   0.9313 B(  6-C ,  8-H ) :   0.9362 B(  6-C ,  9-C ) :   1.0512
B(  9-C , 10-H ) :   0.9550 B(  9-C , 11-H ) :   0.9649 B(  9-C , 12-C ) :   1.0696
B( 12-C , 13-H ) :   0.9710 B( 12-C , 14-H ) :   0.9787 B( 12-C , 15-H ) :   0.9714
B( 16-S , 17-C ) :   1.1967 B( 16-S , 20-C ) :   1.1683 B( 17-C , 18-C ) :   1.5708
B( 17-C , 20-C ) :   0.1052 B( 17-C , 33-H ) :   0.9574 B( 18-C , 19-C ) :   1.2604
B( 18-C , 21-H ) :   1.0024 B( 19-C , 20-C ) :   1.5457 B( 19-C , 22-C ) :   1.0629
B( 22-C , 23-H ) :   0.9283 B( 22-C , 24-H ) :   0.9259 B( 22-C , 25-C ) :   1.0450
B( 25-C , 26-H ) :   0.9548 B( 25-C , 27-H ) :   0.9522 B( 25-C , 28-C ) :   1.0927
B( 28-C , 29-H ) :   0.9695 B( 28-C , 30-H ) :   0.9712 B( 28-C , 31-H ) :   0.9703

Dispersion correction           -0.013260148
FINAL SINGLE POINT ENERGY     -1339.859176584997

DIPOLE MOMENT
-------------
                                X             Y             Z
Electronic contribution:    -21.23221     -16.28326      -8.67256
Nuclear contribution   :     21.74430      16.72257       8.64578
                        -----------------------------------------
Total Dipole Moment    :      0.51209       0.43930      -0.02678
                        -----------------------------------------
Magnitude (a.u.)       :      0.67523
Magnitude (Debye)      :      1.71631

Rotational constants in cm-1:     0.018582     0.007602     0.005858
Rotational constants in MHz :   557.088537   227.904832   175.611905

                             ****ORCA TERMINATED NORMALLY****
TOTAL RUN TIME: 0 days 0 hours 0 minutes 28 seconds 707 msec
