                         Program Version 4.2.1 -  RELEASE  -
|  1> ! wB97X-D3 SP def2-SVP
|  2> %pal
|  3> nprocs 16
|  4> end
|  5>
|  6> * xyz 0 1
|  7> S 	 -63.0108 	 61.6519 	 123.792
|  8> C 	 -63.6396 	 62.1394 	 125.377
|  9> C 	 -64.2847 	 61.0826 	 126.038
| 10> C 	 -64.0095 	 59.8916 	 125.335
| 11> C 	 -63.4166 	 60.0036 	 124.169
| 12> H 	 -64.4476 	 58.8846 	 125.628
| 13> C 	 -64.974 	 61.002 	 127.367
| 14> H 	 -64.9276 	 60.0047 	 127.767
| 15> H 	 -65.9447 	 61.2814 	 127.135
| 16> C 	 -64.5315 	 62.0239 	 128.444
| 17> H 	 -63.4492 	 62.021 	 128.634
| 18> H 	 -64.8203 	 62.9781 	 127.998
| 19> C 	 -65.3107 	 61.8295 	 129.714
| 20> H 	 -64.9653 	 62.2895 	 130.612
| 21> H 	 -66.3236 	 61.9748 	 129.55
| 22> H 	 -65.162 	 60.7627 	 129.957
| 23> S 	 -63.836 	 59.2343 	 121.707
| 24> C 	 -63.5325 	 57.619 	 121.191
| 25> C 	 -62.7316 	 57.0165 	 122.072
| 26> C 	 -62.5023 	 57.8041 	 123.23
| 27> C 	 -63.1082 	 58.9994 	 123.177
| 28> H 	 -62.4692 	 55.9547 	 121.908
| 29> C 	 -62.0177 	 57.192 	 124.483
| 30> H 	 -61.8945 	 57.8882 	 125.265
| 31> H 	 -61.0463 	 56.8896 	 124.161
| 32> C 	 -62.8979 	 56.0465 	 125.07
| 33> H 	 -63.1309 	 55.272 	 124.37
| 34> H 	 -63.8357 	 56.4361 	 125.357
| 35> C 	 -62.3305 	 55.3642 	 126.362
| 36> H 	 -62.3119 	 56.0931 	 127.21
| 37> H 	 -61.3355 	 55.009 	 126.148
| 38> H 	 -63.0409 	 54.5633 	 126.596
| 39> H 	 -63.5284 	 63.1456 	 125.749
| 40> H 	 -63.9208 	 57.1098 	 120.287
| 41> *
| 42>
| 43>                          ****END OF INPUT****

CARTESIAN COORDINATES (ANGSTROEM)
---------------------------------
  S    -63.010800   61.651900  123.792000
  C    -63.639600   62.139400  125.377000
  C    -64.284700   61.082600  126.038000
  C    -64.009500   59.891600  125.335000
  C    -63.416600   60.003600  124.169000
  H    -64.447600   58.884600  125.628000
  C    -64.974000   61.002000  127.367000
  H    -64.927600   60.004700  127.767000
  H    -65.944700   61.281400  127.135000
  C    -64.531500   62.023900  128.444000
  H    -63.449200   62.021000  128.634000
  H    -64.820300   62.978100  127.998000
  C    -65.310700   61.829500  129.714000
  H    -64.965300   62.289500  130.612000
  H    -66.323600   61.974800  129.550000
  H    -65.162000   60.762700  129.957000
  S    -63.836000   59.234300  121.707000
  C    -63.532500   57.619000  121.191000
  C    -62.731600   57.016500  122.072000
  C    -62.502300   57.804100  123.230000
  C    -63.108200   58.999400  123.177000
  H    -62.469200   55.954700  121.908000
  C    -62.017700   57.192000  124.483000
  H    -61.894500   57.888200  125.265000
  H    -61.046300   56.889600  124.161000
  C    -62.897900   56.046500  125.070000
  H    -63.130900   55.272000  124.370000
  H    -63.835700   56.436100  125.357000
  C    -62.330500   55.364200  126.362000
  H    -62.311900   56.093100  127.210000
  H    -61.335500   55.009000  126.148000
  H    -63.040900   54.563300  126.596000
  H    -63.528400   63.145600  125.749000
  H    -63.920800   57.109800  120.287000

 Total Charge           Charge          ....    0
 Multiplicity           Mult            ....    1
 Number of Electrons    NEL             ....  134
 Basis Dimension        Dim             ....  322

ORBITAL ENERGIES
----------------

  NO   OCC          E(Eh)            E(eV)
   0   2.0000     -88.963371     -2420.8164
   1   2.0000     -88.956408     -2420.6269
   2   2.0000     -10.318577      -280.7828
   3   2.0000     -10.315847      -280.7085
   4   2.0000     -10.309540      -280.5368
   5   2.0000     -10.308491      -280.5083
   6   2.0000     -10.301730      -280.3243
   7   2.0000     -10.288889      -279.9749
   8   2.0000     -10.288028      -279.9515
   9   2.0000     -10.287600      -279.9398
  10   2.0000     -10.287205      -279.9291
  11   2.0000     -10.287127      -279.9270
  12   2.0000     -10.282305      -279.7957
  13   2.0000     -10.282174      -279.7922
  14   2.0000     -10.279054      -279.7073
  15   2.0000     -10.271540      -279.5028
  16   2.0000      -8.078300      -219.8217
  17   2.0000      -8.074132      -219.7083
  18   2.0000      -6.036799      -164.2696
  19   2.0000      -6.032933      -164.1645
  20   2.0000      -6.032560      -164.1543
  21   2.0000      -6.028918      -164.0552
  22   2.0000      -6.028131      -164.0338
  23   2.0000      -6.024847      -163.9444
  24   2.0000      -1.026989       -27.9458
  25   2.0000      -0.994873       -27.0719
  26   2.0000      -0.921394       -25.0724
  27   2.0000      -0.909608       -24.7517
  28   2.0000      -0.878085       -23.8939
  29   2.0000      -0.855327       -23.2746
  30   2.0000      -0.850863       -23.1531
  31   2.0000      -0.822183       -22.3727
  32   2.0000      -0.784805       -21.3556
  33   2.0000      -0.771285       -20.9877
  34   2.0000      -0.712415       -19.3858
  35   2.0000      -0.704457       -19.1692
  36   2.0000      -0.693886       -18.8816
  37   2.0000      -0.665704       -18.1147
  38   2.0000      -0.643029       -17.4977
  39   2.0000      -0.619101       -16.8466
  40   2.0000      -0.599258       -16.3066
  41   2.0000      -0.583598       -15.8805
  42   2.0000      -0.569789       -15.5047
  43   2.0000      -0.560364       -15.2483
  44   2.0000      -0.535882       -14.5821
  45   2.0000      -0.529512       -14.4087
  46   2.0000      -0.524025       -14.2594
  47   2.0000      -0.514982       -14.0134
  48   2.0000      -0.506017       -13.7694
  49   2.0000      -0.503932       -13.7127
  50   2.0000      -0.490420       -13.3450
  51   2.0000      -0.475371       -12.9355
  52   2.0000      -0.473437       -12.8829
  53   2.0000      -0.468837       -12.7577
  54   2.0000      -0.458830       -12.4854
  55   2.0000      -0.450604       -12.2615
  56   2.0000      -0.447563       -12.1788
  57   2.0000      -0.441650       -12.0179
  58   2.0000      -0.436837       -11.8869
  59   2.0000      -0.428300       -11.6546
  60   2.0000      -0.426930       -11.6173
  61   2.0000      -0.415847       -11.3158
  62   2.0000      -0.408631       -11.1194
  63   2.0000      -0.352022        -9.5790
  64   2.0000      -0.332880        -9.0581
  65   2.0000      -0.322946        -8.7878
  66   2.0000      -0.296256        -8.0615
  67   0.0000       0.046931         1.2771
  68   0.0000       0.070005         1.9049
  69   0.0000       0.110751         3.0137
  70   0.0000       0.128669         3.5013
  71   0.0000       0.132814         3.6141

MULLIKEN ATOMIC CHARGES
-----------------------
   0 S :    0.105966
   1 C :   -0.144586
   2 C :   -0.059695
   3 C :   -0.031686
   4 C :   -0.116550
   5 H :    0.028677
   6 C :    0.101738
   7 H :    0.021377
   8 H :    0.021132
   9 C :   -0.108122
  10 H :    0.040862
  11 H :    0.025963
  12 C :    0.006644
  13 H :    0.029533
  14 H :    0.015686
  15 H :    0.011327
  16 S :    0.106982
  17 C :   -0.101464
  18 C :   -0.058365
  19 C :   -0.036365
  20 C :   -0.140128
  21 H :    0.028366
  22 C :    0.105356
  23 H :    0.007749
  24 H :    0.013699
  25 C :   -0.065398
  26 H :    0.016961
  27 H :    0.008697
  28 C :   -0.052954
  29 H :    0.036513
  30 H :    0.033940
  31 H :    0.040144
  32 H :    0.044960
  33 H :    0.063041
Sum of atomic charges:    0.0000000

LOEWDIN ATOMIC CHARGES
----------------------
   0 S :    0.395106
   1 C :   -0.189974
   2 C :   -0.054856
   3 C :   -0.076673
   4 C :   -0.190577
   5 H :    0.040829
   6 C :   -0.021307
   7 H :    0.026305
   8 H :    0.031001
   9 C :   -0.037544
  10 H :    0.025485
  11 H :    0.021070
  12 C :   -0.058403
  13 H :    0.025061
  14 H :    0.016654
  15 H :    0.027503
  16 S :    0.444606
  17 C :   -0.195160
  18 C :   -0.075612
  19 C :   -0.067534
  20 C :   -0.227246
  21 H :    0.037393
  22 C :   -0.026088
  23 H :    0.023001
  24 H :    0.029212
  25 C :   -0.031248
  26 H :    0.017081
  27 H :    0.014292
  28 C :   -0.060368
  29 H :    0.026739
  30 H :    0.021078
  31 H :    0.029138
  32 H :    0.021862
  33 H :    0.039175

  Mayer bond orders larger than 0.100000
B(  0-S ,  1-C ) :   1.1320 B(  0-S ,  4-C ) :   1.1348 B(  1-C ,  2-C ) :   1.6104
B(  1-C ,  4-C ) :   0.1021 B(  1-C , 32-H ) :   0.9717 B(  2-C ,  3-C ) :   1.2305
B(  2-C ,  6-C ) :   1.0097 B(  3-C ,  4-C ) :   1.6543 B(  3-C ,  5-H ) :   0.9783
B(  4-C , 20-C ) :   0.9676 B(  6-C ,  7-H ) :   0.9521 B(  6-C ,  8-H ) :   0.9129
B(  6-C ,  9-C ) :   1.0681 B(  9-C , 10-H ) :   0.9636 B(  9-C , 11-H ) :   0.9490
B(  9-C , 12-C ) :   1.0898 B( 12-C , 13-H ) :   0.9719 B( 12-C , 14-H ) :   0.9728
B( 12-C , 15-H ) :   0.9705 B( 16-S , 17-C ) :   1.1532 B( 16-S , 20-C ) :   1.1600
B( 17-C , 18-C ) :   1.6344 B( 17-C , 33-H ) :   0.9650 B( 18-C , 19-C ) :   1.2072
B( 18-C , 21-H ) :   0.9895 B( 19-C , 20-C ) :   1.6331 B( 19-C , 22-C ) :   1.0700
B( 22-C , 23-H ) :   0.9335 B( 22-C , 24-H ) :   0.9175 B( 22-C , 25-C ) :   1.0587
B( 25-C , 26-H ) :   0.9548 B( 25-C , 27-H ) :   0.9532 B( 25-C , 28-C ) :   1.0825
B( 28-C , 29-H ) :   0.9772 B( 28-C , 30-H ) :   0.9784 B( 28-C , 31-H ) :   0.9754

Dispersion correction           -0.013901979
FINAL SINGLE POINT ENERGY     -1339.859560686830

DIPOLE MOMENT
-------------
                                X             Y             Z
Electronic contribution:      2.93083      10.47256     -28.78458
Nuclear contribution   :     -3.19648     -10.92391      29.36968
                        -----------------------------------------
Total Dipole Moment    :     -0.26565      -0.45135       0.58510
                        -----------------------------------------
Magnitude (a.u.)       :      0.78526
Magnitude (Debye)      :      1.99598

Rotational constants in cm-1:     0.018737     0.008546     0.006314
Rotational constants in MHz :   561.710015   256.210331   189.283359

                             ****ORCA TERMINATED NORMALLY****
TOTAL RUN TIME: 0 days 0 hours 0 minutes 32 seconds 897 msec
