                         Program Version 4.2.1 -  RELEASE  -
|  1> ! wB97X-D3 SP def2-SVP
|  2> %pal
|  3> nprocs 16
|  4> end
|  5>
|  6> * xyz 0 1
|  7> S 	 -4.77011 	 -10.6318 	 85.5857
|  8> C 	 -4.44822 	 -11.5179 	 84.1286
|  9> C 	 -3.38276 	 -12.3982 	 84.4562
| 10> C 	 -3.04571 	 -12.4886 	 85.8122
| 11> C 	 -3.69633 	 -11.519 	 86.5914
| 12> H 	 -2.24817 	 -13.1433 	 86.2245
| 13> C 	 -2.68122 	 -13.2866 	 83.4683
| 14> H 	 -3.27152 	 -13.548 	 82.6033
| 15> H 	 -2.46287 	 -14.2594 	 83.99
| 16> C 	 -1.32756 	 -12.8152 	 82.9258
| 17> H 	 -1.38958 	 -11.7667 	 82.5253
| 18> H 	 -0.554607 	 -12.8011 	 83.723
| 19> C 	 -0.914237 	 -13.7988 	 81.8324
| 20> H 	 -0.711579 	 -14.7974 	 82.1592
| 21> H 	 -1.5482 	 -13.8069 	 80.9815
| 22> H 	 0.0929027 	 -13.4114 	 81.5336
| 23> S 	 -3.86293 	 -12.4068 	 89.1225
| 24> C 	 -3.45671 	 -11.3033 	 90.5086
| 25> C 	 -2.98371 	 -10.0991 	 89.9743
| 26> C 	 -3.10393 	 -9.97571 	 88.5688
| 27> C 	 -3.44875 	 -11.1848 	 87.9646
| 28> H 	 -2.50063 	 -9.40857 	 90.6563
| 29> C 	 -2.62471 	 -8.77448 	 87.7792
| 30> H 	 -2.5058 	 -9.0446 	 86.725
| 31> H 	 -1.64481 	 -8.40773 	 88.1194
| 32> C 	 -3.68497 	 -7.64755 	 88.0028
| 33> H 	 -3.69482 	 -7.5638 	 89.0811
| 34> H 	 -4.67838 	 -7.924 	 87.771
| 35> C 	 -3.40147 	 -6.19216 	 87.4577
| 36> H 	 -3.83992 	 -5.34289 	 88.0179
| 37> H 	 -3.71183 	 -6.15045 	 86.364
| 38> H 	 -2.33969 	 -5.97574 	 87.6644
| 39> H 	 -4.69649 	 -11.3145 	 83.0944
| 40> H 	 -3.32463 	 -11.5678 	 91.4845
| 41> *
| 42>
| 43>                          ****END OF INPUT****

CARTESIAN COORDINATES (ANGSTROEM)
---------------------------------
  S     -4.770110  -10.631800   85.585700
  C     -4.448220  -11.517900   84.128600
  C     -3.382760  -12.398200   84.456200
  C     -3.045710  -12.488600   85.812200
  C     -3.696330  -11.519000   86.591400
  H     -2.248170  -13.143300   86.224500
  C     -2.681220  -13.286600   83.468300
  H     -3.271520  -13.548000   82.603300
  H     -2.462870  -14.259400   83.990000
  C     -1.327560  -12.815200   82.925800
  H     -1.389580  -11.766700   82.525300
  H     -0.554607  -12.801100   83.723000
  C     -0.914237  -13.798800   81.832400
  H     -0.711579  -14.797400   82.159200
  H     -1.548200  -13.806900   80.981500
  H      0.092903  -13.411400   81.533600
  S     -3.862930  -12.406800   89.122500
  C     -3.456710  -11.303300   90.508600
  C     -2.983710  -10.099100   89.974300
  C     -3.103930   -9.975710   88.568800
  C     -3.448750  -11.184800   87.964600
  H     -2.500630   -9.408570   90.656300
  C     -2.624710   -8.774480   87.779200
  H     -2.505800   -9.044600   86.725000
  H     -1.644810   -8.407730   88.119400
  C     -3.684970   -7.647550   88.002800
  H     -3.694820   -7.563800   89.081100
  H     -4.678380   -7.924000   87.771000
  C     -3.401470   -6.192160   87.457700
  H     -3.839920   -5.342890   88.017900
  H     -3.711830   -6.150450   86.364000
  H     -2.339690   -5.975740   87.664400
  H     -4.696490  -11.314500   83.094400
  H     -3.324630  -11.567800   91.484500

 Total Charge           Charge          ....    0
 Multiplicity           Mult            ....    1
 Number of Electrons    NEL             ....  134
 Basis Dimension        Dim             ....  322

ORBITAL ENERGIES
----------------

  NO   OCC          E(Eh)            E(eV)
   0   2.0000     -88.970644     -2421.0143
   1   2.0000     -88.967325     -2420.9240
   2   2.0000     -10.329799      -281.0881
   3   2.0000     -10.327913      -281.0368
   4   2.0000     -10.318130      -280.7706
   5   2.0000     -10.316597      -280.7289
   6   2.0000     -10.304838      -280.4089
   7   2.0000     -10.299788      -280.2715
   8   2.0000     -10.299091      -280.2525
   9   2.0000     -10.296094      -280.1710
  10   2.0000     -10.294741      -280.1342
  11   2.0000     -10.291189      -280.0375
  12   2.0000     -10.288071      -279.9527
  13   2.0000     -10.284853      -279.8651
  14   2.0000     -10.281749      -279.7806
  15   2.0000     -10.276069      -279.6260
  16   2.0000      -8.085175      -220.0088
  17   2.0000      -8.081198      -219.9006
  18   2.0000      -6.043641      -164.4558
  19   2.0000      -6.039864      -164.3531
  20   2.0000      -6.039320      -164.3383
  21   2.0000      -6.036357      -164.2576
  22   2.0000      -6.035726      -164.2405
  23   2.0000      -6.031915      -164.1368
  24   2.0000      -1.011153       -27.5149
  25   2.0000      -0.984338       -26.7852
  26   2.0000      -0.913861       -24.8674
  27   2.0000      -0.901774       -24.5385
  28   2.0000      -0.873971       -23.7820
  29   2.0000      -0.852273       -23.1915
  30   2.0000      -0.840732       -22.8775
  31   2.0000      -0.815034       -22.1782
  32   2.0000      -0.778435       -21.1823
  33   2.0000      -0.767461       -20.8837
  34   2.0000      -0.709309       -19.3013
  35   2.0000      -0.698115       -18.9967
  36   2.0000      -0.696227       -18.9453
  37   2.0000      -0.668706       -18.1964
  38   2.0000      -0.637312       -17.3421
  39   2.0000      -0.620608       -16.8876
  40   2.0000      -0.594671       -16.1818
  41   2.0000      -0.573425       -15.6037
  42   2.0000      -0.564904       -15.3718
  43   2.0000      -0.561527       -15.2799
  44   2.0000      -0.526319       -14.3219
  45   2.0000      -0.521221       -14.1831
  46   2.0000      -0.515934       -14.0393
  47   2.0000      -0.513897       -13.9838
  48   2.0000      -0.502965       -13.6864
  49   2.0000      -0.500905       -13.6303
  50   2.0000      -0.497488       -13.5373
  51   2.0000      -0.476061       -12.9543
  52   2.0000      -0.471560       -12.8318
  53   2.0000      -0.465306       -12.6616
  54   2.0000      -0.464812       -12.6482
  55   2.0000      -0.445028       -12.1098
  56   2.0000      -0.442911       -12.0522
  57   2.0000      -0.437860       -11.9148
  58   2.0000      -0.429665       -11.6918
  59   2.0000      -0.421980       -11.4827
  60   2.0000      -0.418846       -11.3974
  61   2.0000      -0.410069       -11.1585
  62   2.0000      -0.408608       -11.1188
  63   2.0000      -0.344849        -9.3838
  64   2.0000      -0.334647        -9.1062
  65   2.0000      -0.324809        -8.8385
  66   2.0000      -0.295405        -8.0384
  67   0.0000       0.024900         0.6776
  68   0.0000       0.065408         1.7799
  69   0.0000       0.104719         2.8495
  70   0.0000       0.120162         3.2698
  71   0.0000       0.129684         3.5289

MULLIKEN ATOMIC CHARGES
-----------------------
   0 S :    0.128847
   1 C :   -0.095668
   2 C :   -0.091904
   3 C :    0.022005
   4 C :   -0.153979
   5 H :    0.030564
   6 C :    0.018715
   7 H :    0.013675
   8 H :    0.029215
   9 C :   -0.087835
  10 H :    0.036197
  11 H :    0.029877
  12 C :   -0.032411
  13 H :    0.026714
  14 H :    0.031353
  15 H :    0.028519
  16 S :    0.104885
  17 C :   -0.059587
  18 C :   -0.045216
  19 C :   -0.026435
  20 C :   -0.160090
  21 H :    0.027909
  22 C :    0.084483
  23 H :    0.034000
  24 H :    0.025981
  25 C :   -0.090556
  26 H :    0.014624
  27 H :    0.021654
  28 C :   -0.060779
  29 H :    0.037865
  30 H :    0.055524
  31 H :    0.021647
  32 H :    0.053746
  33 H :    0.026462
Sum of atomic charges:    0.0000000

LOEWDIN ATOMIC CHARGES
----------------------
   0 S :    0.449510
   1 C :   -0.218098
   2 C :   -0.065128
   3 C :   -0.068983
   4 C :   -0.211340
   5 H :    0.039806
   6 C :   -0.042321
   7 H :    0.024479
   8 H :    0.035862
   9 C :   -0.040699
  10 H :    0.027314
  11 H :    0.024152
  12 C :   -0.062143
  13 H :    0.021834
  14 H :    0.019147
  15 H :    0.032377
  16 S :    0.398206
  17 C :   -0.157971
  18 C :   -0.059599
  19 C :   -0.058758
  20 C :   -0.200179
  21 H :    0.033412
  22 C :   -0.024883
  23 H :    0.024749
  24 H :    0.031004
  25 C :   -0.041408
  26 H :    0.020815
  27 H :    0.015795
  28 C :   -0.079550
  29 H :    0.029606
  30 H :    0.034112
  31 H :    0.024188
  32 H :    0.034620
  33 H :    0.010068

  Mayer bond orders larger than 0.100000
B(  0-S ,  1-C ) :   1.1509 B(  0-S ,  4-C ) :   1.1860 B(  1-C ,  2-C ) :   1.5412
B(  1-C ,  4-C ) :   0.1100 B(  1-C , 32-H ) :   0.9710 B(  2-C ,  3-C ) :   1.3096
B(  2-C ,  6-C ) :   1.0315 B(  3-C ,  4-C ) :   1.4915 B(  3-C ,  5-H ) :   0.9884
B(  4-C , 20-C ) :   1.0272 B(  6-C ,  7-H ) :   0.9487 B(  6-C ,  8-H ) :   0.9420
B(  6-C ,  9-C ) :   1.0626 B(  9-C , 10-H ) :   0.9549 B(  9-C , 11-H ) :   0.9531
B(  9-C , 12-C ) :   1.0829 B( 12-C , 13-H ) :   0.9737 B( 12-C , 14-H ) :   0.9755
B( 12-C , 15-H ) :   0.9719 B( 16-S , 17-C ) :   1.1349 B( 16-S , 20-C ) :   1.1573
B( 17-C , 18-C ) :   1.6182 B( 17-C , 20-C ) :   0.1121 B( 17-C , 33-H ) :   0.9769
B( 18-C , 19-C ) :   1.2325 B( 18-C , 21-H ) :   0.9815 B( 19-C , 20-C ) :   1.5770
B( 19-C , 22-C ) :   1.0468 B( 22-C , 23-H ) :   0.9388 B( 22-C , 24-H ) :   0.9390
B( 22-C , 25-C ) :   1.0335 B( 25-C , 26-H ) :   0.9620 B( 25-C , 27-H ) :   0.9601
B( 25-C , 28-C ) :   1.0702 B( 28-C , 29-H ) :   0.9763 B( 28-C , 30-H ) :   0.9771
B( 28-C , 31-H ) :   0.9720

Dispersion correction           -0.013954238
FINAL SINGLE POINT ENERGY     -1339.869015614664

DIPOLE MOMENT
-------------
                                X             Y             Z
Electronic contribution:    -13.13137      -8.08898      14.75930
Nuclear contribution   :     13.71825       8.22130     -14.92682
                        -----------------------------------------
Total Dipole Moment    :      0.58689       0.13232      -0.16752
                        -----------------------------------------
Magnitude (a.u.)       :      0.62451
Magnitude (Debye)      :      1.58737

Rotational constants in cm-1:     0.019416     0.007785     0.006497
Rotational constants in MHz :   582.078434   233.381150   194.783997

                             ****ORCA TERMINATED NORMALLY****
TOTAL RUN TIME: 0 days 0 hours 0 minutes 31 seconds 451 msec
