                         Program Version 4.2.1 -  RELEASE  -
|  1> ! wB97X-D3 SP def2-SVP
|  2> %pal
|  3> nprocs 16
|  4> end
|  5>
|  6> * xyz 0 1
|  7> S 	 -49.037 	 8.44619 	 92.2917
|  8> C 	 -48.3544 	 9.9724 	 92.8372
|  9> C 	 -48.7935 	 11.019 	 92.1402
| 10> C 	 -49.6745 	 10.6547 	 91.0886
| 11> C 	 -49.9332 	 9.31139 	 91.0266
| 12> H 	 -50.1538 	 11.3512 	 90.401
| 13> C 	 -48.145 	 12.4254 	 92.2422
| 14> H 	 -48.2668 	 12.6754 	 93.2944
| 15> H 	 -48.8893 	 13.0803 	 91.6097
| 16> C 	 -46.6867 	 12.631 	 91.9954
| 17> H 	 -46.3824 	 13.669 	 92.0595
| 18> H 	 -46.1486 	 12.0839 	 92.6656
| 19> C 	 -46.4496 	 12.2882 	 90.5135
| 20> H 	 -46.579 	 11.2869 	 90.2873
| 21> H 	 -46.9297 	 12.9828 	 89.8358
| 22> H 	 -45.3945 	 12.4005 	 90.3264
| 23> S 	 -50.3956 	 8.96163 	 88.2748
| 24> C 	 -51.9068 	 8.08536 	 87.7461
| 25> C 	 -52.5323 	 7.5375 	 88.8385
| 26> C 	 -51.8912 	 7.86604 	 90.0629
| 27> C 	 -50.7784 	 8.73304 	 89.9716
| 28> H 	 -53.4148 	 6.98248 	 88.7578
| 29> C 	 -52.4209 	 7.33259 	 91.3908
| 30> H 	 -53.4807 	 6.99945 	 91.28
| 31> H 	 -52.3343 	 8.10497 	 92.1698
| 32> C 	 -51.6282 	 6.10189 	 91.8715
| 33> H 	 -50.6431 	 6.43142 	 91.5675
| 34> H 	 -51.7803 	 5.27289 	 91.2163
| 35> C 	 -51.7316 	 5.75784 	 93.3393
| 36> H 	 -52.7044 	 5.36753 	 93.4826
| 37> H 	 -51.8709 	 6.52926 	 94.0433
| 38> H 	 -51.0142 	 5.00508 	 93.5878
| 39> H 	 -47.6171 	 10.1204 	 93.6057
| 40> H 	 -52.35 	 8.13488 	 86.7575
| 41> *
| 42>
| 43>                          ****END OF INPUT****

CARTESIAN COORDINATES (ANGSTROEM)
---------------------------------
  S    -49.037000    8.446190   92.291700
  C    -48.354400    9.972400   92.837200
  C    -48.793500   11.019000   92.140200
  C    -49.674500   10.654700   91.088600
  C    -49.933200    9.311390   91.026600
  H    -50.153800   11.351200   90.401000
  C    -48.145000   12.425400   92.242200
  H    -48.266800   12.675400   93.294400
  H    -48.889300   13.080300   91.609700
  C    -46.686700   12.631000   91.995400
  H    -46.382400   13.669000   92.059500
  H    -46.148600   12.083900   92.665600
  C    -46.449600   12.288200   90.513500
  H    -46.579000   11.286900   90.287300
  H    -46.929700   12.982800   89.835800
  H    -45.394500   12.400500   90.326400
  S    -50.395600    8.961630   88.274800
  C    -51.906800    8.085360   87.746100
  C    -52.532300    7.537500   88.838500
  C    -51.891200    7.866040   90.062900
  C    -50.778400    8.733040   89.971600
  H    -53.414800    6.982480   88.757800
  C    -52.420900    7.332590   91.390800
  H    -53.480700    6.999450   91.280000
  H    -52.334300    8.104970   92.169800
  C    -51.628200    6.101890   91.871500
  H    -50.643100    6.431420   91.567500
  H    -51.780300    5.272890   91.216300
  C    -51.731600    5.757840   93.339300
  H    -52.704400    5.367530   93.482600
  H    -51.870900    6.529260   94.043300
  H    -51.014200    5.005080   93.587800
  H    -47.617100   10.120400   93.605700
  H    -52.350000    8.134880   86.757500

 Total Charge           Charge          ....    0
 Multiplicity           Mult            ....    1
 Number of Electrons    NEL             ....  134
 Basis Dimension        Dim             ....  322

ORBITAL ENERGIES
----------------

  NO   OCC          E(Eh)            E(eV)
   0   2.0000     -88.971081     -2421.0262
   1   2.0000     -88.966288     -2420.8958
   2   2.0000     -10.332279      -281.1556
   3   2.0000     -10.330400      -281.1045
   4   2.0000     -10.322417      -280.8872
   5   2.0000     -10.310071      -280.5513
   6   2.0000     -10.302005      -280.3318
   7   2.0000     -10.296569      -280.1839
   8   2.0000     -10.294394      -280.1247
   9   2.0000     -10.293584      -280.1027
  10   2.0000     -10.291890      -280.0566
  11   2.0000     -10.289064      -279.9797
  12   2.0000     -10.280068      -279.7349
  13   2.0000     -10.274764      -279.5906
  14   2.0000     -10.264529      -279.3120
  15   2.0000     -10.264060      -279.2993
  16   2.0000      -8.084465      -219.9895
  17   2.0000      -8.079597      -219.8570
  18   2.0000      -6.043144      -164.4423
  19   2.0000      -6.039182      -164.3345
  20   2.0000      -6.038283      -164.3100
  21   2.0000      -6.035088      -164.2231
  22   2.0000      -6.034285      -164.2012
  23   2.0000      -6.030260      -164.0917
  24   2.0000      -1.005137       -27.3512
  25   2.0000      -0.981448       -26.7066
  26   2.0000      -0.916663       -24.9437
  27   2.0000      -0.906110       -24.6565
  28   2.0000      -0.873261       -23.7627
  29   2.0000      -0.849766       -23.1233
  30   2.0000      -0.844085       -22.9687
  31   2.0000      -0.818599       -22.2752
  32   2.0000      -0.782939       -21.3049
  33   2.0000      -0.770255       -20.9597
  34   2.0000      -0.709904       -19.3175
  35   2.0000      -0.707628       -19.2555
  36   2.0000      -0.693281       -18.8651
  37   2.0000      -0.666208       -18.1284
  38   2.0000      -0.637664       -17.3517
  39   2.0000      -0.609657       -16.5896
  40   2.0000      -0.592177       -16.1140
  41   2.0000      -0.580817       -15.8048
  42   2.0000      -0.560852       -15.2616
  43   2.0000      -0.554113       -15.0782
  44   2.0000      -0.550968       -14.9926
  45   2.0000      -0.530461       -14.4346
  46   2.0000      -0.515589       -14.0299
  47   2.0000      -0.511049       -13.9063
  48   2.0000      -0.505099       -13.7444
  49   2.0000      -0.501050       -13.6343
  50   2.0000      -0.486440       -13.2367
  51   2.0000      -0.478444       -13.0191
  52   2.0000      -0.475520       -12.9396
  53   2.0000      -0.465633       -12.6705
  54   2.0000      -0.460866       -12.5408
  55   2.0000      -0.449754       -12.2384
  56   2.0000      -0.439980       -11.9725
  57   2.0000      -0.437750       -11.9118
  58   2.0000      -0.433715       -11.8020
  59   2.0000      -0.422652       -11.5010
  60   2.0000      -0.419639       -11.4190
  61   2.0000      -0.407916       -11.1000
  62   2.0000      -0.396380       -10.7861
  63   2.0000      -0.345413        -9.3992
  64   2.0000      -0.336709        -9.1623
  65   2.0000      -0.326804        -8.8928
  66   2.0000      -0.296160        -8.0589
  67   0.0000       0.027049         0.7360
  68   0.0000       0.066108         1.7989
  69   0.0000       0.106015         2.8848
  70   0.0000       0.110861         3.0167
  71   0.0000       0.130599         3.5538

MULLIKEN ATOMIC CHARGES
-----------------------
   0 S :    0.108377
   1 C :   -0.112785
   2 C :   -0.063700
   3 C :    0.001533
   4 C :   -0.132538
   5 H :    0.021438
   6 C :    0.015881
   7 H :    0.023999
   8 H :    0.036349
   9 C :    0.010128
  10 H :    0.030525
  11 H :    0.001349
  12 C :   -0.033047
  13 H :    0.027649
  14 H :    0.030695
  15 H :    0.009981
  16 S :    0.096928
  17 C :   -0.103852
  18 C :    0.010038
  19 C :   -0.066890
  20 C :   -0.155150
  21 H :    0.002634
  22 C :    0.042409
  23 H :    0.021660
  24 H :    0.033566
  25 C :   -0.057730
  26 H :    0.000984
  27 H :    0.012186
  28 C :    0.034899
  29 H :    0.000009
  30 H :    0.013234
  31 H :    0.039793
  32 H :    0.035288
  33 H :    0.064161
Sum of atomic charges:   -0.0000000

LOEWDIN ATOMIC CHARGES
----------------------
   0 S :    0.403108
   1 C :   -0.184401
   2 C :   -0.073126
   3 C :   -0.055827
   4 C :   -0.187714
   5 H :    0.034490
   6 C :   -0.034762
   7 H :    0.027864
   8 H :    0.037630
   9 C :   -0.028430
  10 H :    0.032273
  11 H :    0.010699
  12 C :   -0.056245
  13 H :    0.016678
  14 H :    0.026683
  15 H :    0.021825
  16 S :    0.380102
  17 C :   -0.164522
  18 C :   -0.060854
  19 C :   -0.057980
  20 C :   -0.196476
  21 H :    0.026040
  22 C :   -0.032791
  23 H :    0.026812
  24 H :    0.030064
  25 C :   -0.041307
  26 H :    0.004445
  27 H :    0.020288
  28 C :   -0.061847
  29 H :    0.024249
  30 H :    0.023521
  31 H :    0.030037
  32 H :    0.026984
  33 H :    0.032490

  Mayer bond orders larger than 0.100000
B(  0-S ,  1-C ) :   1.1196 B(  0-S ,  4-C ) :   1.1233 B(  1-C ,  2-C ) :   1.6543
B(  1-C , 32-H ) :   0.9656 B(  2-C ,  3-C ) :   1.2259 B(  2-C ,  6-C ) :   1.0020
B(  3-C ,  4-C ) :   1.5881 B(  3-C ,  5-H ) :   0.9949 B(  4-C , 20-C ) :   1.0544
B(  6-C ,  7-H ) :   0.9312 B(  6-C ,  8-H ) :   0.9472 B(  6-C ,  9-C ) :   1.0920
B(  9-C , 10-H ) :   0.9491 B(  9-C , 11-H ) :   0.9449 B(  9-C , 12-C ) :   1.0845
B( 12-C , 13-H ) :   0.9768 B( 12-C , 14-H ) :   0.9757 B( 12-C , 15-H ) :   0.9711
B( 16-S , 17-C ) :   1.1400 B( 16-S , 20-C ) :   1.1346 B( 17-C , 18-C ) :   1.5962
B( 17-C , 20-C ) :   0.1023 B( 17-C , 33-H ) :   0.9654 B( 18-C , 19-C ) :   1.2650
B( 18-C , 21-H ) :   0.9963 B( 19-C , 20-C ) :   1.5593 B( 19-C , 22-C ) :   1.0639
B( 22-C , 23-H ) :   0.9364 B( 22-C , 24-H ) :   0.9329 B( 22-C , 25-C ) :   1.0506
B( 25-C , 26-H ) :   0.9547 B( 25-C , 27-H ) :   0.9485 B( 25-C , 28-C ) :   1.0779
B( 28-C , 29-H ) :   0.9606 B( 28-C , 30-H ) :   0.9693 B( 28-C , 31-H ) :   0.9721

Dispersion correction           -0.015107775
FINAL SINGLE POINT ENERGY     -1339.853233600636

DIPOLE MOMENT
-------------
                                X             Y             Z
Electronic contribution:     -3.09464      -3.72636      -9.87066
Nuclear contribution   :      3.03063       3.93221      10.05956
                        -----------------------------------------
Total Dipole Moment    :     -0.06401       0.20585       0.18890
                        -----------------------------------------
Magnitude (a.u.)       :      0.28662
Magnitude (Debye)      :      0.72854

Rotational constants in cm-1:     0.020713     0.009028     0.006753
Rotational constants in MHz :   620.970614   270.644363   202.453808

                             ****ORCA TERMINATED NORMALLY****
TOTAL RUN TIME: 0 days 0 hours 0 minutes 31 seconds 203 msec
