                         Program Version 4.2.1 -  RELEASE  -
|  1> ! wB97X-D3 SP def2-SVP
|  2> %pal
|  3> nprocs 16
|  4> end
|  5>
|  6> * xyz 0 1
|  7> S 	 6.47371 	 -2.9539 	 99.3105
|  8> C 	 5.16182 	 -4.02739 	 99.4622
|  9> C 	 5.00944 	 -4.8311 	 98.3828
| 10> C 	 6.03774 	 -4.63076 	 97.4509
| 11> C 	 6.84295 	 -3.48142 	 97.7027
| 12> H 	 6.06733 	 -5.15635 	 96.503
| 13> C 	 3.9677 	 -5.92285 	 98.2193
| 14> H 	 3.43428 	 -5.68985 	 97.3409
| 15> H 	 3.25476 	 -5.9019 	 99.1026
| 16> C 	 4.51446 	 -7.3715 	 98.0854
| 17> H 	 3.60158 	 -7.99807 	 98.1486
| 18> H 	 4.90378 	 -7.53372 	 97.1088
| 19> C 	 5.57706 	 -7.73329 	 99.1225
| 20> H 	 6.43861 	 -7.07228 	 99.1238
| 21> H 	 5.18078 	 -7.9282 	 100.088
| 22> H 	 6.02908 	 -8.68598 	 98.8114
| 23> S 	 9.19103 	 -2.13648 	 97.3546
| 24> C 	 9.86435 	 -1.97062 	 95.7639
| 25> C 	 8.88839 	 -2.16823 	 94.7472
| 26> C 	 7.77229 	 -2.89636 	 95.2987
| 27> C 	 7.82963 	 -2.96278 	 96.7178
| 28> H 	 9.06314 	 -1.91787 	 93.7342
| 29> C 	 6.53962 	 -3.17759 	 94.3994
| 30> H 	 6.0748 	 -4.10052 	 94.5478
| 31> H 	 6.93497 	 -3.33535 	 93.4134
| 32> C 	 5.55393 	 -1.99582 	 94.3676
| 33> H 	 6.1338 	 -1.07524 	 94.1058
| 34> H 	 5.11892 	 -1.79022 	 95.3636
| 35> C 	 4.35132 	 -2.28439 	 93.4939
| 36> H 	 3.69964 	 -1.403 	 93.5323
| 37> H 	 3.79202 	 -3.21472 	 93.6917
| 38> H 	 4.607 	 -2.3404 	 92.4255
| 39> H 	 4.58261 	 -4.17562 	 100.345
| 40> H 	 10.8343 	 -1.52073 	 95.5725
| 41> *
| 42>
| 43>                          ****END OF INPUT****

CARTESIAN COORDINATES (ANGSTROEM)
---------------------------------
  S      6.473710   -2.953900   99.310500
  C      5.161820   -4.027390   99.462200
  C      5.009440   -4.831100   98.382800
  C      6.037740   -4.630760   97.450900
  C      6.842950   -3.481420   97.702700
  H      6.067330   -5.156350   96.503000
  C      3.967700   -5.922850   98.219300
  H      3.434280   -5.689850   97.340900
  H      3.254760   -5.901900   99.102600
  C      4.514460   -7.371500   98.085400
  H      3.601580   -7.998070   98.148600
  H      4.903780   -7.533720   97.108800
  C      5.577060   -7.733290   99.122500
  H      6.438610   -7.072280   99.123800
  H      5.180780   -7.928200  100.088000
  H      6.029080   -8.685980   98.811400
  S      9.191030   -2.136480   97.354600
  C      9.864350   -1.970620   95.763900
  C      8.888390   -2.168230   94.747200
  C      7.772290   -2.896360   95.298700
  C      7.829630   -2.962780   96.717800
  H      9.063140   -1.917870   93.734200
  C      6.539620   -3.177590   94.399400
  H      6.074800   -4.100520   94.547800
  H      6.934970   -3.335350   93.413400
  C      5.553930   -1.995820   94.367600
  H      6.133800   -1.075240   94.105800
  H      5.118920   -1.790220   95.363600
  C      4.351320   -2.284390   93.493900
  H      3.699640   -1.403000   93.532300
  H      3.792020   -3.214720   93.691700
  H      4.607000   -2.340400   92.425500
  H      4.582610   -4.175620  100.345000
  H     10.834300   -1.520730   95.572500

 Total Charge           Charge          ....    0
 Multiplicity           Mult            ....    1
 Number of Electrons    NEL             ....  134
 Basis Dimension        Dim             ....  322

ORBITAL ENERGIES
----------------

  NO   OCC          E(Eh)            E(eV)
   0   2.0000     -88.969817     -2420.9918
   1   2.0000     -88.968306     -2420.9507
   2   2.0000     -10.333135      -281.1789
   3   2.0000     -10.331835      -281.1435
   4   2.0000     -10.320743      -280.8417
   5   2.0000     -10.310769      -280.5703
   6   2.0000     -10.302230      -280.3379
   7   2.0000     -10.300261      -280.2843
   8   2.0000     -10.291564      -280.0477
   9   2.0000     -10.289986      -280.0048
  10   2.0000     -10.288542      -279.9655
  11   2.0000     -10.287771      -279.9445
  12   2.0000     -10.287687      -279.9422
  13   2.0000     -10.286377      -279.9065
  14   2.0000     -10.279046      -279.7070
  15   2.0000     -10.270538      -279.4756
  16   2.0000      -8.085347      -220.0135
  17   2.0000      -8.083724      -219.9693
  18   2.0000      -6.043627      -164.4555
  19   2.0000      -6.042206      -164.4168
  20   2.0000      -6.039875      -164.3533
  21   2.0000      -6.038038      -164.3034
  22   2.0000      -6.036191      -164.2531
  23   2.0000      -6.034601      -164.2098
  24   2.0000      -1.009523       -27.4705
  25   2.0000      -0.989205       -26.9176
  26   2.0000      -0.910206       -24.7680
  27   2.0000      -0.907924       -24.7059
  28   2.0000      -0.865554       -23.5529
  29   2.0000      -0.851889       -23.1811
  30   2.0000      -0.845904       -23.0182
  31   2.0000      -0.809215       -22.0199
  32   2.0000      -0.784887       -21.3579
  33   2.0000      -0.774383       -21.0720
  34   2.0000      -0.704197       -19.1622
  35   2.0000      -0.697225       -18.9725
  36   2.0000      -0.691800       -18.8248
  37   2.0000      -0.667206       -18.1556
  38   2.0000      -0.634406       -17.2631
  39   2.0000      -0.620459       -16.8835
  40   2.0000      -0.596285       -16.2258
  41   2.0000      -0.568774       -15.4771
  42   2.0000      -0.557967       -15.1831
  43   2.0000      -0.555955       -15.1283
  44   2.0000      -0.538984       -14.6665
  45   2.0000      -0.527571       -14.3559
  46   2.0000      -0.514719       -14.0062
  47   2.0000      -0.509084       -13.8529
  48   2.0000      -0.500850       -13.6288
  49   2.0000      -0.498376       -13.5615
  50   2.0000      -0.487062       -13.2536
  51   2.0000      -0.483840       -13.1659
  52   2.0000      -0.470038       -12.7904
  53   2.0000      -0.466660       -12.6985
  54   2.0000      -0.462037       -12.5727
  55   2.0000      -0.451598       -12.2886
  56   2.0000      -0.443498       -12.0682
  57   2.0000      -0.438550       -11.9335
  58   2.0000      -0.432777       -11.7765
  59   2.0000      -0.424396       -11.5484
  60   2.0000      -0.420656       -11.4466
  61   2.0000      -0.417105       -11.3500
  62   2.0000      -0.409482       -11.1426
  63   2.0000      -0.353208        -9.6113
  64   2.0000      -0.334124        -9.0920
  65   2.0000      -0.328854        -8.9486
  66   2.0000      -0.279612        -7.6086
  67   0.0000       0.021590         0.5875
  68   0.0000       0.076430         2.0798
  69   0.0000       0.106286         2.8922
  70   0.0000       0.120154         3.2696
  71   0.0000       0.132473         3.6048

MULLIKEN ATOMIC CHARGES
-----------------------
   0 S :    0.122159
   1 C :   -0.114863
   2 C :   -0.099057
   3 C :   -0.004930
   4 C :   -0.113772
   5 H :    0.004412
   6 C :    0.085329
   7 H :    0.023400
   8 H :    0.023601
   9 C :   -0.081328
  10 H :    0.033899
  11 H :    0.018706
  12 C :   -0.026992
  13 H :    0.047821
  14 H :    0.024813
  15 H :    0.020461
  16 S :    0.119472
  17 C :   -0.101085
  18 C :   -0.027396
  19 C :   -0.057390
  20 C :   -0.148732
  21 H :    0.016553
  22 C :    0.102100
  23 H :   -0.008615
  24 H :    0.002673
  25 C :   -0.073396
  26 H :    0.032637
  27 H :    0.040740
  28 C :   -0.048852
  29 H :    0.035240
  30 H :    0.039895
  31 H :    0.020262
  32 H :    0.032129
  33 H :    0.060108
Sum of atomic charges:    0.0000000

LOEWDIN ATOMIC CHARGES
----------------------
   0 S :    0.431547
   1 C :   -0.213934
   2 C :   -0.071708
   3 C :   -0.069653
   4 C :   -0.201273
   5 H :    0.024659
   6 C :   -0.027756
   7 H :    0.025677
   8 H :    0.032497
   9 C :   -0.038016
  10 H :    0.030198
  11 H :    0.016094
  12 C :   -0.063716
  13 H :    0.030503
  14 H :    0.019656
  15 H :    0.028936
  16 S :    0.433825
  17 C :   -0.192458
  18 C :   -0.058707
  19 C :   -0.051298
  20 C :   -0.206613
  21 H :    0.026726
  22 C :   -0.027005
  23 H :    0.015117
  24 H :    0.026428
  25 C :   -0.039790
  26 H :    0.030465
  27 H :    0.030422
  28 C :   -0.072214
  29 H :    0.029829
  30 H :    0.028748
  31 H :    0.021814
  32 H :    0.024820
  33 H :    0.026181

  Mayer bond orders larger than 0.100000
B(  0-S ,  1-C ) :   1.1475 B(  0-S ,  4-C ) :   1.1687 B(  1-C ,  2-C ) :   1.5917
B(  1-C , 32-H ) :   0.9641 B(  2-C ,  3-C ) :   1.2918 B(  2-C ,  6-C ) :   1.0240
B(  3-C ,  4-C ) :   1.5109 B(  3-C ,  5-H ) :   0.9918 B(  4-C , 20-C ) :   1.0732
B(  6-C ,  7-H ) :   0.9311 B(  6-C ,  8-H ) :   0.9458 B(  6-C ,  9-C ) :   1.0717
B(  9-C , 10-H ) :   0.9569 B(  9-C , 11-H ) :   0.9535 B(  9-C , 12-C ) :   1.0859
B( 12-C , 13-H ) :   0.9682 B( 12-C , 14-H ) :   0.9776 B( 12-C , 15-H ) :   0.9708
B( 16-S , 17-C ) :   1.1804 B( 16-S , 20-C ) :   1.1612 B( 17-C , 18-C ) :   1.5615
B( 17-C , 20-C ) :   0.1044 B( 17-C , 33-H ) :   0.9702 B( 18-C , 19-C ) :   1.2748
B( 18-C , 21-H ) :   0.9930 B( 19-C , 20-C ) :   1.5340 B( 19-C , 22-C ) :   1.0472
B( 22-C , 23-H ) :   0.9353 B( 22-C , 24-H ) :   0.9267 B( 22-C , 25-C ) :   1.0582
B( 25-C , 26-H ) :   0.9524 B( 25-C , 27-H ) :   0.9572 B( 25-C , 28-C ) :   1.0809
B( 28-C , 29-H ) :   0.9721 B( 28-C , 30-H ) :   0.9730 B( 28-C , 31-H ) :   0.9730

Dispersion correction           -0.014738902
FINAL SINGLE POINT ENERGY     -1339.873633096507

DIPOLE MOMENT
-------------
                                X             Y             Z
Electronic contribution:     18.00846      14.27823      12.80073
Nuclear contribution   :    -18.33865     -14.48855     -13.30775
                        -----------------------------------------
Total Dipole Moment    :     -0.33018      -0.21032      -0.50703
                        -----------------------------------------
Magnitude (a.u.)       :      0.64057
Magnitude (Debye)      :      1.62821

Rotational constants in cm-1:     0.017645     0.009280     0.007368
Rotational constants in MHz :   528.984957   278.217065   220.884935

                             ****ORCA TERMINATED NORMALLY****
TOTAL RUN TIME: 0 days 0 hours 0 minutes 34 seconds 643 msec
