                         Program Version 4.2.1 -  RELEASE  -
|  1> ! wB97X-D3 SP def2-SVP
|  2> %pal
|  3> nprocs 16
|  4> end
|  5>
|  6> * xyz 0 1
|  7> S 	 -43.3536 	 24.4225 	 90.8085
|  8> C 	 -43.3038 	 22.7466 	 91.1862
|  9> C 	 -42.0167 	 22.1766 	 90.9484
| 10> C 	 -41.1119 	 23.178 	 90.5896
| 11> C 	 -41.7358 	 24.3436 	 90.2651
| 12> H 	 -40.0814 	 22.9996 	 90.3097
| 13> C 	 -41.7094 	 20.6927 	 91.1071
| 14> H 	 -42.2462 	 20.3714 	 91.9823
| 15> H 	 -40.6397 	 20.5676 	 91.3673
| 16> C 	 -42.0641 	 19.8008 	 89.9357
| 17> H 	 -41.8335 	 18.7178 	 90.1512
| 18> H 	 -43.0995 	 19.6768 	 89.8725
| 19> C 	 -41.532 	 20.2209 	 88.5864
| 20> H 	 -41.7306 	 21.2625 	 88.3579
| 21> H 	 -40.4772 	 20.1348 	 88.4944
| 22> H 	 -41.9391 	 19.6665 	 87.765
| 23> S 	 -41.5736 	 25.9754 	 88.0488
| 24> C 	 -40.3882 	 27.2828 	 88.0718
| 25> C 	 -39.7128 	 27.3961 	 89.2516
| 26> C 	 -40.1493 	 26.3771 	 90.2201
| 27> C 	 -41.0551 	 25.5111 	 89.6793
| 28> H 	 -38.9828 	 28.1456 	 89.3391
| 29> C 	 -39.5126 	 26.279 	 91.5922
| 30> H 	 -39.3067 	 25.247 	 91.6973
| 31> H 	 -40.266 	 26.548 	 92.2983
| 32> C 	 -38.2495 	 27.1234 	 91.9024
| 33> H 	 -38.0051 	 27.0103 	 92.9505
| 34> H 	 -38.5432 	 28.1567 	 91.8863
| 35> C 	 -37.0065 	 26.8946 	 91.0247
| 36> H 	 -36.2347 	 27.6573 	 91.2474
| 37> H 	 -37.1968 	 26.9962 	 89.986
| 38> H 	 -36.4678 	 25.975 	 91.1309
| 39> H 	 -44.1021 	 22.2397 	 91.6536
| 40> H 	 -40.223 	 28.1003 	 87.3499
| 41> *
| 42>
| 43>                          ****END OF INPUT****

CARTESIAN COORDINATES (ANGSTROEM)
---------------------------------
  S    -43.353600   24.422500   90.808500
  C    -43.303800   22.746600   91.186200
  C    -42.016700   22.176600   90.948400
  C    -41.111900   23.178000   90.589600
  C    -41.735800   24.343600   90.265100
  H    -40.081400   22.999600   90.309700
  C    -41.709400   20.692700   91.107100
  H    -42.246200   20.371400   91.982300
  H    -40.639700   20.567600   91.367300
  C    -42.064100   19.800800   89.935700
  H    -41.833500   18.717800   90.151200
  H    -43.099500   19.676800   89.872500
  C    -41.532000   20.220900   88.586400
  H    -41.730600   21.262500   88.357900
  H    -40.477200   20.134800   88.494400
  H    -41.939100   19.666500   87.765000
  S    -41.573600   25.975400   88.048800
  C    -40.388200   27.282800   88.071800
  C    -39.712800   27.396100   89.251600
  C    -40.149300   26.377100   90.220100
  C    -41.055100   25.511100   89.679300
  H    -38.982800   28.145600   89.339100
  C    -39.512600   26.279000   91.592200
  H    -39.306700   25.247000   91.697300
  H    -40.266000   26.548000   92.298300
  C    -38.249500   27.123400   91.902400
  H    -38.005100   27.010300   92.950500
  H    -38.543200   28.156700   91.886300
  C    -37.006500   26.894600   91.024700
  H    -36.234700   27.657300   91.247400
  H    -37.196800   26.996200   89.986000
  H    -36.467800   25.975000   91.130900
  H    -44.102100   22.239700   91.653600
  H    -40.223000   28.100300   87.349900

 Total Charge           Charge          ....    0
 Multiplicity           Mult            ....    1
 Number of Electrons    NEL             ....  134
 Basis Dimension        Dim             ....  322

ORBITAL ENERGIES
----------------

  NO   OCC          E(Eh)            E(eV)
   0   2.0000     -88.969898     -2420.9940
   1   2.0000     -88.962973     -2420.8056
   2   2.0000     -10.320848      -280.8445
   3   2.0000     -10.320621      -280.8384
   4   2.0000     -10.314323      -280.6670
   5   2.0000     -10.309471      -280.5350
   6   2.0000     -10.302728      -280.3515
   7   2.0000     -10.301217      -280.3104
   8   2.0000     -10.291468      -280.0451
   9   2.0000     -10.288494      -279.9642
  10   2.0000     -10.288264      -279.9579
  11   2.0000     -10.287849      -279.9466
  12   2.0000     -10.284372      -279.8520
  13   2.0000     -10.281427      -279.7719
  14   2.0000     -10.274693      -279.5886
  15   2.0000     -10.265396      -279.3356
  16   2.0000      -8.085596      -220.0203
  17   2.0000      -8.077134      -219.7900
  18   2.0000      -6.043774      -164.4594
  19   2.0000      -6.039965      -164.3558
  20   2.0000      -6.036673      -164.2662
  21   2.0000      -6.035786      -164.2421
  22   2.0000      -6.031833      -164.1345
  23   2.0000      -6.027680      -164.0215
  24   2.0000      -1.010757       -27.5041
  25   2.0000      -0.982245       -26.7282
  26   2.0000      -0.913069       -24.8459
  27   2.0000      -0.905647       -24.6439
  28   2.0000      -0.866654       -23.5829
  29   2.0000      -0.854813       -23.2607
  30   2.0000      -0.843123       -22.9426
  31   2.0000      -0.818075       -22.2610
  32   2.0000      -0.789305       -21.4781
  33   2.0000      -0.774190       -21.0668
  34   2.0000      -0.710050       -19.3214
  35   2.0000      -0.705641       -19.2015
  36   2.0000      -0.692235       -18.8367
  37   2.0000      -0.655717       -17.8430
  38   2.0000      -0.645626       -17.5684
  39   2.0000      -0.616857       -16.7855
  40   2.0000      -0.587808       -15.9951
  41   2.0000      -0.569886       -15.5074
  42   2.0000      -0.555715       -15.1218
  43   2.0000      -0.555019       -15.1028
  44   2.0000      -0.543549       -14.7907
  45   2.0000      -0.533698       -14.5227
  46   2.0000      -0.516817       -14.0633
  47   2.0000      -0.507603       -13.8126
  48   2.0000      -0.504443       -13.7266
  49   2.0000      -0.498598       -13.5675
  50   2.0000      -0.483589       -13.1591
  51   2.0000      -0.474741       -12.9184
  52   2.0000      -0.472225       -12.8499
  53   2.0000      -0.467962       -12.7339
  54   2.0000      -0.457376       -12.4458
  55   2.0000      -0.446824       -12.1587
  56   2.0000      -0.444300       -12.0900
  57   2.0000      -0.443783       -12.0759
  58   2.0000      -0.440720       -11.9926
  59   2.0000      -0.433467       -11.7952
  60   2.0000      -0.424642       -11.5551
  61   2.0000      -0.411247       -11.1906
  62   2.0000      -0.406707       -11.0670
  63   2.0000      -0.341702        -9.2982
  64   2.0000      -0.329214        -8.9584
  65   2.0000      -0.325544        -8.8585
  66   2.0000      -0.298198        -8.1144
  67   0.0000       0.042731         1.1628
  68   0.0000       0.062964         1.7133
  69   0.0000       0.115356         3.1390
  70   0.0000       0.118228         3.2171
  71   0.0000       0.135573         3.6891

MULLIKEN ATOMIC CHARGES
-----------------------
   0 S :    0.148169
   1 C :   -0.112880
   2 C :   -0.114662
   3 C :    0.045337
   4 C :   -0.183541
   5 H :    0.016263
   6 C :    0.091408
   7 H :    0.018005
   8 H :    0.024635
   9 C :   -0.041672
  10 H :    0.023754
  11 H :    0.004079
  12 C :   -0.028580
  13 H :    0.037230
  14 H :    0.014670
  15 H :    0.023891
  16 S :    0.105688
  17 C :   -0.075833
  18 C :   -0.046185
  19 C :   -0.041128
  20 C :   -0.200593
  21 H :    0.006941
  22 C :    0.134360
  23 H :    0.014517
  24 H :    0.030146
  25 C :   -0.060423
  26 H :    0.024758
  27 H :    0.019751
  28 C :   -0.041931
  29 H :    0.028754
  30 H :    0.021329
  31 H :    0.027357
  32 H :    0.031918
  33 H :    0.054470
Sum of atomic charges:   -0.0000000

LOEWDIN ATOMIC CHARGES
----------------------
   0 S :    0.450491
   1 C :   -0.207238
   2 C :   -0.057629
   3 C :   -0.062520
   4 C :   -0.214131
   5 H :    0.033685
   6 C :   -0.029837
   7 H :    0.030926
   8 H :    0.031904
   9 C :   -0.043784
  10 H :    0.031175
  11 H :    0.015530
  12 C :   -0.063013
  13 H :    0.028810
  14 H :    0.018644
  15 H :    0.025953
  16 S :    0.381847
  17 C :   -0.183793
  18 C :   -0.070229
  19 C :   -0.046619
  20 C :   -0.199581
  21 H :    0.023026
  22 C :   -0.026285
  23 H :    0.026899
  24 H :    0.035779
  25 C :   -0.039064
  26 H :    0.028717
  27 H :    0.022205
  28 C :   -0.067964
  29 H :    0.032287
  30 H :    0.018715
  31 H :    0.023448
  32 H :    0.015427
  33 H :    0.036221

  Mayer bond orders larger than 0.100000
B(  0-S ,  1-C ) :   1.1671 B(  0-S ,  4-C ) :   1.1878 B(  1-C ,  2-C ) :   1.5516
B(  1-C ,  4-C ) :   0.1084 B(  1-C , 32-H ) :   0.9755 B(  2-C ,  3-C ) :   1.2895
B(  2-C ,  6-C ) :   1.0183 B(  3-C ,  4-C ) :   1.5582 B(  3-C ,  5-H ) :   0.9880
B(  4-C , 20-C ) :   1.0079 B(  6-C ,  7-H ) :   0.9331 B(  6-C ,  8-H ) :   0.9440
B(  6-C ,  9-C ) :   1.0798 B(  9-C , 10-H ) :   0.9484 B(  9-C , 11-H ) :   0.9494
B(  9-C , 12-C ) :   1.0829 B( 12-C , 13-H ) :   0.9702 B( 12-C , 14-H ) :   0.9751
B( 12-C , 15-H ) :   0.9706 B( 16-S , 17-C ) :   1.1289 B( 16-S , 20-C ) :   1.1189
B( 17-C , 18-C ) :   1.6831 B( 17-C , 33-H ) :   0.9529 B( 18-C , 19-C ) :   1.1829
B( 18-C , 21-H ) :   0.9863 B( 19-C , 20-C ) :   1.6706 B( 19-C , 22-C ) :   1.0191
B( 22-C , 23-H ) :   0.9314 B( 22-C , 24-H ) :   0.9155 B( 22-C , 25-C ) :   1.0936
B( 25-C , 26-H ) :   0.9506 B( 25-C , 27-H ) :   0.9476 B( 25-C , 28-C ) :   1.0743
B( 28-C , 29-H ) :   0.9715 B( 28-C , 30-H ) :   0.9755 B( 28-C , 31-H ) :   0.9739

Dispersion correction           -0.014776385
FINAL SINGLE POINT ENERGY     -1339.877614759280

DIPOLE MOMENT
-------------
                                X             Y             Z
Electronic contribution:    -16.87999      10.55737      -5.45403
Nuclear contribution   :     17.26838     -10.68299       5.79912
                        -----------------------------------------
Total Dipole Moment    :      0.38839      -0.12562       0.34509
                        -----------------------------------------
Magnitude (a.u.)       :      0.53452
Magnitude (Debye)      :      1.35865

Rotational constants in cm-1:     0.020539     0.007882     0.007223
Rotational constants in MHz :   615.755383   236.293624   216.555062

                             ****ORCA TERMINATED NORMALLY****
TOTAL RUN TIME: 0 days 0 hours 0 minutes 30 seconds 498 msec
