                         Program Version 4.2.1 -  RELEASE  -
|  1> ! wB97X-D3 SP def2-SVP
|  2> %pal
|  3> nprocs 16
|  4> end
|  5>
|  6> * xyz 0 1
|  7> S 	 -92.0815 	 61.2358 	 122.812
|  8> C 	 -92.1545 	 60.046 	 121.511
|  9> C 	 -91.3059 	 58.9351 	 121.718
| 10> C 	 -90.659 	 59.0306 	 122.989
| 11> C 	 -91.0155 	 60.1816 	 123.708
| 12> H 	 -90.0074 	 58.2508 	 123.367
| 13> C 	 -91.0765 	 57.7793 	 120.797
| 14> H 	 -90.1065 	 57.3897 	 121.128
| 15> H 	 -91.0235 	 58.1884 	 119.853
| 16> C 	 -92.0837 	 56.5975 	 120.798
| 17> H 	 -92.1689 	 56.1163 	 121.855
| 18> H 	 -93.0833 	 56.998 	 120.499
| 19> C 	 -91.6734 	 55.5749 	 119.71
| 20> H 	 -92.3796 	 54.7443 	 119.829
| 21> H 	 -91.8041 	 56.062 	 118.679
| 22> H 	 -90.6445 	 55.3207 	 119.758
| 23> S 	 -91.4877 	 60.6951 	 126.38
| 24> C 	 -90.1502 	 60.961 	 127.486
| 25> C 	 -88.9467 	 61.0301 	 126.799
| 26> C 	 -89.1405 	 60.645 	 125.413
| 27> C 	 -90.4742 	 60.5582 	 124.987
| 28> H 	 -87.9988 	 61.2787 	 127.283
| 29> C 	 -87.9089 	 60.6132 	 124.581
| 30> H 	 -88.0586 	 59.918 	 123.825
| 31> H 	 -87.0581 	 60.2292 	 125.097
| 32> C 	 -87.4829 	 61.8841 	 123.855
| 33> H 	 -87.2251 	 62.6992 	 124.543
| 34> H 	 -88.3643 	 62.2485 	 123.284
| 35> C 	 -86.2613 	 61.6138 	 123.032
| 36> H 	 -85.5468 	 61.2791 	 123.835
| 37> H 	 -85.7677 	 62.4862 	 122.594
| 38> H 	 -86.3419 	 60.7359 	 122.411
| 39> H 	 -92.7133 	 60.1234 	 120.531
| 40> H 	 -90.2916 	 61.409 	 128.506
| 41> *
| 42>
| 43>                          ****END OF INPUT****

CARTESIAN COORDINATES (ANGSTROEM)
---------------------------------
  S    -92.081500   61.235800  122.812000
  C    -92.154500   60.046000  121.511000
  C    -91.305900   58.935100  121.718000
  C    -90.659000   59.030600  122.989000
  C    -91.015500   60.181600  123.708000
  H    -90.007400   58.250800  123.367000
  C    -91.076500   57.779300  120.797000
  H    -90.106500   57.389700  121.128000
  H    -91.023500   58.188400  119.853000
  C    -92.083700   56.597500  120.798000
  H    -92.168900   56.116300  121.855000
  H    -93.083300   56.998000  120.499000
  C    -91.673400   55.574900  119.710000
  H    -92.379600   54.744300  119.829000
  H    -91.804100   56.062000  118.679000
  H    -90.644500   55.320700  119.758000
  S    -91.487700   60.695100  126.380000
  C    -90.150200   60.961000  127.486000
  C    -88.946700   61.030100  126.799000
  C    -89.140500   60.645000  125.413000
  C    -90.474200   60.558200  124.987000
  H    -87.998800   61.278700  127.283000
  C    -87.908900   60.613200  124.581000
  H    -88.058600   59.918000  123.825000
  H    -87.058100   60.229200  125.097000
  C    -87.482900   61.884100  123.855000
  H    -87.225100   62.699200  124.543000
  H    -88.364300   62.248500  123.284000
  C    -86.261300   61.613800  123.032000
  H    -85.546800   61.279100  123.835000
  H    -85.767700   62.486200  122.594000
  H    -86.341900   60.735900  122.411000
  H    -92.713300   60.123400  120.531000
  H    -90.291600   61.409000  128.506000

 Total Charge           Charge          ....    0
 Multiplicity           Mult            ....    1
 Number of Electrons    NEL             ....  134
 Basis Dimension        Dim             ....  322

ORBITAL ENERGIES
----------------

  NO   OCC          E(Eh)            E(eV)
   0   2.0000     -88.974494     -2421.1191
   1   2.0000     -88.962798     -2420.8008
   2   2.0000     -10.331037      -281.1218
   3   2.0000     -10.324885      -280.9544
   4   2.0000     -10.321612      -280.8653
   5   2.0000     -10.320258      -280.8285
   6   2.0000     -10.302044      -280.3329
   7   2.0000     -10.301691      -280.3233
   8   2.0000     -10.300720      -280.2968
   9   2.0000     -10.297274      -280.2031
  10   2.0000     -10.296923      -280.1935
  11   2.0000     -10.288766      -279.9716
  12   2.0000     -10.285780      -279.8903
  13   2.0000     -10.280678      -279.7515
  14   2.0000     -10.276233      -279.6305
  15   2.0000     -10.274575      -279.5854
  16   2.0000      -8.088450      -220.0979
  17   2.0000      -8.077931      -219.8117
  18   2.0000      -6.046902      -164.5446
  19   2.0000      -6.043061      -164.4401
  20   2.0000      -6.039329      -164.3385
  21   2.0000      -6.036518      -164.2620
  22   2.0000      -6.032224      -164.1452
  23   2.0000      -6.028737      -164.0503
  24   2.0000      -1.005399       -27.3583
  25   2.0000      -0.981069       -26.6962
  26   2.0000      -0.915921       -24.9235
  27   2.0000      -0.913360       -24.8538
  28   2.0000      -0.868280       -23.6271
  29   2.0000      -0.853316       -23.2199
  30   2.0000      -0.849154       -23.1067
  31   2.0000      -0.810985       -22.0680
  32   2.0000      -0.781255       -21.2590
  33   2.0000      -0.765210       -20.8224
  34   2.0000      -0.702862       -19.1259
  35   2.0000      -0.697398       -18.9772
  36   2.0000      -0.691131       -18.8066
  37   2.0000      -0.661409       -17.9979
  38   2.0000      -0.634126       -17.2554
  39   2.0000      -0.623188       -16.9578
  40   2.0000      -0.598094       -16.2750
  41   2.0000      -0.571662       -15.5557
  42   2.0000      -0.568024       -15.4567
  43   2.0000      -0.557741       -15.1769
  44   2.0000      -0.531522       -14.4634
  45   2.0000      -0.527535       -14.3549
  46   2.0000      -0.513854       -13.9827
  47   2.0000      -0.509263       -13.8577
  48   2.0000      -0.501965       -13.6592
  49   2.0000      -0.498628       -13.5684
  50   2.0000      -0.492658       -13.4059
  51   2.0000      -0.476742       -12.9728
  52   2.0000      -0.469836       -12.7849
  53   2.0000      -0.462862       -12.5951
  54   2.0000      -0.458038       -12.4638
  55   2.0000      -0.450027       -12.2459
  56   2.0000      -0.444401       -12.0928
  57   2.0000      -0.436891       -11.8884
  58   2.0000      -0.429984       -11.7005
  59   2.0000      -0.428176       -11.6512
  60   2.0000      -0.421956       -11.4820
  61   2.0000      -0.419181       -11.4065
  62   2.0000      -0.408582       -11.1181
  63   2.0000      -0.342279        -9.3139
  64   2.0000      -0.333006        -9.0616
  65   2.0000      -0.323979        -8.8159
  66   2.0000      -0.294422        -8.0116
  67   0.0000       0.029137         0.7928
  68   0.0000       0.064666         1.7597
  69   0.0000       0.105691         2.8760
  70   0.0000       0.119490         3.2515
  71   0.0000       0.126653         3.4464

MULLIKEN ATOMIC CHARGES
-----------------------
   0 S :    0.135960
   1 C :   -0.137823
   2 C :   -0.108812
   3 C :    0.038687
   4 C :   -0.169089
   5 H :    0.021225
   6 C :    0.091982
   7 H :    0.016781
   8 H :    0.005818
   9 C :   -0.107080
  10 H :    0.049938
  11 H :    0.033624
  12 C :   -0.043167
  13 H :    0.048174
  14 H :    0.035735
  15 H :    0.027779
  16 S :    0.101864
  17 C :   -0.109697
  18 C :   -0.034283
  19 C :   -0.058074
  20 C :   -0.128485
  21 H :    0.032167
  22 C :    0.089171
  23 H :   -0.020525
  24 H :   -0.000653
  25 C :   -0.055524
  26 H :    0.019275
  27 H :    0.031432
  28 C :   -0.033197
  29 H :    0.012332
  30 H :    0.043712
  31 H :    0.027601
  32 H :    0.062002
  33 H :    0.081152
Sum of atomic charges:   -0.0000000

LOEWDIN ATOMIC CHARGES
----------------------
   0 S :    0.417952
   1 C :   -0.211791
   2 C :   -0.061225
   3 C :   -0.054928
   4 C :   -0.201198
   5 H :    0.032624
   6 C :   -0.031259
   7 H :    0.031977
   8 H :    0.020890
   9 C :   -0.041910
  10 H :    0.033666
  11 H :    0.025591
  12 C :   -0.066124
  13 H :    0.030753
  14 H :    0.033285
  15 H :    0.017232
  16 S :    0.414484
  17 C :   -0.198030
  18 C :   -0.066686
  19 C :   -0.051168
  20 C :   -0.217709
  21 H :    0.036226
  22 C :   -0.035055
  23 H :    0.018610
  24 H :    0.023523
  25 C :   -0.038191
  26 H :    0.021806
  27 H :    0.024184
  28 C :   -0.068218
  29 H :    0.029828
  30 H :    0.029215
  31 H :    0.021819
  32 H :    0.038978
  33 H :    0.040849

  Mayer bond orders larger than 0.100000
B(  0-S ,  1-C ) :   1.1399 B(  0-S ,  4-C ) :   1.1597 B(  1-C ,  2-C ) :   1.5954
B(  1-C ,  4-C ) :   0.1018 B(  1-C , 32-H ) :   0.9586 B(  2-C ,  3-C ) :   1.2697
B(  2-C ,  6-C ) :   1.0222 B(  3-C ,  4-C ) :   1.5537 B(  3-C ,  5-H ) :   0.9873
B(  4-C , 20-C ) :   1.0317 B(  6-C ,  7-H ) :   0.9367 B(  6-C ,  8-H ) :   0.9313
B(  6-C ,  9-C ) :   1.0675 B(  9-C , 10-H ) :   0.9562 B(  9-C , 11-H ) :   0.9550
B(  9-C , 12-C ) :   1.0694 B( 12-C , 13-H ) :   0.9747 B( 12-C , 14-H ) :   0.9739
B( 12-C , 15-H ) :   0.9765 B( 16-S , 17-C ) :   1.1656 B( 16-S , 20-C ) :   1.1406
B( 17-C , 18-C ) :   1.5932 B( 17-C , 33-H ) :   0.9550 B( 18-C , 19-C ) :   1.2470
B( 18-C , 21-H ) :   0.9888 B( 19-C , 20-C ) :   1.5689 B( 19-C , 22-C ) :   1.0702
B( 22-C , 23-H ) :   0.9138 B( 22-C , 24-H ) :   0.9269 B( 22-C , 25-C ) :   1.0665
B( 25-C , 26-H ) :   0.9531 B( 25-C , 27-H ) :   0.9508 B( 25-C , 28-C ) :   1.0775
B( 28-C , 29-H ) :   0.9677 B( 28-C , 30-H ) :   0.9708 B( 28-C , 31-H ) :   0.9742

Dispersion correction           -0.013851732
FINAL SINGLE POINT ENERGY     -1339.872785275119

DIPOLE MOMENT
-------------
                                X             Y             Z
Electronic contribution:    -15.78247      12.90649      17.17770
Nuclear contribution   :     16.25843     -13.18473     -17.51588
                        -----------------------------------------
Total Dipole Moment    :      0.47596      -0.27824      -0.33818
                        -----------------------------------------
Magnitude (a.u.)       :      0.64678
Magnitude (Debye)      :      1.64399

Rotational constants in cm-1:     0.018443     0.007781     0.006635
Rotational constants in MHz :   552.908135   233.272553   198.901377

                             ****ORCA TERMINATED NORMALLY****
TOTAL RUN TIME: 0 days 0 hours 0 minutes 33 seconds 931 msec
