                         Program Version 4.2.1 -  RELEASE  -
|  1> ! wB97X-D3 SP def2-SVP
|  2> %pal
|  3> nprocs 16
|  4> end
|  5>
|  6> * xyz 0 1
|  7> S 	 -72.0644 	 38.3734 	 114.622
|  8> C 	 -72.7624 	 38.6675 	 116.149
|  9> C 	 -72.0464 	 38.1273 	 117.221
| 10> C 	 -70.8856 	 37.3867 	 116.758
| 11> C 	 -70.7987 	 37.3679 	 115.354
| 12> H 	 -70.2351 	 36.8099 	 117.349
| 13> C 	 -72.4045 	 38.1737 	 118.713
| 14> H 	 -73.233 	 37.443 	 118.873
| 15> H 	 -72.9907 	 39.1157 	 118.826
| 16> C 	 -71.3098 	 37.9127 	 119.8
| 17> H 	 -71.0944 	 36.8618 	 119.896
| 18> H 	 -70.381 	 38.3619 	 119.542
| 19> C 	 -71.7465 	 38.3985 	 121.149
| 20> H 	 -71.7978 	 39.5149 	 121.28
| 21> H 	 -72.7552 	 37.9988 	 121.476
| 22> H 	 -71.0789 	 38.0063 	 121.922
| 23> S 	 -71.0137 	 35.5754 	 113.337
| 24> C 	 -69.4433 	 35.0487 	 112.518
| 25> C 	 -68.33 	 35.6027 	 113.16
| 26> C 	 -68.6674 	 36.4617 	 114.246
| 27> C 	 -70.0111 	 36.5333 	 114.463
| 28> H 	 -67.3061 	 35.3223 	 112.821
| 29> C 	 -67.5271 	 37.1532 	 114.981
| 30> H 	 -66.6101 	 36.538 	 114.857
| 31> H 	 -67.7618 	 37.2209 	 116.016
| 32> C 	 -67.1632 	 38.5876 	 114.439
| 33> H 	 -68.0498 	 39.3075 	 114.411
| 34> H 	 -66.9101 	 38.4472 	 113.402
| 35> C 	 -65.9907 	 39.1083 	 115.217
| 36> H 	 -65.4023 	 39.8856 	 114.666
| 37> H 	 -65.3161 	 38.3902 	 115.68
| 38> H 	 -66.3297 	 39.6264 	 116.144
| 39> H 	 -73.7223 	 39.2011 	 116.353
| 40> H 	 -69.3777 	 34.2485 	 111.812
| 41> *
| 42>
| 43>                          ****END OF INPUT****

CARTESIAN COORDINATES (ANGSTROEM)
---------------------------------
  S    -72.064400   38.373400  114.622000
  C    -72.762400   38.667500  116.149000
  C    -72.046400   38.127300  117.221000
  C    -70.885600   37.386700  116.758000
  C    -70.798700   37.367900  115.354000
  H    -70.235100   36.809900  117.349000
  C    -72.404500   38.173700  118.713000
  H    -73.233000   37.443000  118.873000
  H    -72.990700   39.115700  118.826000
  C    -71.309800   37.912700  119.800000
  H    -71.094400   36.861800  119.896000
  H    -70.381000   38.361900  119.542000
  C    -71.746500   38.398500  121.149000
  H    -71.797800   39.514900  121.280000
  H    -72.755200   37.998800  121.476000
  H    -71.078900   38.006300  121.922000
  S    -71.013700   35.575400  113.337000
  C    -69.443300   35.048700  112.518000
  C    -68.330000   35.602700  113.160000
  C    -68.667400   36.461700  114.246000
  C    -70.011100   36.533300  114.463000
  H    -67.306100   35.322300  112.821000
  C    -67.527100   37.153200  114.981000
  H    -66.610100   36.538000  114.857000
  H    -67.761800   37.220900  116.016000
  C    -67.163200   38.587600  114.439000
  H    -68.049800   39.307500  114.411000
  H    -66.910100   38.447200  113.402000
  C    -65.990700   39.108300  115.217000
  H    -65.402300   39.885600  114.666000
  H    -65.316100   38.390200  115.680000
  H    -66.329700   39.626400  116.144000
  H    -73.722300   39.201100  116.353000
  H    -69.377700   34.248500  111.812000

 Total Charge           Charge          ....    0
 Multiplicity           Mult            ....    1
 Number of Electrons    NEL             ....  134
 Basis Dimension        Dim             ....  322

ORBITAL ENERGIES
----------------

  NO   OCC          E(Eh)            E(eV)
   0   2.0000     -88.967431     -2420.9269
   1   2.0000     -88.966705     -2420.9071
   2   2.0000     -10.329342      -281.0757
   3   2.0000     -10.326723      -281.0044
   4   2.0000     -10.323032      -280.9040
   5   2.0000     -10.311794      -280.5982
   6   2.0000     -10.304030      -280.3869
   7   2.0000     -10.301285      -280.3122
   8   2.0000     -10.300208      -280.2829
   9   2.0000     -10.300184      -280.2823
  10   2.0000     -10.294854      -280.1372
  11   2.0000     -10.294106      -280.1169
  12   2.0000     -10.289458      -279.9904
  13   2.0000     -10.289369      -279.9880
  14   2.0000     -10.286267      -279.9035
  15   2.0000     -10.279606      -279.7223
  16   2.0000      -8.082201      -219.9279
  17   2.0000      -8.079403      -219.8517
  18   2.0000      -6.040651      -164.3745
  19   2.0000      -6.038091      -164.3048
  20   2.0000      -6.036636      -164.2652
  21   2.0000      -6.034346      -164.2029
  22   2.0000      -6.033090      -164.1687
  23   2.0000      -6.029915      -164.0823
  24   2.0000      -1.000567       -27.2268
  25   2.0000      -0.974418       -26.5153
  26   2.0000      -0.909090       -24.7376
  27   2.0000      -0.903667       -24.5900
  28   2.0000      -0.867499       -23.6058
  29   2.0000      -0.850959       -23.1558
  30   2.0000      -0.845990       -23.0206
  31   2.0000      -0.810760       -22.0619
  32   2.0000      -0.776050       -21.1174
  33   2.0000      -0.765009       -20.8169
  34   2.0000      -0.712129       -19.3780
  35   2.0000      -0.698943       -19.0192
  36   2.0000      -0.689062       -18.7503
  37   2.0000      -0.663794       -18.0628
  38   2.0000      -0.639124       -17.3914
  39   2.0000      -0.616592       -16.7783
  40   2.0000      -0.592165       -16.1136
  41   2.0000      -0.566853       -15.4249
  42   2.0000      -0.560737       -15.2584
  43   2.0000      -0.555184       -15.1073
  44   2.0000      -0.525003       -14.2861
  45   2.0000      -0.519768       -14.1436
  46   2.0000      -0.512966       -13.9585
  47   2.0000      -0.507716       -13.8156
  48   2.0000      -0.505023       -13.7424
  49   2.0000      -0.491261       -13.3679
  50   2.0000      -0.485991       -13.2245
  51   2.0000      -0.476801       -12.9744
  52   2.0000      -0.475152       -12.9295
  53   2.0000      -0.464795       -12.6477
  54   2.0000      -0.455891       -12.4054
  55   2.0000      -0.446834       -12.1590
  56   2.0000      -0.444037       -12.0829
  57   2.0000      -0.433995       -11.8096
  58   2.0000      -0.433909       -11.8073
  59   2.0000      -0.425199       -11.5702
  60   2.0000      -0.422956       -11.5092
  61   2.0000      -0.420116       -11.4319
  62   2.0000      -0.412125       -11.2145
  63   2.0000      -0.345203        -9.3934
  64   2.0000      -0.331929        -9.0323
  65   2.0000      -0.323173        -8.7940
  66   2.0000      -0.288546        -7.8517
  67   0.0000       0.029815         0.8113
  68   0.0000       0.060710         1.6520
  69   0.0000       0.098205         2.6723
  70   0.0000       0.118669         3.2292
  71   0.0000       0.134758         3.6669

MULLIKEN ATOMIC CHARGES
-----------------------
   0 S :    0.128356
   1 C :   -0.137326
   2 C :   -0.093181
   3 C :    0.056053
   4 C :   -0.172983
   5 H :   -0.002788
   6 C :    0.021344
   7 H :    0.043602
   8 H :    0.025592
   9 C :   -0.029889
  10 H :    0.031967
  11 H :    0.027369
  12 C :   -0.080285
  13 H :    0.045611
  14 H :    0.031187
  15 H :    0.031180
  16 S :    0.092182
  17 C :   -0.092681
  18 C :   -0.048333
  19 C :   -0.001138
  20 C :   -0.170926
  21 H :    0.036316
  22 C :    0.057908
  23 H :    0.028024
  24 H :    0.015569
  25 C :   -0.069372
  26 H :    0.053904
  27 H :    0.021376
  28 C :   -0.054686
  29 H :    0.042701
  30 H :    0.026603
  31 H :    0.028473
  32 H :    0.056371
  33 H :    0.051901
Sum of atomic charges:    0.0000000

LOEWDIN ATOMIC CHARGES
----------------------
   0 S :    0.420656
   1 C :   -0.229333
   2 C :   -0.064226
   3 C :   -0.055438
   4 C :   -0.188855
   5 H :    0.021906
   6 C :   -0.041601
   7 H :    0.039502
   8 H :    0.033581
   9 C :   -0.040222
  10 H :    0.027220
  11 H :    0.022022
  12 C :   -0.070865
  13 H :    0.029988
  14 H :    0.028763
  15 H :    0.026567
  16 S :    0.354836
  17 C :   -0.155472
  18 C :   -0.065983
  19 C :   -0.059854
  20 C :   -0.186733
  21 H :    0.039011
  22 C :   -0.023505
  23 H :    0.034037
  24 H :    0.021909
  25 C :   -0.041316
  26 H :    0.037067
  27 H :    0.019362
  28 C :   -0.078817
  29 H :    0.031539
  30 H :    0.024233
  31 H :    0.030570
  32 H :    0.036859
  33 H :    0.022592

  Mayer bond orders larger than 0.100000
B(  0-S ,  1-C ) :   1.1435 B(  0-S ,  4-C ) :   1.1539 B(  1-C ,  2-C ) :   1.6165
B(  1-C , 32-H ) :   0.9590 B(  2-C ,  3-C ) :   1.2445 B(  2-C ,  6-C ) :   1.0114
B(  3-C ,  4-C ) :   1.5712 B(  3-C ,  5-H ) :   0.9955 B(  4-C , 20-C ) :   1.0331
B(  6-C ,  7-H ) :   0.9318 B(  6-C ,  8-H ) :   0.9475 B(  6-C ,  9-C ) :   1.0573
B(  9-C , 10-H ) :   0.9442 B(  9-C , 11-H ) :   0.9576 B(  9-C , 12-C ) :   1.0949
B( 12-C , 13-H ) :   0.9754 B( 12-C , 14-H ) :   0.9721 B( 12-C , 15-H ) :   0.9715
B( 16-S , 17-C ) :   1.1182 B( 16-S , 20-C ) :   1.1218 B( 17-C , 18-C ) :   1.6469
B( 17-C , 33-H ) :   0.9681 B( 18-C , 19-C ) :   1.2138 B( 18-C , 21-H ) :   0.9765
B( 19-C , 20-C ) :   1.6396 B( 19-C , 22-C ) :   1.0376 B( 22-C , 23-H ) :   0.9373
B( 22-C , 24-H ) :   0.9348 B( 22-C , 25-C ) :   1.0609 B( 25-C , 26-H ) :   0.9565
B( 25-C , 27-H ) :   0.9569 B( 25-C , 28-C ) :   1.0727 B( 28-C , 29-H ) :   0.9741
B( 28-C , 30-H ) :   0.9713 B( 28-C , 31-H ) :   0.9713

Dispersion correction           -0.013569490
FINAL SINGLE POINT ENERGY     -1339.874988786562

DIPOLE MOMENT
-------------
                                X             Y             Z
Electronic contribution:    -13.99271      -9.08698     -23.22326
Nuclear contribution   :     14.38178       9.02904      23.76919
                        -----------------------------------------
Total Dipole Moment    :      0.38907      -0.05794       0.54592
                        -----------------------------------------
Magnitude (a.u.)       :      0.67288
Magnitude (Debye)      :      1.71033

Rotational constants in cm-1:     0.017107     0.008287     0.006586
Rotational constants in MHz :   512.862800   248.430366   197.434770

                             ****ORCA TERMINATED NORMALLY****
TOTAL RUN TIME: 0 days 0 hours 0 minutes 27 seconds 223 msec
