                         Program Version 4.2.1 -  RELEASE  -
|  1> ! wB97X-D3 SP def2-SVP
|  2> %pal
|  3> nprocs 16
|  4> end
|  5>
|  6> * xyz 0 1
|  7> S 	 -30.1695 	 61.7045 	 107.913
|  8> C 	 -29.0627 	 63.1233 	 107.734
|  9> C 	 -29.7385 	 64.2253 	 107.199
| 10> C 	 -31.1365 	 63.9678 	 106.973
| 11> C 	 -31.5392 	 62.6692 	 107.416
| 12> H 	 -31.8367 	 64.7366 	 106.485
| 13> C 	 -29.1 	 65.5783 	 106.937
| 14> H 	 -28.0129 	 65.6155 	 107.17
| 15> H 	 -29.4736 	 66.1516 	 107.784
| 16> C 	 -29.6304 	 66.4911 	 105.765
| 17> H 	 -30.6983 	 66.4366 	 105.694
| 18> H 	 -29.389 	 67.5167 	 105.945
| 19> C 	 -28.9914 	 66.0661 	 104.449
| 20> H 	 -29.439 	 65.1099 	 104.237
| 21> H 	 -29.1 	 66.6578 	 103.526
| 22> H 	 -27.9017 	 65.9669 	 104.651
| 23> S 	 -33.9647 	 62.2095 	 108.399
| 24> C 	 -35.2543 	 61.4188 	 107.531
| 25> C 	 -34.755 	 60.9955 	 106.331
| 26> C 	 -33.3922 	 61.3924 	 106.012
| 27> C 	 -32.8098 	 62.0278 	 107.13
| 28> H 	 -35.4306 	 60.4542 	 105.615
| 29> C 	 -32.7912 	 61.2959 	 104.686
| 30> H 	 -31.822 	 61.8117 	 104.782
| 31> H 	 -33.3602 	 61.8278 	 103.915
| 32> C 	 -32.6178 	 59.8074 	 104.211
| 33> H 	 -33.5732 	 59.3195 	 104.162
| 34> H 	 -32.2033 	 59.2513 	 105.022
| 35> C 	 -31.7984 	 59.4851 	 102.991
| 36> H 	 -30.7263 	 59.8547 	 103.11
| 37> H 	 -32.3228 	 60.1083 	 102.274
| 38> H 	 -31.8966 	 58.4055 	 102.807
| 39> H 	 -28.1623 	 63.1689 	 108.125
| 40> H 	 -36.2326 	 61.3431 	 107.844
| 41> *
| 42>
| 43>                          ****END OF INPUT****

CARTESIAN COORDINATES (ANGSTROEM)
---------------------------------
  S    -30.169500   61.704500  107.913000
  C    -29.062700   63.123300  107.734000
  C    -29.738500   64.225300  107.199000
  C    -31.136500   63.967800  106.973000
  C    -31.539200   62.669200  107.416000
  H    -31.836700   64.736600  106.485000
  C    -29.100000   65.578300  106.937000
  H    -28.012900   65.615500  107.170000
  H    -29.473600   66.151600  107.784000
  C    -29.630400   66.491100  105.765000
  H    -30.698300   66.436600  105.694000
  H    -29.389000   67.516700  105.945000
  C    -28.991400   66.066100  104.449000
  H    -29.439000   65.109900  104.237000
  H    -29.100000   66.657800  103.526000
  H    -27.901700   65.966900  104.651000
  S    -33.964700   62.209500  108.399000
  C    -35.254300   61.418800  107.531000
  C    -34.755000   60.995500  106.331000
  C    -33.392200   61.392400  106.012000
  C    -32.809800   62.027800  107.130000
  H    -35.430600   60.454200  105.615000
  C    -32.791200   61.295900  104.686000
  H    -31.822000   61.811700  104.782000
  H    -33.360200   61.827800  103.915000
  C    -32.617800   59.807400  104.211000
  H    -33.573200   59.319500  104.162000
  H    -32.203300   59.251300  105.022000
  C    -31.798400   59.485100  102.991000
  H    -30.726300   59.854700  103.110000
  H    -32.322800   60.108300  102.274000
  H    -31.896600   58.405500  102.807000
  H    -28.162300   63.168900  108.125000
  H    -36.232600   61.343100  107.844000

 Total Charge           Charge          ....    0
 Multiplicity           Mult            ....    1
 Number of Electrons    NEL             ....  134
 Basis Dimension        Dim             ....  322

ORBITAL ENERGIES
----------------

  NO   OCC          E(Eh)            E(eV)
   0   2.0000     -88.970007     -2420.9970
   1   2.0000     -88.959338     -2420.7066
   2   2.0000     -10.336091      -281.2593
   3   2.0000     -10.324733      -280.9503
   4   2.0000     -10.311292      -280.5845
   5   2.0000     -10.310887      -280.5735
   6   2.0000     -10.310566      -280.5648
   7   2.0000     -10.310006      -280.5495
   8   2.0000     -10.305089      -280.4157
   9   2.0000     -10.300693      -280.2961
  10   2.0000     -10.296300      -280.1766
  11   2.0000     -10.292296      -280.0676
  12   2.0000     -10.290032      -280.0060
  13   2.0000     -10.280179      -279.7379
  14   2.0000     -10.276163      -279.6286
  15   2.0000     -10.275665      -279.6151
  16   2.0000      -8.083539      -219.9643
  17   2.0000      -8.074871      -219.7284
  18   2.0000      -6.042113      -164.4142
  19   2.0000      -6.038172      -164.3070
  20   2.0000      -6.034341      -164.2028
  21   2.0000      -6.033363      -164.1761
  22   2.0000      -6.029039      -164.0585
  23   2.0000      -6.025813      -163.9707
  24   2.0000      -1.004124       -27.3236
  25   2.0000      -0.978339       -26.6219
  26   2.0000      -0.912366       -24.8267
  27   2.0000      -0.909929       -24.7604
  28   2.0000      -0.871901       -23.7256
  29   2.0000      -0.852569       -23.1996
  30   2.0000      -0.844926       -22.9916
  31   2.0000      -0.812953       -22.1216
  32   2.0000      -0.782745       -21.2996
  33   2.0000      -0.769906       -20.9502
  34   2.0000      -0.711900       -19.3718
  35   2.0000      -0.700337       -19.0571
  36   2.0000      -0.696806       -18.9611
  37   2.0000      -0.657120       -17.8811
  38   2.0000      -0.638586       -17.3768
  39   2.0000      -0.620868       -16.8947
  40   2.0000      -0.598367       -16.2824
  41   2.0000      -0.569879       -15.5072
  42   2.0000      -0.562269       -15.3001
  43   2.0000      -0.550592       -14.9824
  44   2.0000      -0.542331       -14.7576
  45   2.0000      -0.534962       -14.5571
  46   2.0000      -0.521587       -14.1931
  47   2.0000      -0.517126       -14.0717
  48   2.0000      -0.503871       -13.7110
  49   2.0000      -0.499775       -13.5996
  50   2.0000      -0.488855       -13.3024
  51   2.0000      -0.475854       -12.9486
  52   2.0000      -0.468296       -12.7430
  53   2.0000      -0.463578       -12.6146
  54   2.0000      -0.461635       -12.5617
  55   2.0000      -0.447523       -12.1777
  56   2.0000      -0.441245       -12.0069
  57   2.0000      -0.433452       -11.7948
  58   2.0000      -0.428434       -11.6583
  59   2.0000      -0.427072       -11.6212
  60   2.0000      -0.420503       -11.4425
  61   2.0000      -0.418304       -11.3826
  62   2.0000      -0.406326       -11.0567
  63   2.0000      -0.332242        -9.0408
  64   2.0000      -0.328378        -8.9356
  65   2.0000      -0.315749        -8.5920
  66   2.0000      -0.309563        -8.4237
  67   0.0000       0.037861         1.0303
  68   0.0000       0.053722         1.4618
  69   0.0000       0.107782         2.9329
  70   0.0000       0.119120         3.2414
  71   0.0000       0.125913         3.4263

MULLIKEN ATOMIC CHARGES
-----------------------
   0 S :    0.117136
   1 C :   -0.068325
   2 C :   -0.065216
   3 C :    0.009132
   4 C :   -0.165168
   5 H :    0.052911
   6 C :    0.016935
   7 H :    0.030603
   8 H :    0.041439
   9 C :   -0.044732
  10 H :    0.022651
  11 H :    0.025913
  12 C :   -0.055335
  13 H :    0.027729
  14 H :    0.040366
  15 H :    0.032279
  16 S :    0.102215
  17 C :   -0.059379
  18 C :   -0.053948
  19 C :   -0.015153
  20 C :   -0.197301
  21 H :    0.035025
  22 C :    0.088512
  23 H :    0.026564
  24 H :    0.034222
  25 C :   -0.116154
  26 H :    0.014152
  27 H :    0.011686
  28 C :   -0.027008
  29 H :    0.049683
  30 H :    0.023015
  31 H :    0.048098
  32 H :   -0.012713
  33 H :    0.030165
Sum of atomic charges:   -0.0000000

LOEWDIN ATOMIC CHARGES
----------------------
   0 S :    0.399711
   1 C :   -0.163395
   2 C :   -0.053026
   3 C :   -0.067265
   4 C :   -0.208405
   5 H :    0.046373
   6 C :   -0.039722
   7 H :    0.035469
   8 H :    0.042762
   9 C :   -0.030216
  10 H :    0.019364
  11 H :    0.022350
  12 C :   -0.072229
  13 H :    0.023563
  14 H :    0.025166
  15 H :    0.028254
  16 S :    0.422938
  17 C :   -0.178485
  18 C :   -0.075520
  19 C :   -0.054366
  20 C :   -0.216818
  21 H :    0.035755
  22 C :   -0.033628
  23 H :    0.035278
  24 H :    0.032623
  25 C :   -0.047990
  26 H :    0.018398
  27 H :    0.017159
  28 C :   -0.065474
  29 H :    0.034805
  30 H :    0.022960
  31 H :    0.033361
  32 H :   -0.006180
  33 H :    0.016433

  Mayer bond orders larger than 0.100000
B(  0-S ,  1-C ) :   1.1279 B(  0-S ,  4-C ) :   1.1712 B(  1-C ,  2-C ) :   1.5953
B(  1-C ,  4-C ) :   0.1103 B(  1-C , 32-H ) :   0.9863 B(  2-C ,  3-C ) :   1.2491
B(  2-C ,  6-C ) :   1.0153 B(  3-C ,  4-C ) :   1.5549 B(  3-C ,  5-H ) :   0.9752
B(  4-C , 20-C ) :   0.9962 B(  6-C ,  7-H ) :   0.9480 B(  6-C ,  8-H ) :   0.9271
B(  6-C ,  9-C ) :   1.0710 B(  9-C , 10-H ) :   0.9538 B(  9-C , 11-H ) :   0.9548
B(  9-C , 12-C ) :   1.0660 B( 12-C , 13-H ) :   0.9775 B( 12-C , 14-H ) :   0.9769
B( 12-C , 15-H ) :   0.9764 B( 16-S , 17-C ) :   1.1515 B( 16-S , 20-C ) :   1.1700
B( 17-C , 18-C ) :   1.6087 B( 17-C , 33-H ) :   0.9830 B( 18-C , 19-C ) :   1.2267
B( 18-C , 21-H ) :   0.9787 B( 19-C , 20-C ) :   1.5699 B( 19-C , 22-C ) :   1.0783
B( 22-C , 23-H ) :   0.9265 B( 22-C , 24-H ) :   0.9277 B( 22-C , 25-C ) :   1.0425
B( 25-C , 26-H ) :   0.9539 B( 25-C , 27-H ) :   0.9523 B( 25-C , 28-C ) :   1.0872
B( 28-C , 29-H ) :   0.9735 B( 28-C , 30-H ) :   0.9738 B( 28-C , 31-H ) :   0.9702

Dispersion correction           -0.014107525
FINAL SINGLE POINT ENERGY     -1339.851500371236

DIPOLE MOMENT
-------------
                                X             Y             Z
Electronic contribution:     -8.49323      -6.69671      23.01037
Nuclear contribution   :      8.49892       7.11525     -23.44490
                        -----------------------------------------
Total Dipole Moment    :      0.00569       0.41854      -0.43453
                        -----------------------------------------
Magnitude (a.u.)       :      0.60334
Magnitude (Debye)      :      1.53357

Rotational constants in cm-1:     0.016712     0.008576     0.007228
Rotational constants in MHz :   501.002290   257.116121   216.685606

                             ****ORCA TERMINATED NORMALLY****
TOTAL RUN TIME: 0 days 0 hours 0 minutes 29 seconds 190 msec
