                         Program Version 4.2.1 -  RELEASE  -
|  1> ! wB97X-D3 SP def2-SVP
|  2> %pal
|  3> nprocs 16
|  4> end
|  5>
|  6> * xyz 0 1
|  7> S 	 42.0828 	 13.3563 	 89.8611
|  8> C 	 43.0522 	 12.0211 	 89.3612
|  9> C 	 42.3156 	 11.25 	 88.4526
| 10> C 	 40.948 	 11.658 	 88.3479
| 11> C 	 40.6333 	 12.7373 	 89.1276
| 12> H 	 40.2029 	 11.1979 	 87.7215
| 13> C 	 42.8631 	 10.133 	 87.597
| 14> H 	 43.8714 	 9.86543 	 87.9273
| 15> H 	 43.0373 	 10.363 	 86.5886
| 16> C 	 42.0847 	 8.89022 	 87.4164
| 17> H 	 41.1356 	 9.06821 	 86.9807
| 18> H 	 42.4409 	 7.98603 	 86.8818
| 19> C 	 41.8235 	 8.22918 	 88.8598
| 20> H 	 42.6692 	 7.98247 	 89.4598
| 21> H 	 41.1633 	 8.86702 	 89.4666
| 22> H 	 41.3307 	 7.27216 	 88.6808
| 23> S 	 38.8743 	 14.7626 	 88.6582
| 24> C 	 37.3723 	 14.8203 	 89.3941
| 25> C 	 37.172 	 13.7214 	 90.2112
| 26> C 	 38.3601 	 12.8726 	 90.2613
| 27> C 	 39.3493 	 13.3234 	 89.4064
| 28> H 	 36.2845 	 13.7219 	 90.8243
| 29> C 	 38.3777 	 11.5166 	 90.923
| 30> H 	 37.9596 	 11.5464 	 91.9339
| 31> H 	 39.3712 	 11.1145 	 91.08
| 32> C 	 37.5767 	 10.551 	 90.1335
| 33> H 	 37.8894 	 10.5285 	 89.1178
| 34> H 	 36.4804 	 10.7732 	 90.0513
| 35> C 	 37.6991 	 9.09466 	 90.5144
| 36> H 	 37.0854 	 8.39448 	 89.8559
| 37> H 	 37.4153 	 8.91249 	 91.5695
| 38> H 	 38.7531 	 8.8188 	 90.3568
| 39> H 	 44.0993 	 11.9487 	 89.5655
| 40> H 	 36.5575 	 15.5587 	 89.3682
| 41> *
| 42>
| 43>                          ****END OF INPUT****

CARTESIAN COORDINATES (ANGSTROEM)
---------------------------------
  S     42.082800   13.356300   89.861100
  C     43.052200   12.021100   89.361200
  C     42.315600   11.250000   88.452600
  C     40.948000   11.658000   88.347900
  C     40.633300   12.737300   89.127600
  H     40.202900   11.197900   87.721500
  C     42.863100   10.133000   87.597000
  H     43.871400    9.865430   87.927300
  H     43.037300   10.363000   86.588600
  C     42.084700    8.890220   87.416400
  H     41.135600    9.068210   86.980700
  H     42.440900    7.986030   86.881800
  C     41.823500    8.229180   88.859800
  H     42.669200    7.982470   89.459800
  H     41.163300    8.867020   89.466600
  H     41.330700    7.272160   88.680800
  S     38.874300   14.762600   88.658200
  C     37.372300   14.820300   89.394100
  C     37.172000   13.721400   90.211200
  C     38.360100   12.872600   90.261300
  C     39.349300   13.323400   89.406400
  H     36.284500   13.721900   90.824300
  C     38.377700   11.516600   90.923000
  H     37.959600   11.546400   91.933900
  H     39.371200   11.114500   91.080000
  C     37.576700   10.551000   90.133500
  H     37.889400   10.528500   89.117800
  H     36.480400   10.773200   90.051300
  C     37.699100    9.094660   90.514400
  H     37.085400    8.394480   89.855900
  H     37.415300    8.912490   91.569500
  H     38.753100    8.818800   90.356800
  H     44.099300   11.948700   89.565500
  H     36.557500   15.558700   89.368200

 Total Charge           Charge          ....    0
 Multiplicity           Mult            ....    1
 Number of Electrons    NEL             ....  134
 Basis Dimension        Dim             ....  322

ORBITAL ENERGIES
----------------

  NO   OCC          E(Eh)            E(eV)
   0   2.0000     -88.965378     -2420.8710
   1   2.0000     -88.964951     -2420.8594
   2   2.0000     -10.326997      -281.0119
   3   2.0000     -10.318433      -280.7788
   4   2.0000     -10.317155      -280.7441
   5   2.0000     -10.312830      -280.6264
   6   2.0000     -10.307324      -280.4766
   7   2.0000     -10.304951      -280.4120
   8   2.0000     -10.294883      -280.1380
   9   2.0000     -10.292856      -280.0828
  10   2.0000     -10.286967      -279.9226
  11   2.0000     -10.285764      -279.8899
  12   2.0000     -10.285466      -279.8818
  13   2.0000     -10.279678      -279.7243
  14   2.0000     -10.276091      -279.6267
  15   2.0000     -10.271625      -279.5051
  16   2.0000      -8.082463      -219.9350
  17   2.0000      -8.080508      -219.8818
  18   2.0000      -6.040780      -164.3780
  19   2.0000      -6.038926      -164.3275
  20   2.0000      -6.036450      -164.2602
  21   2.0000      -6.034793      -164.2151
  22   2.0000      -6.033459      -164.1788
  23   2.0000      -6.031396      -164.1226
  24   2.0000      -1.018805       -27.7231
  25   2.0000      -0.994502       -27.0618
  26   2.0000      -0.918678       -24.9985
  27   2.0000      -0.917256       -24.9598
  28   2.0000      -0.875425       -23.8215
  29   2.0000      -0.850162       -23.1341
  30   2.0000      -0.843251       -22.9460
  31   2.0000      -0.819103       -22.2889
  32   2.0000      -0.785363       -21.3708
  33   2.0000      -0.773778       -21.0556
  34   2.0000      -0.710476       -19.3330
  35   2.0000      -0.695989       -18.9388
  36   2.0000      -0.689965       -18.7749
  37   2.0000      -0.658882       -17.9291
  38   2.0000      -0.650137       -17.6911
  39   2.0000      -0.630235       -17.1496
  40   2.0000      -0.600257       -16.3338
  41   2.0000      -0.574817       -15.6416
  42   2.0000      -0.564780       -15.3684
  43   2.0000      -0.550476       -14.9792
  44   2.0000      -0.546656       -14.8753
  45   2.0000      -0.528807       -14.3896
  46   2.0000      -0.519000       -14.1227
  47   2.0000      -0.515988       -14.0407
  48   2.0000      -0.512563       -13.9475
  49   2.0000      -0.504976       -13.7411
  50   2.0000      -0.490550       -13.3485
  51   2.0000      -0.481805       -13.1106
  52   2.0000      -0.470886       -12.8135
  53   2.0000      -0.463939       -12.6244
  54   2.0000      -0.463673       -12.6172
  55   2.0000      -0.450283       -12.2528
  56   2.0000      -0.444259       -12.0889
  57   2.0000      -0.432600       -11.7717
  58   2.0000      -0.430594       -11.7171
  59   2.0000      -0.424734       -11.5576
  60   2.0000      -0.419324       -11.4104
  61   2.0000      -0.409034       -11.1304
  62   2.0000      -0.399530       -10.8718
  63   2.0000      -0.337832        -9.1929
  64   2.0000      -0.328976        -8.9519
  65   2.0000      -0.326710        -8.8902
  66   2.0000      -0.310562        -8.4508
  67   0.0000       0.045269         1.2318
  68   0.0000       0.060793         1.6542
  69   0.0000       0.114947         3.1279
  70   0.0000       0.122694         3.3387
  71   0.0000       0.125450         3.4137

MULLIKEN ATOMIC CHARGES
-----------------------
   0 S :    0.124198
   1 C :   -0.113898
   2 C :   -0.085675
   3 C :    0.049573
   4 C :   -0.168654
   5 H :    0.012409
   6 C :    0.137525
   7 H :    0.006964
   8 H :    0.024352
   9 C :   -0.108308
  10 H :    0.019115
  11 H :    0.041839
  12 C :   -0.088609
  13 H :    0.025356
  14 H :    0.043049
  15 H :    0.022915
  16 S :    0.142683
  17 C :   -0.092781
  18 C :   -0.057222
  19 C :   -0.012906
  20 C :   -0.190761
  21 H :    0.020147
  22 C :    0.113763
  23 H :    0.016320
  24 H :    0.021355
  25 C :   -0.079808
  26 H :    0.006330
  27 H :    0.029489
  28 C :   -0.066291
  29 H :    0.041400
  30 H :    0.030348
  31 H :    0.026202
  32 H :    0.048705
  33 H :    0.060874
Sum of atomic charges:    0.0000000

LOEWDIN ATOMIC CHARGES
----------------------
   0 S :    0.428407
   1 C :   -0.197357
   2 C :   -0.058598
   3 C :   -0.056837
   4 C :   -0.199348
   5 H :    0.031009
   6 C :   -0.037335
   7 H :    0.031029
   8 H :    0.030054
   9 C :   -0.039568
  10 H :    0.015271
  11 H :    0.034948
  12 C :   -0.069748
  13 H :    0.018456
  14 H :    0.019971
  15 H :    0.020795
  16 S :    0.467087
  17 C :   -0.217343
  18 C :   -0.075880
  19 C :   -0.041605
  20 C :   -0.236482
  21 H :    0.030308
  22 C :   -0.031314
  23 H :    0.032021
  24 H :    0.030907
  25 C :   -0.049406
  26 H :    0.017898
  27 H :    0.026767
  28 C :   -0.069263
  29 H :    0.033342
  30 H :    0.021444
  31 H :    0.022981
  32 H :    0.027137
  33 H :    0.040254

  Mayer bond orders larger than 0.100000
B(  0-S ,  1-C ) :   1.1601 B(  0-S ,  4-C ) :   1.1678 B(  1-C ,  2-C ) :   1.5806
B(  1-C ,  4-C ) :   0.1026 B(  1-C , 32-H ) :   0.9741 B(  2-C ,  3-C ) :   1.2382
B(  2-C ,  6-C ) :   1.0257 B(  3-C ,  4-C ) :   1.5830 B(  3-C ,  5-H ) :   0.9987
B(  4-C , 20-C ) :   1.0041 B(  6-C ,  7-H ) :   0.9370 B(  6-C ,  8-H ) :   0.9325
B(  6-C ,  9-C ) :   1.0675 B(  9-C , 10-H ) :   0.9503 B(  9-C , 11-H ) :   0.9615
B(  9-C , 12-C ) :   1.0651 B( 12-C , 13-H ) :   0.9761 B( 12-C , 14-H ) :   0.9734
B( 12-C , 15-H ) :   0.9801 B( 16-S , 17-C ) :   1.1809 B( 16-S , 20-C ) :   1.1689
B( 17-C , 18-C ) :   1.6045 B( 17-C , 33-H ) :   0.9630 B( 18-C , 19-C ) :   1.2399
B( 18-C , 21-H ) :   0.9897 B( 19-C , 20-C ) :   1.5852 B( 19-C , 22-C ) :   1.0698
B( 22-C , 23-H ) :   0.9187 B( 22-C , 24-H ) :   0.9272 B( 22-C , 25-C ) :   1.0708
B( 25-C , 26-H ) :   0.9485 B( 25-C , 27-H ) :   0.9491 B( 25-C , 28-C ) :   1.0902
B( 28-C , 29-H ) :   0.9715 B( 28-C , 30-H ) :   0.9714 B( 28-C , 31-H ) :   0.9741

Dispersion correction           -0.015760903
FINAL SINGLE POINT ENERGY     -1339.872210229857

DIPOLE MOMENT
-------------
                                X             Y             Z
Electronic contribution:      3.62259      30.65993      -0.47444
Nuclear contribution   :     -3.75035     -31.12071       0.35886
                        -----------------------------------------
Total Dipole Moment    :     -0.12776      -0.46078      -0.11559
                        -----------------------------------------
Magnitude (a.u.)       :      0.49193
Magnitude (Debye)      :      1.25039

Rotational constants in cm-1:     0.018188     0.010428     0.007587
Rotational constants in MHz :   545.268814   312.610320   227.444864

                             ****ORCA TERMINATED NORMALLY****
TOTAL RUN TIME: 0 days 0 hours 0 minutes 30 seconds 735 msec
