                         Program Version 4.2.1 -  RELEASE  -
|  1> ! wB97X-D3 SP def2-SVP
|  2> %pal
|  3> nprocs 16
|  4> end
|  5>
|  6> * xyz 0 1
|  7> S 	 -79.1035 	 43.6794 	 138.285
|  8> C 	 -78.7467 	 41.9447 	 138.385
|  9> C 	 -78.0201 	 41.5032 	 137.301
| 10> C 	 -77.5931 	 42.5356 	 136.426
| 11> C 	 -78.2666 	 43.7148 	 136.698
| 12> H 	 -76.8957 	 42.4542 	 135.572
| 13> C 	 -77.4254 	 40.1177 	 137.204
| 14> H 	 -77.3481 	 39.8273 	 136.21
| 15> H 	 -78.0569 	 39.3411 	 137.554
| 16> C 	 -75.9927 	 39.8845 	 137.694
| 17> H 	 -75.8315 	 39.8946 	 138.789
| 18> H 	 -75.6189 	 38.8851 	 137.417
| 19> C 	 -74.9033 	 40.8947 	 137.101
| 20> H 	 -74.6982 	 40.7533 	 136.069
| 21> H 	 -74.9768 	 41.9512 	 137.372
| 22> H 	 -73.9386 	 40.6195 	 137.503
| 23> S 	 -77.5117 	 46.3399 	 136.965
| 24> C 	 -77.2786 	 47.3072 	 135.512
| 25> C 	 -77.4456 	 46.5617 	 134.372
| 26> C 	 -77.8955 	 45.2155 	 134.608
| 27> C 	 -77.9777 	 44.9468 	 136.002
| 28> H 	 -77.2675 	 47.0743 	 133.476
| 29> C 	 -78.2261 	 44.2198 	 133.581
| 30> H 	 -77.5673 	 43.293 	 133.625
| 31> H 	 -77.9293 	 44.6328 	 132.637
| 32> C 	 -79.652 	 43.6881 	 133.576
| 33> H 	 -79.6992 	 42.9392 	 134.386
| 34> H 	 -79.8818 	 43.2057 	 132.678
| 35> C 	 -80.8099 	 44.7104 	 133.791
| 36> H 	 -81.7782 	 44.1901 	 133.588
| 37> H 	 -80.8242 	 45.5677 	 133.085
| 38> H 	 -80.7015 	 45.2924 	 134.719
| 39> H 	 -79.1397 	 41.33 	 139.257
| 40> H 	 -77.0069 	 48.3394 	 135.57
| 41> *
| 42>
| 43>                          ****END OF INPUT****

CARTESIAN COORDINATES (ANGSTROEM)
---------------------------------
  S    -79.103500   43.679400  138.285000
  C    -78.746700   41.944700  138.385000
  C    -78.020100   41.503200  137.301000
  C    -77.593100   42.535600  136.426000
  C    -78.266600   43.714800  136.698000
  H    -76.895700   42.454200  135.572000
  C    -77.425400   40.117700  137.204000
  H    -77.348100   39.827300  136.210000
  H    -78.056900   39.341100  137.554000
  C    -75.992700   39.884500  137.694000
  H    -75.831500   39.894600  138.789000
  H    -75.618900   38.885100  137.417000
  C    -74.903300   40.894700  137.101000
  H    -74.698200   40.753300  136.069000
  H    -74.976800   41.951200  137.372000
  H    -73.938600   40.619500  137.503000
  S    -77.511700   46.339900  136.965000
  C    -77.278600   47.307200  135.512000
  C    -77.445600   46.561700  134.372000
  C    -77.895500   45.215500  134.608000
  C    -77.977700   44.946800  136.002000
  H    -77.267500   47.074300  133.476000
  C    -78.226100   44.219800  133.581000
  H    -77.567300   43.293000  133.625000
  H    -77.929300   44.632800  132.637000
  C    -79.652000   43.688100  133.576000
  H    -79.699200   42.939200  134.386000
  H    -79.881800   43.205700  132.678000
  C    -80.809900   44.710400  133.791000
  H    -81.778200   44.190100  133.588000
  H    -80.824200   45.567700  133.085000
  H    -80.701500   45.292400  134.719000
  H    -79.139700   41.330000  139.257000
  H    -77.006900   48.339400  135.570000

 Total Charge           Charge          ....    0
 Multiplicity           Mult            ....    1
 Number of Electrons    NEL             ....  134
 Basis Dimension        Dim             ....  322

ORBITAL ENERGIES
----------------

  NO   OCC          E(Eh)            E(eV)
   0   2.0000     -88.969299     -2420.9777
   1   2.0000     -88.963982     -2420.8330
   2   2.0000     -10.331058      -281.1224
   3   2.0000     -10.325726      -280.9773
   4   2.0000     -10.322738      -280.8960
   5   2.0000     -10.314078      -280.6603
   6   2.0000     -10.304798      -280.4078
   7   2.0000     -10.302448      -280.3439
   8   2.0000     -10.298292      -280.2308
   9   2.0000     -10.295140      -280.1450
  10   2.0000     -10.292253      -280.0665
  11   2.0000     -10.288853      -279.9739
  12   2.0000     -10.283290      -279.8225
  13   2.0000     -10.278599      -279.6949
  14   2.0000     -10.274820      -279.5921
  15   2.0000     -10.274507      -279.5836
  16   2.0000      -8.082988      -219.9493
  17   2.0000      -8.078553      -219.8286
  18   2.0000      -6.041538      -164.3986
  19   2.0000      -6.037838      -164.2979
  20   2.0000      -6.037001      -164.2751
  21   2.0000      -6.033565      -164.1817
  22   2.0000      -6.033062      -164.1680
  23   2.0000      -6.029424      -164.0690
  24   2.0000      -1.003554       -27.3081
  25   2.0000      -0.979700       -26.6590
  26   2.0000      -0.908370       -24.7180
  27   2.0000      -0.907701       -24.6998
  28   2.0000      -0.867908       -23.6170
  29   2.0000      -0.846668       -23.0390
  30   2.0000      -0.840003       -22.8576
  31   2.0000      -0.814198       -22.1555
  32   2.0000      -0.787478       -21.4284
  33   2.0000      -0.771731       -20.9999
  34   2.0000      -0.709182       -19.2978
  35   2.0000      -0.703170       -19.1342
  36   2.0000      -0.686807       -18.6890
  37   2.0000      -0.664591       -18.0844
  38   2.0000      -0.638661       -17.3788
  39   2.0000      -0.618207       -16.8223
  40   2.0000      -0.588596       -16.0165
  41   2.0000      -0.570960       -15.5366
  42   2.0000      -0.558659       -15.2019
  43   2.0000      -0.546091       -14.8599
  44   2.0000      -0.539030       -14.6677
  45   2.0000      -0.535304       -14.5664
  46   2.0000      -0.513629       -13.9766
  47   2.0000      -0.505488       -13.7550
  48   2.0000      -0.497866       -13.5476
  49   2.0000      -0.493531       -13.4297
  50   2.0000      -0.489865       -13.3299
  51   2.0000      -0.478405       -13.0181
  52   2.0000      -0.471139       -12.8203
  53   2.0000      -0.463005       -12.5990
  54   2.0000      -0.454284       -12.3617
  55   2.0000      -0.448075       -12.1927
  56   2.0000      -0.443032       -12.0555
  57   2.0000      -0.435253       -11.8438
  58   2.0000      -0.428575       -11.6621
  59   2.0000      -0.424297       -11.5457
  60   2.0000      -0.420056       -11.4303
  61   2.0000      -0.415494       -11.3062
  62   2.0000      -0.404359       -11.0032
  63   2.0000      -0.349506        -9.5105
  64   2.0000      -0.334018        -9.0891
  65   2.0000      -0.328726        -8.9451
  66   2.0000      -0.285105        -7.7581
  67   0.0000       0.020150         0.5483
  68   0.0000       0.072265         1.9664
  69   0.0000       0.100299         2.7293
  70   0.0000       0.116917         3.1815
  71   0.0000       0.134295         3.6543

MULLIKEN ATOMIC CHARGES
-----------------------
   0 S :    0.101394
   1 C :   -0.151862
   2 C :   -0.051592
   3 C :   -0.001740
   4 C :   -0.144360
   5 H :    0.041077
   6 C :    0.136098
   7 H :   -0.006052
   8 H :    0.009438
   9 C :   -0.086760
  10 H :    0.032988
  11 H :    0.026953
  12 C :   -0.074150
  13 H :    0.020126
  14 H :    0.056432
  15 H :    0.014300
  16 S :    0.099537
  17 C :   -0.099233
  18 C :   -0.009146
  19 C :   -0.041763
  20 C :   -0.152736
  21 H :   -0.000677
  22 C :    0.079162
  23 H :    0.032650
  24 H :   -0.001304
  25 C :   -0.050584
  26 H :    0.042937
  27 H :    0.015490
  28 C :   -0.073457
  29 H :    0.043440
  30 H :    0.015284
  31 H :    0.047057
  32 H :    0.079481
  33 H :    0.051571
Sum of atomic charges:   -0.0000000

LOEWDIN ATOMIC CHARGES
----------------------
   0 S :    0.376018
   1 C :   -0.189771
   2 C :   -0.065796
   3 C :   -0.048804
   4 C :   -0.182036
   5 H :    0.041080
   6 C :   -0.034319
   7 H :    0.023637
   8 H :    0.028323
   9 C :   -0.031947
  10 H :    0.023284
  11 H :    0.026805
  12 C :   -0.075261
  13 H :    0.016735
  14 H :    0.029894
  15 H :    0.026032
  16 S :    0.396467
  17 C :   -0.178497
  18 C :   -0.063601
  19 C :   -0.057602
  20 C :   -0.193199
  21 H :    0.025377
  22 C :   -0.040249
  23 H :    0.038508
  24 H :    0.024435
  25 C :   -0.036673
  26 H :    0.028795
  27 H :    0.017546
  28 C :   -0.076938
  29 H :    0.032685
  30 H :    0.021903
  31 H :    0.029092
  32 H :    0.043430
  33 H :    0.024648

  Mayer bond orders larger than 0.100000
B(  0-S ,  1-C ) :   1.1255 B(  0-S ,  4-C ) :   1.1359 B(  1-C ,  2-C ) :   1.6131
B(  1-C , 32-H ) :   0.9602 B(  2-C ,  3-C ) :   1.2239 B(  2-C ,  6-C ) :   1.0424
B(  3-C ,  4-C ) :   1.5645 B(  3-C ,  5-H ) :   0.9810 B(  4-C , 20-C ) :   1.0816
B(  6-C ,  7-H ) :   0.9256 B(  6-C ,  8-H ) :   0.9336 B(  6-C ,  9-C ) :   1.0656
B(  9-C , 10-H ) :   0.9608 B(  9-C , 11-H ) :   0.9556 B(  9-C , 12-C ) :   1.0784
B( 12-C , 13-H ) :   0.9750 B( 12-C , 14-H ) :   0.9718 B( 12-C , 15-H ) :   0.9688
B( 16-S , 17-C ) :   1.1469 B( 16-S , 20-C ) :   1.1497 B( 17-C , 18-C ) :   1.6105
B( 17-C , 33-H ) :   0.9702 B( 18-C , 19-C ) :   1.2297 B( 18-C , 21-H ) :   1.0012
B( 19-C , 20-C ) :   1.5488 B( 19-C , 22-C ) :   1.0625 B( 22-C , 23-H ) :   0.9301
B( 22-C , 24-H ) :   0.9197 B( 22-C , 25-C ) :   1.0667 B( 25-C , 26-H ) :   0.9497
B( 25-C , 27-H ) :   0.9548 B( 25-C , 28-C ) :   1.0828 B( 28-C , 29-H ) :   0.9749
B( 28-C , 30-H ) :   0.9752 B( 28-C , 31-H ) :   0.9680

Dispersion correction           -0.015826864
FINAL SINGLE POINT ENERGY     -1339.869587097095

DIPOLE MOMENT
-------------
                                X             Y             Z
Electronic contribution:     -3.79380      16.40518      12.68886
Nuclear contribution   :      4.12988     -16.84761     -13.07729
                        -----------------------------------------
Total Dipole Moment    :      0.33608      -0.44242      -0.38843
                        -----------------------------------------
Magnitude (a.u.)       :      0.67791
Magnitude (Debye)      :      1.72312

Rotational constants in cm-1:     0.019453     0.009126     0.008549
Rotational constants in MHz :   583.180480   273.576400   256.285254

                             ****ORCA TERMINATED NORMALLY****
TOTAL RUN TIME: 0 days 0 hours 0 minutes 35 seconds 329 msec
