                         Program Version 4.2.1 -  RELEASE  -
|  1> ! wB97X-D3 SP def2-SVP
|  2> %pal
|  3> nprocs 16
|  4> end
|  5>
|  6> * xyz 0 1
|  7> S 	 0.0925392 	 9.18418 	 78.6481
|  8> C 	 -0.650825 	 8.6261 	 77.1988
|  9> C 	 -1.99954 	 8.37917 	 77.355
| 10> C 	 -2.42779 	 8.51705 	 78.6941
| 11> C 	 -1.37214 	 8.81029 	 79.5941
| 12> H 	 -3.48199 	 8.44528 	 79.0974
| 13> C 	 -2.86707 	 7.70622 	 76.3071
| 14> H 	 -3.50196 	 8.42713 	 75.8821
| 15> H 	 -3.57487 	 7.14817 	 77.0113
| 16> C 	 -2.28372 	 6.61889 	 75.3713
| 17> H 	 -1.79531 	 7.10254 	 74.5044
| 18> H 	 -1.59667 	 5.92193 	 75.9367
| 19> C 	 -3.30058 	 5.66753 	 74.7623
| 20> H 	 -3.17061 	 4.6139 	 74.9794
| 21> H 	 -4.31835 	 5.92082 	 75.0666
| 22> H 	 -3.30141 	 5.6624 	 73.7112
| 23> S 	 -0.439918 	 10.3605 	 81.599
| 24> C 	 -1.25457 	 10.2459 	 83.1188
| 25> C 	 -2.33101 	 9.36454 	 83.1419
| 26> C 	 -2.48437 	 8.67137 	 81.896
| 27> C 	 -1.57288 	 9.20996 	 80.9223
| 28> H 	 -2.85771 	 9.11376 	 84.0084
| 29> C 	 -3.52854 	 7.54447 	 81.6408
| 30> H 	 -3.74012 	 7.13374 	 82.6448
| 31> H 	 -3.0001 	 6.86894 	 80.9963
| 32> C 	 -4.86704 	 8.00551 	 81.0898
| 33> H 	 -4.95544 	 7.49537 	 80.1083
| 34> H 	 -4.79525 	 9.14882 	 80.8915
| 35> C 	 -6.09677 	 7.88562 	 81.9957
| 36> H 	 -6.30605 	 6.82875 	 82.1617
| 37> H 	 -6.95552 	 8.33591 	 81.5988
| 38> H 	 -5.93525 	 8.29778 	 83.0222
| 39> H 	 0.0389413 	 8.44666 	 76.2983
| 40> H 	 -0.760496 	 10.6289 	 84.0217
| 41> *
| 42>
| 43>                          ****END OF INPUT****

CARTESIAN COORDINATES (ANGSTROEM)
---------------------------------
  S      0.092539    9.184180   78.648100
  C     -0.650825    8.626100   77.198800
  C     -1.999540    8.379170   77.355000
  C     -2.427790    8.517050   78.694100
  C     -1.372140    8.810290   79.594100
  H     -3.481990    8.445280   79.097400
  C     -2.867070    7.706220   76.307100
  H     -3.501960    8.427130   75.882100
  H     -3.574870    7.148170   77.011300
  C     -2.283720    6.618890   75.371300
  H     -1.795310    7.102540   74.504400
  H     -1.596670    5.921930   75.936700
  C     -3.300580    5.667530   74.762300
  H     -3.170610    4.613900   74.979400
  H     -4.318350    5.920820   75.066600
  H     -3.301410    5.662400   73.711200
  S     -0.439918   10.360500   81.599000
  C     -1.254570   10.245900   83.118800
  C     -2.331010    9.364540   83.141900
  C     -2.484370    8.671370   81.896000
  C     -1.572880    9.209960   80.922300
  H     -2.857710    9.113760   84.008400
  C     -3.528540    7.544470   81.640800
  H     -3.740120    7.133740   82.644800
  H     -3.000100    6.868940   80.996300
  C     -4.867040    8.005510   81.089800
  H     -4.955440    7.495370   80.108300
  H     -4.795250    9.148820   80.891500
  C     -6.096770    7.885620   81.995700
  H     -6.306050    6.828750   82.161700
  H     -6.955520    8.335910   81.598800
  H     -5.935250    8.297780   83.022200
  H      0.038941    8.446660   76.298300
  H     -0.760496   10.628900   84.021700

 Total Charge           Charge          ....    0
 Multiplicity           Mult            ....    1
 Number of Electrons    NEL             ....  134
 Basis Dimension        Dim             ....  322

ORBITAL ENERGIES
----------------

  NO   OCC          E(Eh)            E(eV)
   0   2.0000     -88.967546     -2420.9300
   1   2.0000     -88.964525     -2420.8478
   2   2.0000     -10.327028      -281.0127
   3   2.0000     -10.323864      -280.9266
   4   2.0000     -10.317478      -280.7528
   5   2.0000     -10.314662      -280.6762
   6   2.0000     -10.307068      -280.4696
   7   2.0000     -10.300486      -280.2905
   8   2.0000     -10.298289      -280.2307
   9   2.0000     -10.297088      -280.1980
  10   2.0000     -10.296015      -280.1688
  11   2.0000     -10.295542      -280.1559
  12   2.0000     -10.294416      -280.1253
  13   2.0000     -10.292078      -280.0617
  14   2.0000     -10.281764      -279.7810
  15   2.0000     -10.272063      -279.5170
  16   2.0000      -8.082688      -219.9411
  17   2.0000      -8.079438      -219.8527
  18   2.0000      -6.041043      -164.3851
  19   2.0000      -6.037934      -164.3005
  20   2.0000      -6.037276      -164.2826
  21   2.0000      -6.034010      -164.1938
  22   2.0000      -6.033474      -164.1792
  23   2.0000      -6.030136      -164.0883
  24   2.0000      -1.006238       -27.3811
  25   2.0000      -0.980694       -26.6860
  26   2.0000      -0.911793       -24.8111
  27   2.0000      -0.908922       -24.7330
  28   2.0000      -0.872417       -23.7397
  29   2.0000      -0.856247       -23.2997
  30   2.0000      -0.849499       -23.1160
  31   2.0000      -0.808751       -22.0072
  32   2.0000      -0.788189       -21.4477
  33   2.0000      -0.767431       -20.8829
  34   2.0000      -0.708177       -19.2705
  35   2.0000      -0.700954       -19.0739
  36   2.0000      -0.688082       -18.7237
  37   2.0000      -0.668291       -18.1851
  38   2.0000      -0.632151       -17.2017
  39   2.0000      -0.609282       -16.5794
  40   2.0000      -0.592228       -16.1153
  41   2.0000      -0.569837       -15.5061
  42   2.0000      -0.567278       -15.4364
  43   2.0000      -0.558546       -15.1988
  44   2.0000      -0.537387       -14.6231
  45   2.0000      -0.523636       -14.2488
  46   2.0000      -0.521518       -14.1912
  47   2.0000      -0.515115       -14.0170
  48   2.0000      -0.500305       -13.6140
  49   2.0000      -0.494938       -13.4679
  50   2.0000      -0.491208       -13.3664
  51   2.0000      -0.480602       -13.0778
  52   2.0000      -0.470926       -12.8145
  53   2.0000      -0.466930       -12.7058
  54   2.0000      -0.463178       -12.6037
  55   2.0000      -0.452820       -12.3219
  56   2.0000      -0.448012       -12.1910
  57   2.0000      -0.437124       -11.8947
  58   2.0000      -0.428935       -11.6719
  59   2.0000      -0.427978       -11.6459
  60   2.0000      -0.419952       -11.4275
  61   2.0000      -0.410369       -11.1667
  62   2.0000      -0.404410       -11.0046
  63   2.0000      -0.359162        -9.7733
  64   2.0000      -0.335332        -9.1248
  65   2.0000      -0.327042        -8.8993
  66   2.0000      -0.271767        -7.3952
  67   0.0000       0.015425         0.4197
  68   0.0000       0.078913         2.1473
  69   0.0000       0.099598         2.7102
  70   0.0000       0.119001         3.2382
  71   0.0000       0.128700         3.5021

MULLIKEN ATOMIC CHARGES
-----------------------
   0 S :    0.088860
   1 C :   -0.164738
   2 C :   -0.049006
   3 C :   -0.037505
   4 C :   -0.122319
   5 H :    0.016630
   6 C :    0.052989
   7 H :    0.030994
   8 H :    0.023752
   9 C :   -0.076455
  10 H :    0.040722
  11 H :    0.048384
  12 C :   -0.034666
  13 H :    0.028311
  14 H :    0.021039
  15 H :    0.015856
  16 S :    0.109947
  17 C :   -0.102250
  18 C :    0.004764
  19 C :   -0.108267
  20 C :   -0.135923
  21 H :   -0.005205
  22 C :    0.091596
  23 H :    0.022139
  24 H :    0.040148
  25 C :   -0.154126
  26 H :    0.052272
  27 H :    0.064812
  28 C :   -0.006936
  29 H :    0.026036
  30 H :    0.031121
  31 H :    0.034183
  32 H :    0.086089
  33 H :    0.066750
Sum of atomic charges:    0.0000000

LOEWDIN ATOMIC CHARGES
----------------------
   0 S :    0.393835
   1 C :   -0.210825
   2 C :   -0.073749
   3 C :   -0.067624
   4 C :   -0.188263
   5 H :    0.043436
   6 C :   -0.034397
   7 H :    0.025570
   8 H :    0.036915
   9 C :   -0.046514
  10 H :    0.027917
  11 H :    0.037876
  12 C :   -0.067417
  13 H :    0.027131
  14 H :    0.024787
  15 H :    0.019559
  16 S :    0.415698
  17 C :   -0.199016
  18 C :   -0.064840
  19 C :   -0.050307
  20 C :   -0.199676
  21 H :    0.021375
  22 C :   -0.031199
  23 H :    0.033974
  24 H :    0.031755
  25 C :   -0.059910
  26 H :    0.026065
  27 H :    0.037713
  28 C :   -0.061792
  29 H :    0.023800
  30 H :    0.021606
  31 H :    0.030959
  32 H :    0.045171
  33 H :    0.030387

  Mayer bond orders larger than 0.100000
B(  0-S ,  1-C ) :   1.1480 B(  0-S ,  4-C ) :   1.1370 B(  1-C ,  2-C ) :   1.5784
B(  1-C , 32-H ) :   0.9572 B(  2-C ,  3-C ) :   1.2848 B(  2-C ,  6-C ) :   1.0026
B(  3-C ,  4-C ) :   1.5143 B(  3-C ,  5-H ) :   0.9720 B(  4-C , 20-C ) :   1.1506
B(  6-C ,  7-H ) :   0.9267 B(  6-C ,  8-H ) :   0.9535 B(  6-C ,  9-C ) :   1.0711
B(  9-C , 10-H ) :   0.9561 B(  9-C , 11-H ) :   0.9636 B(  9-C , 12-C ) :   1.0692
B( 12-C , 13-H ) :   0.9783 B( 12-C , 14-H ) :   0.9772 B( 12-C , 15-H ) :   0.9749
B( 16-S , 17-C ) :   1.1632 B( 16-S , 20-C ) :   1.1417 B( 17-C , 18-C ) :   1.5803
B( 17-C , 33-H ) :   0.9629 B( 18-C , 19-C ) :   1.2787 B( 18-C , 21-H ) :   0.9955
B( 19-C , 20-C ) :   1.5212 B( 19-C , 22-C ) :   1.0541 B( 22-C , 23-H ) :   0.9367
B( 22-C , 24-H ) :   0.9304 B( 22-C , 25-C ) :   1.0275 B( 25-C , 26-H ) :   0.9411
B( 25-C , 27-H ) :   0.9603 B( 25-C , 28-C ) :   1.0801 B( 28-C , 29-H ) :   0.9707
B( 28-C , 30-H ) :   0.9733 B( 28-C , 31-H ) :   0.9701

Dispersion correction           -0.014026179
FINAL SINGLE POINT ENERGY     -1339.853147457191

DIPOLE MOMENT
-------------
                                X             Y             Z
Electronic contribution:     24.49098      17.25815      10.56319
Nuclear contribution   :    -25.06037     -17.72860     -10.67929
                        -----------------------------------------
Total Dipole Moment    :     -0.56939      -0.47045      -0.11610
                        -----------------------------------------
Magnitude (a.u.)       :      0.74767
Magnitude (Debye)      :      1.90042

Rotational constants in cm-1:     0.018269     0.008800     0.006137
Rotational constants in MHz :   547.676709   263.822267   183.992467

                             ****ORCA TERMINATED NORMALLY****
TOTAL RUN TIME: 0 days 0 hours 0 minutes 32 seconds 497 msec
