                         Program Version 4.2.1 -  RELEASE  -
|  1> ! wB97X-D3 SP def2-SVP
|  2> %pal
|  3> nprocs 16
|  4> end
|  5>
|  6> * xyz 0 1
|  7> S 	 11.6558 	 -5.02155 	 91.4367
|  8> C 	 9.9202 	 -4.93018 	 92.0684
|  9> C 	 9.11608 	 -5.87143 	 91.3804
| 10> C 	 9.84773 	 -6.5726 	 90.3769
| 11> C 	 11.1534 	 -6.21462 	 90.2717
| 12> H 	 9.43431 	 -7.42873 	 89.8748
| 13> C 	 7.67275 	 -6.12373 	 91.561
| 14> H 	 7.31494 	 -6.4866 	 90.6242
| 15> H 	 7.27977 	 -5.13372 	 91.6834
| 16> C 	 7.33454 	 -7.10777 	 92.6885
| 17> H 	 8.17663 	 -7.83127 	 92.8357
| 18> H 	 7.50153 	 -6.55511 	 93.586
| 19> C 	 6.03366 	 -7.904 	 92.4771
| 20> H 	 6.14997 	 -8.76051 	 91.7664
| 21> H 	 5.64043 	 -8.24432 	 93.3847
| 22> H 	 5.3147 	 -7.22007 	 92.0062
| 23> S 	 13.3946 	 -7.77807 	 89.8199
| 24> C 	 13.7391 	 -8.30528 	 88.2218
| 25> C 	 12.7949 	 -7.83267 	 87.3193
| 26> C 	 11.8053 	 -6.99783 	 87.9251
| 27> C 	 12.0536 	 -6.79354 	 89.2855
| 28> H 	 12.8797 	 -8.19621 	 86.2556
| 29> C 	 10.5825 	 -6.6137 	 87.0892
| 30> H 	 9.78833 	 -6.16965 	 87.8151
| 31> H 	 10.2444 	 -7.45077 	 86.6046
| 32> C 	 10.9832 	 -5.5043 	 86.0141
| 33> H 	 11.6926 	 -5.94756 	 85.2439
| 34> H 	 11.5464 	 -4.69887 	 86.4751
| 35> C 	 9.7849 	 -4.91485 	 85.2447
| 36> H 	 10.0902 	 -4.09061 	 84.6676
| 37> H 	 9.06672 	 -4.52052 	 86.0141
| 38> H 	 9.29821 	 -5.57141 	 84.5533
| 39> H 	 9.51271 	 -4.53054 	 93.0253
| 40> H 	 14.6017 	 -8.90315 	 87.9341
| 41> *
| 42>
| 43>                          ****END OF INPUT****

CARTESIAN COORDINATES (ANGSTROEM)
---------------------------------
  S     11.655800   -5.021550   91.436700
  C      9.920200   -4.930180   92.068400
  C      9.116080   -5.871430   91.380400
  C      9.847730   -6.572600   90.376900
  C     11.153400   -6.214620   90.271700
  H      9.434310   -7.428730   89.874800
  C      7.672750   -6.123730   91.561000
  H      7.314940   -6.486600   90.624200
  H      7.279770   -5.133720   91.683400
  C      7.334540   -7.107770   92.688500
  H      8.176630   -7.831270   92.835700
  H      7.501530   -6.555110   93.586000
  C      6.033660   -7.904000   92.477100
  H      6.149970   -8.760510   91.766400
  H      5.640430   -8.244320   93.384700
  H      5.314700   -7.220070   92.006200
  S     13.394600   -7.778070   89.819900
  C     13.739100   -8.305280   88.221800
  C     12.794900   -7.832670   87.319300
  C     11.805300   -6.997830   87.925100
  C     12.053600   -6.793540   89.285500
  H     12.879700   -8.196210   86.255600
  C     10.582500   -6.613700   87.089200
  H      9.788330   -6.169650   87.815100
  H     10.244400   -7.450770   86.604600
  C     10.983200   -5.504300   86.014100
  H     11.692600   -5.947560   85.243900
  H     11.546400   -4.698870   86.475100
  C      9.784900   -4.914850   85.244700
  H     10.090200   -4.090610   84.667600
  H      9.066720   -4.520520   86.014100
  H      9.298210   -5.571410   84.553300
  H      9.512710   -4.530540   93.025300
  H     14.601700   -8.903150   87.934100

 Total Charge           Charge          ....    0
 Multiplicity           Mult            ....    1
 Number of Electrons    NEL             ....  134
 Basis Dimension        Dim             ....  322

ORBITAL ENERGIES
----------------

  NO   OCC          E(Eh)            E(eV)
   0   2.0000     -88.969866     -2420.9931
   1   2.0000     -88.965773     -2420.8817
   2   2.0000     -10.326506      -280.9985
   3   2.0000     -10.324594      -280.9465
   4   2.0000     -10.322520      -280.8900
   5   2.0000     -10.316039      -280.7137
   6   2.0000     -10.305304      -280.4216
   7   2.0000     -10.300388      -280.2878
   8   2.0000     -10.296235      -280.1748
   9   2.0000     -10.295521      -280.1554
  10   2.0000     -10.291199      -280.0378
  11   2.0000     -10.288526      -279.9650
  12   2.0000     -10.286812      -279.9184
  13   2.0000     -10.285149      -279.8731
  14   2.0000     -10.282877      -279.8113
  15   2.0000     -10.273252      -279.5494
  16   2.0000      -8.082917      -219.9473
  17   2.0000      -8.081067      -219.8970
  18   2.0000      -6.041604      -164.4004
  19   2.0000      -6.039471      -164.3424
  20   2.0000      -6.037804      -164.2970
  21   2.0000      -6.035445      -164.2328
  22   2.0000      -6.033435      -164.1781
  23   2.0000      -6.031965      -164.1381
  24   2.0000      -1.005717       -27.3670
  25   2.0000      -0.979698       -26.6589
  26   2.0000      -0.917032       -24.9537
  27   2.0000      -0.900185       -24.4953
  28   2.0000      -0.865629       -23.5550
  29   2.0000      -0.851054       -23.1583
  30   2.0000      -0.845060       -22.9952
  31   2.0000      -0.810996       -22.0683
  32   2.0000      -0.783683       -21.3251
  33   2.0000      -0.770869       -20.9764
  34   2.0000      -0.712821       -19.3968
  35   2.0000      -0.701623       -19.0921
  36   2.0000      -0.692275       -18.8378
  37   2.0000      -0.656054       -17.8521
  38   2.0000      -0.631780       -17.1916
  39   2.0000      -0.620475       -16.8840
  40   2.0000      -0.591184       -16.0869
  41   2.0000      -0.570638       -15.5279
  42   2.0000      -0.561328       -15.2745
  43   2.0000      -0.553301       -15.0561
  44   2.0000      -0.528992       -14.3946
  45   2.0000      -0.521728       -14.1969
  46   2.0000      -0.517427       -14.0799
  47   2.0000      -0.514187       -13.9917
  48   2.0000      -0.502852       -13.6833
  49   2.0000      -0.497542       -13.5388
  50   2.0000      -0.492923       -13.4131
  51   2.0000      -0.481534       -13.1032
  52   2.0000      -0.468771       -12.7559
  53   2.0000      -0.464134       -12.6297
  54   2.0000      -0.458459       -12.4753
  55   2.0000      -0.448911       -12.2155
  56   2.0000      -0.442587       -12.0434
  57   2.0000      -0.441310       -12.0086
  58   2.0000      -0.432350       -11.7648
  59   2.0000      -0.428541       -11.6612
  60   2.0000      -0.423182       -11.5154
  61   2.0000      -0.416069       -11.3218
  62   2.0000      -0.406310       -11.0562
  63   2.0000      -0.338603        -9.2139
  64   2.0000      -0.330152        -8.9839
  65   2.0000      -0.327490        -8.9115
  66   2.0000      -0.295959        -8.0534
  67   0.0000       0.029970         0.8155
  68   0.0000       0.068095         1.8530
  69   0.0000       0.101361         2.7582
  70   0.0000       0.114120         3.1054
  71   0.0000       0.127436         3.4677

MULLIKEN ATOMIC CHARGES
-----------------------
   0 S :    0.105781
   1 C :   -0.125449
   2 C :   -0.153647
   3 C :    0.022352
   4 C :   -0.140838
   5 H :    0.018894
   6 C :    0.100056
   7 H :    0.004349
   8 H :    0.030268
   9 C :   -0.071041
  10 H :    0.032941
  11 H :    0.011878
  12 C :   -0.027202
  13 H :    0.045471
  14 H :    0.029337
  15 H :    0.032306
  16 S :    0.114445
  17 C :   -0.101532
  18 C :   -0.064449
  19 C :   -0.036900
  20 C :   -0.144883
  21 H :    0.041149
  22 C :    0.083116
  23 H :    0.045798
  24 H :    0.014501
  25 C :   -0.121072
  26 H :    0.032874
  27 H :    0.038624
  28 C :   -0.022624
  29 H :    0.022536
  30 H :    0.034006
  31 H :    0.027532
  32 H :    0.059982
  33 H :    0.061439
Sum of atomic charges:    0.0000000

LOEWDIN ATOMIC CHARGES
----------------------
   0 S :    0.377772
   1 C :   -0.198197
   2 C :   -0.051014
   3 C :   -0.066411
   4 C :   -0.192074
   5 H :    0.031974
   6 C :   -0.031855
   7 H :    0.024547
   8 H :    0.033561
   9 C :   -0.044191
  10 H :    0.030174
  11 H :    0.020312
  12 C :   -0.059849
  13 H :    0.034126
  14 H :    0.020210
  15 H :    0.027218
  16 S :    0.423358
  17 C :   -0.197414
  18 C :   -0.081952
  19 C :   -0.050299
  20 C :   -0.211075
  21 H :    0.041307
  22 C :   -0.023842
  23 H :    0.040568
  24 H :    0.017237
  25 C :   -0.039894
  26 H :    0.025430
  27 H :    0.025630
  28 C :   -0.066723
  29 H :    0.020573
  30 H :    0.030879
  31 H :    0.020336
  32 H :    0.037349
  33 H :    0.032229

  Mayer bond orders larger than 0.100000
B(  0-S ,  1-C ) :   1.1029 B(  0-S ,  4-C ) :   1.1454 B(  1-C ,  2-C ) :   1.6306
B(  1-C , 32-H ) :   0.9577 B(  2-C ,  3-C ) :   1.2409 B(  2-C ,  6-C ) :   1.0215
B(  3-C ,  4-C ) :   1.5890 B(  3-C ,  5-H ) :   0.9901 B(  4-C , 20-C ) :   1.0105
B(  6-C ,  7-H ) :   0.9422 B(  6-C ,  8-H ) :   0.9319 B(  6-C ,  9-C ) :   1.0392
B(  9-C , 10-H ) :   0.9618 B(  9-C , 11-H ) :   0.9543 B(  9-C , 12-C ) :   1.0651
B( 12-C , 13-H ) :   0.9751 B( 12-C , 14-H ) :   0.9746 B( 12-C , 15-H ) :   0.9778
B( 16-S , 17-C ) :   1.1725 B( 16-S , 20-C ) :   1.1520 B( 17-C , 18-C ) :   1.5981
B( 17-C , 33-H ) :   0.9664 B( 18-C , 19-C ) :   1.2459 B( 18-C , 21-H ) :   0.9826
B( 19-C , 20-C ) :   1.5825 B( 19-C , 22-C ) :   1.0413 B( 22-C , 23-H ) :   0.9343
B( 22-C , 24-H ) :   0.9353 B( 22-C , 25-C ) :   1.0506 B( 25-C , 26-H ) :   0.9563
B( 25-C , 27-H ) :   0.9603 B( 25-C , 28-C ) :   1.0885 B( 28-C , 29-H ) :   0.9730
B( 28-C , 30-H ) :   0.9734 B( 28-C , 31-H ) :   0.9749

Dispersion correction           -0.013858813
FINAL SINGLE POINT ENERGY     -1339.863999686418

DIPOLE MOMENT
-------------
                                X             Y             Z
Electronic contribution:     25.29779       0.15014       9.54750
Nuclear contribution   :    -25.89786      -0.52719      -9.84688
                        -----------------------------------------
Total Dipole Moment    :     -0.60008      -0.37705      -0.29937
                        -----------------------------------------
Magnitude (a.u.)       :      0.76934
Magnitude (Debye)      :      1.95550

Rotational constants in cm-1:     0.016446     0.008204     0.006861
Rotational constants in MHz :   493.025822   245.951195   205.677460

                             ****ORCA TERMINATED NORMALLY****
TOTAL RUN TIME: 0 days 0 hours 0 minutes 31 seconds 848 msec
