                         Program Version 4.2.1 -  RELEASE  -
|  1> ! wB97X-D3 SP def2-SVP
|  2> %pal
|  3> nprocs 16
|  4> end
|  5>
|  6> * xyz 0 1
|  7> S 	 -31.6157 	 61.2508 	 113.662
|  8> C 	 -33.3653 	 61.3415 	 113.334
|  9> C 	 -33.9962 	 62.0707 	 114.335
| 10> C 	 -33.1586 	 62.5932 	 115.352
| 11> C 	 -31.8552 	 62.2516 	 115.119
| 12> H 	 -33.3665 	 63.167 	 116.27
| 13> C 	 -35.476 	 62.3254 	 114.423
| 14> H 	 -35.7024 	 62.7563 	 115.384
| 15> H 	 -36.002 	 61.3294 	 114.239
| 16> C 	 -36.0185 	 63.2854 	 113.418
| 17> H 	 -35.5123 	 64.3062 	 113.541
| 18> H 	 -35.832 	 62.8534 	 112.335
| 19> C 	 -37.5666 	 63.5257 	 113.567
| 20> H 	 -37.7423 	 63.928 	 114.594
| 21> H 	 -37.8008 	 64.3206 	 112.849
| 22> H 	 -38.1867 	 62.6771 	 113.27
| 23> S 	 -29.8917 	 64.2253 	 115.398
| 24> C 	 -28.9028 	 64.2332 	 116.897
| 25> C 	 -29.0892 	 63.0281 	 117.507
| 26> C 	 -30.1123 	 62.2198 	 117.035
| 27> C 	 -30.7004 	 62.751 	 115.868
| 28> H 	 -28.4259 	 62.9027 	 118.275
| 29> C 	 -30.5038 	 61.0355 	 117.855
| 30> H 	 -29.6294 	 60.4392 	 117.808
| 31> H 	 -31.3385 	 60.5013 	 117.367
| 32> C 	 -30.926 	 61.2182 	 119.339
| 33> H 	 -31.7404 	 61.9116 	 119.301
| 34> H 	 -30.1113 	 61.6619 	 120.006
| 35> C 	 -31.2967 	 59.9112 	 120.005
| 36> H 	 -30.4401 	 59.1857 	 119.947
| 37> H 	 -32.1349 	 59.3735 	 119.6
| 38> H 	 -31.4276 	 60.0978 	 121.09
| 39> H 	 -33.9143 	 60.9169 	 112.473
| 40> H 	 -28.2722 	 65.0366 	 117.222
| 41> *
| 42>
| 43>                          ****END OF INPUT****

CARTESIAN COORDINATES (ANGSTROEM)
---------------------------------
  S    -31.615700   61.250800  113.662000
  C    -33.365300   61.341500  113.334000
  C    -33.996200   62.070700  114.335000
  C    -33.158600   62.593200  115.352000
  C    -31.855200   62.251600  115.119000
  H    -33.366500   63.167000  116.270000
  C    -35.476000   62.325400  114.423000
  H    -35.702400   62.756300  115.384000
  H    -36.002000   61.329400  114.239000
  C    -36.018500   63.285400  113.418000
  H    -35.512300   64.306200  113.541000
  H    -35.832000   62.853400  112.335000
  C    -37.566600   63.525700  113.567000
  H    -37.742300   63.928000  114.594000
  H    -37.800800   64.320600  112.849000
  H    -38.186700   62.677100  113.270000
  S    -29.891700   64.225300  115.398000
  C    -28.902800   64.233200  116.897000
  C    -29.089200   63.028100  117.507000
  C    -30.112300   62.219800  117.035000
  C    -30.700400   62.751000  115.868000
  H    -28.425900   62.902700  118.275000
  C    -30.503800   61.035500  117.855000
  H    -29.629400   60.439200  117.808000
  H    -31.338500   60.501300  117.367000
  C    -30.926000   61.218200  119.339000
  H    -31.740400   61.911600  119.301000
  H    -30.111300   61.661900  120.006000
  C    -31.296700   59.911200  120.005000
  H    -30.440100   59.185700  119.947000
  H    -32.134900   59.373500  119.600000
  H    -31.427600   60.097800  121.090000
  H    -33.914300   60.916900  112.473000
  H    -28.272200   65.036600  117.222000

 Total Charge           Charge          ....    0
 Multiplicity           Mult            ....    1
 Number of Electrons    NEL             ....  134
 Basis Dimension        Dim             ....  322

ORBITAL ENERGIES
----------------

  NO   OCC          E(Eh)            E(eV)
   0   2.0000     -88.967922     -2420.9402
   1   2.0000     -88.962072     -2420.7810
   2   2.0000     -10.328309      -281.0476
   3   2.0000     -10.325334      -280.9666
   4   2.0000     -10.318854      -280.7903
   5   2.0000     -10.316696      -280.7316
   6   2.0000     -10.299624      -280.2670
   7   2.0000     -10.299365      -280.2600
   8   2.0000     -10.298478      -280.2358
   9   2.0000     -10.295286      -280.1490
  10   2.0000     -10.291105      -280.0352
  11   2.0000     -10.289343      -279.9873
  12   2.0000     -10.286738      -279.9164
  13   2.0000     -10.284097      -279.8445
  14   2.0000     -10.281253      -279.7671
  15   2.0000     -10.280568      -279.7485
  16   2.0000      -8.081411      -219.9064
  17   2.0000      -8.076262      -219.7663
  18   2.0000      -6.039977      -164.3561
  19   2.0000      -6.036130      -164.2515
  20   2.0000      -6.034788      -164.2149
  21   2.0000      -6.032140      -164.1429
  22   2.0000      -6.030770      -164.1056
  23   2.0000      -6.027101      -164.0058
  24   2.0000      -1.002933       -27.2912
  25   2.0000      -0.981940       -26.7200
  26   2.0000      -0.911618       -24.8064
  27   2.0000      -0.908394       -24.7187
  28   2.0000      -0.867540       -23.6070
  29   2.0000      -0.851529       -23.1713
  30   2.0000      -0.846925       -23.0460
  31   2.0000      -0.816570       -22.2200
  32   2.0000      -0.779559       -21.2129
  33   2.0000      -0.766885       -20.8680
  34   2.0000      -0.706071       -19.2132
  35   2.0000      -0.696303       -18.9474
  36   2.0000      -0.686007       -18.6672
  37   2.0000      -0.658920       -17.9301
  38   2.0000      -0.640452       -17.4276
  39   2.0000      -0.614862       -16.7313
  40   2.0000      -0.596309       -16.2264
  41   2.0000      -0.575456       -15.6590
  42   2.0000      -0.569465       -15.4959
  43   2.0000      -0.559339       -15.2204
  44   2.0000      -0.532166       -14.4810
  45   2.0000      -0.516579       -14.0568
  46   2.0000      -0.515273       -14.0213
  47   2.0000      -0.510284       -13.8855
  48   2.0000      -0.505106       -13.7446
  49   2.0000      -0.501303       -13.6411
  50   2.0000      -0.491819       -13.3831
  51   2.0000      -0.479246       -13.0409
  52   2.0000      -0.474120       -12.9015
  53   2.0000      -0.466159       -12.6848
  54   2.0000      -0.454037       -12.3550
  55   2.0000      -0.443699       -12.0737
  56   2.0000      -0.442153       -12.0316
  57   2.0000      -0.429827       -11.6962
  58   2.0000      -0.426382       -11.6024
  59   2.0000      -0.422185       -11.4882
  60   2.0000      -0.420205       -11.4343
  61   2.0000      -0.417974       -11.3737
  62   2.0000      -0.412155       -11.2153
  63   2.0000      -0.340658        -9.2698
  64   2.0000      -0.329081        -8.9548
  65   2.0000      -0.313120        -8.5204
  66   2.0000      -0.308145        -8.3850
  67   0.0000       0.044256         1.2043
  68   0.0000       0.046765         1.2725
  69   0.0000       0.109883         2.9901
  70   0.0000       0.119695         3.2571
  71   0.0000       0.132078         3.5940

MULLIKEN ATOMIC CHARGES
-----------------------
   0 S :    0.113875
   1 C :   -0.134064
   2 C :   -0.059839
   3 C :    0.035999
   4 C :   -0.184773
   5 H :    0.031556
   6 C :    0.083564
   7 H :    0.007341
   8 H :    0.039069
   9 C :   -0.155395
  10 H :    0.043985
  11 H :    0.037966
  12 C :   -0.046238
  13 H :    0.038156
  14 H :    0.036359
  15 H :    0.040825
  16 S :    0.103725
  17 C :   -0.116272
  18 C :    0.000514
  19 C :    0.017616
  20 C :   -0.189261
  21 H :   -0.017050
  22 C :    0.078001
  23 H :    0.019489
  24 H :    0.028182
  25 C :   -0.076730
  26 H :    0.026519
  27 H :    0.036244
  28 C :   -0.056579
  29 H :    0.027915
  30 H :    0.033670
  31 H :    0.040187
  32 H :    0.058432
  33 H :    0.057011
Sum of atomic charges:    0.0000000

LOEWDIN ATOMIC CHARGES
----------------------
   0 S :    0.384788
   1 C :   -0.196450
   2 C :   -0.063303
   3 C :   -0.060144
   4 C :   -0.181922
   5 H :    0.044563
   6 C :   -0.041978
   7 H :    0.024309
   8 H :    0.039553
   9 C :   -0.050938
  10 H :    0.030996
  11 H :    0.028066
  12 C :   -0.071198
  13 H :    0.028161
  14 H :    0.028532
  15 H :    0.025003
  16 S :    0.389125
  17 C :   -0.163445
  18 C :   -0.063583
  19 C :   -0.056600
  20 C :   -0.210879
  21 H :    0.018242
  22 C :   -0.032068
  23 H :    0.029006
  24 H :    0.033792
  25 C :   -0.040235
  26 H :    0.019766
  27 H :    0.030544
  28 C :   -0.069516
  29 H :    0.029330
  30 H :    0.021074
  31 H :    0.031830
  32 H :    0.036433
  33 H :    0.029144

  Mayer bond orders larger than 0.100000
B(  0-S ,  1-C ) :   1.1214 B(  0-S ,  4-C ) :   1.1472 B(  1-C ,  2-C ) :   1.6234
B(  1-C , 32-H ) :   0.9655 B(  2-C ,  3-C ) :   1.2154 B(  2-C ,  6-C ) :   1.0258
B(  3-C ,  4-C ) :   1.6143 B(  3-C ,  5-H ) :   0.9881 B(  4-C , 20-C ) :   1.0129
B(  6-C ,  7-H ) :   0.9361 B(  6-C ,  8-H ) :   0.9350 B(  6-C ,  9-C ) :   1.0724
B(  9-C , 10-H ) :   0.9530 B(  9-C , 11-H ) :   0.9532 B(  9-C , 12-C ) :   1.0770
B( 12-C , 13-H ) :   0.9725 B( 12-C , 14-H ) :   0.9759 B( 12-C , 15-H ) :   0.9751
B( 16-S , 17-C ) :   1.1455 B( 16-S , 20-C ) :   1.1535 B( 17-C , 18-C ) :   1.6061
B( 17-C , 20-C ) :   0.1063 B( 17-C , 33-H ) :   0.9723 B( 18-C , 19-C ) :   1.2314
B( 18-C , 21-H ) :   1.0064 B( 19-C , 20-C ) :   1.5636 B( 19-C , 22-C ) :   1.0542
B( 22-C , 23-H ) :   0.9207 B( 22-C , 24-H ) :   0.9319 B( 22-C , 25-C ) :   1.0667
B( 25-C , 26-H ) :   0.9556 B( 25-C , 27-H ) :   0.9492 B( 25-C , 28-C ) :   1.0876
B( 28-C , 29-H ) :   0.9720 B( 28-C , 30-H ) :   0.9750 B( 28-C , 31-H ) :   0.9732

Dispersion correction           -0.013611304
FINAL SINGLE POINT ENERGY     -1339.868130710029

DIPOLE MOMENT
-------------
                                X             Y             Z
Electronic contribution:     19.90080       5.06496     -12.45066
Nuclear contribution   :    -20.21647      -5.09447      12.96606
                        -----------------------------------------
Total Dipole Moment    :     -0.31567      -0.02952       0.51539
                        -----------------------------------------
Magnitude (a.u.)       :      0.60510
Magnitude (Debye)      :      1.53804

Rotational constants in cm-1:     0.018427     0.007357     0.006387
Rotational constants in MHz :   552.421073   220.564469   191.477685

                             ****ORCA TERMINATED NORMALLY****
TOTAL RUN TIME: 0 days 0 hours 0 minutes 28 seconds 699 msec
