                         Program Version 4.2.1 -  RELEASE  -
|  1> ! wB97X-D3 SP def2-SVP
|  2> %pal
|  3> nprocs 16
|  4> end
|  5>
|  6> * xyz 0 1
|  7> S 	 -5.85486 	 41.7947 	 34.665
|  8> C 	 -6.83003 	 41.287 	 33.2257
|  9> C 	 -6.91662 	 42.3814 	 32.365
| 10> C 	 -6.14191 	 43.5137 	 32.767
| 11> C 	 -5.49 	 43.3576 	 33.9655
| 12> H 	 -5.92637 	 44.4345 	 32.2912
| 13> C 	 -7.47258 	 42.202 	 30.9689
| 14> H 	 -8.13546 	 43.1361 	 30.9028
| 15> H 	 -8.19059 	 41.3914 	 30.9662
| 16> C 	 -6.3845 	 42.0108 	 29.8343
| 17> H 	 -5.71892 	 42.7806 	 29.8973
| 18> H 	 -5.80832 	 41.1084 	 29.9679
| 19> C 	 -6.90111 	 41.9641 	 28.4426
| 20> H 	 -7.73461 	 42.684 	 28.3841
| 21> H 	 -6.11854 	 42.221 	 27.731
| 22> H 	 -7.22602 	 40.9562 	 28.2575
| 23> S 	 -5.75566 	 44.8755 	 36.1784
| 24> C 	 -4.5609 	 46.0976 	 36.618
| 25> C 	 -3.45835 	 45.9973 	 35.7449
| 26> C 	 -3.64508 	 44.9904 	 34.6718
| 27> C 	 -4.8928 	 44.4002 	 34.7628
| 28> H 	 -2.57967 	 46.6365 	 35.8701
| 29> C 	 -2.63317 	 44.7556 	 33.5554
| 30> H 	 -2.18045 	 45.7163 	 33.5018
| 31> H 	 -3.14645 	 44.4956 	 32.602
| 32> C 	 -1.65475 	 43.6521 	 33.9251
| 33> H 	 -2.28769 	 42.8174 	 34.1746
| 34> H 	 -1.12959 	 43.7712 	 34.856
| 35> C 	 -0.774879 	 43.192 	 32.769
| 36> H 	 -1.31236 	 42.7583 	 31.8858
| 37> H 	 -0.279574 	 42.2391 	 33.0949
| 38> H 	 -0.0567487 	 43.881 	 32.3951
| 39> H 	 -7.46879 	 40.4251 	 33.2768
| 40> H 	 -4.53672 	 46.7106 	 37.4925
| 41> *
| 42>
| 43>                          ****END OF INPUT****

CARTESIAN COORDINATES (ANGSTROEM)
---------------------------------
  S     -5.854860   41.794700   34.665000
  C     -6.830030   41.287000   33.225700
  C     -6.916620   42.381400   32.365000
  C     -6.141910   43.513700   32.767000
  C     -5.490000   43.357600   33.965500
  H     -5.926370   44.434500   32.291200
  C     -7.472580   42.202000   30.968900
  H     -8.135460   43.136100   30.902800
  H     -8.190590   41.391400   30.966200
  C     -6.384500   42.010800   29.834300
  H     -5.718920   42.780600   29.897300
  H     -5.808320   41.108400   29.967900
  C     -6.901110   41.964100   28.442600
  H     -7.734610   42.684000   28.384100
  H     -6.118540   42.221000   27.731000
  H     -7.226020   40.956200   28.257500
  S     -5.755660   44.875500   36.178400
  C     -4.560900   46.097600   36.618000
  C     -3.458350   45.997300   35.744900
  C     -3.645080   44.990400   34.671800
  C     -4.892800   44.400200   34.762800
  H     -2.579670   46.636500   35.870100
  C     -2.633170   44.755600   33.555400
  H     -2.180450   45.716300   33.501800
  H     -3.146450   44.495600   32.602000
  C     -1.654750   43.652100   33.925100
  H     -2.287690   42.817400   34.174600
  H     -1.129590   43.771200   34.856000
  C     -0.774879   43.192000   32.769000
  H     -1.312360   42.758300   31.885800
  H     -0.279574   42.239100   33.094900
  H     -0.056749   43.881000   32.395100
  H     -7.468790   40.425100   33.276800
  H     -4.536720   46.710600   37.492500

 Total Charge           Charge          ....    0
 Multiplicity           Mult            ....    1
 Number of Electrons    NEL             ....  134
 Basis Dimension        Dim             ....  322

ORBITAL ENERGIES
----------------

  NO   OCC          E(Eh)            E(eV)
   0   2.0000     -88.965195     -2420.8660
   1   2.0000     -88.962892     -2420.8034
   2   2.0000     -10.327572      -281.0275
   3   2.0000     -10.322012      -280.8762
   4   2.0000     -10.321063      -280.8504
   5   2.0000     -10.319427      -280.8059
   6   2.0000     -10.306572      -280.4561
   7   2.0000     -10.306331      -280.4495
   8   2.0000     -10.303257      -280.3659
   9   2.0000     -10.299148      -280.2541
  10   2.0000     -10.292429      -280.0712
  11   2.0000     -10.290616      -280.0219
  12   2.0000     -10.279901      -279.7303
  13   2.0000     -10.278110      -279.6816
  14   2.0000     -10.277803      -279.6732
  15   2.0000     -10.273806      -279.5645
  16   2.0000      -8.080045      -219.8692
  17   2.0000      -8.076925      -219.7843
  18   2.0000      -6.038659      -164.3203
  19   2.0000      -6.035367      -164.2307
  20   2.0000      -6.034444      -164.2056
  21   2.0000      -6.031427      -164.1235
  22   2.0000      -6.030744      -164.1049
  23   2.0000      -6.027888      -164.0272
  24   2.0000      -1.005711       -27.3668
  25   2.0000      -0.977776       -26.6066
  26   2.0000      -0.911451       -24.8018
  27   2.0000      -0.910203       -24.7679
  28   2.0000      -0.873286       -23.7633
  29   2.0000      -0.849274       -23.1099
  30   2.0000      -0.844477       -22.9794
  31   2.0000      -0.817982       -22.2584
  32   2.0000      -0.779542       -21.2124
  33   2.0000      -0.767363       -20.8810
  34   2.0000      -0.708351       -19.2752
  35   2.0000      -0.700720       -19.0676
  36   2.0000      -0.695624       -18.9289
  37   2.0000      -0.663222       -18.0472
  38   2.0000      -0.650212       -17.6932
  39   2.0000      -0.615427       -16.7466
  40   2.0000      -0.590825       -16.0772
  41   2.0000      -0.568278       -15.4636
  42   2.0000      -0.564526       -15.3615
  43   2.0000      -0.560127       -15.2418
  44   2.0000      -0.529786       -14.4162
  45   2.0000      -0.526992       -14.3402
  46   2.0000      -0.524603       -14.2752
  47   2.0000      -0.512348       -13.9417
  48   2.0000      -0.507496       -13.8097
  49   2.0000      -0.498284       -13.5590
  50   2.0000      -0.496634       -13.5141
  51   2.0000      -0.483018       -13.1436
  52   2.0000      -0.467996       -12.7348
  53   2.0000      -0.465115       -12.6564
  54   2.0000      -0.455074       -12.3832
  55   2.0000      -0.446246       -12.1430
  56   2.0000      -0.444096       -12.0845
  57   2.0000      -0.433784       -11.8039
  58   2.0000      -0.432987       -11.7822
  59   2.0000      -0.426172       -11.5967
  60   2.0000      -0.422330       -11.4922
  61   2.0000      -0.410777       -11.1778
  62   2.0000      -0.404939       -11.0189
  63   2.0000      -0.338659        -9.2154
  64   2.0000      -0.327639        -8.9155
  65   2.0000      -0.324017        -8.8169
  66   2.0000      -0.304932        -8.2976
  67   0.0000       0.034878         0.9491
  68   0.0000       0.056197         1.5292
  69   0.0000       0.116676         3.1749
  70   0.0000       0.120672         3.2836
  71   0.0000       0.123385         3.3575

MULLIKEN ATOMIC CHARGES
-----------------------
   0 S :    0.086158
   1 C :   -0.121915
   2 C :   -0.071831
   3 C :    0.058009
   4 C :   -0.169366
   5 H :    0.001634
   6 C :    0.026341
   7 H :    0.038823
   8 H :    0.012636
   9 C :   -0.016222
  10 H :   -0.001463
  11 H :    0.023773
  12 C :   -0.033640
  13 H :    0.029907
  14 H :    0.036270
  15 H :    0.028228
  16 S :    0.118787
  17 C :   -0.085858
  18 C :   -0.048592
  19 C :   -0.068267
  20 C :   -0.175985
  21 H :    0.027300
  22 C :    0.117920
  23 H :    0.013850
  24 H :    0.027696
  25 C :   -0.057763
  26 H :    0.017387
  27 H :    0.024699
  28 C :   -0.050825
  29 H :    0.030493
  30 H :    0.030732
  31 H :    0.034021
  32 H :    0.061867
  33 H :    0.055195
Sum of atomic charges:    0.0000000

LOEWDIN ATOMIC CHARGES
----------------------
   0 S :    0.377045
   1 C :   -0.178026
   2 C :   -0.062208
   3 C :   -0.059921
   4 C :   -0.192013
   5 H :    0.028681
   6 C :   -0.033765
   7 H :    0.039086
   8 H :    0.022916
   9 C :   -0.031341
  10 H :    0.009144
  11 H :    0.027287
  12 C :   -0.059611
  13 H :    0.026721
  14 H :    0.029347
  15 H :    0.022374
  16 S :    0.416961
  17 C :   -0.184830
  18 C :   -0.071033
  19 C :   -0.050745
  20 C :   -0.216869
  21 H :    0.031278
  22 C :   -0.026074
  23 H :    0.024117
  24 H :    0.035932
  25 C :   -0.043189
  26 H :    0.027322
  27 H :    0.024967
  28 C :   -0.072469
  29 H :    0.030876
  30 H :    0.033787
  31 H :    0.017353
  32 H :    0.028427
  33 H :    0.028473

  Mayer bond orders larger than 0.100000
B(  0-S ,  1-C ) :   1.1256 B(  0-S ,  4-C ) :   1.1474 B(  1-C ,  2-C ) :   1.6024
B(  1-C ,  4-C ) :   0.1000 B(  1-C , 32-H ) :   0.9715 B(  2-C ,  3-C ) :   1.2130
B(  2-C ,  6-C ) :   1.0383 B(  3-C ,  4-C ) :   1.5983 B(  3-C ,  5-H ) :   0.9957
B(  4-C , 20-C ) :   1.0213 B(  6-C ,  7-H ) :   0.9373 B(  6-C ,  8-H ) :   0.9456
B(  6-C ,  9-C ) :   1.0482 B(  9-C , 10-H ) :   0.9557 B(  9-C , 11-H ) :   0.9545
B(  9-C , 12-C ) :   1.0898 B( 12-C , 13-H ) :   0.9749 B( 12-C , 14-H ) :   0.9724
B( 12-C , 15-H ) :   0.9786 B( 16-S , 17-C ) :   1.1467 B( 16-S , 20-C ) :   1.1472
B( 17-C , 18-C ) :   1.6194 B( 17-C , 33-H ) :   0.9713 B( 18-C , 19-C ) :   1.2320
B( 18-C , 21-H ) :   0.9826 B( 19-C , 20-C ) :   1.6068 B( 19-C , 22-C ) :   1.0362
B( 22-C , 23-H ) :   0.9271 B( 22-C , 24-H ) :   0.9347 B( 22-C , 25-C ) :   1.0650
B( 25-C , 26-H ) :   0.9497 B( 25-C , 27-H ) :   0.9536 B( 25-C , 28-C ) :   1.0888
B( 28-C , 29-H ) :   0.9706 B( 28-C , 30-H ) :   0.9712 B( 28-C , 31-H ) :   0.9772

Dispersion correction           -0.014032072
FINAL SINGLE POINT ENERGY     -1339.864554554212

DIPOLE MOMENT
-------------
                                X             Y             Z
Electronic contribution:    -10.32206       4.22344      25.74197
Nuclear contribution   :     10.55216      -4.13711     -26.20088
                        -----------------------------------------
Total Dipole Moment    :      0.23010       0.08634      -0.45891
                        -----------------------------------------
Magnitude (a.u.)       :      0.52057
Magnitude (Debye)      :      1.32319

Rotational constants in cm-1:     0.017989     0.008499     0.006857
Rotational constants in MHz :   539.289738   254.780057   205.560311

                             ****ORCA TERMINATED NORMALLY****
TOTAL RUN TIME: 0 days 0 hours 0 minutes 31 seconds 630 msec
