                         Program Version 4.2.1 -  RELEASE  -
|  1> ! wB97X-D3 SP def2-SVP
|  2> %pal
|  3> nprocs 16
|  4> end
|  5>
|  6> * xyz 0 1
|  7> S 	 39.1405 	 10.8116 	 79.811
|  8> C 	 40.4978 	 9.70013 	 79.8707
|  9> C 	 41.6442 	 10.3496 	 79.5457
| 10> C 	 41.5114 	 11.7123 	 79.2208
| 11> C 	 40.1743 	 12.1726 	 79.3338
| 12> H 	 42.2891 	 12.4726 	 78.9211
| 13> C 	 43.0137 	 9.71605 	 79.3056
| 14> H 	 43.3656 	 9.50257 	 80.3043
| 15> H 	 43.6745 	 10.4452 	 78.9213
| 16> C 	 43.1774 	 8.4223 	 78.4426
| 17> H 	 44.1995 	 8.19637 	 78.3645
| 18> H 	 42.6642 	 7.63546 	 79.0507
| 19> C 	 42.4199 	 8.69996 	 77.0366
| 20> H 	 42.8831 	 9.58749 	 76.4927
| 21> H 	 42.4817 	 7.88927 	 76.3807
| 22> H 	 41.3603 	 8.99465 	 77.2369
| 23> S 	 39.8572 	 14.4356 	 77.7845
| 24> C 	 39.252 	 15.9157 	 78.5115
| 25> C 	 38.7584 	 15.6995 	 79.7552
| 26> C 	 39.0601 	 14.3776 	 80.2631
| 27> C 	 39.7593 	 13.5394 	 79.3607
| 28> H 	 38.1005 	 16.3938 	 80.2209
| 29> C 	 38.7971 	 13.9612 	 81.7038
| 30> H 	 38.8411 	 12.8787 	 81.7165
| 31> H 	 37.7209 	 14.2159 	 81.8316
| 32> C 	 39.5749 	 14.6456 	 82.877
| 33> H 	 39.0906 	 14.6284 	 83.823
| 34> H 	 39.6927 	 15.7305 	 82.6789
| 35> C 	 40.9172 	 13.919 	 83.0747
| 36> H 	 41.4394 	 14.3718 	 83.9097
| 37> H 	 41.5051 	 14.0105 	 82.1952
| 38> H 	 40.7776 	 12.839 	 83.1903
| 39> H 	 40.4862 	 8.57724 	 79.9918
| 40> H 	 39.1455 	 16.8798 	 77.9978
| 41> *
| 42>
| 43>                          ****END OF INPUT****

CARTESIAN COORDINATES (ANGSTROEM)
---------------------------------
  S     39.140500   10.811600   79.811000
  C     40.497800    9.700130   79.870700
  C     41.644200   10.349600   79.545700
  C     41.511400   11.712300   79.220800
  C     40.174300   12.172600   79.333800
  H     42.289100   12.472600   78.921100
  C     43.013700    9.716050   79.305600
  H     43.365600    9.502570   80.304300
  H     43.674500   10.445200   78.921300
  C     43.177400    8.422300   78.442600
  H     44.199500    8.196370   78.364500
  H     42.664200    7.635460   79.050700
  C     42.419900    8.699960   77.036600
  H     42.883100    9.587490   76.492700
  H     42.481700    7.889270   76.380700
  H     41.360300    8.994650   77.236900
  S     39.857200   14.435600   77.784500
  C     39.252000   15.915700   78.511500
  C     38.758400   15.699500   79.755200
  C     39.060100   14.377600   80.263100
  C     39.759300   13.539400   79.360700
  H     38.100500   16.393800   80.220900
  C     38.797100   13.961200   81.703800
  H     38.841100   12.878700   81.716500
  H     37.720900   14.215900   81.831600
  C     39.574900   14.645600   82.877000
  H     39.090600   14.628400   83.823000
  H     39.692700   15.730500   82.678900
  C     40.917200   13.919000   83.074700
  H     41.439400   14.371800   83.909700
  H     41.505100   14.010500   82.195200
  H     40.777600   12.839000   83.190300
  H     40.486200    8.577240   79.991800
  H     39.145500   16.879800   77.997800

 Total Charge           Charge          ....    0
 Multiplicity           Mult            ....    1
 Number of Electrons    NEL             ....  134
 Basis Dimension        Dim             ....  322

ORBITAL ENERGIES
----------------

  NO   OCC          E(Eh)            E(eV)
   0   2.0000     -88.973021     -2421.0790
   1   2.0000     -88.961257     -2420.7589
   2   2.0000     -10.334675      -281.2208
   3   2.0000     -10.331708      -281.1401
   4   2.0000     -10.321127      -280.8521
   5   2.0000     -10.319096      -280.7969
   6   2.0000     -10.309819      -280.5444
   7   2.0000     -10.302539      -280.3463
   8   2.0000     -10.300254      -280.2842
   9   2.0000     -10.296240      -280.1749
  10   2.0000     -10.292014      -280.0599
  11   2.0000     -10.289966      -280.0042
  12   2.0000     -10.286376      -279.9065
  13   2.0000     -10.284864      -279.8654
  14   2.0000     -10.283599      -279.8309
  15   2.0000     -10.266665      -279.3702
  16   2.0000      -8.086466      -220.0439
  17   2.0000      -8.075218      -219.7378
  18   2.0000      -6.045079      -164.4950
  19   2.0000      -6.040963      -164.3830
  20   2.0000      -6.037351      -164.2847
  21   2.0000      -6.033870      -164.1900
  22   2.0000      -6.029930      -164.0827
  23   2.0000      -6.025753      -163.9691
  24   2.0000      -1.003392       -27.3037
  25   2.0000      -0.980566       -26.6825
  26   2.0000      -0.906533       -24.6680
  27   2.0000      -0.899874       -24.4868
  28   2.0000      -0.870632       -23.6911
  29   2.0000      -0.845808       -23.0156
  30   2.0000      -0.841064       -22.8865
  31   2.0000      -0.810452       -22.0535
  32   2.0000      -0.780171       -21.2295
  33   2.0000      -0.767708       -20.8904
  34   2.0000      -0.712753       -19.3950
  35   2.0000      -0.706385       -19.2217
  36   2.0000      -0.695963       -18.9381
  37   2.0000      -0.657054       -17.8794
  38   2.0000      -0.634918       -17.2770
  39   2.0000      -0.604426       -16.4473
  40   2.0000      -0.587756       -15.9937
  41   2.0000      -0.575780       -15.6678
  42   2.0000      -0.551888       -15.0176
  43   2.0000      -0.550162       -14.9707
  44   2.0000      -0.543709       -14.7951
  45   2.0000      -0.534776       -14.5520
  46   2.0000      -0.517290       -14.0762
  47   2.0000      -0.510334       -13.8869
  48   2.0000      -0.503029       -13.6881
  49   2.0000      -0.490147       -13.3376
  50   2.0000      -0.483646       -13.1607
  51   2.0000      -0.478476       -13.0200
  52   2.0000      -0.468090       -12.7374
  53   2.0000      -0.463618       -12.6157
  54   2.0000      -0.458950       -12.4887
  55   2.0000      -0.448370       -12.2008
  56   2.0000      -0.443684       -12.0733
  57   2.0000      -0.434686       -11.8284
  58   2.0000      -0.429172       -11.6784
  59   2.0000      -0.424424       -11.5492
  60   2.0000      -0.421965       -11.4822
  61   2.0000      -0.416082       -11.3222
  62   2.0000      -0.403757       -10.9868
  63   2.0000      -0.343654        -9.3513
  64   2.0000      -0.332872        -9.0579
  65   2.0000      -0.325260        -8.8508
  66   2.0000      -0.295243        -8.0340
  67   0.0000       0.023215         0.6317
  68   0.0000       0.061631         1.6771
  69   0.0000       0.100992         2.7481
  70   0.0000       0.119591         3.2542
  71   0.0000       0.122925         3.3450

MULLIKEN ATOMIC CHARGES
-----------------------
   0 S :    0.120136
   1 C :   -0.143167
   2 C :   -0.087165
   3 C :    0.010810
   4 C :   -0.163013
   5 H :    0.045419
   6 C :    0.062516
   7 H :    0.031313
   8 H :    0.009328
   9 C :   -0.052714
  10 H :    0.031444
  11 H :    0.029912
  12 C :   -0.075980
  13 H :    0.037441
  14 H :    0.030642
  15 H :    0.055999
  16 S :    0.080853
  17 C :   -0.086786
  18 C :   -0.017041
  19 C :   -0.059485
  20 C :   -0.157746
  21 H :    0.014749
  22 C :    0.053452
  23 H :    0.010097
  24 H :    0.026724
  25 C :   -0.042315
  26 H :    0.022347
  27 H :    0.028262
  28 C :   -0.041188
  29 H :    0.031024
  30 H :    0.024913
  31 H :    0.032254
  32 H :    0.070253
  33 H :    0.066713
Sum of atomic charges:    0.0000000

LOEWDIN ATOMIC CHARGES
----------------------
   0 S :    0.412098
   1 C :   -0.206705
   2 C :   -0.073425
   3 C :   -0.056997
   4 C :   -0.198958
   5 H :    0.045644
   6 C :   -0.029988
   7 H :    0.031322
   8 H :    0.020499
   9 C :   -0.028223
  10 H :    0.018819
  11 H :    0.023525
  12 C :   -0.067884
  13 H :    0.032729
  14 H :    0.012427
  15 H :    0.033905
  16 S :    0.370065
  17 C :   -0.176256
  18 C :   -0.073412
  19 C :   -0.049543
  20 C :   -0.186642
  21 H :    0.029568
  22 C :   -0.036647
  23 H :    0.016739
  24 H :    0.035483
  25 C :   -0.036173
  26 H :    0.019355
  27 H :    0.026375
  28 C :   -0.061344
  29 H :    0.023313
  30 H :    0.020366
  31 H :    0.027486
  32 H :    0.046145
  33 H :    0.036331

  Mayer bond orders larger than 0.100000
B(  0-S ,  1-C ) :   1.1348 B(  0-S ,  4-C ) :   1.1478 B(  1-C ,  2-C ) :   1.6041
B(  1-C , 32-H ) :   0.9598 B(  2-C ,  3-C ) :   1.2672 B(  2-C ,  6-C ) :   1.0052
B(  3-C ,  4-C ) :   1.5349 B(  3-C ,  5-H ) :   0.9811 B(  4-C , 20-C ) :   1.0670
B(  6-C ,  7-H ) :   0.9320 B(  6-C ,  8-H ) :   0.9485 B(  6-C ,  9-C ) :   1.0734
B(  9-C , 10-H ) :   0.9583 B(  9-C , 11-H ) :   0.9568 B(  9-C , 12-C ) :   1.0584
B( 12-C , 13-H ) :   0.9777 B( 12-C , 14-H ) :   0.9808 B( 12-C , 15-H ) :   0.9736
B( 16-S , 17-C ) :   1.1456 B( 16-S , 20-C ) :   1.1098 B( 17-C , 18-C ) :   1.6293
B( 17-C , 33-H ) :   0.9613 B( 18-C , 19-C ) :   1.2212 B( 18-C , 21-H ) :   0.9940
B( 19-C , 20-C ) :   1.5885 B( 19-C , 22-C ) :   1.0541 B( 22-C , 23-H ) :   0.9354
B( 22-C , 24-H ) :   0.9256 B( 22-C , 25-C ) :   1.0578 B( 25-C , 26-H ) :   0.9574
B( 25-C , 27-H ) :   0.9557 B( 25-C , 28-C ) :   1.0756 B( 28-C , 29-H ) :   0.9736
B( 28-C , 30-H ) :   0.9790 B( 28-C , 31-H ) :   0.9756

Dispersion correction           -0.015304970
FINAL SINGLE POINT ENERGY     -1339.866152041688

DIPOLE MOMENT
-------------
                                X             Y             Z
Electronic contribution:    -12.19584       7.24164      -9.16977
Nuclear contribution   :     12.44368      -7.27630       9.43076
                        -----------------------------------------
Total Dipole Moment    :      0.24785      -0.03466       0.26099
                        -----------------------------------------
Magnitude (a.u.)       :      0.36159
Magnitude (Debye)      :      0.91908

Rotational constants in cm-1:     0.021564     0.008302     0.007051
Rotational constants in MHz :   646.486468   248.874497   211.390998

                             ****ORCA TERMINATED NORMALLY****
TOTAL RUN TIME: 0 days 0 hours 0 minutes 30 seconds 990 msec
