                         Program Version 4.2.1 -  RELEASE  -
|  1> ! wB97X-D3 SP def2-SVP
|  2> %pal
|  3> nprocs 16
|  4> end
|  5>
|  6> * xyz 0 1
|  7> S 	 62.0452 	 19.7885 	 82.8966
|  8> C 	 61.3295 	 20.4428 	 84.3954
|  9> C 	 60.1219 	 19.8956 	 84.6725
| 10> C 	 59.6346 	 19.1494 	 83.5308
| 11> C 	 60.499 	 19.1251 	 82.4674
| 12> H 	 58.6589 	 18.652 	 83.342
| 13> C 	 59.3283 	 20.0422 	 85.9551
| 14> H 	 59.7333 	 19.4071 	 86.7536
| 15> H 	 58.3491 	 19.5901 	 85.8307
| 16> C 	 59.162 	 21.5022 	 86.4837
| 17> H 	 58.6147 	 21.4857 	 87.446
| 18> H 	 60.1521 	 21.9174 	 86.8133
| 19> C 	 58.5172 	 22.4272 	 85.3915
| 20> H 	 57.5906 	 22.0421 	 85.1295
| 21> H 	 58.426 	 23.4818 	 85.7738
| 22> H 	 59.1945 	 22.6177 	 84.5744
| 23> S 	 61.7026 	 17.3456 	 80.8206
| 24> C 	 60.9329 	 16.7788 	 79.3605
| 25> C 	 59.627 	 17.2513 	 79.3067
| 26> C 	 59.3285 	 18.1949 	 80.3242
| 27> C 	 60.3534 	 18.2779 	 81.2882
| 28> H 	 58.9629 	 16.953 	 78.6195
| 29> C 	 57.949 	 18.822 	 80.3261
| 30> H 	 57.9353 	 19.4728 	 79.5046
| 31> H 	 57.9365 	 19.5511 	 81.1367
| 32> C 	 56.7711 	 17.8604 	 80.3007
| 33> H 	 56.9823 	 17.2769 	 81.1574
| 34> H 	 56.7867 	 17.1869 	 79.5184
| 35> C 	 55.3888 	 18.5481 	 80.2808
| 36> H 	 54.6226 	 17.6971 	 80.298
| 37> H 	 55.1519 	 19.1697 	 79.4199
| 38> H 	 55.2726 	 19.1131 	 81.2759
| 39> H 	 61.892 	 20.8517 	 85.2237
| 40> H 	 61.3405 	 16.13 	 78.5364
| 41> *
| 42>
| 43>                          ****END OF INPUT****

CARTESIAN COORDINATES (ANGSTROEM)
---------------------------------
  S     62.045200   19.788500   82.896600
  C     61.329500   20.442800   84.395400
  C     60.121900   19.895600   84.672500
  C     59.634600   19.149400   83.530800
  C     60.499000   19.125100   82.467400
  H     58.658900   18.652000   83.342000
  C     59.328300   20.042200   85.955100
  H     59.733300   19.407100   86.753600
  H     58.349100   19.590100   85.830700
  C     59.162000   21.502200   86.483700
  H     58.614700   21.485700   87.446000
  H     60.152100   21.917400   86.813300
  C     58.517200   22.427200   85.391500
  H     57.590600   22.042100   85.129500
  H     58.426000   23.481800   85.773800
  H     59.194500   22.617700   84.574400
  S     61.702600   17.345600   80.820600
  C     60.932900   16.778800   79.360500
  C     59.627000   17.251300   79.306700
  C     59.328500   18.194900   80.324200
  C     60.353400   18.277900   81.288200
  H     58.962900   16.953000   78.619500
  C     57.949000   18.822000   80.326100
  H     57.935300   19.472800   79.504600
  H     57.936500   19.551100   81.136700
  C     56.771100   17.860400   80.300700
  H     56.982300   17.276900   81.157400
  H     56.786700   17.186900   79.518400
  C     55.388800   18.548100   80.280800
  H     54.622600   17.697100   80.298000
  H     55.151900   19.169700   79.419900
  H     55.272600   19.113100   81.275900
  H     61.892000   20.851700   85.223700
  H     61.340500   16.130000   78.536400

 Total Charge           Charge          ....    0
 Multiplicity           Mult            ....    1
 Number of Electrons    NEL             ....  134
 Basis Dimension        Dim             ....  322

ORBITAL ENERGIES
----------------

  NO   OCC          E(Eh)            E(eV)
   0   2.0000     -88.967502     -2420.9288
   1   2.0000     -88.966194     -2420.8932
   2   2.0000     -10.326593      -281.0009
   3   2.0000     -10.324551      -280.9453
   4   2.0000     -10.319776      -280.8154
   5   2.0000     -10.310881      -280.5733
   6   2.0000     -10.303428      -280.3705
   7   2.0000     -10.299503      -280.2637
   8   2.0000     -10.297591      -280.2117
   9   2.0000     -10.296076      -280.1705
  10   2.0000     -10.295663      -280.1592
  11   2.0000     -10.293182      -280.0917
  12   2.0000     -10.282904      -279.8120
  13   2.0000     -10.282798      -279.8092
  14   2.0000     -10.280565      -279.7484
  15   2.0000     -10.275185      -279.6020
  16   2.0000      -8.082818      -219.9446
  17   2.0000      -8.080681      -219.8865
  18   2.0000      -6.041293      -164.3919
  19   2.0000      -6.039255      -164.3365
  20   2.0000      -6.037101      -164.2779
  21   2.0000      -6.035468      -164.2334
  22   2.0000      -6.033717      -164.1858
  23   2.0000      -6.031124      -164.1152
  24   2.0000      -1.011249       -27.5175
  25   2.0000      -0.986015       -26.8308
  26   2.0000      -0.914943       -24.8969
  27   2.0000      -0.907962       -24.7069
  28   2.0000      -0.867936       -23.6177
  29   2.0000      -0.851758       -23.1775
  30   2.0000      -0.841335       -22.8939
  31   2.0000      -0.813914       -22.1477
  32   2.0000      -0.784865       -21.3573
  33   2.0000      -0.772666       -21.0253
  34   2.0000      -0.711230       -19.3535
  35   2.0000      -0.707230       -19.2447
  36   2.0000      -0.695072       -18.9139
  37   2.0000      -0.667178       -18.1548
  38   2.0000      -0.636541       -17.3212
  39   2.0000      -0.609184       -16.5767
  40   2.0000      -0.593406       -16.1474
  41   2.0000      -0.575356       -15.6562
  42   2.0000      -0.569374       -15.4935
  43   2.0000      -0.551563       -15.0088
  44   2.0000      -0.538392       -14.6504
  45   2.0000      -0.525537       -14.3006
  46   2.0000      -0.514479       -13.9997
  47   2.0000      -0.510879       -13.9017
  48   2.0000      -0.507090       -13.7986
  49   2.0000      -0.497560       -13.5393
  50   2.0000      -0.494154       -13.4466
  51   2.0000      -0.476252       -12.9595
  52   2.0000      -0.467296       -12.7158
  53   2.0000      -0.466694       -12.6994
  54   2.0000      -0.456318       -12.4170
  55   2.0000      -0.452827       -12.3220
  56   2.0000      -0.444334       -12.0909
  57   2.0000      -0.436936       -11.8896
  58   2.0000      -0.431057       -11.7297
  59   2.0000      -0.426420       -11.6035
  60   2.0000      -0.422006       -11.4834
  61   2.0000      -0.419829       -11.4241
  62   2.0000      -0.416064       -11.3217
  63   2.0000      -0.349809        -9.5188
  64   2.0000      -0.331050        -9.0083
  65   2.0000      -0.329581        -8.9684
  66   2.0000      -0.289861        -7.8875
  67   0.0000       0.027604         0.7512
  68   0.0000       0.071057         1.9335
  69   0.0000       0.102253         2.7825
  70   0.0000       0.127751         3.4763
  71   0.0000       0.130589         3.5535

MULLIKEN ATOMIC CHARGES
-----------------------
   0 S :    0.093759
   1 C :   -0.103476
   2 C :   -0.090034
   3 C :   -0.001586
   4 C :   -0.123352
   5 H :    0.026872
   6 C :    0.071990
   7 H :    0.041993
   8 H :    0.015293
   9 C :   -0.107922
  10 H :    0.034853
  11 H :    0.027741
  12 C :   -0.024736
  13 H :    0.024522
  14 H :    0.031128
  15 H :    0.042608
  16 S :    0.112493
  17 C :   -0.105124
  18 C :    0.005793
  19 C :   -0.067109
  20 C :   -0.160550
  21 H :   -0.033373
  22 C :    0.104782
  23 H :    0.005390
  24 H :    0.006996
  25 C :   -0.032967
  26 H :    0.019021
  27 H :    0.010682
  28 C :   -0.083385
  29 H :    0.042133
  30 H :    0.047898
  31 H :    0.044897
  32 H :    0.046944
  33 H :    0.075825
Sum of atomic charges:   -0.0000000

LOEWDIN ATOMIC CHARGES
----------------------
   0 S :    0.390477
   1 C :   -0.189378
   2 C :   -0.057565
   3 C :   -0.066897
   4 C :   -0.193710
   5 H :    0.036621
   6 C :   -0.036370
   7 H :    0.037126
   8 H :    0.027895
   9 C :   -0.042120
  10 H :    0.026418
  11 H :    0.022784
  12 C :   -0.060468
  13 H :    0.014163
  14 H :    0.032489
  15 H :    0.028652
  16 S :    0.431125
  17 C :   -0.199724
  18 C :   -0.056280
  19 C :   -0.055366
  20 C :   -0.215970
  21 H :    0.007821
  22 C :   -0.032240
  23 H :    0.023148
  24 H :    0.027445
  25 C :   -0.034509
  26 H :    0.023710
  27 H :    0.012642
  28 C :   -0.068973
  29 H :    0.034356
  30 H :    0.025923
  31 H :    0.033851
  32 H :    0.028108
  33 H :    0.044816

  Mayer bond orders larger than 0.100000
B(  0-S ,  1-C ) :   1.1122 B(  0-S ,  4-C ) :   1.1388 B(  1-C ,  2-C ) :   1.6621
B(  1-C , 32-H ) :   0.9611 B(  2-C ,  3-C ) :   1.2083 B(  2-C ,  6-C ) :   1.0163
B(  3-C ,  4-C ) :   1.6002 B(  3-C ,  5-H ) :   0.9859 B(  4-C , 20-C ) :   1.0404
B(  6-C ,  7-H ) :   0.9318 B(  6-C ,  8-H ) :   0.9442 B(  6-C ,  9-C ) :   1.0740
B(  9-C , 10-H ) :   0.9579 B(  9-C , 11-H ) :   0.9550 B(  9-C , 12-C ) :   1.0684
B( 12-C , 13-H ) :   0.9805 B( 12-C , 14-H ) :   0.9736 B( 12-C , 15-H ) :   0.9715
B( 16-S , 17-C ) :   1.1585 B( 16-S , 20-C ) :   1.1584 B( 17-C , 18-C ) :   1.5772
B( 17-C , 33-H ) :   0.9618 B( 18-C , 19-C ) :   1.2733 B( 18-C , 21-H ) :   1.0074
B( 19-C , 20-C ) :   1.5549 B( 19-C , 22-C ) :   1.0493 B( 22-C , 23-H ) :   0.9164
B( 22-C , 24-H ) :   0.9306 B( 22-C , 25-C ) :   1.0543 B( 25-C , 26-H ) :   0.9552
B( 25-C , 27-H ) :   0.9507 B( 25-C , 28-C ) :   1.0812 B( 28-C , 29-H ) :   0.9748
B( 28-C , 30-H ) :   0.9753 B( 28-C , 31-H ) :   0.9755

Dispersion correction           -0.014106201
FINAL SINGLE POINT ENERGY     -1339.862284964246

DIPOLE MOMENT
-------------
                                X             Y             Z
Electronic contribution:     26.81509      -9.31843      -8.04663
Nuclear contribution   :    -27.45833       9.24301       8.20088
                        -----------------------------------------
Total Dipole Moment    :     -0.64324      -0.07542       0.15425
                        -----------------------------------------
Magnitude (a.u.)       :      0.66576
Magnitude (Debye)      :      1.69223

Rotational constants in cm-1:     0.017686     0.009021     0.006348
Rotational constants in MHz :   530.220577   270.440554   190.301260

                             ****ORCA TERMINATED NORMALLY****
TOTAL RUN TIME: 0 days 0 hours 0 minutes 29 seconds 652 msec
