                         Program Version 4.2.1 -  RELEASE  -
|  1> ! wB97X-D3 SP def2-SVP
|  2> %pal
|  3> nprocs 16
|  4> end
|  5>
|  6> * xyz 0 1
|  7> S 	 -40.4168 	 31.1343 	 89.969
|  8> C 	 -41.7586 	 31.522 	 91.0347
|  9> C 	 -42.9507 	 31.3022 	 90.4316
| 10> C 	 -42.8475 	 30.9099 	 89.0756
| 11> C 	 -41.5403 	 30.6962 	 88.696
| 12> H 	 -43.6871 	 30.8606 	 88.4608
| 13> C 	 -44.2382 	 31.5294 	 91.1397
| 14> H 	 -45.0001 	 31.938 	 90.4734
| 15> H 	 -43.9007 	 32.2444 	 91.8245
| 16> C 	 -44.8903 	 30.2616 	 91.8094
| 17> H 	 -45.8354 	 30.6295 	 92.2553
| 18> H 	 -44.9891 	 29.4183 	 91.0463
| 19> C 	 -44.1215 	 29.7979 	 93.0352
| 20> H 	 -44.6861 	 29.0348 	 93.5548
| 21> H 	 -43.1023 	 29.5932 	 92.7487
| 22> H 	 -43.9191 	 30.6377 	 93.6979
| 23> S 	 -39.609 	 31.1077 	 86.6959
| 24> C 	 -39.9473 	 30.3861 	 85.1262
| 25> C 	 -41.1318 	 29.7008 	 85.1051
| 26> C 	 -41.7967 	 29.7733 	 86.3535
| 27> C 	 -41.113 	 30.4864 	 87.3042
| 28> H 	 -41.3549 	 29.1291 	 84.1997
| 29> C 	 -43.1275 	 29.0742 	 86.4293
| 30> H 	 -43.413 	 28.6956 	 85.4066
| 31> H 	 -43.8234 	 29.8679 	 86.6988
| 32> C 	 -43.2076 	 27.9394 	 87.4858
| 33> H 	 -44.3087 	 27.6758 	 87.6581
| 34> H 	 -42.9337 	 28.3005 	 88.4631
| 35> C 	 -42.3748 	 26.6552 	 87.0681
| 36> H 	 -41.2323 	 26.6998 	 87.1971
| 37> H 	 -42.6568 	 26.2347 	 86.066
| 38> H 	 -42.5417 	 25.8068 	 87.7506
| 39> H 	 -41.5742 	 31.9964 	 91.9776
| 40> H 	 -39.523 	 30.6078 	 84.1557
| 41> *
| 42>
| 43>                          ****END OF INPUT****

CARTESIAN COORDINATES (ANGSTROEM)
---------------------------------
  S    -40.416800   31.134300   89.969000
  C    -41.758600   31.522000   91.034700
  C    -42.950700   31.302200   90.431600
  C    -42.847500   30.909900   89.075600
  C    -41.540300   30.696200   88.696000
  H    -43.687100   30.860600   88.460800
  C    -44.238200   31.529400   91.139700
  H    -45.000100   31.938000   90.473400
  H    -43.900700   32.244400   91.824500
  C    -44.890300   30.261600   91.809400
  H    -45.835400   30.629500   92.255300
  H    -44.989100   29.418300   91.046300
  C    -44.121500   29.797900   93.035200
  H    -44.686100   29.034800   93.554800
  H    -43.102300   29.593200   92.748700
  H    -43.919100   30.637700   93.697900
  S    -39.609000   31.107700   86.695900
  C    -39.947300   30.386100   85.126200
  C    -41.131800   29.700800   85.105100
  C    -41.796700   29.773300   86.353500
  C    -41.113000   30.486400   87.304200
  H    -41.354900   29.129100   84.199700
  C    -43.127500   29.074200   86.429300
  H    -43.413000   28.695600   85.406600
  H    -43.823400   29.867900   86.698800
  C    -43.207600   27.939400   87.485800
  H    -44.308700   27.675800   87.658100
  H    -42.933700   28.300500   88.463100
  C    -42.374800   26.655200   87.068100
  H    -41.232300   26.699800   87.197100
  H    -42.656800   26.234700   86.066000
  H    -42.541700   25.806800   87.750600
  H    -41.574200   31.996400   91.977600
  H    -39.523000   30.607800   84.155700

 Total Charge           Charge          ....    0
 Multiplicity           Mult            ....    1
 Number of Electrons    NEL             ....  134
 Basis Dimension        Dim             ....  322

ORBITAL ENERGIES
----------------

  NO   OCC          E(Eh)            E(eV)
   0   2.0000     -88.969447     -2420.9817
   1   2.0000     -88.966976     -2420.9145
   2   2.0000     -10.332924      -281.1732
   3   2.0000     -10.325472      -280.9704
   4   2.0000     -10.312293      -280.6118
   5   2.0000     -10.310243      -280.5560
   6   2.0000     -10.296923      -280.1935
   7   2.0000     -10.295614      -280.1579
   8   2.0000     -10.295263      -280.1483
   9   2.0000     -10.294736      -280.1340
  10   2.0000     -10.294372      -280.1241
  11   2.0000     -10.289289      -279.9858
  12   2.0000     -10.287912      -279.9483
  13   2.0000     -10.287905      -279.9481
  14   2.0000     -10.286478      -279.9093
  15   2.0000     -10.271343      -279.4974
  16   2.0000      -8.083917      -219.9746
  17   2.0000      -8.081792      -219.9167
  18   2.0000      -6.042534      -164.4257
  19   2.0000      -6.040372      -164.3669
  20   2.0000      -6.038501      -164.3160
  21   2.0000      -6.036356      -164.2576
  22   2.0000      -6.034555      -164.2086
  23   2.0000      -6.032422      -164.1506
  24   2.0000      -1.011775       -27.5318
  25   2.0000      -0.989789       -26.9335
  26   2.0000      -0.914317       -24.8798
  27   2.0000      -0.902844       -24.5676
  28   2.0000      -0.870565       -23.6893
  29   2.0000      -0.852797       -23.2058
  30   2.0000      -0.842375       -22.9222
  31   2.0000      -0.818009       -22.2591
  32   2.0000      -0.782274       -21.2868
  33   2.0000      -0.771745       -21.0003
  34   2.0000      -0.714519       -19.4431
  35   2.0000      -0.697001       -18.9664
  36   2.0000      -0.687525       -18.7085
  37   2.0000      -0.663617       -18.0579
  38   2.0000      -0.642041       -17.4708
  39   2.0000      -0.625860       -17.0305
  40   2.0000      -0.586121       -15.9492
  41   2.0000      -0.570107       -15.5134
  42   2.0000      -0.555863       -15.1258
  43   2.0000      -0.553392       -15.0586
  44   2.0000      -0.543302       -14.7840
  45   2.0000      -0.532680       -14.4950
  46   2.0000      -0.525040       -14.2871
  47   2.0000      -0.509744       -13.8708
  48   2.0000      -0.502661       -13.6781
  49   2.0000      -0.492405       -13.3990
  50   2.0000      -0.488641       -13.2966
  51   2.0000      -0.479487       -13.0475
  52   2.0000      -0.471721       -12.8362
  53   2.0000      -0.462737       -12.5917
  54   2.0000      -0.455856       -12.4045
  55   2.0000      -0.447835       -12.1862
  56   2.0000      -0.441918       -12.0252
  57   2.0000      -0.432190       -11.7605
  58   2.0000      -0.432089       -11.7577
  59   2.0000      -0.428994       -11.6735
  60   2.0000      -0.424244       -11.5443
  61   2.0000      -0.411577       -11.1996
  62   2.0000      -0.409239       -11.1360
  63   2.0000      -0.357597        -9.7307
  64   2.0000      -0.335859        -9.1392
  65   2.0000      -0.330725        -8.9995
  66   2.0000      -0.284715        -7.7475
  67   0.0000       0.022451         0.6109
  68   0.0000       0.080620         2.1938
  69   0.0000       0.100794         2.7427
  70   0.0000       0.124480         3.3873
  71   0.0000       0.128091         3.4855

MULLIKEN ATOMIC CHARGES
-----------------------
   0 S :    0.093642
   1 C :   -0.140149
   2 C :   -0.085140
   3 C :    0.022168
   4 C :   -0.109419
   5 H :   -0.023764
   6 C :    0.083192
   7 H :    0.026321
   8 H :    0.004104
   9 C :   -0.081730
  10 H :    0.036319
  11 H :    0.048843
  12 C :   -0.037063
  13 H :    0.044927
  14 H :    0.027168
  15 H :    0.009587
  16 S :    0.114853
  17 C :   -0.089175
  18 C :   -0.059353
  19 C :   -0.047212
  20 C :   -0.116710
  21 H :    0.029577
  22 C :    0.055121
  23 H :    0.028521
  24 H :    0.033284
  25 C :   -0.066823
  26 H :    0.032612
  27 H :    0.041630
  28 C :   -0.094171
  29 H :    0.055560
  30 H :    0.036990
  31 H :    0.028039
  32 H :    0.044925
  33 H :    0.053325
Sum of atomic charges:    0.0000000

LOEWDIN ATOMIC CHARGES
----------------------
   0 S :    0.393874
   1 C :   -0.194814
   2 C :   -0.062980
   3 C :   -0.058456
   4 C :   -0.174194
   5 H :    0.020128
   6 C :   -0.028165
   7 H :    0.030902
   8 H :    0.023673
   9 C :   -0.038220
  10 H :    0.027801
  11 H :    0.032042
  12 C :   -0.070266
  13 H :    0.027506
  14 H :    0.022298
  15 H :    0.022353
  16 S :    0.405324
  17 C :   -0.187443
  18 C :   -0.070829
  19 C :   -0.059417
  20 C :   -0.202328
  21 H :    0.038071
  22 C :   -0.032570
  23 H :    0.034459
  24 H :    0.028743
  25 C :   -0.041791
  26 H :    0.030547
  27 H :    0.021942
  28 C :   -0.086063
  29 H :    0.038697
  30 H :    0.026699
  31 H :    0.026188
  32 H :    0.023891
  33 H :    0.032395

  Mayer bond orders larger than 0.100000
B(  0-S ,  1-C ) :   1.1209 B(  0-S ,  4-C ) :   1.1512 B(  1-C ,  2-C ) :   1.6131
B(  1-C , 32-H ) :   0.9698 B(  2-C ,  3-C ) :   1.2553 B(  2-C ,  6-C ) :   1.0218
B(  3-C ,  4-C ) :   1.5350 B(  3-C ,  5-H ) :   1.0041 B(  4-C , 20-C ) :   1.0641
B(  6-C ,  7-H ) :   0.9392 B(  6-C ,  8-H ) :   0.9367 B(  6-C ,  9-C ) :   1.0639
B(  9-C , 10-H ) :   0.9561 B(  9-C , 11-H ) :   0.9549 B(  9-C , 12-C ) :   1.0785
B( 12-C , 13-H ) :   0.9733 B( 12-C , 14-H ) :   0.9722 B( 12-C , 15-H ) :   0.9698
B( 16-S , 17-C ) :   1.1452 B( 16-S , 20-C ) :   1.1224 B( 17-C , 18-C ) :   1.6388
B( 17-C , 33-H ) :   0.9576 B( 18-C , 19-C ) :   1.2480 B( 18-C , 21-H ) :   0.9865
B( 19-C , 20-C ) :   1.5985 B( 19-C , 22-C ) :   1.0247 B( 22-C , 23-H ) :   0.9421
B( 22-C , 24-H ) :   0.9282 B( 22-C , 25-C ) :   1.0713 B( 25-C , 26-H ) :   0.9564
B( 25-C , 27-H ) :   0.9529 B( 25-C , 28-C ) :   1.0573 B( 28-C , 29-H ) :   0.9750
B( 28-C , 30-H ) :   0.9774 B( 28-C , 31-H ) :   0.9747

Dispersion correction           -0.015308105
FINAL SINGLE POINT ENERGY     -1339.870251945206

DIPOLE MOMENT
-------------
                                X             Y             Z
Electronic contribution:     21.91329      14.11241      -9.15925
Nuclear contribution   :    -22.55921     -14.17534       9.10537
                        -----------------------------------------
Total Dipole Moment    :     -0.64591      -0.06293      -0.05387
                        -----------------------------------------
Magnitude (a.u.)       :      0.65120
Magnitude (Debye)      :      1.65523

Rotational constants in cm-1:     0.021230     0.009196     0.007213
Rotational constants in MHz :   636.460239   275.691163   216.252826

                             ****ORCA TERMINATED NORMALLY****
TOTAL RUN TIME: 0 days 0 hours 0 minutes 30 seconds 348 msec
