                         Program Version 4.2.1 -  RELEASE  -
|  1> ! wB97X-D3 SP def2-SVP
|  2> %pal
|  3> nprocs 16
|  4> end
|  5>
|  6> * xyz 0 1
|  7> S 	 -53.5355 	 60.2651 	 134.399
|  8> C 	 -52.5434 	 60.5162 	 133.004
|  9> C 	 -52.3682 	 61.8731 	 132.832
| 10> C 	 -52.9341 	 62.6894 	 133.851
| 11> C 	 -53.6243 	 61.9777 	 134.837
| 12> H 	 -52.734 	 63.8083 	 133.906
| 13> C 	 -51.5458 	 62.5482 	 131.726
| 14> H 	 -52.2013 	 63.1298 	 131.131
| 15> H 	 -51.2106 	 61.8029 	 131.013
| 16> C 	 -50.2772 	 63.324 	 132.186
| 17> H 	 -50.5613 	 64.2771 	 132.614
| 18> H 	 -49.7529 	 62.7254 	 132.987
| 19> C 	 -49.3127 	 63.6522 	 131.098
| 20> H 	 -48.366 	 64.0316 	 131.438
| 21> H 	 -49.1217 	 62.8452 	 130.448
| 22> H 	 -49.862 	 64.3731 	 130.466
| 23> S 	 -55.9716 	 61.6514 	 136.265
| 24> C 	 -56.2601 	 62.8311 	 137.551
| 25> C 	 -55.1245 	 63.5375 	 137.894
| 26> C 	 -54.0435 	 63.3137 	 137.011
| 27> C 	 -54.3645 	 62.4306 	 135.945
| 28> H 	 -55.1109 	 64.3069 	 138.663
| 29> C 	 -52.7725 	 64.1901 	 137.217
| 30> H 	 -53.0863 	 65.241 	 137.26
| 31> H 	 -52.1094 	 64.1504 	 136.324
| 32> C 	 -51.9716 	 63.7124 	 138.439
| 33> H 	 -52.713 	 63.6547 	 139.254
| 34> H 	 -51.1535 	 64.2994 	 138.745
| 35> C 	 -51.5173 	 62.2704 	 138.29
| 36> H 	 -50.7692 	 62.1553 	 137.555
| 37> H 	 -52.4205 	 61.6894 	 138.069
| 38> H 	 -51.1023 	 61.927 	 139.166
| 39> H 	 -52.152 	 59.782 	 132.264
| 40> H 	 -57.2249 	 63.0009 	 137.993
| 41> *
| 42>
| 43>                          ****END OF INPUT****

CARTESIAN COORDINATES (ANGSTROEM)
---------------------------------
  S    -53.535500   60.265100  134.399000
  C    -52.543400   60.516200  133.004000
  C    -52.368200   61.873100  132.832000
  C    -52.934100   62.689400  133.851000
  C    -53.624300   61.977700  134.837000
  H    -52.734000   63.808300  133.906000
  C    -51.545800   62.548200  131.726000
  H    -52.201300   63.129800  131.131000
  H    -51.210600   61.802900  131.013000
  C    -50.277200   63.324000  132.186000
  H    -50.561300   64.277100  132.614000
  H    -49.752900   62.725400  132.987000
  C    -49.312700   63.652200  131.098000
  H    -48.366000   64.031600  131.438000
  H    -49.121700   62.845200  130.448000
  H    -49.862000   64.373100  130.466000
  S    -55.971600   61.651400  136.265000
  C    -56.260100   62.831100  137.551000
  C    -55.124500   63.537500  137.894000
  C    -54.043500   63.313700  137.011000
  C    -54.364500   62.430600  135.945000
  H    -55.110900   64.306900  138.663000
  C    -52.772500   64.190100  137.217000
  H    -53.086300   65.241000  137.260000
  H    -52.109400   64.150400  136.324000
  C    -51.971600   63.712400  138.439000
  H    -52.713000   63.654700  139.254000
  H    -51.153500   64.299400  138.745000
  C    -51.517300   62.270400  138.290000
  H    -50.769200   62.155300  137.555000
  H    -52.420500   61.689400  138.069000
  H    -51.102300   61.927000  139.166000
  H    -52.152000   59.782000  132.264000
  H    -57.224900   63.000900  137.993000

 Total Charge           Charge          ....    0
 Multiplicity           Mult            ....    1
 Number of Electrons    NEL             ....  134
 Basis Dimension        Dim             ....  322

ORBITAL ENERGIES
----------------

  NO   OCC          E(Eh)            E(eV)
   0   2.0000     -88.969018     -2420.9701
   1   2.0000     -88.965683     -2420.8793
   2   2.0000     -10.334518      -281.2165
   3   2.0000     -10.331216      -281.1267
   4   2.0000     -10.322063      -280.8776
   5   2.0000     -10.315643      -280.7029
   6   2.0000     -10.311949      -280.6024
   7   2.0000     -10.298734      -280.2428
   8   2.0000     -10.298719      -280.2424
   9   2.0000     -10.298166      -280.2273
  10   2.0000     -10.296563      -280.1837
  11   2.0000     -10.289259      -279.9850
  12   2.0000     -10.287556      -279.9386
  13   2.0000     -10.280706      -279.7522
  14   2.0000     -10.272493      -279.5287
  15   2.0000     -10.257980      -279.1338
  16   2.0000      -8.082612      -219.9390
  17   2.0000      -8.080260      -219.8750
  18   2.0000      -6.041178      -164.3888
  19   2.0000      -6.038865      -164.3259
  20   2.0000      -6.037449      -164.2873
  21   2.0000      -6.034690      -164.2123
  22   2.0000      -6.033201      -164.1717
  23   2.0000      -6.030999      -164.1118
  24   2.0000      -1.004488       -27.3335
  25   2.0000      -0.980898       -26.6916
  26   2.0000      -0.912375       -24.8270
  27   2.0000      -0.909148       -24.7392
  28   2.0000      -0.876171       -23.8418
  29   2.0000      -0.850388       -23.1402
  30   2.0000      -0.845629       -23.0107
  31   2.0000      -0.811120       -22.0717
  32   2.0000      -0.783718       -21.3261
  33   2.0000      -0.771258       -20.9870
  34   2.0000      -0.712701       -19.3936
  35   2.0000      -0.695581       -18.9277
  36   2.0000      -0.693024       -18.8582
  37   2.0000      -0.660219       -17.9655
  38   2.0000      -0.636254       -17.3133
  39   2.0000      -0.618078       -16.8188
  40   2.0000      -0.600436       -16.3387
  41   2.0000      -0.571394       -15.5484
  42   2.0000      -0.562474       -15.3057
  43   2.0000      -0.559666       -15.2293
  44   2.0000      -0.543336       -14.7849
  45   2.0000      -0.531153       -14.4534
  46   2.0000      -0.515997       -14.0410
  47   2.0000      -0.510129       -13.8813
  48   2.0000      -0.503974       -13.7138
  49   2.0000      -0.495074       -13.4717
  50   2.0000      -0.492315       -13.3966
  51   2.0000      -0.476330       -12.9616
  52   2.0000      -0.470563       -12.8047
  53   2.0000      -0.466737       -12.7006
  54   2.0000      -0.459351       -12.4996
  55   2.0000      -0.450757       -12.2657
  56   2.0000      -0.443092       -12.0571
  57   2.0000      -0.435734       -11.8569
  58   2.0000      -0.428976       -11.6730
  59   2.0000      -0.423702       -11.5295
  60   2.0000      -0.419878       -11.4255
  61   2.0000      -0.413088       -11.2407
  62   2.0000      -0.410919       -11.1817
  63   2.0000      -0.353968        -9.6319
  64   2.0000      -0.335841        -9.1387
  65   2.0000      -0.328976        -8.9519
  66   2.0000      -0.283660        -7.7188
  67   0.0000       0.020213         0.5500
  68   0.0000       0.061376         1.6701
  69   0.0000       0.106352         2.8940
  70   0.0000       0.122534         3.3343
  71   0.0000       0.131406         3.5757

MULLIKEN ATOMIC CHARGES
-----------------------
   0 S :    0.104087
   1 C :   -0.122633
   2 C :   -0.109382
   3 C :    0.009208
   4 C :   -0.145686
   5 H :    0.040692
   6 C :    0.081770
   7 H :    0.022979
   8 H :   -0.002181
   9 C :   -0.088956
  10 H :    0.024228
  11 H :    0.040162
  12 C :   -0.019530
  13 H :    0.037803
  14 H :    0.013086
  15 H :    0.021950
  16 S :    0.097522
  17 C :   -0.081794
  18 C :   -0.022479
  19 C :   -0.058758
  20 C :   -0.151222
  21 H :    0.027762
  22 C :    0.061940
  23 H :    0.039511
  24 H :    0.020633
  25 C :   -0.067257
  26 H :    0.017652
  27 H :    0.025162
  28 C :   -0.011605
  29 H :    0.019952
  30 H :    0.045654
  31 H :    0.008753
  32 H :    0.064163
  33 H :    0.056815
Sum of atomic charges:   -0.0000000

LOEWDIN ATOMIC CHARGES
----------------------
   0 S :    0.406543
   1 C :   -0.215246
   2 C :   -0.069271
   3 C :   -0.071444
   4 C :   -0.190186
   5 H :    0.041451
   6 C :   -0.029222
   7 H :    0.025801
   8 H :    0.024306
   9 C :   -0.042683
  10 H :    0.019334
  11 H :    0.029209
  12 C :   -0.061243
  13 H :    0.027135
  14 H :    0.015589
  15 H :    0.029026
  16 S :    0.373679
  17 C :   -0.166782
  18 C :   -0.071509
  19 C :   -0.046514
  20 C :   -0.180941
  21 H :    0.034046
  22 C :   -0.029254
  23 H :    0.031900
  24 H :    0.027583
  25 C :   -0.035785
  26 H :    0.023269
  27 H :    0.016636
  28 C :   -0.050988
  29 H :    0.017778
  30 H :    0.032200
  31 H :    0.014136
  32 H :    0.043983
  33 H :    0.027459

  Mayer bond orders larger than 0.100000
B(  0-S ,  1-C ) :   1.1319 B(  0-S ,  4-C ) :   1.1430 B(  1-C ,  2-C ) :   1.6066
B(  1-C ,  4-C ) :   0.1001 B(  1-C , 32-H ) :   0.9607 B(  2-C ,  3-C ) :   1.2626
B(  2-C ,  6-C ) :   1.0300 B(  3-C ,  4-C ) :   1.5428 B(  3-C ,  5-H ) :   0.9819
B(  4-C , 20-C ) :   1.1171 B(  6-C ,  7-H ) :   0.9337 B(  6-C ,  8-H ) :   0.9413
B(  6-C ,  9-C ) :   1.0521 B(  9-C , 10-H ) :   0.9514 B(  9-C , 11-H ) :   0.9594
B(  9-C , 12-C ) :   1.0935 B( 12-C , 13-H ) :   0.9726 B( 12-C , 14-H ) :   0.9737
B( 12-C , 15-H ) :   0.9726 B( 16-S , 17-C ) :   1.1478 B( 16-S , 20-C ) :   1.1139
B( 17-C , 18-C ) :   1.6089 B( 17-C , 20-C ) :   0.1096 B( 17-C , 33-H ) :   0.9694
B( 18-C , 19-C ) :   1.2392 B( 18-C , 21-H ) :   0.9829 B( 19-C , 20-C ) :   1.5676
B( 19-C , 22-C ) :   1.0249 B( 22-C , 23-H ) :   0.9467 B( 22-C , 24-H ) :   0.9410
B( 22-C , 25-C ) :   1.0579 B( 25-C , 26-H ) :   0.9592 B( 25-C , 27-H ) :   0.9593
B( 25-C , 28-C ) :   1.0802 B( 28-C , 29-H ) :   0.9748 B( 28-C , 30-H ) :   0.9723
B( 28-C , 31-H ) :   0.9693

Dispersion correction           -0.014473184
FINAL SINGLE POINT ENERGY     -1339.874192817553

DIPOLE MOMENT
-------------
                                X             Y             Z
Electronic contribution:    -24.00766     -13.64076       3.56676
Nuclear contribution   :     24.41423      14.23146      -3.58099
                        -----------------------------------------
Total Dipole Moment    :      0.40657       0.59071      -0.01422
                        -----------------------------------------
Magnitude (a.u.)       :      0.71724
Magnitude (Debye)      :      1.82308

Rotational constants in cm-1:     0.019835     0.008412     0.006865
Rotational constants in MHz :   594.648927   252.170552   205.820807

                             ****ORCA TERMINATED NORMALLY****
TOTAL RUN TIME: 0 days 0 hours 0 minutes 33 seconds 296 msec
