                         Program Version 4.2.1 -  RELEASE  -
|  1> ! wB97X-D3 SP def2-SVP
|  2> %pal
|  3> nprocs 16
|  4> end
|  5>
|  6> * xyz 0 1
|  7> S 	 2.21773 	 -27.9828 	 84.3606
|  8> C 	 0.926369 	 -28.0277 	 83.2601
|  9> C 	 1.26828 	 -28.1078 	 81.9333
| 10> C 	 2.67614 	 -28.1337 	 81.8569
| 11> C 	 3.38436 	 -28.0527 	 82.9795
| 12> H 	 3.16413 	 -28.2484 	 80.9117
| 13> C 	 0.30959 	 -28.1484 	 80.7161
| 14> H 	 0.735181 	 -27.6489 	 79.842
| 15> H 	 -0.543053 	 -27.559 	 80.9866
| 16> C 	 -0.11255 	 -29.6023 	 80.2484
| 17> H 	 -0.965148 	 -29.6964 	 79.6038
| 18> H 	 0.683846 	 -30.0235 	 79.5775
| 19> C 	 -0.36375 	 -30.611 	 81.3268
| 20> H 	 -0.563301 	 -31.6022 	 80.9986
| 21> H 	 0.455344 	 -30.7201 	 82.0389
| 22> H 	 -1.27092 	 -30.2368 	 81.8498
| 23> S 	 5.21595 	 -26.4602 	 84.1944
| 24> C 	 6.90137 	 -26.6142 	 83.9245
| 25> C 	 7.11128 	 -27.6072 	 82.9754
| 26> C 	 5.92064 	 -28.236 	 82.5312
| 27> C 	 4.79261 	 -27.7999 	 83.1697
| 28> H 	 8.07908 	 -27.7808 	 82.5749
| 29> C 	 5.91959 	 -29.4584 	 81.634
| 30> H 	 6.89973 	 -29.7231 	 81.1855
| 31> H 	 5.34309 	 -29.0984 	 80.7461
| 32> C 	 5.29968 	 -30.7503 	 82.2644
| 33> H 	 4.89988 	 -31.4053 	 81.4294
| 34> H 	 4.32977 	 -30.5776 	 82.8032
| 35> C 	 6.30543 	 -31.7168 	 83.0307
| 36> H 	 5.97096 	 -32.3369 	 83.8997
| 37> H 	 7.08124 	 -31.2163 	 83.6078
| 38> H 	 6.83614 	 -32.3989 	 82.3517
| 39> H 	 -0.00491434 	 -28.0549 	 83.6053
| 40> H 	 7.6387 	 -26.1151 	 84.4405
| 41> *
| 42>
| 43>                          ****END OF INPUT****

CARTESIAN COORDINATES (ANGSTROEM)
---------------------------------
  S      2.217730  -27.982800   84.360600
  C      0.926369  -28.027700   83.260100
  C      1.268280  -28.107800   81.933300
  C      2.676140  -28.133700   81.856900
  C      3.384360  -28.052700   82.979500
  H      3.164130  -28.248400   80.911700
  C      0.309590  -28.148400   80.716100
  H      0.735181  -27.648900   79.842000
  H     -0.543053  -27.559000   80.986600
  C     -0.112550  -29.602300   80.248400
  H     -0.965148  -29.696400   79.603800
  H      0.683846  -30.023500   79.577500
  C     -0.363750  -30.611000   81.326800
  H     -0.563301  -31.602200   80.998600
  H      0.455344  -30.720100   82.038900
  H     -1.270920  -30.236800   81.849800
  S      5.215950  -26.460200   84.194400
  C      6.901370  -26.614200   83.924500
  C      7.111280  -27.607200   82.975400
  C      5.920640  -28.236000   82.531200
  C      4.792610  -27.799900   83.169700
  H      8.079080  -27.780800   82.574900
  C      5.919590  -29.458400   81.634000
  H      6.899730  -29.723100   81.185500
  H      5.343090  -29.098400   80.746100
  C      5.299680  -30.750300   82.264400
  H      4.899880  -31.405300   81.429400
  H      4.329770  -30.577600   82.803200
  C      6.305430  -31.716800   83.030700
  H      5.970960  -32.336900   83.899700
  H      7.081240  -31.216300   83.607800
  H      6.836140  -32.398900   82.351700
  H     -0.004914  -28.054900   83.605300
  H      7.638700  -26.115100   84.440500

 Total Charge           Charge          ....    0
 Multiplicity           Mult            ....    1
 Number of Electrons    NEL             ....  134
 Basis Dimension        Dim             ....  322

ORBITAL ENERGIES
----------------

  NO   OCC          E(Eh)            E(eV)
   0   2.0000     -88.965160     -2420.8651
   1   2.0000     -88.961699     -2420.7709
   2   2.0000     -10.327032      -281.0128
   3   2.0000     -10.321157      -280.8529
   4   2.0000     -10.309513      -280.5361
   5   2.0000     -10.304647      -280.4037
   6   2.0000     -10.302366      -280.3416
   7   2.0000     -10.300997      -280.3044
   8   2.0000     -10.299684      -280.2686
   9   2.0000     -10.298553      -280.2379
  10   2.0000     -10.297811      -280.2177
  11   2.0000     -10.289477      -279.9909
  12   2.0000     -10.289440      -279.9899
  13   2.0000     -10.287581      -279.9393
  14   2.0000     -10.281033      -279.7611
  15   2.0000     -10.271606      -279.5046
  16   2.0000      -8.080379      -219.8783
  17   2.0000      -8.077399      -219.7972
  18   2.0000      -6.038811      -164.3244
  19   2.0000      -6.035841      -164.2436
  20   2.0000      -6.034847      -164.2165
  21   2.0000      -6.031588      -164.1279
  22   2.0000      -6.031171      -164.1165
  23   2.0000      -6.028330      -164.0392
  24   2.0000      -1.014699       -27.6114
  25   2.0000      -0.992570       -27.0092
  26   2.0000      -0.907493       -24.6941
  27   2.0000      -0.898767       -24.4567
  28   2.0000      -0.874903       -23.8073
  29   2.0000      -0.854677       -23.2569
  30   2.0000      -0.840619       -22.8744
  31   2.0000      -0.819600       -22.3025
  32   2.0000      -0.784313       -21.3422
  33   2.0000      -0.775145       -21.0928
  34   2.0000      -0.713119       -19.4049
  35   2.0000      -0.698064       -18.9953
  36   2.0000      -0.694414       -18.8960
  37   2.0000      -0.670123       -18.2350
  38   2.0000      -0.652959       -17.7679
  39   2.0000      -0.627053       -17.0630
  40   2.0000      -0.591549       -16.0969
  41   2.0000      -0.568036       -15.4570
  42   2.0000      -0.556514       -15.1435
  43   2.0000      -0.549403       -14.9500
  44   2.0000      -0.543234       -14.7821
  45   2.0000      -0.537782       -14.6338
  46   2.0000      -0.515452       -14.0262
  47   2.0000      -0.509592       -13.8667
  48   2.0000      -0.507190       -13.8014
  49   2.0000      -0.497848       -13.5471
  50   2.0000      -0.486192       -13.2300
  51   2.0000      -0.476813       -12.9747
  52   2.0000      -0.470942       -12.8150
  53   2.0000      -0.463979       -12.6255
  54   2.0000      -0.462061       -12.5733
  55   2.0000      -0.448638       -12.2081
  56   2.0000      -0.440988       -11.9999
  57   2.0000      -0.435908       -11.8617
  58   2.0000      -0.429986       -11.7005
  59   2.0000      -0.425934       -11.5902
  60   2.0000      -0.418907       -11.3990
  61   2.0000      -0.410311       -11.1651
  62   2.0000      -0.406088       -11.0502
  63   2.0000      -0.356454        -9.6996
  64   2.0000      -0.332911        -9.0590
  65   2.0000      -0.328963        -8.9515
  66   2.0000      -0.290777        -7.9124
  67   0.0000       0.029304         0.7974
  68   0.0000       0.073000         1.9864
  69   0.0000       0.112288         3.0555
  70   0.0000       0.124574         3.3898
  71   0.0000       0.129843         3.5332

MULLIKEN ATOMIC CHARGES
-----------------------
   0 S :    0.104956
   1 C :   -0.065411
   2 C :   -0.102350
   3 C :    0.033066
   4 C :   -0.149085
   5 H :   -0.008508
   6 C :    0.108515
   7 H :    0.033366
   8 H :    0.025570
   9 C :   -0.082785
  10 H :    0.025248
  11 H :    0.022531
  12 C :   -0.052619
  13 H :    0.025096
  14 H :    0.044073
  15 H :    0.023492
  16 S :    0.107302
  17 C :   -0.059254
  18 C :   -0.030081
  19 C :   -0.023668
  20 C :   -0.134168
  21 H :    0.003423
  22 C :    0.047146
  23 H :    0.022188
  24 H :    0.035148
  25 C :   -0.081503
  26 H :    0.031144
  27 H :    0.056295
  28 C :   -0.073436
  29 H :    0.036056
  30 H :    0.022995
  31 H :    0.034880
  32 H :   -0.009852
  33 H :    0.030229
Sum of atomic charges:   -0.0000000

LOEWDIN ATOMIC CHARGES
----------------------
   0 S :    0.399923
   1 C :   -0.172001
   2 C :   -0.064757
   3 C :   -0.053020
   4 C :   -0.180231
   5 H :    0.027016
   6 C :   -0.021188
   7 H :    0.035642
   8 H :    0.028735
   9 C :   -0.047209
  10 H :    0.023298
  11 H :    0.023639
  12 C :   -0.067840
  13 H :    0.021747
  14 H :    0.024605
  15 H :    0.025801
  16 S :    0.430523
  17 C :   -0.184141
  18 C :   -0.066895
  19 C :   -0.066531
  20 C :   -0.200826
  21 H :    0.024990
  22 C :   -0.035567
  23 H :    0.032437
  24 H :    0.035737
  25 C :   -0.048218
  26 H :    0.031436
  27 H :    0.032992
  28 C :   -0.085492
  29 H :    0.034889
  30 H :    0.023629
  31 H :    0.024703
  32 H :   -0.002873
  33 H :    0.015047

  Mayer bond orders larger than 0.100000
B(  0-S ,  1-C ) :   1.1697 B(  0-S ,  4-C ) :   1.1103 B(  1-C ,  2-C ) :   1.5957
B(  1-C , 32-H ) :   0.9786 B(  2-C ,  3-C ) :   1.2541 B(  2-C ,  6-C ) :   1.0180
B(  3-C ,  4-C ) :   1.6010 B(  3-C ,  5-H ) :   0.9949 B(  4-C , 20-C ) :   1.0419
B(  6-C ,  7-H ) :   0.9466 B(  6-C ,  8-H ) :   0.9421 B(  6-C ,  9-C ) :   1.0453
B(  9-C , 10-H ) :   0.9594 B(  9-C , 11-H ) :   0.9566 B(  9-C , 12-C ) :   1.0944
B( 12-C , 13-H ) :   0.9717 B( 12-C , 14-H ) :   0.9680 B( 12-C , 15-H ) :   0.9752
B( 16-S , 17-C ) :   1.1742 B( 16-S , 20-C ) :   1.1558 B( 17-C , 18-C ) :   1.5602
B( 17-C , 20-C ) :   0.1057 B( 17-C , 33-H ) :   0.9810 B( 18-C , 19-C ) :   1.2732
B( 18-C , 21-H ) :   0.9994 B( 19-C , 20-C ) :   1.5703 B( 19-C , 22-C ) :   1.0372
B( 22-C , 23-H ) :   0.9438 B( 22-C , 24-H ) :   0.9293 B( 22-C , 25-C ) :   1.0603
B( 25-C , 26-H ) :   0.9578 B( 25-C , 27-H ) :   0.9604 B( 25-C , 28-C ) :   1.0452
B( 28-C , 29-H ) :   0.9770 B( 28-C , 30-H ) :   0.9792 B( 28-C , 31-H ) :   0.9803

Dispersion correction           -0.015094342
FINAL SINGLE POINT ENERGY     -1339.863580528325

DIPOLE MOMENT
-------------
                                X             Y             Z
Electronic contribution:      5.64814      20.86035      15.58754
Nuclear contribution   :     -5.70997     -21.12672     -16.14194
                        -----------------------------------------
Total Dipole Moment    :     -0.06183      -0.26637      -0.55440
                        -----------------------------------------
Magnitude (a.u.)       :      0.61817
Magnitude (Debye)      :      1.57127

Rotational constants in cm-1:     0.020322     0.008984     0.007286
Rotational constants in MHz :   609.240973   269.334647   218.426478

                             ****ORCA TERMINATED NORMALLY****
TOTAL RUN TIME: 0 days 0 hours 0 minutes 35 seconds 72 msec
