                         Program Version 4.2.1 -  RELEASE  -
|  1> ! wB97X-D3 SP def2-SVP
|  2> %pal
|  3> nprocs 16
|  4> end
|  5>
|  6> * xyz 0 1
|  7> S 	 -34.4811 	 34.8305 	 42.8342
|  8> C 	 -34.7201 	 34.8941 	 44.534
|  9> C 	 -33.7343 	 35.5994 	 45.2062
| 10> C 	 -32.6512 	 35.9851 	 44.3423
| 11> C 	 -32.834 	 35.5524 	 43.0049
| 12> H 	 -31.8213 	 36.6243 	 44.4239
| 13> C 	 -33.7645 	 36.1176 	 46.6252
| 14> H 	 -34.6439 	 35.6744 	 47.1521
| 15> H 	 -33.9251 	 37.2108 	 46.5989
| 16> C 	 -32.4541 	 35.7669 	 47.4365
| 17> H 	 -31.5793 	 36.1234 	 46.9056
| 18> H 	 -32.6294 	 36.3245 	 48.3874
| 19> C 	 -32.2649 	 34.2873 	 47.6067
| 20> H 	 -31.2942 	 34.1061 	 48.1976
| 21> H 	 -32.9648 	 33.8023 	 48.2189
| 22> H 	 -32.1467 	 33.742 	 46.6789
| 23> S 	 -32.3342 	 37.1548 	 40.7619
| 24> C 	 -30.8525 	 37.0138 	 39.8736
| 25> C 	 -30.0368 	 36.0141 	 40.4328
| 26> C 	 -30.6288 	 35.4756 	 41.6146
| 27> C 	 -31.9478 	 35.9394 	 41.9326
| 28> H 	 -28.9719 	 35.7899 	 40.081
| 29> C 	 -29.932 	 34.4312 	 42.4948
| 30> H 	 -29.8074 	 33.4137 	 42.0646
| 31> H 	 -30.6332 	 34.1962 	 43.2743
| 32> C 	 -28.5544 	 34.7397 	 42.9557
| 33> H 	 -28.0336 	 35.2321 	 42.1073
| 34> H 	 -27.9728 	 33.8709 	 43.0173
| 35> C 	 -28.4723 	 35.4364 	 44.253
| 36> H 	 -29.198 	 36.2974 	 44.3221
| 37> H 	 -27.4464 	 35.6953 	 44.375
| 38> H 	 -28.758 	 34.6474 	 45.0124
| 39> H 	 -35.702 	 34.515 	 44.9475
| 40> H 	 -30.5302 	 37.6051 	 39.0383
| 41> *
| 42>
| 43>                          ****END OF INPUT****

CARTESIAN COORDINATES (ANGSTROEM)
---------------------------------
  S    -34.481100   34.830500   42.834200
  C    -34.720100   34.894100   44.534000
  C    -33.734300   35.599400   45.206200
  C    -32.651200   35.985100   44.342300
  C    -32.834000   35.552400   43.004900
  H    -31.821300   36.624300   44.423900
  C    -33.764500   36.117600   46.625200
  H    -34.643900   35.674400   47.152100
  H    -33.925100   37.210800   46.598900
  C    -32.454100   35.766900   47.436500
  H    -31.579300   36.123400   46.905600
  H    -32.629400   36.324500   48.387400
  C    -32.264900   34.287300   47.606700
  H    -31.294200   34.106100   48.197600
  H    -32.964800   33.802300   48.218900
  H    -32.146700   33.742000   46.678900
  S    -32.334200   37.154800   40.761900
  C    -30.852500   37.013800   39.873600
  C    -30.036800   36.014100   40.432800
  C    -30.628800   35.475600   41.614600
  C    -31.947800   35.939400   41.932600
  H    -28.971900   35.789900   40.081000
  C    -29.932000   34.431200   42.494800
  H    -29.807400   33.413700   42.064600
  H    -30.633200   34.196200   43.274300
  C    -28.554400   34.739700   42.955700
  H    -28.033600   35.232100   42.107300
  H    -27.972800   33.870900   43.017300
  C    -28.472300   35.436400   44.253000
  H    -29.198000   36.297400   44.322100
  H    -27.446400   35.695300   44.375000
  H    -28.758000   34.647400   45.012400
  H    -35.702000   34.515000   44.947500
  H    -30.530200   37.605100   39.038300

 Total Charge           Charge          ....    0
 Multiplicity           Mult            ....    1
 Number of Electrons    NEL             ....  134
 Basis Dimension        Dim             ....  322

ORBITAL ENERGIES
----------------

  NO   OCC          E(Eh)            E(eV)
   0   2.0000     -88.968866     -2420.9659
   1   2.0000     -88.968452     -2420.9547
   2   2.0000     -10.334584      -281.2183
   3   2.0000     -10.327868      -281.0356
   4   2.0000     -10.321541      -280.8634
   5   2.0000     -10.321064      -280.8504
   6   2.0000     -10.306969      -280.4669
   7   2.0000     -10.305725      -280.4330
   8   2.0000     -10.302679      -280.3501
   9   2.0000     -10.298151      -280.2269
  10   2.0000     -10.297454      -280.2080
  11   2.0000     -10.290433      -280.0169
  12   2.0000     -10.279116      -279.7090
  13   2.0000     -10.276872      -279.6479
  14   2.0000     -10.274323      -279.5786
  15   2.0000     -10.271677      -279.5066
  16   2.0000      -8.083343      -219.9590
  17   2.0000      -8.083218      -219.9555
  18   2.0000      -6.041717      -164.4035
  19   2.0000      -6.041677      -164.4024
  20   2.0000      -6.037842      -164.2980
  21   2.0000      -6.037589      -164.2911
  22   2.0000      -6.034449      -164.2057
  23   2.0000      -6.033986      -164.1931
  24   2.0000      -1.003270       -27.3004
  25   2.0000      -0.982685       -26.7402
  26   2.0000      -0.917451       -24.9651
  27   2.0000      -0.908308       -24.7163
  28   2.0000      -0.872741       -23.7485
  29   2.0000      -0.849504       -23.1162
  30   2.0000      -0.846807       -23.0428
  31   2.0000      -0.812864       -22.1192
  32   2.0000      -0.780316       -21.2335
  33   2.0000      -0.769180       -20.9304
  34   2.0000      -0.706826       -19.2337
  35   2.0000      -0.696866       -18.9627
  36   2.0000      -0.690805       -18.7978
  37   2.0000      -0.649672       -17.6785
  38   2.0000      -0.644912       -17.5489
  39   2.0000      -0.617666       -16.8075
  40   2.0000      -0.599856       -16.3229
  41   2.0000      -0.569631       -15.5005
  42   2.0000      -0.559082       -15.2134
  43   2.0000      -0.545613       -14.8469
  44   2.0000      -0.539510       -14.6808
  45   2.0000      -0.529910       -14.4196
  46   2.0000      -0.522910       -14.2291
  47   2.0000      -0.520637       -14.1672
  48   2.0000      -0.501352       -13.6425
  49   2.0000      -0.495798       -13.4913
  50   2.0000      -0.491072       -13.3627
  51   2.0000      -0.480442       -13.0735
  52   2.0000      -0.468549       -12.7499
  53   2.0000      -0.464238       -12.6325
  54   2.0000      -0.458616       -12.4796
  55   2.0000      -0.447783       -12.1848
  56   2.0000      -0.445521       -12.1233
  57   2.0000      -0.435349       -11.8464
  58   2.0000      -0.427074       -11.6213
  59   2.0000      -0.424601       -11.5540
  60   2.0000      -0.418544       -11.3892
  61   2.0000      -0.412230       -11.2174
  62   2.0000      -0.402423       -10.9505
  63   2.0000      -0.341487        -9.2923
  64   2.0000      -0.329930        -8.9778
  65   2.0000      -0.324682        -8.8350
  66   2.0000      -0.296481        -8.0677
  67   0.0000       0.031575         0.8592
  68   0.0000       0.054255         1.4764
  69   0.0000       0.110471         3.0061
  70   0.0000       0.114736         3.1221
  71   0.0000       0.131059         3.5663

MULLIKEN ATOMIC CHARGES
-----------------------
   0 S :    0.117824
   1 C :   -0.147393
   2 C :   -0.061021
   3 C :    0.041879
   4 C :   -0.190022
   5 H :    0.010486
   6 C :    0.044824
   7 H :    0.020162
   8 H :    0.051140
   9 C :   -0.078275
  10 H :    0.036783
  11 H :    0.040280
  12 C :   -0.051776
  13 H :    0.032252
  14 H :    0.017057
  15 H :    0.045410
  16 S :    0.124875
  17 C :   -0.097593
  18 C :   -0.049975
  19 C :   -0.043885
  20 C :   -0.167363
  21 H :    0.053632
  22 C :    0.054700
  23 H :    0.029621
  24 H :    0.007210
  25 C :   -0.056794
  26 H :    0.009577
  27 H :    0.001319
  28 C :   -0.033408
  29 H :    0.041567
  30 H :    0.028816
  31 H :    0.035965
  32 H :    0.074387
  33 H :    0.057739
Sum of atomic charges:   -0.0000000

LOEWDIN ATOMIC CHARGES
----------------------
   0 S :    0.401174
   1 C :   -0.210880
   2 C :   -0.071557
   3 C :   -0.042934
   4 C :   -0.186624
   5 H :    0.025917
   6 C :   -0.034536
   7 H :    0.029636
   8 H :    0.036561
   9 C :   -0.040549
  10 H :    0.023301
  11 H :    0.030800
  12 C :   -0.067995
  13 H :    0.035502
  14 H :    0.015037
  15 H :    0.027588
  16 S :    0.434034
  17 C :   -0.192189
  18 C :   -0.083553
  19 C :   -0.050569
  20 C :   -0.225013
  21 H :    0.045437
  22 C :   -0.041658
  23 H :    0.039058
  24 H :    0.023679
  25 C :   -0.051341
  26 H :    0.021919
  27 H :    0.017025
  28 C :   -0.061079
  29 H :    0.027651
  30 H :    0.022430
  31 H :    0.032852
  32 H :    0.040750
  33 H :    0.030126

  Mayer bond orders larger than 0.100000
B(  0-S ,  1-C ) :   1.1572 B(  0-S ,  4-C ) :   1.1346 B(  1-C ,  2-C ) :   1.5971
B(  1-C , 32-H ) :   0.9581 B(  2-C ,  3-C ) :   1.2158 B(  2-C ,  6-C ) :   1.0262
B(  3-C ,  4-C ) :   1.5689 B(  3-C ,  5-H ) :   0.9959 B(  4-C , 20-C ) :   1.0739
B(  6-C ,  7-H ) :   0.9424 B(  6-C ,  8-H ) :   0.9422 B(  6-C ,  9-C ) :   1.0608
B(  9-C , 10-H ) :   0.9560 B(  9-C , 11-H ) :   0.9564 B(  9-C , 12-C ) :   1.0818
B( 12-C , 13-H ) :   0.9704 B( 12-C , 14-H ) :   0.9750 B( 12-C , 15-H ) :   0.9709
B( 16-S , 17-C ) :   1.1906 B( 16-S , 20-C ) :   1.1495 B( 17-C , 18-C ) :   1.5508
B( 17-C , 20-C ) :   0.1067 B( 17-C , 33-H ) :   0.9694 B( 18-C , 19-C ) :   1.3016
B( 18-C , 21-H ) :   0.9716 B( 19-C , 20-C ) :   1.5297 B( 19-C , 22-C ) :   1.0491
B( 22-C , 23-H ) :   0.9346 B( 22-C , 24-H ) :   0.9334 B( 22-C , 25-C ) :   1.0682
B( 25-C , 26-H ) :   0.9466 B( 25-C , 27-H ) :   0.9461 B( 25-C , 28-C ) :   1.0868
B( 28-C , 29-H ) :   0.9755 B( 28-C , 30-H ) :   0.9686 B( 28-C , 31-H ) :   0.9709

Dispersion correction           -0.015236392
FINAL SINGLE POINT ENERGY     -1339.865395187922

DIPOLE MOMENT
-------------
                                X             Y             Z
Electronic contribution:    -17.24115       5.97346     -23.33432
Nuclear contribution   :     17.60554      -5.94985      23.73653
                        -----------------------------------------
Total Dipole Moment    :      0.36438       0.02361       0.40221
                        -----------------------------------------
Magnitude (a.u.)       :      0.54324
Magnitude (Debye)      :      1.38080

Rotational constants in cm-1:     0.017926     0.009996     0.007292
Rotational constants in MHz :   537.406084   299.677346   218.617552

                             ****ORCA TERMINATED NORMALLY****
TOTAL RUN TIME: 0 days 0 hours 0 minutes 33 seconds 454 msec
