                         Program Version 4.2.1 -  RELEASE  -
|  1> ! wB97X-D3 SP def2-SVP
|  2> %pal
|  3> nprocs 16
|  4> end
|  5>
|  6> * xyz 0 1
|  7> S 	 -50.7925 	 51.1436 	 106.465
|  8> C 	 -50.2859 	 51.4938 	 108.081
|  9> C 	 -49.1193 	 50.8206 	 108.383
| 10> C 	 -48.7986 	 49.8819 	 107.369
| 11> C 	 -49.6132 	 49.9584 	 106.233
| 12> H 	 -48.0522 	 49.0401 	 107.53
| 13> C 	 -48.2298 	 51.0998 	 109.595
| 14> H 	 -48.3607 	 52.1757 	 109.926
| 15> H 	 -47.3044 	 50.8553 	 109.064
| 16> C 	 -48.4442 	 50.1731 	 110.732
| 17> H 	 -49.4586 	 50.2792 	 111.062
| 18> H 	 -48.3813 	 49.1395 	 110.265
| 19> C 	 -47.3307 	 50.1098 	 111.773
| 20> H 	 -46.3523 	 49.9552 	 111.376
| 21> H 	 -47.3358 	 50.9799 	 112.488
| 22> H 	 -47.3964 	 49.2588 	 112.379
| 23> S 	 -50.488 	 49.776 	 103.549
| 24> C 	 -50.6235 	 48.2151 	 102.847
| 25> C 	 -50.1597 	 47.2875 	 103.66
| 26> C 	 -49.6275 	 47.7571 	 104.932
| 27> C 	 -49.7838 	 49.1169 	 105.06
| 28> H 	 -50.2577 	 46.2848 	 103.313
| 29> C 	 -49.2008 	 46.7574 	 106.056
| 30> H 	 -49.2808 	 47.2072 	 107.141
| 31> H 	 -48.0974 	 46.5576 	 105.909
| 32> C 	 -49.8913 	 45.3798 	 106.015
| 33> H 	 -49.5321 	 44.883 	 105.081
| 34> H 	 -51.0062 	 45.561 	 105.922
| 35> C 	 -49.6986 	 44.5104 	 107.225
| 36> H 	 -50.2954 	 43.6194 	 107.113
| 37> H 	 -49.8239 	 45.1234 	 108.128
| 38> H 	 -48.6607 	 44.1401 	 107.241
| 39> H 	 -50.8217 	 52.1251 	 108.729
| 40> H 	 -50.9268 	 47.9976 	 101.822
| 41> *
| 42>
| 43>                          ****END OF INPUT****

CARTESIAN COORDINATES (ANGSTROEM)
---------------------------------
  S    -50.792500   51.143600  106.465000
  C    -50.285900   51.493800  108.081000
  C    -49.119300   50.820600  108.383000
  C    -48.798600   49.881900  107.369000
  C    -49.613200   49.958400  106.233000
  H    -48.052200   49.040100  107.530000
  C    -48.229800   51.099800  109.595000
  H    -48.360700   52.175700  109.926000
  H    -47.304400   50.855300  109.064000
  C    -48.444200   50.173100  110.732000
  H    -49.458600   50.279200  111.062000
  H    -48.381300   49.139500  110.265000
  C    -47.330700   50.109800  111.773000
  H    -46.352300   49.955200  111.376000
  H    -47.335800   50.979900  112.488000
  H    -47.396400   49.258800  112.379000
  S    -50.488000   49.776000  103.549000
  C    -50.623500   48.215100  102.847000
  C    -50.159700   47.287500  103.660000
  C    -49.627500   47.757100  104.932000
  C    -49.783800   49.116900  105.060000
  H    -50.257700   46.284800  103.313000
  C    -49.200800   46.757400  106.056000
  H    -49.280800   47.207200  107.141000
  H    -48.097400   46.557600  105.909000
  C    -49.891300   45.379800  106.015000
  H    -49.532100   44.883000  105.081000
  H    -51.006200   45.561000  105.922000
  C    -49.698600   44.510400  107.225000
  H    -50.295400   43.619400  107.113000
  H    -49.823900   45.123400  108.128000
  H    -48.660700   44.140100  107.241000
  H    -50.821700   52.125100  108.729000
  H    -50.926800   47.997600  101.822000

 Total Charge           Charge          ....    0
 Multiplicity           Mult            ....    1
 Number of Electrons    NEL             ....  134
 Basis Dimension        Dim             ....  322

ORBITAL ENERGIES
----------------

  NO   OCC          E(Eh)            E(eV)
   0   2.0000     -88.962390     -2420.7897
   1   2.0000     -88.961622     -2420.7688
   2   2.0000     -10.331169      -281.1254
   3   2.0000     -10.328227      -281.0453
   4   2.0000     -10.309908      -280.5469
   5   2.0000     -10.308836      -280.5177
   6   2.0000     -10.308414      -280.5062
   7   2.0000     -10.306955      -280.4665
   8   2.0000     -10.299925      -280.2752
   9   2.0000     -10.299450      -280.2623
  10   2.0000     -10.294658      -280.1319
  11   2.0000     -10.291823      -280.0547
  12   2.0000     -10.287767      -279.9444
  13   2.0000     -10.286462      -279.9089
  14   2.0000     -10.280220      -279.7390
  15   2.0000     -10.276991      -279.6512
  16   2.0000      -8.078896      -219.8379
  17   2.0000      -8.076733      -219.7791
  18   2.0000      -6.037206      -164.2807
  19   2.0000      -6.035460      -164.2332
  20   2.0000      -6.033022      -164.1669
  21   2.0000      -6.031263      -164.1190
  22   2.0000      -6.029871      -164.0811
  23   2.0000      -6.027147      -164.0070
  24   2.0000      -1.014714       -27.6118
  25   2.0000      -0.991035       -26.9674
  26   2.0000      -0.921478       -25.0747
  27   2.0000      -0.907118       -24.6839
  28   2.0000      -0.876877       -23.8610
  29   2.0000      -0.854569       -23.2540
  30   2.0000      -0.842686       -22.9307
  31   2.0000      -0.817651       -22.2494
  32   2.0000      -0.788520       -21.4567
  33   2.0000      -0.775444       -21.1009
  34   2.0000      -0.706888       -19.2354
  35   2.0000      -0.701118       -19.0784
  36   2.0000      -0.690410       -18.7870
  37   2.0000      -0.650736       -17.7074
  38   2.0000      -0.636207       -17.3121
  39   2.0000      -0.625094       -17.0097
  40   2.0000      -0.598538       -16.2871
  41   2.0000      -0.570315       -15.5191
  42   2.0000      -0.568510       -15.4699
  43   2.0000      -0.567128       -15.4323
  44   2.0000      -0.532156       -14.4807
  45   2.0000      -0.528185       -14.3727
  46   2.0000      -0.521352       -14.1867
  47   2.0000      -0.510122       -13.8811
  48   2.0000      -0.506171       -13.7736
  49   2.0000      -0.503334       -13.6964
  50   2.0000      -0.493005       -13.4153
  51   2.0000      -0.481230       -13.0949
  52   2.0000      -0.473853       -12.8942
  53   2.0000      -0.469045       -12.7634
  54   2.0000      -0.463067       -12.6007
  55   2.0000      -0.453848       -12.3498
  56   2.0000      -0.448542       -12.2054
  57   2.0000      -0.440207       -11.9786
  58   2.0000      -0.422559       -11.4984
  59   2.0000      -0.421799       -11.4777
  60   2.0000      -0.415637       -11.3100
  61   2.0000      -0.410028       -11.1574
  62   2.0000      -0.408157       -11.1065
  63   2.0000      -0.361220        -9.8293
  64   2.0000      -0.330848        -9.0028
  65   2.0000      -0.328074        -8.9273
  66   2.0000      -0.287536        -7.8243
  67   0.0000       0.029837         0.8119
  68   0.0000       0.081130         2.2077
  69   0.0000       0.115759         3.1500
  70   0.0000       0.118813         3.2331
  71   0.0000       0.128332         3.4921

MULLIKEN ATOMIC CHARGES
-----------------------
   0 S :    0.106616
   1 C :   -0.114678
   2 C :   -0.102295
   3 C :   -0.021306
   4 C :   -0.131489
   5 H :    0.038158
   6 C :    0.070375
   7 H :    0.043076
   8 H :    0.028241
   9 C :   -0.079393
  10 H :    0.023543
  11 H :    0.019036
  12 C :   -0.000324
  13 H :    0.017712
  14 H :    0.035088
  15 H :    0.014534
  16 S :    0.088769
  17 C :   -0.075110
  18 C :   -0.034875
  19 C :   -0.011057
  20 C :   -0.129438
  21 H :    0.004728
  22 C :   -0.010458
  23 H :    0.048602
  24 H :    0.045193
  25 C :   -0.137691
  26 H :    0.040492
  27 H :    0.045255
  28 C :   -0.005740
  29 H :    0.039945
  30 H :    0.037035
  31 H :    0.020596
  32 H :    0.027600
  33 H :    0.059257
Sum of atomic charges:   -0.0000000

LOEWDIN ATOMIC CHARGES
----------------------
   0 S :    0.445092
   1 C :   -0.198978
   2 C :   -0.063769
   3 C :   -0.083735
   4 C :   -0.205943
   5 H :    0.038499
   6 C :   -0.032412
   7 H :    0.037344
   8 H :    0.036622
   9 C :   -0.046724
  10 H :    0.022006
  11 H :    0.030362
  12 C :   -0.064496
  13 H :    0.024465
  14 H :    0.028809
  15 H :    0.020871
  16 S :    0.382373
  17 C :   -0.188892
  18 C :   -0.075946
  19 C :   -0.054121
  20 C :   -0.182892
  21 H :    0.027501
  22 C :   -0.045064
  23 H :    0.037963
  24 H :    0.036009
  25 C :   -0.055609
  26 H :    0.025518
  27 H :    0.029608
  28 C :   -0.063513
  29 H :    0.029640
  30 H :    0.028960
  31 H :    0.025258
  32 H :    0.016975
  33 H :    0.038219

  Mayer bond orders larger than 0.100000
B(  0-S ,  1-C ) :   1.1571 B(  0-S ,  4-C ) :   1.1863 B(  1-C ,  2-C ) :   1.5773
B(  1-C , 32-H ) :   0.9819 B(  2-C ,  3-C ) :   1.2859 B(  2-C ,  6-C ) :   0.9891
B(  3-C ,  4-C ) :   1.5354 B(  3-C ,  5-H ) :   0.9750 B(  4-C , 20-C ) :   1.0517
B(  6-C ,  7-H ) :   0.9433 B(  6-C ,  8-H ) :   0.9370 B(  6-C ,  9-C ) :   1.0773
B(  9-C , 10-H ) :   0.9552 B(  9-C , 11-H ) :   0.9532 B(  9-C , 12-C ) :   1.0776
B( 12-C , 13-H ) :   0.9699 B( 12-C , 14-H ) :   0.9733 B( 12-C , 15-H ) :   0.9715
B( 16-S , 17-C ) :   1.1257 B( 16-S , 20-C ) :   1.1180 B( 17-C , 18-C ) :   1.6762
B( 17-C , 33-H ) :   0.9582 B( 18-C , 19-C ) :   1.1972 B( 18-C , 21-H ) :   0.9925
B( 19-C , 20-C ) :   1.6377 B( 19-C , 22-C ) :   1.0227 B( 22-C , 23-H ) :   0.9394
B( 22-C , 24-H ) :   0.9289 B( 22-C , 25-C ) :   1.0691 B( 25-C , 26-H ) :   0.9408
B( 25-C , 27-H ) :   0.9584 B( 25-C , 28-C ) :   1.0927 B( 28-C , 29-H ) :   0.9701
B( 28-C , 30-H ) :   0.9711 B( 28-C , 31-H ) :   0.9702

Dispersion correction           -0.013416277
FINAL SINGLE POINT ENERGY     -1339.866268155056

DIPOLE MOMENT
-------------
                                X             Y             Z
Electronic contribution:    -11.43617      17.60530     -24.37974
Nuclear contribution   :     11.61385     -18.23776      24.82850
                        -----------------------------------------
Total Dipole Moment    :      0.17768      -0.63246       0.44876
                        -----------------------------------------
Magnitude (a.u.)       :      0.79559
Magnitude (Debye)      :      2.02223

Rotational constants in cm-1:     0.017470     0.008642     0.006114
Rotational constants in MHz :   523.746078   259.076137   183.283362

                             ****ORCA TERMINATED NORMALLY****
TOTAL RUN TIME: 0 days 0 hours 0 minutes 29 seconds 581 msec
