                         Program Version 4.2.1 -  RELEASE  -
|  1> ! wB97X-D3 SP def2-SVP
|  2> %pal
|  3> nprocs 16
|  4> end
|  5>
|  6> * xyz 0 1
|  7> S 	 47.4876 	 9.07683 	 85.9339
|  8> C 	 47.8169 	 8.4784 	 87.5677
|  9> C 	 46.7616 	 8.73923 	 88.3873
| 10> C 	 45.6459 	 9.35715 	 87.6737
| 11> C 	 45.8278 	 9.44047 	 86.3421
| 12> H 	 44.7505 	 9.55254 	 88.1828
| 13> C 	 46.6983 	 8.47578 	 89.8634
| 14> H 	 47.4641 	 7.75286 	 90.156
| 15> H 	 45.8709 	 7.92006 	 90.0124
| 16> C 	 46.8916 	 9.71048 	 90.6999
| 17> H 	 46.8426 	 9.49243 	 91.7985
| 18> H 	 47.9332 	 10.0502 	 90.5513
| 19> C 	 45.8474 	 10.787 	 90.5194
| 20> H 	 44.8511 	 10.3393 	 90.4526
| 21> H 	 45.8735 	 11.5989 	 91.2245
| 22> H 	 45.9769 	 11.3486 	 89.5925
| 23> S 	 45.4473 	 11.7802 	 85.0967
| 24> C 	 43.8783 	 12.2025 	 84.4299
| 25> C 	 43.1445 	 11.022 	 84.2417
| 26> C 	 43.7553 	 9.87668 	 84.8425
| 27> C 	 44.9699 	 10.1361 	 85.4178
| 28> H 	 42.2213 	 11.079 	 83.7553
| 29> C 	 42.9816 	 8.55768 	 84.8262
| 30> H 	 43.6614 	 7.90077 	 85.276
| 31> H 	 42.7755 	 8.14794 	 83.8084
| 32> C 	 41.7001 	 8.52477 	 85.6612
| 33> H 	 41.1171 	 9.47331 	 85.439
| 34> H 	 41.8848 	 8.7543 	 86.748
| 35> C 	 40.9348 	 7.15532 	 85.6007
| 36> H 	 41.4829 	 6.36575 	 86.223
| 37> H 	 40.811 	 6.79963 	 84.6119
| 38> H 	 39.9585 	 7.3345 	 86.0148
| 39> H 	 48.7421 	 8.1857 	 88.0187
| 40> H 	 43.7016 	 13.1673 	 84.0691
| 41> *
| 42>
| 43>                          ****END OF INPUT****

CARTESIAN COORDINATES (ANGSTROEM)
---------------------------------
  S     47.487600    9.076830   85.933900
  C     47.816900    8.478400   87.567700
  C     46.761600    8.739230   88.387300
  C     45.645900    9.357150   87.673700
  C     45.827800    9.440470   86.342100
  H     44.750500    9.552540   88.182800
  C     46.698300    8.475780   89.863400
  H     47.464100    7.752860   90.156000
  H     45.870900    7.920060   90.012400
  C     46.891600    9.710480   90.699900
  H     46.842600    9.492430   91.798500
  H     47.933200   10.050200   90.551300
  C     45.847400   10.787000   90.519400
  H     44.851100   10.339300   90.452600
  H     45.873500   11.598900   91.224500
  H     45.976900   11.348600   89.592500
  S     45.447300   11.780200   85.096700
  C     43.878300   12.202500   84.429900
  C     43.144500   11.022000   84.241700
  C     43.755300    9.876680   84.842500
  C     44.969900   10.136100   85.417800
  H     42.221300   11.079000   83.755300
  C     42.981600    8.557680   84.826200
  H     43.661400    7.900770   85.276000
  H     42.775500    8.147940   83.808400
  C     41.700100    8.524770   85.661200
  H     41.117100    9.473310   85.439000
  H     41.884800    8.754300   86.748000
  C     40.934800    7.155320   85.600700
  H     41.482900    6.365750   86.223000
  H     40.811000    6.799630   84.611900
  H     39.958500    7.334500   86.014800
  H     48.742100    8.185700   88.018700
  H     43.701600   13.167300   84.069100

 Total Charge           Charge          ....    0
 Multiplicity           Mult            ....    1
 Number of Electrons    NEL             ....  134
 Basis Dimension        Dim             ....  322

ORBITAL ENERGIES
----------------

  NO   OCC          E(Eh)            E(eV)
   0   2.0000     -88.962759     -2420.7998
   1   2.0000     -88.960079     -2420.7268
   2   2.0000     -10.325806      -280.9795
   3   2.0000     -10.323638      -280.9205
   4   2.0000     -10.317417      -280.7512
   5   2.0000     -10.310812      -280.5714
   6   2.0000     -10.303542      -280.3736
   7   2.0000     -10.296395      -280.1792
   8   2.0000     -10.294279      -280.1216
   9   2.0000     -10.292351      -280.0691
  10   2.0000     -10.289357      -279.9876
  11   2.0000     -10.288718      -279.9703
  12   2.0000     -10.287451      -279.9358
  13   2.0000     -10.283617      -279.8314
  14   2.0000     -10.282199      -279.7929
  15   2.0000     -10.273606      -279.5590
  16   2.0000      -8.077454      -219.7987
  17   2.0000      -8.075419      -219.7433
  18   2.0000      -6.036138      -164.2517
  19   2.0000      -6.033862      -164.1897
  20   2.0000      -6.032073      -164.1410
  21   2.0000      -6.029809      -164.0794
  22   2.0000      -6.027903      -164.0276
  23   2.0000      -6.026223      -163.9819
  24   2.0000      -1.010493       -27.4969
  25   2.0000      -0.984644       -26.7935
  26   2.0000      -0.920380       -25.0448
  27   2.0000      -0.903781       -24.5931
  28   2.0000      -0.873580       -23.7713
  29   2.0000      -0.846307       -23.0292
  30   2.0000      -0.842072       -22.9139
  31   2.0000      -0.820025       -22.3140
  32   2.0000      -0.787645       -21.4329
  33   2.0000      -0.776167       -21.1206
  34   2.0000      -0.706757       -19.2318
  35   2.0000      -0.704257       -19.1638
  36   2.0000      -0.697580       -18.9821
  37   2.0000      -0.668069       -18.1791
  38   2.0000      -0.641221       -17.4485
  39   2.0000      -0.622788       -16.9469
  40   2.0000      -0.599317       -16.3082
  41   2.0000      -0.576614       -15.6905
  42   2.0000      -0.558468       -15.1967
  43   2.0000      -0.551296       -15.0015
  44   2.0000      -0.547406       -14.8957
  45   2.0000      -0.522756       -14.2249
  46   2.0000      -0.519475       -14.1356
  47   2.0000      -0.517513       -14.0822
  48   2.0000      -0.514009       -13.9869
  49   2.0000      -0.500749       -13.6261
  50   2.0000      -0.492603       -13.4044
  51   2.0000      -0.477673       -12.9982
  52   2.0000      -0.469491       -12.7755
  53   2.0000      -0.465567       -12.6687
  54   2.0000      -0.460383       -12.5277
  55   2.0000      -0.445951       -12.1349
  56   2.0000      -0.443031       -12.0555
  57   2.0000      -0.438742       -11.9388
  58   2.0000      -0.431541       -11.7428
  59   2.0000      -0.428760       -11.6672
  60   2.0000      -0.418427       -11.3860
  61   2.0000      -0.407094       -11.0776
  62   2.0000      -0.404551       -11.0084
  63   2.0000      -0.340009        -9.2521
  64   2.0000      -0.327182        -8.9031
  65   2.0000      -0.324955        -8.8425
  66   2.0000      -0.308359        -8.3909
  67   0.0000       0.043036         1.1711
  68   0.0000       0.055030         1.4974
  69   0.0000       0.113224         3.0810
  70   0.0000       0.124296         3.3823
  71   0.0000       0.127299         3.4640

MULLIKEN ATOMIC CHARGES
-----------------------
   0 S :    0.094327
   1 C :   -0.085106
   2 C :   -0.142921
   3 C :    0.071020
   4 C :   -0.143017
   5 H :   -0.012205
   6 C :    0.124170
   7 H :    0.008562
   8 H :    0.000244
   9 C :   -0.067746
  10 H :    0.033450
  11 H :    0.027841
  12 C :   -0.052543
  13 H :    0.028892
  14 H :    0.029005
  15 H :    0.038005
  16 S :    0.100136
  17 C :   -0.082548
  18 C :   -0.014830
  19 C :   -0.032158
  20 C :   -0.157017
  21 H :    0.005238
  22 C :    0.105872
  23 H :    0.004464
  24 H :    0.039596
  25 C :   -0.134687
  26 H :    0.027906
  27 H :    0.027026
  28 C :   -0.029673
  29 H :    0.051025
  30 H :    0.025870
  31 H :    0.035133
  32 H :    0.033021
  33 H :    0.043647
Sum of atomic charges:   -0.0000000

LOEWDIN ATOMIC CHARGES
----------------------
   0 S :    0.389113
   1 C :   -0.187153
   2 C :   -0.056758
   3 C :   -0.046374
   4 C :   -0.198256
   5 H :    0.021557
   6 C :   -0.028863
   7 H :    0.035172
   8 H :    0.015751
   9 C :   -0.041313
  10 H :    0.029371
  11 H :    0.027558
  12 C :   -0.070131
  13 H :    0.024634
  14 H :    0.025006
  15 H :    0.027818
  16 S :    0.407325
  17 C :   -0.167088
  18 C :   -0.062216
  19 C :   -0.052989
  20 C :   -0.201580
  21 H :    0.021978
  22 C :   -0.032569
  23 H :    0.021715
  24 H :    0.036986
  25 C :   -0.052765
  26 H :    0.023814
  27 H :    0.027092
  28 C :   -0.062125
  29 H :    0.037911
  30 H :    0.016917
  31 H :    0.027049
  32 H :    0.027348
  33 H :    0.016067

  Mayer bond orders larger than 0.100000
B(  0-S ,  1-C ) :   1.1132 B(  0-S ,  4-C ) :   1.1299 B(  1-C ,  2-C ) :   1.6700
B(  1-C , 32-H ) :   0.9619 B(  2-C ,  3-C ) :   1.2137 B(  2-C ,  6-C ) :   1.0181
B(  3-C ,  4-C ) :   1.6080 B(  3-C ,  5-H ) :   1.0014 B(  4-C , 20-C ) :   0.9998
B(  6-C ,  7-H ) :   0.9311 B(  6-C ,  8-H ) :   0.9336 B(  6-C ,  9-C ) :   1.0770
B(  9-C , 10-H ) :   0.9545 B(  9-C , 11-H ) :   0.9508 B(  9-C , 12-C ) :   1.0890
B( 12-C , 13-H ) :   0.9705 B( 12-C , 14-H ) :   0.9700 B( 12-C , 15-H ) :   0.9645
B( 16-S , 17-C ) :   1.1658 B( 16-S , 20-C ) :   1.1464 B( 17-C , 18-C ) :   1.5829
B( 17-C , 20-C ) :   0.1024 B( 17-C , 33-H ) :   0.9792 B( 18-C , 19-C ) :   1.2255
B( 18-C , 21-H ) :   1.0025 B( 19-C , 20-C ) :   1.6291 B( 19-C , 22-C ) :   1.0418
B( 22-C , 23-H ) :   0.9254 B( 22-C , 24-H ) :   0.9401 B( 22-C , 25-C ) :   1.0567
B( 25-C , 26-H ) :   0.9608 B( 25-C , 27-H ) :   0.9498 B( 25-C , 28-C ) :   1.0674
B( 28-C , 29-H ) :   0.9755 B( 28-C , 30-H ) :   0.9777 B( 28-C , 31-H ) :   0.9736

Dispersion correction           -0.014412018
FINAL SINGLE POINT ENERGY     -1339.864148560215

DIPOLE MOMENT
-------------
                                X             Y             Z
Electronic contribution:     15.66922       8.54576     -16.21452
Nuclear contribution   :    -16.12559      -8.61548      16.68644
                        -----------------------------------------
Total Dipole Moment    :     -0.45638      -0.06972       0.47192
                        -----------------------------------------
Magnitude (a.u.)       :      0.66019
Magnitude (Debye)      :      1.67806

Rotational constants in cm-1:     0.016991     0.008885     0.007618
Rotational constants in MHz :   509.382616   266.377909   228.387768

                             ****ORCA TERMINATED NORMALLY****
TOTAL RUN TIME: 0 days 0 hours 0 minutes 30 seconds 774 msec
