                         Program Version 4.2.1 -  RELEASE  -
|  1> ! wB97X-D3 SP def2-SVP
|  2> %pal
|  3> nprocs 16
|  4> end
|  5>
|  6> * xyz 0 1
|  7> S 	 40.106 	 7.94099 	 85.0337
|  8> C 	 40.0687 	 7.82253 	 83.3467
|  9> C 	 39.6037 	 6.67209 	 82.8115
| 10> C 	 39.2286 	 5.79399 	 83.8201
| 11> C 	 39.4019 	 6.35891 	 85.05
| 12> H 	 39.0062 	 4.73502 	 83.691
| 13> C 	 39.5231 	 6.47177 	 81.3068
| 14> H 	 38.844 	 7.23796 	 80.9646
| 15> H 	 39.0844 	 5.50218 	 81.0934
| 16> C 	 40.841 	 6.43608 	 80.5444
| 17> H 	 41.3458 	 5.54784 	 80.8073
| 18> H 	 40.6571 	 6.27128 	 79.4812
| 19> C 	 41.834 	 7.57042 	 80.6699
| 20> H 	 42.4855 	 7.70031 	 81.5582
| 21> H 	 42.5959 	 7.52721 	 79.8977
| 22> H 	 41.2558 	 8.51276 	 80.4198
| 23> S 	 38.1454 	 6.45131 	 87.5218
| 24> C 	 38.2321 	 5.17612 	 88.6141
| 25> C 	 39.33 	 4.40262 	 88.2584
| 26> C 	 39.933 	 4.7002 	 87.0117
| 27> C 	 39.2667 	 5.74283 	 86.3529
| 28> H 	 39.6055 	 3.52203 	 88.8476
| 29> C 	 41.1739 	 4.03506 	 86.4391
| 30> H 	 40.8815 	 3.69707 	 85.4507
| 31> H 	 41.3335 	 3.10119 	 86.9988
| 32> C 	 42.4783 	 4.84306 	 86.3339
| 33> H 	 42.8743 	 5.04165 	 87.3615
| 34> H 	 42.1396 	 5.80796 	 86.0464
| 35> C 	 43.4524 	 4.24356 	 85.3548
| 36> H 	 43.0495 	 4.2051 	 84.3645
| 37> H 	 43.7595 	 3.23767 	 85.6749
| 38> H 	 44.3496 	 4.79821 	 85.1692
| 39> H 	 40.4179 	 8.61077 	 82.7474
| 40> H 	 37.6061 	 4.94173 	 89.474
| 41> *
| 42>
| 43>                          ****END OF INPUT****

CARTESIAN COORDINATES (ANGSTROEM)
---------------------------------
  S     40.106000    7.940990   85.033700
  C     40.068700    7.822530   83.346700
  C     39.603700    6.672090   82.811500
  C     39.228600    5.793990   83.820100
  C     39.401900    6.358910   85.050000
  H     39.006200    4.735020   83.691000
  C     39.523100    6.471770   81.306800
  H     38.844000    7.237960   80.964600
  H     39.084400    5.502180   81.093400
  C     40.841000    6.436080   80.544400
  H     41.345800    5.547840   80.807300
  H     40.657100    6.271280   79.481200
  C     41.834000    7.570420   80.669900
  H     42.485500    7.700310   81.558200
  H     42.595900    7.527210   79.897700
  H     41.255800    8.512760   80.419800
  S     38.145400    6.451310   87.521800
  C     38.232100    5.176120   88.614100
  C     39.330000    4.402620   88.258400
  C     39.933000    4.700200   87.011700
  C     39.266700    5.742830   86.352900
  H     39.605500    3.522030   88.847600
  C     41.173900    4.035060   86.439100
  H     40.881500    3.697070   85.450700
  H     41.333500    3.101190   86.998800
  C     42.478300    4.843060   86.333900
  H     42.874300    5.041650   87.361500
  H     42.139600    5.807960   86.046400
  C     43.452400    4.243560   85.354800
  H     43.049500    4.205100   84.364500
  H     43.759500    3.237670   85.674900
  H     44.349600    4.798210   85.169200
  H     40.417900    8.610770   82.747400
  H     37.606100    4.941730   89.474000

 Total Charge           Charge          ....    0
 Multiplicity           Mult            ....    1
 Number of Electrons    NEL             ....  134
 Basis Dimension        Dim             ....  322

ORBITAL ENERGIES
----------------

  NO   OCC          E(Eh)            E(eV)
   0   2.0000     -88.968500     -2420.9560
   1   2.0000     -88.958793     -2420.6918
   2   2.0000     -10.321941      -280.8743
   3   2.0000     -10.320148      -280.8255
   4   2.0000     -10.311947      -280.6024
   5   2.0000     -10.299603      -280.2664
   6   2.0000     -10.297739      -280.2157
   7   2.0000     -10.292174      -280.0643
   8   2.0000     -10.291837      -280.0551
   9   2.0000     -10.291026      -280.0330
  10   2.0000     -10.288294      -279.9587
  11   2.0000     -10.286658      -279.9142
  12   2.0000     -10.284611      -279.8585
  13   2.0000     -10.283649      -279.8323
  14   2.0000     -10.280378      -279.7433
  15   2.0000     -10.272344      -279.5247
  16   2.0000      -8.084616      -219.9936
  17   2.0000      -8.074626      -219.7217
  18   2.0000      -6.042662      -164.4292
  19   2.0000      -6.039181      -164.3345
  20   2.0000      -6.035505      -164.2345
  21   2.0000      -6.032946      -164.1648
  22   2.0000      -6.028849      -164.0533
  23   2.0000      -6.025647      -163.9662
  24   2.0000      -1.018304       -27.7095
  25   2.0000      -0.993033       -27.0218
  26   2.0000      -0.917436       -24.9647
  27   2.0000      -0.907731       -24.7006
  28   2.0000      -0.868970       -23.6459
  29   2.0000      -0.861098       -23.4317
  30   2.0000      -0.848560       -23.0905
  31   2.0000      -0.813776       -22.1440
  32   2.0000      -0.788160       -21.4469
  33   2.0000      -0.773988       -21.0613
  34   2.0000      -0.711131       -19.3509
  35   2.0000      -0.700033       -19.0489
  36   2.0000      -0.693642       -18.8749
  37   2.0000      -0.657587       -17.8938
  38   2.0000      -0.646222       -17.5846
  39   2.0000      -0.620949       -16.8969
  40   2.0000      -0.592519       -16.1233
  41   2.0000      -0.569920       -15.5083
  42   2.0000      -0.561964       -15.2918
  43   2.0000      -0.560193       -15.2436
  44   2.0000      -0.538531       -14.6542
  45   2.0000      -0.524498       -14.2723
  46   2.0000      -0.518076       -14.0976
  47   2.0000      -0.511791       -13.9266
  48   2.0000      -0.509819       -13.8729
  49   2.0000      -0.495982       -13.4963
  50   2.0000      -0.491127       -13.3643
  51   2.0000      -0.480661       -13.0795
  52   2.0000      -0.477711       -12.9992
  53   2.0000      -0.467180       -12.7126
  54   2.0000      -0.463573       -12.6145
  55   2.0000      -0.455883       -12.4052
  56   2.0000      -0.439159       -11.9501
  57   2.0000      -0.437623       -11.9083
  58   2.0000      -0.430189       -11.7060
  59   2.0000      -0.426584       -11.6079
  60   2.0000      -0.421574       -11.4716
  61   2.0000      -0.416131       -11.3235
  62   2.0000      -0.406811       -11.0699
  63   2.0000      -0.343324        -9.3423
  64   2.0000      -0.332657        -9.0521
  65   2.0000      -0.324092        -8.8190
  66   2.0000      -0.292041        -7.9469
  67   0.0000       0.040593         1.1046
  68   0.0000       0.057042         1.5522
  69   0.0000       0.115278         3.1369
  70   0.0000       0.126918         3.4536
  71   0.0000       0.133017         3.6196

MULLIKEN ATOMIC CHARGES
-----------------------
   0 S :    0.143449
   1 C :   -0.099832
   2 C :   -0.088113
   3 C :    0.028405
   4 C :   -0.169757
   5 H :    0.018512
   6 C :    0.099958
   7 H :    0.038595
   8 H :    0.012782
   9 C :   -0.039077
  10 H :    0.008707
  11 H :    0.027887
  12 C :   -0.082732
  13 H :    0.050011
  14 H :    0.022761
  15 H :    0.032063
  16 S :    0.108454
  17 C :   -0.085357
  18 C :   -0.063601
  19 C :   -0.026701
  20 C :   -0.195773
  21 H :    0.016989
  22 C :    0.084633
  23 H :    0.007177
  24 H :    0.007611
  25 C :   -0.024716
  26 H :    0.028885
  27 H :    0.004904
  28 C :   -0.019294
  29 H :    0.020588
  30 H :    0.028956
  31 H :    0.023820
  32 H :    0.016036
  33 H :    0.063770
Sum of atomic charges:   -0.0000000

LOEWDIN ATOMIC CHARGES
----------------------
   0 S :    0.447819
   1 C :   -0.197823
   2 C :   -0.069246
   3 C :   -0.054743
   4 C :   -0.200829
   5 H :    0.037584
   6 C :   -0.024645
   7 H :    0.032713
   8 H :    0.032143
   9 C :   -0.041944
  10 H :    0.019146
  11 H :    0.030304
  12 C :   -0.079341
  13 H :    0.030007
  14 H :    0.026331
  15 H :    0.028419
  16 S :    0.425324
  17 C :   -0.211921
  18 C :   -0.083923
  19 C :   -0.059441
  20 C :   -0.205053
  21 H :    0.029174
  22 C :   -0.030978
  23 H :    0.027462
  24 H :    0.025498
  25 C :   -0.038639
  26 H :    0.028732
  27 H :    0.013538
  28 C :   -0.061847
  29 H :    0.024430
  30 H :    0.026862
  31 H :    0.025208
  32 H :    0.011218
  33 H :    0.038464

  Mayer bond orders larger than 0.100000
B(  0-S ,  1-C ) :   1.1532 B(  0-S ,  4-C ) :   1.1766 B(  1-C ,  2-C ) :   1.6261
B(  1-C , 32-H ) :   0.9606 B(  2-C ,  3-C ) :   1.2596 B(  2-C ,  6-C ) :   0.9998
B(  3-C ,  4-C ) :   1.5851 B(  3-C ,  5-H ) :   0.9982 B(  4-C , 20-C ) :   1.0120
B(  6-C ,  7-H ) :   0.9407 B(  6-C ,  8-H ) :   0.9345 B(  6-C ,  9-C ) :   1.0856
B(  9-C , 10-H ) :   0.9463 B(  9-C , 11-H ) :   0.9508 B(  9-C , 12-C ) :   1.0898
B( 12-C , 13-H ) :   0.9692 B( 12-C , 14-H ) :   0.9664 B( 12-C , 15-H ) :   0.9708
B( 16-S , 17-C ) :   1.1841 B( 16-S , 20-C ) :   1.1548 B( 17-C , 18-C ) :   1.5529
B( 17-C , 20-C ) :   0.1146 B( 17-C , 33-H ) :   0.9698 B( 18-C , 19-C ) :   1.2900
B( 18-C , 21-H ) :   0.9846 B( 19-C , 20-C ) :   1.5437 B( 19-C , 22-C ) :   1.0429
B( 22-C , 23-H ) :   0.9299 B( 22-C , 24-H ) :   0.9239 B( 22-C , 25-C ) :   1.0568
B( 25-C , 26-H ) :   0.9506 B( 25-C , 27-H ) :   0.9527 B( 25-C , 28-C ) :   1.0854
B( 28-C , 29-H ) :   0.9704 B( 28-C , 30-H ) :   0.9749 B( 28-C , 31-H ) :   0.9708

Dispersion correction           -0.015110346
FINAL SINGLE POINT ENERGY     -1339.873462323558

DIPOLE MOMENT
-------------
                                X             Y             Z
Electronic contribution:    -18.45929       8.81764      19.13177
Nuclear contribution   :     18.82580      -9.17748     -19.64878
                        -----------------------------------------
Total Dipole Moment    :      0.36651      -0.35984      -0.51701
                        -----------------------------------------
Magnitude (a.u.)       :      0.72877
Magnitude (Debye)      :      1.85240

Rotational constants in cm-1:     0.021704     0.008872     0.007264
Rotational constants in MHz :   650.661334   265.980959   217.775326

                             ****ORCA TERMINATED NORMALLY****
TOTAL RUN TIME: 0 days 0 hours 0 minutes 33 seconds 759 msec
