                         Program Version 4.2.1 -  RELEASE  -
|  1> ! wB97X-D3 SP def2-SVP
|  2> %pal
|  3> nprocs 16
|  4> end
|  5>
|  6> * xyz 0 1
|  7> S 	 -80.8975 	 45.8939 	 136.946
|  8> C 	 -81.2916 	 45.5718 	 138.616
|  9> C 	 -82.4141 	 46.3352 	 138.994
| 10> C 	 -82.73 	 47.3738 	 138.11
| 11> C 	 -82.0438 	 47.269 	 136.916
| 12> H 	 -83.4009 	 48.1553 	 138.137
| 13> C 	 -83.1394 	 46.2797 	 140.278
| 14> H 	 -83.3976 	 45.1875 	 140.465
| 15> H 	 -83.9883 	 46.9342 	 140.152
| 16> C 	 -82.4475 	 46.9121 	 141.488
| 17> H 	 -82.1121 	 47.9035 	 141.239
| 18> H 	 -83.2574 	 46.9724 	 142.209
| 19> C 	 -81.3815 	 46.0615 	 142.254
| 20> H 	 -81.2283 	 46.5958 	 143.22
| 21> H 	 -81.6777 	 45.0051 	 142.278
| 22> H 	 -80.4313 	 45.9311 	 141.709
| 23> S 	 -83.7067 	 48.5768 	 135.132
| 24> C 	 -82.9075 	 49.2984 	 133.748
| 25> C 	 -81.5623 	 49.397 	 133.888
| 26> C 	 -81.0698 	 48.7182 	 135.053
| 27> C 	 -82.0893 	 48.1723 	 135.792
| 28> H 	 -81.0825 	 50.0094 	 133.148
| 29> C 	 -79.6841 	 48.7128 	 135.391
| 30> H 	 -79.1774 	 48.5347 	 134.444
| 31> H 	 -79.3888 	 47.9617 	 136.107
| 32> C 	 -79.1309 	 50.0265 	 136.02
| 33> H 	 -79.3838 	 50.831 	 135.382
| 34> H 	 -78.0621 	 49.8908 	 135.954
| 35> C 	 -79.593 	 50.2675 	 137.468
| 36> H 	 -79.3462 	 49.5288 	 138.246
| 37> H 	 -80.6598 	 50.454 	 137.439
| 38> H 	 -79.1669 	 51.2455 	 137.787
| 39> H 	 -80.6458 	 44.9327 	 139.22
| 40> H 	 -83.4209 	 49.7113 	 132.89
| 41> *
| 42>
| 43>                          ****END OF INPUT****

CARTESIAN COORDINATES (ANGSTROEM)
---------------------------------
  S    -80.897500   45.893900  136.946000
  C    -81.291600   45.571800  138.616000
  C    -82.414100   46.335200  138.994000
  C    -82.730000   47.373800  138.110000
  C    -82.043800   47.269000  136.916000
  H    -83.400900   48.155300  138.137000
  C    -83.139400   46.279700  140.278000
  H    -83.397600   45.187500  140.465000
  H    -83.988300   46.934200  140.152000
  C    -82.447500   46.912100  141.488000
  H    -82.112100   47.903500  141.239000
  H    -83.257400   46.972400  142.209000
  C    -81.381500   46.061500  142.254000
  H    -81.228300   46.595800  143.220000
  H    -81.677700   45.005100  142.278000
  H    -80.431300   45.931100  141.709000
  S    -83.706700   48.576800  135.132000
  C    -82.907500   49.298400  133.748000
  C    -81.562300   49.397000  133.888000
  C    -81.069800   48.718200  135.053000
  C    -82.089300   48.172300  135.792000
  H    -81.082500   50.009400  133.148000
  C    -79.684100   48.712800  135.391000
  H    -79.177400   48.534700  134.444000
  H    -79.388800   47.961700  136.107000
  C    -79.130900   50.026500  136.020000
  H    -79.383800   50.831000  135.382000
  H    -78.062100   49.890800  135.954000
  C    -79.593000   50.267500  137.468000
  H    -79.346200   49.528800  138.246000
  H    -80.659800   50.454000  137.439000
  H    -79.166900   51.245500  137.787000
  H    -80.645800   44.932700  139.220000
  H    -83.420900   49.711300  132.890000

 Total Charge           Charge          ....    0
 Multiplicity           Mult            ....    1
 Number of Electrons    NEL             ....  134
 Basis Dimension        Dim             ....  322

ORBITAL ENERGIES
----------------

  NO   OCC          E(Eh)            E(eV)
   0   2.0000     -88.964261     -2420.8406
   1   2.0000     -88.963452     -2420.8186
   2   2.0000     -10.325923      -280.9827
   3   2.0000     -10.322791      -280.8974
   4   2.0000     -10.315826      -280.7079
   5   2.0000     -10.314771      -280.6792
   6   2.0000     -10.298562      -280.2381
   7   2.0000     -10.297856      -280.2189
   8   2.0000     -10.290804      -280.0270
   9   2.0000     -10.287938      -279.9490
  10   2.0000     -10.285252      -279.8759
  11   2.0000     -10.284584      -279.8578
  12   2.0000     -10.284190      -279.8470
  13   2.0000     -10.282207      -279.7931
  14   2.0000     -10.278182      -279.6836
  15   2.0000     -10.276491      -279.6375
  16   2.0000      -8.078113      -219.8166
  17   2.0000      -8.077887      -219.8105
  18   2.0000      -6.036535      -164.2625
  19   2.0000      -6.036409      -164.2590
  20   2.0000      -6.032702      -164.1582
  21   2.0000      -6.032695      -164.1580
  22   2.0000      -6.029070      -164.0593
  23   2.0000      -6.028401      -164.0411
  24   2.0000      -1.005709       -27.3667
  25   2.0000      -0.983281       -26.7564
  26   2.0000      -0.913773       -24.8650
  27   2.0000      -0.910963       -24.7886
  28   2.0000      -0.869423       -23.6582
  29   2.0000      -0.853162       -23.2157
  30   2.0000      -0.846878       -23.0447
  31   2.0000      -0.813722       -22.1425
  32   2.0000      -0.784186       -21.3388
  33   2.0000      -0.770351       -20.9623
  34   2.0000      -0.708972       -19.2921
  35   2.0000      -0.700502       -19.0616
  36   2.0000      -0.691617       -18.8198
  37   2.0000      -0.664574       -18.0840
  38   2.0000      -0.645424       -17.5629
  39   2.0000      -0.615100       -16.7377
  40   2.0000      -0.600106       -16.3297
  41   2.0000      -0.569180       -15.4882
  42   2.0000      -0.554661       -15.0931
  43   2.0000      -0.548119       -14.9151
  44   2.0000      -0.541605       -14.7378
  45   2.0000      -0.537325       -14.6214
  46   2.0000      -0.524613       -14.2754
  47   2.0000      -0.512330       -13.9412
  48   2.0000      -0.501907       -13.6576
  49   2.0000      -0.497754       -13.5446
  50   2.0000      -0.487249       -13.2587
  51   2.0000      -0.477572       -12.9954
  52   2.0000      -0.472040       -12.8449
  53   2.0000      -0.467669       -12.7259
  54   2.0000      -0.453639       -12.3441
  55   2.0000      -0.445372       -12.1192
  56   2.0000      -0.443932       -12.0800
  57   2.0000      -0.436662       -11.8822
  58   2.0000      -0.435383       -11.8474
  59   2.0000      -0.426522       -11.6062
  60   2.0000      -0.420300       -11.4370
  61   2.0000      -0.414836       -11.2883
  62   2.0000      -0.406848       -11.0709
  63   2.0000      -0.347213        -9.4481
  64   2.0000      -0.329443        -8.9646
  65   2.0000      -0.325273        -8.8511
  66   2.0000      -0.283913        -7.7257
  67   0.0000       0.023467         0.6386
  68   0.0000       0.071028         1.9328
  69   0.0000       0.101060         2.7500
  70   0.0000       0.113221         3.0809
  71   0.0000       0.129435         3.5221

MULLIKEN ATOMIC CHARGES
-----------------------
   0 S :    0.107773
   1 C :   -0.158302
   2 C :   -0.035377
   3 C :    0.028849
   4 C :   -0.138960
   5 H :   -0.020061
   6 C :    0.049828
   7 H :    0.043836
   8 H :    0.016621
   9 C :   -0.059071
  10 H :    0.025356
  11 H :    0.027728
  12 C :   -0.066143
  13 H :    0.054429
  14 H :    0.025531
  15 H :    0.027802
  16 S :    0.093949
  17 C :   -0.085502
  18 C :   -0.036967
  19 C :   -0.015051
  20 C :   -0.157817
  21 H :    0.014958
  22 C :    0.057712
  23 H :    0.021788
  24 H :    0.015086
  25 C :   -0.045747
  26 H :    0.012011
  27 H :    0.026829
  28 C :   -0.054523
  29 H :    0.047792
  30 H :    0.034520
  31 H :    0.029577
  32 H :    0.059599
  33 H :    0.051947
Sum of atomic charges:   -0.0000000

LOEWDIN ATOMIC CHARGES
----------------------
   0 S :    0.402957
   1 C :   -0.208291
   2 C :   -0.061433
   3 C :   -0.059726
   4 C :   -0.169804
   5 H :    0.019005
   6 C :   -0.037671
   7 H :    0.039936
   8 H :    0.032050
   9 C :   -0.035142
  10 H :    0.021951
  11 H :    0.024662
  12 C :   -0.074531
  13 H :    0.035639
  14 H :    0.025475
  15 H :    0.021400
  16 S :    0.373856
  17 C :   -0.169963
  18 C :   -0.070249
  19 C :   -0.053126
  20 C :   -0.188745
  21 H :    0.032769
  22 C :   -0.040481
  23 H :    0.033872
  24 H :    0.018177
  25 C :   -0.025840
  26 H :    0.015718
  27 H :    0.022857
  28 C :   -0.068101
  29 H :    0.030030
  30 H :    0.026159
  31 H :    0.029972
  32 H :    0.027970
  33 H :    0.028647

  Mayer bond orders larger than 0.100000
B(  0-S ,  1-C ) :   1.1458 B(  0-S ,  4-C ) :   1.1441 B(  1-C ,  2-C ) :   1.5540
B(  1-C ,  4-C ) :   0.1054 B(  1-C , 32-H ) :   0.9746 B(  2-C ,  3-C ) :   1.2379
B(  2-C ,  6-C ) :   1.0424 B(  3-C ,  4-C ) :   1.5663 B(  3-C ,  5-H ) :   1.0035
B(  4-C , 20-C ) :   1.0622 B(  6-C ,  7-H ) :   0.9324 B(  6-C ,  8-H ) :   0.9335
B(  6-C ,  9-C ) :   1.0836 B(  9-C , 10-H ) :   0.9518 B(  9-C , 11-H ) :   0.9588
B(  9-C , 12-C ) :   1.0714 B( 12-C , 13-H ) :   0.9743 B( 12-C , 14-H ) :   0.9732
B( 12-C , 15-H ) :   0.9741 B( 16-S , 17-C ) :   1.1393 B( 16-S , 20-C ) :   1.1007
B( 17-C , 18-C ) :   1.6638 B( 17-C , 33-H ) :   0.9629 B( 18-C , 19-C ) :   1.1710
B( 18-C , 21-H ) :   0.9940 B( 19-C , 20-C ) :   1.6043 B( 19-C , 22-C ) :   1.0885
B( 22-C , 23-H ) :   0.9148 B( 22-C , 24-H ) :   0.9186 B( 22-C , 25-C ) :   1.0773
B( 25-C , 26-H ) :   0.9550 B( 25-C , 27-H ) :   0.9551 B( 25-C , 28-C ) :   1.0772
B( 28-C , 29-H ) :   0.9752 B( 28-C , 30-H ) :   0.9746 B( 28-C , 31-H ) :   0.9707

Dispersion correction           -0.015312230
FINAL SINGLE POINT ENERGY     -1339.866380680328

DIPOLE MOMENT
-------------
                                X             Y             Z
Electronic contribution:     -9.91797      -5.80042     -20.05928
Nuclear contribution   :     10.13708       6.18773      20.25371
                        -----------------------------------------
Total Dipole Moment    :      0.21911       0.38731       0.19442
                        -----------------------------------------
Magnitude (a.u.)       :      0.48561
Magnitude (Debye)      :      1.23433

Rotational constants in cm-1:     0.022174     0.008348     0.007430
Rotational constants in MHz :   664.764234   250.256603   222.741250

                             ****ORCA TERMINATED NORMALLY****
TOTAL RUN TIME: 0 days 0 hours 0 minutes 38 seconds 412 msec
