                         Program Version 4.2.1 -  RELEASE  -
|  1> ! wB97X-D3 SP def2-SVP
|  2> %pal
|  3> nprocs 16
|  4> end
|  5>
|  6> * xyz 0 1
|  7> S 	 55.9954 	 11.9784 	 53.8561
|  8> C 	 56.2457 	 13.5692 	 53.0948
|  9> C 	 55.3351 	 13.8373 	 52.0948
| 10> C 	 54.2782 	 12.8855 	 52.0405
| 11> C 	 54.4673 	 11.8194 	 52.94
| 12> H 	 53.4887 	 12.9443 	 51.3196
| 13> C 	 55.3373 	 15.1474 	 51.2961
| 14> H 	 56.2084 	 15.7066 	 51.6138
| 15> H 	 54.5197 	 15.7857 	 51.5798
| 16> C 	 55.4957 	 14.9841 	 49.7368
| 17> H 	 54.6714 	 14.3814 	 49.3697
| 18> H 	 55.6483 	 15.9694 	 49.2971
| 19> C 	 56.749 	 14.2044 	 49.4019
| 20> H 	 57.6404 	 14.4496 	 49.9634
| 21> H 	 56.5068 	 13.083 	 49.6389
| 22> H 	 56.8911 	 14.3507 	 48.2927
| 23> S 	 54.6511 	 9.01993 	 53.3364
| 24> C 	 53.1541 	 8.09891 	 53.4538
| 25> C 	 52.0861 	 8.94781 	 53.1467
| 26> C 	 52.3959 	 10.3204 	 52.9808
| 27> C 	 53.7207 	 10.5791 	 53.0866
| 28> H 	 51.0927 	 8.51314 	 53.2196
| 29> C 	 51.279 	 11.2791 	 52.8602
| 30> H 	 51.7377 	 12.2811 	 52.8303
| 31> H 	 50.6451 	 11.2224 	 53.7066
| 32> C 	 50.4187 	 11.1069 	 51.6144
| 33> H 	 49.9075 	 10.0757 	 51.6782
| 34> H 	 51.0908 	 11.1528 	 50.803
| 35> C 	 49.3273 	 12.1044 	 51.3769
| 36> H 	 49.7258 	 13.139 	 51.1669
| 37> H 	 48.5206 	 12.1929 	 52.0862
| 38> H 	 48.824 	 11.8296 	 50.4467
| 39> H 	 57.1545 	 14.1748 	 53.2262
| 40> H 	 53.0331 	 7.00347 	 53.5545
| 41> *
| 42>
| 43>                          ****END OF INPUT****

CARTESIAN COORDINATES (ANGSTROEM)
---------------------------------
  S     55.995400   11.978400   53.856100
  C     56.245700   13.569200   53.094800
  C     55.335100   13.837300   52.094800
  C     54.278200   12.885500   52.040500
  C     54.467300   11.819400   52.940000
  H     53.488700   12.944300   51.319600
  C     55.337300   15.147400   51.296100
  H     56.208400   15.706600   51.613800
  H     54.519700   15.785700   51.579800
  C     55.495700   14.984100   49.736800
  H     54.671400   14.381400   49.369700
  H     55.648300   15.969400   49.297100
  C     56.749000   14.204400   49.401900
  H     57.640400   14.449600   49.963400
  H     56.506800   13.083000   49.638900
  H     56.891100   14.350700   48.292700
  S     54.651100    9.019930   53.336400
  C     53.154100    8.098910   53.453800
  C     52.086100    8.947810   53.146700
  C     52.395900   10.320400   52.980800
  C     53.720700   10.579100   53.086600
  H     51.092700    8.513140   53.219600
  C     51.279000   11.279100   52.860200
  H     51.737700   12.281100   52.830300
  H     50.645100   11.222400   53.706600
  C     50.418700   11.106900   51.614400
  H     49.907500   10.075700   51.678200
  H     51.090800   11.152800   50.803000
  C     49.327300   12.104400   51.376900
  H     49.725800   13.139000   51.166900
  H     48.520600   12.192900   52.086200
  H     48.824000   11.829600   50.446700
  H     57.154500   14.174800   53.226200
  H     53.033100    7.003470   53.554500

 Total Charge           Charge          ....    0
 Multiplicity           Mult            ....    1
 Number of Electrons    NEL             ....  134
 Basis Dimension        Dim             ....  322

ORBITAL ENERGIES
----------------

  NO   OCC          E(Eh)            E(eV)
   0   2.0000     -88.970253     -2421.0037
   1   2.0000     -88.965756     -2420.8813
   2   2.0000     -10.339588      -281.3545
   3   2.0000     -10.331298      -281.1289
   4   2.0000     -10.323371      -280.9132
   5   2.0000     -10.317225      -280.7460
   6   2.0000     -10.303267      -280.3662
   7   2.0000     -10.300705      -280.2964
   8   2.0000     -10.297590      -280.2117
   9   2.0000     -10.292782      -280.0808
  10   2.0000     -10.292628      -280.0766
  11   2.0000     -10.289014      -279.9783
  12   2.0000     -10.288779      -279.9719
  13   2.0000     -10.284786      -279.8633
  14   2.0000     -10.283229      -279.8209
  15   2.0000     -10.280686      -279.7517
  16   2.0000      -8.083779      -219.9708
  17   2.0000      -8.079096      -219.8434
  18   2.0000      -6.042357      -164.4209
  19   2.0000      -6.038592      -164.3184
  20   2.0000      -6.037874      -164.2989
  21   2.0000      -6.034398      -164.2043
  22   2.0000      -6.033870      -164.1900
  23   2.0000      -6.029568      -164.0729
  24   2.0000      -1.001917       -27.2636
  25   2.0000      -0.979255       -26.6469
  26   2.0000      -0.916499       -24.9392
  27   2.0000      -0.909667       -24.7533
  28   2.0000      -0.868329       -23.6284
  29   2.0000      -0.856905       -23.3176
  30   2.0000      -0.843710       -22.9585
  31   2.0000      -0.811213       -22.0742
  32   2.0000      -0.785540       -21.3756
  33   2.0000      -0.771716       -20.9995
  34   2.0000      -0.708470       -19.2784
  35   2.0000      -0.696484       -18.9523
  36   2.0000      -0.687759       -18.7149
  37   2.0000      -0.661226       -17.9929
  38   2.0000      -0.637492       -17.3470
  39   2.0000      -0.625106       -17.0100
  40   2.0000      -0.596579       -16.2337
  41   2.0000      -0.575283       -15.6542
  42   2.0000      -0.566332       -15.4107
  43   2.0000      -0.550807       -14.9882
  44   2.0000      -0.545659       -14.8481
  45   2.0000      -0.527733       -14.3603
  46   2.0000      -0.519349       -14.1322
  47   2.0000      -0.513774       -13.9805
  48   2.0000      -0.503809       -13.7093
  49   2.0000      -0.494545       -13.4572
  50   2.0000      -0.489366       -13.3163
  51   2.0000      -0.481797       -13.1104
  52   2.0000      -0.469823       -12.7845
  53   2.0000      -0.465291       -12.6612
  54   2.0000      -0.453679       -12.3452
  55   2.0000      -0.450296       -12.2532
  56   2.0000      -0.443692       -12.0735
  57   2.0000      -0.432314       -11.7639
  58   2.0000      -0.430192       -11.7061
  59   2.0000      -0.425588       -11.5808
  60   2.0000      -0.419919       -11.4266
  61   2.0000      -0.415521       -11.3069
  62   2.0000      -0.413427       -11.2499
  63   2.0000      -0.355224        -9.6661
  64   2.0000      -0.335542        -9.1305
  65   2.0000      -0.330605        -8.9962
  66   2.0000      -0.286074        -7.7845
  67   0.0000       0.018161         0.4942
  68   0.0000       0.068701         1.8695
  69   0.0000       0.098353         2.6763
  70   0.0000       0.120225         3.2715
  71   0.0000       0.127020         3.4564

MULLIKEN ATOMIC CHARGES
-----------------------
   0 S :    0.099465
   1 C :   -0.117075
   2 C :   -0.104515
   3 C :    0.039552
   4 C :   -0.155953
   5 H :    0.007686
   6 C :    0.062766
   7 H :    0.003801
   8 H :    0.040580
   9 C :   -0.065614
  10 H :    0.036633
  11 H :    0.038689
  12 C :   -0.107592
  13 H :    0.032291
  14 H :    0.056845
  15 H :    0.047770
  16 S :    0.084494
  17 C :   -0.103004
  18 C :   -0.050730
  19 C :   -0.022952
  20 C :   -0.120878
  21 H :    0.021711
  22 C :    0.103009
  23 H :    0.009725
  24 H :    0.021496
  25 C :   -0.099362
  26 H :    0.038323
  27 H :    0.019037
  28 C :   -0.033839
  29 H :    0.028467
  30 H :    0.029815
  31 H :    0.029293
  32 H :    0.055406
  33 H :    0.074659
Sum of atomic charges:    0.0000000

LOEWDIN ATOMIC CHARGES
----------------------
   0 S :    0.381885
   1 C :   -0.190408
   2 C :   -0.063179
   3 C :   -0.060725
   4 C :   -0.167124
   5 H :    0.027043
   6 C :   -0.029511
   7 H :    0.025336
   8 H :    0.029065
   9 C :   -0.040768
  10 H :    0.023897
  11 H :    0.026294
  12 C :   -0.075640
  13 H :    0.018410
  14 H :    0.038628
  15 H :    0.032378
  16 S :    0.359793
  17 C :   -0.183772
  18 C :   -0.070866
  19 C :   -0.061905
  20 C :   -0.170511
  21 H :    0.029477
  22 C :   -0.028308
  23 H :    0.029305
  24 H :    0.027514
  25 C :   -0.039870
  26 H :    0.031616
  27 H :    0.019304
  28 C :   -0.069701
  29 H :    0.028092
  30 H :    0.021607
  31 H :    0.030400
  32 H :    0.031070
  33 H :    0.041176

  Mayer bond orders larger than 0.100000
B(  0-S ,  1-C ) :   1.1203 B(  0-S ,  4-C ) :   1.1447 B(  1-C ,  2-C ) :   1.6365
B(  1-C , 32-H ) :   0.9563 B(  2-C ,  3-C ) :   1.2411 B(  2-C ,  6-C ) :   1.0168
B(  3-C ,  4-C ) :   1.5502 B(  3-C ,  5-H ) :   0.9913 B(  4-C , 20-C ) :   1.0733
B(  6-C ,  7-H ) :   0.9402 B(  6-C ,  8-H ) :   0.9497 B(  6-C ,  9-C ) :   1.0636
B(  9-C , 10-H ) :   0.9598 B(  9-C , 11-H ) :   0.9608 B(  9-C , 12-C ) :   1.0693
B( 12-C , 13-H ) :   0.9783 B( 12-C , 14-H ) :   0.9704 B( 12-C , 15-H ) :   0.9746
B( 16-S , 17-C ) :   1.1355 B( 16-S , 20-C ) :   1.1022 B( 17-C , 18-C ) :   1.6348
B( 17-C , 33-H ) :   0.9621 B( 18-C , 19-C ) :   1.2097 B( 18-C , 21-H ) :   0.9856
B( 19-C , 20-C ) :   1.6305 B( 19-C , 22-C ) :   1.0580 B( 22-C , 23-H ) :   0.9243
B( 22-C , 24-H ) :   0.9274 B( 22-C , 25-C ) :   1.0663 B( 25-C , 26-H ) :   0.9494
B( 25-C , 27-H ) :   0.9524 B( 25-C , 28-C ) :   1.1031 B( 28-C , 29-H ) :   0.9694
B( 28-C , 30-H ) :   0.9722 B( 28-C , 31-H ) :   0.9694

Dispersion correction           -0.014115324
FINAL SINGLE POINT ENERGY     -1339.878780748965

DIPOLE MOMENT
-------------
                                X             Y             Z
Electronic contribution:     13.45903     -16.17481      18.08397
Nuclear contribution   :    -13.95935      16.50845     -18.50367
                        -----------------------------------------
Total Dipole Moment    :     -0.50031       0.33364      -0.41971
                        -----------------------------------------
Magnitude (a.u.)       :      0.73333
Magnitude (Debye)      :      1.86399

Rotational constants in cm-1:     0.016858     0.009191     0.006720
Rotational constants in MHz :   505.383368   275.531745   201.459275

                             ****ORCA TERMINATED NORMALLY****
TOTAL RUN TIME: 0 days 0 hours 0 minutes 28 seconds 238 msec
