                         Program Version 4.2.1 -  RELEASE  -
|  1> ! wB97X-D3 SP def2-SVP
|  2> %pal
|  3> nprocs 16
|  4> end
|  5>
|  6> * xyz 0 1
|  7> S 	 -24.6503 	 1.2097 	 79.7495
|  8> C 	 -23.8375 	 -0.269204 	 79.2471
|  9> C 	 -22.4681 	 -0.0574082 	 79.3505
| 10> C 	 -22.0903 	 1.25513 	 79.7824
| 11> C 	 -23.179 	 2.07418 	 79.9249
| 12> H 	 -21.1179 	 1.58829 	 79.9745
| 13> C 	 -21.5369 	 -1.19883 	 79.0431
| 14> H 	 -20.9816 	 -0.769846 	 78.1723
| 15> H 	 -22.1088 	 -2.10832 	 78.7579
| 16> C 	 -20.6035 	 -1.52932 	 80.2106
| 17> H 	 -20.0217 	 -0.686496 	 80.6453
| 18> H 	 -21.2179 	 -1.65397 	 81.1174
| 19> C 	 -19.7856 	 -2.8002 	 80.063
| 20> H 	 -20.4069 	 -3.68093 	 80.228
| 21> H 	 -19.3778 	 -2.88588 	 79.0699
| 22> H 	 -18.8218 	 -2.87272 	 80.6051
| 23> S 	 -22.6515 	 4.75155 	 79.568
| 24> C 	 -22.956 	 5.86147 	 80.9142
| 25> C 	 -23.2997 	 5.21979 	 82.076
| 26> C 	 -23.477 	 3.8072 	 81.8029
| 27> C 	 -23.1239 	 3.36367 	 80.5526
| 28> H 	 -23.3603 	 5.76188 	 82.9798
| 29> C 	 -23.9757 	 2.88989 	 82.8993
| 30> H 	 -24.6604 	 2.18137 	 82.3537
| 31> H 	 -24.5529 	 3.52064 	 83.4847
| 32> C 	 -22.8201 	 2.31362 	 83.6962
| 33> H 	 -21.9869 	 3.04098 	 83.7995
| 34> H 	 -22.376 	 1.44033 	 83.1
| 35> C 	 -23.3546 	 1.78126 	 85.0138
| 36> H 	 -22.6379 	 1.26571 	 85.7085
| 37> H 	 -24.2043 	 1.11452 	 84.886
| 38> H 	 -23.7297 	 2.6496 	 85.5946
| 39> H 	 -24.3129 	 -1.24823 	 78.9625
| 40> H 	 -22.9494 	 6.97047 	 80.8225
| 41> *
| 42>
| 43>                          ****END OF INPUT****

CARTESIAN COORDINATES (ANGSTROEM)
---------------------------------
  S    -24.650300    1.209700   79.749500
  C    -23.837500   -0.269204   79.247100
  C    -22.468100   -0.057408   79.350500
  C    -22.090300    1.255130   79.782400
  C    -23.179000    2.074180   79.924900
  H    -21.117900    1.588290   79.974500
  C    -21.536900   -1.198830   79.043100
  H    -20.981600   -0.769846   78.172300
  H    -22.108800   -2.108320   78.757900
  C    -20.603500   -1.529320   80.210600
  H    -20.021700   -0.686496   80.645300
  H    -21.217900   -1.653970   81.117400
  C    -19.785600   -2.800200   80.063000
  H    -20.406900   -3.680930   80.228000
  H    -19.377800   -2.885880   79.069900
  H    -18.821800   -2.872720   80.605100
  S    -22.651500    4.751550   79.568000
  C    -22.956000    5.861470   80.914200
  C    -23.299700    5.219790   82.076000
  C    -23.477000    3.807200   81.802900
  C    -23.123900    3.363670   80.552600
  H    -23.360300    5.761880   82.979800
  C    -23.975700    2.889890   82.899300
  H    -24.660400    2.181370   82.353700
  H    -24.552900    3.520640   83.484700
  C    -22.820100    2.313620   83.696200
  H    -21.986900    3.040980   83.799500
  H    -22.376000    1.440330   83.100000
  C    -23.354600    1.781260   85.013800
  H    -22.637900    1.265710   85.708500
  H    -24.204300    1.114520   84.886000
  H    -23.729700    2.649600   85.594600
  H    -24.312900   -1.248230   78.962500
  H    -22.949400    6.970470   80.822500

 Total Charge           Charge          ....    0
 Multiplicity           Mult            ....    1
 Number of Electrons    NEL             ....  134
 Basis Dimension        Dim             ....  322

ORBITAL ENERGIES
----------------

  NO   OCC          E(Eh)            E(eV)
   0   2.0000     -88.967266     -2420.9224
   1   2.0000     -88.961355     -2420.7615
   2   2.0000     -10.325705      -280.9767
   3   2.0000     -10.320820      -280.8438
   4   2.0000     -10.320279      -280.8291
   5   2.0000     -10.318679      -280.7855
   6   2.0000     -10.302017      -280.3321
   7   2.0000     -10.300255      -280.2842
   8   2.0000     -10.298201      -280.2283
   9   2.0000     -10.292865      -280.0831
  10   2.0000     -10.292418      -280.0709
  11   2.0000     -10.290062      -280.0068
  12   2.0000     -10.289089      -279.9804
  13   2.0000     -10.281474      -279.7731
  14   2.0000     -10.278890      -279.7028
  15   2.0000     -10.278005      -279.6787
  16   2.0000      -8.081978      -219.9218
  17   2.0000      -8.075778      -219.7531
  18   2.0000      -6.040476      -164.3697
  19   2.0000      -6.036381      -164.2583
  20   2.0000      -6.034409      -164.2046
  21   2.0000      -6.032836      -164.1618
  22   2.0000      -6.030352      -164.0942
  23   2.0000      -6.026406      -163.9869
  24   2.0000      -1.010587       -27.4995
  25   2.0000      -0.983854       -26.7720
  26   2.0000      -0.914248       -24.8779
  27   2.0000      -0.909896       -24.7595
  28   2.0000      -0.873496       -23.7690
  29   2.0000      -0.850819       -23.1520
  30   2.0000      -0.843748       -22.9595
  31   2.0000      -0.820525       -22.3276
  32   2.0000      -0.780348       -21.2344
  33   2.0000      -0.764042       -20.7906
  34   2.0000      -0.711449       -19.3595
  35   2.0000      -0.698486       -19.0068
  36   2.0000      -0.688612       -18.7381
  37   2.0000      -0.665700       -18.1146
  38   2.0000      -0.643904       -17.5215
  39   2.0000      -0.622029       -16.9263
  40   2.0000      -0.587653       -15.9909
  41   2.0000      -0.572422       -15.5764
  42   2.0000      -0.563943       -15.3457
  43   2.0000      -0.557551       -15.1717
  44   2.0000      -0.526345       -14.3226
  45   2.0000      -0.520588       -14.1659
  46   2.0000      -0.517351       -14.0778
  47   2.0000      -0.516066       -14.0429
  48   2.0000      -0.512358       -13.9420
  49   2.0000      -0.506331       -13.7780
  50   2.0000      -0.495147       -13.4736
  51   2.0000      -0.474695       -12.9171
  52   2.0000      -0.472405       -12.8548
  53   2.0000      -0.465282       -12.6610
  54   2.0000      -0.459146       -12.4940
  55   2.0000      -0.450079       -12.2473
  56   2.0000      -0.444194       -12.0871
  57   2.0000      -0.437806       -11.9133
  58   2.0000      -0.435597       -11.8532
  59   2.0000      -0.419423       -11.4131
  60   2.0000      -0.412305       -11.2194
  61   2.0000      -0.409362       -11.1393
  62   2.0000      -0.403881       -10.9902
  63   2.0000      -0.339900        -9.2491
  64   2.0000      -0.331541        -9.0217
  65   2.0000      -0.322997        -8.7892
  66   2.0000      -0.303061        -8.2467
  67   0.0000       0.041482         1.1288
  68   0.0000       0.059634         1.6227
  69   0.0000       0.116106         3.1594
  70   0.0000       0.121357         3.3023
  71   0.0000       0.129868         3.5339

MULLIKEN ATOMIC CHARGES
-----------------------
   0 S :    0.113748
   1 C :   -0.151580
   2 C :   -0.097515
   3 C :    0.059004
   4 C :   -0.124565
   5 H :   -0.004938
   6 C :    0.085211
   7 H :    0.048529
   8 H :    0.023920
   9 C :   -0.110924
  10 H :    0.029199
  11 H :    0.024591
  12 C :   -0.034346
  13 H :    0.037646
  14 H :    0.015314
  15 H :    0.035548
  16 S :    0.092627
  17 C :   -0.104884
  18 C :   -0.013133
  19 C :   -0.095274
  20 C :   -0.169684
  21 H :    0.012088
  22 C :    0.116830
  23 H :    0.033330
  24 H :   -0.009251
  25 C :   -0.074323
  26 H :    0.038991
  27 H :    0.041319
  28 C :   -0.056646
  29 H :    0.039709
  30 H :    0.032723
  31 H :    0.025449
  32 H :    0.071341
  33 H :    0.069946
Sum of atomic charges:   -0.0000000

LOEWDIN ATOMIC CHARGES
----------------------
   0 S :    0.426622
   1 C :   -0.212008
   2 C :   -0.061101
   3 C :   -0.051196
   4 C :   -0.203273
   5 H :    0.024377
   6 C :   -0.030820
   7 H :    0.039917
   8 H :    0.033138
   9 C :   -0.059189
  10 H :    0.028156
  11 H :    0.027532
  12 C :   -0.073522
  13 H :    0.026963
  14 H :    0.022186
  15 H :    0.033712
  16 S :    0.384166
  17 C :   -0.173538
  18 C :   -0.072251
  19 C :   -0.048731
  20 C :   -0.205606
  21 H :    0.029517
  22 C :   -0.030892
  23 H :    0.029825
  24 H :    0.014927
  25 C :   -0.044234
  26 H :    0.027875
  27 H :    0.033364
  28 C :   -0.074174
  29 H :    0.028046
  30 H :    0.025770
  31 H :    0.024543
  32 H :    0.043223
  33 H :    0.036676

  Mayer bond orders larger than 0.100000
B(  0-S ,  1-C ) :   1.1283 B(  0-S ,  4-C ) :   1.1722 B(  1-C ,  2-C ) :   1.5999
B(  1-C , 32-H ) :   0.9652 B(  2-C ,  3-C ) :   1.2373 B(  2-C ,  6-C ) :   1.0257
B(  3-C ,  4-C ) :   1.5550 B(  3-C ,  5-H ) :   1.0073 B(  4-C , 20-C ) :   1.0142
B(  6-C ,  7-H ) :   0.9292 B(  6-C ,  8-H ) :   0.9459 B(  6-C ,  9-C ) :   1.0515
B(  9-C , 10-H ) :   0.9541 B(  9-C , 11-H ) :   0.9553 B(  9-C , 12-C ) :   1.0801
B( 12-C , 13-H ) :   0.9765 B( 12-C , 14-H ) :   0.9723 B( 12-C , 15-H ) :   0.9728
B( 16-S , 17-C ) :   1.1573 B( 16-S , 20-C ) :   1.1113 B( 17-C , 18-C ) :   1.6326
B( 17-C , 33-H ) :   0.9588 B( 18-C , 19-C ) :   1.2058 B( 18-C , 21-H ) :   0.9989
B( 19-C , 20-C ) :   1.6460 B( 19-C , 22-C ) :   1.0361 B( 22-C , 23-H ) :   0.9182
B( 22-C , 24-H ) :   0.9299 B( 22-C , 25-C ) :   1.0574 B( 25-C , 26-H ) :   0.9607
B( 25-C , 27-H ) :   0.9472 B( 25-C , 28-C ) :   1.0765 B( 28-C , 29-H ) :   0.9744
B( 28-C , 30-H ) :   0.9707 B( 28-C , 31-H ) :   0.9754

Dispersion correction           -0.014644475
FINAL SINGLE POINT ENERGY     -1339.874118074991

DIPOLE MOMENT
-------------
                                X             Y             Z
Electronic contribution:    -11.36656      19.18376     -15.63969
Nuclear contribution   :     11.61807     -19.48727      16.06533
                        -----------------------------------------
Total Dipole Moment    :      0.25151      -0.30351       0.42565
                        -----------------------------------------
Magnitude (a.u.)       :      0.58013
Magnitude (Debye)      :      1.47457

Rotational constants in cm-1:     0.018250     0.008478     0.007258
Rotational constants in MHz :   547.116706   254.178847   217.584847

                             ****ORCA TERMINATED NORMALLY****
TOTAL RUN TIME: 0 days 0 hours 0 minutes 33 seconds 63 msec
