                         Program Version 4.2.1 -  RELEASE  -
|  1> ! wB97X-D3 SP def2-SVP
|  2> %pal
|  3> nprocs 16
|  4> end
|  5>
|  6> * xyz 0 1
|  7> S 	 -6.09791 	 27.908 	 47.6074
|  8> C 	 -4.82948 	 26.9672 	 46.9482
|  9> C 	 -4.19639 	 27.6873 	 45.9885
| 10> C 	 -4.50008 	 29.0877 	 45.9746
| 11> C 	 -5.55755 	 29.3823 	 46.7952
| 12> H 	 -4.05668 	 29.9521 	 45.5582
| 13> C 	 -3.07694 	 27.1033 	 45.2459
| 14> H 	 -2.85988 	 26.1026 	 45.6605
| 15> H 	 -2.18528 	 27.6974 	 45.4249
| 16> C 	 -3.236 	 27.1095 	 43.7336
| 17> H 	 -4.19551 	 26.7569 	 43.434
| 18> H 	 -3.05981 	 28.076 	 43.2427
| 19> C 	 -2.43133 	 26.0487 	 43.0165
| 20> H 	 -1.37753 	 26.1452 	 43.3278
| 21> H 	 -2.85193 	 25.0558 	 43.0986
| 22> H 	 -2.37326 	 26.2399 	 41.9558
| 23> S 	 -7.99726 	 30.7029 	 47.0148
| 24> C 	 -8.02626 	 32.4299 	 47.178
| 25> C 	 -6.73949 	 32.9006 	 47.4066
| 26> C 	 -5.71223 	 31.9027 	 47.3571
| 27> C 	 -6.23325 	 30.6787 	 47.0539
| 28> H 	 -6.52863 	 33.9071 	 47.6508
| 29> C 	 -4.19336 	 32.2188 	 47.5301
| 30> H 	 -3.58316 	 31.3088 	 47.8065
| 31> H 	 -4.12351 	 32.7587 	 48.489
| 32> C 	 -3.48603 	 33.0192 	 46.344
| 33> H 	 -4.02996 	 33.8638 	 46.1309
| 34> H 	 -3.62809 	 32.3231 	 45.4909
| 35> C 	 -2.03953 	 33.3663 	 46.5492
| 36> H 	 -1.45762 	 32.4418 	 46.6551
| 37> H 	 -1.9494 	 33.9904 	 47.4007
| 38> H 	 -1.64772 	 33.9146 	 45.7269
| 39> H 	 -4.58853 	 25.9031 	 47.078
| 40> H 	 -8.90693 	 33.044 	 47.4698
| 41> *
| 42>
| 43>                          ****END OF INPUT****

CARTESIAN COORDINATES (ANGSTROEM)
---------------------------------
  S     -6.097910   27.908000   47.607400
  C     -4.829480   26.967200   46.948200
  C     -4.196390   27.687300   45.988500
  C     -4.500080   29.087700   45.974600
  C     -5.557550   29.382300   46.795200
  H     -4.056680   29.952100   45.558200
  C     -3.076940   27.103300   45.245900
  H     -2.859880   26.102600   45.660500
  H     -2.185280   27.697400   45.424900
  C     -3.236000   27.109500   43.733600
  H     -4.195510   26.756900   43.434000
  H     -3.059810   28.076000   43.242700
  C     -2.431330   26.048700   43.016500
  H     -1.377530   26.145200   43.327800
  H     -2.851930   25.055800   43.098600
  H     -2.373260   26.239900   41.955800
  S     -7.997260   30.702900   47.014800
  C     -8.026260   32.429900   47.178000
  C     -6.739490   32.900600   47.406600
  C     -5.712230   31.902700   47.357100
  C     -6.233250   30.678700   47.053900
  H     -6.528630   33.907100   47.650800
  C     -4.193360   32.218800   47.530100
  H     -3.583160   31.308800   47.806500
  H     -4.123510   32.758700   48.489000
  C     -3.486030   33.019200   46.344000
  H     -4.029960   33.863800   46.130900
  H     -3.628090   32.323100   45.490900
  C     -2.039530   33.366300   46.549200
  H     -1.457620   32.441800   46.655100
  H     -1.949400   33.990400   47.400700
  H     -1.647720   33.914600   45.726900
  H     -4.588530   25.903100   47.078000
  H     -8.906930   33.044000   47.469800

 Total Charge           Charge          ....    0
 Multiplicity           Mult            ....    1
 Number of Electrons    NEL             ....  134
 Basis Dimension        Dim             ....  322

ORBITAL ENERGIES
----------------

  NO   OCC          E(Eh)            E(eV)
   0   2.0000     -88.966176     -2420.8927
   1   2.0000     -88.961327     -2420.7608
   2   2.0000     -10.330012      -281.0939
   3   2.0000     -10.329257      -281.0734
   4   2.0000     -10.320398      -280.8323
   5   2.0000     -10.309485      -280.5353
   6   2.0000     -10.305868      -280.4369
   7   2.0000     -10.303723      -280.3786
   8   2.0000     -10.294369      -280.1240
   9   2.0000     -10.293893      -280.1111
  10   2.0000     -10.291711      -280.0517
  11   2.0000     -10.287158      -279.9278
  12   2.0000     -10.286008      -279.8965
  13   2.0000     -10.278552      -279.6936
  14   2.0000     -10.275600      -279.6133
  15   2.0000     -10.273363      -279.5524
  16   2.0000      -8.081009      -219.8954
  17   2.0000      -8.076678      -219.7776
  18   2.0000      -6.039594      -164.3457
  19   2.0000      -6.035541      -164.2354
  20   2.0000      -6.035259      -164.2278
  21   2.0000      -6.031640      -164.1293
  22   2.0000      -6.031043      -164.1130
  23   2.0000      -6.027359      -164.0128
  24   2.0000      -1.010026       -27.4842
  25   2.0000      -0.989802       -26.9339
  26   2.0000      -0.917277       -24.9604
  27   2.0000      -0.904965       -24.6254
  28   2.0000      -0.872830       -23.7509
  29   2.0000      -0.857408       -23.3313
  30   2.0000      -0.849343       -23.1118
  31   2.0000      -0.821312       -22.3490
  32   2.0000      -0.783035       -21.3075
  33   2.0000      -0.770594       -20.9689
  34   2.0000      -0.708304       -19.2739
  35   2.0000      -0.700620       -19.0648
  36   2.0000      -0.689712       -18.7680
  37   2.0000      -0.664379       -18.0787
  38   2.0000      -0.648115       -17.6361
  39   2.0000      -0.616537       -16.7768
  40   2.0000      -0.594628       -16.1807
  41   2.0000      -0.580515       -15.7966
  42   2.0000      -0.567755       -15.4494
  43   2.0000      -0.560333       -15.2474
  44   2.0000      -0.526853       -14.3364
  45   2.0000      -0.525616       -14.3027
  46   2.0000      -0.519663       -14.1407
  47   2.0000      -0.517325       -14.0771
  48   2.0000      -0.508041       -13.8245
  49   2.0000      -0.504564       -13.7299
  50   2.0000      -0.500741       -13.6259
  51   2.0000      -0.479479       -13.0473
  52   2.0000      -0.472384       -12.8542
  53   2.0000      -0.465075       -12.6553
  54   2.0000      -0.460930       -12.5425
  55   2.0000      -0.453718       -12.3463
  56   2.0000      -0.443787       -12.0761
  57   2.0000      -0.433010       -11.7828
  58   2.0000      -0.429776       -11.6948
  59   2.0000      -0.428689       -11.6652
  60   2.0000      -0.420459       -11.4413
  61   2.0000      -0.417010       -11.3474
  62   2.0000      -0.407812       -11.0971
  63   2.0000      -0.351490        -9.5645
  64   2.0000      -0.332525        -9.0485
  65   2.0000      -0.326684        -8.8895
  66   2.0000      -0.296261        -8.0617
  67   0.0000       0.033249         0.9048
  68   0.0000       0.070208         1.9105
  69   0.0000       0.116391         3.1672
  70   0.0000       0.120765         3.2862
  71   0.0000       0.127731         3.4757

MULLIKEN ATOMIC CHARGES
-----------------------
   0 S :    0.103250
   1 C :   -0.114023
   2 C :   -0.074006
   3 C :    0.062692
   4 C :   -0.154545
   5 H :   -0.017703
   6 C :    0.077291
   7 H :    0.009871
   8 H :    0.024909
   9 C :   -0.065168
  10 H :    0.015890
  11 H :    0.034557
  12 C :   -0.060090
  13 H :    0.020820
  14 H :    0.037689
  15 H :    0.023008
  16 S :    0.109309
  17 C :   -0.090851
  18 C :   -0.035741
  19 C :   -0.018274
  20 C :   -0.163256
  21 H :    0.002727
  22 C :    0.002833
  23 H :    0.038439
  24 H :    0.024914
  25 C :   -0.046087
  26 H :    0.008242
  27 H :    0.026611
  28 C :   -0.004922
  29 H :    0.032075
  30 H :    0.024045
  31 H :    0.030362
  32 H :    0.056001
  33 H :    0.079130
Sum of atomic charges:   -0.0000000

LOEWDIN ATOMIC CHARGES
----------------------
   0 S :    0.402788
   1 C :   -0.210215
   2 C :   -0.067584
   3 C :   -0.056959
   4 C :   -0.176883
   5 H :    0.027119
   6 C :   -0.033676
   7 H :    0.029914
   8 H :    0.032596
   9 C :   -0.043779
  10 H :    0.021304
  11 H :    0.026640
  12 C :   -0.064491
  13 H :    0.021337
  14 H :    0.023760
  15 H :    0.024741
  16 S :    0.406006
  17 C :   -0.201191
  18 C :   -0.064480
  19 C :   -0.060495
  20 C :   -0.189921
  21 H :    0.022448
  22 C :   -0.038747
  23 H :    0.035217
  24 H :    0.029216
  25 C :   -0.032290
  26 H :    0.010993
  27 H :    0.023941
  28 C :   -0.056300
  29 H :    0.029041
  30 H :    0.022118
  31 H :    0.026244
  32 H :    0.038750
  33 H :    0.042840

  Mayer bond orders larger than 0.100000
B(  0-S ,  1-C ) :   1.1272 B(  0-S ,  4-C ) :   1.1469 B(  1-C ,  2-C ) :   1.6324
B(  1-C , 32-H ) :   0.9640 B(  2-C ,  3-C ) :   1.1747 B(  2-C ,  6-C ) :   1.0608
B(  3-C ,  4-C ) :   1.6100 B(  3-C ,  5-H ) :   1.0068 B(  4-C , 20-C ) :   1.0124
B(  6-C ,  7-H ) :   0.9440 B(  6-C ,  8-H ) :   0.9258 B(  6-C ,  9-C ) :   1.0502
B(  9-C , 10-H ) :   0.9602 B(  9-C , 11-H ) :   0.9540 B(  9-C , 12-C ) :   1.0903
B( 12-C , 13-H ) :   0.9705 B( 12-C , 14-H ) :   0.9797 B( 12-C , 15-H ) :   0.9720
B( 16-S , 17-C ) :   1.1479 B( 16-S , 20-C ) :   1.1437 B( 17-C , 18-C ) :   1.6086
B( 17-C , 33-H ) :   0.9590 B( 18-C , 19-C ) :   1.2464 B( 18-C , 21-H ) :   0.9910
B( 19-C , 20-C ) :   1.6127 B( 19-C , 22-C ) :   1.0368 B( 22-C , 23-H ) :   0.9406
B( 22-C , 24-H ) :   0.9338 B( 22-C , 25-C ) :   1.0450 B( 25-C , 26-H ) :   0.9533
B( 25-C , 27-H ) :   0.9543 B( 25-C , 28-C ) :   1.0921 B( 28-C , 29-H ) :   0.9735
B( 28-C , 30-H ) :   0.9731 B( 28-C , 31-H ) :   0.9706

Dispersion correction           -0.013756938
FINAL SINGLE POINT ENERGY     -1339.871809298666

DIPOLE MOMENT
-------------
                                X             Y             Z
Electronic contribution:    -26.81855      -2.32851      13.66571
Nuclear contribution   :     27.45751       2.66060     -13.81506
                        -----------------------------------------
Total Dipole Moment    :      0.63897       0.33208      -0.14935
                        -----------------------------------------
Magnitude (a.u.)       :      0.73543
Magnitude (Debye)      :      1.86933

Rotational constants in cm-1:     0.016972     0.008603     0.006421
Rotational constants in MHz :   508.808079   257.910774   192.501246

                             ****ORCA TERMINATED NORMALLY****
TOTAL RUN TIME: 0 days 0 hours 0 minutes 34 seconds 671 msec
