                         Program Version 4.2.1 -  RELEASE  -
|  1> ! wB97X-D3 SP def2-SVP
|  2> %pal
|  3> nprocs 16
|  4> end
|  5>
|  6> * xyz 0 1
|  7> S 	 -55.7749 	 54.5312 	 138.958
|  8> C 	 -54.6668 	 54.3497 	 137.681
|  9> C 	 -54.8411 	 55.3901 	 136.786
| 10> C 	 -56.0247 	 56.2077 	 137.006
| 11> C 	 -56.6604 	 55.8958 	 138.186
| 12> H 	 -56.4533 	 57.0881 	 136.421
| 13> C 	 -53.9821 	 55.489 	 135.576
| 14> H 	 -54.6881 	 55.3469 	 134.742
| 15> H 	 -53.3155 	 54.6354 	 135.771
| 16> C 	 -53.1433 	 56.7654 	 135.555
| 17> H 	 -53.8619 	 57.5863 	 135.371
| 18> H 	 -52.7057 	 57.0615 	 136.47
| 19> C 	 -52.0802 	 56.7713 	 134.374
| 20> H 	 -52.5888 	 56.7206 	 133.476
| 21> H 	 -51.4096 	 57.6523 	 134.52
| 22> H 	 -51.3741 	 55.8878 	 134.555
| 23> S 	 -59.2649 	 55.7353 	 137.505
| 24> C 	 -60.401 	 56.7112 	 138.299
| 25> C 	 -59.9399 	 57.1788 	 139.557
| 26> C 	 -58.5527 	 56.8874 	 139.71
| 27> C 	 -58.0151 	 56.3169 	 138.547
| 28> H 	 -60.5765 	 57.7231 	 140.214
| 29> C 	 -57.7898 	 57.6165 	 140.786
| 30> H 	 -58.4077 	 58.2894 	 141.286
| 31> H 	 -57.0544 	 58.1878 	 140.211
| 32> C 	 -57.0326 	 56.7837 	 141.711
| 33> H 	 -56.4667 	 57.4352 	 142.351
| 34> H 	 -56.239 	 56.2094 	 141.212
| 35> C 	 -57.8631 	 55.7584 	 142.531
| 36> H 	 -58.2589 	 55.0088 	 141.893
| 37> H 	 -58.6792 	 56.2795 	 142.969
| 38> H 	 -57.2016 	 55.425 	 143.422
| 39> H 	 -53.8599 	 53.5917 	 137.658
| 40> H 	 -61.4746 	 56.9086 	 138.121
| 41> *
| 42>
| 43>                          ****END OF INPUT****

CARTESIAN COORDINATES (ANGSTROEM)
---------------------------------
  S    -55.774900   54.531200  138.958000
  C    -54.666800   54.349700  137.681000
  C    -54.841100   55.390100  136.786000
  C    -56.024700   56.207700  137.006000
  C    -56.660400   55.895800  138.186000
  H    -56.453300   57.088100  136.421000
  C    -53.982100   55.489000  135.576000
  H    -54.688100   55.346900  134.742000
  H    -53.315500   54.635400  135.771000
  C    -53.143300   56.765400  135.555000
  H    -53.861900   57.586300  135.371000
  H    -52.705700   57.061500  136.470000
  C    -52.080200   56.771300  134.374000
  H    -52.588800   56.720600  133.476000
  H    -51.409600   57.652300  134.520000
  H    -51.374100   55.887800  134.555000
  S    -59.264900   55.735300  137.505000
  C    -60.401000   56.711200  138.299000
  C    -59.939900   57.178800  139.557000
  C    -58.552700   56.887400  139.710000
  C    -58.015100   56.316900  138.547000
  H    -60.576500   57.723100  140.214000
  C    -57.789800   57.616500  140.786000
  H    -58.407700   58.289400  141.286000
  H    -57.054400   58.187800  140.211000
  C    -57.032600   56.783700  141.711000
  H    -56.466700   57.435200  142.351000
  H    -56.239000   56.209400  141.212000
  C    -57.863100   55.758400  142.531000
  H    -58.258900   55.008800  141.893000
  H    -58.679200   56.279500  142.969000
  H    -57.201600   55.425000  143.422000
  H    -53.859900   53.591700  137.658000
  H    -61.474600   56.908600  138.121000

 Total Charge           Charge          ....    0
 Multiplicity           Mult            ....    1
 Number of Electrons    NEL             ....  134
 Basis Dimension        Dim             ....  322

ORBITAL ENERGIES
----------------

  NO   OCC          E(Eh)            E(eV)
   0   2.0000     -88.971117     -2421.0272
   1   2.0000     -88.961503     -2420.7656
   2   2.0000     -10.330673      -281.1119
   3   2.0000     -10.322947      -280.9017
   4   2.0000     -10.316084      -280.7149
   5   2.0000     -10.315167      -280.6900
   6   2.0000     -10.303206      -280.3645
   7   2.0000     -10.300648      -280.2949
   8   2.0000     -10.299937      -280.2755
   9   2.0000     -10.291233      -280.0387
  10   2.0000     -10.289260      -279.9850
  11   2.0000     -10.285637      -279.8864
  12   2.0000     -10.283580      -279.8304
  13   2.0000     -10.277450      -279.6636
  14   2.0000     -10.271326      -279.4970
  15   2.0000     -10.271040      -279.4892
  16   2.0000      -8.086521      -220.0454
  17   2.0000      -8.076179      -219.7640
  18   2.0000      -6.044891      -164.4898
  19   2.0000      -6.040915      -164.3817
  20   2.0000      -6.037398      -164.2860
  21   2.0000      -6.034688      -164.2122
  22   2.0000      -6.030542      -164.0994
  23   2.0000      -6.027057      -164.0046
  24   2.0000      -1.009831       -27.4789
  25   2.0000      -0.988294       -26.8929
  26   2.0000      -0.918135       -24.9837
  27   2.0000      -0.910206       -24.7680
  28   2.0000      -0.871061       -23.7028
  29   2.0000      -0.848480       -23.0883
  30   2.0000      -0.842803       -22.9338
  31   2.0000      -0.813790       -22.1443
  32   2.0000      -0.783495       -21.3200
  33   2.0000      -0.763316       -20.7709
  34   2.0000      -0.710787       -19.3415
  35   2.0000      -0.695548       -18.9268
  36   2.0000      -0.685161       -18.6442
  37   2.0000      -0.663346       -18.0506
  38   2.0000      -0.640250       -17.4221
  39   2.0000      -0.611895       -16.6505
  40   2.0000      -0.592658       -16.1271
  41   2.0000      -0.573167       -15.5967
  42   2.0000      -0.557714       -15.1762
  43   2.0000      -0.549480       -14.9521
  44   2.0000      -0.545219       -14.8362
  45   2.0000      -0.529636       -14.4121
  46   2.0000      -0.519870       -14.1464
  47   2.0000      -0.510748       -13.8982
  48   2.0000      -0.504192       -13.7198
  49   2.0000      -0.498164       -13.5557
  50   2.0000      -0.489718       -13.3259
  51   2.0000      -0.477431       -12.9916
  52   2.0000      -0.475016       -12.9258
  53   2.0000      -0.470013       -12.7897
  54   2.0000      -0.457083       -12.4379
  55   2.0000      -0.450062       -12.2468
  56   2.0000      -0.443877       -12.0785
  57   2.0000      -0.436399       -11.8750
  58   2.0000      -0.431676       -11.7465
  59   2.0000      -0.414608       -11.2820
  60   2.0000      -0.412579       -11.2269
  61   2.0000      -0.410248       -11.1634
  62   2.0000      -0.403703       -10.9853
  63   2.0000      -0.341319        -9.2878
  64   2.0000      -0.331792        -9.0285
  65   2.0000      -0.321711        -8.7542
  66   2.0000      -0.296411        -8.0657
  67   0.0000       0.030156         0.8206
  68   0.0000       0.058726         1.5980
  69   0.0000       0.108359         2.9486
  70   0.0000       0.113421         3.0863
  71   0.0000       0.133455         3.6315

MULLIKEN ATOMIC CHARGES
-----------------------
   0 S :    0.101686
   1 C :   -0.127446
   2 C :   -0.128436
   3 C :   -0.003406
   4 C :   -0.131311
   5 H :    0.051762
   6 C :    0.085559
   7 H :    0.048658
   8 H :    0.006325
   9 C :   -0.088681
  10 H :    0.021467
  11 H :    0.021720
  12 C :   -0.040365
  13 H :    0.031718
  14 H :    0.042072
  15 H :    0.036348
  16 S :    0.157648
  17 C :   -0.089865
  18 C :   -0.068666
  19 C :   -0.011812
  20 C :   -0.205257
  21 H :    0.010173
  22 C :    0.106626
  23 H :   -0.000213
  24 H :    0.035780
  25 C :   -0.076508
  26 H :    0.009747
  27 H :    0.019399
  28 C :   -0.043515
  29 H :    0.042263
  30 H :    0.009381
  31 H :    0.046731
  32 H :    0.071017
  33 H :    0.059401
Sum of atomic charges:    0.0000000

LOEWDIN ATOMIC CHARGES
----------------------
   0 S :    0.404587
   1 C :   -0.215062
   2 C :   -0.071485
   3 C :   -0.069048
   4 C :   -0.191873
   5 H :    0.049387
   6 C :   -0.034627
   7 H :    0.038393
   8 H :    0.028368
   9 C :   -0.039593
  10 H :    0.023120
  11 H :    0.018806
  12 C :   -0.060580
  13 H :    0.013797
  14 H :    0.031323
  15 H :    0.030869
  16 S :    0.459961
  17 C :   -0.214347
  18 C :   -0.069729
  19 C :   -0.049644
  20 C :   -0.217612
  21 H :    0.025011
  22 C :   -0.026984
  23 H :    0.019121
  24 H :    0.043405
  25 C :   -0.048446
  26 H :    0.019643
  27 H :    0.014219
  28 C :   -0.062575
  29 H :    0.021605
  30 H :    0.014052
  31 H :    0.039741
  32 H :    0.039781
  33 H :    0.036415

  Mayer bond orders larger than 0.100000
B(  0-S ,  1-C ) :   1.1492 B(  0-S ,  4-C ) :   1.1305 B(  1-C ,  2-C ) :   1.6125
B(  1-C , 32-H ) :   0.9603 B(  2-C ,  3-C ) :   1.2002 B(  2-C ,  6-C ) :   1.0312
B(  3-C ,  4-C ) :   1.5883 B(  3-C ,  5-H ) :   0.9855 B(  4-C , 20-C ) :   1.0401
B(  6-C ,  7-H ) :   0.9374 B(  6-C ,  8-H ) :   0.9401 B(  6-C ,  9-C ) :   1.0564
B(  9-C , 10-H ) :   0.9535 B(  9-C , 11-H ) :   0.9612 B(  9-C , 12-C ) :   1.0765
B( 12-C , 13-H ) :   0.9775 B( 12-C , 14-H ) :   0.9768 B( 12-C , 15-H ) :   0.9781
B( 16-S , 17-C ) :   1.1822 B( 16-S , 20-C ) :   1.1645 B( 17-C , 18-C ) :   1.5753
B( 17-C , 20-C ) :   0.1051 B( 17-C , 33-H ) :   0.9630 B( 18-C , 19-C ) :   1.2620
B( 18-C , 21-H ) :   0.9960 B( 19-C , 20-C ) :   1.5369 B( 19-C , 22-C ) :   1.0329
B( 22-C , 23-H ) :   0.9418 B( 22-C , 24-H ) :   0.9298 B( 22-C , 25-C ) :   1.0867
B( 25-C , 26-H ) :   0.9474 B( 25-C , 27-H ) :   0.9479 B( 25-C , 28-C ) :   1.0701
B( 28-C , 29-H ) :   0.9730 B( 28-C , 30-H ) :   0.9765 B( 28-C , 31-H ) :   0.9749

Dispersion correction           -0.014600645
FINAL SINGLE POINT ENERGY     -1339.850609691003

DIPOLE MOMENT
-------------
                                X             Y             Z
Electronic contribution:    -15.09010      -7.97367      -1.43814
Nuclear contribution   :     15.22805       8.32443       1.31375
                        -----------------------------------------
Total Dipole Moment    :      0.13795       0.35077      -0.12439
                        -----------------------------------------
Magnitude (a.u.)       :      0.39691
Magnitude (Debye)      :      1.00888

Rotational constants in cm-1:     0.022540     0.007666     0.006689
Rotational constants in MHz :   675.729335   229.823542   200.528340

                             ****ORCA TERMINATED NORMALLY****
TOTAL RUN TIME: 0 days 0 hours 0 minutes 32 seconds 731 msec
