                         Program Version 4.2.1 -  RELEASE  -
|  1> ! wB97X-D3 SP def2-SVP
|  2> %pal
|  3> nprocs 16
|  4> end
|  5>
|  6> * xyz 0 1
|  7> S 	 35.6706 	 15.1831 	 64.1539
|  8> C 	 35.1405 	 16.0855 	 65.591
|  9> C 	 35.946 	 15.9493 	 66.6733
| 10> C 	 37.1019 	 15.1563 	 66.3338
| 11> C 	 37.0798 	 14.5405 	 65.0715
| 12> H 	 37.9233 	 15.0981 	 67.0146
| 13> C 	 35.8402 	 16.7921 	 67.9181
| 14> H 	 35.5227 	 16.0825 	 68.7699
| 15> H 	 35.0845 	 17.5577 	 67.9358
| 16> C 	 37.1799 	 17.5076 	 68.3744
| 17> H 	 38.0065 	 16.8323 	 68.587
| 18> H 	 37.5128 	 18.1875 	 67.639
| 19> C 	 36.8891 	 18.2791 	 69.6454
| 20> H 	 36.2601 	 17.77 	 70.3646
| 21> H 	 37.8387 	 18.4936 	 70.1596
| 22> H 	 36.3757 	 19.1685 	 69.4243
| 23> S 	 38.803 	 14.1835 	 62.8954
| 24> C 	 40.0193 	 12.9707 	 62.9646
| 25> C 	 39.8715 	 12.1543 	 64.0404
| 26> C 	 38.8606 	 12.6657 	 64.9862
| 27> C 	 38.184 	 13.8056 	 64.4828
| 28> H 	 40.6311 	 11.4351 	 64.2878
| 29> C 	 38.7133 	 11.951 	 66.3054
| 30> H 	 37.9447 	 12.4938 	 66.8003
| 31> H 	 39.6813 	 12.1137 	 66.8414
| 32> C 	 38.3302 	 10.417 	 66.2257
| 33> H 	 38.3053 	 10.0017 	 67.26
| 34> H 	 39.055 	 9.87315 	 65.5577
| 35> C 	 36.8953 	 10.1983 	 65.681
| 36> H 	 36.6876 	 9.1771 	 65.4014
| 37> H 	 36.8279 	 10.6399 	 64.773
| 38> H 	 36.1186 	 10.5217 	 66.3558
| 39> H 	 34.402 	 16.8597 	 65.6205
| 40> H 	 40.8628 	 12.9132 	 62.3285
| 41> *
| 42>
| 43>                          ****END OF INPUT****

CARTESIAN COORDINATES (ANGSTROEM)
---------------------------------
  S     35.670600   15.183100   64.153900
  C     35.140500   16.085500   65.591000
  C     35.946000   15.949300   66.673300
  C     37.101900   15.156300   66.333800
  C     37.079800   14.540500   65.071500
  H     37.923300   15.098100   67.014600
  C     35.840200   16.792100   67.918100
  H     35.522700   16.082500   68.769900
  H     35.084500   17.557700   67.935800
  C     37.179900   17.507600   68.374400
  H     38.006500   16.832300   68.587000
  H     37.512800   18.187500   67.639000
  C     36.889100   18.279100   69.645400
  H     36.260100   17.770000   70.364600
  H     37.838700   18.493600   70.159600
  H     36.375700   19.168500   69.424300
  S     38.803000   14.183500   62.895400
  C     40.019300   12.970700   62.964600
  C     39.871500   12.154300   64.040400
  C     38.860600   12.665700   64.986200
  C     38.184000   13.805600   64.482800
  H     40.631100   11.435100   64.287800
  C     38.713300   11.951000   66.305400
  H     37.944700   12.493800   66.800300
  H     39.681300   12.113700   66.841400
  C     38.330200   10.417000   66.225700
  H     38.305300   10.001700   67.260000
  H     39.055000    9.873150   65.557700
  C     36.895300   10.198300   65.681000
  H     36.687600    9.177100   65.401400
  H     36.827900   10.639900   64.773000
  H     36.118600   10.521700   66.355800
  H     34.402000   16.859700   65.620500
  H     40.862800   12.913200   62.328500

 Total Charge           Charge          ....    0
 Multiplicity           Mult            ....    1
 Number of Electrons    NEL             ....  134
 Basis Dimension        Dim             ....  322

ORBITAL ENERGIES
----------------

  NO   OCC          E(Eh)            E(eV)
   0   2.0000     -88.968054     -2420.9438
   1   2.0000     -88.964434     -2420.8453
   2   2.0000     -10.336834      -281.2796
   3   2.0000     -10.330593      -281.1097
   4   2.0000     -10.313566      -280.6464
   5   2.0000     -10.310880      -280.5733
   6   2.0000     -10.308841      -280.5178
   7   2.0000     -10.302921      -280.3567
   8   2.0000     -10.298498      -280.2364
   9   2.0000     -10.296643      -280.1859
  10   2.0000     -10.296102      -280.1712
  11   2.0000     -10.292070      -280.0615
  12   2.0000     -10.291736      -280.0524
  13   2.0000     -10.287521      -279.9377
  14   2.0000     -10.274004      -279.5699
  15   2.0000     -10.261271      -279.2234
  16   2.0000      -8.081402      -219.9061
  17   2.0000      -8.079918      -219.8657
  18   2.0000      -6.040124      -164.3601
  19   2.0000      -6.038505      -164.3161
  20   2.0000      -6.036264      -164.2551
  21   2.0000      -6.034214      -164.1993
  22   2.0000      -6.031855      -164.1351
  23   2.0000      -6.030665      -164.1028
  24   2.0000      -1.002734       -27.2858
  25   2.0000      -0.980692       -26.6860
  26   2.0000      -0.911206       -24.7952
  27   2.0000      -0.902484       -24.5578
  28   2.0000      -0.874477       -23.7957
  29   2.0000      -0.848387       -23.0858
  30   2.0000      -0.843089       -22.9416
  31   2.0000      -0.815602       -22.1937
  32   2.0000      -0.780954       -21.2508
  33   2.0000      -0.770322       -20.9615
  34   2.0000      -0.715031       -19.4570
  35   2.0000      -0.700713       -19.0674
  36   2.0000      -0.695558       -18.9271
  37   2.0000      -0.654936       -17.8217
  38   2.0000      -0.636188       -17.3116
  39   2.0000      -0.623478       -16.9657
  40   2.0000      -0.594956       -16.1896
  41   2.0000      -0.570435       -15.5223
  42   2.0000      -0.569178       -15.4881
  43   2.0000      -0.546137       -14.8611
  44   2.0000      -0.545114       -14.8333
  45   2.0000      -0.524791       -14.2803
  46   2.0000      -0.515184       -14.0189
  47   2.0000      -0.506035       -13.7699
  48   2.0000      -0.505061       -13.7434
  49   2.0000      -0.497782       -13.5453
  50   2.0000      -0.487978       -13.2786
  51   2.0000      -0.482814       -13.1380
  52   2.0000      -0.469532       -12.7766
  53   2.0000      -0.461801       -12.5662
  54   2.0000      -0.457337       -12.4448
  55   2.0000      -0.452546       -12.3144
  56   2.0000      -0.443712       -12.0740
  57   2.0000      -0.437888       -11.9155
  58   2.0000      -0.433986       -11.8093
  59   2.0000      -0.429824       -11.6961
  60   2.0000      -0.420173       -11.4335
  61   2.0000      -0.417442       -11.3592
  62   2.0000      -0.412655       -11.2289
  63   2.0000      -0.352352        -9.5880
  64   2.0000      -0.329375        -8.9627
  65   2.0000      -0.326719        -8.8905
  66   2.0000      -0.289142        -7.8680
  67   0.0000       0.027209         0.7404
  68   0.0000       0.070845         1.9278
  69   0.0000       0.110867         3.0169
  70   0.0000       0.118439         3.2229
  71   0.0000       0.129915         3.5352

MULLIKEN ATOMIC CHARGES
-----------------------
   0 S :    0.098076
   1 C :   -0.113082
   2 C :   -0.039721
   3 C :    0.015742
   4 C :   -0.136632
   5 H :    0.007431
   6 C :    0.012322
   7 H :    0.047242
   8 H :    0.017441
   9 C :   -0.070843
  10 H :    0.033997
  11 H :    0.033354
  12 C :   -0.038253
  13 H :    0.021304
  14 H :    0.034242
  15 H :    0.021981
  16 S :    0.108643
  17 C :   -0.074888
  18 C :   -0.022679
  19 C :   -0.096457
  20 C :   -0.138229
  21 H :    0.023850
  22 C :    0.079608
  23 H :    0.008212
  24 H :    0.048024
  25 C :   -0.099427
  26 H :    0.041962
  27 H :    0.041476
  28 C :   -0.012525
  29 H :    0.019527
  30 H :    0.010318
  31 H :    0.035917
  32 H :    0.034363
  33 H :    0.047703
Sum of atomic charges:   -0.0000000

LOEWDIN ATOMIC CHARGES
----------------------
   0 S :    0.369624
   1 C :   -0.181930
   2 C :   -0.069596
   3 C :   -0.052072
   4 C :   -0.177598
   5 H :    0.023790
   6 C :   -0.030955
   7 H :    0.042219
   8 H :    0.024936
   9 C :   -0.033063
  10 H :    0.022186
  11 H :    0.022086
  12 C :   -0.061588
  13 H :    0.022290
  14 H :    0.030311
  15 H :    0.018049
  16 S :    0.413883
  17 C :   -0.180625
  18 C :   -0.074635
  19 C :   -0.046578
  20 C :   -0.210773
  21 H :    0.029494
  22 C :   -0.036763
  23 H :    0.022213
  24 H :    0.039437
  25 C :   -0.035996
  26 H :    0.028908
  27 H :    0.026864
  28 C :   -0.059216
  29 H :    0.026633
  30 H :    0.012192
  31 H :    0.026512
  32 H :    0.024209
  33 H :    0.025553

  Mayer bond orders larger than 0.100000
B(  0-S ,  1-C ) :   1.1208 B(  0-S ,  4-C ) :   1.1157 B(  1-C ,  2-C ) :   1.6497
B(  1-C , 32-H ) :   0.9610 B(  2-C ,  3-C ) :   1.2327 B(  2-C ,  6-C ) :   1.0238
B(  3-C ,  4-C ) :   1.5783 B(  3-C ,  5-H ) :   0.9878 B(  4-C , 20-C ) :   1.0793
B(  6-C ,  7-H ) :   0.9289 B(  6-C ,  8-H ) :   0.9556 B(  6-C ,  9-C ) :   1.0602
B(  9-C , 10-H ) :   0.9542 B(  9-C , 11-H ) :   0.9580 B(  9-C , 12-C ) :   1.0868
B( 12-C , 13-H ) :   0.9739 B( 12-C , 14-H ) :   0.9733 B( 12-C , 15-H ) :   0.9752
B( 16-S , 17-C ) :   1.1591 B( 16-S , 20-C ) :   1.1248 B( 17-C , 18-C ) :   1.6290
B( 17-C , 33-H ) :   0.9684 B( 18-C , 19-C ) :   1.2241 B( 18-C , 21-H ) :   0.9832
B( 19-C , 20-C ) :   1.5764 B( 19-C , 22-C ) :   1.0447 B( 22-C , 23-H ) :   0.9272
B( 22-C , 24-H ) :   0.9353 B( 22-C , 25-C ) :   1.0609 B( 25-C , 26-H ) :   0.9590
B( 25-C , 27-H ) :   0.9578 B( 25-C , 28-C ) :   1.0739 B( 28-C , 29-H ) :   0.9701
B( 28-C , 30-H ) :   0.9743 B( 28-C , 31-H ) :   0.9754

Dispersion correction           -0.013935855
FINAL SINGLE POINT ENERGY     -1339.869530304273

DIPOLE MOMENT
-------------
                                X             Y             Z
Electronic contribution:      0.02729       2.28882     -24.83185
Nuclear contribution   :      0.33590      -2.17807      25.47590
                        -----------------------------------------
Total Dipole Moment    :      0.36320       0.11075       0.64405
                        -----------------------------------------
Magnitude (a.u.)       :      0.74765
Magnitude (Debye)      :      1.90037

Rotational constants in cm-1:     0.018715     0.007755     0.006976
Rotational constants in MHz :   561.061500   232.494558   209.133177

                             ****ORCA TERMINATED NORMALLY****
TOTAL RUN TIME: 0 days 0 hours 0 minutes 29 seconds 680 msec
