                         Program Version 4.2.1 -  RELEASE  -
|  1> ! wB97X-D3 SP def2-SVP
|  2> %pal
|  3> nprocs 16
|  4> end
|  5>
|  6> * xyz 0 1
|  7> S 	 -38.0813 	 53.6892 	 110.175
|  8> C 	 -39.4312 	 52.8314 	 110.817
|  9> C 	 -39.418 	 51.4989 	 110.5
| 10> C 	 -38.2784 	 51.1191 	 109.745
| 11> C 	 -37.4152 	 52.1935 	 109.508
| 12> H 	 -38.0826 	 50.125 	 109.359
| 13> C 	 -40.5993 	 50.4729 	 110.703
| 14> H 	 -40.3795 	 50.1954 	 111.691
| 15> H 	 -40.5082 	 49.5956 	 110.095
| 16> C 	 -42.0127 	 50.974 	 110.538
| 17> H 	 -42.2061 	 51.7635 	 111.198
| 18> H 	 -42.149 	 51.3622 	 109.535
| 19> C 	 -43.0373 	 49.9397 	 110.828
| 20> H 	 -44.0968 	 50.1988 	 110.639
| 21> H 	 -42.7526 	 48.9894 	 110.262
| 22> H 	 -42.9997 	 49.6627 	 111.861
| 23> S 	 -35.7329 	 50.4601 	 108.227
| 24> C 	 -34.2984 	 51.0562 	 107.424
| 25> C 	 -34.1982 	 52.4677 	 107.429
| 26> C 	 -35.2718 	 53.0643 	 108.185
| 27> C 	 -36.1398 	 52.1276 	 108.732
| 28> H 	 -33.3472 	 53.0128 	 106.962
| 29> C 	 -35.4316 	 54.5802 	 108.294
| 30> H 	 -34.5532 	 55.1387 	 108.138
| 31> H 	 -35.5216 	 54.9164 	 109.39
| 32> C 	 -36.5201 	 55.2754 	 107.473
| 33> H 	 -36.6622 	 56.3081 	 107.811
| 34> H 	 -37.4474 	 54.7712 	 107.738
| 35> C 	 -36.2015 	 55.1434 	 105.981
| 36> H 	 -35.3025 	 55.6393 	 105.752
| 37> H 	 -37.0397 	 55.492 	 105.342
| 38> H 	 -35.9871 	 54.1168 	 105.794
| 39> H 	 -40.3099 	 53.2666 	 111.23
| 40> H 	 -33.5604 	 50.338 	 106.979
| 41> *
| 42>
| 43>                          ****END OF INPUT****

CARTESIAN COORDINATES (ANGSTROEM)
---------------------------------
  S    -38.081300   53.689200  110.175000
  C    -39.431200   52.831400  110.817000
  C    -39.418000   51.498900  110.500000
  C    -38.278400   51.119100  109.745000
  C    -37.415200   52.193500  109.508000
  H    -38.082600   50.125000  109.359000
  C    -40.599300   50.472900  110.703000
  H    -40.379500   50.195400  111.691000
  H    -40.508200   49.595600  110.095000
  C    -42.012700   50.974000  110.538000
  H    -42.206100   51.763500  111.198000
  H    -42.149000   51.362200  109.535000
  C    -43.037300   49.939700  110.828000
  H    -44.096800   50.198800  110.639000
  H    -42.752600   48.989400  110.262000
  H    -42.999700   49.662700  111.861000
  S    -35.732900   50.460100  108.227000
  C    -34.298400   51.056200  107.424000
  C    -34.198200   52.467700  107.429000
  C    -35.271800   53.064300  108.185000
  C    -36.139800   52.127600  108.732000
  H    -33.347200   53.012800  106.962000
  C    -35.431600   54.580200  108.294000
  H    -34.553200   55.138700  108.138000
  H    -35.521600   54.916400  109.390000
  C    -36.520100   55.275400  107.473000
  H    -36.662200   56.308100  107.811000
  H    -37.447400   54.771200  107.738000
  C    -36.201500   55.143400  105.981000
  H    -35.302500   55.639300  105.752000
  H    -37.039700   55.492000  105.342000
  H    -35.987100   54.116800  105.794000
  H    -40.309900   53.266600  111.230000
  H    -33.560400   50.338000  106.979000

 Total Charge           Charge          ....    0
 Multiplicity           Mult            ....    1
 Number of Electrons    NEL             ....  134
 Basis Dimension        Dim             ....  322

ORBITAL ENERGIES
----------------

  NO   OCC          E(Eh)            E(eV)
   0   2.0000     -88.971487     -2421.0372
   1   2.0000     -88.969106     -2420.9724
   2   2.0000     -10.337636      -281.3014
   3   2.0000     -10.336082      -281.2591
   4   2.0000     -10.327939      -281.0375
   5   2.0000     -10.311493      -280.5900
   6   2.0000     -10.306980      -280.4672
   7   2.0000     -10.305975      -280.4398
   8   2.0000     -10.301625      -280.3215
   9   2.0000     -10.294326      -280.1228
  10   2.0000     -10.291889      -280.0565
  11   2.0000     -10.289032      -279.9788
  12   2.0000     -10.280509      -279.7469
  13   2.0000     -10.280468      -279.7458
  14   2.0000     -10.278177      -279.6834
  15   2.0000     -10.266844      -279.3750
  16   2.0000      -8.085271      -220.0114
  17   2.0000      -8.083232      -219.9559
  18   2.0000      -6.043840      -164.4612
  19   2.0000      -6.041778      -164.4051
  20   2.0000      -6.039907      -164.3542
  21   2.0000      -6.037932      -164.3005
  22   2.0000      -6.036030      -164.2487
  23   2.0000      -6.033905      -164.1909
  24   2.0000      -1.004168       -27.3248
  25   2.0000      -0.981981       -26.7211
  26   2.0000      -0.918479       -24.9931
  27   2.0000      -0.909006       -24.7353
  28   2.0000      -0.866201       -23.5705
  29   2.0000      -0.856291       -23.3009
  30   2.0000      -0.845251       -23.0005
  31   2.0000      -0.807849       -21.9827
  32   2.0000      -0.783836       -21.3293
  33   2.0000      -0.774032       -21.0625
  34   2.0000      -0.709075       -19.2949
  35   2.0000      -0.703480       -19.1427
  36   2.0000      -0.685326       -18.6487
  37   2.0000      -0.669770       -18.2254
  38   2.0000      -0.635396       -17.2900
  39   2.0000      -0.610084       -16.6012
  40   2.0000      -0.601079       -16.3562
  41   2.0000      -0.583866       -15.8878
  42   2.0000      -0.561155       -15.2698
  43   2.0000      -0.549988       -14.9659
  44   2.0000      -0.541489       -14.7347
  45   2.0000      -0.524953       -14.2847
  46   2.0000      -0.512554       -13.9473
  47   2.0000      -0.511389       -13.9156
  48   2.0000      -0.507424       -13.8077
  49   2.0000      -0.493244       -13.4218
  50   2.0000      -0.487177       -13.2568
  51   2.0000      -0.481347       -13.0981
  52   2.0000      -0.479482       -13.0474
  53   2.0000      -0.468803       -12.7568
  54   2.0000      -0.462712       -12.5910
  55   2.0000      -0.448358       -12.2004
  56   2.0000      -0.438381       -11.9290
  57   2.0000      -0.435275       -11.8444
  58   2.0000      -0.432056       -11.7569
  59   2.0000      -0.423277       -11.5179
  60   2.0000      -0.421619       -11.4728
  61   2.0000      -0.415329       -11.3017
  62   2.0000      -0.411023       -11.1845
  63   2.0000      -0.362203        -9.8561
  64   2.0000      -0.336817        -9.1653
  65   2.0000      -0.331346        -9.0164
  66   2.0000      -0.280242        -7.6258
  67   0.0000       0.016381         0.4457
  68   0.0000       0.082911         2.2561
  69   0.0000       0.103783         2.8241
  70   0.0000       0.115966         3.1556
  71   0.0000       0.130425         3.5490

MULLIKEN ATOMIC CHARGES
-----------------------
   0 S :    0.115283
   1 C :   -0.114442
   2 C :   -0.068742
   3 C :   -0.031500
   4 C :   -0.107974
   5 H :    0.026323
   6 C :    0.081167
   7 H :    0.024955
   8 H :    0.014256
   9 C :   -0.036388
  10 H :    0.010967
  11 H :    0.032543
  12 C :   -0.063626
  13 H :    0.043790
  14 H :    0.027954
  15 H :    0.018894
  16 S :    0.074254
  17 C :   -0.108278
  18 C :   -0.031957
  19 C :   -0.065743
  20 C :   -0.096005
  21 H :    0.039362
  22 C :   -0.008724
  23 H :    0.000123
  24 H :    0.040097
  25 C :   -0.038411
  26 H :    0.027927
  27 H :    0.022047
  28 C :   -0.019653
  29 H :    0.008118
  30 H :    0.043475
  31 H :    0.027008
  32 H :    0.033085
  33 H :    0.079816
Sum of atomic charges:    0.0000000

LOEWDIN ATOMIC CHARGES
----------------------
   0 S :    0.430644
   1 C :   -0.212585
   2 C :   -0.054044
   3 C :   -0.078335
   4 C :   -0.179116
   5 H :    0.024234
   6 C :   -0.018720
   7 H :    0.028593
   8 H :    0.025503
   9 C :   -0.042730
  10 H :    0.015137
  11 H :    0.026776
  12 C :   -0.065594
  13 H :    0.030707
  14 H :    0.029057
  15 H :    0.020180
  16 S :    0.398326
  17 C :   -0.189278
  18 C :   -0.073963
  19 C :   -0.062150
  20 C :   -0.170409
  21 H :    0.041200
  22 C :   -0.049496
  23 H :    0.021215
  24 H :    0.037519
  25 C :   -0.039490
  26 H :    0.024920
  27 H :    0.010325
  28 C :   -0.060058
  29 H :    0.015630
  30 H :    0.031258
  31 H :    0.024220
  32 H :    0.022400
  33 H :    0.038124

  Mayer bond orders larger than 0.100000
B(  0-S ,  1-C ) :   1.1328 B(  0-S ,  4-C ) :   1.1513 B(  1-C ,  2-C ) :   1.6282
B(  1-C , 32-H ) :   0.9633 B(  2-C ,  3-C ) :   1.2799 B(  2-C ,  6-C ) :   0.9830
B(  3-C ,  4-C ) :   1.5470 B(  3-C ,  5-H ) :   0.9749 B(  4-C , 20-C ) :   1.0733
B(  6-C ,  7-H ) :   0.9297 B(  6-C ,  8-H ) :   0.9541 B(  6-C ,  9-C ) :   1.0754
B(  9-C , 10-H ) :   0.9429 B(  9-C , 11-H ) :   0.9560 B(  9-C , 12-C ) :   1.0944
B( 12-C , 13-H ) :   0.9723 B( 12-C , 14-H ) :   0.9722 B( 12-C , 15-H ) :   0.9728
B( 16-S , 17-C ) :   1.1617 B( 16-S , 20-C ) :   1.1319 B( 17-C , 18-C ) :   1.5966
B( 17-C , 33-H ) :   0.9619 B( 18-C , 19-C ) :   1.2348 B( 18-C , 21-H ) :   0.9849
B( 19-C , 20-C ) :   1.5960 B( 19-C , 22-C ) :   1.0344 B( 22-C , 23-H ) :   0.9337
B( 22-C , 24-H ) :   0.9339 B( 22-C , 25-C ) :   1.0673 B( 25-C , 26-H ) :   0.9524
B( 25-C , 27-H ) :   0.9516 B( 25-C , 28-C ) :   1.0699 B( 28-C , 29-H ) :   0.9734
B( 28-C , 30-H ) :   0.9735 B( 28-C , 31-H ) :   0.9755

Dispersion correction           -0.014190294
FINAL SINGLE POINT ENERGY     -1339.877187964122

DIPOLE MOMENT
-------------
                                X             Y             Z
Electronic contribution:     15.35974      -3.59294       2.84482
Nuclear contribution   :    -15.54875       3.58475      -2.94036
                        -----------------------------------------
Total Dipole Moment    :     -0.18902      -0.00819      -0.09554
                        -----------------------------------------
Magnitude (a.u.)       :      0.21195
Magnitude (Debye)      :      0.53872

Rotational constants in cm-1:     0.023408     0.007464     0.006250
Rotational constants in MHz :   701.746442   223.769093   187.362516

                             ****ORCA TERMINATED NORMALLY****
TOTAL RUN TIME: 0 days 0 hours 0 minutes 32 seconds 854 msec
