                         Program Version 4.2.1 -  RELEASE  -
|  1> ! wB97X-D3 SP def2-SVP
|  2> %pal
|  3> nprocs 16
|  4> end
|  5>
|  6> * xyz 0 1
|  7> S 	 -64.1313 	 50.733 	 124.168
|  8> C 	 -65.3086 	 50.23 	 125.308
|  9> C 	 -65.0882 	 50.8199 	 126.585
| 10> C 	 -64.127 	 51.8741 	 126.48
| 11> C 	 -63.5597 	 52.0317 	 125.214
| 12> H 	 -63.7014 	 52.5182 	 127.215
| 13> C 	 -65.8884 	 50.4837 	 127.892
| 14> H 	 -65.8373 	 51.2815 	 128.595
| 15> H 	 -65.314 	 49.6756 	 128.365
| 16> C 	 -67.3016 	 50.0031 	 127.755
| 17> H 	 -67.2341 	 49.1815 	 127.068
| 18> H 	 -67.6402 	 49.665 	 128.794
| 19> C 	 -68.3274 	 51.0183 	 127.337
| 20> H 	 -68.0025 	 51.5662 	 126.519
| 21> H 	 -69.3714 	 50.6315 	 127.13
| 22> H 	 -68.2696 	 51.8016 	 128.072
| 23> S 	 -61.0096 	 52.1318 	 124.488
| 24> C 	 -60.1848 	 53.5896 	 124.149
| 25> C 	 -60.9555 	 54.7099 	 124.596
| 26> C 	 -62.2549 	 54.3428 	 124.958
| 27> C 	 -62.4994 	 52.9682 	 124.838
| 28> H 	 -60.4703 	 55.6705 	 124.591
| 29> C 	 -63.2869 	 55.4187 	 125.4
| 30> H 	 -62.7359 	 56.2602 	 125.866
| 31> H 	 -63.9633 	 54.9196 	 126.123
| 32> C 	 -64.0378 	 56.0196 	 124.175
| 33> H 	 -64.5378 	 55.2636 	 123.572
| 34> H 	 -63.4171 	 56.672 	 123.601
| 35> C 	 -65.169 	 57.0639 	 124.572
| 36> H 	 -65.6609 	 57.5318 	 123.701
| 37> H 	 -64.7751 	 57.8918 	 125.155
| 38> H 	 -65.8713 	 56.6532 	 125.255
| 39> H 	 -66.0269 	 49.4236 	 125.091
| 40> H 	 -59.1401 	 53.5475 	 123.828
| 41> *
| 42>
| 43>                          ****END OF INPUT****

CARTESIAN COORDINATES (ANGSTROEM)
---------------------------------
  S    -64.131300   50.733000  124.168000
  C    -65.308600   50.230000  125.308000
  C    -65.088200   50.819900  126.585000
  C    -64.127000   51.874100  126.480000
  C    -63.559700   52.031700  125.214000
  H    -63.701400   52.518200  127.215000
  C    -65.888400   50.483700  127.892000
  H    -65.837300   51.281500  128.595000
  H    -65.314000   49.675600  128.365000
  C    -67.301600   50.003100  127.755000
  H    -67.234100   49.181500  127.068000
  H    -67.640200   49.665000  128.794000
  C    -68.327400   51.018300  127.337000
  H    -68.002500   51.566200  126.519000
  H    -69.371400   50.631500  127.130000
  H    -68.269600   51.801600  128.072000
  S    -61.009600   52.131800  124.488000
  C    -60.184800   53.589600  124.149000
  C    -60.955500   54.709900  124.596000
  C    -62.254900   54.342800  124.958000
  C    -62.499400   52.968200  124.838000
  H    -60.470300   55.670500  124.591000
  C    -63.286900   55.418700  125.400000
  H    -62.735900   56.260200  125.866000
  H    -63.963300   54.919600  126.123000
  C    -64.037800   56.019600  124.175000
  H    -64.537800   55.263600  123.572000
  H    -63.417100   56.672000  123.601000
  C    -65.169000   57.063900  124.572000
  H    -65.660900   57.531800  123.701000
  H    -64.775100   57.891800  125.155000
  H    -65.871300   56.653200  125.255000
  H    -66.026900   49.423600  125.091000
  H    -59.140100   53.547500  123.828000

 Total Charge           Charge          ....    0
 Multiplicity           Mult            ....    1
 Number of Electrons    NEL             ....  134
 Basis Dimension        Dim             ....  322

ORBITAL ENERGIES
----------------

  NO   OCC          E(Eh)            E(eV)
   0   2.0000     -88.967992     -2420.9421
   1   2.0000     -88.964510     -2420.8474
   2   2.0000     -10.330151      -281.0977
   3   2.0000     -10.326102      -280.9875
   4   2.0000     -10.319741      -280.8144
   5   2.0000     -10.318485      -280.7803
   6   2.0000     -10.312206      -280.6094
   7   2.0000     -10.307636      -280.4850
   8   2.0000     -10.301042      -280.3056
   9   2.0000     -10.296346      -280.1778
  10   2.0000     -10.295146      -280.1452
  11   2.0000     -10.293998      -280.1139
  12   2.0000     -10.287735      -279.9435
  13   2.0000     -10.286727      -279.9161
  14   2.0000     -10.273927      -279.5678
  15   2.0000     -10.270686      -279.4796
  16   2.0000      -8.082960      -219.9485
  17   2.0000      -8.080172      -219.8727
  18   2.0000      -6.041346      -164.3934
  19   2.0000      -6.038383      -164.3128
  20   2.0000      -6.037366      -164.2851
  21   2.0000      -6.034447      -164.2056
  22   2.0000      -6.033893      -164.1906
  23   2.0000      -6.031297      -164.1199
  24   2.0000      -1.007821       -27.4242
  25   2.0000      -0.984766       -26.7968
  26   2.0000      -0.916453       -24.9379
  27   2.0000      -0.900480       -24.5033
  28   2.0000      -0.866827       -23.5876
  29   2.0000      -0.851710       -23.1762
  30   2.0000      -0.846930       -23.0461
  31   2.0000      -0.808651       -22.0045
  32   2.0000      -0.784139       -21.3375
  33   2.0000      -0.771827       -21.0025
  34   2.0000      -0.702115       -19.1055
  35   2.0000      -0.700037       -19.0490
  36   2.0000      -0.687439       -18.7062
  37   2.0000      -0.666278       -18.1304
  38   2.0000      -0.645870       -17.5750
  39   2.0000      -0.607432       -16.5291
  40   2.0000      -0.591316       -16.0905
  41   2.0000      -0.580090       -15.7851
  42   2.0000      -0.565700       -15.3935
  43   2.0000      -0.552087       -15.0231
  44   2.0000      -0.541795       -14.7430
  45   2.0000      -0.521361       -14.1870
  46   2.0000      -0.517021       -14.0688
  47   2.0000      -0.509140       -13.8544
  48   2.0000      -0.503679       -13.7058
  49   2.0000      -0.497591       -13.5401
  50   2.0000      -0.488808       -13.3012
  51   2.0000      -0.482303       -13.1241
  52   2.0000      -0.473578       -12.8867
  53   2.0000      -0.464987       -12.6529
  54   2.0000      -0.460023       -12.5179
  55   2.0000      -0.445170       -12.1137
  56   2.0000      -0.442416       -12.0388
  57   2.0000      -0.438299       -11.9267
  58   2.0000      -0.432438       -11.7672
  59   2.0000      -0.424983       -11.5644
  60   2.0000      -0.423990       -11.5374
  61   2.0000      -0.412516       -11.2251
  62   2.0000      -0.412104       -11.2139
  63   2.0000      -0.342351        -9.3158
  64   2.0000      -0.332991        -9.0611
  65   2.0000      -0.326184        -8.8759
  66   2.0000      -0.291170        -7.9231
  67   0.0000       0.029234         0.7955
  68   0.0000       0.058547         1.5932
  69   0.0000       0.107504         2.9253
  70   0.0000       0.124880         3.3982
  71   0.0000       0.135041         3.6746

MULLIKEN ATOMIC CHARGES
-----------------------
   0 S :    0.127622
   1 C :   -0.139562
   2 C :   -0.091338
   3 C :    0.048306
   4 C :   -0.182386
   5 H :    0.006039
   6 C :    0.082550
   7 H :    0.008607
   8 H :    0.042861
   9 C :   -0.092488
  10 H :    0.020646
  11 H :    0.036986
  12 C :   -0.005213
  13 H :    0.006609
  14 H :    0.053602
  15 H :    0.006914
  16 S :    0.112540
  17 C :   -0.114031
  18 C :   -0.050765
  19 C :   -0.017354
  20 C :   -0.167387
  21 H :    0.019708
  22 C :    0.066904
  23 H :    0.027851
  24 H :    0.030353
  25 C :   -0.061964
  26 H :    0.045282
  27 H :    0.027382
  28 C :   -0.058693
  29 H :    0.042605
  30 H :    0.013543
  31 H :    0.019606
  32 H :    0.066299
  33 H :    0.068367
Sum of atomic charges:    0.0000000

LOEWDIN ATOMIC CHARGES
----------------------
   0 S :    0.423574
   1 C :   -0.216535
   2 C :   -0.060381
   3 C :   -0.061147
   4 C :   -0.206060
   5 H :    0.028371
   6 C :   -0.028028
   7 H :    0.020904
   8 H :    0.041153
   9 C :   -0.044395
  10 H :    0.016043
  11 H :    0.035054
  12 C :   -0.067418
  13 H :    0.015132
  14 H :    0.037229
  15 H :    0.023997
  16 S :    0.439506
  17 C :   -0.202123
  18 C :   -0.072922
  19 C :   -0.057216
  20 C :   -0.208732
  21 H :    0.031364
  22 C :   -0.026126
  23 H :    0.034042
  24 H :    0.030705
  25 C :   -0.031014
  26 H :    0.027465
  27 H :    0.021894
  28 C :   -0.070346
  29 H :    0.029757
  30 H :    0.019458
  31 H :    0.015592
  32 H :    0.032050
  33 H :    0.029155

  Mayer bond orders larger than 0.100000
B(  0-S ,  1-C ) :   1.1687 B(  0-S ,  4-C ) :   1.1596 B(  1-C ,  2-C ) :   1.5626
B(  1-C ,  4-C ) :   0.1090 B(  1-C , 32-H ) :   0.9653 B(  2-C ,  3-C ) :   1.2576
B(  2-C ,  6-C ) :   1.0000 B(  3-C ,  4-C ) :   1.5615 B(  3-C ,  5-H ) :   0.9967
B(  4-C , 20-C ) :   1.0212 B(  6-C ,  7-H ) :   0.9493 B(  6-C ,  8-H ) :   0.9275
B(  6-C ,  9-C ) :   1.0911 B(  9-C , 10-H ) :   0.9490 B(  9-C , 11-H ) :   0.9517
B(  9-C , 12-C ) :   1.0813 B( 12-C , 13-H ) :   0.9699 B( 12-C , 14-H ) :   0.9736
B( 12-C , 15-H ) :   0.9648 B( 16-S , 17-C ) :   1.2025 B( 16-S , 20-C ) :   1.1810
B( 17-C , 18-C ) :   1.5287 B( 17-C , 20-C ) :   0.1212 B( 17-C , 33-H ) :   0.9696
B( 18-C , 19-C ) :   1.2844 B( 18-C , 21-H ) :   1.0011 B( 19-C , 20-C ) :   1.5511
B( 19-C , 22-C ) :   1.0360 B( 22-C , 23-H ) :   0.9363 B( 22-C , 24-H ) :   0.9380
B( 22-C , 25-C ) :   1.0712 B( 25-C , 26-H ) :   0.9610 B( 25-C , 27-H ) :   0.9592
B( 25-C , 28-C ) :   1.0730 B( 28-C , 29-H ) :   0.9769 B( 28-C , 30-H ) :   0.9743
B( 28-C , 31-H ) :   0.9774

Dispersion correction           -0.013657192
FINAL SINGLE POINT ENERGY     -1339.865537351662

DIPOLE MOMENT
-------------
                                X             Y             Z
Electronic contribution:     21.92355     -13.08742     -11.15368
Nuclear contribution   :    -22.01914      13.35471      11.59956
                        -----------------------------------------
Total Dipole Moment    :     -0.09559       0.26730       0.44587
                        -----------------------------------------
Magnitude (a.u.)       :      0.52857
Magnitude (Debye)      :      1.34352

Rotational constants in cm-1:     0.018199     0.008322     0.006421
Rotational constants in MHz :   545.607043   249.486010   192.496548

                             ****ORCA TERMINATED NORMALLY****
TOTAL RUN TIME: 0 days 0 hours 0 minutes 32 seconds 912 msec
