                         Program Version 4.2.1 -  RELEASE  -
|  1> ! wB97X-D3 SP def2-SVP
|  2> %pal
|  3> nprocs 16
|  4> end
|  5>
|  6> * xyz 0 1
|  7> S 	 48.1019 	 20.768 	 89.3495
|  8> C 	 49.5958 	 20.6774 	 90.2357
|  9> C 	 50.2367 	 19.4976 	 90.0692
| 10> C 	 49.399 	 18.6361 	 89.2779
| 11> C 	 48.2114 	 19.171 	 88.7788
| 12> H 	 49.6851 	 17.5904 	 89.2011
| 13> C 	 51.5478 	 19.2161 	 90.742
| 14> H 	 51.4181 	 18.2875 	 91.3002
| 15> H 	 51.6562 	 19.9766 	 91.5562
| 16> C 	 52.8347 	 19.0928 	 89.9542
| 17> H 	 52.8428 	 18.2198 	 89.3196
| 18> H 	 52.9412 	 19.973 	 89.2485
| 19> C 	 54.182 	 18.9683 	 90.7138
| 20> H 	 54.1243 	 18.1512 	 91.4368
| 21> H 	 55.0345 	 18.8515 	 90.0561
| 22> H 	 54.3994 	 19.8638 	 91.2508
| 23> S 	 46.6609 	 16.8078 	 88.6489
| 24> C 	 45.3816 	 16.6697 	 87.4664
| 25> C 	 45.1076 	 17.9187 	 86.9387
| 26> C 	 46.0726 	 18.9227 	 87.1989
| 27> C 	 47.0679 	 18.4942 	 88.1384
| 28> H 	 44.3451 	 17.9231 	 86.2112
| 29> C 	 46.0538 	 20.266 	 86.5327
| 30> H 	 46.813 	 20.9024 	 86.9734
| 31> H 	 45.1073 	 20.7474 	 86.9261
| 32> C 	 46.1863 	 20.2492 	 85.0031
| 33> H 	 45.9285 	 21.2612 	 84.6487
| 34> H 	 45.4852 	 19.4813 	 84.6606
| 35> C 	 47.5429 	 19.8675 	 84.4599
| 36> H 	 47.8784 	 19.0212 	 85.0482
| 37> H 	 48.2287 	 20.6937 	 84.5727
| 38> H 	 47.4741 	 19.5065 	 83.4604
| 39> H 	 49.9973 	 21.4986 	 90.7766
| 40> H 	 44.6727 	 15.9096 	 87.2677
| 41> *
| 42>
| 43>                          ****END OF INPUT****

CARTESIAN COORDINATES (ANGSTROEM)
---------------------------------
  S     48.101900   20.768000   89.349500
  C     49.595800   20.677400   90.235700
  C     50.236700   19.497600   90.069200
  C     49.399000   18.636100   89.277900
  C     48.211400   19.171000   88.778800
  H     49.685100   17.590400   89.201100
  C     51.547800   19.216100   90.742000
  H     51.418100   18.287500   91.300200
  H     51.656200   19.976600   91.556200
  C     52.834700   19.092800   89.954200
  H     52.842800   18.219800   89.319600
  H     52.941200   19.973000   89.248500
  C     54.182000   18.968300   90.713800
  H     54.124300   18.151200   91.436800
  H     55.034500   18.851500   90.056100
  H     54.399400   19.863800   91.250800
  S     46.660900   16.807800   88.648900
  C     45.381600   16.669700   87.466400
  C     45.107600   17.918700   86.938700
  C     46.072600   18.922700   87.198900
  C     47.067900   18.494200   88.138400
  H     44.345100   17.923100   86.211200
  C     46.053800   20.266000   86.532700
  H     46.813000   20.902400   86.973400
  H     45.107300   20.747400   86.926100
  C     46.186300   20.249200   85.003100
  H     45.928500   21.261200   84.648700
  H     45.485200   19.481300   84.660600
  C     47.542900   19.867500   84.459900
  H     47.878400   19.021200   85.048200
  H     48.228700   20.693700   84.572700
  H     47.474100   19.506500   83.460400
  H     49.997300   21.498600   90.776600
  H     44.672700   15.909600   87.267700

 Total Charge           Charge          ....    0
 Multiplicity           Mult            ....    1
 Number of Electrons    NEL             ....  134
 Basis Dimension        Dim             ....  322

ORBITAL ENERGIES
----------------

  NO   OCC          E(Eh)            E(eV)
   0   2.0000     -88.968059     -2420.9440
   1   2.0000     -88.965746     -2420.8810
   2   2.0000     -10.338936      -281.3367
   3   2.0000     -10.332997      -281.1751
   4   2.0000     -10.316214      -280.7185
   5   2.0000     -10.309053      -280.5236
   6   2.0000     -10.308114      -280.4980
   7   2.0000     -10.300292      -280.2852
   8   2.0000     -10.298318      -280.2315
   9   2.0000     -10.296710      -280.1877
  10   2.0000     -10.291084      -280.0346
  11   2.0000     -10.290615      -280.0219
  12   2.0000     -10.289328      -279.9869
  13   2.0000     -10.284457      -279.8543
  14   2.0000     -10.278835      -279.7013
  15   2.0000     -10.266227      -279.3582
  16   2.0000      -8.081446      -219.9073
  17   2.0000      -8.081418      -219.9066
  18   2.0000      -6.040001      -164.3568
  19   2.0000      -6.039896      -164.3539
  20   2.0000      -6.036067      -164.2497
  21   2.0000      -6.035747      -164.2410
  22   2.0000      -6.032265      -164.1463
  23   2.0000      -6.032221      -164.1451
  24   2.0000      -1.010186       -27.4886
  25   2.0000      -0.984196       -26.7813
  26   2.0000      -0.914943       -24.8969
  27   2.0000      -0.910244       -24.7690
  28   2.0000      -0.872644       -23.7458
  29   2.0000      -0.850914       -23.1545
  30   2.0000      -0.845692       -23.0125
  31   2.0000      -0.816452       -22.2168
  32   2.0000      -0.789142       -21.4736
  33   2.0000      -0.774825       -21.0841
  34   2.0000      -0.712589       -19.3905
  35   2.0000      -0.698624       -19.0105
  36   2.0000      -0.691260       -18.8101
  37   2.0000      -0.659277       -17.9398
  38   2.0000      -0.637615       -17.3504
  39   2.0000      -0.621239       -16.9048
  40   2.0000      -0.598044       -16.2736
  41   2.0000      -0.578976       -15.7547
  42   2.0000      -0.561859       -15.2890
  43   2.0000      -0.551347       -15.0029
  44   2.0000      -0.543524       -14.7900
  45   2.0000      -0.529609       -14.4114
  46   2.0000      -0.521637       -14.1945
  47   2.0000      -0.518421       -14.1070
  48   2.0000      -0.505920       -13.7668
  49   2.0000      -0.500723       -13.6254
  50   2.0000      -0.486932       -13.2501
  51   2.0000      -0.475001       -12.9254
  52   2.0000      -0.471742       -12.8368
  53   2.0000      -0.465427       -12.6649
  54   2.0000      -0.460795       -12.5389
  55   2.0000      -0.458648       -12.4804
  56   2.0000      -0.444256       -12.0888
  57   2.0000      -0.436720       -11.8838
  58   2.0000      -0.430914       -11.7258
  59   2.0000      -0.424273       -11.5451
  60   2.0000      -0.420729       -11.4486
  61   2.0000      -0.413482       -11.2514
  62   2.0000      -0.402975       -10.9655
  63   2.0000      -0.354950        -9.6587
  64   2.0000      -0.331088        -9.0094
  65   2.0000      -0.330457        -8.9922
  66   2.0000      -0.288937        -7.8624
  67   0.0000       0.021870         0.5951
  68   0.0000       0.077425         2.1068
  69   0.0000       0.110153         2.9974
  70   0.0000       0.118469         3.2237
  71   0.0000       0.128107         3.4860

MULLIKEN ATOMIC CHARGES
-----------------------
   0 S :    0.106620
   1 C :   -0.125788
   2 C :   -0.071356
   3 C :   -0.000872
   4 C :   -0.120181
   5 H :    0.006506
   6 C :    0.070537
   7 H :    0.024779
   8 H :    0.020080
   9 C :   -0.081907
  10 H :    0.026622
  11 H :    0.032670
  12 C :   -0.038521
  13 H :    0.029311
  14 H :    0.036961
  15 H :    0.020301
  16 S :    0.103066
  17 C :   -0.071972
  18 C :   -0.040854
  19 C :   -0.060028
  20 C :   -0.122972
  21 H :    0.007998
  22 C :    0.053773
  23 H :    0.005919
  24 H :    0.046770
  25 C :   -0.071631
  26 H :    0.032394
  27 H :    0.023712
  28 C :   -0.015809
  29 H :    0.030459
  30 H :    0.031771
  31 H :    0.028898
  32 H :    0.036568
  33 H :    0.046177
Sum of atomic charges:   -0.0000000

LOEWDIN ATOMIC CHARGES
----------------------
   0 S :    0.438232
   1 C :   -0.187367
   2 C :   -0.065664
   3 C :   -0.065915
   4 C :   -0.213057
   5 H :    0.026172
   6 C :   -0.035608
   7 H :    0.033596
   8 H :    0.035236
   9 C :   -0.045881
  10 H :    0.022003
  11 H :    0.028682
  12 C :   -0.060257
  13 H :    0.023990
  14 H :    0.029480
  15 H :    0.018419
  16 S :    0.391449
  17 C :   -0.180938
  18 C :   -0.070360
  19 C :   -0.056901
  20 C :   -0.181626
  21 H :    0.022852
  22 C :   -0.043047
  23 H :    0.014593
  24 H :    0.044022
  25 C :   -0.038358
  26 H :    0.025835
  27 H :    0.022230
  28 C :   -0.058774
  29 H :    0.028516
  30 H :    0.024505
  31 H :    0.024394
  32 H :    0.021193
  33 H :    0.028355

  Mayer bond orders larger than 0.100000
B(  0-S ,  1-C ) :   1.1538 B(  0-S ,  4-C ) :   1.1604 B(  1-C ,  2-C ) :   1.6032
B(  1-C , 32-H ) :   0.9678 B(  2-C ,  3-C ) :   1.2613 B(  2-C ,  6-C ) :   1.0285
B(  3-C ,  4-C ) :   1.5324 B(  3-C ,  5-H ) :   0.9987 B(  4-C , 20-C ) :   1.0604
B(  6-C ,  7-H ) :   0.9263 B(  6-C ,  8-H ) :   0.9428 B(  6-C ,  9-C ) :   1.0606
B(  9-C , 10-H ) :   0.9548 B(  9-C , 11-H ) :   0.9560 B(  9-C , 12-C ) :   1.0839
B( 12-C , 13-H ) :   0.9755 B( 12-C , 14-H ) :   0.9746 B( 12-C , 15-H ) :   0.9757
B( 16-S , 17-C ) :   1.1524 B( 16-S , 20-C ) :   1.1321 B( 17-C , 18-C ) :   1.6211
B( 17-C , 20-C ) :   0.1022 B( 17-C , 33-H ) :   0.9654 B( 18-C , 19-C ) :   1.2549
B( 18-C , 21-H ) :   0.9865 B( 19-C , 20-C ) :   1.5381 B( 19-C , 22-C ) :   1.0480
B( 22-C , 23-H ) :   0.9276 B( 22-C , 24-H ) :   0.9317 B( 22-C , 25-C ) :   1.0631
B( 25-C , 26-H ) :   0.9542 B( 25-C , 27-H ) :   0.9598 B( 25-C , 28-C ) :   1.0817
B( 28-C , 29-H ) :   0.9739 B( 28-C , 30-H ) :   0.9740 B( 28-C , 31-H ) :   0.9716

Dispersion correction           -0.013813187
FINAL SINGLE POINT ENERGY     -1339.880819625330

DIPOLE MOMENT
-------------
                                X             Y             Z
Electronic contribution:    -17.41463      -4.64307       7.18925
Nuclear contribution   :     17.63017       4.69626      -7.27066
                        -----------------------------------------
Total Dipole Moment    :      0.21555       0.05319      -0.08141
                        -----------------------------------------
Magnitude (a.u.)       :      0.23647
Magnitude (Debye)      :      0.60106

Rotational constants in cm-1:     0.022226     0.006998     0.006328
Rotational constants in MHz :   666.315317   209.791361   189.721331

                             ****ORCA TERMINATED NORMALLY****
TOTAL RUN TIME: 0 days 0 hours 0 minutes 29 seconds 394 msec
