                         Program Version 4.2.1 -  RELEASE  -
|  1> ! wB97X-D3 SP def2-SVP
|  2> %pal
|  3> nprocs 16
|  4> end
|  5>
|  6> * xyz 0 1
|  7> S 	 42.5673 	 11.9867 	 90.5017
|  8> C 	 43.0063 	 10.2686 	 90.4581
|  9> C 	 41.8049 	 9.51975 	 90.192
| 10> C 	 40.5828 	 10.2859 	 90.2631
| 11> C 	 40.8454 	 11.6117 	 90.5724
| 12> H 	 39.5971 	 9.89525 	 90.2057
| 13> C 	 41.783 	 8.01966 	 89.93
| 14> H 	 42.6109 	 7.8619 	 89.2322
| 15> H 	 40.8608 	 7.81664 	 89.4086
| 16> C 	 41.8819 	 7.06649 	 91.1071
| 17> H 	 40.9984 	 7.07092 	 91.6927
| 18> H 	 41.9653 	 6.05683 	 90.7964
| 19> C 	 43.0801 	 7.25703 	 92.0454
| 20> H 	 43.9186 	 7.83231 	 91.6607
| 21> H 	 42.7864 	 7.9855 	 92.7845
| 22> H 	 43.5461 	 6.38444 	 92.5329
| 23> S 	 40.2567 	 14.3412 	 90.0262
| 24> C 	 38.6889 	 14.9593 	 90.3785
| 25> C 	 37.9017 	 13.997 	 90.9813
| 26> C 	 38.4888 	 12.7444 	 91.1113
| 27> C 	 39.8576 	 12.6751 	 90.7007
| 28> H 	 36.866 	 14.223 	 91.2966
| 29> C 	 37.6901 	 11.5797 	 91.5656
| 30> H 	 37.1219 	 11.7009 	 92.4941
| 31> H 	 38.4164 	 10.7299 	 91.7248
| 32> C 	 36.7803 	 11.2452 	 90.4198
| 33> H 	 37.1572 	 11.527 	 89.458
| 34> H 	 35.8807 	 11.8359 	 90.6086
| 35> C 	 36.3073 	 9.83174 	 90.5822
| 36> H 	 35.4908 	 9.59439 	 89.9081
| 37> H 	 35.8547 	 9.66055 	 91.6244
| 38> H 	 37.0424 	 9.05705 	 90.3404
| 39> H 	 44.0617 	 9.84509 	 90.4713
| 40> H 	 38.4227 	 15.9987 	 90.2323
| 41> *
| 42>
| 43>                          ****END OF INPUT****

CARTESIAN COORDINATES (ANGSTROEM)
---------------------------------
  S     42.567300   11.986700   90.501700
  C     43.006300   10.268600   90.458100
  C     41.804900    9.519750   90.192000
  C     40.582800   10.285900   90.263100
  C     40.845400   11.611700   90.572400
  H     39.597100    9.895250   90.205700
  C     41.783000    8.019660   89.930000
  H     42.610900    7.861900   89.232200
  H     40.860800    7.816640   89.408600
  C     41.881900    7.066490   91.107100
  H     40.998400    7.070920   91.692700
  H     41.965300    6.056830   90.796400
  C     43.080100    7.257030   92.045400
  H     43.918600    7.832310   91.660700
  H     42.786400    7.985500   92.784500
  H     43.546100    6.384440   92.532900
  S     40.256700   14.341200   90.026200
  C     38.688900   14.959300   90.378500
  C     37.901700   13.997000   90.981300
  C     38.488800   12.744400   91.111300
  C     39.857600   12.675100   90.700700
  H     36.866000   14.223000   91.296600
  C     37.690100   11.579700   91.565600
  H     37.121900   11.700900   92.494100
  H     38.416400   10.729900   91.724800
  C     36.780300   11.245200   90.419800
  H     37.157200   11.527000   89.458000
  H     35.880700   11.835900   90.608600
  C     36.307300    9.831740   90.582200
  H     35.490800    9.594390   89.908100
  H     35.854700    9.660550   91.624400
  H     37.042400    9.057050   90.340400
  H     44.061700    9.845090   90.471300
  H     38.422700   15.998700   90.232300

 Total Charge           Charge          ....    0
 Multiplicity           Mult            ....    1
 Number of Electrons    NEL             ....  134
 Basis Dimension        Dim             ....  322

ORBITAL ENERGIES
----------------

  NO   OCC          E(Eh)            E(eV)
   0   2.0000     -88.970049     -2420.9981
   1   2.0000     -88.964691     -2420.8523
   2   2.0000     -10.336563      -281.2722
   3   2.0000     -10.336290      -281.2648
   4   2.0000     -10.326876      -281.0086
   5   2.0000     -10.318698      -280.7860
   6   2.0000     -10.310229      -280.5556
   7   2.0000     -10.304635      -280.4034
   8   2.0000     -10.297240      -280.2022
   9   2.0000     -10.292251      -280.0664
  10   2.0000     -10.290802      -280.0270
  11   2.0000     -10.290781      -280.0264
  12   2.0000     -10.283780      -279.8359
  13   2.0000     -10.282586      -279.8034
  14   2.0000     -10.280308      -279.7414
  15   2.0000     -10.272223      -279.5214
  16   2.0000      -8.083814      -219.9718
  17   2.0000      -8.078629      -219.8307
  18   2.0000      -6.042499      -164.4248
  19   2.0000      -6.038519      -164.3165
  20   2.0000      -6.037198      -164.2805
  21   2.0000      -6.034381      -164.2039
  22   2.0000      -6.033130      -164.1698
  23   2.0000      -6.029515      -164.0714
  24   2.0000      -1.000944       -27.2371
  25   2.0000      -0.979697       -26.6589
  26   2.0000      -0.925275       -25.1780
  27   2.0000      -0.911920       -24.8146
  28   2.0000      -0.864744       -23.5309
  29   2.0000      -0.854922       -23.2636
  30   2.0000      -0.846711       -23.0402
  31   2.0000      -0.809808       -22.0360
  32   2.0000      -0.783468       -21.3192
  33   2.0000      -0.770332       -20.9618
  34   2.0000      -0.710411       -19.3313
  35   2.0000      -0.700421       -19.0594
  36   2.0000      -0.698211       -18.9993
  37   2.0000      -0.658934       -17.9305
  38   2.0000      -0.637108       -17.3366
  39   2.0000      -0.621568       -16.9137
  40   2.0000      -0.602876       -16.4051
  41   2.0000      -0.576194       -15.6790
  42   2.0000      -0.563832       -15.3426
  43   2.0000      -0.551812       -15.0156
  44   2.0000      -0.544089       -14.8054
  45   2.0000      -0.524575       -14.2744
  46   2.0000      -0.518356       -14.1052
  47   2.0000      -0.515188       -14.0190
  48   2.0000      -0.505541       -13.7565
  49   2.0000      -0.503438       -13.6992
  50   2.0000      -0.490109       -13.3366
  51   2.0000      -0.479364       -13.0442
  52   2.0000      -0.475836       -12.9482
  53   2.0000      -0.462307       -12.5800
  54   2.0000      -0.459014       -12.4904
  55   2.0000      -0.449745       -12.2382
  56   2.0000      -0.446974       -12.1628
  57   2.0000      -0.436784       -11.8855
  58   2.0000      -0.434508       -11.8236
  59   2.0000      -0.425966       -11.5911
  60   2.0000      -0.418335       -11.3835
  61   2.0000      -0.410363       -11.1666
  62   2.0000      -0.405970       -11.0470
  63   2.0000      -0.355565        -9.6754
  64   2.0000      -0.333286        -9.0692
  65   2.0000      -0.328521        -8.9395
  66   2.0000      -0.278091        -7.5673
  67   0.0000       0.015156         0.4124
  68   0.0000       0.068985         1.8772
  69   0.0000       0.101124         2.7517
  70   0.0000       0.116407         3.1676
  71   0.0000       0.127722         3.4755

MULLIKEN ATOMIC CHARGES
-----------------------
   0 S :    0.108316
   1 C :   -0.146931
   2 C :   -0.121983
   3 C :    0.034825
   4 C :   -0.113906
   5 H :   -0.008714
   6 C :    0.072340
   7 H :    0.032244
   8 H :    0.017675
   9 C :   -0.007102
  10 H :    0.016684
  11 H :    0.018448
  12 C :   -0.073930
  13 H :    0.001797
  14 H :    0.030519
  15 H :    0.042437
  16 S :    0.079413
  17 C :   -0.086281
  18 C :   -0.040825
  19 C :   -0.049176
  20 C :   -0.127586
  21 H :    0.025309
  22 C :    0.036336
  23 H :    0.036192
  24 H :    0.027537
  25 C :   -0.062058
  26 H :    0.045244
  27 H :    0.026457
  28 C :   -0.062789
  29 H :    0.024595
  30 H :    0.038275
  31 H :    0.034904
  32 H :    0.087911
  33 H :    0.063822
Sum of atomic charges:    0.0000000

LOEWDIN ATOMIC CHARGES
----------------------
   0 S :    0.396939
   1 C :   -0.214483
   2 C :   -0.053979
   3 C :   -0.065143
   4 C :   -0.178751
   5 H :    0.025273
   6 C :   -0.030894
   7 H :    0.033749
   8 H :    0.029986
   9 C :   -0.034748
  10 H :    0.020815
  11 H :    0.022695
  12 C :   -0.077328
  13 H :    0.019593
  14 H :    0.028314
  15 H :    0.030131
  16 S :    0.379338
  17 C :   -0.185653
  18 C :   -0.083007
  19 C :   -0.052274
  20 C :   -0.176753
  21 H :    0.036514
  22 C :   -0.034200
  23 H :    0.032881
  24 H :    0.030314
  25 C :   -0.041255
  26 H :    0.026187
  27 H :    0.029808
  28 C :   -0.070447
  29 H :    0.022497
  30 H :    0.035911
  31 H :    0.020693
  32 H :    0.045193
  33 H :    0.032084

  Mayer bond orders larger than 0.100000
B(  0-S ,  1-C ) :   1.1267 B(  0-S ,  4-C ) :   1.1542 B(  1-C ,  2-C ) :   1.5794
B(  1-C ,  4-C ) :   0.1012 B(  1-C , 32-H ) :   0.9600 B(  2-C ,  3-C ) :   1.2492
B(  2-C ,  6-C ) :   1.0249 B(  3-C ,  4-C ) :   1.5289 B(  3-C ,  5-H ) :   0.9949
B(  4-C , 20-C ) :   1.0891 B(  6-C ,  7-H ) :   0.9388 B(  6-C ,  8-H ) :   0.9398
B(  6-C ,  9-C ) :   1.0841 B(  9-C , 10-H ) :   0.9572 B(  9-C , 11-H ) :   0.9559
B(  9-C , 12-C ) :   1.0630 B( 12-C , 13-H ) :   0.9738 B( 12-C , 14-H ) :   0.9711
B( 12-C , 15-H ) :   0.9765 B( 16-S , 17-C ) :   1.1795 B( 16-S , 20-C ) :   1.1165
B( 17-C , 18-C ) :   1.5610 B( 17-C , 20-C ) :   0.1102 B( 17-C , 33-H ) :   0.9672
B( 18-C , 19-C ) :   1.2806 B( 18-C , 21-H ) :   0.9884 B( 19-C , 20-C ) :   1.5454
B( 19-C , 22-C ) :   1.0543 B( 22-C , 23-H ) :   0.9264 B( 22-C , 24-H ) :   0.9455
B( 22-C , 25-C ) :   1.0438 B( 25-C , 26-H ) :   0.9626 B( 25-C , 27-H ) :   0.9419
B( 25-C , 28-C ) :   1.0928 B( 28-C , 29-H ) :   0.9697 B( 28-C , 30-H ) :   0.9642
B( 28-C , 31-H ) :   0.9750

Dispersion correction           -0.014583785
FINAL SINGLE POINT ENERGY     -1339.863620209578

DIPOLE MOMENT
-------------
                                X             Y             Z
Electronic contribution:     10.96957      26.53451      -4.84764
Nuclear contribution   :    -11.55908     -27.03182       4.86519
                        -----------------------------------------
Total Dipole Moment    :     -0.58951      -0.49731       0.01755
                        -----------------------------------------
Magnitude (a.u.)       :      0.77146
Magnitude (Debye)      :      1.96089

Rotational constants in cm-1:     0.019333     0.009065     0.006534
Rotational constants in MHz :   579.590532   271.772663   195.881681

                             ****ORCA TERMINATED NORMALLY****
TOTAL RUN TIME: 0 days 0 hours 0 minutes 29 seconds 191 msec
