                         Program Version 4.2.1 -  RELEASE  -
|  1> ! wB97X-D3 SP def2-SVP
|  2> %pal
|  3> nprocs 16
|  4> end
|  5>
|  6> * xyz 0 1
|  7> S 	 -47.4934 	 68.3249 	 124.092
|  8> C 	 -48.2733 	 67.0252 	 123.29
|  9> C 	 -48.5219 	 65.8685 	 124.051
| 10> C 	 -48.2709 	 66.2001 	 125.423
| 11> C 	 -47.5863 	 67.3858 	 125.612
| 12> H 	 -48.4505 	 65.5527 	 126.225
| 13> C 	 -49.0679 	 64.5588 	 123.628
| 14> H 	 -49.8301 	 64.6045 	 122.867
| 15> H 	 -49.3829 	 64.0169 	 124.5
| 16> C 	 -47.9926 	 63.6514 	 123.121
| 17> H 	 -47.6357 	 64.0815 	 122.222
| 18> H 	 -47.1285 	 63.768 	 123.82
| 19> C 	 -48.4416 	 62.1897 	 122.996
| 20> H 	 -48.8697 	 61.7171 	 123.862
| 21> H 	 -49.1321 	 62.0026 	 122.161
| 22> H 	 -47.6566 	 61.4971 	 122.791
| 23> S 	 -45.5543 	 68.4995 	 127.111
| 24> C 	 -45.8557 	 68.8278 	 128.772
| 25> C 	 -47.048 	 68.3961 	 129.137
| 26> C 	 -47.8495 	 67.8844 	 128.106
| 27> C 	 -47.1908 	 67.9326 	 126.896
| 28> H 	 -47.4138 	 68.671 	 130.112
| 29> C 	 -49.2937 	 67.5224 	 128.449
| 30> H 	 -49.2828 	 66.7205 	 129.185
| 31> H 	 -49.7362 	 67.1126 	 127.591
| 32> C 	 -50.2332 	 68.6675 	 128.956
| 33> H 	 -50.4193 	 69.3812 	 128.184
| 34> H 	 -49.9355 	 69.2649 	 129.836
| 35> C 	 -51.6631 	 68.0691 	 129.062
| 36> H 	 -52.3414 	 68.8594 	 129.289
| 37> H 	 -51.7074 	 67.2519 	 129.824
| 38> H 	 -52.0431 	 67.5257 	 128.163
| 39> H 	 -48.4548 	 67.1193 	 122.254
| 40> H 	 -45.2041 	 69.3151 	 129.465
| 41> *
| 42>
| 43>                          ****END OF INPUT****

CARTESIAN COORDINATES (ANGSTROEM)
---------------------------------
  S    -47.493400   68.324900  124.092000
  C    -48.273300   67.025200  123.290000
  C    -48.521900   65.868500  124.051000
  C    -48.270900   66.200100  125.423000
  C    -47.586300   67.385800  125.612000
  H    -48.450500   65.552700  126.225000
  C    -49.067900   64.558800  123.628000
  H    -49.830100   64.604500  122.867000
  H    -49.382900   64.016900  124.500000
  C    -47.992600   63.651400  123.121000
  H    -47.635700   64.081500  122.222000
  H    -47.128500   63.768000  123.820000
  C    -48.441600   62.189700  122.996000
  H    -48.869700   61.717100  123.862000
  H    -49.132100   62.002600  122.161000
  H    -47.656600   61.497100  122.791000
  S    -45.554300   68.499500  127.111000
  C    -45.855700   68.827800  128.772000
  C    -47.048000   68.396100  129.137000
  C    -47.849500   67.884400  128.106000
  C    -47.190800   67.932600  126.896000
  H    -47.413800   68.671000  130.112000
  C    -49.293700   67.522400  128.449000
  H    -49.282800   66.720500  129.185000
  H    -49.736200   67.112600  127.591000
  C    -50.233200   68.667500  128.956000
  H    -50.419300   69.381200  128.184000
  H    -49.935500   69.264900  129.836000
  C    -51.663100   68.069100  129.062000
  H    -52.341400   68.859400  129.289000
  H    -51.707400   67.251900  129.824000
  H    -52.043100   67.525700  128.163000
  H    -48.454800   67.119300  122.254000
  H    -45.204100   69.315100  129.465000

 Total Charge           Charge          ....    0
 Multiplicity           Mult            ....    1
 Number of Electrons    NEL             ....  134
 Basis Dimension        Dim             ....  322

ORBITAL ENERGIES
----------------

  NO   OCC          E(Eh)            E(eV)
   0   2.0000     -88.968484     -2420.9555
   1   2.0000     -88.960208     -2420.7303
   2   2.0000     -10.327312      -281.0205
   3   2.0000     -10.321658      -280.8666
   4   2.0000     -10.311817      -280.5988
   5   2.0000     -10.303639      -280.3763
   6   2.0000     -10.302633      -280.3489
   7   2.0000     -10.294661      -280.1320
   8   2.0000     -10.291658      -280.0503
   9   2.0000     -10.289809      -279.9999
  10   2.0000     -10.289213      -279.9837
  11   2.0000     -10.285463      -279.8817
  12   2.0000     -10.283440      -279.8266
  13   2.0000     -10.280744      -279.7533
  14   2.0000     -10.276854      -279.6474
  15   2.0000     -10.276851      -279.6473
  16   2.0000      -8.083271      -219.9570
  17   2.0000      -8.076021      -219.7597
  18   2.0000      -6.041660      -164.4019
  19   2.0000      -6.037892      -164.2994
  20   2.0000      -6.034482      -164.2066
  21   2.0000      -6.034052      -164.1949
  22   2.0000      -6.030462      -164.0972
  23   2.0000      -6.026689      -163.9945
  24   2.0000      -1.010897       -27.5079
  25   2.0000      -0.988564       -26.9002
  26   2.0000      -0.923126       -25.1195
  27   2.0000      -0.905701       -24.6454
  28   2.0000      -0.872474       -23.7412
  29   2.0000      -0.855307       -23.2741
  30   2.0000      -0.848676       -23.0937
  31   2.0000      -0.815634       -22.1945
  32   2.0000      -0.785136       -21.3646
  33   2.0000      -0.770791       -20.9743
  34   2.0000      -0.706200       -19.2167
  35   2.0000      -0.704912       -19.1816
  36   2.0000      -0.698619       -19.0104
  37   2.0000      -0.662347       -18.0234
  38   2.0000      -0.645071       -17.5533
  39   2.0000      -0.626017       -17.0348
  40   2.0000      -0.601381       -16.3644
  41   2.0000      -0.578872       -15.7519
  42   2.0000      -0.566753       -15.4221
  43   2.0000      -0.558502       -15.1976
  44   2.0000      -0.529932       -14.4202
  45   2.0000      -0.525824       -14.3084
  46   2.0000      -0.514447       -13.9988
  47   2.0000      -0.506600       -13.7853
  48   2.0000      -0.504209       -13.7202
  49   2.0000      -0.497872       -13.5478
  50   2.0000      -0.491308       -13.3692
  51   2.0000      -0.479598       -13.0505
  52   2.0000      -0.471165       -12.8210
  53   2.0000      -0.464314       -12.6346
  54   2.0000      -0.461473       -12.5573
  55   2.0000      -0.454836       -12.3767
  56   2.0000      -0.443652       -12.0724
  57   2.0000      -0.440894       -11.9973
  58   2.0000      -0.434370       -11.8198
  59   2.0000      -0.430926       -11.7261
  60   2.0000      -0.424787       -11.5591
  61   2.0000      -0.420130       -11.4323
  62   2.0000      -0.409893       -11.1538
  63   2.0000      -0.351921        -9.5763
  64   2.0000      -0.332427        -9.0458
  65   2.0000      -0.329034        -8.9535
  66   2.0000      -0.287433        -7.8214
  67   0.0000       0.032925         0.8959
  68   0.0000       0.075087         2.0432
  69   0.0000       0.112711         3.0670
  70   0.0000       0.122190         3.3250
  71   0.0000       0.137030         3.7288

MULLIKEN ATOMIC CHARGES
-----------------------
   0 S :    0.120513
   1 C :   -0.114823
   2 C :   -0.087539
   3 C :    0.027600
   4 C :   -0.144736
   5 H :   -0.002822
   6 C :    0.117649
   7 H :    0.025732
   8 H :    0.003303
   9 C :   -0.077969
  10 H :    0.012621
  11 H :    0.032301
  12 C :   -0.025045
  13 H :    0.022747
  14 H :    0.027997
  15 H :    0.021452
  16 S :    0.101066
  17 C :   -0.068844
  18 C :   -0.029137
  19 C :   -0.033040
  20 C :   -0.153610
  21 H :    0.007639
  22 C :    0.095561
  23 H :    0.027412
  24 H :   -0.007087
  25 C :   -0.059961
  26 H :    0.028234
  27 H :    0.042203
  28 C :   -0.078153
  29 H :    0.034292
  30 H :    0.024381
  31 H :    0.037078
  32 H :    0.031676
  33 H :    0.041311
Sum of atomic charges:   -0.0000000

LOEWDIN ATOMIC CHARGES
----------------------
   0 S :    0.407976
   1 C :   -0.195802
   2 C :   -0.056257
   3 C :   -0.047063
   4 C :   -0.186015
   5 H :    0.022034
   6 C :   -0.029473
   7 H :    0.029244
   8 H :    0.028607
   9 C :   -0.035790
  10 H :    0.016301
  11 H :    0.029531
  12 C :   -0.070341
  13 H :    0.024116
  14 H :    0.028464
  15 H :    0.025895
  16 S :    0.408841
  17 C :   -0.185514
  18 C :   -0.074570
  19 C :   -0.060110
  20 C :   -0.200950
  21 H :    0.029013
  22 C :   -0.023056
  23 H :    0.031542
  24 H :    0.020463
  25 C :   -0.035715
  26 H :    0.025330
  27 H :    0.026661
  28 C :   -0.068002
  29 H :    0.021227
  30 H :    0.021870
  31 H :    0.029938
  32 H :    0.013467
  33 H :    0.028136

  Mayer bond orders larger than 0.100000
B(  0-S ,  1-C ) :   1.1634 B(  0-S ,  4-C ) :   1.1358 B(  1-C ,  2-C ) :   1.5827
B(  1-C , 32-H ) :   0.9705 B(  2-C ,  3-C ) :   1.2467 B(  2-C ,  6-C ) :   1.0446
B(  3-C ,  4-C ) :   1.5879 B(  3-C ,  5-H ) :   0.9943 B(  4-C , 20-C ) :   1.0288
B(  6-C ,  7-H ) :   0.9372 B(  6-C ,  8-H ) :   0.9330 B(  6-C ,  9-C ) :   1.0534
B(  9-C , 10-H ) :   0.9552 B(  9-C , 11-H ) :   0.9557 B(  9-C , 12-C ) :   1.0786
B( 12-C , 13-H ) :   0.9725 B( 12-C , 14-H ) :   0.9718 B( 12-C , 15-H ) :   0.9715
B( 16-S , 17-C ) :   1.1376 B( 16-S , 20-C ) :   1.1410 B( 17-C , 18-C ) :   1.6456
B( 17-C , 33-H ) :   0.9654 B( 18-C , 19-C ) :   1.2361 B( 18-C , 21-H ) :   0.9887
B( 19-C , 20-C ) :   1.6123 B( 19-C , 22-C ) :   1.0384 B( 22-C , 23-H ) :   0.9349
B( 22-C , 24-H ) :   0.9297 B( 22-C , 25-C ) :   1.0646 B( 25-C , 26-H ) :   0.9541
B( 25-C , 27-H ) :   0.9576 B( 25-C , 28-C ) :   1.0733 B( 28-C , 29-H ) :   0.9755
B( 28-C , 30-H ) :   0.9761 B( 28-C , 31-H ) :   0.9745

Dispersion correction           -0.013511401
FINAL SINGLE POINT ENERGY     -1339.872515078712

DIPOLE MOMENT
-------------
                                X             Y             Z
Electronic contribution:     19.65056      17.97253      -2.55804
Nuclear contribution   :    -20.12986     -18.34887       2.70316
                        -----------------------------------------
Total Dipole Moment    :     -0.47930      -0.37634       0.14512
                        -----------------------------------------
Magnitude (a.u.)       :      0.62643
Magnitude (Debye)      :      1.59226

Rotational constants in cm-1:     0.017529     0.007900     0.006574
Rotational constants in MHz :   525.518235   236.823182   197.081074

                             ****ORCA TERMINATED NORMALLY****
TOTAL RUN TIME: 0 days 0 hours 0 minutes 33 seconds 899 msec
