                         Program Version 4.2.1 -  RELEASE  -
|  1> ! wB97X-D3 SP def2-SVP
|  2> %pal
|  3> nprocs 16
|  4> end
|  5>
|  6> * xyz 0 1
|  7> S 	 -38.9622 	 47.2834 	 94.481
|  8> C 	 -37.6831 	 46.8376 	 95.5471
|  9> C 	 -38.1849 	 46.6017 	 96.8383
| 10> C 	 -39.567 	 46.4544 	 96.8615
| 11> C 	 -40.1155 	 46.7354 	 95.6096
| 12> H 	 -40.144 	 46.1525 	 97.7719
| 13> C 	 -37.3593 	 46.2049 	 98.019
| 14> H 	 -36.4912 	 45.6488 	 97.7007
| 15> H 	 -37.8226 	 45.5285 	 98.6923
| 16> C 	 -36.7273 	 47.4172 	 98.7121
| 17> H 	 -36.1325 	 47.9734 	 97.9744
| 18> H 	 -37.4704 	 48.074 	 99.1687
| 19> C 	 -35.8355 	 46.9964 	 99.8965
| 20> H 	 -35.1052 	 46.3412 	 99.4806
| 21> H 	 -35.3138 	 47.8154 	 100.462
| 22> H 	 -36.4902 	 46.477 	 100.589
| 23> S 	 -42.4096 	 45.8304 	 94.1367
| 24> C 	 -43.9787 	 46.3878 	 94.6819
| 25> C 	 -43.8525 	 47.3824 	 95.6108
| 26> C 	 -42.5062 	 47.7048 	 95.9948
| 27> C 	 -41.572 	 46.9214 	 95.3599
| 28> H 	 -44.7429 	 47.9798 	 96.0021
| 29> C 	 -42.1704 	 48.8542 	 97.0321
| 30> H 	 -42.8625 	 49.671 	 96.9117
| 31> H 	 -41.1702 	 49.258 	 96.9505
| 32> C 	 -42.5374 	 48.4335 	 98.4754
| 33> H 	 -41.9167 	 47.5088 	 98.6981
| 34> H 	 -43.6019 	 48.1725 	 98.5184
| 35> C 	 -42.2309 	 49.3857 	 99.7098
| 36> H 	 -41.1751 	 49.6803 	 99.7407
| 37> H 	 -42.5185 	 48.9152 	 100.674
| 38> H 	 -42.8367 	 50.205 	 99.6438
| 39> H 	 -36.674 	 47.0889 	 95.533
| 40> H 	 -44.8527 	 46.1049 	 94.1767
| 41> *
| 42>
| 43>                          ****END OF INPUT****

CARTESIAN COORDINATES (ANGSTROEM)
---------------------------------
  S    -38.962200   47.283400   94.481000
  C    -37.683100   46.837600   95.547100
  C    -38.184900   46.601700   96.838300
  C    -39.567000   46.454400   96.861500
  C    -40.115500   46.735400   95.609600
  H    -40.144000   46.152500   97.771900
  C    -37.359300   46.204900   98.019000
  H    -36.491200   45.648800   97.700700
  H    -37.822600   45.528500   98.692300
  C    -36.727300   47.417200   98.712100
  H    -36.132500   47.973400   97.974400
  H    -37.470400   48.074000   99.168700
  C    -35.835500   46.996400   99.896500
  H    -35.105200   46.341200   99.480600
  H    -35.313800   47.815400  100.462000
  H    -36.490200   46.477000  100.589000
  S    -42.409600   45.830400   94.136700
  C    -43.978700   46.387800   94.681900
  C    -43.852500   47.382400   95.610800
  C    -42.506200   47.704800   95.994800
  C    -41.572000   46.921400   95.359900
  H    -44.742900   47.979800   96.002100
  C    -42.170400   48.854200   97.032100
  H    -42.862500   49.671000   96.911700
  H    -41.170200   49.258000   96.950500
  C    -42.537400   48.433500   98.475400
  H    -41.916700   47.508800   98.698100
  H    -43.601900   48.172500   98.518400
  C    -42.230900   49.385700   99.709800
  H    -41.175100   49.680300   99.740700
  H    -42.518500   48.915200  100.674000
  H    -42.836700   50.205000   99.643800
  H    -36.674000   47.088900   95.533000
  H    -44.852700   46.104900   94.176700

 Total Charge           Charge          ....    0
 Multiplicity           Mult            ....    1
 Number of Electrons    NEL             ....  134
 Basis Dimension        Dim             ....  322

ORBITAL ENERGIES
----------------

  NO   OCC          E(Eh)            E(eV)
   0   2.0000     -88.974060     -2421.1073
   1   2.0000     -88.960428     -2420.7363
   2   2.0000     -10.332424      -281.1596
   3   2.0000     -10.328585      -281.0551
   4   2.0000     -10.316824      -280.7351
   5   2.0000     -10.310440      -280.5613
   6   2.0000     -10.307238      -280.4742
   7   2.0000     -10.300390      -280.2879
   8   2.0000     -10.297650      -280.2133
   9   2.0000     -10.296505      -280.1821
  10   2.0000     -10.295160      -280.1455
  11   2.0000     -10.294007      -280.1142
  12   2.0000     -10.287142      -279.9274
  13   2.0000     -10.286707      -279.9155
  14   2.0000     -10.278912      -279.7034
  15   2.0000     -10.278819      -279.7009
  16   2.0000      -8.089418      -220.1242
  17   2.0000      -8.074373      -219.7149
  18   2.0000      -6.047719      -164.5668
  19   2.0000      -6.043818      -164.4607
  20   2.0000      -6.040367      -164.3667
  21   2.0000      -6.032962      -164.1652
  22   2.0000      -6.029075      -164.0595
  23   2.0000      -6.025010      -163.9489
  24   2.0000      -1.010443       -27.4955
  25   2.0000      -0.981966       -26.7206
  26   2.0000      -0.918707       -24.9993
  27   2.0000      -0.899120       -24.4663
  28   2.0000      -0.865887       -23.5620
  29   2.0000      -0.856503       -23.3066
  30   2.0000      -0.841112       -22.8878
  31   2.0000      -0.811295       -22.0765
  32   2.0000      -0.786857       -21.4115
  33   2.0000      -0.775567       -21.1042
  34   2.0000      -0.704463       -19.1694
  35   2.0000      -0.697888       -18.9905
  36   2.0000      -0.690670       -18.7941
  37   2.0000      -0.658021       -17.9057
  38   2.0000      -0.640670       -17.4335
  39   2.0000      -0.621356       -16.9079
  40   2.0000      -0.599429       -16.3113
  41   2.0000      -0.576842       -15.6967
  42   2.0000      -0.564860       -15.3706
  43   2.0000      -0.562597       -15.3091
  44   2.0000      -0.524347       -14.2682
  45   2.0000      -0.520021       -14.1505
  46   2.0000      -0.516303       -14.0493
  47   2.0000      -0.511451       -13.9173
  48   2.0000      -0.504011       -13.7148
  49   2.0000      -0.500528       -13.6201
  50   2.0000      -0.487763       -13.2727
  51   2.0000      -0.483062       -13.1448
  52   2.0000      -0.472250       -12.8506
  53   2.0000      -0.468713       -12.7543
  54   2.0000      -0.463768       -12.6198
  55   2.0000      -0.451343       -12.2817
  56   2.0000      -0.445477       -12.1220
  57   2.0000      -0.434229       -11.8160
  58   2.0000      -0.432587       -11.7713
  59   2.0000      -0.428502       -11.6601
  60   2.0000      -0.421837       -11.4788
  61   2.0000      -0.419274       -11.4090
  62   2.0000      -0.404654       -11.0112
  63   2.0000      -0.339126        -9.2281
  64   2.0000      -0.334701        -9.1077
  65   2.0000      -0.329284        -8.9603
  66   2.0000      -0.300517        -8.1775
  67   0.0000       0.030702         0.8354
  68   0.0000       0.059914         1.6303
  69   0.0000       0.111129         3.0240
  70   0.0000       0.117469         3.1965
  71   0.0000       0.126485         3.4418

MULLIKEN ATOMIC CHARGES
-----------------------
   0 S :    0.144948
   1 C :   -0.048865
   2 C :   -0.110489
   3 C :    0.013575
   4 C :   -0.141835
   5 H :    0.037661
   6 C :    0.055280
   7 H :    0.015511
   8 H :    0.012148
   9 C :   -0.099653
  10 H :    0.030115
  11 H :    0.027424
  12 C :   -0.038783
  13 H :    0.019842
  14 H :    0.047093
  15 H :    0.026614
  16 S :    0.076807
  17 C :   -0.068954
  18 C :   -0.049649
  19 C :   -0.013544
  20 C :   -0.192044
  21 H :    0.043126
  22 C :    0.112730
  23 H :    0.014303
  24 H :    0.035559
  25 C :   -0.148361
  26 H :    0.027733
  27 H :    0.033518
  28 C :   -0.017138
  29 H :    0.038020
  30 H :    0.037994
  31 H :    0.009676
  32 H :    0.022778
  33 H :    0.046861
Sum of atomic charges:    0.0000000

LOEWDIN ATOMIC CHARGES
----------------------
   0 S :    0.459560
   1 C :   -0.208674
   2 C :   -0.057548
   3 C :   -0.061560
   4 C :   -0.212261
   5 H :    0.042188
   6 C :   -0.030725
   7 H :    0.031624
   8 H :    0.024055
   9 C :   -0.037624
  10 H :    0.021249
  11 H :    0.020019
  12 C :   -0.065584
  13 H :    0.016874
  14 H :    0.032381
  15 H :    0.023065
  16 S :    0.357251
  17 C :   -0.168094
  18 C :   -0.081691
  19 C :   -0.048320
  20 C :   -0.175743
  21 H :    0.042191
  22 C :   -0.023340
  23 H :    0.027407
  24 H :    0.030172
  25 C :   -0.045191
  26 H :    0.021216
  27 H :    0.022437
  28 C :   -0.060726
  29 H :    0.027165
  30 H :    0.033879
  31 H :    0.007760
  32 H :    0.015693
  33 H :    0.020894

  Mayer bond orders larger than 0.100000
B(  0-S ,  1-C ) :   1.1557 B(  0-S ,  4-C ) :   1.2067 B(  1-C ,  2-C ) :   1.5693
B(  1-C ,  4-C ) :   0.1049 B(  1-C , 32-H ) :   0.9621 B(  2-C ,  3-C ) :   1.2993
B(  2-C ,  6-C ) :   1.0295 B(  3-C ,  4-C ) :   1.5091 B(  3-C ,  5-H ) :   0.9930
B(  4-C , 20-C ) :   0.9995 B(  6-C ,  7-H ) :   0.9409 B(  6-C ,  8-H ) :   0.9520
B(  6-C ,  9-C ) :   1.0449 B(  9-C , 10-H ) :   0.9603 B(  9-C , 11-H ) :   0.9589
B(  9-C , 12-C ) :   1.0757 B( 12-C , 13-H ) :   0.9749 B( 12-C , 14-H ) :   0.9747
B( 12-C , 15-H ) :   0.9748 B( 16-S , 17-C ) :   1.1497 B( 16-S , 20-C ) :   1.1115
B( 17-C , 18-C ) :   1.6260 B( 17-C , 33-H ) :   0.9746 B( 18-C , 19-C ) :   1.2243
B( 18-C , 21-H ) :   0.9728 B( 19-C , 20-C ) :   1.6492 B( 19-C , 22-C ) :   1.0335
B( 22-C , 23-H ) :   0.9364 B( 22-C , 24-H ) :   0.9428 B( 22-C , 25-C ) :   1.0474
B( 25-C , 26-H ) :   0.9579 B( 25-C , 27-H ) :   0.9589 B( 25-C , 28-C ) :   1.0771
B( 28-C , 29-H ) :   0.9763 B( 28-C , 30-H ) :   0.9743 B( 28-C , 31-H ) :   0.9757

Dispersion correction           -0.014180254
FINAL SINGLE POINT ENERGY     -1339.863818339140

DIPOLE MOMENT
-------------
                                X             Y             Z
Electronic contribution:     -8.80834      -9.03626     -30.52792
Nuclear contribution   :      8.81483       9.41335      31.21981
                        -----------------------------------------
Total Dipole Moment    :      0.00649       0.37709       0.69189
                        -----------------------------------------
Magnitude (a.u.)       :      0.78800
Magnitude (Debye)      :      2.00295

Rotational constants in cm-1:     0.017964     0.008773     0.006441
Rotational constants in MHz :   538.553828   262.994907   193.097154

                             ****ORCA TERMINATED NORMALLY****
TOTAL RUN TIME: 0 days 0 hours 0 minutes 29 seconds 738 msec
