                         Program Version 4.2.1 -  RELEASE  -
|  1> ! wB97X-D3 SP def2-SVP
|  2> %pal
|  3> nprocs 16
|  4> end
|  5>
|  6> * xyz 0 1
|  7> S 	 54.4721 	 9.44368 	 61.6879
|  8> C 	 55.4894 	 10.2063 	 62.8038
|  9> C 	 56.4325 	 11.0777 	 62.1914
| 10> C 	 56.1618 	 11.2095 	 60.7959
| 11> C 	 55.0812 	 10.4276 	 60.3802
| 12> H 	 56.634 	 11.7292 	 59.9843
| 13> C 	 57.4949 	 11.8644 	 62.8565
| 14> H 	 57.413 	 12.8935 	 62.4458
| 15> H 	 58.4749 	 11.5502 	 62.5391
| 16> C 	 57.5096 	 11.8332 	 64.4525
| 17> H 	 56.5264 	 12.0042 	 64.8015
| 18> H 	 57.9107 	 10.8692 	 64.7305
| 19> C 	 58.498 	 12.8549 	 65.0885
| 20> H 	 59.3762 	 12.264 	 65.2673
| 21> H 	 58.5889 	 13.694 	 64.421
| 22> H 	 58.1448 	 13.1939 	 66.0756
| 23> S 	 53.2733 	 11.262 	 58.4987
| 24> C 	 53.1341 	 10.1749 	 57.0267
| 25> C 	 54.1155 	 9.2236 	 57.0013
| 26> C 	 54.9585 	 9.27067 	 58.1713
| 27> C 	 54.6175 	 10.2886 	 59.0421
| 28> H 	 54.1784 	 8.60142 	 56.1406
| 29> C 	 55.9846 	 8.20203 	 58.4976
| 30> H 	 56.6381 	 8.65637 	 59.2198
| 31> H 	 56.6198 	 8.04962 	 57.6598
| 32> C 	 55.4913 	 6.8461 	 59.0397
| 33> H 	 54.8351 	 6.993 	 59.8845
| 34> H 	 56.3337 	 6.16853 	 59.2704
| 35> C 	 54.5236 	 6.16622 	 58.0426
| 36> H 	 53.6985 	 6.75265 	 57.7456
| 37> H 	 54.1808 	 5.22418 	 58.3516
| 38> H 	 55.0437 	 6.10477 	 57.0429
| 39> H 	 55.5574 	 10.0277 	 63.8076
| 40> H 	 52.4552 	 10.3582 	 56.2132
| 41> *
| 42>
| 43>                          ****END OF INPUT****

CARTESIAN COORDINATES (ANGSTROEM)
---------------------------------
  S     54.472100    9.443680   61.687900
  C     55.489400   10.206300   62.803800
  C     56.432500   11.077700   62.191400
  C     56.161800   11.209500   60.795900
  C     55.081200   10.427600   60.380200
  H     56.634000   11.729200   59.984300
  C     57.494900   11.864400   62.856500
  H     57.413000   12.893500   62.445800
  H     58.474900   11.550200   62.539100
  C     57.509600   11.833200   64.452500
  H     56.526400   12.004200   64.801500
  H     57.910700   10.869200   64.730500
  C     58.498000   12.854900   65.088500
  H     59.376200   12.264000   65.267300
  H     58.588900   13.694000   64.421000
  H     58.144800   13.193900   66.075600
  S     53.273300   11.262000   58.498700
  C     53.134100   10.174900   57.026700
  C     54.115500    9.223600   57.001300
  C     54.958500    9.270670   58.171300
  C     54.617500   10.288600   59.042100
  H     54.178400    8.601420   56.140600
  C     55.984600    8.202030   58.497600
  H     56.638100    8.656370   59.219800
  H     56.619800    8.049620   57.659800
  C     55.491300    6.846100   59.039700
  H     54.835100    6.993000   59.884500
  H     56.333700    6.168530   59.270400
  C     54.523600    6.166220   58.042600
  H     53.698500    6.752650   57.745600
  H     54.180800    5.224180   58.351600
  H     55.043700    6.104770   57.042900
  H     55.557400   10.027700   63.807600
  H     52.455200   10.358200   56.213200

 Total Charge           Charge          ....    0
 Multiplicity           Mult            ....    1
 Number of Electrons    NEL             ....  134
 Basis Dimension        Dim             ....  322

ORBITAL ENERGIES
----------------

  NO   OCC          E(Eh)            E(eV)
   0   2.0000     -88.968085     -2420.9447
   1   2.0000     -88.964986     -2420.8603
   2   2.0000     -10.321430      -280.8604
   3   2.0000     -10.320281      -280.8291
   4   2.0000     -10.319848      -280.8174
   5   2.0000     -10.305397      -280.4241
   6   2.0000     -10.303417      -280.3702
   7   2.0000     -10.302561      -280.3469
   8   2.0000     -10.295037      -280.1422
   9   2.0000     -10.293550      -280.1017
  10   2.0000     -10.292105      -280.0624
  11   2.0000     -10.287000      -279.9235
  12   2.0000     -10.284941      -279.8675
  13   2.0000     -10.282822      -279.8098
  14   2.0000     -10.278386      -279.6891
  15   2.0000     -10.267028      -279.3800
  16   2.0000      -8.083160      -219.9540
  17   2.0000      -8.078690      -219.8323
  18   2.0000      -6.041525      -164.3983
  19   2.0000      -6.037511      -164.2890
  20   2.0000      -6.037292      -164.2831
  21   2.0000      -6.034180      -164.1984
  22   2.0000      -6.033475      -164.1792
  23   2.0000      -6.029273      -164.0649
  24   2.0000      -1.007043       -27.4030
  25   2.0000      -0.980063       -26.6689
  26   2.0000      -0.908243       -24.7145
  27   2.0000      -0.904058       -24.6007
  28   2.0000      -0.873160       -23.7599
  29   2.0000      -0.855747       -23.2861
  30   2.0000      -0.842066       -22.9138
  31   2.0000      -0.817092       -22.2342
  32   2.0000      -0.782199       -21.2847
  33   2.0000      -0.767373       -20.8813
  34   2.0000      -0.714392       -19.4396
  35   2.0000      -0.701418       -19.0865
  36   2.0000      -0.689178       -18.7535
  37   2.0000      -0.662363       -18.0238
  38   2.0000      -0.650202       -17.6929
  39   2.0000      -0.604023       -16.4363
  40   2.0000      -0.592485       -16.1223
  41   2.0000      -0.578281       -15.7358
  42   2.0000      -0.570067       -15.5123
  43   2.0000      -0.552846       -15.0437
  44   2.0000      -0.547052       -14.8860
  45   2.0000      -0.523082       -14.2338
  46   2.0000      -0.519195       -14.1280
  47   2.0000      -0.516309       -14.0495
  48   2.0000      -0.505830       -13.7643
  49   2.0000      -0.497216       -13.5299
  50   2.0000      -0.484384       -13.1808
  51   2.0000      -0.478765       -13.0279
  52   2.0000      -0.475768       -12.9463
  53   2.0000      -0.460975       -12.5438
  54   2.0000      -0.458401       -12.4737
  55   2.0000      -0.443388       -12.0652
  56   2.0000      -0.439527       -11.9601
  57   2.0000      -0.435739       -11.8571
  58   2.0000      -0.434241       -11.8163
  59   2.0000      -0.432081       -11.7575
  60   2.0000      -0.421924       -11.4811
  61   2.0000      -0.417963       -11.3734
  62   2.0000      -0.407779       -11.0962
  63   2.0000      -0.337666        -9.1884
  64   2.0000      -0.333323        -9.0702
  65   2.0000      -0.313025        -8.5178
  66   2.0000      -0.306692        -8.3455
  67   0.0000       0.046398         1.2626
  68   0.0000       0.050484         1.3737
  69   0.0000       0.106776         2.9055
  70   0.0000       0.115727         3.1491
  71   0.0000       0.130085         3.5398

MULLIKEN ATOMIC CHARGES
-----------------------
   0 S :    0.149934
   1 C :   -0.078804
   2 C :   -0.087323
   3 C :    0.047076
   4 C :   -0.201311
   5 H :    0.008315
   6 C :    0.049862
   7 H :    0.034474
   8 H :    0.027748
   9 C :   -0.110134
  10 H :    0.032953
  11 H :    0.033072
  12 C :   -0.018748
  13 H :    0.030772
  14 H :    0.033861
  15 H :    0.033699
  16 S :    0.100621
  17 C :   -0.102702
  18 C :   -0.012475
  19 C :   -0.047551
  20 C :   -0.176486
  21 H :    0.016428
  22 C :    0.098946
  23 H :    0.018934
  24 H :    0.013236
  25 C :   -0.033144
  26 H :    0.022218
  27 H :    0.043333
  28 C :   -0.050093
  29 H :    0.024562
  30 H :    0.025578
  31 H :    0.008598
  32 H :    0.011443
  33 H :    0.053109
Sum of atomic charges:   -0.0000000

LOEWDIN ATOMIC CHARGES
----------------------
   0 S :    0.448741
   1 C :   -0.209876
   2 C :   -0.060541
   3 C :   -0.053411
   4 C :   -0.205429
   5 H :    0.032740
   6 C :   -0.036063
   7 H :    0.034931
   8 H :    0.030323
   9 C :   -0.034205
  10 H :    0.014777
  11 H :    0.023043
  12 C :   -0.057790
  13 H :    0.025262
  14 H :    0.022568
  15 H :    0.029619
  16 S :    0.372391
  17 C :   -0.153293
  18 C :   -0.063302
  19 C :   -0.047975
  20 C :   -0.208751
  21 H :    0.030529
  22 C :   -0.032804
  23 H :    0.030165
  24 H :    0.025340
  25 C :   -0.030863
  26 H :    0.017094
  27 H :    0.030710
  28 C :   -0.064905
  29 H :    0.017864
  30 H :    0.016972
  31 H :    0.022414
  32 H :    0.007991
  33 H :    0.025733

  Mayer bond orders larger than 0.100000
B(  0-S ,  1-C ) :   1.1625 B(  0-S ,  4-C ) :   1.1602 B(  1-C ,  2-C ) :   1.5810
B(  1-C , 32-H ) :   0.9690 B(  2-C ,  3-C ) :   1.2435 B(  2-C ,  6-C ) :   1.0316
B(  3-C ,  4-C ) :   1.5740 B(  3-C ,  5-H ) :   0.9954 B(  4-C , 20-C ) :   1.0276
B(  6-C ,  7-H ) :   0.9398 B(  6-C ,  8-H ) :   0.9288 B(  6-C ,  9-C ) :   1.0699
B(  9-C , 10-H ) :   0.9608 B(  9-C , 11-H ) :   0.9619 B(  9-C , 12-C ) :   1.0726
B( 12-C , 13-H ) :   0.9818 B( 12-C , 14-H ) :   0.9788 B( 12-C , 15-H ) :   0.9766
B( 16-S , 17-C ) :   1.1257 B( 16-S , 20-C ) :   1.1326 B( 17-C , 18-C ) :   1.6543
B( 17-C , 33-H ) :   0.9666 B( 18-C , 19-C ) :   1.1952 B( 18-C , 21-H ) :   0.9894
B( 19-C , 20-C ) :   1.6300 B( 19-C , 22-C ) :   1.0508 B( 22-C , 23-H ) :   0.9160
B( 22-C , 24-H ) :   0.9304 B( 22-C , 25-C ) :   1.0752 B( 25-C , 26-H ) :   0.9484
B( 25-C , 27-H ) :   0.9555 B( 25-C , 28-C ) :   1.0785 B( 28-C , 29-H ) :   0.9687
B( 28-C , 30-H ) :   0.9727 B( 28-C , 31-H ) :   0.9724

Dispersion correction           -0.014928676
FINAL SINGLE POINT ENERGY     -1339.868268636111

DIPOLE MOMENT
-------------
                                X             Y             Z
Electronic contribution:    -16.45327       5.35118      -8.80317
Nuclear contribution   :     16.94085      -5.48988       8.82141
                        -----------------------------------------
Total Dipole Moment    :      0.48758      -0.13870       0.01824
                        -----------------------------------------
Magnitude (a.u.)       :      0.50725
Magnitude (Debye)      :      1.28932

Rotational constants in cm-1:     0.025791     0.007143     0.006295
Rotational constants in MHz :   773.201607   214.149925   188.732464

                             ****ORCA TERMINATED NORMALLY****
TOTAL RUN TIME: 0 days 0 hours 0 minutes 28 seconds 676 msec
