                         Program Version 4.2.1 -  RELEASE  -
|  1> ! wB97X-D3 SP def2-SVP
|  2> %pal
|  3> nprocs 16
|  4> end
|  5>
|  6> * xyz 0 1
|  7> S 	 3.22584 	 -2.92192 	 85.4499
|  8> C 	 2.83642 	 -1.94631 	 86.8661
|  9> C 	 1.52636 	 -2.31118 	 87.3
| 10> C 	 1.00622 	 -3.51567 	 86.6876
| 11> C 	 1.83882 	 -4.0159 	 85.6669
| 12> H 	 0.0506283 	 -4.0172 	 86.9493
| 13> C 	 0.814412 	 -1.7106 	 88.5085
| 14> H 	 0.0120262 	 -1.07861 	 88.0249
| 15> H 	 1.44506 	 -0.949842 	 88.9481
| 16> C 	 0.129679 	 -2.62175 	 89.5508
| 17> H 	 -0.278764 	 -2.03509 	 90.3643
| 18> H 	 -0.708751 	 -3.1413 	 89.0501
| 19> C 	 1.04285 	 -3.70844 	 90.1417
| 20> H 	 1.96119 	 -3.27304 	 90.5109
| 21> H 	 0.696553 	 -4.21989 	 90.9961
| 22> H 	 1.27807 	 -4.49538 	 89.3755
| 23> S 	 -0.0483283 	 -5.4817 	 84.2318
| 24> C 	 0.473498 	 -6.89613 	 83.363
| 25> C 	 1.76544 	 -7.21809 	 83.5765
| 26> C 	 2.44411 	 -6.2123 	 84.3439
| 27> C 	 1.58266 	 -5.22195 	 84.8444
| 28> H 	 2.22156 	 -8.13501 	 83.225
| 29> C 	 3.90421 	 -6.38029 	 84.7569
| 30> H 	 4.37733 	 -5.46907 	 84.4824
| 31> H 	 4.33189 	 -7.26209 	 84.3116
| 32> C 	 4.25282 	 -6.87683 	 86.1972
| 33> H 	 4.08332 	 -6.04686 	 86.891
| 34> H 	 5.30837 	 -7.11397 	 86.1376
| 35> C 	 3.44355 	 -8.11744 	 86.7364
| 36> H 	 3.42784 	 -8.96568 	 85.995
| 37> H 	 2.46982 	 -7.82704 	 87.0739
| 38> H 	 4.04718 	 -8.48678 	 87.5278
| 39> H 	 3.43011 	 -1.14132 	 87.2157
| 40> H 	 -0.262871 	 -7.4282 	 82.8135
| 41> *
| 42>
| 43>                          ****END OF INPUT****

CARTESIAN COORDINATES (ANGSTROEM)
---------------------------------
  S      3.225840   -2.921920   85.449900
  C      2.836420   -1.946310   86.866100
  C      1.526360   -2.311180   87.300000
  C      1.006220   -3.515670   86.687600
  C      1.838820   -4.015900   85.666900
  H      0.050628   -4.017200   86.949300
  C      0.814412   -1.710600   88.508500
  H      0.012026   -1.078610   88.024900
  H      1.445060   -0.949842   88.948100
  C      0.129679   -2.621750   89.550800
  H     -0.278764   -2.035090   90.364300
  H     -0.708751   -3.141300   89.050100
  C      1.042850   -3.708440   90.141700
  H      1.961190   -3.273040   90.510900
  H      0.696553   -4.219890   90.996100
  H      1.278070   -4.495380   89.375500
  S     -0.048328   -5.481700   84.231800
  C      0.473498   -6.896130   83.363000
  C      1.765440   -7.218090   83.576500
  C      2.444110   -6.212300   84.343900
  C      1.582660   -5.221950   84.844400
  H      2.221560   -8.135010   83.225000
  C      3.904210   -6.380290   84.756900
  H      4.377330   -5.469070   84.482400
  H      4.331890   -7.262090   84.311600
  C      4.252820   -6.876830   86.197200
  H      4.083320   -6.046860   86.891000
  H      5.308370   -7.113970   86.137600
  C      3.443550   -8.117440   86.736400
  H      3.427840   -8.965680   85.995000
  H      2.469820   -7.827040   87.073900
  H      4.047180   -8.486780   87.527800
  H      3.430110   -1.141320   87.215700
  H     -0.262871   -7.428200   82.813500

 Total Charge           Charge          ....    0
 Multiplicity           Mult            ....    1
 Number of Electrons    NEL             ....  134
 Basis Dimension        Dim             ....  322

ORBITAL ENERGIES
----------------

  NO   OCC          E(Eh)            E(eV)
   0   2.0000     -88.968669     -2420.9606
   1   2.0000     -88.965824     -2420.8832
   2   2.0000     -10.339164      -281.3430
   3   2.0000     -10.330755      -281.1141
   4   2.0000     -10.319078      -280.7964
   5   2.0000     -10.314085      -280.6605
   6   2.0000     -10.310938      -280.5749
   7   2.0000     -10.305612      -280.4300
   8   2.0000     -10.301728      -280.3243
   9   2.0000     -10.295396      -280.1520
  10   2.0000     -10.293809      -280.1088
  11   2.0000     -10.291584      -280.0482
  12   2.0000     -10.285388      -279.8796
  13   2.0000     -10.283893      -279.8389
  14   2.0000     -10.277197      -279.6568
  15   2.0000     -10.271559      -279.5033
  16   2.0000      -8.081994      -219.9222
  17   2.0000      -8.080728      -219.8878
  18   2.0000      -6.040611      -164.3734
  19   2.0000      -6.039183      -164.3345
  20   2.0000      -6.036607      -164.2644
  21   2.0000      -6.035224      -164.2268
  22   2.0000      -6.032828      -164.1616
  23   2.0000      -6.031541      -164.1266
  24   2.0000      -1.001594       -27.2548
  25   2.0000      -0.978477       -26.6257
  26   2.0000      -0.905999       -24.6535
  27   2.0000      -0.901760       -24.5381
  28   2.0000      -0.867608       -23.6088
  29   2.0000      -0.846044       -23.0220
  30   2.0000      -0.839299       -22.8385
  31   2.0000      -0.814243       -22.1567
  32   2.0000      -0.784256       -21.3407
  33   2.0000      -0.772275       -21.0147
  34   2.0000      -0.708388       -19.2762
  35   2.0000      -0.697410       -18.9775
  36   2.0000      -0.683929       -18.6107
  37   2.0000      -0.667720       -18.1696
  38   2.0000      -0.633113       -17.2279
  39   2.0000      -0.615786       -16.7564
  40   2.0000      -0.592287       -16.1170
  41   2.0000      -0.567032       -15.4297
  42   2.0000      -0.563420       -15.3314
  43   2.0000      -0.545732       -14.8501
  44   2.0000      -0.545712       -14.8496
  45   2.0000      -0.537282       -14.6202
  46   2.0000      -0.517802       -14.0901
  47   2.0000      -0.510703       -13.8969
  48   2.0000      -0.500117       -13.6089
  49   2.0000      -0.488389       -13.2897
  50   2.0000      -0.486681       -13.2433
  51   2.0000      -0.476954       -12.9786
  52   2.0000      -0.472223       -12.8499
  53   2.0000      -0.465407       -12.6644
  54   2.0000      -0.459214       -12.4959
  55   2.0000      -0.448919       -12.2157
  56   2.0000      -0.441181       -12.0051
  57   2.0000      -0.439841       -11.9687
  58   2.0000      -0.433066       -11.7843
  59   2.0000      -0.420923       -11.4539
  60   2.0000      -0.416662       -11.3379
  61   2.0000      -0.410723       -11.1763
  62   2.0000      -0.403808       -10.9882
  63   2.0000      -0.351947        -9.5770
  64   2.0000      -0.331862        -9.0304
  65   2.0000      -0.325967        -8.8700
  66   2.0000      -0.287593        -7.8258
  67   0.0000       0.021591         0.5875
  68   0.0000       0.076178         2.0729
  69   0.0000       0.105205         2.8628
  70   0.0000       0.116728         3.1763
  71   0.0000       0.129347         3.5197

MULLIKEN ATOMIC CHARGES
-----------------------
   0 S :    0.102102
   1 C :   -0.117730
   2 C :   -0.091869
   3 C :   -0.009485
   4 C :   -0.122911
   5 H :    0.032652
   6 C :    0.045288
   7 H :    0.045615
   8 H :    0.012669
   9 C :   -0.063003
  10 H :    0.033792
  11 H :    0.031334
  12 C :   -0.044999
  13 H :    0.020448
  14 H :    0.020862
  15 H :    0.043241
  16 S :    0.098875
  17 C :   -0.078573
  18 C :   -0.010988
  19 C :   -0.064550
  20 C :   -0.149865
  21 H :    0.020420
  22 C :    0.070828
  23 H :    0.031444
  24 H :    0.008339
  25 C :   -0.086652
  26 H :    0.036586
  27 H :    0.031974
  28 C :   -0.042737
  29 H :    0.025440
  30 H :    0.048016
  31 H :    0.028064
  32 H :    0.047512
  33 H :    0.047864
Sum of atomic charges:    0.0000000

LOEWDIN ATOMIC CHARGES
----------------------
   0 S :    0.395990
   1 C :   -0.197312
   2 C :   -0.055577
   3 C :   -0.076761
   4 C :   -0.180784
   5 H :    0.035663
   6 C :   -0.040565
   7 H :    0.043960
   8 H :    0.024660
   9 C :   -0.040604
  10 H :    0.027984
  11 H :    0.024736
  12 C :   -0.069357
  13 H :    0.022934
  14 H :    0.018722
  15 H :    0.032722
  16 S :    0.405950
  17 C :   -0.172441
  18 C :   -0.068881
  19 C :   -0.051385
  20 C :   -0.200562
  21 H :    0.034484
  22 C :   -0.036945
  23 H :    0.022623
  24 H :    0.027705
  25 C :   -0.030648
  26 H :    0.021171
  27 H :    0.022719
  28 C :   -0.060696
  29 H :    0.025667
  30 H :    0.025946
  31 H :    0.024287
  32 H :    0.023661
  33 H :    0.020936

  Mayer bond orders larger than 0.100000
B(  0-S ,  1-C ) :   1.1325 B(  0-S ,  4-C ) :   1.1504 B(  1-C ,  2-C ) :   1.5755
B(  1-C ,  4-C ) :   0.1011 B(  1-C , 32-H ) :   0.9765 B(  2-C ,  3-C ) :   1.2498
B(  2-C ,  6-C ) :   1.0280 B(  3-C ,  4-C ) :   1.5499 B(  3-C ,  5-H ) :   0.9804
B(  4-C , 20-C ) :   1.0633 B(  6-C ,  7-H ) :   0.9301 B(  6-C ,  8-H ) :   0.9468
B(  6-C ,  9-C ) :   1.0728 B(  9-C , 10-H ) :   0.9533 B(  9-C , 11-H ) :   0.9506
B(  9-C , 12-C ) :   1.0817 B( 12-C , 13-H ) :   0.9749 B( 12-C , 14-H ) :   0.9748
B( 12-C , 15-H ) :   0.9704 B( 16-S , 17-C ) :   1.1619 B( 16-S , 20-C ) :   1.1359
B( 17-C , 18-C ) :   1.5962 B( 17-C , 33-H ) :   0.9716 B( 18-C , 19-C ) :   1.2453
B( 18-C , 21-H ) :   0.9932 B( 19-C , 20-C ) :   1.5627 B( 19-C , 22-C ) :   1.0474
B( 22-C , 23-H ) :   0.9300 B( 22-C , 24-H ) :   0.9445 B( 22-C , 25-C ) :   1.0532
B( 25-C , 26-H ) :   0.9539 B( 25-C , 27-H ) :   0.9652 B( 25-C , 28-C ) :   1.0732
B( 28-C , 29-H ) :   0.9756 B( 28-C , 30-H ) :   0.9752 B( 28-C , 31-H ) :   0.9740

Dispersion correction           -0.015357149
FINAL SINGLE POINT ENERGY     -1339.877602789877

DIPOLE MOMENT
-------------
                                X             Y             Z
Electronic contribution:     -4.19659       6.82339     -20.06036
Nuclear contribution   :      4.19946      -7.05243      20.45365
                        -----------------------------------------
Total Dipole Moment    :      0.00286      -0.22904       0.39329
                        -----------------------------------------
Magnitude (a.u.)       :      0.45513
Magnitude (Debye)      :      1.15685

Rotational constants in cm-1:     0.018790     0.008756     0.008258
Rotational constants in MHz :   563.317922   262.493120   247.562756

                             ****ORCA TERMINATED NORMALLY****
TOTAL RUN TIME: 0 days 0 hours 0 minutes 33 seconds 926 msec
