                         Program Version 4.2.1 -  RELEASE  -
|  1> ! wB97X-D3 SP def2-SVP
|  2> %pal
|  3> nprocs 16
|  4> end
|  5>
|  6> * xyz 0 1
|  7> S 	 54.9918 	 27.3217 	 42.0633
|  8> C 	 56.6901 	 27.4297 	 42.4856
|  9> C 	 57.1275 	 26.3316 	 43.1597
| 10> C 	 56.0788 	 25.3754 	 43.3781
| 11> C 	 54.8961 	 25.651 	 42.7068
| 12> H 	 56.1098 	 24.5514 	 44.0536
| 13> C 	 58.5289 	 26.0703 	 43.6378
| 14> H 	 59.127 	 25.8562 	 42.846
| 15> H 	 58.5009 	 25.179 	 44.3231
| 16> C 	 59.1467 	 27.2474 	 44.4817
| 17> H 	 60.2401 	 27.2534 	 44.6891
| 18> H 	 59.1156 	 28.1037 	 43.8101
| 19> C 	 58.4358 	 27.5077 	 45.7824
| 20> H 	 57.4112 	 27.8983 	 45.7498
| 21> H 	 58.4668 	 26.6382 	 46.5168
| 22> H 	 59.0557 	 28.2417 	 46.2928
| 23> S 	 52.2237 	 25.4208 	 43.0161
| 24> C 	 51.3845 	 23.945 	 42.7563
| 25> C 	 52.2824 	 23.0053 	 42.2773
| 26> C 	 53.6425 	 23.4447 	 42.2449
| 27> C 	 53.8117 	 24.767 	 42.5402
| 28> H 	 51.8562 	 22.013 	 42.0928
| 29> C 	 54.7815 	 22.4601 	 41.8723
| 30> H 	 55.5643 	 23.0792 	 41.3447
| 31> H 	 54.2851 	 21.8551 	 41.0308
| 32> C 	 55.3696 	 21.5043 	 42.933
| 33> H 	 54.6855 	 20.7031 	 43.215
| 34> H 	 55.563 	 22.1838 	 43.8023
| 35> C 	 56.7118 	 20.8261 	 42.5726
| 36> H 	 56.4925 	 19.7549 	 42.5554
| 37> H 	 57.4718 	 20.9263 	 43.3446
| 38> H 	 57.0293 	 21.0796 	 41.6433
| 39> H 	 57.4248 	 28.0986 	 42.0558
| 40> H 	 50.3172 	 23.8144 	 42.8288
| 41> *
| 42>
| 43>                          ****END OF INPUT****

CARTESIAN COORDINATES (ANGSTROEM)
---------------------------------
  S     54.991800   27.321700   42.063300
  C     56.690100   27.429700   42.485600
  C     57.127500   26.331600   43.159700
  C     56.078800   25.375400   43.378100
  C     54.896100   25.651000   42.706800
  H     56.109800   24.551400   44.053600
  C     58.528900   26.070300   43.637800
  H     59.127000   25.856200   42.846000
  H     58.500900   25.179000   44.323100
  C     59.146700   27.247400   44.481700
  H     60.240100   27.253400   44.689100
  H     59.115600   28.103700   43.810100
  C     58.435800   27.507700   45.782400
  H     57.411200   27.898300   45.749800
  H     58.466800   26.638200   46.516800
  H     59.055700   28.241700   46.292800
  S     52.223700   25.420800   43.016100
  C     51.384500   23.945000   42.756300
  C     52.282400   23.005300   42.277300
  C     53.642500   23.444700   42.244900
  C     53.811700   24.767000   42.540200
  H     51.856200   22.013000   42.092800
  C     54.781500   22.460100   41.872300
  H     55.564300   23.079200   41.344700
  H     54.285100   21.855100   41.030800
  C     55.369600   21.504300   42.933000
  H     54.685500   20.703100   43.215000
  H     55.563000   22.183800   43.802300
  C     56.711800   20.826100   42.572600
  H     56.492500   19.754900   42.555400
  H     57.471800   20.926300   43.344600
  H     57.029300   21.079600   41.643300
  H     57.424800   28.098600   42.055800
  H     50.317200   23.814400   42.828800

 Total Charge           Charge          ....    0
 Multiplicity           Mult            ....    1
 Number of Electrons    NEL             ....  134
 Basis Dimension        Dim             ....  322

ORBITAL ENERGIES
----------------

  NO   OCC          E(Eh)            E(eV)
   0   2.0000     -88.967615     -2420.9319
   1   2.0000     -88.959054     -2420.6989
   2   2.0000     -10.331566      -281.1362
   3   2.0000     -10.325469      -280.9703
   4   2.0000     -10.317154      -280.7440
   5   2.0000     -10.312432      -280.6155
   6   2.0000     -10.307722      -280.4874
   7   2.0000     -10.301934      -280.3299
   8   2.0000     -10.298886      -280.2469
   9   2.0000     -10.294604      -280.1304
  10   2.0000     -10.294263      -280.1211
  11   2.0000     -10.291704      -280.0515
  12   2.0000     -10.290776      -280.0262
  13   2.0000     -10.290677      -280.0236
  14   2.0000     -10.278878      -279.7025
  15   2.0000     -10.271466      -279.5008
  16   2.0000      -8.081608      -219.9117
  17   2.0000      -8.074506      -219.7185
  18   2.0000      -6.040295      -164.3648
  19   2.0000      -6.036324      -164.2567
  20   2.0000      -6.033023      -164.1669
  21   2.0000      -6.032094      -164.1416
  22   2.0000      -6.028780      -164.0515
  23   2.0000      -6.025324      -163.9574
  24   2.0000      -1.008545       -27.4439
  25   2.0000      -0.984947       -26.8018
  26   2.0000      -0.911859       -24.8129
  27   2.0000      -0.902114       -24.5478
  28   2.0000      -0.875456       -23.8224
  29   2.0000      -0.852823       -23.2065
  30   2.0000      -0.845940       -23.0192
  31   2.0000      -0.814639       -22.1675
  32   2.0000      -0.782606       -21.2958
  33   2.0000      -0.775206       -21.0944
  34   2.0000      -0.713614       -19.4184
  35   2.0000      -0.701868       -19.0988
  36   2.0000      -0.693840       -18.8804
  37   2.0000      -0.664056       -18.0699
  38   2.0000      -0.638315       -17.3694
  39   2.0000      -0.614493       -16.7212
  40   2.0000      -0.590154       -16.0589
  41   2.0000      -0.571585       -15.5536
  42   2.0000      -0.561729       -15.2854
  43   2.0000      -0.559075       -15.2132
  44   2.0000      -0.543624       -14.7928
  45   2.0000      -0.531729       -14.4691
  46   2.0000      -0.520059       -14.1515
  47   2.0000      -0.514945       -14.0124
  48   2.0000      -0.506915       -13.7939
  49   2.0000      -0.501679       -13.6514
  50   2.0000      -0.488835       -13.3019
  51   2.0000      -0.478554       -13.0221
  52   2.0000      -0.472942       -12.8694
  53   2.0000      -0.465115       -12.6564
  54   2.0000      -0.460098       -12.5199
  55   2.0000      -0.446547       -12.1512
  56   2.0000      -0.438956       -11.9446
  57   2.0000      -0.437631       -11.9085
  58   2.0000      -0.429941       -11.6993
  59   2.0000      -0.425444       -11.5769
  60   2.0000      -0.419602       -11.4179
  61   2.0000      -0.407670       -11.0933
  62   2.0000      -0.402650       -10.9567
  63   2.0000      -0.351581        -9.5670
  64   2.0000      -0.331202        -9.0125
  65   2.0000      -0.328423        -8.9369
  66   2.0000      -0.291963        -7.9447
  67   0.0000       0.022876         0.6225
  68   0.0000       0.064690         1.7603
  69   0.0000       0.112184         3.0527
  70   0.0000       0.123276         3.3545
  71   0.0000       0.128838         3.5059

MULLIKEN ATOMIC CHARGES
-----------------------
   0 S :    0.114214
   1 C :   -0.111672
   2 C :   -0.107363
   3 C :    0.022028
   4 C :   -0.138248
   5 H :    0.010355
   6 C :    0.115703
   7 H :    0.018335
   8 H :    0.024412
   9 C :   -0.091566
  10 H :    0.030658
  11 H :    0.014712
  12 C :   -0.064306
  13 H :    0.053984
  14 H :    0.032953
  15 H :    0.024112
  16 S :    0.081570
  17 C :   -0.085088
  18 C :   -0.051546
  19 C :   -0.024780
  20 C :   -0.146124
  21 H :    0.024243
  22 C :    0.001109
  23 H :    0.044511
  24 H :    0.032604
  25 C :   -0.075212
  26 H :    0.035327
  27 H :    0.030146
  28 C :    0.002744
  29 H :    0.022676
  30 H :    0.034948
  31 H :    0.010019
  32 H :    0.053416
  33 H :    0.061127
Sum of atomic charges:    0.0000000

LOEWDIN ATOMIC CHARGES
----------------------
   0 S :    0.387259
   1 C :   -0.196609
   2 C :   -0.063620
   3 C :   -0.051860
   4 C :   -0.182327
   5 H :    0.026135
   6 C :   -0.021418
   7 H :    0.018985
   8 H :    0.033422
   9 C :   -0.047237
  10 H :    0.029616
  11 H :    0.019295
  12 C :   -0.073533
  13 H :    0.029489
  14 H :    0.030252
  15 H :    0.026869
  16 S :    0.399395
  17 C :   -0.186642
  18 C :   -0.080879
  19 C :   -0.057036
  20 C :   -0.188410
  21 H :    0.034122
  22 C :   -0.041983
  23 H :    0.036071
  24 H :    0.034864
  25 C :   -0.043581
  26 H :    0.025620
  27 H :    0.025465
  28 C :   -0.054997
  29 H :    0.030211
  30 H :    0.029513
  31 H :    0.009785
  32 H :    0.032089
  33 H :    0.031672

  Mayer bond orders larger than 0.100000
B(  0-S ,  1-C ) :   1.1218 B(  0-S ,  4-C ) :   1.1262 B(  1-C ,  2-C ) :   1.6488
B(  1-C , 32-H ) :   0.9580 B(  2-C ,  3-C ) :   1.2207 B(  2-C ,  6-C ) :   1.0090
B(  3-C ,  4-C ) :   1.5752 B(  3-C ,  5-H ) :   0.9981 B(  4-C , 20-C ) :   1.0782
B(  6-C ,  7-H ) :   0.9331 B(  6-C ,  8-H ) :   0.9495 B(  6-C ,  9-C ) :   1.0657
B(  9-C , 10-H ) :   0.9588 B(  9-C , 11-H ) :   0.9514 B(  9-C , 12-C ) :   1.0812
B( 12-C , 13-H ) :   0.9739 B( 12-C , 14-H ) :   0.9726 B( 12-C , 15-H ) :   0.9719
B( 16-S , 17-C ) :   1.1689 B( 16-S , 20-C ) :   1.1201 B( 17-C , 18-C ) :   1.6037
B( 17-C , 20-C ) :   0.1013 B( 17-C , 33-H ) :   0.9685 B( 18-C , 19-C ) :   1.2284
B( 18-C , 21-H ) :   0.9915 B( 19-C , 20-C ) :   1.6099 B( 19-C , 22-C ) :   1.0312
B( 22-C , 23-H ) :   0.9401 B( 22-C , 24-H ) :   0.9362 B( 22-C , 25-C ) :   1.0607
B( 25-C , 26-H ) :   0.9618 B( 25-C , 27-H ) :   0.9606 B( 25-C , 28-C ) :   1.0651
B( 28-C , 29-H ) :   0.9792 B( 28-C , 30-H ) :   0.9783 B( 28-C , 31-H ) :   0.9784

Dispersion correction           -0.014256323
FINAL SINGLE POINT ENERGY     -1339.860183091530

DIPOLE MOMENT
-------------
                                X             Y             Z
Electronic contribution:    -23.38836      12.97951      -8.37706
Nuclear contribution   :     23.90185     -13.52444       8.47427
                        -----------------------------------------
Total Dipole Moment    :      0.51349      -0.54492       0.09721
                        -----------------------------------------
Magnitude (a.u.)       :      0.75503
Magnitude (Debye)      :      1.91913

Rotational constants in cm-1:     0.017735     0.009009     0.006684
Rotational constants in MHz :   531.675452   270.090656   200.388761

                             ****ORCA TERMINATED NORMALLY****
TOTAL RUN TIME: 0 days 0 hours 0 minutes 30 seconds 785 msec
