                         Program Version 4.2.1 -  RELEASE  -
|  1> ! wB97X-D3 SP def2-SVP
|  2> %pal
|  3> nprocs 16
|  4> end
|  5>
|  6> * xyz 0 1
|  7> S 	 18.0543 	 19.6376 	 38.8477
|  8> C 	 17.9715 	 19.5791 	 37.1211
|  9> C 	 16.7742 	 20.1059 	 36.571
| 10> C 	 15.7892 	 20.3386 	 37.5677
| 11> C 	 16.3873 	 20.2256 	 38.8189
| 12> H 	 14.6699 	 20.6211 	 37.4363
| 13> C 	 16.5261 	 20.286 	 35.1301
| 14> H 	 15.7617 	 19.6018 	 34.8918
| 15> H 	 17.4222 	 19.9288 	 34.6282
| 16> C 	 16.0792 	 21.772 	 34.8335
| 17> H 	 15.7017 	 21.9122 	 33.9084
| 18> H 	 15.2803 	 22.0679 	 35.505
| 19> C 	 17.2333 	 22.7376 	 35.1024
| 20> H 	 17.3984 	 22.688 	 36.163
| 21> H 	 18.2805 	 22.503 	 34.7343
| 22> H 	 17.1091 	 23.8805 	 34.7826
| 23> S 	 15.4851 	 19.0454 	 41.21
| 24> C 	 14.7173 	 20.1155 	 42.3339
| 25> C 	 14.6073 	 21.4468 	 41.8977
| 26> C 	 15.1211 	 21.5956 	 40.5842
| 27> C 	 15.6701 	 20.4003 	 40.0854
| 28> H 	 14.2157 	 22.3012 	 42.5556
| 29> C 	 15.0505 	 22.9227 	 39.9126
| 30> H 	 14.3893 	 23.6216 	 40.4271
| 31> H 	 14.7127 	 22.6554 	 38.9072
| 32> C 	 16.3615 	 23.6261 	 39.8867
| 33> H 	 17.1689 	 23.0788 	 39.3623
| 34> H 	 16.6426 	 23.8387 	 40.9382
| 35> C 	 16.2173 	 24.9107 	 39.1095
| 36> H 	 15.1538 	 25.2272 	 39.0144
| 37> H 	 16.517 	 24.6723 	 38.1242
| 38> H 	 16.7727 	 25.6276 	 39.6857
| 39> H 	 18.8868 	 19.3289 	 36.5348
| 40> H 	 14.5265 	 19.8953 	 43.3703
| 41> *
| 42>
| 43>                          ****END OF INPUT****

CARTESIAN COORDINATES (ANGSTROEM)
---------------------------------
  S     18.054300   19.637600   38.847700
  C     17.971500   19.579100   37.121100
  C     16.774200   20.105900   36.571000
  C     15.789200   20.338600   37.567700
  C     16.387300   20.225600   38.818900
  H     14.669900   20.621100   37.436300
  C     16.526100   20.286000   35.130100
  H     15.761700   19.601800   34.891800
  H     17.422200   19.928800   34.628200
  C     16.079200   21.772000   34.833500
  H     15.701700   21.912200   33.908400
  H     15.280300   22.067900   35.505000
  C     17.233300   22.737600   35.102400
  H     17.398400   22.688000   36.163000
  H     18.280500   22.503000   34.734300
  H     17.109100   23.880500   34.782600
  S     15.485100   19.045400   41.210000
  C     14.717300   20.115500   42.333900
  C     14.607300   21.446800   41.897700
  C     15.121100   21.595600   40.584200
  C     15.670100   20.400300   40.085400
  H     14.215700   22.301200   42.555600
  C     15.050500   22.922700   39.912600
  H     14.389300   23.621600   40.427100
  H     14.712700   22.655400   38.907200
  C     16.361500   23.626100   39.886700
  H     17.168900   23.078800   39.362300
  H     16.642600   23.838700   40.938200
  C     16.217300   24.910700   39.109500
  H     15.153800   25.227200   39.014400
  H     16.517000   24.672300   38.124200
  H     16.772700   25.627600   39.685700
  H     18.886800   19.328900   36.534800
  H     14.526500   19.895300   43.370300

 Total Charge           Charge          ....    0
 Multiplicity           Mult            ....    1
 Number of Electrons    NEL             ....  134
 Basis Dimension        Dim             ....  322

ORBITAL ENERGIES
----------------

  NO   OCC          E(Eh)            E(eV)
   0   2.0000     -88.971718     -2421.0435
   1   2.0000     -88.968970     -2420.9688
   2   2.0000     -10.329773      -281.0874
   3   2.0000     -10.321017      -280.8491
   4   2.0000     -10.316819      -280.7349
   5   2.0000     -10.313678      -280.6494
   6   2.0000     -10.304502      -280.3997
   7   2.0000     -10.302804      -280.3535
   8   2.0000     -10.297063      -280.1973
   9   2.0000     -10.296704      -280.1876
  10   2.0000     -10.290055      -280.0066
  11   2.0000     -10.287029      -279.9243
  12   2.0000     -10.286862      -279.9197
  13   2.0000     -10.284209      -279.8475
  14   2.0000     -10.276686      -279.6428
  15   2.0000     -10.267291      -279.3872
  16   2.0000      -8.086311      -220.0397
  17   2.0000      -8.083240      -219.9561
  18   2.0000      -6.044550      -164.4806
  19   2.0000      -6.041632      -164.4012
  20   2.0000      -6.041060      -164.3856
  21   2.0000      -6.037837      -164.2979
  22   2.0000      -6.037149      -164.2792
  23   2.0000      -6.034158      -164.1978
  24   2.0000      -1.003802       -27.3148
  25   2.0000      -0.981634       -26.7116
  26   2.0000      -0.920637       -25.0518
  27   2.0000      -0.916102       -24.9284
  28   2.0000      -0.860566       -23.4172
  29   2.0000      -0.855937       -23.2912
  30   2.0000      -0.850693       -23.1485
  31   2.0000      -0.809421       -22.0255
  32   2.0000      -0.781386       -21.2626
  33   2.0000      -0.762564       -20.7504
  34   2.0000      -0.712532       -19.3890
  35   2.0000      -0.693941       -18.8831
  36   2.0000      -0.682847       -18.5812
  37   2.0000      -0.656173       -17.8554
  38   2.0000      -0.636859       -17.3298
  39   2.0000      -0.618497       -16.8302
  40   2.0000      -0.594086       -16.1659
  41   2.0000      -0.580711       -15.8020
  42   2.0000      -0.565456       -15.3868
  43   2.0000      -0.544761       -14.8237
  44   2.0000      -0.540720       -14.7137
  45   2.0000      -0.529543       -14.4096
  46   2.0000      -0.512844       -13.9552
  47   2.0000      -0.509363       -13.8605
  48   2.0000      -0.498924       -13.5764
  49   2.0000      -0.487523       -13.2662
  50   2.0000      -0.486281       -13.2324
  51   2.0000      -0.479727       -13.0540
  52   2.0000      -0.470082       -12.7916
  53   2.0000      -0.460587       -12.5332
  54   2.0000      -0.457125       -12.4390
  55   2.0000      -0.453202       -12.3323
  56   2.0000      -0.444487       -12.0951
  57   2.0000      -0.439267       -11.9531
  58   2.0000      -0.434091       -11.8122
  59   2.0000      -0.428940       -11.6721
  60   2.0000      -0.422493       -11.4966
  61   2.0000      -0.417964       -11.3734
  62   2.0000      -0.407667       -11.0932
  63   2.0000      -0.343063        -9.3352
  64   2.0000      -0.331296        -9.0150
  65   2.0000      -0.321844        -8.7578
  66   2.0000      -0.289495        -7.8776
  67   0.0000       0.030884         0.8404
  68   0.0000       0.063362         1.7242
  69   0.0000       0.108164         2.9433
  70   0.0000       0.115942         3.1549
  71   0.0000       0.122538         3.3344

MULLIKEN ATOMIC CHARGES
-----------------------
   0 S :    0.131761
   1 C :   -0.141263
   2 C :   -0.129626
   3 C :   -0.002821
   4 C :   -0.191044
   5 H :    0.071772
   6 C :    0.111481
   7 H :    0.027484
   8 H :    0.016444
   9 C :    0.002780
  10 H :    0.005532
  11 H :    0.023525
  12 C :   -0.123004
  13 H :    0.037542
  14 H :    0.032838
  15 H :    0.053237
  16 S :    0.129467
  17 C :   -0.089965
  18 C :   -0.075623
  19 C :   -0.026607
  20 C :   -0.183642
  21 H :    0.047198
  22 C :    0.099388
  23 H :    0.018320
  24 H :    0.009695
  25 C :   -0.121176
  26 H :    0.044203
  27 H :    0.025102
  28 C :    0.001081
  29 H :    0.021222
  30 H :    0.026841
  31 H :    0.034139
  32 H :    0.062953
  33 H :    0.050765
Sum of atomic charges:    0.0000000

LOEWDIN ATOMIC CHARGES
----------------------
   0 S :    0.412890
   1 C :   -0.220271
   2 C :   -0.062799
   3 C :   -0.069879
   4 C :   -0.187073
   5 H :    0.055689
   6 C :   -0.022477
   7 H :    0.029578
   8 H :    0.031302
   9 C :   -0.023903
  10 H :    0.006923
  11 H :    0.027086
  12 C :   -0.084427
  13 H :    0.020985
  14 H :    0.028056
  15 H :    0.038019
  16 S :    0.412703
  17 C :   -0.196509
  18 C :   -0.081995
  19 C :   -0.050023
  20 C :   -0.213454
  21 H :    0.045447
  22 C :   -0.033556
  23 H :    0.031120
  24 H :    0.028681
  25 C :   -0.041253
  26 H :    0.027288
  27 H :    0.022615
  28 C :   -0.059447
  29 H :    0.024030
  30 H :    0.022179
  31 H :    0.027027
  32 H :    0.030432
  33 H :    0.025015

  Mayer bond orders larger than 0.100000
B(  0-S ,  1-C ) :   1.1391 B(  0-S ,  4-C ) :   1.1624 B(  1-C ,  2-C ) :   1.5958
B(  1-C , 32-H ) :   0.9581 B(  2-C ,  3-C ) :   1.2262 B(  2-C ,  6-C ) :   1.0305
B(  3-C ,  4-C ) :   1.5915 B(  3-C ,  5-H ) :   0.9661 B(  4-C , 20-C ) :   1.0353
B(  6-C ,  7-H ) :   0.9314 B(  6-C ,  8-H ) :   0.9412 B(  6-C ,  9-C ) :   1.0578
B(  9-C , 10-H ) :   0.9611 B(  9-C , 11-H ) :   0.9559 B(  9-C , 12-C ) :   1.0486
B( 12-C , 13-H ) :   0.9733 B( 12-C , 14-H ) :   0.9744 B( 12-C , 15-H ) :   0.9751
B( 16-S , 17-C ) :   1.1708 B( 16-S , 20-C ) :   1.1392 B( 17-C , 18-C ) :   1.5919
B( 17-C , 20-C ) :   0.1011 B( 17-C , 33-H ) :   0.9627 B( 18-C , 19-C ) :   1.2795
B( 18-C , 21-H ) :   0.9726 B( 19-C , 20-C ) :   1.5720 B( 19-C , 22-C ) :   1.0368
B( 22-C , 23-H ) :   0.9302 B( 22-C , 24-H ) :   0.9164 B( 22-C , 25-C ) :   1.0881
B( 25-C , 26-H ) :   0.9567 B( 25-C , 27-H ) :   0.9583 B( 25-C , 28-C ) :   1.0660
B( 28-C , 29-H ) :   0.9695 B( 28-C , 30-H ) :   0.9786 B( 28-C , 31-H ) :   0.9751

Dispersion correction           -0.016032631
FINAL SINGLE POINT ENERGY     -1339.854075001089

DIPOLE MOMENT
-------------
                                X             Y             Z
Electronic contribution:      1.37595     -24.08625      16.82592
Nuclear contribution   :     -1.49803      24.50196     -17.11187
                        -----------------------------------------
Total Dipole Moment    :     -0.12209       0.41571      -0.28595
                        -----------------------------------------
Magnitude (a.u.)       :      0.51912
Magnitude (Debye)      :      1.31951

Rotational constants in cm-1:     0.018809     0.010378     0.007783
Rotational constants in MHz :   563.877199   311.128134   233.318330

                             ****ORCA TERMINATED NORMALLY****
TOTAL RUN TIME: 0 days 0 hours 0 minutes 37 seconds 631 msec
