                         Program Version 4.2.1 -  RELEASE  -
|  1> ! wB97X-D3 SP def2-SVP
|  2> %pal
|  3> nprocs 16
|  4> end
|  5>
|  6> * xyz 0 1
|  7> S 	 -1.31974 	 -13.0813 	 83.8432
|  8> C 	 0.299231 	 -12.4599 	 83.8704
|  9> C 	 0.973029 	 -12.9953 	 84.9385
| 10> C 	 0.15358 	 -13.5451 	 85.9412
| 11> C 	 -1.11743 	 -13.731 	 85.4747
| 12> H 	 0.271011 	 -13.8493 	 86.9304
| 13> C 	 2.45572 	 -12.9457 	 84.9846
| 14> H 	 2.97321 	 -12.6474 	 84.0282
| 15> H 	 2.849 	 -13.8934 	 85.258
| 16> C 	 3.11041 	 -11.9265 	 85.9745
| 17> H 	 2.74908 	 -12.1547 	 87.0147
| 18> H 	 4.18224 	 -11.9844 	 85.9884
| 19> C 	 2.69147 	 -10.5506 	 85.6893
| 20> H 	 3.00349 	 -10.2976 	 84.6781
| 21> H 	 1.67129 	 -10.3834 	 85.7728
| 22> H 	 3.28287 	 -9.8295 	 86.2432
| 23> S 	 -3.10211 	 -15.6016 	 85.3255
| 24> C 	 -4.21927 	 -15.7786 	 86.6984
| 25> C 	 -3.96595 	 -14.8541 	 87.6407
| 26> C 	 -2.79681 	 -14.0756 	 87.4362
| 27> C 	 -2.2715 	 -14.3566 	 86.1819
| 28> H 	 -4.57916 	 -14.7943 	 88.5294
| 29> C 	 -2.3743 	 -12.9167 	 88.3473
| 30> H 	 -1.46024 	 -13.1403 	 88.7493
| 31> H 	 -3.04136 	 -12.9401 	 89.2527
| 32> C 	 -2.50167 	 -11.5066 	 87.8172
| 33> H 	 -1.68374 	 -11.3956 	 87.1001
| 34> H 	 -2.29587 	 -10.7397 	 88.6022
| 35> C 	 -3.76554 	 -11.046 	 87.0765
| 36> H 	 -4.2667 	 -11.7553 	 86.3364
| 37> H 	 -3.57634 	 -10.079 	 86.7006
| 38> H 	 -4.65634 	 -10.8664 	 87.64
| 39> H 	 0.876235 	 -12.1258 	 83.0222
| 40> H 	 -5.16629 	 -16.2817 	 86.642
| 41> *
| 42>
| 43>                          ****END OF INPUT****

CARTESIAN COORDINATES (ANGSTROEM)
---------------------------------
  S     -1.319740  -13.081300   83.843200
  C      0.299231  -12.459900   83.870400
  C      0.973029  -12.995300   84.938500
  C      0.153580  -13.545100   85.941200
  C     -1.117430  -13.731000   85.474700
  H      0.271011  -13.849300   86.930400
  C      2.455720  -12.945700   84.984600
  H      2.973210  -12.647400   84.028200
  H      2.849000  -13.893400   85.258000
  C      3.110410  -11.926500   85.974500
  H      2.749080  -12.154700   87.014700
  H      4.182240  -11.984400   85.988400
  C      2.691470  -10.550600   85.689300
  H      3.003490  -10.297600   84.678100
  H      1.671290  -10.383400   85.772800
  H      3.282870   -9.829500   86.243200
  S     -3.102110  -15.601600   85.325500
  C     -4.219270  -15.778600   86.698400
  C     -3.965950  -14.854100   87.640700
  C     -2.796810  -14.075600   87.436200
  C     -2.271500  -14.356600   86.181900
  H     -4.579160  -14.794300   88.529400
  C     -2.374300  -12.916700   88.347300
  H     -1.460240  -13.140300   88.749300
  H     -3.041360  -12.940100   89.252700
  C     -2.501670  -11.506600   87.817200
  H     -1.683740  -11.395600   87.100100
  H     -2.295870  -10.739700   88.602200
  C     -3.765540  -11.046000   87.076500
  H     -4.266700  -11.755300   86.336400
  H     -3.576340  -10.079000   86.700600
  H     -4.656340  -10.866400   87.640000
  H      0.876235  -12.125800   83.022200
  H     -5.166290  -16.281700   86.642000

 Total Charge           Charge          ....    0
 Multiplicity           Mult            ....    1
 Number of Electrons    NEL             ....  134
 Basis Dimension        Dim             ....  322

ORBITAL ENERGIES
----------------

  NO   OCC          E(Eh)            E(eV)
   0   2.0000     -88.967529     -2420.9295
   1   2.0000     -88.965915     -2420.8856
   2   2.0000     -10.331123      -281.1242
   3   2.0000     -10.328169      -281.0438
   4   2.0000     -10.312486      -280.6170
   5   2.0000     -10.308851      -280.5181
   6   2.0000     -10.302933      -280.3571
   7   2.0000     -10.300488      -280.2905
   8   2.0000     -10.291019      -280.0329
   9   2.0000     -10.290625      -280.0221
  10   2.0000     -10.290546      -280.0200
  11   2.0000     -10.289647      -279.9955
  12   2.0000     -10.287380      -279.9338
  13   2.0000     -10.282412      -279.7987
  14   2.0000     -10.271136      -279.4918
  15   2.0000     -10.261745      -279.2363
  16   2.0000      -8.082359      -219.9322
  17   2.0000      -8.080630      -219.8851
  18   2.0000      -6.040817      -164.3790
  19   2.0000      -6.039114      -164.3326
  20   2.0000      -6.036893      -164.2722
  21   2.0000      -6.035243      -164.2273
  22   2.0000      -6.033123      -164.1696
  23   2.0000      -6.031298      -164.1199
  24   2.0000      -1.012188       -27.5430
  25   2.0000      -0.991168       -26.9711
  26   2.0000      -0.916546       -24.9405
  27   2.0000      -0.907649       -24.6984
  28   2.0000      -0.873060       -23.7572
  29   2.0000      -0.855133       -23.2693
  30   2.0000      -0.847022       -23.0486
  31   2.0000      -0.823384       -22.4054
  32   2.0000      -0.789164       -21.4743
  33   2.0000      -0.775821       -21.1112
  34   2.0000      -0.710639       -19.3375
  35   2.0000      -0.694273       -18.8921
  36   2.0000      -0.688975       -18.7480
  37   2.0000      -0.663083       -18.0434
  38   2.0000      -0.648914       -17.6578
  39   2.0000      -0.620521       -16.8852
  40   2.0000      -0.595373       -16.2009
  41   2.0000      -0.572818       -15.5872
  42   2.0000      -0.558159       -15.1883
  43   2.0000      -0.552783       -15.0420
  44   2.0000      -0.552029       -15.0215
  45   2.0000      -0.545733       -14.8502
  46   2.0000      -0.514454       -13.9990
  47   2.0000      -0.505694       -13.7606
  48   2.0000      -0.504910       -13.7393
  49   2.0000      -0.499313       -13.5870
  50   2.0000      -0.485913       -13.2224
  51   2.0000      -0.479775       -13.0554
  52   2.0000      -0.471118       -12.8198
  53   2.0000      -0.464343       -12.6354
  54   2.0000      -0.460838       -12.5400
  55   2.0000      -0.453612       -12.3434
  56   2.0000      -0.448743       -12.2109
  57   2.0000      -0.437663       -11.9094
  58   2.0000      -0.433458       -11.7950
  59   2.0000      -0.423830       -11.5330
  60   2.0000      -0.422372       -11.4933
  61   2.0000      -0.407514       -11.0890
  62   2.0000      -0.397711       -10.8223
  63   2.0000      -0.350557        -9.5391
  64   2.0000      -0.336553        -9.1581
  65   2.0000      -0.329251        -8.9594
  66   2.0000      -0.295949        -8.0532
  67   0.0000       0.030356         0.8260
  68   0.0000       0.067320         1.8319
  69   0.0000       0.107183         2.9166
  70   0.0000       0.121742         3.3128
  71   0.0000       0.130715         3.5569

MULLIKEN ATOMIC CHARGES
-----------------------
   0 S :    0.108659
   1 C :   -0.091016
   2 C :   -0.079706
   3 C :    0.061822
   4 C :   -0.160502
   5 H :   -0.013426
   6 C :    0.057029
   7 H :    0.023680
   8 H :    0.023487
   9 C :   -0.087387
  10 H :    0.022034
  11 H :    0.026440
  12 C :   -0.006737
  13 H :   -0.001556
  14 H :    0.032871
  15 H :    0.021399
  16 S :    0.108041
  17 C :   -0.076410
  18 C :   -0.039865
  19 C :   -0.049971
  20 C :   -0.176403
  21 H :    0.017497
  22 C :    0.125942
  23 H :    0.006092
  24 H :    0.011617
  25 C :   -0.075016
  26 H :    0.037797
  27 H :    0.035128
  28 C :   -0.044344
  29 H :    0.047307
  30 H :    0.023958
  31 H :    0.006442
  32 H :    0.049687
  33 H :    0.055410
Sum of atomic charges:    0.0000000

LOEWDIN ATOMIC CHARGES
----------------------
   0 S :    0.401063
   1 C :   -0.204311
   2 C :   -0.059289
   3 C :   -0.056957
   4 C :   -0.174808
   5 H :    0.026678
   6 C :   -0.030294
   7 H :    0.032870
   8 H :    0.026608
   9 C :   -0.040609
  10 H :    0.021201
  11 H :    0.021258
  12 C :   -0.061385
  13 H :    0.019854
  14 H :    0.016734
  15 H :    0.026584
  16 S :    0.405674
  17 C :   -0.182026
  18 C :   -0.064222
  19 C :   -0.062115
  20 C :   -0.199389
  21 H :    0.032430
  22 C :   -0.027224
  23 H :    0.018463
  24 H :    0.034235
  25 C :   -0.043024
  26 H :    0.025701
  27 H :    0.032865
  28 C :   -0.074639
  29 H :    0.037867
  30 H :    0.024407
  31 H :    0.017453
  32 H :    0.029135
  33 H :    0.029212

  Mayer bond orders larger than 0.100000
B(  0-S ,  1-C ) :   1.1259 B(  0-S ,  4-C ) :   1.1541 B(  1-C ,  2-C ) :   1.6256
B(  1-C , 32-H ) :   0.9621 B(  2-C ,  3-C ) :   1.1815 B(  2-C ,  6-C ) :   1.0400
B(  3-C ,  4-C ) :   1.6066 B(  3-C ,  5-H ) :   1.0105 B(  4-C , 20-C ) :   1.0069
B(  6-C ,  7-H ) :   0.9465 B(  6-C ,  8-H ) :   0.9364 B(  6-C ,  9-C ) :   1.0668
B(  9-C , 10-H ) :   0.9531 B(  9-C , 11-H ) :   0.9564 B(  9-C , 12-C ) :   1.0907
B( 12-C , 13-H ) :   0.9659 B( 12-C , 14-H ) :   0.9731 B( 12-C , 15-H ) :   0.9670
B( 16-S , 17-C ) :   1.1236 B( 16-S , 20-C ) :   1.1691 B( 17-C , 18-C ) :   1.6459
B( 17-C , 33-H ) :   0.9620 B( 18-C , 19-C ) :   1.2498 B( 18-C , 21-H ) :   0.9811
B( 19-C , 20-C ) :   1.5853 B( 19-C , 22-C ) :   1.0320 B( 22-C , 23-H ) :   0.9241
B( 22-C , 24-H ) :   0.9317 B( 22-C , 25-C ) :   1.0748 B( 25-C , 26-H ) :   0.9530
B( 25-C , 27-H ) :   0.9516 B( 25-C , 28-C ) :   1.0777 B( 28-C , 29-H ) :   0.9703
B( 28-C , 30-H ) :   0.9717 B( 28-C , 31-H ) :   0.9715

Dispersion correction           -0.015784522
FINAL SINGLE POINT ENERGY     -1339.860942295668

DIPOLE MOMENT
-------------
                                X             Y             Z
Electronic contribution:    -12.47614     -19.09014     -11.59068
Nuclear contribution   :     12.69573      19.33286      12.02554
                        -----------------------------------------
Total Dipole Moment    :      0.21958       0.24272       0.43486
                        -----------------------------------------
Magnitude (a.u.)       :      0.54427
Magnitude (Debye)      :      1.38343

Rotational constants in cm-1:     0.021909     0.008957     0.007691
Rotational constants in MHz :   656.828645   268.536536   230.576149

                             ****ORCA TERMINATED NORMALLY****
TOTAL RUN TIME: 0 days 0 hours 0 minutes 36 seconds 510 msec
