                         Program Version 4.2.1 -  RELEASE  -
|  1> ! wB97X-D3 SP def2-SVP
|  2> %pal
|  3> nprocs 16
|  4> end
|  5>
|  6> * xyz 0 1
|  7> S 	 9.07435 	 -3.22235 	 87.5157
|  8> C 	 9.14795 	 -1.91884 	 88.5638
|  9> C 	 8.08437 	 -1.07913 	 88.3883
| 10> C 	 7.52608 	 -1.25569 	 87.1106
| 11> C 	 7.93892 	 -2.36227 	 86.4874
| 12> H 	 6.73132 	 -0.644508 	 86.6203
| 13> C 	 7.70809 	 0.196314 	 89.1043
| 14> H 	 8.22872 	 1.0114 	 88.4829
| 15> H 	 8.23834 	 0.127233 	 90.0407
| 16> C 	 6.21921 	 0.501147 	 89.4211
| 17> H 	 6.22105 	 1.58074 	 89.8426
| 18> H 	 5.63029 	 0.635263 	 88.4962
| 19> C 	 5.54054 	 -0.424583 	 90.3596
| 20> H 	 5.74583 	 -1.36414 	 89.9442
| 21> H 	 5.87596 	 -0.429983 	 91.3919
| 22> H 	 4.38615 	 -0.431229 	 90.2873
| 23> S 	 8.14458 	 -2.86612 	 83.8144
| 24> C 	 6.97108 	 -3.86001 	 83.0477
| 25> C 	 5.89957 	 -4.17744 	 83.8752
| 26> C 	 6.17367 	 -3.756 	 85.2184
| 27> C 	 7.31431 	 -3.03347 	 85.3566
| 28> H 	 5.12556 	 -4.72706 	 83.4753
| 29> C 	 5.2012 	 -4.04504 	 86.328
| 30> H 	 4.20885 	 -4.0859 	 85.9179
| 31> H 	 5.22803 	 -3.15643 	 86.9474
| 32> C 	 5.26299 	 -5.30251 	 87.232
| 33> H 	 4.53873 	 -5.16876 	 88.013
| 34> H 	 6.14357 	 -5.2501 	 87.8433
| 35> C 	 5.00548 	 -6.63099 	 86.6094
| 36> H 	 4.0494 	 -6.61738 	 86.2123
| 37> H 	 5.03149 	 -7.53419 	 87.2794
| 38> H 	 5.763 	 -6.86815 	 85.8437
| 39> H 	 9.85806 	 -2.00746 	 89.3939
| 40> H 	 6.90601 	 -4.03973 	 82.0077
| 41> *
| 42>
| 43>                          ****END OF INPUT****

CARTESIAN COORDINATES (ANGSTROEM)
---------------------------------
  S      9.074350   -3.222350   87.515700
  C      9.147950   -1.918840   88.563800
  C      8.084370   -1.079130   88.388300
  C      7.526080   -1.255690   87.110600
  C      7.938920   -2.362270   86.487400
  H      6.731320   -0.644508   86.620300
  C      7.708090    0.196314   89.104300
  H      8.228720    1.011400   88.482900
  H      8.238340    0.127233   90.040700
  C      6.219210    0.501147   89.421100
  H      6.221050    1.580740   89.842600
  H      5.630290    0.635263   88.496200
  C      5.540540   -0.424583   90.359600
  H      5.745830   -1.364140   89.944200
  H      5.875960   -0.429983   91.391900
  H      4.386150   -0.431229   90.287300
  S      8.144580   -2.866120   83.814400
  C      6.971080   -3.860010   83.047700
  C      5.899570   -4.177440   83.875200
  C      6.173670   -3.756000   85.218400
  C      7.314310   -3.033470   85.356600
  H      5.125560   -4.727060   83.475300
  C      5.201200   -4.045040   86.328000
  H      4.208850   -4.085900   85.917900
  H      5.228030   -3.156430   86.947400
  C      5.262990   -5.302510   87.232000
  H      4.538730   -5.168760   88.013000
  H      6.143570   -5.250100   87.843300
  C      5.005480   -6.630990   86.609400
  H      4.049400   -6.617380   86.212300
  H      5.031490   -7.534190   87.279400
  H      5.763000   -6.868150   85.843700
  H      9.858060   -2.007460   89.393900
  H      6.906010   -4.039730   82.007700

 Total Charge           Charge          ....    0
 Multiplicity           Mult            ....    1
 Number of Electrons    NEL             ....  134
 Basis Dimension        Dim             ....  322

ORBITAL ENERGIES
----------------

  NO   OCC          E(Eh)            E(eV)
   0   2.0000     -88.961513     -2420.7658
   1   2.0000     -88.959548     -2420.7124
   2   2.0000     -10.318706      -280.7863
   3   2.0000     -10.318418      -280.7784
   4   2.0000     -10.312063      -280.6055
   5   2.0000     -10.310605      -280.5658
   6   2.0000     -10.299650      -280.2677
   7   2.0000     -10.296856      -280.1917
   8   2.0000     -10.296816      -280.1906
   9   2.0000     -10.296321      -280.1771
  10   2.0000     -10.288965      -279.9770
  11   2.0000     -10.286715      -279.9158
  12   2.0000     -10.284619      -279.8587
  13   2.0000     -10.278336      -279.6877
  14   2.0000     -10.277147      -279.6554
  15   2.0000     -10.271674      -279.5064
  16   2.0000      -8.076896      -219.7835
  17   2.0000      -8.076283      -219.7668
  18   2.0000      -6.035253      -164.2276
  19   2.0000      -6.034511      -164.2074
  20   2.0000      -6.031306      -164.1202
  21   2.0000      -6.030619      -164.1015
  22   2.0000      -6.027792      -164.0246
  23   2.0000      -6.027083      -164.0053
  24   2.0000      -1.018179       -27.7061
  25   2.0000      -0.992654       -27.0115
  26   2.0000      -0.913118       -24.8472
  27   2.0000      -0.908517       -24.7220
  28   2.0000      -0.875093       -23.8125
  29   2.0000      -0.856720       -23.3125
  30   2.0000      -0.853397       -23.2221
  31   2.0000      -0.818903       -22.2835
  32   2.0000      -0.785274       -21.3684
  33   2.0000      -0.772672       -21.0255
  34   2.0000      -0.709871       -19.3166
  35   2.0000      -0.697685       -18.9850
  36   2.0000      -0.688646       -18.7390
  37   2.0000      -0.666861       -18.1462
  38   2.0000      -0.648920       -17.6580
  39   2.0000      -0.624477       -16.9929
  40   2.0000      -0.589494       -16.0409
  41   2.0000      -0.568555       -15.4712
  42   2.0000      -0.554820       -15.0974
  43   2.0000      -0.551259       -15.0005
  44   2.0000      -0.545905       -14.8548
  45   2.0000      -0.538047       -14.6410
  46   2.0000      -0.520925       -14.1751
  47   2.0000      -0.518742       -14.1157
  48   2.0000      -0.504935       -13.7400
  49   2.0000      -0.493708       -13.4345
  50   2.0000      -0.485365       -13.2075
  51   2.0000      -0.480458       -13.0739
  52   2.0000      -0.476556       -12.9678
  53   2.0000      -0.472726       -12.8635
  54   2.0000      -0.459513       -12.5040
  55   2.0000      -0.448329       -12.1996
  56   2.0000      -0.443135       -12.0583
  57   2.0000      -0.436957       -11.8902
  58   2.0000      -0.434925       -11.8349
  59   2.0000      -0.421829       -11.4785
  60   2.0000      -0.418892       -11.3986
  61   2.0000      -0.408213       -11.1080
  62   2.0000      -0.406564       -11.0632
  63   2.0000      -0.337975        -9.1968
  64   2.0000      -0.329416        -8.9639
  65   2.0000      -0.318826        -8.6757
  66   2.0000      -0.312524        -8.5042
  67   0.0000       0.045409         1.2357
  68   0.0000       0.059009         1.6057
  69   0.0000       0.111024         3.0211
  70   0.0000       0.120015         3.2658
  71   0.0000       0.126792         3.4502

MULLIKEN ATOMIC CHARGES
-----------------------
   0 S :    0.115285
   1 C :   -0.120211
   2 C :   -0.086059
   3 C :    0.017216
   4 C :   -0.145907
   5 H :    0.031132
   6 C :    0.031716
   7 H :    0.062433
   8 H :    0.009838
   9 C :   -0.085380
  10 H :    0.036365
  11 H :    0.030267
  12 C :   -0.033705
  13 H :    0.013970
  14 H :    0.040090
  15 H :    0.043780
  16 S :    0.112182
  17 C :   -0.071307
  18 C :   -0.026278
  19 C :   -0.003533
  20 C :   -0.202070
  21 H :   -0.009350
  22 C :    0.079312
  23 H :    0.004338
  24 H :    0.014808
  25 C :   -0.024154
  26 H :    0.010714
  27 H :    0.009373
  28 C :   -0.037004
  29 H :    0.009304
  30 H :    0.036109
  31 H :    0.038462
  32 H :    0.057018
  33 H :    0.041244
Sum of atomic charges:   -0.0000000

LOEWDIN ATOMIC CHARGES
----------------------
   0 S :    0.429687
   1 C :   -0.207736
   2 C :   -0.082061
   3 C :   -0.059492
   4 C :   -0.201966
   5 H :    0.041649
   6 C :   -0.038511
   7 H :    0.049054
   8 H :    0.023632
   9 C :   -0.050003
  10 H :    0.032635
  11 H :    0.024405
  12 C :   -0.072646
  13 H :    0.019821
  14 H :    0.027237
  15 H :    0.041059
  16 S :    0.415677
  17 C :   -0.182374
  18 C :   -0.063563
  19 C :   -0.052355
  20 C :   -0.204648
  21 H :    0.019235
  22 C :   -0.028743
  23 H :    0.025940
  24 H :    0.031847
  25 C :   -0.039752
  26 H :    0.024031
  27 H :    0.017454
  28 C :   -0.066059
  29 H :    0.013532
  30 H :    0.034627
  31 H :    0.028908
  32 H :    0.029088
  33 H :    0.020392

  Mayer bond orders larger than 0.100000
B(  0-S ,  1-C ) :   1.1738 B(  0-S ,  4-C ) :   1.1501 B(  1-C ,  2-C ) :   1.5806
B(  1-C , 32-H ) :   0.9697 B(  2-C ,  3-C ) :   1.2157 B(  2-C ,  6-C ) :   1.0269
B(  3-C ,  4-C ) :   1.6214 B(  3-C ,  5-H ) :   0.9922 B(  4-C , 20-C ) :   0.9953
B(  6-C ,  7-H ) :   0.9443 B(  6-C ,  8-H ) :   0.9390 B(  6-C ,  9-C ) :   1.0656
B(  9-C , 10-H ) :   0.9518 B(  9-C , 11-H ) :   0.9547 B(  9-C , 12-C ) :   1.0723
B( 12-C , 13-H ) :   0.9710 B( 12-C , 14-H ) :   0.9723 B( 12-C , 15-H ) :   0.9696
B( 16-S , 17-C ) :   1.1727 B( 16-S , 20-C ) :   1.1363 B( 17-C , 18-C ) :   1.6170
B( 17-C , 33-H ) :   0.9665 B( 18-C , 19-C ) :   1.2105 B( 18-C , 21-H ) :   1.0067
B( 19-C , 20-C ) :   1.6409 B( 19-C , 22-C ) :   1.0394 B( 22-C , 23-H ) :   0.9321
B( 22-C , 24-H ) :   0.9233 B( 22-C , 25-C ) :   1.0856 B( 25-C , 26-H ) :   0.9459
B( 25-C , 27-H ) :   0.9488 B( 25-C , 28-C ) :   1.0808 B( 28-C , 29-H ) :   0.9717
B( 28-C , 30-H ) :   0.9702 B( 28-C , 31-H ) :   0.9757

Dispersion correction           -0.015070731
FINAL SINGLE POINT ENERGY     -1339.859518414564

DIPOLE MOMENT
-------------
                                X             Y             Z
Electronic contribution:     19.00891      -0.54841     -16.72043
Nuclear contribution   :    -19.54042       0.65502      17.03438
                        -----------------------------------------
Total Dipole Moment    :     -0.53150       0.10661       0.31395
                        -----------------------------------------
Magnitude (a.u.)       :      0.62644
Magnitude (Debye)      :      1.59228

Rotational constants in cm-1:     0.018359     0.009174     0.007731
Rotational constants in MHz :   550.387639   275.014858   231.761483

                             ****ORCA TERMINATED NORMALLY****
TOTAL RUN TIME: 0 days 0 hours 0 minutes 34 seconds 916 msec
