                         Program Version 4.2.1 -  RELEASE  -
|  1> ! wB97X-D3 SP def2-SVP
|  2> %pal
|  3> nprocs 16
|  4> end
|  5>
|  6> * xyz 0 1
|  7> S 	 -38.1944 	 48.4803 	 106.547
|  8> C 	 -37.392 	 48.8667 	 108.112
|  9> C 	 -37.9518 	 50.0717 	 108.587
| 10> C 	 -39.0148 	 50.548 	 107.76
| 11> C 	 -39.3428 	 49.7891 	 106.634
| 12> H 	 -39.5477 	 51.5306 	 107.944
| 13> C 	 -37.5882 	 50.5995 	 110.003
| 14> H 	 -37.4457 	 51.7132 	 109.995
| 15> H 	 -36.5529 	 50.2105 	 110.133
| 16> C 	 -38.4731 	 50.1483 	 111.183
| 17> H 	 -38.8527 	 49.1202 	 111.095
| 18> H 	 -37.8579 	 50.1598 	 112.054
| 19> C 	 -39.7895 	 50.811 	 111.302
| 20> H 	 -39.6453 	 51.7183 	 111.873
| 21> H 	 -40.1276 	 51.0131 	 110.361
| 22> H 	 -40.5839 	 50.2257 	 111.744
| 23> S 	 -41.7654 	 51.041 	 106.336
| 24> C 	 -42.7517 	 50.6663 	 104.931
| 25> C 	 -42.2108 	 49.688 	 104.174
| 26> C 	 -41.0202 	 49.1937 	 104.699
| 27> C 	 -40.5385 	 49.8426 	 105.829
| 28> H 	 -42.7405 	 49.4388 	 103.204
| 29> C 	 -40.2658 	 48.06 	 104.044
| 30> H 	 -39.2156 	 48.3102 	 104.039
| 31> H 	 -40.3701 	 48.0573 	 102.947
| 32> C 	 -40.4658 	 46.7426 	 104.634
| 33> H 	 -41.5587 	 46.4599 	 104.822
| 34> H 	 -40.0275 	 46.8115 	 105.578
| 35> C 	 -39.8011 	 45.5731 	 103.92
| 36> H 	 -39.9643 	 44.648 	 104.45
| 37> H 	 -38.7491 	 45.6734 	 103.919
| 38> H 	 -40.1969 	 45.3526 	 102.921
| 39> H 	 -36.6657 	 48.2656 	 108.613
| 40> H 	 -43.6189 	 51.1872 	 104.561
| 41> *
| 42>
| 43>                          ****END OF INPUT****

CARTESIAN COORDINATES (ANGSTROEM)
---------------------------------
  S    -38.194400   48.480300  106.547000
  C    -37.392000   48.866700  108.112000
  C    -37.951800   50.071700  108.587000
  C    -39.014800   50.548000  107.760000
  C    -39.342800   49.789100  106.634000
  H    -39.547700   51.530600  107.944000
  C    -37.588200   50.599500  110.003000
  H    -37.445700   51.713200  109.995000
  H    -36.552900   50.210500  110.133000
  C    -38.473100   50.148300  111.183000
  H    -38.852700   49.120200  111.095000
  H    -37.857900   50.159800  112.054000
  C    -39.789500   50.811000  111.302000
  H    -39.645300   51.718300  111.873000
  H    -40.127600   51.013100  110.361000
  H    -40.583900   50.225700  111.744000
  S    -41.765400   51.041000  106.336000
  C    -42.751700   50.666300  104.931000
  C    -42.210800   49.688000  104.174000
  C    -41.020200   49.193700  104.699000
  C    -40.538500   49.842600  105.829000
  H    -42.740500   49.438800  103.204000
  C    -40.265800   48.060000  104.044000
  H    -39.215600   48.310200  104.039000
  H    -40.370100   48.057300  102.947000
  C    -40.465800   46.742600  104.634000
  H    -41.558700   46.459900  104.822000
  H    -40.027500   46.811500  105.578000
  C    -39.801100   45.573100  103.920000
  H    -39.964300   44.648000  104.450000
  H    -38.749100   45.673400  103.919000
  H    -40.196900   45.352600  102.921000
  H    -36.665700   48.265600  108.613000
  H    -43.618900   51.187200  104.561000

 Total Charge           Charge          ....    0
 Multiplicity           Mult            ....    1
 Number of Electrons    NEL             ....  134
 Basis Dimension        Dim             ....  322

ORBITAL ENERGIES
----------------

  NO   OCC          E(Eh)            E(eV)
   0   2.0000     -88.970442     -2421.0088
   1   2.0000     -88.967777     -2420.9363
   2   2.0000     -10.339151      -281.3426
   3   2.0000     -10.334852      -281.2256
   4   2.0000     -10.322495      -280.8894
   5   2.0000     -10.315561      -280.7007
   6   2.0000     -10.311315      -280.5852
   7   2.0000     -10.304188      -280.3912
   8   2.0000     -10.303058      -280.3605
   9   2.0000     -10.302843      -280.3546
  10   2.0000     -10.294146      -280.1179
  11   2.0000     -10.282659      -279.8054
  12   2.0000     -10.279904      -279.7304
  13   2.0000     -10.274164      -279.5742
  14   2.0000     -10.268528      -279.4209
  15   2.0000     -10.261770      -279.2370
  16   2.0000      -8.083593      -219.9657
  17   2.0000      -8.081705      -219.9144
  18   2.0000      -6.042239      -164.4177
  19   2.0000      -6.040343      -164.3661
  20   2.0000      -6.038113      -164.3054
  21   2.0000      -6.036430      -164.2596
  22   2.0000      -6.034495      -164.2069
  23   2.0000      -6.032280      -164.1467
  24   2.0000      -1.009562       -27.4716
  25   2.0000      -0.984159       -26.7803
  26   2.0000      -0.918183       -24.9850
  27   2.0000      -0.913801       -24.8658
  28   2.0000      -0.877435       -23.8762
  29   2.0000      -0.853672       -23.2296
  30   2.0000      -0.843739       -22.9593
  31   2.0000      -0.817237       -22.2382
  32   2.0000      -0.787653       -21.4331
  33   2.0000      -0.775794       -21.1104
  34   2.0000      -0.712681       -19.3930
  35   2.0000      -0.699835       -19.0435
  36   2.0000      -0.694432       -18.8965
  37   2.0000      -0.669241       -18.2110
  38   2.0000      -0.630205       -17.1487
  39   2.0000      -0.616585       -16.7781
  40   2.0000      -0.600404       -16.3378
  41   2.0000      -0.577379       -15.7113
  42   2.0000      -0.566213       -15.4074
  43   2.0000      -0.551947       -15.0192
  44   2.0000      -0.547313       -14.8931
  45   2.0000      -0.528153       -14.3718
  46   2.0000      -0.520960       -14.1761
  47   2.0000      -0.515986       -14.0407
  48   2.0000      -0.512247       -13.9389
  49   2.0000      -0.501868       -13.6565
  50   2.0000      -0.498556       -13.5664
  51   2.0000      -0.478905       -13.0317
  52   2.0000      -0.475236       -12.9318
  53   2.0000      -0.467853       -12.7309
  54   2.0000      -0.458067       -12.4646
  55   2.0000      -0.449042       -12.2191
  56   2.0000      -0.442139       -12.0312
  57   2.0000      -0.435241       -11.8435
  58   2.0000      -0.429776       -11.6948
  59   2.0000      -0.419823       -11.4240
  60   2.0000      -0.413010       -11.2386
  61   2.0000      -0.404677       -11.0118
  62   2.0000      -0.400364       -10.8945
  63   2.0000      -0.366443        -9.9714
  64   2.0000      -0.338288        -9.2053
  65   2.0000      -0.331644        -9.0245
  66   2.0000      -0.281421        -7.6578
  67   0.0000       0.008588         0.2337
  68   0.0000       0.082105         2.2342
  69   0.0000       0.105664         2.8753
  70   0.0000       0.118056         3.2125
  71   0.0000       0.131521         3.5789

MULLIKEN ATOMIC CHARGES
-----------------------
   0 S :    0.079391
   1 C :   -0.111483
   2 C :   -0.090696
   3 C :   -0.041650
   4 C :   -0.093657
   5 H :    0.052650
   6 C :    0.024644
   7 H :    0.040208
   8 H :    0.025968
   9 C :   -0.047006
  10 H :    0.024923
  11 H :    0.024335
  12 C :    0.002216
  13 H :    0.023250
  14 H :   -0.003415
  15 H :    0.028953
  16 S :    0.078684
  17 C :   -0.069934
  18 C :   -0.056563
  19 C :   -0.047273
  20 C :   -0.099458
  21 H :    0.044143
  22 C :    0.043832
  23 H :    0.014286
  24 H :    0.008643
  25 C :   -0.041491
  26 H :    0.032231
  27 H :    0.004688
  28 C :   -0.017647
  29 H :    0.021388
  30 H :    0.017851
  31 H :    0.028819
  32 H :    0.049777
  33 H :    0.049392
Sum of atomic charges:   -0.0000000

LOEWDIN ATOMIC CHARGES
----------------------
   0 S :    0.414330
   1 C :   -0.181796
   2 C :   -0.060214
   3 C :   -0.090113
   4 C :   -0.188578
   5 H :    0.035656
   6 C :   -0.033287
   7 H :    0.034668
   8 H :    0.034447
   9 C :   -0.044256
  10 H :    0.032141
  11 H :    0.020140
  12 C :   -0.054810
  13 H :    0.023076
  14 H :    0.012999
  15 H :    0.028090
  16 S :    0.389524
  17 C :   -0.175853
  18 C :   -0.079071
  19 C :   -0.054094
  20 C :   -0.174714
  21 H :    0.049003
  22 C :   -0.045162
  23 H :    0.021123
  24 H :    0.028976
  25 C :   -0.046373
  26 H :    0.031216
  27 H :    0.003593
  28 C :   -0.059655
  29 H :    0.027023
  30 H :    0.018935
  31 H :    0.024368
  32 H :    0.027050
  33 H :    0.031618

  Mayer bond orders larger than 0.100000
B(  0-S ,  1-C ) :   1.1335 B(  0-S ,  4-C ) :   1.1448 B(  1-C ,  2-C ) :   1.5784
B(  1-C ,  4-C ) :   0.1020 B(  1-C , 32-H ) :   0.9741 B(  2-C ,  3-C ) :   1.2841
B(  2-C ,  6-C ) :   1.0271 B(  3-C ,  4-C ) :   1.5297 B(  3-C ,  5-H ) :   0.9616
B(  4-C , 20-C ) :   1.1159 B(  6-C ,  7-H ) :   0.9453 B(  6-C ,  8-H ) :   0.9407
B(  6-C ,  9-C ) :   1.0577 B(  9-C , 10-H ) :   0.9589 B(  9-C , 11-H ) :   0.9594
B(  9-C , 12-C ) :   1.0688 B( 12-C , 13-H ) :   0.9730 B( 12-C , 14-H ) :   0.9688
B( 12-C , 15-H ) :   0.9762 B( 16-S , 17-C ) :   1.1454 B( 16-S , 20-C ) :   1.1119
B( 17-C , 18-C ) :   1.6357 B( 17-C , 33-H ) :   0.9605 B( 18-C , 19-C ) :   1.2536
B( 18-C , 21-H ) :   0.9823 B( 19-C , 20-C ) :   1.5670 B( 19-C , 22-C ) :   1.0397
B( 22-C , 23-H ) :   0.9216 B( 22-C , 24-H ) :   0.9290 B( 22-C , 25-C ) :   1.0690
B( 25-C , 26-H ) :   0.9517 B( 25-C , 27-H ) :   0.9364 B( 25-C , 28-C ) :   1.0964
B( 28-C , 29-H ) :   0.9705 B( 28-C , 30-H ) :   0.9705 B( 28-C , 31-H ) :   0.9743

Dispersion correction           -0.014337557
FINAL SINGLE POINT ENERGY     -1339.859164774142

DIPOLE MOMENT
-------------
                                X             Y             Z
Electronic contribution:     -2.65772       8.77758      -7.80170
Nuclear contribution   :      2.63813      -8.86688       7.90711
                        -----------------------------------------
Total Dipole Moment    :     -0.01958      -0.08929       0.10541
                        -----------------------------------------
Magnitude (a.u.)       :      0.13953
Magnitude (Debye)      :      0.35464

Rotational constants in cm-1:     0.019668     0.009146     0.006811
Rotational constants in MHz :   589.633199   274.196525   204.196384

                             ****ORCA TERMINATED NORMALLY****
TOTAL RUN TIME: 0 days 0 hours 0 minutes 28 seconds 916 msec
