                         Program Version 4.2.1 -  RELEASE  -
|  1> ! wB97X-D3 SP def2-SVP
|  2> %pal
|  3> nprocs 16
|  4> end
|  5>
|  6> * xyz 0 1
|  7> S 	 56.8675 	 11.7567 	 58.6866
|  8> C 	 55.7766 	 13.0167 	 58.5819
|  9> C 	 56.3539 	 14.2708 	 58.6875
| 10> C 	 57.7837 	 14.0958 	 58.8288
| 11> C 	 58.2314 	 12.8297 	 58.7021
| 12> H 	 58.4543 	 14.9772 	 58.8334
| 13> C 	 55.6807 	 15.6003 	 58.7313
| 14> H 	 56.2969 	 16.312 	 59.2925
| 15> H 	 54.7499 	 15.5174 	 59.2734
| 16> C 	 55.3543 	 16.2807 	 57.3809
| 17> H 	 56.291 	 16.1696 	 56.8353
| 18> H 	 54.7024 	 15.6112 	 56.7307
| 19> C 	 54.6715 	 17.664 	 57.5504
| 20> H 	 54.4406 	 18.0946 	 56.5786
| 21> H 	 53.7345 	 17.5941 	 58.2015
| 22> H 	 55.3792 	 18.4142 	 57.9239
| 23> S 	 59.7823 	 11.068 	 60.1892
| 24> C 	 61.5195 	 11.3034 	 60.205
| 25> C 	 61.9116 	 12.3488 	 59.4166
| 26> C 	 60.8142 	 12.9878 	 58.7047
| 27> C 	 59.5868 	 12.3714 	 59.0017
| 28> H 	 62.9218 	 12.5266 	 59.1709
| 29> C 	 61.0712 	 14.1237 	 57.7526
| 30> H 	 61.2098 	 14.9491 	 58.4459
| 31> H 	 60.1424 	 14.29 	 57.1686
| 32> C 	 62.147 	 14.073 	 56.6902
| 33> H 	 63.0335 	 13.7435 	 57.2304
| 34> H 	 62.3766 	 14.9934 	 56.1803
| 35> C 	 61.6982 	 13.1037 	 55.5845
| 36> H 	 60.8813 	 13.3107 	 54.8937
| 37> H 	 61.47 	 12.1775 	 55.9881
| 38> H 	 62.4914 	 13.0604 	 54.7715
| 39> H 	 54.714 	 12.8781 	 58.3268
| 40> H 	 62.2201 	 10.6494 	 60.7104
| 41> *
| 42>
| 43>                          ****END OF INPUT****

CARTESIAN COORDINATES (ANGSTROEM)
---------------------------------
  S     56.867500   11.756700   58.686600
  C     55.776600   13.016700   58.581900
  C     56.353900   14.270800   58.687500
  C     57.783700   14.095800   58.828800
  C     58.231400   12.829700   58.702100
  H     58.454300   14.977200   58.833400
  C     55.680700   15.600300   58.731300
  H     56.296900   16.312000   59.292500
  H     54.749900   15.517400   59.273400
  C     55.354300   16.280700   57.380900
  H     56.291000   16.169600   56.835300
  H     54.702400   15.611200   56.730700
  C     54.671500   17.664000   57.550400
  H     54.440600   18.094600   56.578600
  H     53.734500   17.594100   58.201500
  H     55.379200   18.414200   57.923900
  S     59.782300   11.068000   60.189200
  C     61.519500   11.303400   60.205000
  C     61.911600   12.348800   59.416600
  C     60.814200   12.987800   58.704700
  C     59.586800   12.371400   59.001700
  H     62.921800   12.526600   59.170900
  C     61.071200   14.123700   57.752600
  H     61.209800   14.949100   58.445900
  H     60.142400   14.290000   57.168600
  C     62.147000   14.073000   56.690200
  H     63.033500   13.743500   57.230400
  H     62.376600   14.993400   56.180300
  C     61.698200   13.103700   55.584500
  H     60.881300   13.310700   54.893700
  H     61.470000   12.177500   55.988100
  H     62.491400   13.060400   54.771500
  H     54.714000   12.878100   58.326800
  H     62.220100   10.649400   60.710400

 Total Charge           Charge          ....    0
 Multiplicity           Mult            ....    1
 Number of Electrons    NEL             ....  134
 Basis Dimension        Dim             ....  322

ORBITAL ENERGIES
----------------

  NO   OCC          E(Eh)            E(eV)
   0   2.0000     -88.965260     -2420.8678
   1   2.0000     -88.965184     -2420.8657
   2   2.0000     -10.330001      -281.0936
   3   2.0000     -10.323485      -280.9163
   4   2.0000     -10.317169      -280.7444
   5   2.0000     -10.311581      -280.5924
   6   2.0000     -10.306124      -280.4439
   7   2.0000     -10.299418      -280.2614
   8   2.0000     -10.293530      -280.1012
   9   2.0000     -10.292836      -280.0823
  10   2.0000     -10.290951      -280.0310
  11   2.0000     -10.290693      -280.0240
  12   2.0000     -10.290277      -280.0127
  13   2.0000     -10.289838      -280.0007
  14   2.0000     -10.288892      -279.9750
  15   2.0000     -10.272915      -279.5402
  16   2.0000      -8.081881      -219.9192
  17   2.0000      -8.079623      -219.8577
  18   2.0000      -6.040269      -164.3641
  19   2.0000      -6.038252      -164.3092
  20   2.0000      -6.036064      -164.2496
  21   2.0000      -6.034251      -164.2003
  22   2.0000      -6.032722      -164.1587
  23   2.0000      -6.030214      -164.0905
  24   2.0000      -1.014367       -27.6023
  25   2.0000      -0.985038       -26.8042
  26   2.0000      -0.914646       -24.8888
  27   2.0000      -0.910643       -24.7799
  28   2.0000      -0.872305       -23.7366
  29   2.0000      -0.853068       -23.2132
  30   2.0000      -0.844915       -22.9913
  31   2.0000      -0.815521       -22.1915
  32   2.0000      -0.782708       -21.2986
  33   2.0000      -0.772128       -21.0107
  34   2.0000      -0.710962       -19.3463
  35   2.0000      -0.701291       -19.0831
  36   2.0000      -0.694126       -18.8881
  37   2.0000      -0.660844       -17.9825
  38   2.0000      -0.640401       -17.4262
  39   2.0000      -0.622980       -16.9522
  40   2.0000      -0.596693       -16.2369
  41   2.0000      -0.570613       -15.5272
  42   2.0000      -0.565697       -15.3934
  43   2.0000      -0.556892       -15.1538
  44   2.0000      -0.547760       -14.9053
  45   2.0000      -0.523823       -14.2540
  46   2.0000      -0.514226       -13.9928
  47   2.0000      -0.506583       -13.7848
  48   2.0000      -0.499573       -13.5941
  49   2.0000      -0.498801       -13.5731
  50   2.0000      -0.494179       -13.4473
  51   2.0000      -0.479241       -13.0408
  52   2.0000      -0.473685       -12.8896
  53   2.0000      -0.463629       -12.6160
  54   2.0000      -0.458421       -12.4743
  55   2.0000      -0.454343       -12.3633
  56   2.0000      -0.449198       -12.2233
  57   2.0000      -0.435311       -11.8454
  58   2.0000      -0.432618       -11.7721
  59   2.0000      -0.431284       -11.7358
  60   2.0000      -0.421896       -11.4804
  61   2.0000      -0.411530       -11.1983
  62   2.0000      -0.401952       -10.9377
  63   2.0000      -0.359330        -9.7779
  64   2.0000      -0.331043        -9.0081
  65   2.0000      -0.325333        -8.8528
  66   2.0000      -0.288133        -7.8405
  67   0.0000       0.031085         0.8459
  68   0.0000       0.075454         2.0532
  69   0.0000       0.111668         3.0386
  70   0.0000       0.121464         3.3052
  71   0.0000       0.129752         3.5307

MULLIKEN ATOMIC CHARGES
-----------------------
   0 S :    0.113643
   1 C :   -0.111844
   2 C :   -0.105731
   3 C :    0.012246
   4 C :   -0.143627
   5 H :    0.023137
   6 C :    0.064468
   7 H :    0.022042
   8 H :    0.017831
   9 C :   -0.093573
  10 H :    0.021921
  11 H :    0.026508
  12 C :   -0.048450
  13 H :    0.035222
  14 H :    0.053835
  15 H :    0.034867
  16 S :    0.095862
  17 C :   -0.088866
  18 C :   -0.010902
  19 C :   -0.083541
  20 C :   -0.115215
  21 H :    0.007831
  22 C :    0.023222
  23 H :    0.042499
  24 H :    0.030201
  25 C :   -0.003356
  26 H :    0.021899
  27 H :    0.029862
  28 C :   -0.072994
  29 H :    0.028907
  30 H :    0.029737
  31 H :    0.027430
  32 H :    0.056959
  33 H :    0.057970
Sum of atomic charges:   -0.0000000

LOEWDIN ATOMIC CHARGES
----------------------
   0 S :    0.439919
   1 C :   -0.215401
   2 C :   -0.069295
   3 C :   -0.058524
   4 C :   -0.208133
   5 H :    0.034232
   6 C :   -0.036347
   7 H :    0.031895
   8 H :    0.027047
   9 C :   -0.048830
  10 H :    0.022463
  11 H :    0.025393
  12 C :   -0.072047
  13 H :    0.028125
  14 H :    0.038437
  15 H :    0.027154
  16 S :    0.388044
  17 C :   -0.178891
  18 C :   -0.068905
  19 C :   -0.054887
  20 C :   -0.188255
  21 H :    0.023061
  22 C :   -0.042080
  23 H :    0.033896
  24 H :    0.033201
  25 C :   -0.032770
  26 H :    0.022067
  27 H :    0.027818
  28 C :   -0.069278
  29 H :    0.028913
  30 H :    0.016046
  31 H :    0.031263
  32 H :    0.034199
  33 H :    0.030471

  Mayer bond orders larger than 0.100000
B(  0-S ,  1-C ) :   1.1732 B(  0-S ,  4-C ) :   1.1475 B(  1-C ,  2-C ) :   1.5896
B(  1-C , 32-H ) :   0.9607 B(  2-C ,  3-C ) :   1.2707 B(  2-C ,  6-C ) :   1.0351
B(  3-C ,  4-C ) :   1.5629 B(  3-C ,  5-H ) :   0.9823 B(  4-C , 20-C ) :   1.0356
B(  6-C ,  7-H ) :   0.9418 B(  6-C ,  8-H ) :   0.9360 B(  6-C ,  9-C ) :   1.0522
B(  9-C , 10-H ) :   0.9560 B(  9-C , 11-H ) :   0.9572 B(  9-C , 12-C ) :   1.0669
B( 12-C , 13-H ) :   0.9733 B( 12-C , 14-H ) :   0.9720 B( 12-C , 15-H ) :   0.9744
B( 16-S , 17-C ) :   1.1431 B( 16-S , 20-C ) :   1.1263 B( 17-C , 18-C ) :   1.6366
B( 17-C , 33-H ) :   0.9649 B( 18-C , 19-C ) :   1.2201 B( 18-C , 21-H ) :   0.9893
B( 19-C , 20-C ) :   1.6194 B( 19-C , 22-C ) :   1.0395 B( 22-C , 23-H ) :   0.9246
B( 22-C , 24-H ) :   0.9363 B( 22-C , 25-C ) :   1.0745 B( 25-C , 26-H ) :   0.9532
B( 25-C , 27-H ) :   0.9517 B( 25-C , 28-C ) :   1.0717 B( 28-C , 29-H ) :   0.9718
B( 28-C , 30-H ) :   0.9809 B( 28-C , 31-H ) :   0.9724

Dispersion correction           -0.013832306
FINAL SINGLE POINT ENERGY     -1339.872928656204

DIPOLE MOMENT
-------------
                                X             Y             Z
Electronic contribution:      0.05883     -23.75382      15.55305
Nuclear contribution   :      0.04281      24.40828     -15.84104
                        -----------------------------------------
Total Dipole Moment    :      0.10164       0.65446      -0.28798
                        -----------------------------------------
Magnitude (a.u.)       :      0.72221
Magnitude (Debye)      :      1.83570

Rotational constants in cm-1:     0.019013     0.008067     0.006361
Rotational constants in MHz :   569.995732   241.830820   190.708337

                             ****ORCA TERMINATED NORMALLY****
TOTAL RUN TIME: 0 days 0 hours 0 minutes 29 seconds 717 msec
