                         Program Version 4.2.1 -  RELEASE  -
|  1> ! wB97X-D3 SP def2-SVP
|  2> %pal
|  3> nprocs 16
|  4> end
|  5>
|  6> * xyz 0 1
|  7> S 	 7.51032 	 -14.6193 	 66.0084
|  8> C 	 7.53704 	 -16.2785 	 65.5846
|  9> C 	 8.57989 	 -16.9549 	 66.1851
| 10> C 	 9.42187 	 -16.0275 	 66.8749
| 11> C 	 9.01598 	 -14.7256 	 66.8277
| 12> H 	 10.3459 	 -16.2154 	 67.4331
| 13> C 	 8.88504 	 -18.4288 	 66.1028
| 14> H 	 8.18233 	 -18.7864 	 65.4024
| 15> H 	 8.58032 	 -18.9161 	 66.9948
| 16> C 	 10.3212 	 -18.8503 	 65.5749
| 17> H 	 11.1275 	 -18.5725 	 66.286
| 18> H 	 10.3046 	 -19.908 	 65.473
| 19> C 	 10.63 	 -18.3178 	 64.174
| 20> H 	 9.8827 	 -18.6507 	 63.4438
| 21> H 	 10.707 	 -17.2769 	 64.2544
| 22> H 	 11.6223 	 -18.7919 	 64.0053
| 23> S 	 9.01092 	 -12.5835 	 68.641
| 24> C 	 10.3837 	 -11.5023 	 68.647
| 25> C 	 11.3988 	 -12.0705 	 67.8584
| 26> C 	 11.072 	 -13.2354 	 67.1617
| 27> C 	 9.77996 	 -13.6347 	 67.3598
| 28> H 	 12.2453 	 -11.4181 	 67.7933
| 29> C 	 12.064 	 -13.8816 	 66.2779
| 30> H 	 11.5647 	 -14.685 	 65.7717
| 31> H 	 12.6902 	 -14.3769 	 67.0269
| 32> C 	 12.8194 	 -13.0534 	 65.2289
| 33> H 	 13.489 	 -13.6797 	 64.6254
| 34> H 	 13.6166 	 -12.4595 	 65.6773
| 35> C 	 11.9903 	 -12.1031 	 64.4513
| 36> H 	 11.474 	 -11.3606 	 65.0551
| 37> H 	 11.147 	 -12.6303 	 63.9562
| 38> H 	 12.5021 	 -11.565 	 63.6713
| 39> H 	 6.93072 	 -16.7328 	 64.8986
| 40> H 	 10.4365 	 -10.5163 	 69.1118
| 41> *
| 42>
| 43>                          ****END OF INPUT****

CARTESIAN COORDINATES (ANGSTROEM)
---------------------------------
  S      7.510320  -14.619300   66.008400
  C      7.537040  -16.278500   65.584600
  C      8.579890  -16.954900   66.185100
  C      9.421870  -16.027500   66.874900
  C      9.015980  -14.725600   66.827700
  H     10.345900  -16.215400   67.433100
  C      8.885040  -18.428800   66.102800
  H      8.182330  -18.786400   65.402400
  H      8.580320  -18.916100   66.994800
  C     10.321200  -18.850300   65.574900
  H     11.127500  -18.572500   66.286000
  H     10.304600  -19.908000   65.473000
  C     10.630000  -18.317800   64.174000
  H      9.882700  -18.650700   63.443800
  H     10.707000  -17.276900   64.254400
  H     11.622300  -18.791900   64.005300
  S      9.010920  -12.583500   68.641000
  C     10.383700  -11.502300   68.647000
  C     11.398800  -12.070500   67.858400
  C     11.072000  -13.235400   67.161700
  C      9.779960  -13.634700   67.359800
  H     12.245300  -11.418100   67.793300
  C     12.064000  -13.881600   66.277900
  H     11.564700  -14.685000   65.771700
  H     12.690200  -14.376900   67.026900
  C     12.819400  -13.053400   65.228900
  H     13.489000  -13.679700   64.625400
  H     13.616600  -12.459500   65.677300
  C     11.990300  -12.103100   64.451300
  H     11.474000  -11.360600   65.055100
  H     11.147000  -12.630300   63.956200
  H     12.502100  -11.565000   63.671300
  H      6.930720  -16.732800   64.898600
  H     10.436500  -10.516300   69.111800

 Total Charge           Charge          ....    0
 Multiplicity           Mult            ....    1
 Number of Electrons    NEL             ....  134
 Basis Dimension        Dim             ....  322

ORBITAL ENERGIES
----------------

  NO   OCC          E(Eh)            E(eV)
   0   2.0000     -88.966432     -2420.8997
   1   2.0000     -88.960099     -2420.7273
   2   2.0000     -10.326162      -280.9892
   3   2.0000     -10.320928      -280.8467
   4   2.0000     -10.319048      -280.7956
   5   2.0000     -10.306806      -280.4625
   6   2.0000     -10.299864      -280.2735
   7   2.0000     -10.299427      -280.2617
   8   2.0000     -10.290016      -280.0056
   9   2.0000     -10.289964      -280.0042
  10   2.0000     -10.288262      -279.9578
  11   2.0000     -10.287731      -279.9434
  12   2.0000     -10.287387      -279.9340
  13   2.0000     -10.285538      -279.8837
  14   2.0000     -10.276583      -279.6401
  15   2.0000     -10.270992      -279.4879
  16   2.0000      -8.082360      -219.9322
  17   2.0000      -8.073978      -219.7041
  18   2.0000      -6.040747      -164.3771
  19   2.0000      -6.036695      -164.2668
  20   2.0000      -6.033167      -164.1708
  21   2.0000      -6.032515      -164.1531
  22   2.0000      -6.028572      -164.0458
  23   2.0000      -6.024805      -163.9433
  24   2.0000      -1.012347       -27.5474
  25   2.0000      -0.986092       -26.8329
  26   2.0000      -0.913830       -24.8666
  27   2.0000      -0.911215       -24.7954
  28   2.0000      -0.874954       -23.8087
  29   2.0000      -0.854899       -23.2630
  30   2.0000      -0.848042       -23.0764
  31   2.0000      -0.814072       -22.1520
  32   2.0000      -0.787847       -21.4384
  33   2.0000      -0.777426       -21.1548
  34   2.0000      -0.713513       -19.4157
  35   2.0000      -0.701420       -19.0866
  36   2.0000      -0.698031       -18.9944
  37   2.0000      -0.656901       -17.8752
  38   2.0000      -0.646892       -17.6028
  39   2.0000      -0.620393       -16.8817
  40   2.0000      -0.593182       -16.1413
  41   2.0000      -0.570327       -15.5194
  42   2.0000      -0.564769       -15.3681
  43   2.0000      -0.553124       -15.0513
  44   2.0000      -0.550637       -14.9836
  45   2.0000      -0.535794       -14.5797
  46   2.0000      -0.521851       -14.2003
  47   2.0000      -0.517596       -14.0845
  48   2.0000      -0.508746       -13.8437
  49   2.0000      -0.496964       -13.5231
  50   2.0000      -0.491200       -13.3662
  51   2.0000      -0.481568       -13.1041
  52   2.0000      -0.476025       -12.9533
  53   2.0000      -0.464393       -12.6368
  54   2.0000      -0.456237       -12.4148
  55   2.0000      -0.446251       -12.1431
  56   2.0000      -0.442723       -12.0471
  57   2.0000      -0.439161       -11.9502
  58   2.0000      -0.432807       -11.7773
  59   2.0000      -0.426045       -11.5933
  60   2.0000      -0.422862       -11.5067
  61   2.0000      -0.415250       -11.2995
  62   2.0000      -0.402129       -10.9425
  63   2.0000      -0.342687        -9.3250
  64   2.0000      -0.332994        -9.0612
  65   2.0000      -0.327042        -8.8993
  66   2.0000      -0.294221        -8.0062
  67   0.0000       0.031685         0.8622
  68   0.0000       0.067884         1.8472
  69   0.0000       0.117447         3.1959
  70   0.0000       0.128378         3.4933
  71   0.0000       0.129398         3.5211

MULLIKEN ATOMIC CHARGES
-----------------------
   0 S :    0.135135
   1 C :   -0.082056
   2 C :   -0.115683
   3 C :    0.010492
   4 C :   -0.161864
   5 H :    0.015776
   6 C :    0.132519
   7 H :   -0.015097
   8 H :    0.034165
   9 C :   -0.103556
  10 H :    0.040319
  11 H :    0.025453
  12 C :   -0.042490
  13 H :    0.038890
  14 H :    0.039380
  15 H :    0.039463
  16 S :    0.085534
  17 C :   -0.109872
  18 C :   -0.053466
  19 C :   -0.021122
  20 C :   -0.176001
  21 H :    0.012120
  22 C :    0.097044
  23 H :    0.016850
  24 H :    0.040375
  25 C :   -0.045434
  26 H :    0.021843
  27 H :    0.010989
  28 C :   -0.034188
  29 H :    0.032481
  30 H :    0.025085
  31 H :    0.030326
  32 H :    0.009121
  33 H :    0.067466
Sum of atomic charges:    0.0000000

LOEWDIN ATOMIC CHARGES
----------------------
   0 S :    0.439249
   1 C :   -0.192616
   2 C :   -0.062556
   3 C :   -0.061404
   4 C :   -0.214913
   5 H :    0.032923
   6 C :   -0.029864
   7 H :    0.022457
   8 H :    0.030892
   9 C :   -0.035698
  10 H :    0.024914
  11 H :    0.019691
  12 C :   -0.057391
  13 H :    0.027491
  14 H :    0.016856
  15 H :    0.034571
  16 S :    0.366090
  17 C :   -0.183547
  18 C :   -0.075934
  19 C :   -0.058841
  20 C :   -0.173220
  21 H :    0.028204
  22 C :   -0.029861
  23 H :    0.026924
  24 H :    0.042125
  25 C :   -0.047053
  26 H :    0.029243
  27 H :    0.021437
  28 C :   -0.067222
  29 H :    0.027615
  30 H :    0.028283
  31 H :    0.025618
  32 H :    0.010506
  33 H :    0.035028

  Mayer bond orders larger than 0.100000
B(  0-S ,  1-C ) :   1.1552 B(  0-S ,  4-C ) :   1.1511 B(  1-C ,  2-C ) :   1.5970
B(  1-C , 32-H ) :   0.9751 B(  2-C ,  3-C ) :   1.2284 B(  2-C ,  6-C ) :   1.0248
B(  3-C ,  4-C ) :   1.5704 B(  3-C ,  5-H ) :   0.9990 B(  4-C , 20-C ) :   1.0465
B(  6-C ,  7-H ) :   0.9249 B(  6-C ,  8-H ) :   0.9328 B(  6-C ,  9-C ) :   1.0649
B(  9-C , 10-H ) :   0.9577 B(  9-C , 11-H ) :   0.9588 B(  9-C , 12-C ) :   1.0715
B( 12-C , 13-H ) :   0.9752 B( 12-C , 14-H ) :   0.9773 B( 12-C , 15-H ) :   0.9733
B( 16-S , 17-C ) :   1.1547 B( 16-S , 20-C ) :   1.1189 B( 17-C , 18-C ) :   1.6087
B( 17-C , 20-C ) :   0.1095 B( 17-C , 33-H ) :   0.9658 B( 18-C , 19-C ) :   1.2128
B( 18-C , 21-H ) :   0.9964 B( 19-C , 20-C ) :   1.6077 B( 19-C , 22-C ) :   1.0385
B( 22-C , 23-H ) :   0.9258 B( 22-C , 24-H ) :   0.9235 B( 22-C , 25-C ) :   1.0689
B( 25-C , 26-H ) :   0.9506 B( 25-C , 27-H ) :   0.9430 B( 25-C , 28-C ) :   1.0896
B( 28-C , 29-H ) :   0.9642 B( 28-C , 30-H ) :   0.9735 B( 28-C , 31-H ) :   0.9713

Dispersion correction           -0.015364987
FINAL SINGLE POINT ENERGY     -1339.872368879795

DIPOLE MOMENT
-------------
                                X             Y             Z
Electronic contribution:    -18.54584      12.17936      15.13966
Nuclear contribution   :     19.11433     -12.55746     -15.46040
                        -----------------------------------------
Total Dipole Moment    :      0.56849      -0.37810      -0.32074
                        -----------------------------------------
Magnitude (a.u.)       :      0.75433
Magnitude (Debye)      :      1.91735

Rotational constants in cm-1:     0.018832     0.009519     0.007485
Rotational constants in MHz :   564.564753   285.359227   224.384653

                             ****ORCA TERMINATED NORMALLY****
TOTAL RUN TIME: 0 days 0 hours 0 minutes 34 seconds 639 msec
