                         Program Version 4.2.1 -  RELEASE  -
|  1> ! wB97X-D3 SP def2-SVP
|  2> %pal
|  3> nprocs 16
|  4> end
|  5>
|  6> * xyz 0 1
|  7> S 	 -37.118 	 -1.77972 	 97.9812
|  8> C 	 -35.5234 	 -1.01244 	 98.1116
|  9> C 	 -35.1697 	 -0.482378 	 96.8895
| 10> C 	 -36.2963 	 -0.462992 	 95.9276
| 11> C 	 -37.4303 	 -1.11711 	 96.3889
| 12> H 	 -36.3421 	 0.0053658 	 94.953
| 13> C 	 -33.8135 	 0.155511 	 96.573
| 14> H 	 -33.4998 	 0.23877 	 95.5039
| 15> H 	 -33.0133 	 -0.445468 	 96.8853
| 16> C 	 -33.7499 	 1.5766 	 97.2675
| 17> H 	 -34.7081 	 2.21755 	 97.1973
| 18> H 	 -33.7289 	 1.28028 	 98.2827
| 19> C 	 -32.4901 	 2.45264 	 97.0717
| 20> H 	 -32.358 	 2.61025 	 96.0083
| 21> H 	 -32.5575 	 3.37027 	 97.681
| 22> H 	 -31.5862 	 1.92554 	 97.3698
| 23> S 	 -40.0606 	 -0.649557 	 96.2172
| 24> C 	 -40.8205 	 -0.597278 	 94.6765
| 25> C 	 -40.0323 	 -1.21515 	 93.6912
| 26> C 	 -38.6908 	 -1.46673 	 94.1622
| 27> C 	 -38.6022 	 -1.20951 	 95.5336
| 28> H 	 -40.4662 	 -1.34051 	 92.7236
| 29> C 	 -37.5964 	 -1.99411 	 93.2486
| 30> H 	 -36.753 	 -2.23115 	 93.8871
| 31> H 	 -37.3101 	 -1.10485 	 92.6551
| 32> C 	 -37.8631 	 -3.22556 	 92.4701
| 33> H 	 -37.1448 	 -3.53851 	 91.7394
| 34> H 	 -38.8578 	 -3.137 	 92.0245
| 35> C 	 -37.8551 	 -4.52914 	 93.2949
| 36> H 	 -38.4529 	 -4.3785 	 94.2169
| 37> H 	 -36.8534 	 -4.77434 	 93.5804
| 38> H 	 -38.2778 	 -5.37161 	 92.7425
| 39> H 	 -34.8926 	 -0.856413 	 98.9659
| 40> H 	 -41.9339 	 -0.414596 	 94.642
| 41> *
| 42>
| 43>                          ****END OF INPUT****

CARTESIAN COORDINATES (ANGSTROEM)
---------------------------------
  S    -37.118000   -1.779720   97.981200
  C    -35.523400   -1.012440   98.111600
  C    -35.169700   -0.482378   96.889500
  C    -36.296300   -0.462992   95.927600
  C    -37.430300   -1.117110   96.388900
  H    -36.342100    0.005366   94.953000
  C    -33.813500    0.155511   96.573000
  H    -33.499800    0.238770   95.503900
  H    -33.013300   -0.445468   96.885300
  C    -33.749900    1.576600   97.267500
  H    -34.708100    2.217550   97.197300
  H    -33.728900    1.280280   98.282700
  C    -32.490100    2.452640   97.071700
  H    -32.358000    2.610250   96.008300
  H    -32.557500    3.370270   97.681000
  H    -31.586200    1.925540   97.369800
  S    -40.060600   -0.649557   96.217200
  C    -40.820500   -0.597278   94.676500
  C    -40.032300   -1.215150   93.691200
  C    -38.690800   -1.466730   94.162200
  C    -38.602200   -1.209510   95.533600
  H    -40.466200   -1.340510   92.723600
  C    -37.596400   -1.994110   93.248600
  H    -36.753000   -2.231150   93.887100
  H    -37.310100   -1.104850   92.655100
  C    -37.863100   -3.225560   92.470100
  H    -37.144800   -3.538510   91.739400
  H    -38.857800   -3.137000   92.024500
  C    -37.855100   -4.529140   93.294900
  H    -38.452900   -4.378500   94.216900
  H    -36.853400   -4.774340   93.580400
  H    -38.277800   -5.371610   92.742500
  H    -34.892600   -0.856413   98.965900
  H    -41.933900   -0.414596   94.642000

 Total Charge           Charge          ....    0
 Multiplicity           Mult            ....    1
 Number of Electrons    NEL             ....  134
 Basis Dimension        Dim             ....  322

ORBITAL ENERGIES
----------------

  NO   OCC          E(Eh)            E(eV)
   0   2.0000     -88.967606     -2420.9316
   1   2.0000     -88.964860     -2420.8569
   2   2.0000     -10.328469      -281.0519
   3   2.0000     -10.325713      -280.9769
   4   2.0000     -10.321642      -280.8662
   5   2.0000     -10.316068      -280.7145
   6   2.0000     -10.310313      -280.5579
   7   2.0000     -10.308829      -280.5175
   8   2.0000     -10.299240      -280.2566
   9   2.0000     -10.296431      -280.1801
  10   2.0000     -10.294882      -280.1380
  11   2.0000     -10.290856      -280.0284
  12   2.0000     -10.290668      -280.0233
  13   2.0000     -10.281211      -279.7660
  14   2.0000     -10.280337      -279.7422
  15   2.0000     -10.272063      -279.5170
  16   2.0000      -8.081524      -219.9094
  17   2.0000      -8.081385      -219.9057
  18   2.0000      -6.040342      -164.3661
  19   2.0000      -6.039589      -164.3456
  20   2.0000      -6.036154      -164.2521
  21   2.0000      -6.035645      -164.2382
  22   2.0000      -6.032344      -164.1484
  23   2.0000      -6.031972      -164.1383
  24   2.0000      -1.010356       -27.4932
  25   2.0000      -0.981746       -26.7147
  26   2.0000      -0.917335       -24.9620
  27   2.0000      -0.904705       -24.6183
  28   2.0000      -0.869987       -23.6736
  29   2.0000      -0.853314       -23.2199
  30   2.0000      -0.840834       -22.8803
  31   2.0000      -0.811559       -22.0836
  32   2.0000      -0.783734       -21.3265
  33   2.0000      -0.774078       -21.0637
  34   2.0000      -0.704903       -19.1814
  35   2.0000      -0.699952       -19.0467
  36   2.0000      -0.690986       -18.8027
  37   2.0000      -0.660317       -17.9681
  38   2.0000      -0.639061       -17.3897
  39   2.0000      -0.615720       -16.7546
  40   2.0000      -0.597789       -16.2667
  41   2.0000      -0.570219       -15.5164
  42   2.0000      -0.561407       -15.2767
  43   2.0000      -0.552824       -15.0431
  44   2.0000      -0.547556       -14.8997
  45   2.0000      -0.526822       -14.3355
  46   2.0000      -0.518231       -14.1018
  47   2.0000      -0.512785       -13.9536
  48   2.0000      -0.505234       -13.7481
  49   2.0000      -0.495170       -13.4743
  50   2.0000      -0.492029       -13.3888
  51   2.0000      -0.477440       -12.9918
  52   2.0000      -0.469751       -12.7826
  53   2.0000      -0.465046       -12.6545
  54   2.0000      -0.455929       -12.4065
  55   2.0000      -0.450830       -12.2677
  56   2.0000      -0.444619       -12.0987
  57   2.0000      -0.438473       -11.9314
  58   2.0000      -0.435619       -11.8538
  59   2.0000      -0.422940       -11.5088
  60   2.0000      -0.416969       -11.3463
  61   2.0000      -0.410287       -11.1645
  62   2.0000      -0.407337       -11.0842
  63   2.0000      -0.346236        -9.4215
  64   2.0000      -0.330416        -8.9911
  65   2.0000      -0.325059        -8.8453
  66   2.0000      -0.295813        -8.0495
  67   0.0000       0.030261         0.8235
  68   0.0000       0.072613         1.9759
  69   0.0000       0.109044         2.9672
  70   0.0000       0.121254         3.2995
  71   0.0000       0.128195         3.4884

MULLIKEN ATOMIC CHARGES
-----------------------
   0 S :    0.110642
   1 C :   -0.113750
   2 C :   -0.080335
   3 C :    0.009873
   4 C :   -0.122324
   5 H :    0.019142
   6 C :    0.072858
   7 H :    0.023149
   8 H :    0.012424
   9 C :   -0.123071
  10 H :    0.053306
  11 H :    0.009528
  12 C :   -0.026029
  13 H :    0.029192
  14 H :    0.048014
  15 H :    0.020457
  16 S :    0.122459
  17 C :   -0.129090
  18 C :   -0.037233
  19 C :   -0.068890
  20 C :   -0.167193
  21 H :    0.021368
  22 C :    0.085187
  23 H :    0.023194
  24 H :    0.046653
  25 C :   -0.048367
  26 H :    0.029799
  27 H :    0.023283
  28 C :   -0.074299
  29 H :    0.036787
  30 H :    0.025423
  31 H :    0.036530
  32 H :    0.048968
  33 H :    0.082343
Sum of atomic charges:    0.0000000

LOEWDIN ATOMIC CHARGES
----------------------
   0 S :    0.389019
   1 C :   -0.193258
   2 C :   -0.051286
   3 C :   -0.061547
   4 C :   -0.200269
   5 H :    0.031329
   6 C :   -0.033922
   7 H :    0.030899
   8 H :    0.022645
   9 C :   -0.047288
  10 H :    0.036487
  11 H :    0.013334
  12 C :   -0.068062
  13 H :    0.021999
  14 H :    0.033870
  15 H :    0.022760
  16 S :    0.444346
  17 C :   -0.204636
  18 C :   -0.069052
  19 C :   -0.050075
  20 C :   -0.214389
  21 H :    0.028881
  22 C :   -0.036829
  23 H :    0.030955
  24 H :    0.038875
  25 C :   -0.043484
  26 H :    0.027693
  27 H :    0.020940
  28 C :   -0.060948
  29 H :    0.026184
  30 H :    0.018434
  31 H :    0.027115
  32 H :    0.031009
  33 H :    0.038273

  Mayer bond orders larger than 0.100000
B(  0-S ,  1-C ) :   1.1132 B(  0-S ,  4-C ) :   1.1322 B(  1-C ,  2-C ) :   1.6369
B(  1-C , 32-H ) :   0.9692 B(  2-C ,  3-C ) :   1.2069 B(  2-C ,  6-C ) :   1.0282
B(  3-C ,  4-C ) :   1.5855 B(  3-C ,  5-H ) :   0.9962 B(  4-C , 20-C ) :   1.0340
B(  6-C ,  7-H ) :   0.9511 B(  6-C ,  8-H ) :   0.9395 B(  6-C ,  9-C ) :   1.0355
B(  9-C , 10-H ) :   0.9622 B(  9-C , 11-H ) :   0.9572 B(  9-C , 12-C ) :   1.0817
B( 12-C , 13-H ) :   0.9771 B( 12-C , 14-H ) :   0.9726 B( 12-C , 15-H ) :   0.9719
B( 16-S , 17-C ) :   1.1861 B( 16-S , 20-C ) :   1.1682 B( 17-C , 18-C ) :   1.5818
B( 17-C , 33-H ) :   0.9589 B( 18-C , 19-C ) :   1.2383 B( 18-C , 21-H ) :   0.9959
B( 19-C , 20-C ) :   1.5693 B( 19-C , 22-C ) :   1.0313 B( 22-C , 23-H ) :   0.9320
B( 22-C , 24-H ) :   0.9250 B( 22-C , 25-C ) :   1.0756 B( 25-C , 26-H ) :   0.9549
B( 25-C , 27-H ) :   0.9561 B( 25-C , 28-C ) :   1.0739 B( 28-C , 29-H ) :   0.9781
B( 28-C , 30-H ) :   0.9752 B( 28-C , 31-H ) :   0.9745

Dispersion correction           -0.014121002
FINAL SINGLE POINT ENERGY     -1339.863154907816

DIPOLE MOMENT
-------------
                                X             Y             Z
Electronic contribution:    -19.92272      -1.89193      12.07460
Nuclear contribution   :     20.29941       2.02199     -12.52953
                        -----------------------------------------
Total Dipole Moment    :      0.37669       0.13006      -0.45492
                        -----------------------------------------
Magnitude (a.u.)       :      0.60479
Magnitude (Debye)      :      1.53725

Rotational constants in cm-1:     0.019668     0.007545     0.006796
Rotational constants in MHz :   589.636986   226.183228   203.730917

                             ****ORCA TERMINATED NORMALLY****
TOTAL RUN TIME: 0 days 0 hours 0 minutes 29 seconds 559 msec
