                         Program Version 4.2.1 -  RELEASE  -
|  1> ! wB97X-D3 SP def2-SVP
|  2> %pal
|  3> nprocs 16
|  4> end
|  5>
|  6> * xyz 0 1
|  7> S 	 -99.519 	 39.6107 	 127.584
|  8> C 	 -99.4488 	 39.041 	 129.242
|  9> C 	 -98.3502 	 38.2556 	 129.506
| 10> C 	 -97.3959 	 38.2875 	 128.408
| 11> C 	 -97.7809 	 39.1156 	 127.409
| 12> H 	 -96.4035 	 37.9207 	 128.423
| 13> C 	 -97.9145 	 37.7359 	 130.835
| 14> H 	 -98.6451 	 37.9354 	 131.664
| 15> H 	 -96.9243 	 38.2779 	 130.993
| 16> C 	 -97.8696 	 36.149 	 130.822
| 17> H 	 -98.9188 	 35.8498 	 130.68
| 18> H 	 -97.2822 	 36.0072 	 129.947
| 19> C 	 -97.2929 	 35.6297 	 132.119
| 20> H 	 -98.0868 	 35.7592 	 132.867
| 21> H 	 -97.0029 	 34.5564 	 132.122
| 22> H 	 -96.4281 	 36.2123 	 132.374
| 23> S 	 -96.7782 	 38.5632 	 124.846
| 24> C 	 -95.481 	 39.5704 	 124.227
| 25> C 	 -95.4337 	 40.7891 	 124.939
| 26> C 	 -96.2439 	 40.7678 	 126.069
| 27> C 	 -96.9264 	 39.5569 	 126.274
| 28> H 	 -94.9411 	 41.6725 	 124.556
| 29> C 	 -96.3497 	 41.9827 	 127.055
| 30> H 	 -95.3266 	 42.2683 	 127.142
| 31> H 	 -96.6802 	 41.747 	 128.116
| 32> C 	 -97.2004 	 43.1113 	 126.471
| 33> H 	 -96.965 	 43.4806 	 125.578
| 34> H 	 -97.1937 	 43.9149 	 127.185
| 35> C 	 -98.6474 	 42.6653 	 126.334
| 36> H 	 -98.5563 	 41.7658 	 125.615
| 37> H 	 -99.2989 	 43.3258 	 125.761
| 38> H 	 -99.0941 	 42.3334 	 127.222
| 39> H 	 -100.269 	 39.2076 	 129.964
| 40> H 	 -95.0107 	 39.334 	 123.275
| 41> *
| 42>
| 43>                          ****END OF INPUT****

CARTESIAN COORDINATES (ANGSTROEM)
---------------------------------
  S    -99.519000   39.610700  127.584000
  C    -99.448800   39.041000  129.242000
  C    -98.350200   38.255600  129.506000
  C    -97.395900   38.287500  128.408000
  C    -97.780900   39.115600  127.409000
  H    -96.403500   37.920700  128.423000
  C    -97.914500   37.735900  130.835000
  H    -98.645100   37.935400  131.664000
  H    -96.924300   38.277900  130.993000
  C    -97.869600   36.149000  130.822000
  H    -98.918800   35.849800  130.680000
  H    -97.282200   36.007200  129.947000
  C    -97.292900   35.629700  132.119000
  H    -98.086800   35.759200  132.867000
  H    -97.002900   34.556400  132.122000
  H    -96.428100   36.212300  132.374000
  S    -96.778200   38.563200  124.846000
  C    -95.481000   39.570400  124.227000
  C    -95.433700   40.789100  124.939000
  C    -96.243900   40.767800  126.069000
  C    -96.926400   39.556900  126.274000
  H    -94.941100   41.672500  124.556000
  C    -96.349700   41.982700  127.055000
  H    -95.326600   42.268300  127.142000
  H    -96.680200   41.747000  128.116000
  C    -97.200400   43.111300  126.471000
  H    -96.965000   43.480600  125.578000
  H    -97.193700   43.914900  127.185000
  C    -98.647400   42.665300  126.334000
  H    -98.556300   41.765800  125.615000
  H    -99.298900   43.325800  125.761000
  H    -99.094100   42.333400  127.222000
  H    -100.269000   39.207600  129.964000
  H    -95.010700   39.334000  123.275000

 Total Charge           Charge          ....    0
 Multiplicity           Mult            ....    1
 Number of Electrons    NEL             ....  134
 Basis Dimension        Dim             ....  322

ORBITAL ENERGIES
----------------

  NO   OCC          E(Eh)            E(eV)
   0   2.0000     -88.966907     -2420.9126
   1   2.0000     -88.962902     -2420.8036
   2   2.0000     -10.331911      -281.1456
   3   2.0000     -10.325555      -280.9726
   4   2.0000     -10.323387      -280.9136
   5   2.0000     -10.315583      -280.7013
   6   2.0000     -10.303808      -280.3809
   7   2.0000     -10.300448      -280.2894
   8   2.0000     -10.299349      -280.2595
   9   2.0000     -10.296902      -280.1929
  10   2.0000     -10.294108      -280.1169
  11   2.0000     -10.293915      -280.1117
  12   2.0000     -10.286360      -279.9061
  13   2.0000     -10.279836      -279.7286
  14   2.0000     -10.270330      -279.4699
  15   2.0000     -10.264129      -279.3011
  16   2.0000      -8.081511      -219.9091
  17   2.0000      -8.076504      -219.7728
  18   2.0000      -6.039806      -164.3515
  19   2.0000      -6.036057      -164.2495
  20   2.0000      -6.035108      -164.2236
  21   2.0000      -6.032493      -164.1525
  22   2.0000      -6.031452      -164.1242
  23   2.0000      -6.026908      -164.0005
  24   2.0000      -1.001846       -27.2616
  25   2.0000      -0.982190       -26.7268
  26   2.0000      -0.910318       -24.7710
  27   2.0000      -0.908724       -24.7276
  28   2.0000      -0.865629       -23.5550
  29   2.0000      -0.849055       -23.1040
  30   2.0000      -0.847015       -23.0485
  31   2.0000      -0.811962       -22.0946
  32   2.0000      -0.777768       -21.1641
  33   2.0000      -0.763481       -20.7754
  34   2.0000      -0.701737       -19.0952
  35   2.0000      -0.697069       -18.9682
  36   2.0000      -0.690023       -18.7765
  37   2.0000      -0.660116       -17.9627
  38   2.0000      -0.642037       -17.4707
  39   2.0000      -0.620007       -16.8712
  40   2.0000      -0.601310       -16.3625
  41   2.0000      -0.570692       -15.5293
  42   2.0000      -0.559434       -15.2230
  43   2.0000      -0.553597       -15.0641
  44   2.0000      -0.542613       -14.7652
  45   2.0000      -0.522431       -14.2161
  46   2.0000      -0.512910       -13.9570
  47   2.0000      -0.511096       -13.9076
  48   2.0000      -0.505902       -13.7663
  49   2.0000      -0.496075       -13.4989
  50   2.0000      -0.482853       -13.1391
  51   2.0000      -0.475428       -12.9371
  52   2.0000      -0.466366       -12.6905
  53   2.0000      -0.461782       -12.5657
  54   2.0000      -0.457635       -12.4529
  55   2.0000      -0.453473       -12.3396
  56   2.0000      -0.442709       -12.0467
  57   2.0000      -0.438942       -11.9442
  58   2.0000      -0.434103       -11.8125
  59   2.0000      -0.428499       -11.6600
  60   2.0000      -0.425172       -11.5695
  61   2.0000      -0.404119       -10.9966
  62   2.0000      -0.399491       -10.8707
  63   2.0000      -0.336771        -9.1640
  64   2.0000      -0.330946        -9.0055
  65   2.0000      -0.312076        -8.4920
  66   2.0000      -0.309303        -8.4166
  67   0.0000       0.034227         0.9314
  68   0.0000       0.053578         1.4579
  69   0.0000       0.102565         2.7909
  70   0.0000       0.116390         3.1671
  71   0.0000       0.120631         3.2825

MULLIKEN ATOMIC CHARGES
-----------------------
   0 S :    0.099165
   1 C :   -0.133086
   2 C :   -0.057987
   3 C :    0.065101
   4 C :   -0.152514
   5 H :    0.010074
   6 C :   -0.028065
   7 H :    0.025199
   8 H :    0.056576
   9 C :   -0.078564
  10 H :    0.038785
  11 H :    0.020319
  12 C :   -0.012703
  13 H :    0.028866
  14 H :    0.044227
  15 H :    0.025776
  16 S :    0.118029
  17 C :   -0.106989
  18 C :   -0.031146
  19 C :   -0.037510
  20 C :   -0.202443
  21 H :    0.024969
  22 C :    0.063200
  23 H :    0.018017
  24 H :    0.048339
  25 C :    0.010577
  26 H :   -0.008803
  27 H :    0.019275
  28 C :   -0.071334
  29 H :    0.029258
  30 H :    0.027669
  31 H :    0.026623
  32 H :    0.055235
  33 H :    0.065866
Sum of atomic charges:   -0.0000000

LOEWDIN ATOMIC CHARGES
----------------------
   0 S :    0.381241
   1 C :   -0.193229
   2 C :   -0.071314
   3 C :   -0.045590
   4 C :   -0.167371
   5 H :    0.029835
   6 C :   -0.038363
   7 H :    0.028685
   8 H :    0.039623
   9 C :   -0.035561
  10 H :    0.029109
  11 H :    0.014710
  12 C :   -0.065768
  13 H :    0.028293
  14 H :    0.030923
  15 H :    0.022896
  16 S :    0.416114
  17 C :   -0.181530
  18 C :   -0.074231
  19 C :   -0.054433
  20 C :   -0.214639
  21 H :    0.034160
  22 C :   -0.022993
  23 H :    0.023936
  24 H :    0.041607
  25 C :   -0.028083
  26 H :    0.004561
  27 H :    0.022008
  28 C :   -0.066653
  29 H :    0.028115
  30 H :    0.022276
  31 H :    0.001533
  32 H :    0.032125
  33 H :    0.028009

  Mayer bond orders larger than 0.100000
B(  0-S ,  1-C ) :   1.1206 B(  0-S ,  4-C ) :   1.1064 B(  1-C ,  2-C ) :   1.6649
B(  1-C , 32-H ) :   0.9621 B(  2-C ,  3-C ) :   1.1641 B(  2-C ,  6-C ) :   1.0298
B(  3-C ,  4-C ) :   1.6737 B(  3-C ,  5-H ) :   0.9883 B(  4-C , 20-C ) :   1.0203
B(  6-C ,  7-H ) :   0.9500 B(  6-C ,  8-H ) :   0.9466 B(  6-C ,  9-C ) :   1.0307
B(  9-C , 10-H ) :   0.9586 B(  9-C , 11-H ) :   0.9652 B(  9-C , 12-C ) :   1.0785
B( 12-C , 13-H ) :   0.9712 B( 12-C , 14-H ) :   0.9734 B( 12-C , 15-H ) :   0.9734
B( 16-S , 17-C ) :   1.1864 B( 16-S , 20-C ) :   1.1659 B( 17-C , 18-C ) :   1.5350
B( 17-C , 20-C ) :   0.1166 B( 17-C , 33-H ) :   0.9701 B( 18-C , 19-C ) :   1.3086
B( 18-C , 21-H ) :   0.9883 B( 19-C , 20-C ) :   1.5432 B( 19-C , 22-C ) :   1.0158
B( 22-C , 23-H ) :   0.9375 B( 22-C , 24-H ) :   0.9443 B( 22-C , 25-C ) :   1.0737
B( 25-C , 26-H ) :   0.9571 B( 25-C , 27-H ) :   0.9523 B( 25-C , 28-C ) :   1.0746
B( 28-C , 29-H ) :   0.9715 B( 28-C , 30-H ) :   0.9706 B( 28-C , 31-H ) :   0.9707

Dispersion correction           -0.015333703
FINAL SINGLE POINT ENERGY     -1339.852693848469

DIPOLE MOMENT
-------------
                                X             Y             Z
Electronic contribution:     -2.09689      -2.39220     -17.55539
Nuclear contribution   :      2.39865       2.57514      17.89889
                        -----------------------------------------
Total Dipole Moment    :      0.30176       0.18294       0.34350
                        -----------------------------------------
Magnitude (a.u.)       :      0.49246
Magnitude (Debye)      :      1.25174

Rotational constants in cm-1:     0.021814     0.007958     0.006919
Rotational constants in MHz :   653.978964   238.567913   207.433235

                             ****ORCA TERMINATED NORMALLY****
TOTAL RUN TIME: 0 days 0 hours 0 minutes 34 seconds 930 msec
