                         Program Version 4.2.1 -  RELEASE  -
|  1> ! wB97X-D3 SP def2-SVP
|  2> %pal
|  3> nprocs 16
|  4> end
|  5>
|  6> * xyz 0 1
|  7> S 	 -18.9046 	 0.65672 	 77.1118
|  8> C 	 -18.3122 	 -0.900989 	 76.6655
|  9> C 	 -19.2184 	 -1.59789 	 75.8605
| 10> C 	 -20.3812 	 -0.814023 	 75.7037
| 11> C 	 -20.4284 	 0.461102 	 76.2523
| 12> H 	 -21.2709 	 -1.06773 	 75.107
| 13> C 	 -19.0235 	 -2.98295 	 75.3989
| 14> H 	 -18.0368 	 -3.29321 	 75.236
| 15> H 	 -19.5696 	 -2.9739 	 74.3867
| 16> C 	 -19.771 	 -4.06179 	 76.1645
| 17> H 	 -20.8045 	 -3.76403 	 76.4079
| 18> H 	 -19.9439 	 -4.92514 	 75.5499
| 19> C 	 -19.0496 	 -4.5128 	 77.4224
| 20> H 	 -18.1715 	 -5.05445 	 77.2331
| 21> H 	 -18.8416 	 -3.6277 	 78.0317
| 22> H 	 -19.6546 	 -5.21242 	 78.0396
| 23> S 	 -21.1808 	 3.05349 	 76.7169
| 24> C 	 -22.8552 	 3.49649 	 76.5533
| 25> C 	 -23.6918 	 2.40783 	 76.3631
| 26> C 	 -22.9203 	 1.20116 	 76.1853
| 27> C 	 -21.5379 	 1.36829 	 76.3413
| 28> H 	 -24.7601 	 2.39579 	 76.3235
| 29> C 	 -23.6293 	 -0.0622231 	 76.1679
| 30> H 	 -23.3607 	 -0.651889 	 75.3294
| 31> H 	 -24.6128 	 0.223219 	 75.8644
| 32> C 	 -23.6688 	 -0.817192 	 77.4752
| 33> H 	 -24.3673 	 -0.370896 	 78.1783
| 34> H 	 -22.7241 	 -0.71859 	 77.9848
| 35> C 	 -24.005 	 -2.24494 	 77.2158
| 36> H 	 -24.9896 	 -2.4442 	 76.6854
| 37> H 	 -23.8539 	 -2.84545 	 78.1026
| 38> H 	 -23.2796 	 -2.65283 	 76.523
| 39> H 	 -17.471 	 -1.3388 	 77.0678
| 40> H 	 -23.205 	 4.50671 	 76.825
| 41> *
| 42>
| 43>                          ****END OF INPUT****

CARTESIAN COORDINATES (ANGSTROEM)
---------------------------------
  S    -18.904600    0.656720   77.111800
  C    -18.312200   -0.900989   76.665500
  C    -19.218400   -1.597890   75.860500
  C    -20.381200   -0.814023   75.703700
  C    -20.428400    0.461102   76.252300
  H    -21.270900   -1.067730   75.107000
  C    -19.023500   -2.982950   75.398900
  H    -18.036800   -3.293210   75.236000
  H    -19.569600   -2.973900   74.386700
  C    -19.771000   -4.061790   76.164500
  H    -20.804500   -3.764030   76.407900
  H    -19.943900   -4.925140   75.549900
  C    -19.049600   -4.512800   77.422400
  H    -18.171500   -5.054450   77.233100
  H    -18.841600   -3.627700   78.031700
  H    -19.654600   -5.212420   78.039600
  S    -21.180800    3.053490   76.716900
  C    -22.855200    3.496490   76.553300
  C    -23.691800    2.407830   76.363100
  C    -22.920300    1.201160   76.185300
  C    -21.537900    1.368290   76.341300
  H    -24.760100    2.395790   76.323500
  C    -23.629300   -0.062223   76.167900
  H    -23.360700   -0.651889   75.329400
  H    -24.612800    0.223219   75.864400
  C    -23.668800   -0.817192   77.475200
  H    -24.367300   -0.370896   78.178300
  H    -22.724100   -0.718590   77.984800
  C    -24.005000   -2.244940   77.215800
  H    -24.989600   -2.444200   76.685400
  H    -23.853900   -2.845450   78.102600
  H    -23.279600   -2.652830   76.523000
  H    -17.471000   -1.338800   77.067800
  H    -23.205000    4.506710   76.825000

 Total Charge           Charge          ....    0
 Multiplicity           Mult            ....    1
 Number of Electrons    NEL             ....  134
 Basis Dimension        Dim             ....  322

ORBITAL ENERGIES
----------------

  NO   OCC          E(Eh)            E(eV)
   0   2.0000     -88.967148     -2420.9192
   1   2.0000     -88.966143     -2420.8918
   2   2.0000     -10.331349      -281.1303
   3   2.0000     -10.329937      -281.0919
   4   2.0000     -10.322078      -280.8780
   5   2.0000     -10.309715      -280.5416
   6   2.0000     -10.301728      -280.3243
   7   2.0000     -10.299791      -280.2716
   8   2.0000     -10.296852      -280.1916
   9   2.0000     -10.293875      -280.1106
  10   2.0000     -10.292839      -280.0824
  11   2.0000     -10.284699      -279.8609
  12   2.0000     -10.279645      -279.7234
  13   2.0000     -10.278037      -279.6796
  14   2.0000     -10.277335      -279.6605
  15   2.0000     -10.273809      -279.5646
  16   2.0000      -8.082000      -219.9224
  17   2.0000      -8.081038      -219.8962
  18   2.0000      -6.040574      -164.3724
  19   2.0000      -6.039548      -164.3445
  20   2.0000      -6.036490      -164.2613
  21   2.0000      -6.035388      -164.2313
  22   2.0000      -6.032711      -164.1584
  23   2.0000      -6.031936      -164.1373
  24   2.0000      -1.009929       -27.4816
  25   2.0000      -0.987691       -26.8764
  26   2.0000      -0.923979       -25.1428
  27   2.0000      -0.919610       -25.0239
  28   2.0000      -0.874070       -23.7847
  29   2.0000      -0.859517       -23.3886
  30   2.0000      -0.848952       -23.1012
  31   2.0000      -0.816353       -22.2141
  32   2.0000      -0.785527       -21.3753
  33   2.0000      -0.773647       -21.0520
  34   2.0000      -0.714154       -19.4331
  35   2.0000      -0.704272       -19.1642
  36   2.0000      -0.697422       -18.9778
  37   2.0000      -0.671884       -18.2829
  38   2.0000      -0.645214       -17.5572
  39   2.0000      -0.624601       -16.9962
  40   2.0000      -0.603791       -16.4300
  41   2.0000      -0.575856       -15.6698
  42   2.0000      -0.564790       -15.3687
  43   2.0000      -0.552361       -15.0305
  44   2.0000      -0.537302       -14.6207
  45   2.0000      -0.533748       -14.5240
  46   2.0000      -0.528298       -14.3757
  47   2.0000      -0.512801       -13.9540
  48   2.0000      -0.508158       -13.8277
  49   2.0000      -0.503632       -13.7045
  50   2.0000      -0.492911       -13.4128
  51   2.0000      -0.483008       -13.1433
  52   2.0000      -0.476947       -12.9784
  53   2.0000      -0.468205       -12.7405
  54   2.0000      -0.463740       -12.6190
  55   2.0000      -0.453787       -12.3482
  56   2.0000      -0.443722       -12.0743
  57   2.0000      -0.436725       -11.8839
  58   2.0000      -0.433705       -11.8017
  59   2.0000      -0.428217       -11.6524
  60   2.0000      -0.424761       -11.5583
  61   2.0000      -0.411799       -11.2056
  62   2.0000      -0.404385       -11.0039
  63   2.0000      -0.362871        -9.8742
  64   2.0000      -0.334823        -9.1110
  65   2.0000      -0.328050        -8.9267
  66   2.0000      -0.279295        -7.6000
  67   0.0000       0.016817         0.4576
  68   0.0000       0.078577         2.1382
  69   0.0000       0.103291         2.8107
  70   0.0000       0.115534         3.1438
  71   0.0000       0.125917         3.4264

MULLIKEN ATOMIC CHARGES
-----------------------
   0 S :    0.097989
   1 C :   -0.084279
   2 C :   -0.057795
   3 C :   -0.035238
   4 C :   -0.098966
   5 H :    0.000493
   6 C :    0.072401
   7 H :    0.013308
   8 H :    0.035636
   9 C :   -0.057880
  10 H :    0.024057
  11 H :    0.018984
  12 C :   -0.045408
  13 H :    0.019020
  14 H :    0.031610
  15 H :    0.031666
  16 S :    0.098340
  17 C :   -0.084919
  18 C :   -0.010054
  19 C :   -0.102403
  20 C :   -0.121811
  21 H :    0.013861
  22 C :    0.074325
  23 H :    0.009053
  24 H :   -0.010293
  25 C :   -0.011823
  26 H :    0.021596
  27 H :    0.031615
  28 C :   -0.041278
  29 H :    0.037719
  30 H :    0.031026
  31 H :    0.012538
  32 H :    0.018765
  33 H :    0.068144
Sum of atomic charges:   -0.0000000

LOEWDIN ATOMIC CHARGES
----------------------
   0 S :    0.408590
   1 C :   -0.188602
   2 C :   -0.064183
   3 C :   -0.071467
   4 C :   -0.192983
   5 H :    0.028797
   6 C :   -0.029774
   7 H :    0.023864
   8 H :    0.047194
   9 C :   -0.040547
  10 H :    0.025342
  11 H :    0.020568
  12 C :   -0.065721
  13 H :    0.015256
  14 H :    0.025677
  15 H :    0.030096
  16 S :    0.405343
  17 C :   -0.186277
  18 C :   -0.064034
  19 C :   -0.055301
  20 C :   -0.191797
  21 H :    0.030278
  22 C :   -0.037443
  23 H :    0.022735
  24 H :    0.027890
  25 C :   -0.032986
  26 H :    0.025665
  27 H :    0.028469
  28 C :   -0.067185
  29 H :    0.032461
  30 H :    0.026015
  31 H :    0.019153
  32 H :    0.011851
  33 H :    0.033054

  Mayer bond orders larger than 0.100000
B(  0-S ,  1-C ) :   1.1615 B(  0-S ,  4-C ) :   1.1343 B(  1-C ,  2-C ) :   1.5551
B(  1-C ,  4-C ) :   0.1012 B(  1-C , 32-H ) :   0.9773 B(  2-C ,  3-C ) :   1.2653
B(  2-C ,  6-C ) :   1.0467 B(  3-C ,  4-C ) :   1.5614 B(  3-C ,  5-H ) :   0.9872
B(  4-C , 20-C ) :   1.0975 B(  6-C ,  7-H ) :   0.9430 B(  6-C ,  8-H ) :   0.9261
B(  6-C ,  9-C ) :   1.0737 B(  9-C , 10-H ) :   0.9520 B(  9-C , 11-H ) :   0.9517
B(  9-C , 12-C ) :   1.0808 B( 12-C , 13-H ) :   0.9751 B( 12-C , 14-H ) :   0.9753
B( 12-C , 15-H ) :   0.9717 B( 16-S , 17-C ) :   1.1676 B( 16-S , 20-C ) :   1.1250
B( 17-C , 18-C ) :   1.5782 B( 17-C , 33-H ) :   0.9619 B( 18-C , 19-C ) :   1.2709
B( 18-C , 21-H ) :   0.9897 B( 19-C , 20-C ) :   1.5533 B( 19-C , 22-C ) :   1.0735
B( 22-C , 23-H ) :   0.9269 B( 22-C , 24-H ) :   0.8998 B( 22-C , 25-C ) :   1.0513
B( 25-C , 26-H ) :   0.9460 B( 25-C , 27-H ) :   0.9567 B( 25-C , 28-C ) :   1.0893
B( 28-C , 29-H ) :   0.9684 B( 28-C , 30-H ) :   0.9692 B( 28-C , 31-H ) :   0.9719

Dispersion correction           -0.015373112
FINAL SINGLE POINT ENERGY     -1339.877361591023

DIPOLE MOMENT
-------------
                                X             Y             Z
Electronic contribution:      9.60702      29.59679      -0.80223
Nuclear contribution   :    -10.05715     -30.22241       0.81662
                        -----------------------------------------
Total Dipole Moment    :     -0.45012      -0.62561       0.01439
                        -----------------------------------------
Magnitude (a.u.)       :      0.77085
Magnitude (Debye)      :      1.95935

Rotational constants in cm-1:     0.020580     0.009647     0.007102
Rotational constants in MHz :   616.986656   289.195149   212.914340

                             ****ORCA TERMINATED NORMALLY****
TOTAL RUN TIME: 0 days 0 hours 0 minutes 36 seconds 161 msec
