                         Program Version 4.2.1 -  RELEASE  -
|  1> ! wB97X-D3 SP def2-SVP
|  2> %pal
|  3> nprocs 16
|  4> end
|  5>
|  6> * xyz 0 1
|  7> S 	 -43.2989 	 37.7871 	 97.0452
|  8> C 	 -44.6969 	 37.6774 	 96.0439
|  9> C 	 -45.8835 	 37.7577 	 96.7529
| 10> C 	 -45.665 	 37.6462 	 98.1778
| 11> C 	 -44.2942 	 37.3987 	 98.4805
| 12> H 	 -46.4023 	 37.6096 	 98.963
| 13> C 	 -47.2213 	 38.0752 	 96.0682
| 14> H 	 -48.024 	 37.5175 	 96.5001
| 15> H 	 -47.1052 	 37.8465 	 95.0035
| 16> C 	 -47.5052 	 39.6014 	 96.1979
| 17> H 	 -47.4337 	 39.8937 	 97.2297
| 18> H 	 -46.7431 	 40.1086 	 95.6239
| 19> C 	 -48.844 	 40.0019 	 95.7319
| 20> H 	 -48.8804 	 39.9173 	 94.6886
| 21> H 	 -49.7257 	 39.4221 	 96.077
| 22> H 	 -49.0025 	 41.01 	 96.1054
| 23> S 	 -42.1894 	 36.3392 	 99.9831
| 24> C 	 -42.2553 	 36.5402 	 101.72
| 25> C 	 -43.294 	 37.3401 	 102.149
| 26> C 	 -44.0756 	 37.7939 	 101.051
| 27> C 	 -43.6855 	 37.2757 	 99.8192
| 28> H 	 -43.3526 	 37.6286 	 103.214
| 29> C 	 -45.2309 	 38.7643 	 101.344
| 30> H 	 -45.6976 	 39.2117 	 100.419
| 31> H 	 -44.8491 	 39.6304 	 101.838
| 32> C 	 -46.2975 	 38.1132 	 102.232
| 33> H 	 -46.0241 	 38.0219 	 103.282
| 34> H 	 -46.2372 	 37.1029 	 101.899
| 35> C 	 -47.6609 	 38.8862 	 102.129
| 36> H 	 -47.4564 	 39.9068 	 102.274
| 37> H 	 -48.3342 	 38.4683 	 102.887
| 38> H 	 -48.159 	 38.7623 	 101.193
| 39> H 	 -44.713 	 37.8186 	 95.0221
| 40> H 	 -41.5649 	 35.9675 	 102.296
| 41> *
| 42>
| 43>                          ****END OF INPUT****

CARTESIAN COORDINATES (ANGSTROEM)
---------------------------------
  S    -43.298900   37.787100   97.045200
  C    -44.696900   37.677400   96.043900
  C    -45.883500   37.757700   96.752900
  C    -45.665000   37.646200   98.177800
  C    -44.294200   37.398700   98.480500
  H    -46.402300   37.609600   98.963000
  C    -47.221300   38.075200   96.068200
  H    -48.024000   37.517500   96.500100
  H    -47.105200   37.846500   95.003500
  C    -47.505200   39.601400   96.197900
  H    -47.433700   39.893700   97.229700
  H    -46.743100   40.108600   95.623900
  C    -48.844000   40.001900   95.731900
  H    -48.880400   39.917300   94.688600
  H    -49.725700   39.422100   96.077000
  H    -49.002500   41.010000   96.105400
  S    -42.189400   36.339200   99.983100
  C    -42.255300   36.540200  101.720000
  C    -43.294000   37.340100  102.149000
  C    -44.075600   37.793900  101.051000
  C    -43.685500   37.275700   99.819200
  H    -43.352600   37.628600  103.214000
  C    -45.230900   38.764300  101.344000
  H    -45.697600   39.211700  100.419000
  H    -44.849100   39.630400  101.838000
  C    -46.297500   38.113200  102.232000
  H    -46.024100   38.021900  103.282000
  H    -46.237200   37.102900  101.899000
  C    -47.660900   38.886200  102.129000
  H    -47.456400   39.906800  102.274000
  H    -48.334200   38.468300  102.887000
  H    -48.159000   38.762300  101.193000
  H    -44.713000   37.818600   95.022100
  H    -41.564900   35.967500  102.296000

 Total Charge           Charge          ....    0
 Multiplicity           Mult            ....    1
 Number of Electrons    NEL             ....  134
 Basis Dimension        Dim             ....  322

ORBITAL ENERGIES
----------------

  NO   OCC          E(Eh)            E(eV)
   0   2.0000     -88.966063     -2420.8896
   1   2.0000     -88.965373     -2420.8709
   2   2.0000     -10.336354      -281.2665
   3   2.0000     -10.330411      -281.1048
   4   2.0000     -10.318497      -280.7806
   5   2.0000     -10.306590      -280.4566
   6   2.0000     -10.303825      -280.3813
   7   2.0000     -10.302220      -280.3376
   8   2.0000     -10.300156      -280.2815
   9   2.0000     -10.298579      -280.2386
  10   2.0000     -10.292502      -280.0732
  11   2.0000     -10.291548      -280.0473
  12   2.0000     -10.284658      -279.8598
  13   2.0000     -10.280401      -279.7439
  14   2.0000     -10.278798      -279.7003
  15   2.0000     -10.271259      -279.4952
  16   2.0000      -8.080510      -219.8819
  17   2.0000      -8.080094      -219.8705
  18   2.0000      -6.039032      -164.3304
  19   2.0000      -6.038505      -164.3161
  20   2.0000      -6.035351      -164.2303
  21   2.0000      -6.034682      -164.2120
  22   2.0000      -6.030990      -164.1116
  23   2.0000      -6.030884      -164.1087
  24   2.0000      -1.001628       -27.2557
  25   2.0000      -0.981554       -26.7094
  26   2.0000      -0.914980       -24.8979
  27   2.0000      -0.909112       -24.7382
  28   2.0000      -0.868554       -23.6346
  29   2.0000      -0.851379       -23.1672
  30   2.0000      -0.846261       -23.0279
  31   2.0000      -0.813626       -22.1399
  32   2.0000      -0.783486       -21.3197
  33   2.0000      -0.770548       -20.9677
  34   2.0000      -0.708624       -19.2826
  35   2.0000      -0.699443       -19.0328
  36   2.0000      -0.695162       -18.9163
  37   2.0000      -0.662925       -18.0391
  38   2.0000      -0.640426       -17.4269
  39   2.0000      -0.618894       -16.8410
  40   2.0000      -0.600235       -16.3332
  41   2.0000      -0.575670       -15.6648
  42   2.0000      -0.565071       -15.3764
  43   2.0000      -0.563073       -15.3220
  44   2.0000      -0.529999       -14.4220
  45   2.0000      -0.528895       -14.3920
  46   2.0000      -0.522951       -14.2302
  47   2.0000      -0.505490       -13.7551
  48   2.0000      -0.502081       -13.6623
  49   2.0000      -0.497774       -13.5451
  50   2.0000      -0.488730       -13.2990
  51   2.0000      -0.484562       -13.1856
  52   2.0000      -0.471875       -12.8404
  53   2.0000      -0.466277       -12.6880
  54   2.0000      -0.463878       -12.6228
  55   2.0000      -0.450989       -12.2720
  56   2.0000      -0.445211       -12.1148
  57   2.0000      -0.440998       -12.0002
  58   2.0000      -0.434703       -11.8289
  59   2.0000      -0.427805       -11.6412
  60   2.0000      -0.420704       -11.4479
  61   2.0000      -0.415418       -11.3041
  62   2.0000      -0.414557       -11.2807
  63   2.0000      -0.352054        -9.5799
  64   2.0000      -0.333332        -9.0704
  65   2.0000      -0.326167        -8.8754
  66   2.0000      -0.283476        -7.7138
  67   0.0000       0.020708         0.5635
  68   0.0000       0.071562         1.9473
  69   0.0000       0.100869         2.7448
  70   0.0000       0.119004         3.2383
  71   0.0000       0.125108         3.4044

MULLIKEN ATOMIC CHARGES
-----------------------
   0 S :    0.100482
   1 C :   -0.063068
   2 C :   -0.111617
   3 C :    0.014738
   4 C :   -0.121777
   5 H :    0.012101
   6 C :    0.079680
   7 H :    0.019794
   8 H :    0.021154
   9 C :   -0.077466
  10 H :    0.020419
  11 H :    0.024840
  12 C :   -0.007533
  13 H :    0.015690
  14 H :    0.025664
  15 H :    0.032829
  16 S :    0.100263
  17 C :   -0.088910
  18 C :   -0.033300
  19 C :   -0.054009
  20 C :   -0.156799
  21 H :    0.039542
  22 C :    0.054898
  23 H :    0.029041
  24 H :    0.021742
  25 C :   -0.097101
  26 H :    0.029699
  27 H :    0.028149
  28 C :   -0.019389
  29 H :    0.028767
  30 H :    0.037831
  31 H :    0.027648
  32 H :    0.012745
  33 H :    0.053255
Sum of atomic charges:    0.0000000

LOEWDIN ATOMIC CHARGES
----------------------
   0 S :    0.397608
   1 C :   -0.199127
   2 C :   -0.055351
   3 C :   -0.061020
   4 C :   -0.174242
   5 H :    0.026944
   6 C :   -0.022077
   7 H :    0.022838
   8 H :    0.029711
   9 C :   -0.036156
  10 H :    0.019686
  11 H :    0.025759
  12 C :   -0.063836
  13 H :    0.016739
  14 H :    0.027381
  15 H :    0.030100
  16 S :    0.395340
  17 C :   -0.168875
  18 C :   -0.074255
  19 C :   -0.053078
  20 C :   -0.199468
  21 H :    0.042083
  22 C :   -0.033884
  23 H :    0.032981
  24 H :    0.025446
  25 C :   -0.041746
  26 H :    0.022920
  27 H :    0.019654
  28 C :   -0.054703
  29 H :    0.020754
  30 H :    0.030393
  31 H :    0.020596
  32 H :    0.010235
  33 H :    0.020650

  Mayer bond orders larger than 0.100000
B(  0-S ,  1-C ) :   1.1334 B(  0-S ,  4-C ) :   1.1526 B(  1-C ,  2-C ) :   1.6162
B(  1-C , 32-H ) :   0.9695 B(  2-C ,  3-C ) :   1.2373 B(  2-C ,  6-C ) :   1.0389
B(  3-C ,  4-C ) :   1.5543 B(  3-C ,  5-H ) :   0.9970 B(  4-C , 20-C ) :   1.0613
B(  6-C ,  7-H ) :   0.9408 B(  6-C ,  8-H ) :   0.9397 B(  6-C ,  9-C ) :   1.0611
B(  9-C , 10-H ) :   0.9611 B(  9-C , 11-H ) :   0.9512 B(  9-C , 12-C ) :   1.0933
B( 12-C , 13-H ) :   0.9710 B( 12-C , 14-H ) :   0.9710 B( 12-C , 15-H ) :   0.9709
B( 16-S , 17-C ) :   1.1668 B( 16-S , 20-C ) :   1.1295 B( 17-C , 18-C ) :   1.5986
B( 17-C , 33-H ) :   0.9709 B( 18-C , 19-C ) :   1.2310 B( 18-C , 21-H ) :   0.9896
B( 19-C , 20-C ) :   1.5941 B( 19-C , 22-C ) :   1.0439 B( 22-C , 23-H ) :   0.9465
B( 22-C , 24-H ) :   0.9248 B( 22-C , 25-C ) :   1.0404 B( 25-C , 26-H ) :   0.9518
B( 25-C , 27-H ) :   0.9654 B( 25-C , 28-C ) :   1.0752 B( 28-C , 29-H ) :   0.9732
B( 28-C , 30-H ) :   0.9753 B( 28-C , 31-H ) :   0.9783

Dispersion correction           -0.014126213
FINAL SINGLE POINT ENERGY     -1339.870988091737

DIPOLE MOMENT
-------------
                                X             Y             Z
Electronic contribution:     29.77566     -13.30395      -2.46750
Nuclear contribution   :    -30.37229      13.69701       2.77965
                        -----------------------------------------
Total Dipole Moment    :     -0.59663       0.39306       0.31215
                        -----------------------------------------
Magnitude (a.u.)       :      0.77968
Magnitude (Debye)      :      1.98179

Rotational constants in cm-1:     0.017727     0.009134     0.006278
Rotational constants in MHz :   531.444160   273.819243   188.218687

                             ****ORCA TERMINATED NORMALLY****
TOTAL RUN TIME: 0 days 0 hours 0 minutes 32 seconds 53 msec
