                         Program Version 4.2.1 -  RELEASE  -
|  1> ! wB97X-D3 SP def2-SVP
|  2> %pal
|  3> nprocs 16
|  4> end
|  5>
|  6> * xyz 0 1
|  7> S 	 -62.7226 	 36.6513 	 134.457
|  8> C 	 -61.3053 	 35.9139 	 135.213
|  9> C 	 -60.4851 	 35.3318 	 134.262
| 10> C 	 -61.0689 	 35.3577 	 132.939
| 11> C 	 -62.2101 	 36.1612 	 132.89
| 12> H 	 -60.7982 	 34.8762 	 131.994
| 13> C 	 -59.0866 	 34.661 	 134.47
| 14> H 	 -59.0016 	 33.8772 	 133.728
| 15> H 	 -59.1 	 34.2088 	 135.454
| 16> C 	 -58.0233 	 35.7234 	 134.19
| 17> H 	 -58.1314 	 36.3785 	 133.364
| 18> H 	 -58.1121 	 36.53 	 134.866
| 19> C 	 -56.6374 	 35.2679 	 134.561
| 20> H 	 -56.7285 	 35.2237 	 135.605
| 21> H 	 -56.4533 	 34.2125 	 134.245
| 22> H 	 -55.748 	 35.8837 	 134.304
| 23> S 	 -64.5895 	 35.4871 	 131.662
| 24> C 	 -64.8443 	 35.7817 	 129.979
| 25> C 	 -63.9468 	 36.7246 	 129.472
| 26> C 	 -62.9112 	 36.9243 	 130.422
| 27> C 	 -63.0706 	 36.3543 	 131.672
| 28> H 	 -63.8993 	 37.0539 	 128.477
| 29> C 	 -61.5863 	 37.5809 	 130.014
| 30> H 	 -61.6616 	 37.8679 	 129.005
| 31> H 	 -60.8472 	 36.7525 	 129.969
| 32> C 	 -61.166 	 38.8453 	 130.783
| 33> H 	 -61.2944 	 38.706 	 131.784
| 34> H 	 -61.8518 	 39.6825 	 130.51
| 35> C 	 -59.7249 	 39.366 	 130.329
| 36> H 	 -59.8675 	 39.2961 	 129.239
| 37> H 	 -58.8673 	 38.7356 	 130.535
| 38> H 	 -59.5114 	 40.385 	 130.535
| 39> H 	 -60.9371 	 36.04 	 136.275
| 40> H 	 -65.7287 	 35.5468 	 129.508
| 41> *
| 42>
| 43>                          ****END OF INPUT****

CARTESIAN COORDINATES (ANGSTROEM)
---------------------------------
  S    -62.722600   36.651300  134.457000
  C    -61.305300   35.913900  135.213000
  C    -60.485100   35.331800  134.262000
  C    -61.068900   35.357700  132.939000
  C    -62.210100   36.161200  132.890000
  H    -60.798200   34.876200  131.994000
  C    -59.086600   34.661000  134.470000
  H    -59.001600   33.877200  133.728000
  H    -59.100000   34.208800  135.454000
  C    -58.023300   35.723400  134.190000
  H    -58.131400   36.378500  133.364000
  H    -58.112100   36.530000  134.866000
  C    -56.637400   35.267900  134.561000
  H    -56.728500   35.223700  135.605000
  H    -56.453300   34.212500  134.245000
  H    -55.748000   35.883700  134.304000
  S    -64.589500   35.487100  131.662000
  C    -64.844300   35.781700  129.979000
  C    -63.946800   36.724600  129.472000
  C    -62.911200   36.924300  130.422000
  C    -63.070600   36.354300  131.672000
  H    -63.899300   37.053900  128.477000
  C    -61.586300   37.580900  130.014000
  H    -61.661600   37.867900  129.005000
  H    -60.847200   36.752500  129.969000
  C    -61.166000   38.845300  130.783000
  H    -61.294400   38.706000  131.784000
  H    -61.851800   39.682500  130.510000
  C    -59.724900   39.366000  130.329000
  H    -59.867500   39.296100  129.239000
  H    -58.867300   38.735600  130.535000
  H    -59.511400   40.385000  130.535000
  H    -60.937100   36.040000  136.275000
  H    -65.728700   35.546800  129.508000

 Total Charge           Charge          ....    0
 Multiplicity           Mult            ....    1
 Number of Electrons    NEL             ....  134
 Basis Dimension        Dim             ....  322

ORBITAL ENERGIES
----------------

  NO   OCC          E(Eh)            E(eV)
   0   2.0000     -88.970051     -2420.9982
   1   2.0000     -88.963453     -2420.8186
   2   2.0000     -10.333232      -281.1815
   3   2.0000     -10.326399      -280.9956
   4   2.0000     -10.320813      -280.8436
   5   2.0000     -10.314299      -280.6663
   6   2.0000     -10.308020      -280.4955
   7   2.0000     -10.302408      -280.3428
   8   2.0000     -10.299875      -280.2738
   9   2.0000     -10.297630      -280.2128
  10   2.0000     -10.293515      -280.1008
  11   2.0000     -10.287251      -279.9303
  12   2.0000     -10.282722      -279.8071
  13   2.0000     -10.277301      -279.6596
  14   2.0000     -10.276901      -279.6487
  15   2.0000     -10.276190      -279.6293
  16   2.0000      -8.084661      -219.9948
  17   2.0000      -8.078852      -219.8367
  18   2.0000      -6.043263      -164.4455
  19   2.0000      -6.039096      -164.3321
  20   2.0000      -6.037223      -164.2812
  21   2.0000      -6.035412      -164.2319
  22   2.0000      -6.033133      -164.1699
  23   2.0000      -6.029834      -164.0801
  24   2.0000      -1.007116       -27.4050
  25   2.0000      -0.986227       -26.8366
  26   2.0000      -0.917655       -24.9707
  27   2.0000      -0.902954       -24.5706
  28   2.0000      -0.868422       -23.6310
  29   2.0000      -0.848786       -23.0966
  30   2.0000      -0.846487       -23.0341
  31   2.0000      -0.813277       -22.1304
  32   2.0000      -0.781426       -21.2637
  33   2.0000      -0.771517       -20.9940
  34   2.0000      -0.710687       -19.3388
  35   2.0000      -0.708573       -19.2812
  36   2.0000      -0.691161       -18.8075
  37   2.0000      -0.671432       -18.2706
  38   2.0000      -0.641653       -17.4603
  39   2.0000      -0.612871       -16.6771
  40   2.0000      -0.595527       -16.2051
  41   2.0000      -0.572173       -15.5696
  42   2.0000      -0.561818       -15.2878
  43   2.0000      -0.558824       -15.2064
  44   2.0000      -0.533634       -14.5209
  45   2.0000      -0.524431       -14.2705
  46   2.0000      -0.517537       -14.0829
  47   2.0000      -0.506563       -13.7843
  48   2.0000      -0.501954       -13.6589
  49   2.0000      -0.499692       -13.5973
  50   2.0000      -0.497223       -13.5301
  51   2.0000      -0.481056       -13.0902
  52   2.0000      -0.472006       -12.8439
  53   2.0000      -0.467290       -12.7156
  54   2.0000      -0.460200       -12.5227
  55   2.0000      -0.450980       -12.2718
  56   2.0000      -0.445286       -12.1169
  57   2.0000      -0.442714       -12.0468
  58   2.0000      -0.432936       -11.7808
  59   2.0000      -0.422174       -11.4879
  60   2.0000      -0.417779       -11.3684
  61   2.0000      -0.412462       -11.2237
  62   2.0000      -0.402351       -10.9485
  63   2.0000      -0.340197        -9.2572
  64   2.0000      -0.331197        -9.0123
  65   2.0000      -0.328074        -8.9273
  66   2.0000      -0.303334        -8.2541
  67   0.0000       0.038305         1.0423
  68   0.0000       0.057705         1.5702
  69   0.0000       0.115141         3.1332
  70   0.0000       0.122723         3.3395
  71   0.0000       0.129345         3.5196

MULLIKEN ATOMIC CHARGES
-----------------------
   0 S :    0.119374
   1 C :   -0.134808
   2 C :   -0.120780
   3 C :    0.040285
   4 C :   -0.168355
   5 H :    0.027052
   6 C :    0.098086
   7 H :    0.027945
   8 H :    0.027903
   9 C :   -0.036675
  10 H :    0.013683
  11 H :   -0.001570
  12 C :   -0.034694
  13 H :    0.012898
  14 H :    0.023662
  15 H :    0.046418
  16 S :    0.107533
  17 C :   -0.060968
  18 C :   -0.006730
  19 C :   -0.082616
  20 C :   -0.149879
  21 H :    0.007508
  22 C :    0.069120
  23 H :   -0.012105
  24 H :    0.037609
  25 C :   -0.040780
  26 H :    0.020346
  27 H :    0.030784
  28 C :   -0.048944
  29 H :    0.015292
  30 H :    0.036689
  31 H :    0.032798
  32 H :    0.069248
  33 H :    0.034671
Sum of atomic charges:    0.0000000

LOEWDIN ATOMIC CHARGES
----------------------
   0 S :    0.414488
   1 C :   -0.214242
   2 C :   -0.055651
   3 C :   -0.064716
   4 C :   -0.206528
   5 H :    0.036802
   6 C :   -0.013346
   7 H :    0.030099
   8 H :    0.030419
   9 C :   -0.051991
  10 H :    0.023563
  11 H :    0.023674
  12 C :   -0.065743
  13 H :    0.018541
  14 H :    0.022864
  15 H :    0.032172
  16 S :    0.423256
  17 C :   -0.171882
  18 C :   -0.065167
  19 C :   -0.055405
  20 C :   -0.209381
  21 H :    0.025892
  22 C :   -0.031886
  23 H :    0.016906
  24 H :    0.034702
  25 C :   -0.025214
  26 H :    0.004706
  27 H :    0.032734
  28 C :   -0.065077
  29 H :    0.026731
  30 H :    0.022865
  31 H :    0.020466
  32 H :    0.044154
  33 H :    0.011195

  Mayer bond orders larger than 0.100000
B(  0-S ,  1-C ) :   1.1244 B(  0-S ,  4-C ) :   1.1652 B(  1-C ,  2-C ) :   1.6413
B(  1-C , 32-H ) :   0.9575 B(  2-C ,  3-C ) :   1.2184 B(  2-C ,  6-C ) :   1.0123
B(  3-C ,  4-C ) :   1.5929 B(  3-C ,  5-H ) :   0.9860 B(  4-C , 20-C ) :   0.9860
B(  6-C ,  7-H ) :   0.9408 B(  6-C ,  8-H ) :   0.9460 B(  6-C ,  9-C ) :   1.0520
B(  9-C , 10-H ) :   0.9556 B(  9-C , 11-H ) :   0.9512 B(  9-C , 12-C ) :   1.0538
B( 12-C , 13-H ) :   0.9826 B( 12-C , 14-H ) :   0.9741 B( 12-C , 15-H ) :   0.9743
B( 16-S , 17-C ) :   1.1979 B( 16-S , 20-C ) :   1.1425 B( 17-C , 18-C ) :   1.5616
B( 17-C , 20-C ) :   0.1016 B( 17-C , 33-H ) :   0.9704 B( 18-C , 19-C ) :   1.2862
B( 18-C , 21-H ) :   0.9945 B( 19-C , 20-C ) :   1.6046 B( 19-C , 22-C ) :   1.0318
B( 22-C , 23-H ) :   0.9242 B( 22-C , 24-H ) :   0.9406 B( 22-C , 25-C ) :   1.0517
B( 25-C , 26-H ) :   0.9691 B( 25-C , 27-H ) :   0.9529 B( 25-C , 28-C ) :   1.0608
B( 28-C , 29-H ) :   0.9749 B( 28-C , 30-H ) :   0.9801 B( 28-C , 31-H ) :   0.9787

Dispersion correction           -0.014292706
FINAL SINGLE POINT ENERGY     -1339.844460567759

DIPOLE MOMENT
-------------
                                X             Y             Z
Electronic contribution:    -29.67557      -6.36878       3.99520
Nuclear contribution   :     30.20663       6.39872      -4.24984
                        -----------------------------------------
Total Dipole Moment    :      0.53106       0.02994      -0.25464
                        -----------------------------------------
Magnitude (a.u.)       :      0.58971
Magnitude (Debye)      :      1.49893

Rotational constants in cm-1:     0.018337     0.008781     0.006897
Rotational constants in MHz :   549.727583   263.249594   206.758063

                             ****ORCA TERMINATED NORMALLY****
TOTAL RUN TIME: 0 days 0 hours 0 minutes 35 seconds 287 msec
