                         Program Version 4.2.1 -  RELEASE  -
|  1> ! wB97X-D3 SP def2-SVP
|  2> %pal
|  3> nprocs 16
|  4> end
|  5>
|  6> * xyz 0 1
|  7> S 	 37.9294 	 29.983 	 92.1969
|  8> C 	 36.8957 	 30.3218 	 90.8319
|  9> C 	 35.5702 	 30.1092 	 90.9967
| 10> C 	 35.3509 	 29.5873 	 92.3211
| 11> C 	 36.5045 	 29.395 	 93.0809
| 12> H 	 34.3273 	 29.5812 	 92.7055
| 13> C 	 34.5524 	 30.6289 	 90.0622
| 14> H 	 35.0082 	 30.3986 	 89.0679
| 15> H 	 34.4797 	 31.6595 	 90.2341
| 16> C 	 33.1337 	 29.9563 	 90.0189
| 17> H 	 32.7391 	 30.1504 	 91.0212
| 18> H 	 32.4637 	 30.5192 	 89.324
| 19> C 	 33.0745 	 28.4472 	 89.6828
| 20> H 	 33.6322 	 27.8378 	 90.3547
| 21> H 	 31.9685 	 28.1983 	 89.695
| 22> H 	 33.5972 	 28.3673 	 88.7165
| 23> S 	 37.2438 	 30.3928 	 95.5381
| 24> C 	 37.038 	 29.3961 	 97.0053
| 25> C 	 36.4344 	 28.2057 	 96.6708
| 26> C 	 36.1947 	 28.0217 	 95.2566
| 27> C 	 36.5441 	 29.1453 	 94.4999
| 28> H 	 36.1261 	 27.5524 	 97.5519
| 29> C 	 35.5911 	 26.7564 	 94.6675
| 30> H 	 35.6534 	 26.9687 	 93.5797
| 31> H 	 34.479 	 26.6143 	 94.8552
| 32> C 	 36.2539 	 25.4777 	 95.1493
| 33> H 	 36.0479 	 25.3135 	 96.285
| 34> H 	 37.3071 	 25.6119 	 95.0624
| 35> C 	 35.9883 	 24.1404 	 94.3435
| 36> H 	 36.3433 	 24.0361 	 93.262
| 37> H 	 34.9866 	 23.8561 	 94.304
| 38> H 	 36.4113 	 23.4434 	 95.0236
| 39> H 	 37.2759 	 30.7512 	 89.9142
| 40> H 	 37.315 	 29.7847 	 97.9953
| 41> *
| 42>
| 43>                          ****END OF INPUT****

CARTESIAN COORDINATES (ANGSTROEM)
---------------------------------
  S     37.929400   29.983000   92.196900
  C     36.895700   30.321800   90.831900
  C     35.570200   30.109200   90.996700
  C     35.350900   29.587300   92.321100
  C     36.504500   29.395000   93.080900
  H     34.327300   29.581200   92.705500
  C     34.552400   30.628900   90.062200
  H     35.008200   30.398600   89.067900
  H     34.479700   31.659500   90.234100
  C     33.133700   29.956300   90.018900
  H     32.739100   30.150400   91.021200
  H     32.463700   30.519200   89.324000
  C     33.074500   28.447200   89.682800
  H     33.632200   27.837800   90.354700
  H     31.968500   28.198300   89.695000
  H     33.597200   28.367300   88.716500
  S     37.243800   30.392800   95.538100
  C     37.038000   29.396100   97.005300
  C     36.434400   28.205700   96.670800
  C     36.194700   28.021700   95.256600
  C     36.544100   29.145300   94.499900
  H     36.126100   27.552400   97.551900
  C     35.591100   26.756400   94.667500
  H     35.653400   26.968700   93.579700
  H     34.479000   26.614300   94.855200
  C     36.253900   25.477700   95.149300
  H     36.047900   25.313500   96.285000
  H     37.307100   25.611900   95.062400
  C     35.988300   24.140400   94.343500
  H     36.343300   24.036100   93.262000
  H     34.986600   23.856100   94.304000
  H     36.411300   23.443400   95.023600
  H     37.275900   30.751200   89.914200
  H     37.315000   29.784700   97.995300

 Total Charge           Charge          ....    0
 Multiplicity           Mult            ....    1
 Number of Electrons    NEL             ....  134
 Basis Dimension        Dim             ....  322

ORBITAL ENERGIES
----------------

  NO   OCC          E(Eh)            E(eV)
   0   2.0000     -88.969666     -2420.9877
   1   2.0000     -88.960743     -2420.7449
   2   2.0000     -10.331987      -281.1477
   3   2.0000     -10.327172      -281.0166
   4   2.0000     -10.321494      -280.8621
   5   2.0000     -10.309930      -280.5474
   6   2.0000     -10.306205      -280.4461
   7   2.0000     -10.300789      -280.2987
   8   2.0000     -10.299583      -280.2659
   9   2.0000     -10.296107      -280.1713
  10   2.0000     -10.295009      -280.1414
  11   2.0000     -10.293436      -280.0986
  12   2.0000     -10.291962      -280.0585
  13   2.0000     -10.291625      -280.0493
  14   2.0000     -10.284971      -279.8683
  15   2.0000     -10.276280      -279.6318
  16   2.0000      -8.084037      -219.9778
  17   2.0000      -8.074990      -219.7317
  18   2.0000      -6.042582      -164.4270
  19   2.0000      -6.038728      -164.3221
  20   2.0000      -6.034644      -164.2110
  21   2.0000      -6.033613      -164.1830
  22   2.0000      -6.029543      -164.0722
  23   2.0000      -6.025673      -163.9669
  24   2.0000      -1.004129       -27.3237
  25   2.0000      -0.979837       -26.6627
  26   2.0000      -0.913287       -24.8518
  27   2.0000      -0.900021       -24.4908
  28   2.0000      -0.870782       -23.6952
  29   2.0000      -0.848728       -23.0951
  30   2.0000      -0.840102       -22.8603
  31   2.0000      -0.816357       -22.2142
  32   2.0000      -0.783756       -21.3271
  33   2.0000      -0.771192       -20.9852
  34   2.0000      -0.711647       -19.3649
  35   2.0000      -0.695245       -18.9186
  36   2.0000      -0.691594       -18.8192
  37   2.0000      -0.648802       -17.6548
  38   2.0000      -0.634779       -17.2732
  39   2.0000      -0.623175       -16.9574
  40   2.0000      -0.590839       -16.0775
  41   2.0000      -0.565804       -15.3963
  42   2.0000      -0.559923       -15.2363
  43   2.0000      -0.555775       -15.1234
  44   2.0000      -0.542944       -14.7743
  45   2.0000      -0.530661       -14.4400
  46   2.0000      -0.515692       -14.0327
  47   2.0000      -0.505955       -13.7677
  48   2.0000      -0.496118       -13.5001
  49   2.0000      -0.493583       -13.4311
  50   2.0000      -0.490375       -13.3438
  51   2.0000      -0.484198       -13.1757
  52   2.0000      -0.472149       -12.8478
  53   2.0000      -0.460250       -12.5240
  54   2.0000      -0.455781       -12.4024
  55   2.0000      -0.449560       -12.2331
  56   2.0000      -0.438477       -11.9316
  57   2.0000      -0.436291       -11.8721
  58   2.0000      -0.432187       -11.7604
  59   2.0000      -0.428538       -11.6611
  60   2.0000      -0.413771       -11.2593
  61   2.0000      -0.412830       -11.2337
  62   2.0000      -0.409415       -11.1408
  63   2.0000      -0.344798        -9.3824
  64   2.0000      -0.331618        -9.0238
  65   2.0000      -0.325598        -8.8600
  66   2.0000      -0.295335        -8.0365
  67   0.0000       0.029426         0.8007
  68   0.0000       0.064108         1.7445
  69   0.0000       0.110381         3.0036
  70   0.0000       0.124171         3.3789
  71   0.0000       0.127796         3.4775

MULLIKEN ATOMIC CHARGES
-----------------------
   0 S :    0.122049
   1 C :   -0.129483
   2 C :   -0.085031
   3 C :    0.032129
   4 C :   -0.167657
   5 H :    0.024464
   6 C :    0.051529
   7 H :    0.029578
   8 H :    0.047188
   9 C :   -0.107548
  10 H :    0.022743
  11 H :    0.039223
  12 C :   -0.046224
  13 H :    0.035039
  14 H :    0.056191
  15 H :    0.034227
  16 S :    0.084890
  17 C :   -0.116618
  18 C :   -0.046520
  19 C :   -0.028078
  20 C :   -0.156411
  21 H :    0.049104
  22 C :    0.072162
  23 H :    0.029287
  24 H :    0.041699
  25 C :   -0.136147
  26 H :    0.045192
  27 H :    0.032937
  28 C :   -0.024428
  29 H :    0.054186
  30 H :    0.008985
  31 H :    0.024047
  32 H :    0.037497
  33 H :    0.069801
Sum of atomic charges:    0.0000000

LOEWDIN ATOMIC CHARGES
----------------------
   0 S :    0.401271
   1 C :   -0.187909
   2 C :   -0.074123
   3 C :   -0.051189
   4 C :   -0.195655
   5 H :    0.033823
   6 C :   -0.031386
   7 H :    0.036468
   8 H :    0.032184
   9 C :   -0.046164
  10 H :    0.016625
  11 H :    0.030207
  12 C :   -0.064485
  13 H :    0.019935
  14 H :    0.040194
  15 H :    0.028858
  16 S :    0.375201
  17 C :   -0.176135
  18 C :   -0.081616
  19 C :   -0.056566
  20 C :   -0.195411
  21 H :    0.045196
  22 C :   -0.046051
  23 H :    0.033506
  24 H :    0.036054
  25 C :   -0.045323
  26 H :    0.034045
  27 H :    0.021492
  28 C :   -0.066757
  29 H :    0.038323
  30 H :    0.011829
  31 H :    0.026221
  32 H :    0.023298
  33 H :    0.034038

  Mayer bond orders larger than 0.100000
B(  0-S ,  1-C ) :   1.1392 B(  0-S ,  4-C ) :   1.1353 B(  1-C ,  2-C ) :   1.6421
B(  1-C , 32-H ) :   0.9620 B(  2-C ,  3-C ) :   1.2416 B(  2-C ,  6-C ) :   1.0043
B(  3-C ,  4-C ) :   1.5664 B(  3-C ,  5-H ) :   0.9857 B(  4-C , 20-C ) :   1.0551
B(  6-C ,  7-H ) :   0.9393 B(  6-C ,  8-H ) :   0.9417 B(  6-C ,  9-C ) :   1.0755
B(  9-C , 10-H ) :   0.9505 B(  9-C , 11-H ) :   0.9574 B(  9-C , 12-C ) :   1.0692
B( 12-C , 13-H ) :   0.9759 B( 12-C , 14-H ) :   0.9737 B( 12-C , 15-H ) :   0.9749
B( 16-S , 17-C ) :   1.1372 B( 16-S , 20-C ) :   1.1349 B( 17-C , 18-C ) :   1.6324
B( 17-C , 33-H ) :   0.9666 B( 18-C , 19-C ) :   1.2077 B( 18-C , 21-H ) :   0.9776
B( 19-C , 20-C ) :   1.6057 B( 19-C , 22-C ) :   1.0486 B( 22-C , 23-H ) :   0.9296
B( 22-C , 24-H ) :   0.9342 B( 22-C , 25-C ) :   1.0556 B( 25-C , 26-H ) :   0.9509
B( 25-C , 27-H ) :   0.9611 B( 25-C , 28-C ) :   1.0731 B( 28-C , 29-H ) :   0.9753
B( 28-C , 30-H ) :   0.9741 B( 28-C , 31-H ) :   0.9734

Dispersion correction           -0.013790256
FINAL SINGLE POINT ENERGY     -1339.866822513000

DIPOLE MOMENT
-------------
                                X             Y             Z
Electronic contribution:     17.97122      18.49748      10.13287
Nuclear contribution   :    -18.52207     -18.60117     -10.27075
                        -----------------------------------------
Total Dipole Moment    :     -0.55085      -0.10369      -0.13788
                        -----------------------------------------
Magnitude (a.u.)       :      0.57724
Magnitude (Debye)      :      1.46722

Rotational constants in cm-1:     0.016353     0.008905     0.006814
Rotational constants in MHz :   490.255554   266.965828   204.273925

                             ****ORCA TERMINATED NORMALLY****
TOTAL RUN TIME: 0 days 0 hours 0 minutes 29 seconds 394 msec
