                         Program Version 4.2.1 -  RELEASE  -
|  1> ! wB97X-D3 SP def2-SVP
|  2> %pal
|  3> nprocs 16
|  4> end
|  5>
|  6> * xyz 0 1
|  7> S 	 5.41851 	 22.6024 	 41.6648
|  8> C 	 4.17948 	 22.2761 	 42.9137
|  9> C 	 3.53305 	 23.4593 	 43.2075
| 10> C 	 3.98938 	 24.568 	 42.4473
| 11> C 	 5.05698 	 24.2568 	 41.6163
| 12> H 	 3.69623 	 25.5608 	 42.5253
| 13> C 	 2.17446 	 23.6162 	 43.8212
| 14> H 	 2.03019 	 24.7087 	 44.0858
| 15> H 	 2.17423 	 23.3049 	 44.7853
| 16> C 	 1.01507 	 23.2306 	 42.9384
| 17> H 	 1.17869 	 23.7478 	 41.9332
| 18> H 	 1.02121 	 22.235 	 42.5651
| 19> C 	 -0.358057 	 23.5705 	 43.4843
| 20> H 	 -0.386838 	 24.6247 	 43.6851
| 21> H 	 -1.06229 	 23.4308 	 42.717
| 22> H 	 -0.684926 	 22.913 	 44.2907
| 23> S 	 7.53527 	 25.3164 	 40.968
| 24> C 	 7.62615 	 26.7535 	 39.8963
| 25> C 	 6.38733 	 27.0257 	 39.4093
| 26> C 	 5.35139 	 26.2404 	 39.9634
| 27> C 	 5.80828 	 25.1484 	 40.7183
| 28> H 	 6.35997 	 27.9228 	 38.8025
| 29> C 	 3.856 	 26.534 	 39.7604
| 30> H 	 3.48432 	 26.9672 	 40.7031
| 31> H 	 3.30276 	 25.5408 	 39.6508
| 32> C 	 3.47718 	 27.2118 	 38.413
| 33> H 	 3.74313 	 26.6059 	 37.5149
| 34> H 	 4.01967 	 28.2234 	 38.5289
| 35> C 	 2.01936 	 27.4905 	 38.1731
| 36> H 	 1.43427 	 27.2907 	 39.1178
| 37> H 	 1.54055 	 26.9268 	 37.3607
| 38> H 	 1.86946 	 28.5707 	 38.0415
| 39> H 	 3.75298 	 21.3301 	 43.1721
| 40> H 	 8.44966 	 27.3568 	 39.6093
| 41> *
| 42>
| 43>                          ****END OF INPUT****

CARTESIAN COORDINATES (ANGSTROEM)
---------------------------------
  S      5.418510   22.602400   41.664800
  C      4.179480   22.276100   42.913700
  C      3.533050   23.459300   43.207500
  C      3.989380   24.568000   42.447300
  C      5.056980   24.256800   41.616300
  H      3.696230   25.560800   42.525300
  C      2.174460   23.616200   43.821200
  H      2.030190   24.708700   44.085800
  H      2.174230   23.304900   44.785300
  C      1.015070   23.230600   42.938400
  H      1.178690   23.747800   41.933200
  H      1.021210   22.235000   42.565100
  C     -0.358057   23.570500   43.484300
  H     -0.386838   24.624700   43.685100
  H     -1.062290   23.430800   42.717000
  H     -0.684926   22.913000   44.290700
  S      7.535270   25.316400   40.968000
  C      7.626150   26.753500   39.896300
  C      6.387330   27.025700   39.409300
  C      5.351390   26.240400   39.963400
  C      5.808280   25.148400   40.718300
  H      6.359970   27.922800   38.802500
  C      3.856000   26.534000   39.760400
  H      3.484320   26.967200   40.703100
  H      3.302760   25.540800   39.650800
  C      3.477180   27.211800   38.413000
  H      3.743130   26.605900   37.514900
  H      4.019670   28.223400   38.528900
  C      2.019360   27.490500   38.173100
  H      1.434270   27.290700   39.117800
  H      1.540550   26.926800   37.360700
  H      1.869460   28.570700   38.041500
  H      3.752980   21.330100   43.172100
  H      8.449660   27.356800   39.609300

 Total Charge           Charge          ....    0
 Multiplicity           Mult            ....    1
 Number of Electrons    NEL             ....  134
 Basis Dimension        Dim             ....  322

ORBITAL ENERGIES
----------------

  NO   OCC          E(Eh)            E(eV)
   0   2.0000     -88.967273     -2420.9226
   1   2.0000     -88.965516     -2420.8748
   2   2.0000     -10.328613      -281.0559
   3   2.0000     -10.328207      -281.0448
   4   2.0000     -10.316805      -280.7345
   5   2.0000     -10.314621      -280.6751
   6   2.0000     -10.307259      -280.4748
   7   2.0000     -10.300406      -280.2883
   8   2.0000     -10.298234      -280.2292
   9   2.0000     -10.296263      -280.1756
  10   2.0000     -10.291307      -280.0407
  11   2.0000     -10.286384      -279.9067
  12   2.0000     -10.285912      -279.8939
  13   2.0000     -10.283899      -279.8391
  14   2.0000     -10.281617      -279.7770
  15   2.0000     -10.273317      -279.5512
  16   2.0000      -8.082274      -219.9299
  17   2.0000      -8.079411      -219.8520
  18   2.0000      -6.040728      -164.3766
  19   2.0000      -6.038039      -164.3034
  20   2.0000      -6.036637      -164.2652
  21   2.0000      -6.033972      -164.1927
  22   2.0000      -6.033161      -164.1707
  23   2.0000      -6.030121      -164.0879
  24   2.0000      -1.008853       -27.4523
  25   2.0000      -0.985029       -26.8040
  26   2.0000      -0.918586       -24.9960
  27   2.0000      -0.905257       -24.6333
  28   2.0000      -0.873537       -23.7702
  29   2.0000      -0.853434       -23.2231
  30   2.0000      -0.846956       -23.0469
  31   2.0000      -0.818698       -22.2779
  32   2.0000      -0.787286       -21.4231
  33   2.0000      -0.770389       -20.9634
  34   2.0000      -0.708498       -19.2792
  35   2.0000      -0.705704       -19.2032
  36   2.0000      -0.692659       -18.8482
  37   2.0000      -0.651470       -17.7274
  38   2.0000      -0.644242       -17.5307
  39   2.0000      -0.623348       -16.9621
  40   2.0000      -0.592574       -16.1248
  41   2.0000      -0.577026       -15.7017
  42   2.0000      -0.572288       -15.5728
  43   2.0000      -0.563091       -15.3225
  44   2.0000      -0.529813       -14.4169
  45   2.0000      -0.528411       -14.3788
  46   2.0000      -0.524649       -14.2764
  47   2.0000      -0.510207       -13.8834
  48   2.0000      -0.509659       -13.8685
  49   2.0000      -0.502205       -13.6657
  50   2.0000      -0.492917       -13.4129
  51   2.0000      -0.479329       -13.0432
  52   2.0000      -0.476024       -12.9533
  53   2.0000      -0.464399       -12.6369
  54   2.0000      -0.457881       -12.4596
  55   2.0000      -0.450406       -12.2562
  56   2.0000      -0.447772       -12.1845
  57   2.0000      -0.439172       -11.9505
  58   2.0000      -0.429960       -11.6998
  59   2.0000      -0.423656       -11.5283
  60   2.0000      -0.417058       -11.3487
  61   2.0000      -0.403589       -10.9822
  62   2.0000      -0.394180       -10.7262
  63   2.0000      -0.351077        -9.5533
  64   2.0000      -0.333968        -9.0877
  65   2.0000      -0.326772        -8.8919
  66   2.0000      -0.294710        -8.0195
  67   0.0000       0.028771         0.7829
  68   0.0000       0.065651         1.7865
  69   0.0000       0.109310         2.9745
  70   0.0000       0.119888         3.2623
  71   0.0000       0.133674         3.6375

MULLIKEN ATOMIC CHARGES
-----------------------
   0 S :    0.110692
   1 C :   -0.105246
   2 C :   -0.077117
   3 C :    0.033316
   4 C :   -0.150466
   5 H :   -0.021492
   6 C :    0.095626
   7 H :    0.006694
   8 H :   -0.008085
   9 C :   -0.074563
  10 H :    0.022587
  11 H :    0.011448
  12 C :    0.001295
  13 H :    0.024398
  14 H :    0.015211
  15 H :    0.039305
  16 S :    0.098063
  17 C :   -0.077405
  18 C :   -0.045891
  19 C :   -0.038897
  20 C :   -0.108253
  21 H :    0.023260
  22 C :    0.002536
  23 H :    0.049741
  24 H :    0.046854
  25 C :   -0.116369
  26 H :    0.054006
  27 H :    0.044703
  28 C :   -0.048356
  29 H :    0.025429
  30 H :    0.046793
  31 H :    0.033555
  32 H :    0.045082
  33 H :    0.041546
Sum of atomic charges:   -0.0000000

LOEWDIN ATOMIC CHARGES
----------------------
   0 S :    0.423858
   1 C :   -0.187694
   2 C :   -0.058607
   3 C :   -0.059619
   4 C :   -0.203489
   5 H :    0.018192
   6 C :   -0.033734
   7 H :    0.036230
   8 H :    0.013269
   9 C :   -0.042834
  10 H :    0.032297
  11 H :    0.016635
  12 C :   -0.057525
  13 H :    0.023997
  14 H :    0.022685
  15 H :    0.028653
  16 S :    0.391308
  17 C :   -0.165061
  18 C :   -0.077278
  19 C :   -0.055524
  20 C :   -0.204744
  21 H :    0.035060
  22 C :   -0.044723
  23 H :    0.031454
  24 H :    0.039314
  25 C :   -0.056671
  26 H :    0.037776
  27 H :    0.030243
  28 C :   -0.076992
  29 H :    0.029578
  30 H :    0.028528
  31 H :    0.030604
  32 H :    0.027049
  33 H :    0.027764

  Mayer bond orders larger than 0.100000
B(  0-S ,  1-C ) :   1.1296 B(  0-S ,  4-C ) :   1.1818 B(  1-C ,  2-C ) :   1.6065
B(  1-C , 32-H ) :   0.9735 B(  2-C ,  3-C ) :   1.2469 B(  2-C ,  6-C ) :   1.0404
B(  3-C ,  4-C ) :   1.5470 B(  3-C ,  5-H ) :   1.0092 B(  4-C , 20-C ) :   1.0023
B(  6-C ,  7-H ) :   0.9327 B(  6-C ,  8-H ) :   0.9265 B(  6-C ,  9-C ) :   1.0504
B(  9-C , 10-H ) :   0.9479 B(  9-C , 11-H ) :   0.9527 B(  9-C , 12-C ) :   1.0928
B( 12-C , 13-H ) :   0.9724 B( 12-C , 14-H ) :   0.9683 B( 12-C , 15-H ) :   0.9733
B( 16-S , 17-C ) :   1.1464 B( 16-S , 20-C ) :   1.1390 B( 17-C , 18-C ) :   1.6307
B( 17-C , 20-C ) :   0.1018 B( 17-C , 33-H ) :   0.9649 B( 18-C , 19-C ) :   1.2384
B( 18-C , 21-H ) :   0.9892 B( 19-C , 20-C ) :   1.5978 B( 19-C , 22-C ) :   1.0236
B( 22-C , 23-H ) :   0.9301 B( 22-C , 24-H ) :   0.9419 B( 22-C , 25-C ) :   1.0698
B( 25-C , 26-H ) :   0.9637 B( 25-C , 27-H ) :   0.9529 B( 25-C , 28-C ) :   1.0677
B( 28-C , 29-H ) :   0.9728 B( 28-C , 30-H ) :   0.9795 B( 28-C , 31-H ) :   0.9745

Dispersion correction           -0.013904544
FINAL SINGLE POINT ENERGY     -1339.845171701889

DIPOLE MOMENT
-------------
                                X             Y             Z
Electronic contribution:     31.22720      -9.28434       2.52581
Nuclear contribution   :    -31.99411       9.74912      -2.66363
                        -----------------------------------------
Total Dipole Moment    :     -0.76691       0.46478      -0.13782
                        -----------------------------------------
Magnitude (a.u.)       :      0.90728
Magnitude (Debye)      :      2.30612

Rotational constants in cm-1:     0.016455     0.009291     0.006389
Rotational constants in MHz :   493.308148   278.539888   191.528775

                             ****ORCA TERMINATED NORMALLY****
TOTAL RUN TIME: 0 days 0 hours 0 minutes 34 seconds 898 msec
