                         Program Version 4.2.1 -  RELEASE  -
|  1> ! wB97X-D3 SP def2-SVP
|  2> %pal
|  3> nprocs 16
|  4> end
|  5>
|  6> * xyz 0 1
|  7> S 	 50.2968 	 19.8106 	 90.2632
|  8> C 	 48.8083 	 20.7182 	 90.4523
|  9> C 	 48.7535 	 21.7474 	 89.5125
| 10> C 	 49.8235 	 21.7151 	 88.5202
| 11> C 	 50.6263 	 20.5943 	 88.7229
| 12> H 	 49.8416 	 22.1741 	 87.5442
| 13> C 	 47.6523 	 22.7554 	 89.4341
| 14> H 	 48.1901 	 23.6942 	 89.3696
| 15> H 	 47.1594 	 22.8555 	 90.394
| 16> C 	 46.6649 	 22.6525 	 88.2292
| 17> H 	 47.2535 	 22.9131 	 87.383
| 18> H 	 46.3648 	 21.5878 	 88.1333
| 19> C 	 45.4825 	 23.5639 	 88.2275
| 20> H 	 44.9347 	 23.5776 	 87.2933
| 21> H 	 44.7352 	 23.4645 	 89.0368
| 22> H 	 45.9766 	 24.5348 	 88.3936
| 23> S 	 52.4783 	 21.3682 	 86.8694
| 24> C 	 53.489 	 20.1702 	 86.002
| 25> C 	 53.1952 	 18.8845 	 86.4128
| 26> C 	 52.2395 	 18.8677 	 87.5067
| 27> C 	 51.6666 	 20.1068 	 87.7765
| 28> H 	 53.667 	 18.0258 	 85.9413
| 29> C 	 51.9632 	 17.5451 	 88.1528
| 30> H 	 51.0138 	 17.6802 	 88.617
| 31> H 	 52.7279 	 17.34 	 88.9312
| 32> C 	 51.9725 	 16.3343 	 87.2993
| 33> H 	 52.9953 	 16.0681 	 87.1693
| 34> H 	 51.4811 	 16.5376 	 86.359
| 35> C 	 51.2169 	 15.0302 	 87.8749
| 36> H 	 51.6671 	 14.7283 	 88.7923
| 37> H 	 51.3037 	 14.1638 	 87.2354
| 38> H 	 50.1499 	 15.2372 	 88.0839
| 39> H 	 48.0549 	 20.6535 	 91.1811
| 40> H 	 54.1658 	 20.4699 	 85.2377
| 41> *
| 42>
| 43>                          ****END OF INPUT****

CARTESIAN COORDINATES (ANGSTROEM)
---------------------------------
  S     50.296800   19.810600   90.263200
  C     48.808300   20.718200   90.452300
  C     48.753500   21.747400   89.512500
  C     49.823500   21.715100   88.520200
  C     50.626300   20.594300   88.722900
  H     49.841600   22.174100   87.544200
  C     47.652300   22.755400   89.434100
  H     48.190100   23.694200   89.369600
  H     47.159400   22.855500   90.394000
  C     46.664900   22.652500   88.229200
  H     47.253500   22.913100   87.383000
  H     46.364800   21.587800   88.133300
  C     45.482500   23.563900   88.227500
  H     44.934700   23.577600   87.293300
  H     44.735200   23.464500   89.036800
  H     45.976600   24.534800   88.393600
  S     52.478300   21.368200   86.869400
  C     53.489000   20.170200   86.002000
  C     53.195200   18.884500   86.412800
  C     52.239500   18.867700   87.506700
  C     51.666600   20.106800   87.776500
  H     53.667000   18.025800   85.941300
  C     51.963200   17.545100   88.152800
  H     51.013800   17.680200   88.617000
  H     52.727900   17.340000   88.931200
  C     51.972500   16.334300   87.299300
  H     52.995300   16.068100   87.169300
  H     51.481100   16.537600   86.359000
  C     51.216900   15.030200   87.874900
  H     51.667100   14.728300   88.792300
  H     51.303700   14.163800   87.235400
  H     50.149900   15.237200   88.083900
  H     48.054900   20.653500   91.181100
  H     54.165800   20.469900   85.237700

 Total Charge           Charge          ....    0
 Multiplicity           Mult            ....    1
 Number of Electrons    NEL             ....  134
 Basis Dimension        Dim             ....  322

ORBITAL ENERGIES
----------------

  NO   OCC          E(Eh)            E(eV)
   0   2.0000     -88.970115     -2420.9999
   1   2.0000     -88.964544     -2420.8483
   2   2.0000     -10.337974      -281.3106
   3   2.0000     -10.332794      -281.1696
   4   2.0000     -10.321464      -280.8613
   5   2.0000     -10.311501      -280.5902
   6   2.0000     -10.307379      -280.4780
   7   2.0000     -10.305167      -280.4179
   8   2.0000     -10.298360      -280.2326
   9   2.0000     -10.296459      -280.1809
  10   2.0000     -10.288468      -279.9635
  11   2.0000     -10.284962      -279.8680
  12   2.0000     -10.283791      -279.8362
  13   2.0000     -10.283480      -279.8277
  14   2.0000     -10.280235      -279.7394
  15   2.0000     -10.278906      -279.7033
  16   2.0000      -8.083969      -219.9760
  17   2.0000      -8.078667      -219.8317
  18   2.0000      -6.042619      -164.4280
  19   2.0000      -6.038610      -164.3189
  20   2.0000      -6.037285      -164.2829
  21   2.0000      -6.034613      -164.2102
  22   2.0000      -6.033317      -164.1749
  23   2.0000      -6.029296      -164.0655
  24   2.0000      -1.002709       -27.2851
  25   2.0000      -0.980420       -26.6786
  26   2.0000      -0.912961       -24.8429
  27   2.0000      -0.911828       -24.8121
  28   2.0000      -0.870264       -23.6811
  29   2.0000      -0.853391       -23.2220
  30   2.0000      -0.841108       -22.8877
  31   2.0000      -0.816845       -22.2275
  32   2.0000      -0.782799       -21.3010
  33   2.0000      -0.771566       -20.9954
  34   2.0000      -0.709436       -19.3047
  35   2.0000      -0.702849       -19.1255
  36   2.0000      -0.693568       -18.8729
  37   2.0000      -0.663723       -18.0608
  38   2.0000      -0.635368       -17.2892
  39   2.0000      -0.614212       -16.7136
  40   2.0000      -0.599001       -16.2996
  41   2.0000      -0.578543       -15.7429
  42   2.0000      -0.572536       -15.5795
  43   2.0000      -0.561146       -15.2696
  44   2.0000      -0.530136       -14.4257
  45   2.0000      -0.522849       -14.2274
  46   2.0000      -0.516735       -14.0611
  47   2.0000      -0.514339       -13.9959
  48   2.0000      -0.511065       -13.9068
  49   2.0000      -0.495844       -13.4926
  50   2.0000      -0.489499       -13.3199
  51   2.0000      -0.479367       -13.0442
  52   2.0000      -0.468573       -12.7505
  53   2.0000      -0.468239       -12.7414
  54   2.0000      -0.462221       -12.5777
  55   2.0000      -0.452429       -12.3112
  56   2.0000      -0.442514       -12.0414
  57   2.0000      -0.437870       -11.9151
  58   2.0000      -0.431520       -11.7423
  59   2.0000      -0.426572       -11.6076
  60   2.0000      -0.423900       -11.5349
  61   2.0000      -0.412362       -11.2209
  62   2.0000      -0.406243       -11.0544
  63   2.0000      -0.357505        -9.7282
  64   2.0000      -0.330740        -8.9999
  65   2.0000      -0.325449        -8.8559
  66   2.0000      -0.287789        -7.8311
  67   0.0000       0.020661         0.5622
  68   0.0000       0.081849         2.2272
  69   0.0000       0.106537         2.8990
  70   0.0000       0.115776         3.1504
  71   0.0000       0.121939         3.3181

MULLIKEN ATOMIC CHARGES
-----------------------
   0 S :    0.115996
   1 C :   -0.084557
   2 C :   -0.113523
   3 C :    0.006101
   4 C :   -0.124594
   5 H :    0.031501
   6 C :    0.062669
   7 H :    0.022533
   8 H :    0.008888
   9 C :   -0.055884
  10 H :    0.020102
  11 H :    0.034083
  12 C :   -0.042655
  13 H :    0.041027
  14 H :    0.034157
  15 H :    0.020371
  16 S :    0.076537
  17 C :   -0.076807
  18 C :   -0.027661
  19 C :   -0.090106
  20 C :   -0.122687
  21 H :    0.031722
  22 C :    0.105909
  23 H :    0.006509
  24 H :    0.042871
  25 C :   -0.112296
  26 H :    0.027473
  27 H :    0.034223
  28 C :   -0.038385
  29 H :    0.017818
  30 H :    0.033789
  31 H :    0.040565
  32 H :    0.022337
  33 H :    0.051976
Sum of atomic charges:    0.0000000

LOEWDIN ATOMIC CHARGES
----------------------
   0 S :    0.407745
   1 C :   -0.198220
   2 C :   -0.050585
   3 C :   -0.077412
   4 C :   -0.174491
   5 H :    0.029096
   6 C :   -0.037560
   7 H :    0.032665
   8 H :    0.024646
   9 C :   -0.039531
  10 H :    0.021761
  11 H :    0.024518
  12 C :   -0.067481
  13 H :    0.028691
  14 H :    0.025408
  15 H :    0.028333
  16 S :    0.387686
  17 C :   -0.160647
  18 C :   -0.067255
  19 C :   -0.055406
  20 C :   -0.193614
  21 H :    0.036170
  22 C :   -0.040805
  23 H :    0.015410
  24 H :    0.040887
  25 C :   -0.037487
  26 H :    0.018400
  27 H :    0.022858
  28 C :   -0.059057
  29 H :    0.017771
  30 H :    0.025314
  31 H :    0.028766
  32 H :    0.020559
  33 H :    0.022870

  Mayer bond orders larger than 0.100000
B(  0-S ,  1-C ) :   1.1090 B(  0-S ,  4-C ) :   1.1463 B(  1-C ,  2-C ) :   1.6386
B(  1-C , 32-H ) :   0.9730 B(  2-C ,  3-C ) :   1.2082 B(  2-C ,  6-C ) :   1.0466
B(  3-C ,  4-C ) :   1.5825 B(  3-C ,  5-H ) :   0.9801 B(  4-C , 20-C ) :   1.0466
B(  6-C ,  7-H ) :   0.9262 B(  6-C ,  8-H ) :   0.9420 B(  6-C ,  9-C ) :   1.0499
B(  9-C , 10-H ) :   0.9504 B(  9-C , 11-H ) :   0.9589 B(  9-C , 12-C ) :   1.0866
B( 12-C , 13-H ) :   0.9731 B( 12-C , 14-H ) :   0.9761 B( 12-C , 15-H ) :   0.9710
B( 16-S , 17-C ) :   1.1400 B( 16-S , 20-C ) :   1.1265 B( 17-C , 18-C ) :   1.6191
B( 17-C , 33-H ) :   0.9711 B( 18-C , 19-C ) :   1.2144 B( 18-C , 21-H ) :   0.9884
B( 19-C , 20-C ) :   1.6073 B( 19-C , 22-C ) :   1.0468 B( 22-C , 23-H ) :   0.9258
B( 22-C , 24-H ) :   0.9197 B( 22-C , 25-C ) :   1.0793 B( 25-C , 26-H ) :   0.9444
B( 25-C , 27-H ) :   0.9630 B( 25-C , 28-C ) :   1.0825 B( 28-C , 29-H ) :   0.9754
B( 28-C , 30-H ) :   0.9771 B( 28-C , 31-H ) :   0.9769

Dispersion correction           -0.013312336
FINAL SINGLE POINT ENERGY     -1339.874120132446

DIPOLE MOMENT
-------------
                                X             Y             Z
Electronic contribution:     15.96721       6.67074       3.00055
Nuclear contribution   :    -16.16838      -6.86501      -3.23332
                        -----------------------------------------
Total Dipole Moment    :     -0.20117      -0.19427      -0.23277
                        -----------------------------------------
Magnitude (a.u.)       :      0.36385
Magnitude (Debye)      :      0.92485

Rotational constants in cm-1:     0.019675     0.007298     0.006167
Rotational constants in MHz :   589.834090   218.777194   184.874570

                             ****ORCA TERMINATED NORMALLY****
TOTAL RUN TIME: 0 days 0 hours 0 minutes 28 seconds 332 msec
