                         Program Version 4.2.1 -  RELEASE  -
|  1> ! wB97X-D3 SP def2-SVP
|  2> %pal
|  3> nprocs 16
|  4> end
|  5>
|  6> * xyz 0 1
|  7> S 	 -9.6835 	 -12.7361 	 86.2201
|  8> C 	 -10.8347 	 -12.6933 	 84.9149
|  9> C 	 -11.8251 	 -11.6925 	 85.1348
| 10> C 	 -11.4821 	 -10.859 	 86.2453
| 11> C 	 -10.4431 	 -11.2717 	 87.0633
| 12> H 	 -12.0856 	 -9.9702 	 86.5579
| 13> C 	 -12.9797 	 -11.307 	 84.258
| 14> H 	 -13.9573 	 -11.1193 	 84.6994
| 15> H 	 -13.2086 	 -12.2449 	 83.8266
| 16> C 	 -12.7678 	 -10.2689 	 83.1475
| 17> H 	 -12.6081 	 -9.28472 	 83.5349
| 18> H 	 -11.8916 	 -10.473 	 82.5237
| 19> C 	 -13.8663 	 -10.1447 	 82.1592
| 20> H 	 -13.3889 	 -9.94814 	 81.2067
| 21> H 	 -14.4011 	 -11.027 	 82.0687
| 22> H 	 -14.613 	 -9.40686 	 82.3448
| 23> S 	 -9.59188 	 -8.99189 	 88.4333
| 24> C 	 -8.96431 	 -9.14591 	 89.9899
| 25> C 	 -9.03706 	 -10.3897 	 90.4024
| 26> C 	 -9.69211 	 -11.2866 	 89.5345
| 27> C 	 -9.96361 	 -10.6938 	 88.2754
| 28> H 	 -8.66703 	 -10.6191 	 91.3825
| 29> C 	 -9.78743 	 -12.7535 	 89.9036
| 30> H 	 -10.4831 	 -13.2606 	 89.2154
| 31> H 	 -10.2715 	 -12.9423 	 90.8486
| 32> C 	 -8.51162 	 -13.5232 	 89.9875
| 33> H 	 -7.80497 	 -13.1927 	 89.1218
| 34> H 	 -8.78715 	 -14.5384 	 89.9267
| 35> C 	 -7.81322 	 -13.3438 	 91.3174
| 36> H 	 -8.4106 	 -13.8127 	 92.0785
| 37> H 	 -7.75504 	 -12.3262 	 91.4724
| 38> H 	 -6.79893 	 -13.7516 	 91.3722
| 39> H 	 -10.7394 	 -13.3433 	 84.0609
| 40> H 	 -8.50079 	 -8.30158 	 90.5178
| 41> *
| 42>
| 43>                          ****END OF INPUT****

CARTESIAN COORDINATES (ANGSTROEM)
---------------------------------
  S     -9.683500  -12.736100   86.220100
  C    -10.834700  -12.693300   84.914900
  C    -11.825100  -11.692500   85.134800
  C    -11.482100  -10.859000   86.245300
  C    -10.443100  -11.271700   87.063300
  H    -12.085600   -9.970200   86.557900
  C    -12.979700  -11.307000   84.258000
  H    -13.957300  -11.119300   84.699400
  H    -13.208600  -12.244900   83.826600
  C    -12.767800  -10.268900   83.147500
  H    -12.608100   -9.284720   83.534900
  H    -11.891600  -10.473000   82.523700
  C    -13.866300  -10.144700   82.159200
  H    -13.388900   -9.948140   81.206700
  H    -14.401100  -11.027000   82.068700
  H    -14.613000   -9.406860   82.344800
  S     -9.591880   -8.991890   88.433300
  C     -8.964310   -9.145910   89.989900
  C     -9.037060  -10.389700   90.402400
  C     -9.692110  -11.286600   89.534500
  C     -9.963610  -10.693800   88.275400
  H     -8.667030  -10.619100   91.382500
  C     -9.787430  -12.753500   89.903600
  H    -10.483100  -13.260600   89.215400
  H    -10.271500  -12.942300   90.848600
  C     -8.511620  -13.523200   89.987500
  H     -7.804970  -13.192700   89.121800
  H     -8.787150  -14.538400   89.926700
  C     -7.813220  -13.343800   91.317400
  H     -8.410600  -13.812700   92.078500
  H     -7.755040  -12.326200   91.472400
  H     -6.798930  -13.751600   91.372200
  H    -10.739400  -13.343300   84.060900
  H     -8.500790   -8.301580   90.517800

 Total Charge           Charge          ....    0
 Multiplicity           Mult            ....    1
 Number of Electrons    NEL             ....  134
 Basis Dimension        Dim             ....  322

ORBITAL ENERGIES
----------------

  NO   OCC          E(Eh)            E(eV)
   0   2.0000     -88.968013     -2420.9427
   1   2.0000     -88.962767     -2420.7999
   2   2.0000     -10.334888      -281.2266
   3   2.0000     -10.328183      -281.0442
   4   2.0000     -10.324161      -280.9347
   5   2.0000     -10.307875      -280.4915
   6   2.0000     -10.307438      -280.4797
   7   2.0000     -10.302794      -280.3533
   8   2.0000     -10.297691      -280.2144
   9   2.0000     -10.287068      -279.9254
  10   2.0000     -10.282894      -279.8118
  11   2.0000     -10.281017      -279.7607
  12   2.0000     -10.279675      -279.7242
  13   2.0000     -10.278587      -279.6946
  14   2.0000     -10.264834      -279.3203
  15   2.0000     -10.263687      -279.2891
  16   2.0000      -8.080995      -219.8951
  17   2.0000      -8.078997      -219.8407
  18   2.0000      -6.039640      -164.3470
  19   2.0000      -6.037380      -164.2855
  20   2.0000      -6.035618      -164.2375
  21   2.0000      -6.033225      -164.1724
  22   2.0000      -6.031835      -164.1346
  23   2.0000      -6.029852      -164.0806
  24   2.0000      -1.012370       -27.5480
  25   2.0000      -0.981019       -26.6949
  26   2.0000      -0.918656       -24.9979
  27   2.0000      -0.915366       -24.9084
  28   2.0000      -0.878764       -23.9124
  29   2.0000      -0.853425       -23.2229
  30   2.0000      -0.848259       -23.0823
  31   2.0000      -0.819033       -22.2870
  32   2.0000      -0.787360       -21.4252
  33   2.0000      -0.771373       -20.9901
  34   2.0000      -0.711161       -19.3517
  35   2.0000      -0.702472       -19.1152
  36   2.0000      -0.687979       -18.7209
  37   2.0000      -0.663326       -18.0500
  38   2.0000      -0.637497       -17.3472
  39   2.0000      -0.621083       -16.9005
  40   2.0000      -0.609025       -16.5724
  41   2.0000      -0.577070       -15.7029
  42   2.0000      -0.562504       -15.3065
  43   2.0000      -0.554001       -15.0751
  44   2.0000      -0.547114       -14.8877
  45   2.0000      -0.533517       -14.5177
  46   2.0000      -0.519059       -14.1243
  47   2.0000      -0.515128       -14.0173
  48   2.0000      -0.507174       -13.8009
  49   2.0000      -0.503100       -13.6900
  50   2.0000      -0.491055       -13.3623
  51   2.0000      -0.484705       -13.1895
  52   2.0000      -0.473428       -12.8826
  53   2.0000      -0.467966       -12.7340
  54   2.0000      -0.459194       -12.4953
  55   2.0000      -0.443281       -12.0623
  56   2.0000      -0.437244       -11.8980
  57   2.0000      -0.436346       -11.8736
  58   2.0000      -0.431394       -11.7388
  59   2.0000      -0.421106       -11.4589
  60   2.0000      -0.415793       -11.3143
  61   2.0000      -0.410586       -11.1726
  62   2.0000      -0.407769       -11.0960
  63   2.0000      -0.353560        -9.6208
  64   2.0000      -0.333392        -9.0721
  65   2.0000      -0.327194        -8.9034
  66   2.0000      -0.288580        -7.8527
  67   0.0000       0.026272         0.7149
  68   0.0000       0.062445         1.6992
  69   0.0000       0.111518         3.0345
  70   0.0000       0.112314         3.0562
  71   0.0000       0.138082         3.7574

MULLIKEN ATOMIC CHARGES
-----------------------
   0 S :    0.101337
   1 C :   -0.120217
   2 C :   -0.083512
   3 C :    0.009055
   4 C :   -0.149673
   5 H :    0.033855
   6 C :    0.075910
   7 H :    0.026057
   8 H :   -0.004417
   9 C :   -0.049647
  10 H :    0.018539
  11 H :    0.020984
  12 C :   -0.009444
  13 H :    0.027079
  14 H :    0.000772
  15 H :    0.025147
  16 S :    0.113791
  17 C :   -0.088698
  18 C :   -0.038196
  19 C :   -0.018466
  20 C :   -0.151654
  21 H :    0.020028
  22 C :    0.044536
  23 H :    0.023212
  24 H :    0.009894
  25 C :   -0.061649
  26 H :    0.042346
  27 H :    0.020784
  28 C :   -0.008274
  29 H :    0.020189
  30 H :   -0.005363
  31 H :    0.033757
  32 H :    0.056598
  33 H :    0.065343
Sum of atomic charges:    0.0000000

LOEWDIN ATOMIC CHARGES
----------------------
   0 S :    0.378996
   1 C :   -0.188779
   2 C :   -0.063750
   3 C :   -0.058203
   4 C :   -0.170814
   5 H :    0.039397
   6 C :   -0.041293
   7 H :    0.034411
   8 H :    0.025393
   9 C :   -0.038195
  10 H :    0.021348
  11 H :    0.026423
  12 C :   -0.058014
  13 H :    0.031855
  14 H :    0.013823
  15 H :    0.021419
  16 S :    0.433474
  17 C :   -0.199937
  18 C :   -0.083453
  19 C :   -0.047832
  20 C :   -0.205463
  21 H :    0.029488
  22 C :   -0.041344
  23 H :    0.029791
  24 H :    0.029185
  25 C :   -0.038179
  26 H :    0.032057
  27 H :    0.019634
  28 C :   -0.058311
  29 H :    0.022127
  30 H :    0.008539
  31 H :    0.029215
  32 H :    0.028365
  33 H :    0.038626

  Mayer bond orders larger than 0.100000
B(  0-S ,  1-C ) :   1.1615 B(  0-S ,  4-C ) :   1.1030 B(  1-C ,  2-C ) :   1.5683
B(  1-C ,  4-C ) :   0.1051 B(  1-C , 32-H ) :   0.9708 B(  2-C ,  3-C ) :   1.2556
B(  2-C ,  6-C ) :   1.0363 B(  3-C ,  4-C ) :   1.5806 B(  3-C ,  5-H ) :   0.9817
B(  4-C , 20-C ) :   1.0986 B(  6-C ,  7-H ) :   0.9394 B(  6-C ,  8-H ) :   0.9231
B(  6-C ,  9-C ) :   1.0681 B(  9-C , 10-H ) :   0.9530 B(  9-C , 11-H ) :   0.9623
B(  9-C , 12-C ) :   1.0805 B( 12-C , 13-H ) :   0.9770 B( 12-C , 14-H ) :   0.9722
B( 12-C , 15-H ) :   0.9728 B( 16-S , 17-C ) :   1.1690 B( 16-S , 20-C ) :   1.1482
B( 17-C , 18-C ) :   1.6010 B( 17-C , 33-H ) :   0.9610 B( 18-C , 19-C ) :   1.2544
B( 18-C , 21-H ) :   0.9863 B( 19-C , 20-C ) :   1.5291 B( 19-C , 22-C ) :   1.0736
B( 22-C , 23-H ) :   0.9270 B( 22-C , 24-H ) :   0.9247 B( 22-C , 25-C ) :   1.0676
B( 25-C , 26-H ) :   0.9511 B( 25-C , 27-H ) :   0.9525 B( 25-C , 28-C ) :   1.0819
B( 28-C , 29-H ) :   0.9713 B( 28-C , 30-H ) :   0.9735 B( 28-C , 31-H ) :   0.9667

Dispersion correction           -0.014039277
FINAL SINGLE POINT ENERGY     -1339.856701004738

DIPOLE MOMENT
-------------
                                X             Y             Z
Electronic contribution:      7.43159       6.26963       4.26673
Nuclear contribution   :     -7.66086      -6.32087      -4.26377
                        -----------------------------------------
Total Dipole Moment    :     -0.22927      -0.05123       0.00295
                        -----------------------------------------
Magnitude (a.u.)       :      0.23494
Magnitude (Debye)      :      0.59717

Rotational constants in cm-1:     0.026486     0.006946     0.005810
Rotational constants in MHz :   794.029471   208.221060   174.191605

                             ****ORCA TERMINATED NORMALLY****
TOTAL RUN TIME: 0 days 0 hours 0 minutes 30 seconds 491 msec
