                         Program Version 4.2.1 -  RELEASE  -
|  1> ! wB97X-D3 SP def2-SVP
|  2> %pal
|  3> nprocs 16
|  4> end
|  5>
|  6> * xyz 0 1
|  7> S 	 -2.72827 	 -13.1385 	 72.5311
|  8> C 	 -4.37286 	 -13.5306 	 72.7897
|  9> C 	 -5.25098 	 -13.0565 	 71.7693
| 10> C 	 -4.48858 	 -12.1063 	 70.9358
| 11> C 	 -3.14675 	 -12.0757 	 71.2041
| 12> H 	 -5.00887 	 -11.4649 	 70.3015
| 13> C 	 -6.71313 	 -13.2429 	 71.5693
| 14> H 	 -7.18761 	 -12.6792 	 72.3553
| 15> H 	 -6.90529 	 -14.3198 	 71.7039
| 16> C 	 -7.27848 	 -12.8298 	 70.1754
| 17> H 	 -7.22997 	 -11.7623 	 70.0228
| 18> H 	 -6.54855 	 -13.2302 	 69.5019
| 19> C 	 -8.60345 	 -13.4529 	 69.7564
| 20> H 	 -8.49047 	 -14.4923 	 69.8984
| 21> H 	 -9.47333 	 -13.1712 	 70.3532
| 22> H 	 -8.83732 	 -13.1498 	 68.7421
| 23> S 	 -0.746765 	 -10.7552 	 71.4155
| 24> C 	 -0.13304 	 -9.96047 	 69.9731
| 25> C 	 -0.907433 	 -10.2911 	 68.8448
| 26> C 	 -2.02204 	 -11.1199 	 69.0699
| 27> C 	 -2.17693 	 -11.3806 	 70.4319
| 28> H 	 -0.575996 	 -9.9791 	 67.9127
| 29> C 	 -2.70785 	 -11.885 	 67.995
| 30> H 	 -3.30733 	 -11.1431 	 67.3487
| 31> H 	 -3.33444 	 -12.6012 	 68.4247
| 32> C 	 -1.63903 	 -12.6541 	 67.2073
| 33> H 	 -0.944986 	 -13.1275 	 67.9939
| 34> H 	 -1.07968 	 -11.9738 	 66.5915
| 35> C 	 -2.25343 	 -13.7707 	 66.4547
| 36> H 	 -2.92402 	 -13.4801 	 65.6996
| 37> H 	 -2.71487 	 -14.4971 	 67.1205
| 38> H 	 -1.44604 	 -14.2724 	 65.8792
| 39> H 	 -4.58093 	 -14.3513 	 73.4791
| 40> H 	 0.772212 	 -9.44827 	 69.8443
| 41> *
| 42>
| 43>                          ****END OF INPUT****

CARTESIAN COORDINATES (ANGSTROEM)
---------------------------------
  S     -2.728270  -13.138500   72.531100
  C     -4.372860  -13.530600   72.789700
  C     -5.250980  -13.056500   71.769300
  C     -4.488580  -12.106300   70.935800
  C     -3.146750  -12.075700   71.204100
  H     -5.008870  -11.464900   70.301500
  C     -6.713130  -13.242900   71.569300
  H     -7.187610  -12.679200   72.355300
  H     -6.905290  -14.319800   71.703900
  C     -7.278480  -12.829800   70.175400
  H     -7.229970  -11.762300   70.022800
  H     -6.548550  -13.230200   69.501900
  C     -8.603450  -13.452900   69.756400
  H     -8.490470  -14.492300   69.898400
  H     -9.473330  -13.171200   70.353200
  H     -8.837320  -13.149800   68.742100
  S     -0.746765  -10.755200   71.415500
  C     -0.133040   -9.960470   69.973100
  C     -0.907433  -10.291100   68.844800
  C     -2.022040  -11.119900   69.069900
  C     -2.176930  -11.380600   70.431900
  H     -0.575996   -9.979100   67.912700
  C     -2.707850  -11.885000   67.995000
  H     -3.307330  -11.143100   67.348700
  H     -3.334440  -12.601200   68.424700
  C     -1.639030  -12.654100   67.207300
  H     -0.944986  -13.127500   67.993900
  H     -1.079680  -11.973800   66.591500
  C     -2.253430  -13.770700   66.454700
  H     -2.924020  -13.480100   65.699600
  H     -2.714870  -14.497100   67.120500
  H     -1.446040  -14.272400   65.879200
  H     -4.580930  -14.351300   73.479100
  H      0.772212   -9.448270   69.844300

 Total Charge           Charge          ....    0
 Multiplicity           Mult            ....    1
 Number of Electrons    NEL             ....  134
 Basis Dimension        Dim             ....  322

ORBITAL ENERGIES
----------------

  NO   OCC          E(Eh)            E(eV)
   0   2.0000     -88.965365     -2420.8707
   1   2.0000     -88.962435     -2420.7909
   2   2.0000     -10.327198      -281.0173
   3   2.0000     -10.323170      -280.9077
   4   2.0000     -10.316219      -280.7186
   5   2.0000     -10.314346      -280.6676
   6   2.0000     -10.307560      -280.4830
   7   2.0000     -10.300558      -280.2924
   8   2.0000     -10.294331      -280.1230
   9   2.0000     -10.290235      -280.0115
  10   2.0000     -10.288360      -279.9605
  11   2.0000     -10.287770      -279.9445
  12   2.0000     -10.287468      -279.9362
  13   2.0000     -10.286770      -279.9172
  14   2.0000     -10.278511      -279.6925
  15   2.0000     -10.271946      -279.5139
  16   2.0000      -8.080918      -219.8930
  17   2.0000      -8.075872      -219.7556
  18   2.0000      -6.039328      -164.3385
  19   2.0000      -6.035405      -164.2317
  20   2.0000      -6.034405      -164.2045
  21   2.0000      -6.031643      -164.1293
  22   2.0000      -6.030718      -164.1042
  23   2.0000      -6.026541      -163.9905
  24   2.0000      -1.002993       -27.2928
  25   2.0000      -0.977039       -26.5866
  26   2.0000      -0.918409       -24.9912
  27   2.0000      -0.914765       -24.8920
  28   2.0000      -0.870834       -23.6966
  29   2.0000      -0.857358       -23.3299
  30   2.0000      -0.849453       -23.1148
  31   2.0000      -0.812070       -22.0975
  32   2.0000      -0.783090       -21.3090
  33   2.0000      -0.769131       -20.9291
  34   2.0000      -0.716095       -19.4859
  35   2.0000      -0.699696       -19.0397
  36   2.0000      -0.692977       -18.8569
  37   2.0000      -0.657759       -17.8985
  38   2.0000      -0.640465       -17.4279
  39   2.0000      -0.625423       -17.0186
  40   2.0000      -0.597029       -16.2460
  41   2.0000      -0.578710       -15.7475
  42   2.0000      -0.576349       -15.6832
  43   2.0000      -0.557382       -15.1671
  44   2.0000      -0.533086       -14.5060
  45   2.0000      -0.520786       -14.1713
  46   2.0000      -0.519519       -14.1368
  47   2.0000      -0.511240       -13.9115
  48   2.0000      -0.505983       -13.7685
  49   2.0000      -0.501028       -13.6337
  50   2.0000      -0.495353       -13.4792
  51   2.0000      -0.480894       -13.0858
  52   2.0000      -0.475242       -12.9320
  53   2.0000      -0.468772       -12.7559
  54   2.0000      -0.456475       -12.4213
  55   2.0000      -0.451058       -12.2739
  56   2.0000      -0.448997       -12.2178
  57   2.0000      -0.438810       -11.9406
  58   2.0000      -0.430224       -11.7070
  59   2.0000      -0.426988       -11.6189
  60   2.0000      -0.421298       -11.4641
  61   2.0000      -0.418241       -11.3809
  62   2.0000      -0.411568       -11.1993
  63   2.0000      -0.352081        -9.5806
  64   2.0000      -0.329112        -8.9556
  65   2.0000      -0.325058        -8.8453
  66   2.0000      -0.277333        -7.5466
  67   0.0000       0.020930         0.5695
  68   0.0000       0.071013         1.9324
  69   0.0000       0.098074         2.6687
  70   0.0000       0.120889         3.2896
  71   0.0000       0.137243         3.7346

MULLIKEN ATOMIC CHARGES
-----------------------
   0 S :    0.112799
   1 C :   -0.121822
   2 C :   -0.137081
   3 C :    0.004086
   4 C :   -0.083768
   5 H :   -0.007720
   6 C :    0.075734
   7 H :    0.049087
   8 H :    0.028219
   9 C :   -0.120616
  10 H :    0.036758
  11 H :    0.024734
  12 C :    0.001443
  13 H :    0.022249
  14 H :    0.027684
  15 H :    0.035924
  16 S :    0.076651
  17 C :   -0.056983
  18 C :   -0.026549
  19 C :   -0.030413
  20 C :   -0.166229
  21 H :   -0.015385
  22 C :    0.097485
  23 H :    0.043282
  24 H :    0.004015
  25 C :   -0.123736
  26 H :    0.055361
  27 H :    0.028514
  28 C :   -0.009886
  29 H :    0.015982
  30 H :    0.036670
  31 H :    0.028696
  32 H :    0.055530
  33 H :    0.039286
Sum of atomic charges:   -0.0000000

LOEWDIN ATOMIC CHARGES
----------------------
   0 S :    0.418396
   1 C :   -0.218627
   2 C :   -0.053757
   3 C :   -0.058207
   4 C :   -0.199428
   5 H :    0.019521
   6 C :   -0.035207
   7 H :    0.036805
   8 H :    0.035376
   9 C :   -0.042105
  10 H :    0.020169
  11 H :    0.023578
  12 C :   -0.055476
  13 H :    0.020949
  14 H :    0.024817
  15 H :    0.030080
  16 S :    0.355489
  17 C :   -0.171061
  18 C :   -0.060548
  19 C :   -0.054120
  20 C :   -0.162691
  21 H :    0.015897
  22 C :   -0.026468
  23 H :    0.039529
  24 H :    0.019622
  25 C :   -0.040000
  26 H :    0.040733
  27 H :    0.018449
  28 C :   -0.063404
  29 H :    0.016803
  30 H :    0.027826
  31 H :    0.031660
  32 H :    0.024984
  33 H :    0.020414

  Mayer bond orders larger than 0.100000
B(  0-S ,  1-C ) :   1.1481 B(  0-S ,  4-C ) :   1.1428 B(  1-C ,  2-C ) :   1.5985
B(  1-C , 32-H ) :   0.9665 B(  2-C ,  3-C ) :   1.2439 B(  2-C ,  6-C ) :   1.0220
B(  3-C ,  4-C ) :   1.5503 B(  3-C ,  5-H ) :   1.0039 B(  4-C , 20-C ) :   1.0848
B(  6-C ,  7-H ) :   0.9285 B(  6-C ,  8-H ) :   0.9362 B(  6-C ,  9-C ) :   1.0812
B(  9-C , 10-H ) :   0.9448 B(  9-C , 11-H ) :   0.9569 B(  9-C , 12-C ) :   1.0854
B( 12-C , 13-H ) :   0.9729 B( 12-C , 14-H ) :   0.9744 B( 12-C , 15-H ) :   0.9717
B( 16-S , 17-C ) :   1.1444 B( 16-S , 20-C ) :   1.1042 B( 17-C , 18-C ) :   1.6175
B( 17-C , 20-C ) :   0.1091 B( 17-C , 33-H ) :   0.9720 B( 18-C , 19-C ) :   1.2240
B( 18-C , 21-H ) :   0.9948 B( 19-C , 20-C ) :   1.5866 B( 19-C , 22-C ) :   1.0515
B( 22-C , 23-H ) :   0.9180 B( 22-C , 24-H ) :   0.9357 B( 22-C , 25-C ) :   1.0646
B( 25-C , 26-H ) :   0.9546 B( 25-C , 27-H ) :   0.9470 B( 25-C , 28-C ) :   1.1069
B( 28-C , 29-H ) :   0.9675 B( 28-C , 30-H ) :   0.9712 B( 28-C , 31-H ) :   0.9684

Dispersion correction           -0.013894211
FINAL SINGLE POINT ENERGY     -1339.863432297721

DIPOLE MOMENT
-------------
                                X             Y             Z
Electronic contribution:     19.71420       8.71131      21.09708
Nuclear contribution   :    -20.16082      -8.96331     -21.79230
                        -----------------------------------------
Total Dipole Moment    :     -0.44662      -0.25200      -0.69522
                        -----------------------------------------
Magnitude (a.u.)       :      0.86389
Magnitude (Debye)      :      2.19583

Rotational constants in cm-1:     0.017109     0.009149     0.006846
Rotational constants in MHz :   512.909006   274.269742   205.236163

                             ****ORCA TERMINATED NORMALLY****
TOTAL RUN TIME: 0 days 0 hours 0 minutes 35 seconds 160 msec
