                         Program Version 4.2.1 -  RELEASE  -
|  1> ! wB97X-D3 SP def2-SVP
|  2> %pal
|  3> nprocs 16
|  4> end
|  5>
|  6> * xyz 0 1
|  7> S 	 -68.7194 	 38.5541 	 122.38
|  8> C 	 -69.4341 	 40.1455 	 122.381
|  9> C 	 -68.4074 	 41.0558 	 122.343
| 10> C 	 -67.0772 	 40.5453 	 122.403
| 11> C 	 -67.1045 	 39.1599 	 122.669
| 12> H 	 -66.167 	 41.1527 	 122.425
| 13> C 	 -68.6415 	 42.5128 	 122.123
| 14> H 	 -69.6899 	 42.6797 	 122.043
| 15> H 	 -68.1799 	 42.919 	 121.226
| 16> C 	 -68.1216 	 43.5373 	 123.162
| 17> H 	 -68.5906 	 43.2306 	 124.071
| 18> H 	 -67.0628 	 43.4639 	 123.185
| 19> C 	 -68.4626 	 45.0686 	 122.868
| 20> H 	 -67.8862 	 45.6938 	 123.55
| 21> H 	 -68.1162 	 45.3071 	 121.84
| 22> H 	 -69.4806 	 45.321 	 123.155
| 23> S 	 -65.8139 	 37.1421 	 121.361
| 24> C 	 -64.2999 	 36.4531 	 121.972
| 25> C 	 -63.9374 	 37.0722 	 123.155
| 26> C 	 -64.7504 	 38.1886 	 123.475
| 27> C 	 -65.9254 	 38.271 	 122.708
| 28> H 	 -63.1464 	 36.6829 	 123.706
| 29> C 	 -64.6804 	 38.7859 	 124.835
| 30> H 	 -64.5892 	 37.9744 	 125.489
| 31> H 	 -65.6563 	 39.3907 	 125.009
| 32> C 	 -63.5087 	 39.7287 	 125.11
| 33> H 	 -62.6475 	 39.1227 	 125.093
| 34> H 	 -63.548 	 40.0587 	 126.131
| 35> C 	 -63.4433 	 40.92 	 124.035
| 36> H 	 -64.3195 	 41.5732 	 124.142
| 37> H 	 -63.5347 	 40.5809 	 123.028
| 38> H 	 -62.5812 	 41.6738 	 124.041
| 39> H 	 -70.5289 	 40.3853 	 122.333
| 40> H 	 -63.7987 	 35.6633 	 121.562
| 41> *
| 42>
| 43>                          ****END OF INPUT****

CARTESIAN COORDINATES (ANGSTROEM)
---------------------------------
  S    -68.719400   38.554100  122.380000
  C    -69.434100   40.145500  122.381000
  C    -68.407400   41.055800  122.343000
  C    -67.077200   40.545300  122.403000
  C    -67.104500   39.159900  122.669000
  H    -66.167000   41.152700  122.425000
  C    -68.641500   42.512800  122.123000
  H    -69.689900   42.679700  122.043000
  H    -68.179900   42.919000  121.226000
  C    -68.121600   43.537300  123.162000
  H    -68.590600   43.230600  124.071000
  H    -67.062800   43.463900  123.185000
  C    -68.462600   45.068600  122.868000
  H    -67.886200   45.693800  123.550000
  H    -68.116200   45.307100  121.840000
  H    -69.480600   45.321000  123.155000
  S    -65.813900   37.142100  121.361000
  C    -64.299900   36.453100  121.972000
  C    -63.937400   37.072200  123.155000
  C    -64.750400   38.188600  123.475000
  C    -65.925400   38.271000  122.708000
  H    -63.146400   36.682900  123.706000
  C    -64.680400   38.785900  124.835000
  H    -64.589200   37.974400  125.489000
  H    -65.656300   39.390700  125.009000
  C    -63.508700   39.728700  125.110000
  H    -62.647500   39.122700  125.093000
  H    -63.548000   40.058700  126.131000
  C    -63.443300   40.920000  124.035000
  H    -64.319500   41.573200  124.142000
  H    -63.534700   40.580900  123.028000
  H    -62.581200   41.673800  124.041000
  H    -70.528900   40.385300  122.333000
  H    -63.798700   35.663300  121.562000

 Total Charge           Charge          ....    0
 Multiplicity           Mult            ....    1
 Number of Electrons    NEL             ....  134
 Basis Dimension        Dim             ....  322

ORBITAL ENERGIES
----------------

  NO   OCC          E(Eh)            E(eV)
   0   2.0000     -88.968979     -2420.9690
   1   2.0000     -88.963785     -2420.8277
   2   2.0000     -10.338005      -281.3114
   3   2.0000     -10.332122      -281.1513
   4   2.0000     -10.320690      -280.8402
   5   2.0000     -10.313828      -280.6535
   6   2.0000     -10.301888      -280.3286
   7   2.0000     -10.300863      -280.3007
   8   2.0000     -10.300390      -280.2879
   9   2.0000     -10.290863      -280.0286
  10   2.0000     -10.287574      -279.9391
  11   2.0000     -10.286148      -279.9003
  12   2.0000     -10.285996      -279.8962
  13   2.0000     -10.284265      -279.8491
  14   2.0000     -10.283660      -279.8326
  15   2.0000     -10.282961      -279.8136
  16   2.0000      -8.083711      -219.9689
  17   2.0000      -8.078134      -219.8172
  18   2.0000      -6.042273      -164.4186
  19   2.0000      -6.038213      -164.3081
  20   2.0000      -6.036673      -164.2662
  21   2.0000      -6.034390      -164.2041
  22   2.0000      -6.032541      -164.1538
  23   2.0000      -6.029027      -164.0582
  24   2.0000      -1.007839       -27.4247
  25   2.0000      -0.986035       -26.8314
  26   2.0000      -0.910538       -24.7770
  27   2.0000      -0.906995       -24.6806
  28   2.0000      -0.870560       -23.6891
  29   2.0000      -0.846509       -23.0347
  30   2.0000      -0.840572       -22.8731
  31   2.0000      -0.817406       -22.2428
  32   2.0000      -0.779874       -21.2214
  33   2.0000      -0.773431       -21.0461
  34   2.0000      -0.715140       -19.4600
  35   2.0000      -0.701438       -19.0871
  36   2.0000      -0.694075       -18.8867
  37   2.0000      -0.664845       -18.0913
  38   2.0000      -0.640558       -17.4305
  39   2.0000      -0.622682       -16.9440
  40   2.0000      -0.592010       -16.1094
  41   2.0000      -0.580878       -15.8065
  42   2.0000      -0.567560       -15.4441
  43   2.0000      -0.554744       -15.0953
  44   2.0000      -0.541088       -14.7238
  45   2.0000      -0.519495       -14.1362
  46   2.0000      -0.516719       -14.0606
  47   2.0000      -0.511515       -13.9190
  48   2.0000      -0.506148       -13.7730
  49   2.0000      -0.499414       -13.5898
  50   2.0000      -0.487748       -13.2723
  51   2.0000      -0.478423       -13.0186
  52   2.0000      -0.472058       -12.8454
  53   2.0000      -0.464940       -12.6516
  54   2.0000      -0.458631       -12.4800
  55   2.0000      -0.449351       -12.2275
  56   2.0000      -0.446132       -12.1399
  57   2.0000      -0.436912       -11.8890
  58   2.0000      -0.430579       -11.7167
  59   2.0000      -0.425530       -11.5793
  60   2.0000      -0.418798       -11.3961
  61   2.0000      -0.416204       -11.3255
  62   2.0000      -0.412076       -11.2132
  63   2.0000      -0.346254        -9.4221
  64   2.0000      -0.328848        -8.9484
  65   2.0000      -0.328052        -8.9267
  66   2.0000      -0.295477        -8.0404
  67   0.0000       0.025637         0.6976
  68   0.0000       0.061686         1.6786
  69   0.0000       0.108750         2.9592
  70   0.0000       0.116353         3.1661
  71   0.0000       0.128451         3.4953

MULLIKEN ATOMIC CHARGES
-----------------------
   0 S :    0.105813
   1 C :   -0.127194
   2 C :   -0.077276
   3 C :    0.045527
   4 C :   -0.142721
   5 H :    0.022695
   6 C :    0.077998
   7 H :   -0.003106
   8 H :    0.021015
   9 C :   -0.090627
  10 H :    0.022562
  11 H :    0.022557
  12 C :   -0.055675
  13 H :    0.029802
  14 H :    0.040242
  15 H :    0.038122
  16 S :    0.094436
  17 C :   -0.054543
  18 C :   -0.017929
  19 C :   -0.005905
  20 C :   -0.158314
  21 H :    0.002311
  22 C :    0.004619
  23 H :    0.022913
  24 H :    0.047254
  25 C :   -0.012583
  26 H :    0.007308
  27 H :    0.025811
  28 C :   -0.094463
  29 H :    0.025508
  30 H :    0.042073
  31 H :    0.045100
  32 H :    0.074075
  33 H :    0.022596
Sum of atomic charges:   -0.0000000

LOEWDIN ATOMIC CHARGES
----------------------
   0 S :    0.414456
   1 C :   -0.204842
   2 C :   -0.068820
   3 C :   -0.053343
   4 C :   -0.195249
   5 H :    0.035192
   6 C :   -0.035276
   7 H :    0.020372
   8 H :    0.029596
   9 C :   -0.032353
  10 H :    0.017568
  11 H :    0.013494
  12 C :   -0.065789
  13 H :    0.027374
  14 H :    0.028628
  15 H :    0.025704
  16 S :    0.393518
  17 C :   -0.159688
  18 C :   -0.058045
  19 C :   -0.064333
  20 C :   -0.189059
  21 H :    0.022716
  22 C :   -0.029223
  23 H :    0.025755
  24 H :    0.039670
  25 C :   -0.030967
  26 H :    0.013167
  27 H :    0.023739
  28 C :   -0.077229
  29 H :    0.022363
  30 H :    0.020049
  31 H :    0.034181
  32 H :    0.046214
  33 H :    0.010460

  Mayer bond orders larger than 0.100000
B(  0-S ,  1-C ) :   1.1298 B(  0-S ,  4-C ) :   1.1713 B(  1-C ,  2-C ) :   1.5920
B(  1-C , 32-H ) :   0.9630 B(  2-C ,  3-C ) :   1.2509 B(  2-C ,  6-C ) :   1.0479
B(  3-C ,  4-C ) :   1.5241 B(  3-C ,  5-H ) :   0.9905 B(  4-C , 20-C ) :   1.0232
B(  6-C ,  7-H ) :   0.9409 B(  6-C ,  8-H ) :   0.9354 B(  6-C ,  9-C ) :   1.0541
B(  9-C , 10-H ) :   0.9593 B(  9-C , 11-H ) :   0.9597 B(  9-C , 12-C ) :   1.0836
B( 12-C , 13-H ) :   0.9755 B( 12-C , 14-H ) :   0.9737 B( 12-C , 15-H ) :   0.9775
B( 16-S , 17-C ) :   1.1491 B( 16-S , 20-C ) :   1.1514 B( 17-C , 18-C ) :   1.6098
B( 17-C , 20-C ) :   0.1053 B( 17-C , 33-H ) :   0.9806 B( 18-C , 19-C ) :   1.2237
B( 18-C , 21-H ) :   0.9996 B( 19-C , 20-C ) :   1.5768 B( 19-C , 22-C ) :   1.0470
B( 22-C , 23-H ) :   0.9432 B( 22-C , 24-H ) :   0.9471 B( 22-C , 25-C ) :   1.0695
B( 25-C , 26-H ) :   0.9570 B( 25-C , 27-H ) :   0.9575 B( 25-C , 28-C ) :   1.0495
B( 28-C , 29-H ) :   0.9745 B( 28-C , 30-H ) :   0.9746 B( 28-C , 31-H ) :   0.9770

Dispersion correction           -0.014510174
FINAL SINGLE POINT ENERGY     -1339.855086255513

DIPOLE MOMENT
-------------
                                X             Y             Z
Electronic contribution:     -7.05990     -27.74197     -10.65078
Nuclear contribution   :      7.26818      28.14138      10.92120
                        -----------------------------------------
Total Dipole Moment    :      0.20828       0.39941       0.27043
                        -----------------------------------------
Magnitude (a.u.)       :      0.52540
Magnitude (Debye)      :      1.33545

Rotational constants in cm-1:     0.018861     0.008852     0.006596
Rotational constants in MHz :   565.434451   265.369498   197.739016

                             ****ORCA TERMINATED NORMALLY****
TOTAL RUN TIME: 0 days 0 hours 0 minutes 34 seconds 212 msec
