                         Program Version 4.2.1 -  RELEASE  -
|  1> ! wB97X-D3 SP def2-SVP
|  2> %pal
|  3> nprocs 16
|  4> end
|  5>
|  6> * xyz 0 1
|  7> S 	 -7.44942 	 44.2898 	 39.7761
|  8> C 	 -6.01461 	 43.4443 	 39.3213
|  9> C 	 -5.47773 	 42.7123 	 40.3748
| 10> C 	 -6.18417 	 42.9287 	 41.5833
| 11> C 	 -7.33681 	 43.7247 	 41.478
| 12> H 	 -5.99516 	 42.652 	 42.6086
| 13> C 	 -4.10661 	 42.025 	 40.215
| 14> H 	 -3.47836 	 42.7709 	 39.7711
| 15> H 	 -4.34994 	 41.2974 	 39.4194
| 16> C 	 -3.4014 	 41.4128 	 41.4331
| 17> H 	 -2.88838 	 42.2892 	 41.9007
| 18> H 	 -4.02097 	 40.9003 	 42.1538
| 19> C 	 -2.28341 	 40.5109 	 40.8896
| 20> H 	 -1.69286 	 41.0841 	 40.2062
| 21> H 	 -1.61065 	 40.2395 	 41.6737
| 22> H 	 -2.70217 	 39.6517 	 40.4738
| 23> S 	 -9.91098 	 44.2644 	 42.2249
| 24> C 	 -10.3011 	 44.7754 	 43.9015
| 25> C 	 -9.09414 	 44.8092 	 44.643
| 26> C 	 -7.9184 	 44.3974 	 43.8866
| 27> C 	 -8.19048 	 44.0656 	 42.5304
| 28> H 	 -9.17554 	 45.0843 	 45.6891
| 29> C 	 -6.59729 	 44.708 	 44.5084
| 30> H 	 -6.54519 	 45.7591 	 44.6702
| 31> H 	 -5.95565 	 44.659 	 43.6049
| 32> C 	 -5.98448 	 43.8377 	 45.6229
| 33> H 	 -6.19243 	 42.7875 	 45.3174
| 34> H 	 -6.43197 	 43.9317 	 46.6311
| 35> C 	 -4.47478 	 44.0662 	 45.6196
| 36> H 	 -4.07624 	 45.0505 	 45.6997
| 37> H 	 -4.26927 	 43.8333 	 44.4756
| 38> H 	 -3.91876 	 43.4127 	 46.194
| 39> H 	 -5.49098 	 43.6448 	 38.3281
| 40> H 	 -11.277 	 45.0002 	 44.2493
| 41> *
| 42>
| 43>                          ****END OF INPUT****

CARTESIAN COORDINATES (ANGSTROEM)
---------------------------------
  S     -7.449420   44.289800   39.776100
  C     -6.014610   43.444300   39.321300
  C     -5.477730   42.712300   40.374800
  C     -6.184170   42.928700   41.583300
  C     -7.336810   43.724700   41.478000
  H     -5.995160   42.652000   42.608600
  C     -4.106610   42.025000   40.215000
  H     -3.478360   42.770900   39.771100
  H     -4.349940   41.297400   39.419400
  C     -3.401400   41.412800   41.433100
  H     -2.888380   42.289200   41.900700
  H     -4.020970   40.900300   42.153800
  C     -2.283410   40.510900   40.889600
  H     -1.692860   41.084100   40.206200
  H     -1.610650   40.239500   41.673700
  H     -2.702170   39.651700   40.473800
  S     -9.910980   44.264400   42.224900
  C    -10.301100   44.775400   43.901500
  C     -9.094140   44.809200   44.643000
  C     -7.918400   44.397400   43.886600
  C     -8.190480   44.065600   42.530400
  H     -9.175540   45.084300   45.689100
  C     -6.597290   44.708000   44.508400
  H     -6.545190   45.759100   44.670200
  H     -5.955650   44.659000   43.604900
  C     -5.984480   43.837700   45.622900
  H     -6.192430   42.787500   45.317400
  H     -6.431970   43.931700   46.631100
  C     -4.474780   44.066200   45.619600
  H     -4.076240   45.050500   45.699700
  H     -4.269270   43.833300   44.475600
  H     -3.918760   43.412700   46.194000
  H     -5.490980   43.644800   38.328100
  H    -11.277000   45.000200   44.249300

 Total Charge           Charge          ....    0
 Multiplicity           Mult            ....    1
 Number of Electrons    NEL             ....  134
 Basis Dimension        Dim             ....  322

ORBITAL ENERGIES
----------------

  NO   OCC          E(Eh)            E(eV)
   0   2.0000     -88.969274     -2420.9770
   1   2.0000     -88.964861     -2420.8570
   2   2.0000     -10.332375      -281.1582
   3   2.0000     -10.330888      -281.1178
   4   2.0000     -10.322841      -280.8988
   5   2.0000     -10.318916      -280.7920
   6   2.0000     -10.307529      -280.4821
   7   2.0000     -10.305225      -280.4194
   8   2.0000     -10.299470      -280.2628
   9   2.0000     -10.297219      -280.2016
  10   2.0000     -10.295436      -280.1531
  11   2.0000     -10.294042      -280.1151
  12   2.0000     -10.291373      -280.0425
  13   2.0000     -10.286552      -279.9113
  14   2.0000     -10.279427      -279.7174
  15   2.0000     -10.270922      -279.4860
  16   2.0000      -8.083305      -219.9579
  17   2.0000      -8.078703      -219.8327
  18   2.0000      -6.041827      -164.4065
  19   2.0000      -6.037819      -164.2974
  20   2.0000      -6.037353      -164.2847
  21   2.0000      -6.034184      -164.1985
  22   2.0000      -6.033216      -164.1722
  23   2.0000      -6.029473      -164.0703
  24   2.0000      -1.003446       -27.3052
  25   2.0000      -0.976234       -26.5647
  26   2.0000      -0.913832       -24.8666
  27   2.0000      -0.910219       -24.7683
  28   2.0000      -0.877086       -23.8667
  29   2.0000      -0.853715       -23.2308
  30   2.0000      -0.846397       -23.0316
  31   2.0000      -0.815409       -22.1884
  32   2.0000      -0.779003       -21.1978
  33   2.0000      -0.765731       -20.8366
  34   2.0000      -0.717678       -19.5290
  35   2.0000      -0.704298       -19.1649
  36   2.0000      -0.691782       -18.8244
  37   2.0000      -0.662808       -18.0359
  38   2.0000      -0.641050       -17.4438
  39   2.0000      -0.615670       -16.7532
  40   2.0000      -0.594126       -16.1670
  41   2.0000      -0.580333       -15.7917
  42   2.0000      -0.563816       -15.3422
  43   2.0000      -0.563093       -15.3225
  44   2.0000      -0.535260       -14.5652
  45   2.0000      -0.528801       -14.3894
  46   2.0000      -0.519088       -14.1251
  47   2.0000      -0.512177       -13.9370
  48   2.0000      -0.506702       -13.7881
  49   2.0000      -0.500821       -13.6280
  50   2.0000      -0.499354       -13.5881
  51   2.0000      -0.482782       -13.1372
  52   2.0000      -0.470784       -12.8107
  53   2.0000      -0.466100       -12.6832
  54   2.0000      -0.454396       -12.3647
  55   2.0000      -0.444948       -12.1077
  56   2.0000      -0.443970       -12.0810
  57   2.0000      -0.439158       -11.9501
  58   2.0000      -0.428266       -11.6537
  59   2.0000      -0.423940       -11.5360
  60   2.0000      -0.419739       -11.4217
  61   2.0000      -0.412593       -11.2272
  62   2.0000      -0.409753       -11.1499
  63   2.0000      -0.357068        -9.7163
  64   2.0000      -0.332636        -9.0515
  65   2.0000      -0.326612        -8.8876
  66   2.0000      -0.278847        -7.5878
  67   0.0000       0.016182         0.4403
  68   0.0000       0.069758         1.8982
  69   0.0000       0.110295         3.0013
  70   0.0000       0.113430         3.0866
  71   0.0000       0.122133         3.3234

MULLIKEN ATOMIC CHARGES
-----------------------
   0 S :    0.123553
   1 C :   -0.167659
   2 C :   -0.039877
   3 C :    0.006754
   4 C :   -0.153732
   5 H :    0.000228
   6 C :    0.016267
   7 H :    0.034545
   8 H :    0.039896
   9 C :   -0.077358
  10 H :    0.037834
  11 H :    0.041477
  12 C :   -0.003158
  13 H :    0.019670
  14 H :    0.022084
  15 H :    0.027796
  16 S :    0.089527
  17 C :   -0.094535
  18 C :   -0.025221
  19 C :   -0.040191
  20 C :   -0.135161
  21 H :    0.029060
  22 C :    0.005047
  23 H :    0.029917
  24 H :    0.008563
  25 C :   -0.034572
  26 H :    0.033327
  27 H :    0.037704
  28 C :   -0.042782
  29 H :    0.031647
  30 H :    0.022022
  31 H :    0.023700
  32 H :    0.080944
  33 H :    0.052683
Sum of atomic charges:   -0.0000000

LOEWDIN ATOMIC CHARGES
----------------------
   0 S :    0.403845
   1 C :   -0.217355
   2 C :   -0.066591
   3 C :   -0.061861
   4 C :   -0.188026
   5 H :    0.029088
   6 C :   -0.034339
   7 H :    0.031384
   8 H :    0.035501
   9 C :   -0.038947
  10 H :    0.031582
  11 H :    0.021895
  12 C :   -0.048402
  13 H :    0.022997
  14 H :    0.022902
  15 H :    0.017676
  16 S :    0.385696
  17 C :   -0.170166
  18 C :   -0.063526
  19 C :   -0.062249
  20 C :   -0.194564
  21 H :    0.033025
  22 C :   -0.044418
  23 H :    0.031003
  24 H :    0.032315
  25 C :   -0.039587
  26 H :    0.029201
  27 H :    0.023431
  28 C :   -0.061758
  29 H :    0.021508
  30 H :    0.037102
  31 H :    0.012589
  32 H :    0.045796
  33 H :    0.023248

  Mayer bond orders larger than 0.100000
B(  0-S ,  1-C ) :   1.1562 B(  0-S ,  4-C ) :   1.1312 B(  1-C ,  2-C ) :   1.5771
B(  1-C ,  4-C ) :   0.1062 B(  1-C , 32-H ) :   0.9616 B(  2-C ,  3-C ) :   1.2607
B(  2-C ,  6-C ) :   0.9811 B(  3-C ,  4-C ) :   1.5278 B(  3-C ,  5-H ) :   0.9993
B(  4-C , 20-C ) :   1.1409 B(  6-C ,  7-H ) :   0.9470 B(  6-C ,  8-H ) :   0.9464
B(  6-C ,  9-C ) :   1.0696 B(  9-C , 10-H ) :   0.9501 B(  9-C , 11-H ) :   0.9597
B(  9-C , 12-C ) :   1.0859 B( 12-C , 13-H ) :   0.9722 B( 12-C , 14-H ) :   0.9711
B( 12-C , 15-H ) :   0.9796 B( 16-S , 17-C ) :   1.1411 B( 16-S , 20-C ) :   1.1277
B( 17-C , 18-C ) :   1.5971 B( 17-C , 20-C ) :   0.1015 B( 17-C , 33-H ) :   0.9760
B( 18-C , 19-C ) :   1.2391 B( 18-C , 21-H ) :   0.9901 B( 19-C , 20-C ) :   1.5348
B( 19-C , 22-C ) :   1.0460 B( 22-C , 23-H ) :   0.9342 B( 22-C , 24-H ) :   0.9387
B( 22-C , 25-C ) :   1.0376 B( 25-C , 26-H ) :   0.9551 B( 25-C , 27-H ) :   0.9535
B( 25-C , 28-C ) :   1.0718 B( 28-C , 29-H ) :   0.9777 B( 28-C , 30-H ) :   0.9733
B( 28-C , 31-H ) :   0.9751

Dispersion correction           -0.014110369
FINAL SINGLE POINT ENERGY     -1339.851614347182

DIPOLE MOMENT
-------------
                                X             Y             Z
Electronic contribution:    -29.29784       9.88912     -12.38917
Nuclear contribution   :     30.02672      -9.90878      12.75670
                        -----------------------------------------
Total Dipole Moment    :      0.72888      -0.01966       0.36752
                        -----------------------------------------
Magnitude (a.u.)       :      0.81653
Magnitude (Debye)      :      2.07545

Rotational constants in cm-1:     0.017163     0.009287     0.006416
Rotational constants in MHz :   514.545485   278.431932   192.342935

                             ****ORCA TERMINATED NORMALLY****
TOTAL RUN TIME: 0 days 0 hours 0 minutes 32 seconds 255 msec
