                         Program Version 4.2.1 -  RELEASE  -
|  1> ! wB97X-D3 SP def2-SVP
|  2> %pal
|  3> nprocs 16
|  4> end
|  5>
|  6> * xyz 0 1
|  7> S 	 11.1951 	 -12.3148 	 96.0481
|  8> C 	 12.5309 	 -12.1413 	 94.9482
|  9> C 	 12.1211 	 -12.4495 	 93.6534
| 10> C 	 10.7969 	 -12.914 	 93.5665
| 11> C 	 10.159 	 -12.9999 	 94.7765
| 12> H 	 10.156 	 -13.1468 	 92.7503
| 13> C 	 13.101 	 -12.1651 	 92.4445
| 14> H 	 13.5387 	 -11.142 	 92.7488
| 15> H 	 12.5288 	 -11.9351 	 91.4635
| 16> C 	 14.284 	 -13.1297 	 92.2058
| 17> H 	 14.9332 	 -12.5701 	 91.5307
| 18> H 	 14.8466 	 -13.3792 	 93.1634
| 19> C 	 13.8594 	 -14.4349 	 91.4956
| 20> H 	 13.3192 	 -14.2935 	 90.56
| 21> H 	 14.7138 	 -15.0006 	 91.1583
| 22> H 	 13.2681 	 -15.0871 	 92.1786
| 23> S 	 7.79384 	 -11.9313 	 95.5223
| 24> C 	 6.32223 	 -12.7617 	 95.2735
| 25> C 	 6.4617 	 -14.0562 	 94.7617
| 26> C 	 7.87136 	 -14.283 	 94.5104
| 27> C 	 8.75601 	 -13.3061 	 94.9991
| 28> H 	 5.61015 	 -14.668 	 94.5279
| 29> C 	 8.33638 	 -15.563 	 93.7142
| 30> H 	 7.95424 	 -16.4359 	 94.2509
| 31> H 	 9.38369 	 -15.5631 	 93.8246
| 32> C 	 7.7242 	 -15.6137 	 92.2826
| 33> H 	 7.56178 	 -14.6199 	 91.8683
| 34> H 	 6.72542 	 -16.0185 	 92.3427
| 35> C 	 8.51698 	 -16.4794 	 91.3181
| 36> H 	 9.45861 	 -16.0756 	 91.0664
| 37> H 	 7.88473 	 -16.8211 	 90.5077
| 38> H 	 8.73171 	 -17.3461 	 91.9255
| 39> H 	 13.4986 	 -11.7039 	 95.1436
| 40> H 	 5.36435 	 -12.3213 	 95.4602
| 41> *
| 42>
| 43>                          ****END OF INPUT****

CARTESIAN COORDINATES (ANGSTROEM)
---------------------------------
  S     11.195100  -12.314800   96.048100
  C     12.530900  -12.141300   94.948200
  C     12.121100  -12.449500   93.653400
  C     10.796900  -12.914000   93.566500
  C     10.159000  -12.999900   94.776500
  H     10.156000  -13.146800   92.750300
  C     13.101000  -12.165100   92.444500
  H     13.538700  -11.142000   92.748800
  H     12.528800  -11.935100   91.463500
  C     14.284000  -13.129700   92.205800
  H     14.933200  -12.570100   91.530700
  H     14.846600  -13.379200   93.163400
  C     13.859400  -14.434900   91.495600
  H     13.319200  -14.293500   90.560000
  H     14.713800  -15.000600   91.158300
  H     13.268100  -15.087100   92.178600
  S      7.793840  -11.931300   95.522300
  C      6.322230  -12.761700   95.273500
  C      6.461700  -14.056200   94.761700
  C      7.871360  -14.283000   94.510400
  C      8.756010  -13.306100   94.999100
  H      5.610150  -14.668000   94.527900
  C      8.336380  -15.563000   93.714200
  H      7.954240  -16.435900   94.250900
  H      9.383690  -15.563100   93.824600
  C      7.724200  -15.613700   92.282600
  H      7.561780  -14.619900   91.868300
  H      6.725420  -16.018500   92.342700
  C      8.516980  -16.479400   91.318100
  H      9.458610  -16.075600   91.066400
  H      7.884730  -16.821100   90.507700
  H      8.731710  -17.346100   91.925500
  H     13.498600  -11.703900   95.143600
  H      5.364350  -12.321300   95.460200

 Total Charge           Charge          ....    0
 Multiplicity           Mult            ....    1
 Number of Electrons    NEL             ....  134
 Basis Dimension        Dim             ....  322

ORBITAL ENERGIES
----------------

  NO   OCC          E(Eh)            E(eV)
   0   2.0000     -88.967283     -2420.9228
   1   2.0000     -88.964154     -2420.8377
   2   2.0000     -10.329055      -281.0679
   3   2.0000     -10.326216      -280.9906
   4   2.0000     -10.317060      -280.7415
   5   2.0000     -10.314528      -280.6726
   6   2.0000     -10.312109      -280.6067
   7   2.0000     -10.308766      -280.5158
   8   2.0000     -10.304608      -280.4026
   9   2.0000     -10.297833      -280.2183
  10   2.0000     -10.296058      -280.1700
  11   2.0000     -10.291139      -280.0361
  12   2.0000     -10.290562      -280.0204
  13   2.0000     -10.284992      -279.8688
  14   2.0000     -10.278059      -279.6802
  15   2.0000     -10.271809      -279.5101
  16   2.0000      -8.081556      -219.9103
  17   2.0000      -8.079700      -219.8598
  18   2.0000      -6.040062      -164.3584
  19   2.0000      -6.038148      -164.3064
  20   2.0000      -6.036065      -164.2497
  21   2.0000      -6.034037      -164.1945
  22   2.0000      -6.032411      -164.1503
  23   2.0000      -6.030516      -164.0987
  24   2.0000      -1.007054       -27.4033
  25   2.0000      -0.983854       -26.7720
  26   2.0000      -0.906703       -24.6726
  27   2.0000      -0.900628       -24.5073
  28   2.0000      -0.870807       -23.6959
  29   2.0000      -0.851750       -23.1773
  30   2.0000      -0.844459       -22.9789
  31   2.0000      -0.815069       -22.1791
  32   2.0000      -0.780677       -21.2433
  33   2.0000      -0.767916       -20.8961
  34   2.0000      -0.705124       -19.1874
  35   2.0000      -0.698006       -18.9937
  36   2.0000      -0.693629       -18.8746
  37   2.0000      -0.660530       -17.9739
  38   2.0000      -0.644109       -17.5271
  39   2.0000      -0.610594       -16.6151
  40   2.0000      -0.589806       -16.0494
  41   2.0000      -0.573390       -15.6027
  42   2.0000      -0.566540       -15.4163
  43   2.0000      -0.544389       -14.8136
  44   2.0000      -0.538003       -14.6398
  45   2.0000      -0.530688       -14.4408
  46   2.0000      -0.517858       -14.0916
  47   2.0000      -0.512172       -13.9369
  48   2.0000      -0.503419       -13.6987
  49   2.0000      -0.498891       -13.5755
  50   2.0000      -0.486583       -13.2406
  51   2.0000      -0.481738       -13.1088
  52   2.0000      -0.470884       -12.8134
  53   2.0000      -0.468778       -12.7561
  54   2.0000      -0.458062       -12.4645
  55   2.0000      -0.449320       -12.2266
  56   2.0000      -0.441239       -12.0067
  57   2.0000      -0.435405       -11.8480
  58   2.0000      -0.432044       -11.7565
  59   2.0000      -0.421780       -11.4772
  60   2.0000      -0.420867       -11.4524
  61   2.0000      -0.413005       -11.2384
  62   2.0000      -0.411491       -11.1972
  63   2.0000      -0.348455        -9.4819
  64   2.0000      -0.330652        -8.9975
  65   2.0000      -0.327994        -8.9252
  66   2.0000      -0.292837        -7.9685
  67   0.0000       0.031696         0.8625
  68   0.0000       0.063518         1.7284
  69   0.0000       0.113353         3.0845
  70   0.0000       0.119395         3.2489
  71   0.0000       0.125610         3.4180

MULLIKEN ATOMIC CHARGES
-----------------------
   0 S :    0.110482
   1 C :   -0.105436
   2 C :   -0.065501
   3 C :    0.055710
   4 C :   -0.183726
   5 H :   -0.000128
   6 C :   -0.020218
   7 H :    0.040331
   8 H :    0.044749
   9 C :   -0.057892
  10 H :    0.031627
  11 H :    0.044962
  12 C :   -0.058356
  13 H :    0.023469
  14 H :    0.027785
  15 H :    0.044842
  16 S :    0.107572
  17 C :   -0.084958
  18 C :   -0.017751
  19 C :   -0.099524
  20 C :   -0.123539
  21 H :    0.021857
  22 C :    0.081667
  23 H :    0.032535
  24 H :    0.017928
  25 C :   -0.094306
  26 H :    0.032100
  27 H :    0.020269
  28 C :   -0.003549
  29 H :    0.029655
  30 H :    0.034765
  31 H :    0.013268
  32 H :    0.048034
  33 H :    0.051278
Sum of atomic charges:   -0.0000000

LOEWDIN ATOMIC CHARGES
----------------------
   0 S :    0.402221
   1 C :   -0.200202
   2 C :   -0.068109
   3 C :   -0.061482
   4 C :   -0.191518
   5 H :    0.031622
   6 C :   -0.042625
   7 H :    0.036755
   8 H :    0.037791
   9 C :   -0.045605
  10 H :    0.025092
  11 H :    0.033389
  12 C :   -0.072547
  13 H :    0.023060
  14 H :    0.023827
  15 H :    0.030016
  16 S :    0.425024
  17 C :   -0.184768
  18 C :   -0.075168
  19 C :   -0.042487
  20 C :   -0.214379
  21 H :    0.032787
  22 C :   -0.026228
  23 H :    0.033682
  24 H :    0.019687
  25 C :   -0.040839
  26 H :    0.019034
  27 H :    0.022377
  28 C :   -0.056381
  29 H :    0.019395
  30 H :    0.028185
  31 H :    0.024967
  32 H :    0.029691
  33 H :    0.023734

  Mayer bond orders larger than 0.100000
B(  0-S ,  1-C ) :   1.1469 B(  0-S ,  4-C ) :   1.1489 B(  1-C ,  2-C ) :   1.6005
B(  1-C ,  4-C ) :   0.1040 B(  1-C , 32-H ) :   0.9686 B(  2-C ,  3-C ) :   1.2425
B(  2-C ,  6-C ) :   0.9913 B(  3-C ,  4-C ) :   1.5665 B(  3-C ,  5-H ) :   1.0059
B(  4-C , 20-C ) :   1.0207 B(  6-C ,  7-H ) :   0.9481 B(  6-C ,  8-H ) :   0.9510
B(  6-C ,  9-C ) :   1.0660 B(  9-C , 10-H ) :   0.9531 B(  9-C , 11-H ) :   0.9552
B(  9-C , 12-C ) :   1.0772 B( 12-C , 13-H ) :   0.9740 B( 12-C , 14-H ) :   0.9737
B( 12-C , 15-H ) :   0.9772 B( 16-S , 17-C ) :   1.1958 B( 16-S , 20-C ) :   1.1287
B( 17-C , 18-C ) :   1.5808 B( 17-C , 33-H ) :   0.9669 B( 18-C , 19-C ) :   1.2344
B( 18-C , 21-H ) :   0.9986 B( 19-C , 20-C ) :   1.6081 B( 19-C , 22-C ) :   1.0385
B( 22-C , 23-H ) :   0.9330 B( 22-C , 24-H ) :   0.9500 B( 22-C , 25-C ) :   1.0418
B( 25-C , 26-H ) :   0.9653 B( 25-C , 27-H ) :   0.9489 B( 25-C , 28-C ) :   1.0904
B( 28-C , 29-H ) :   0.9780 B( 28-C , 30-H ) :   0.9729 B( 28-C , 31-H ) :   0.9687

Dispersion correction           -0.014182425
FINAL SINGLE POINT ENERGY     -1339.871417408016

DIPOLE MOMENT
-------------
                                X             Y             Z
Electronic contribution:     -9.83930      16.31900      24.45463
Nuclear contribution   :      9.77840     -16.51926     -25.13359
                        -----------------------------------------
Total Dipole Moment    :     -0.06090      -0.20025      -0.67896
                        -----------------------------------------
Magnitude (a.u.)       :      0.71049
Magnitude (Debye)      :      1.80593

Rotational constants in cm-1:     0.017005     0.009517     0.006552
Rotational constants in MHz :   509.800694   285.321644   196.427076

                             ****ORCA TERMINATED NORMALLY****
TOTAL RUN TIME: 0 days 0 hours 0 minutes 33 seconds 402 msec
