                         Program Version 4.2.1 -  RELEASE  -
|  1> ! wB97X-D3 SP def2-SVP
|  2> %pal
|  3> nprocs 16
|  4> end
|  5>
|  6> * xyz 0 1
|  7> S 	 9.47484 	 -10.5274 	 91.6442
|  8> C 	 8.99413 	 -9.01784 	 92.4906
|  9> C 	 7.67091 	 -8.75273 	 92.3015
| 10> C 	 7.00207 	 -9.75924 	 91.5752
| 11> C 	 7.82009 	 -10.7831 	 91.2056
| 12> H 	 5.95137 	 -9.82611 	 91.3353
| 13> C 	 6.88196 	 -7.59068 	 92.9048
| 14> H 	 6.01101 	 -7.57892 	 92.3131
| 15> H 	 7.4628 	 -6.61749 	 92.8471
| 16> C 	 6.24661 	 -7.89691 	 94.2494
| 17> H 	 5.74285 	 -6.96893 	 94.561
| 18> H 	 5.6309 	 -8.70463 	 94.0487
| 19> C 	 7.27529 	 -8.32733 	 95.3866
| 20> H 	 6.78458 	 -8.45283 	 96.3596
| 21> H 	 7.65293 	 -9.31594 	 95.1167
| 22> H 	 8.06541 	 -7.62408 	 95.5537
| 23> S 	 6.50828 	 -12.1504 	 89.0496
| 24> C 	 6.38925 	 -13.8469 	 89.1232
| 25> C 	 6.90981 	 -14.3745 	 90.3319
| 26> C 	 7.42095 	 -13.3727 	 91.1939
| 27> C 	 7.29083 	 -12.0446 	 90.68
| 28> H 	 6.85705 	 -15.4487 	 90.5878
| 29> C 	 8.03769 	 -13.7386 	 92.4617
| 30> H 	 9.03102 	 -13.2046 	 92.5867
| 31> H 	 8.29628 	 -14.8004 	 92.364
| 32> C 	 7.0827 	 -13.6893 	 93.7357
| 33> H 	 7.56617 	 -14.0541 	 94.5997
| 34> H 	 6.36231 	 -14.5142 	 93.5347
| 35> C 	 6.50258 	 -12.3344 	 94.132
| 36> H 	 5.81291 	 -12.5735 	 94.9133
| 37> H 	 5.96272 	 -11.7813 	 93.3304
| 38> H 	 7.22949 	 -11.7017 	 94.5684
| 39> H 	 9.67908 	 -8.30579 	 92.999
| 40> H 	 5.97658 	 -14.5431 	 88.3878
| 41> *
| 42>
| 43>                          ****END OF INPUT****

CARTESIAN COORDINATES (ANGSTROEM)
---------------------------------
  S      9.474840  -10.527400   91.644200
  C      8.994130   -9.017840   92.490600
  C      7.670910   -8.752730   92.301500
  C      7.002070   -9.759240   91.575200
  C      7.820090  -10.783100   91.205600
  H      5.951370   -9.826110   91.335300
  C      6.881960   -7.590680   92.904800
  H      6.011010   -7.578920   92.313100
  H      7.462800   -6.617490   92.847100
  C      6.246610   -7.896910   94.249400
  H      5.742850   -6.968930   94.561000
  H      5.630900   -8.704630   94.048700
  C      7.275290   -8.327330   95.386600
  H      6.784580   -8.452830   96.359600
  H      7.652930   -9.315940   95.116700
  H      8.065410   -7.624080   95.553700
  S      6.508280  -12.150400   89.049600
  C      6.389250  -13.846900   89.123200
  C      6.909810  -14.374500   90.331900
  C      7.420950  -13.372700   91.193900
  C      7.290830  -12.044600   90.680000
  H      6.857050  -15.448700   90.587800
  C      8.037690  -13.738600   92.461700
  H      9.031020  -13.204600   92.586700
  H      8.296280  -14.800400   92.364000
  C      7.082700  -13.689300   93.735700
  H      7.566170  -14.054100   94.599700
  H      6.362310  -14.514200   93.534700
  C      6.502580  -12.334400   94.132000
  H      5.812910  -12.573500   94.913300
  H      5.962720  -11.781300   93.330400
  H      7.229490  -11.701700   94.568400
  H      9.679080   -8.305790   92.999000
  H      5.976580  -14.543100   88.387800

 Total Charge           Charge          ....    0
 Multiplicity           Mult            ....    1
 Number of Electrons    NEL             ....  134
 Basis Dimension        Dim             ....  322

ORBITAL ENERGIES
----------------

  NO   OCC          E(Eh)            E(eV)
   0   2.0000     -88.970788     -2421.0182
   1   2.0000     -88.970187     -2421.0019
   2   2.0000     -10.330481      -281.1067
   3   2.0000     -10.326512      -280.9987
   4   2.0000     -10.319479      -280.8073
   5   2.0000     -10.317438      -280.7518
   6   2.0000     -10.301353      -280.3141
   7   2.0000     -10.297851      -280.2188
   8   2.0000     -10.295081      -280.1434
   9   2.0000     -10.290916      -280.0301
  10   2.0000     -10.289169      -279.9825
  11   2.0000     -10.288773      -279.9717
  12   2.0000     -10.286035      -279.8972
  13   2.0000     -10.286013      -279.8966
  14   2.0000     -10.275417      -279.6083
  15   2.0000     -10.269051      -279.4351
  16   2.0000      -8.084744      -219.9971
  17   2.0000      -8.084120      -219.9801
  18   2.0000      -6.043201      -164.4439
  19   2.0000      -6.042660      -164.4291
  20   2.0000      -6.039172      -164.3342
  21   2.0000      -6.038806      -164.3243
  22   2.0000      -6.035807      -164.2426
  23   2.0000      -6.034820      -164.2158
  24   2.0000      -1.005588       -27.3634
  25   2.0000      -0.982202       -26.7271
  26   2.0000      -0.914363       -24.8811
  27   2.0000      -0.904832       -24.6217
  28   2.0000      -0.862998       -23.4834
  29   2.0000      -0.852787       -23.2055
  30   2.0000      -0.845567       -23.0090
  31   2.0000      -0.806250       -21.9392
  32   2.0000      -0.786544       -21.4029
  33   2.0000      -0.774483       -21.0747
  34   2.0000      -0.707689       -19.2572
  35   2.0000      -0.697871       -18.9900
  36   2.0000      -0.689561       -18.7639
  37   2.0000      -0.659019       -17.9328
  38   2.0000      -0.636986       -17.3333
  39   2.0000      -0.615227       -16.7412
  40   2.0000      -0.585668       -15.9368
  41   2.0000      -0.569743       -15.5035
  42   2.0000      -0.554657       -15.0930
  43   2.0000      -0.547190       -14.8898
  44   2.0000      -0.540396       -14.7049
  45   2.0000      -0.533405       -14.5147
  46   2.0000      -0.516584       -14.0570
  47   2.0000      -0.510410       -13.8890
  48   2.0000      -0.502686       -13.6788
  49   2.0000      -0.495228       -13.4758
  50   2.0000      -0.485790       -13.2190
  51   2.0000      -0.481268       -13.0960
  52   2.0000      -0.473152       -12.8751
  53   2.0000      -0.466347       -12.6900
  54   2.0000      -0.459777       -12.5112
  55   2.0000      -0.447674       -12.1818
  56   2.0000      -0.445797       -12.1308
  57   2.0000      -0.437278       -11.8989
  58   2.0000      -0.428737       -11.6665
  59   2.0000      -0.426171       -11.5967
  60   2.0000      -0.418035       -11.3753
  61   2.0000      -0.413372       -11.2484
  62   2.0000      -0.408965       -11.1285
  63   2.0000      -0.338535        -9.2120
  64   2.0000      -0.333865        -9.0849
  65   2.0000      -0.330324        -8.9886
  66   2.0000      -0.292263        -7.9529
  67   0.0000       0.029735         0.8091
  68   0.0000       0.061685         1.6785
  69   0.0000       0.107316         2.9202
  70   0.0000       0.118219         3.2169
  71   0.0000       0.123051         3.3484

MULLIKEN ATOMIC CHARGES
-----------------------
   0 S :    0.117676
   1 C :   -0.151640
   2 C :   -0.078032
   3 C :    0.006249
   4 C :   -0.132256
   5 H :    0.015419
   6 C :    0.085655
   7 H :    0.006934
   8 H :    0.043979
   9 C :   -0.049762
  10 H :    0.042012
  11 H :    0.014885
  12 C :   -0.067250
  13 H :    0.031816
  14 H :    0.042641
  15 H :    0.024836
  16 S :    0.123766
  17 C :   -0.093940
  18 C :   -0.062493
  19 C :   -0.027961
  20 C :   -0.181166
  21 H :    0.030301
  22 C :    0.033311
  23 H :    0.039628
  24 H :    0.012499
  25 C :   -0.055260
  26 H :    0.015122
  27 H :    0.019782
  28 C :   -0.024217
  29 H :    0.021834
  30 H :    0.045413
  31 H :    0.028761
  32 H :    0.057215
  33 H :    0.064243
Sum of atomic charges:    0.0000000

LOEWDIN ATOMIC CHARGES
----------------------
   0 S :    0.404963
   1 C :   -0.188608
   2 C :   -0.065110
   3 C :   -0.062783
   4 C :   -0.195807
   5 H :    0.031469
   6 C :   -0.029342
   7 H :    0.026655
   8 H :    0.035323
   9 C :   -0.025718
  10 H :    0.029053
  11 H :    0.015543
  12 C :   -0.068571
  13 H :    0.026345
  14 H :    0.024198
  15 H :    0.017961
  16 S :    0.415867
  17 C :   -0.206852
  18 C :   -0.080142
  19 C :   -0.056691
  20 C :   -0.195184
  21 H :    0.035693
  22 C :   -0.045901
  23 H :    0.028741
  24 H :    0.030927
  25 C :   -0.031799
  26 H :    0.018835
  27 H :    0.025564
  28 C :   -0.063473
  29 H :    0.026183
  30 H :    0.029144
  31 H :    0.020836
  32 H :    0.036372
  33 H :    0.036310

  Mayer bond orders larger than 0.100000
B(  0-S ,  1-C ) :   1.1187 B(  0-S ,  4-C ) :   1.1486 B(  1-C ,  2-C ) :   1.6307
B(  1-C , 32-H ) :   0.9634 B(  2-C ,  3-C ) :   1.2294 B(  2-C ,  6-C ) :   1.0198
B(  3-C ,  4-C ) :   1.5850 B(  3-C ,  5-H ) :   0.9907 B(  4-C , 20-C ) :   1.0399
B(  6-C ,  7-H ) :   0.9323 B(  6-C ,  8-H ) :   0.9424 B(  6-C ,  9-C ) :   1.0694
B(  9-C , 10-H ) :   0.9577 B(  9-C , 11-H ) :   0.9559 B(  9-C , 12-C ) :   1.0790
B( 12-C , 13-H ) :   0.9753 B( 12-C , 14-H ) :   0.9725 B( 12-C , 15-H ) :   0.9768
B( 16-S , 17-C ) :   1.1894 B( 16-S , 20-C ) :   1.1334 B( 17-C , 18-C ) :   1.5580
B( 17-C , 20-C ) :   0.1080 B( 17-C , 33-H ) :   0.9617 B( 18-C , 19-C ) :   1.3010
B( 18-C , 21-H ) :   0.9795 B( 19-C , 20-C ) :   1.5218 B( 19-C , 22-C ) :   1.0581
B( 22-C , 23-H ) :   0.9290 B( 22-C , 24-H ) :   0.9277 B( 22-C , 25-C ) :   1.0646
B( 25-C , 26-H ) :   0.9528 B( 25-C , 27-H ) :   0.9551 B( 25-C , 28-C ) :   1.0854
B( 28-C , 29-H ) :   0.9652 B( 28-C , 30-H ) :   0.9709 B( 28-C , 31-H ) :   0.9710

Dispersion correction           -0.017224480
FINAL SINGLE POINT ENERGY     -1339.874270645194

DIPOLE MOMENT
-------------
                                X             Y             Z
Electronic contribution:      6.86541      -4.48141     -24.59209
Nuclear contribution   :     -7.10979       4.44073      25.07088
                        -----------------------------------------
Total Dipole Moment    :     -0.24438      -0.04069       0.47879
                        -----------------------------------------
Magnitude (a.u.)       :      0.53909
Magnitude (Debye)      :      1.37026

Rotational constants in cm-1:     0.021778     0.009332     0.008239
Rotational constants in MHz :   652.883677   279.767126   246.998489

                             ****ORCA TERMINATED NORMALLY****
TOTAL RUN TIME: 0 days 0 hours 0 minutes 36 seconds 65 msec
