                         Program Version 4.2.1 -  RELEASE  -
|  1> ! wB97X-D3 SP def2-SVP
|  2> %pal
|  3> nprocs 16
|  4> end
|  5>
|  6> * xyz 0 1
|  7> S 	 40.9042 	 23.3825 	 81.8029
|  8> C 	 41.7573 	 24.6874 	 82.5185
|  9> C 	 42.4244 	 24.2848 	 83.6503
| 10> C 	 42.5735 	 22.8629 	 83.6309
| 11> C 	 41.8973 	 22.2443 	 82.5976
| 12> H 	 43.2717 	 22.1986 	 84.1528
| 13> C 	 43.4118 	 25.086 	 84.4859
| 14> H 	 43.452 	 26.0855 	 84.1007
| 15> H 	 44.415 	 24.6415 	 84.1456
| 16> C 	 43.0234 	 25.1716 	 85.9374
| 17> H 	 42.418 	 26.0207 	 86.1302
| 18> H 	 42.3603 	 24.3407 	 86.1816
| 19> C 	 44.1184 	 25.1701 	 86.9534
| 20> H 	 43.7517 	 25.1948 	 87.9642
| 21> H 	 44.7258 	 24.2827 	 86.8206
| 22> H 	 44.7595 	 26.1148 	 86.8964
| 23> S 	 41.9994 	 20.4671 	 80.5207
| 24> C 	 42.1003 	 18.7769 	 80.8956
| 25> C 	 42.1815 	 18.4858 	 82.2421
| 26> C 	 42.0787 	 19.6788 	 82.9937
| 27> C 	 41.9377 	 20.8428 	 82.2627
| 28> H 	 42.2143 	 17.4131 	 82.5449
| 29> C 	 42.0953 	 19.5661 	 84.5266
| 30> H 	 41.5243 	 18.7069 	 84.7834
| 31> H 	 41.6716 	 20.4457 	 84.9071
| 32> C 	 43.5211 	 19.3621 	 85.0696
| 33> H 	 44.1856 	 20.0717 	 84.5329
| 34> H 	 43.9473 	 18.3823 	 84.8002
| 35> C 	 43.7812 	 19.3875 	 86.6509
| 36> H 	 43.7984 	 20.4214 	 87.0498
| 37> H 	 44.7376 	 18.9083 	 86.8611
| 38> H 	 42.9901 	 18.8101 	 87.1748
| 39> H 	 41.8297 	 25.7132 	 82.1813
| 40> H 	 42.2427 	 18.095 	 80.0428
| 41> *
| 42>
| 43>                          ****END OF INPUT****

CARTESIAN COORDINATES (ANGSTROEM)
---------------------------------
  S     40.904200   23.382500   81.802900
  C     41.757300   24.687400   82.518500
  C     42.424400   24.284800   83.650300
  C     42.573500   22.862900   83.630900
  C     41.897300   22.244300   82.597600
  H     43.271700   22.198600   84.152800
  C     43.411800   25.086000   84.485900
  H     43.452000   26.085500   84.100700
  H     44.415000   24.641500   84.145600
  C     43.023400   25.171600   85.937400
  H     42.418000   26.020700   86.130200
  H     42.360300   24.340700   86.181600
  C     44.118400   25.170100   86.953400
  H     43.751700   25.194800   87.964200
  H     44.725800   24.282700   86.820600
  H     44.759500   26.114800   86.896400
  S     41.999400   20.467100   80.520700
  C     42.100300   18.776900   80.895600
  C     42.181500   18.485800   82.242100
  C     42.078700   19.678800   82.993700
  C     41.937700   20.842800   82.262700
  H     42.214300   17.413100   82.544900
  C     42.095300   19.566100   84.526600
  H     41.524300   18.706900   84.783400
  H     41.671600   20.445700   84.907100
  C     43.521100   19.362100   85.069600
  H     44.185600   20.071700   84.532900
  H     43.947300   18.382300   84.800200
  C     43.781200   19.387500   86.650900
  H     43.798400   20.421400   87.049800
  H     44.737600   18.908300   86.861100
  H     42.990100   18.810100   87.174800
  H     41.829700   25.713200   82.181300
  H     42.242700   18.095000   80.042800

 Total Charge           Charge          ....    0
 Multiplicity           Mult            ....    1
 Number of Electrons    NEL             ....  134
 Basis Dimension        Dim             ....  322

ORBITAL ENERGIES
----------------

  NO   OCC          E(Eh)            E(eV)
   0   2.0000     -88.964019     -2420.8340
   1   2.0000     -88.962787     -2420.8005
   2   2.0000     -10.326574      -281.0004
   3   2.0000     -10.321484      -280.8619
   4   2.0000     -10.319475      -280.8072
   5   2.0000     -10.309233      -280.5285
   6   2.0000     -10.305841      -280.4362
   7   2.0000     -10.299235      -280.2564
   8   2.0000     -10.298463      -280.2354
   9   2.0000     -10.294113      -280.1171
  10   2.0000     -10.293812      -280.1089
  11   2.0000     -10.290147      -280.0091
  12   2.0000     -10.288286      -279.9585
  13   2.0000     -10.286952      -279.9222
  14   2.0000     -10.278891      -279.7028
  15   2.0000     -10.277993      -279.6784
  16   2.0000      -8.079106      -219.8436
  17   2.0000      -8.078949      -219.8394
  18   2.0000      -6.037615      -164.2919
  19   2.0000      -6.037292      -164.2831
  20   2.0000      -6.033519      -164.1804
  21   2.0000      -6.033500      -164.1799
  22   2.0000      -6.029796      -164.0791
  23   2.0000      -6.029639      -164.0748
  24   2.0000      -1.014306       -27.6007
  25   2.0000      -0.989897       -26.9365
  26   2.0000      -0.917931       -24.9782
  27   2.0000      -0.904493       -24.6125
  28   2.0000      -0.874141       -23.7866
  29   2.0000      -0.852417       -23.1955
  30   2.0000      -0.845452       -23.0059
  31   2.0000      -0.812940       -22.1212
  32   2.0000      -0.785437       -21.3728
  33   2.0000      -0.774527       -21.0759
  34   2.0000      -0.704564       -19.1722
  35   2.0000      -0.697517       -18.9804
  36   2.0000      -0.693543       -18.8723
  37   2.0000      -0.665107       -18.0985
  38   2.0000      -0.641496       -17.4560
  39   2.0000      -0.619656       -16.8617
  40   2.0000      -0.595726       -16.2105
  41   2.0000      -0.569117       -15.4865
  42   2.0000      -0.564478       -15.3602
  43   2.0000      -0.558818       -15.2062
  44   2.0000      -0.531386       -14.4598
  45   2.0000      -0.524874       -14.2825
  46   2.0000      -0.522776       -14.2255
  47   2.0000      -0.511000       -13.9050
  48   2.0000      -0.501359       -13.6427
  49   2.0000      -0.500964       -13.6319
  50   2.0000      -0.495829       -13.4922
  51   2.0000      -0.479531       -13.0487
  52   2.0000      -0.475436       -12.9373
  53   2.0000      -0.466035       -12.6815
  54   2.0000      -0.458698       -12.4818
  55   2.0000      -0.452987       -12.3264
  56   2.0000      -0.443553       -12.0697
  57   2.0000      -0.436426       -11.8757
  58   2.0000      -0.435430       -11.8486
  59   2.0000      -0.421387       -11.4665
  60   2.0000      -0.418232       -11.3807
  61   2.0000      -0.415350       -11.3023
  62   2.0000      -0.410394       -11.1674
  63   2.0000      -0.350217        -9.5299
  64   2.0000      -0.335060        -9.1174
  65   2.0000      -0.327652        -8.9159
  66   2.0000      -0.287958        -7.8357
  67   0.0000       0.024358         0.6628
  68   0.0000       0.077887         2.1194
  69   0.0000       0.106980         2.9111
  70   0.0000       0.115815         3.1515
  71   0.0000       0.123617         3.3638

MULLIKEN ATOMIC CHARGES
-----------------------
   0 S :    0.124094
   1 C :   -0.121203
   2 C :   -0.068460
   3 C :   -0.002534
   4 C :   -0.145720
   5 H :    0.006282
   6 C :    0.038936
   7 H :    0.006879
   8 H :    0.054742
   9 C :   -0.041038
  10 H :    0.019854
  11 H :    0.028309
  12 C :   -0.053566
  13 H :    0.027627
  14 H :    0.031150
  15 H :    0.032757
  16 S :    0.096674
  17 C :   -0.106519
  18 C :   -0.040210
  19 C :   -0.069582
  20 C :   -0.143241
  21 H :    0.041984
  22 C :    0.148932
  23 H :    0.015281
  24 H :    0.012996
  25 C :   -0.128230
  26 H :    0.034702
  27 H :    0.023987
  28 C :   -0.056088
  29 H :    0.041253
  30 H :    0.039662
  31 H :    0.036856
  32 H :    0.046292
  33 H :    0.067145
Sum of atomic charges:    0.0000000

LOEWDIN ATOMIC CHARGES
----------------------
   0 S :    0.423864
   1 C :   -0.203867
   2 C :   -0.064176
   3 C :   -0.070171
   4 C :   -0.208309
   5 H :    0.031374
   6 C :   -0.033283
   7 H :    0.024159
   8 H :    0.045324
   9 C :   -0.046152
  10 H :    0.024230
  11 H :    0.026026
  12 C :   -0.063872
  13 H :    0.023763
  14 H :    0.021992
  15 H :    0.029594
  16 S :    0.397418
  17 C :   -0.180192
  18 C :   -0.079689
  19 C :   -0.047636
  20 C :   -0.193511
  21 H :    0.045373
  22 C :   -0.019541
  23 H :    0.027018
  24 H :    0.020865
  25 C :   -0.046179
  26 H :    0.021501
  27 H :    0.023305
  28 C :   -0.068841
  29 H :    0.025389
  30 H :    0.027408
  31 H :    0.027911
  32 H :    0.029780
  33 H :    0.029125

  Mayer bond orders larger than 0.100000
B(  0-S ,  1-C ) :   1.1386 B(  0-S ,  4-C ) :   1.1463 B(  1-C ,  2-C ) :   1.6133
B(  1-C , 32-H ) :   0.9686 B(  2-C ,  3-C ) :   1.1993 B(  2-C ,  6-C ) :   1.0345
B(  3-C ,  4-C ) :   1.5986 B(  3-C ,  5-H ) :   0.9914 B(  4-C , 20-C ) :   1.0622
B(  6-C ,  7-H ) :   0.9389 B(  6-C ,  8-H ) :   0.9584 B(  6-C ,  9-C ) :   1.0281
B(  9-C , 10-H ) :   0.9462 B(  9-C , 11-H ) :   0.9638 B(  9-C , 12-C ) :   1.0943
B( 12-C , 13-H ) :   0.9711 B( 12-C , 14-H ) :   0.9781 B( 12-C , 15-H ) :   0.9718
B( 16-S , 17-C ) :   1.1768 B( 16-S , 20-C ) :   1.1223 B( 17-C , 18-C ) :   1.5985
B( 17-C , 20-C ) :   0.1006 B( 17-C , 33-H ) :   0.9622 B( 18-C , 19-C ) :   1.2277
B( 18-C , 21-H ) :   0.9901 B( 19-C , 20-C ) :   1.6054 B( 19-C , 22-C ) :   1.0473
B( 22-C , 23-H ) :   0.9269 B( 22-C , 24-H ) :   0.9336 B( 22-C , 25-C ) :   1.0550
B( 25-C , 26-H ) :   0.9554 B( 25-C , 27-H ) :   0.9572 B( 25-C , 28-C ) :   1.0687
B( 28-C , 29-H ) :   0.9788 B( 28-C , 30-H ) :   0.9783 B( 28-C , 31-H ) :   0.9752

Dispersion correction           -0.014122416
FINAL SINGLE POINT ENERGY     -1339.867148064986

DIPOLE MOMENT
-------------
                                X             Y             Z
Electronic contribution:    -14.20529      -2.28563     -29.98355
Nuclear contribution   :     14.61530       2.12677      30.44746
                        -----------------------------------------
Total Dipole Moment    :      0.41001      -0.15886       0.46392
                        -----------------------------------------
Magnitude (a.u.)       :      0.63918
Magnitude (Debye)      :      1.62468

Rotational constants in cm-1:     0.016710     0.009879     0.006531
Rotational constants in MHz :   500.942628   296.159816   195.794013

                             ****ORCA TERMINATED NORMALLY****
TOTAL RUN TIME: 0 days 0 hours 0 minutes 31 seconds 259 msec
