                         Program Version 4.2.1 -  RELEASE  -
|  1> ! wB97X-D3 SP def2-SVP
|  2> %pal
|  3> nprocs 16
|  4> end
|  5>
|  6> * xyz 0 1
|  7> S 	 58.6364 	 12.8475 	 57.7307
|  8> C 	 57.5255 	 14.1867 	 58.1285
|  9> C 	 57.9846 	 15.3499 	 57.4318
| 10> C 	 59.2391 	 15.0827 	 56.7206
| 11> C 	 59.7053 	 13.8588 	 56.795
| 12> H 	 59.8529 	 15.8267 	 56.1462
| 13> C 	 57.295 	 16.6859 	 57.3824
| 14> H 	 57.1479 	 16.9079 	 56.2639
| 15> H 	 58 	 17.3963 	 57.7112
| 16> C 	 56.0759 	 16.9866 	 58.2719
| 17> H 	 55.3022 	 16.2925 	 57.9816
| 18> H 	 56.3416 	 16.7908 	 59.3301
| 19> C 	 55.572 	 18.4151 	 58.3933
| 20> H 	 54.814 	 18.5446 	 59.1705
| 21> H 	 56.4132 	 19.0884 	 58.6774
| 22> H 	 55.0742 	 18.7209 	 57.4835
| 23> S 	 62.2471 	 13.2117 	 57.6044
| 24> C 	 63.5633 	 13.1732 	 56.4909
| 25> C 	 63.0326 	 12.8566 	 55.2553
| 26> C 	 61.6479 	 13.1506 	 55.1346
| 27> C 	 61.0288 	 13.3916 	 56.3273
| 28> H 	 63.6525 	 12.6298 	 54.4495
| 29> C 	 61.0608 	 13.2064 	 53.7164
| 30> H 	 61.7959 	 13.8473 	 53.2159
| 31> H 	 60.1587 	 13.789 	 53.5914
| 32> C 	 60.8964 	 11.9314 	 52.8163
| 33> H 	 61.9045 	 11.5794 	 52.622
| 34> H 	 60.4144 	 12.2909 	 51.8592
| 35> C 	 60.0349 	 10.862 	 53.4249
| 36> H 	 59.2249 	 11.3584 	 53.9403
| 37> H 	 60.6701 	 10.2418 	 54.081
| 38> H 	 59.5728 	 10.2557 	 52.6126
| 39> H 	 56.6613 	 14.1269 	 58.8006
| 40> H 	 64.5919 	 13.0584 	 56.9123
| 41> *
| 42>
| 43>                          ****END OF INPUT****

CARTESIAN COORDINATES (ANGSTROEM)
---------------------------------
  S     58.636400   12.847500   57.730700
  C     57.525500   14.186700   58.128500
  C     57.984600   15.349900   57.431800
  C     59.239100   15.082700   56.720600
  C     59.705300   13.858800   56.795000
  H     59.852900   15.826700   56.146200
  C     57.295000   16.685900   57.382400
  H     57.147900   16.907900   56.263900
  H     58.000000   17.396300   57.711200
  C     56.075900   16.986600   58.271900
  H     55.302200   16.292500   57.981600
  H     56.341600   16.790800   59.330100
  C     55.572000   18.415100   58.393300
  H     54.814000   18.544600   59.170500
  H     56.413200   19.088400   58.677400
  H     55.074200   18.720900   57.483500
  S     62.247100   13.211700   57.604400
  C     63.563300   13.173200   56.490900
  C     63.032600   12.856600   55.255300
  C     61.647900   13.150600   55.134600
  C     61.028800   13.391600   56.327300
  H     63.652500   12.629800   54.449500
  C     61.060800   13.206400   53.716400
  H     61.795900   13.847300   53.215900
  H     60.158700   13.789000   53.591400
  C     60.896400   11.931400   52.816300
  H     61.904500   11.579400   52.622000
  H     60.414400   12.290900   51.859200
  C     60.034900   10.862000   53.424900
  H     59.224900   11.358400   53.940300
  H     60.670100   10.241800   54.081000
  H     59.572800   10.255700   52.612600
  H     56.661300   14.126900   58.800600
  H     64.591900   13.058400   56.912300

 Total Charge           Charge          ....    0
 Multiplicity           Mult            ....    1
 Number of Electrons    NEL             ....  134
 Basis Dimension        Dim             ....  322

ORBITAL ENERGIES
----------------

  NO   OCC          E(Eh)            E(eV)
   0   2.0000     -88.960489     -2420.7380
   1   2.0000     -88.956859     -2420.6392
   2   2.0000     -10.328414      -281.0504
   3   2.0000     -10.324848      -280.9534
   4   2.0000     -10.322900      -280.9004
   5   2.0000     -10.322613      -280.8926
   6   2.0000     -10.312085      -280.6061
   7   2.0000     -10.306995      -280.4676
   8   2.0000     -10.295227      -280.1474
   9   2.0000     -10.293074      -280.0888
  10   2.0000     -10.291093      -280.0349
  11   2.0000     -10.291055      -280.0339
  12   2.0000     -10.289304      -279.9862
  13   2.0000     -10.289011      -279.9782
  14   2.0000     -10.283336      -279.8238
  15   2.0000     -10.273681      -279.5611
  16   2.0000      -8.074959      -219.7308
  17   2.0000      -8.072552      -219.6653
  18   2.0000      -6.033665      -164.1844
  19   2.0000      -6.031062      -164.1135
  20   2.0000      -6.029465      -164.0701
  21   2.0000      -6.026916      -164.0007
  22   2.0000      -6.025541      -163.9633
  23   2.0000      -6.023232      -163.9005
  24   2.0000      -1.008509       -27.4429
  25   2.0000      -0.984641       -26.7934
  26   2.0000      -0.912134       -24.8204
  27   2.0000      -0.905538       -24.6409
  28   2.0000      -0.868336       -23.6286
  29   2.0000      -0.851094       -23.1594
  30   2.0000      -0.846358       -23.0306
  31   2.0000      -0.817284       -22.2394
  32   2.0000      -0.781949       -21.2779
  33   2.0000      -0.772654       -21.0250
  34   2.0000      -0.708383       -19.2761
  35   2.0000      -0.694746       -18.9050
  36   2.0000      -0.684263       -18.6197
  37   2.0000      -0.663057       -18.0427
  38   2.0000      -0.640779       -17.4365
  39   2.0000      -0.608622       -16.5615
  40   2.0000      -0.599845       -16.3226
  41   2.0000      -0.577251       -15.7078
  42   2.0000      -0.566332       -15.4107
  43   2.0000      -0.550697       -14.9852
  44   2.0000      -0.543890       -14.8000
  45   2.0000      -0.523110       -14.2345
  46   2.0000      -0.517725       -14.0880
  47   2.0000      -0.512725       -13.9520
  48   2.0000      -0.508309       -13.8318
  49   2.0000      -0.503323       -13.6961
  50   2.0000      -0.488066       -13.2810
  51   2.0000      -0.478815       -13.0292
  52   2.0000      -0.474831       -12.9208
  53   2.0000      -0.461791       -12.5660
  54   2.0000      -0.458934       -12.4882
  55   2.0000      -0.455474       -12.3941
  56   2.0000      -0.436508       -11.8780
  57   2.0000      -0.430214       -11.7067
  58   2.0000      -0.424187       -11.5427
  59   2.0000      -0.424087       -11.5400
  60   2.0000      -0.419876       -11.4254
  61   2.0000      -0.409559       -11.1447
  62   2.0000      -0.408450       -11.1145
  63   2.0000      -0.341184        -9.2841
  64   2.0000      -0.325441        -8.8557
  65   2.0000      -0.319498        -8.6940
  66   2.0000      -0.307421        -8.3654
  67   0.0000       0.043652         1.1878
  68   0.0000       0.057151         1.5552
  69   0.0000       0.114708         3.1214
  70   0.0000       0.118546         3.2258
  71   0.0000       0.131730         3.5846

MULLIKEN ATOMIC CHARGES
-----------------------
   0 S :    0.093173
   1 C :   -0.136704
   2 C :   -0.100567
   3 C :    0.026235
   4 C :   -0.133142
   5 H :    0.028906
   6 C :    0.066474
   7 H :    0.049168
   8 H :    0.015315
   9 C :   -0.108001
  10 H :    0.031461
  11 H :    0.032936
  12 C :   -0.039564
  13 H :    0.034919
  14 H :    0.038095
  15 H :    0.030176
  16 S :    0.088352
  17 C :   -0.112463
  18 C :   -0.008107
  19 C :   -0.011477
  20 C :   -0.163243
  21 H :    0.001868
  22 C :    0.025734
  23 H :    0.025289
  24 H :    0.020227
  25 C :   -0.086360
  26 H :    0.023049
  27 H :    0.036944
  28 C :   -0.033168
  29 H :    0.030931
  30 H :    0.046028
  31 H :    0.037375
  32 H :    0.065021
  33 H :    0.085120
Sum of atomic charges:    0.0000000

LOEWDIN ATOMIC CHARGES
----------------------
   0 S :    0.383218
   1 C :   -0.198005
   2 C :   -0.054816
   3 C :   -0.069315
   4 C :   -0.199417
   5 H :    0.042711
   6 C :   -0.041688
   7 H :    0.044052
   8 H :    0.026445
   9 C :   -0.048431
  10 H :    0.019726
  11 H :    0.030171
  12 C :   -0.062835
  13 H :    0.029805
  14 H :    0.030656
  15 H :    0.021335
  16 S :    0.401161
  17 C :   -0.184302
  18 C :   -0.069124
  19 C :   -0.056579
  20 C :   -0.188616
  21 H :    0.019219
  22 C :   -0.037828
  23 H :    0.033498
  24 H :    0.026098
  25 C :   -0.040446
  26 H :    0.016804
  27 H :    0.031703
  28 C :   -0.067495
  29 H :    0.025497
  30 H :    0.031397
  31 H :    0.031045
  32 H :    0.034436
  33 H :    0.039919

  Mayer bond orders larger than 0.100000
B(  0-S ,  1-C ) :   1.1180 B(  0-S ,  4-C ) :   1.1271 B(  1-C ,  2-C ) :   1.6215
B(  1-C , 32-H ) :   0.9666 B(  2-C ,  3-C ) :   1.1990 B(  2-C ,  6-C ) :   1.0255
B(  3-C ,  4-C ) :   1.6686 B(  3-C ,  5-H ) :   0.9839 B(  4-C , 20-C ) :   0.9802
B(  6-C ,  7-H ) :   0.9344 B(  6-C ,  8-H ) :   0.9311 B(  6-C ,  9-C ) :   1.0700
B(  9-C , 10-H ) :   0.9516 B(  9-C , 11-H ) :   0.9541 B(  9-C , 12-C ) :   1.0911
B( 12-C , 13-H ) :   0.9733 B( 12-C , 14-H ) :   0.9713 B( 12-C , 15-H ) :   0.9749
B( 16-S , 17-C ) :   1.1780 B( 16-S , 20-C ) :   1.1351 B( 17-C , 18-C ) :   1.5809
B( 17-C , 20-C ) :   0.1006 B( 17-C , 33-H ) :   0.9640 B( 18-C , 19-C ) :   1.2355
B( 18-C , 21-H ) :   0.9981 B( 19-C , 20-C ) :   1.6292 B( 19-C , 22-C ) :   1.0217
B( 22-C , 23-H ) :   0.9367 B( 22-C , 24-H ) :   0.9438 B( 22-C , 25-C ) :   1.0805
B( 25-C , 26-H ) :   0.9577 B( 25-C , 27-H ) :   0.9537 B( 25-C , 28-C ) :   1.0745
B( 28-C , 29-H ) :   0.9757 B( 28-C , 30-H ) :   0.9734 B( 28-C , 31-H ) :   0.9739

Dispersion correction           -0.013663743
FINAL SINGLE POINT ENERGY     -1339.860187032404

DIPOLE MOMENT
-------------
                                X             Y             Z
Electronic contribution:     13.62263     -10.58608      11.46650
Nuclear contribution   :    -13.64250      11.05865     -11.87270
                        -----------------------------------------
Total Dipole Moment    :     -0.01987       0.47257      -0.40620
                        -----------------------------------------
Magnitude (a.u.)       :      0.62347
Magnitude (Debye)      :      1.58473

Rotational constants in cm-1:     0.022514     0.006742     0.006166
Rotational constants in MHz :   674.966016   202.129750   184.843121

                             ****ORCA TERMINATED NORMALLY****
TOTAL RUN TIME: 0 days 0 hours 0 minutes 27 seconds 766 msec
