                         Program Version 4.2.1 -  RELEASE  -
|  1> ! wB97X-D3 SP def2-SVP
|  2> %pal
|  3> nprocs 16
|  4> end
|  5>
|  6> * xyz 0 1
|  7> S 	 1.93425 	 -1.88945 	 77.6458
|  8> C 	 0.460065 	 -2.80747 	 77.6397
|  9> C 	 0.0648357 	 -3.05552 	 78.9773
| 10> C 	 1.03361 	 -2.58635 	 79.9697
| 11> C 	 2.00967 	 -1.83828 	 79.3522
| 12> H 	 1.01615 	 -2.69696 	 81.0462
| 13> C 	 -1.27902 	 -3.70268 	 79.3117
| 14> H 	 -1.15717 	 -4.52491 	 80.0146
| 15> H 	 -1.85988 	 -4.0192 	 78.4564
| 16> C 	 -2.05208 	 -2.70764 	 80.1048
| 17> H 	 -2.97396 	 -3.27134 	 80.4492
| 18> H 	 -1.41214 	 -2.39651 	 80.9581
| 19> C 	 -2.56776 	 -1.38059 	 79.3199
| 20> H 	 -2.79721 	 -1.57415 	 78.2856
| 21> H 	 -3.45395 	 -0.989806 	 79.8866
| 22> H 	 -1.74487 	 -0.56214 	 79.2655
| 23> S 	 4.23473 	 -1.91555 	 81.0029
| 24> C 	 4.91617 	 -0.38793 	 81.4918
| 25> C 	 4.26015 	 0.718468 	 80.9661
| 26> C 	 3.11347 	 0.356767 	 80.1709
| 27> C 	 3.00761 	 -1.04152 	 80.0063
| 28> H 	 4.62839 	 1.6834 	 81.2766
| 29> C 	 2.35587 	 1.46507 	 79.3965
| 30> H 	 1.77085 	 1.04081 	 78.5678
| 31> H 	 3.19481 	 1.98883 	 78.9842
| 32> C 	 1.40762 	 2.43935 	 80.1837
| 33> H 	 1.10254 	 3.22783 	 79.5113
| 34> H 	 2.08853 	 2.89239 	 80.8464
| 35> C 	 0.310951 	 1.65318 	 80.8068
| 36> H 	 0.806503 	 0.860506 	 81.3423
| 37> H 	 -0.374185 	 1.17223 	 80.0839
| 38> H 	 -0.283053 	 2.19125 	 81.5208
| 39> H 	 -0.0171831 	 -3.25258 	 76.8218
| 40> H 	 5.55899 	 -0.325691 	 82.3428
| 41> *
| 42>
| 43>                          ****END OF INPUT****

CARTESIAN COORDINATES (ANGSTROEM)
---------------------------------
  S      1.934250   -1.889450   77.645800
  C      0.460065   -2.807470   77.639700
  C      0.064836   -3.055520   78.977300
  C      1.033610   -2.586350   79.969700
  C      2.009670   -1.838280   79.352200
  H      1.016150   -2.696960   81.046200
  C     -1.279020   -3.702680   79.311700
  H     -1.157170   -4.524910   80.014600
  H     -1.859880   -4.019200   78.456400
  C     -2.052080   -2.707640   80.104800
  H     -2.973960   -3.271340   80.449200
  H     -1.412140   -2.396510   80.958100
  C     -2.567760   -1.380590   79.319900
  H     -2.797210   -1.574150   78.285600
  H     -3.453950   -0.989806   79.886600
  H     -1.744870   -0.562140   79.265500
  S      4.234730   -1.915550   81.002900
  C      4.916170   -0.387930   81.491800
  C      4.260150    0.718468   80.966100
  C      3.113470    0.356767   80.170900
  C      3.007610   -1.041520   80.006300
  H      4.628390    1.683400   81.276600
  C      2.355870    1.465070   79.396500
  H      1.770850    1.040810   78.567800
  H      3.194810    1.988830   78.984200
  C      1.407620    2.439350   80.183700
  H      1.102540    3.227830   79.511300
  H      2.088530    2.892390   80.846400
  C      0.310951    1.653180   80.806800
  H      0.806503    0.860506   81.342300
  H     -0.374185    1.172230   80.083900
  H     -0.283053    2.191250   81.520800
  H     -0.017183   -3.252580   76.821800
  H      5.558990   -0.325691   82.342800

 Total Charge           Charge          ....    0
 Multiplicity           Mult            ....    1
 Number of Electrons    NEL             ....  134
 Basis Dimension        Dim             ....  322

ORBITAL ENERGIES
----------------

  NO   OCC          E(Eh)            E(eV)
   0   2.0000     -88.966548     -2420.9029
   1   2.0000     -88.966530     -2420.9024
   2   2.0000     -10.330556      -281.1087
   3   2.0000     -10.324932      -280.9557
   4   2.0000     -10.315927      -280.7106
   5   2.0000     -10.313161      -280.6354
   6   2.0000     -10.310950      -280.5752
   7   2.0000     -10.308835      -280.5177
   8   2.0000     -10.299538      -280.2647
   9   2.0000     -10.296535      -280.1830
  10   2.0000     -10.293574      -280.1024
  11   2.0000     -10.290437      -280.0170
  12   2.0000     -10.289329      -279.9869
  13   2.0000     -10.288273      -279.9581
  14   2.0000     -10.280169      -279.7376
  15   2.0000     -10.269293      -279.4417
  16   2.0000      -8.081784      -219.9165
  17   2.0000      -8.080614      -219.8847
  18   2.0000      -6.040220      -164.3627
  19   2.0000      -6.039064      -164.3313
  20   2.0000      -6.036051      -164.2493
  21   2.0000      -6.035234      -164.2271
  22   2.0000      -6.032750      -164.1595
  23   2.0000      -6.031475      -164.1248
  24   2.0000      -1.006492       -27.3880
  25   2.0000      -0.979135       -26.6436
  26   2.0000      -0.914277       -24.8787
  27   2.0000      -0.908883       -24.7320
  28   2.0000      -0.868285       -23.6272
  29   2.0000      -0.849719       -23.1220
  30   2.0000      -0.836800       -22.7705
  31   2.0000      -0.809060       -22.0157
  32   2.0000      -0.782440       -21.2913
  33   2.0000      -0.772924       -21.0323
  34   2.0000      -0.711402       -19.3582
  35   2.0000      -0.695920       -18.9369
  36   2.0000      -0.682700       -18.5772
  37   2.0000      -0.660484       -17.9727
  38   2.0000      -0.641338       -17.4517
  39   2.0000      -0.621218       -16.9042
  40   2.0000      -0.594488       -16.1769
  41   2.0000      -0.568339       -15.4653
  42   2.0000      -0.555359       -15.1121
  43   2.0000      -0.548259       -14.9189
  44   2.0000      -0.545940       -14.8558
  45   2.0000      -0.538600       -14.6561
  46   2.0000      -0.518838       -14.1183
  47   2.0000      -0.510353       -13.8874
  48   2.0000      -0.502272       -13.6675
  49   2.0000      -0.492648       -13.4056
  50   2.0000      -0.489365       -13.3163
  51   2.0000      -0.480029       -13.0622
  52   2.0000      -0.463909       -12.6236
  53   2.0000      -0.462948       -12.5975
  54   2.0000      -0.457527       -12.4499
  55   2.0000      -0.447959       -12.1896
  56   2.0000      -0.444683       -12.1004
  57   2.0000      -0.438937       -11.9441
  58   2.0000      -0.433600       -11.7988
  59   2.0000      -0.423345       -11.5198
  60   2.0000      -0.419171       -11.4062
  61   2.0000      -0.415022       -11.2933
  62   2.0000      -0.404885       -11.0175
  63   2.0000      -0.337583        -9.1861
  64   2.0000      -0.331904        -9.0316
  65   2.0000      -0.323720        -8.8089
  66   2.0000      -0.299241        -8.1428
  67   0.0000       0.034160         0.9295
  68   0.0000       0.062326         1.6960
  69   0.0000       0.104043         2.8311
  70   0.0000       0.115357         3.1390
  71   0.0000       0.129341         3.5195

MULLIKEN ATOMIC CHARGES
-----------------------
   0 S :    0.128355
   1 C :   -0.098835
   2 C :   -0.122181
   3 C :    0.042388
   4 C :   -0.168224
   5 H :    0.023641
   6 C :    0.120371
   7 H :    0.028883
   8 H :    0.017900
   9 C :   -0.138005
  10 H :    0.038072
  11 H :    0.042217
  12 C :   -0.088440
  13 H :    0.027563
  14 H :    0.050759
  15 H :    0.053890
  16 S :    0.101468
  17 C :   -0.087640
  18 C :   -0.040556
  19 C :   -0.012180
  20 C :   -0.183378
  21 H :    0.021664
  22 C :    0.022279
  23 H :    0.023166
  24 H :    0.031779
  25 C :   -0.017284
  26 H :    0.027649
  27 H :    0.005951
  28 C :   -0.026952
  29 H :    0.028092
  30 H :    0.033096
  31 H :    0.027456
  32 H :    0.031171
  33 H :    0.055863
Sum of atomic charges:   -0.0000000

LOEWDIN ATOMIC CHARGES
----------------------
   0 S :    0.438151
   1 C :   -0.208338
   2 C :   -0.047688
   3 C :   -0.060924
   4 C :   -0.211730
   5 H :    0.033504
   6 C :   -0.034634
   7 H :    0.033902
   8 H :    0.026446
   9 C :   -0.044209
  10 H :    0.026824
  11 H :    0.025952
  12 C :   -0.077827
  13 H :    0.018168
  14 H :    0.032199
  15 H :    0.033968
  16 S :    0.387565
  17 C :   -0.182734
  18 C :   -0.072252
  19 C :   -0.048435
  20 C :   -0.190540
  21 H :    0.031329
  22 C :   -0.027186
  23 H :    0.022798
  24 H :    0.030460
  25 C :   -0.032751
  26 H :    0.023859
  27 H :    0.015233
  28 C :   -0.062792
  29 H :    0.027829
  30 H :    0.029011
  31 H :    0.022001
  32 H :    0.018998
  33 H :    0.023844

  Mayer bond orders larger than 0.100000
B(  0-S ,  1-C ) :   1.1341 B(  0-S ,  4-C ) :   1.1788 B(  1-C ,  2-C ) :   1.5986
B(  1-C , 32-H ) :   0.9801 B(  2-C ,  3-C ) :   1.2254 B(  2-C ,  6-C ) :   1.0338
B(  3-C ,  4-C ) :   1.5744 B(  3-C ,  5-H ) :   0.9890 B(  4-C , 20-C ) :   1.0208
B(  6-C ,  7-H ) :   0.9325 B(  6-C ,  8-H ) :   0.9429 B(  6-C ,  9-C ) :   1.0744
B(  9-C , 10-H ) :   0.9592 B(  9-C , 11-H ) :   0.9574 B(  9-C , 12-C ) :   1.0481
B( 12-C , 13-H ) :   0.9757 B( 12-C , 14-H ) :   0.9786 B( 12-C , 15-H ) :   0.9723
B( 16-S , 17-C ) :   1.1556 B( 16-S , 20-C ) :   1.1317 B( 17-C , 18-C ) :   1.6285
B( 17-C , 33-H ) :   0.9635 B( 18-C , 19-C ) :   1.2199 B( 18-C , 21-H ) :   0.9884
B( 19-C , 20-C ) :   1.5886 B( 19-C , 22-C ) :   1.0165 B( 22-C , 23-H ) :   0.9419
B( 22-C , 24-H ) :   0.9435 B( 22-C , 25-C ) :   1.0689 B( 25-C , 26-H ) :   0.9530
B( 25-C , 27-H ) :   0.9540 B( 25-C , 28-C ) :   1.0765 B( 28-C , 29-H ) :   0.9716
B( 28-C , 30-H ) :   0.9700 B( 28-C , 31-H ) :   0.9690

Dispersion correction           -0.016198082
FINAL SINGLE POINT ENERGY     -1339.870916332387

DIPOLE MOMENT
-------------
                                X             Y             Z
Electronic contribution:     23.25262     -11.04495      -4.25776
Nuclear contribution   :    -23.66291      11.25364       4.51340
                        -----------------------------------------
Total Dipole Moment    :     -0.41028       0.20869       0.25564
                        -----------------------------------------
Magnitude (a.u.)       :      0.52653
Magnitude (Debye)      :      1.33834

Rotational constants in cm-1:     0.018886     0.009924     0.008164
Rotational constants in MHz :   566.190818   297.518211   244.742748

                             ****ORCA TERMINATED NORMALLY****
TOTAL RUN TIME: 0 days 0 hours 0 minutes 34 seconds 935 msec
