                         Program Version 4.2.1 -  RELEASE  -
|  1> ! wB97X-D3 SP def2-SVP
|  2> %pal
|  3> nprocs 16
|  4> end
|  5>
|  6> * xyz 0 1
|  7> S 	 47.9198 	 22.3824 	 87.3084
|  8> C 	 46.4878 	 22.6584 	 88.2957
|  9> C 	 46.8074 	 23.3427 	 89.4701
| 10> C 	 48.2242 	 23.5765 	 89.5789
| 11> C 	 48.9502 	 23.1507 	 88.4536
| 12> H 	 48.7256 	 24.1305 	 90.355
| 13> C 	 45.7981 	 23.7701 	 90.5173
| 14> H 	 45.0634 	 24.3804 	 90.0411
| 15> H 	 46.3383 	 24.412 	 91.1595
| 16> C 	 45.1478 	 22.5672 	 91.2663
| 17> H 	 44.3114 	 23.0052 	 91.7591
| 18> H 	 44.8159 	 21.7966 	 90.6379
| 19> C 	 46.0308 	 21.9855 	 92.3769
| 20> H 	 46.2727 	 22.7412 	 93.1553
| 21> H 	 45.6347 	 21.0634 	 92.7098
| 22> H 	 47.0344 	 21.7629 	 92.0454
| 23> S 	 50.4538 	 24.9013 	 86.8234
| 24> C 	 52.1434 	 24.9531 	 87.1218
| 25> C 	 52.5647 	 24.0866 	 88.0939
| 26> C 	 51.4696 	 23.2957 	 88.5883
| 27> C 	 50.2558 	 23.585 	 87.9862
| 28> H 	 53.6339 	 24.0677 	 88.3859
| 29> C 	 51.755 	 22.1758 	 89.6483
| 30> H 	 52.7241 	 21.6935 	 89.3909
| 31> H 	 50.9861 	 21.5051 	 89.6285
| 32> C 	 51.7124 	 22.6397 	 91.0714
| 33> H 	 50.8885 	 23.2765 	 91.2755
| 34> H 	 52.5155 	 23.349 	 91.3267
| 35> C 	 51.6796 	 21.5037 	 92.1226
| 36> H 	 50.755 	 20.8543 	 91.9523
| 37> H 	 51.6408 	 21.9153 	 93.0727
| 38> H 	 52.6003 	 20.9315 	 92.0794
| 39> H 	 45.4711 	 22.561 	 87.9643
| 40> H 	 52.7524 	 25.6893 	 86.662
| 41> *
| 42>
| 43>                          ****END OF INPUT****

CARTESIAN COORDINATES (ANGSTROEM)
---------------------------------
  S     47.919800   22.382400   87.308400
  C     46.487800   22.658400   88.295700
  C     46.807400   23.342700   89.470100
  C     48.224200   23.576500   89.578900
  C     48.950200   23.150700   88.453600
  H     48.725600   24.130500   90.355000
  C     45.798100   23.770100   90.517300
  H     45.063400   24.380400   90.041100
  H     46.338300   24.412000   91.159500
  C     45.147800   22.567200   91.266300
  H     44.311400   23.005200   91.759100
  H     44.815900   21.796600   90.637900
  C     46.030800   21.985500   92.376900
  H     46.272700   22.741200   93.155300
  H     45.634700   21.063400   92.709800
  H     47.034400   21.762900   92.045400
  S     50.453800   24.901300   86.823400
  C     52.143400   24.953100   87.121800
  C     52.564700   24.086600   88.093900
  C     51.469600   23.295700   88.588300
  C     50.255800   23.585000   87.986200
  H     53.633900   24.067700   88.385900
  C     51.755000   22.175800   89.648300
  H     52.724100   21.693500   89.390900
  H     50.986100   21.505100   89.628500
  C     51.712400   22.639700   91.071400
  H     50.888500   23.276500   91.275500
  H     52.515500   23.349000   91.326700
  C     51.679600   21.503700   92.122600
  H     50.755000   20.854300   91.952300
  H     51.640800   21.915300   93.072700
  H     52.600300   20.931500   92.079400
  H     45.471100   22.561000   87.964300
  H     52.752400   25.689300   86.662000

 Total Charge           Charge          ....    0
 Multiplicity           Mult            ....    1
 Number of Electrons    NEL             ....  134
 Basis Dimension        Dim             ....  322

ORBITAL ENERGIES
----------------

  NO   OCC          E(Eh)            E(eV)
   0   2.0000     -88.965307     -2420.8691
   1   2.0000     -88.965097     -2420.8634
   2   2.0000     -10.326587      -281.0007
   3   2.0000     -10.323636      -280.9204
   4   2.0000     -10.312383      -280.6142
   5   2.0000     -10.312164      -280.6082
   6   2.0000     -10.304710      -280.4054
   7   2.0000     -10.302282      -280.3393
   8   2.0000     -10.297553      -280.2107
   9   2.0000     -10.294049      -280.1153
  10   2.0000     -10.288516      -279.9648
  11   2.0000     -10.285591      -279.8852
  12   2.0000     -10.281949      -279.7861
  13   2.0000     -10.278415      -279.6899
  14   2.0000     -10.276446      -279.6363
  15   2.0000     -10.273259      -279.5496
  16   2.0000      -8.080281      -219.8756
  17   2.0000      -8.080239      -219.8745
  18   2.0000      -6.038684      -164.3209
  19   2.0000      -6.038650      -164.3200
  20   2.0000      -6.034778      -164.2147
  21   2.0000      -6.034500      -164.2071
  22   2.0000      -6.031320      -164.1206
  23   2.0000      -6.031058      -164.1134
  24   2.0000      -1.005874       -27.3712
  25   2.0000      -0.982816       -26.7438
  26   2.0000      -0.913035       -24.8449
  27   2.0000      -0.910102       -24.7651
  28   2.0000      -0.867388       -23.6028
  29   2.0000      -0.848805       -23.0972
  30   2.0000      -0.844699       -22.9854
  31   2.0000      -0.812182       -22.1006
  32   2.0000      -0.786804       -21.4100
  33   2.0000      -0.774253       -21.0685
  34   2.0000      -0.710432       -19.3318
  35   2.0000      -0.702033       -19.1033
  36   2.0000      -0.694356       -18.8944
  37   2.0000      -0.657401       -17.8888
  38   2.0000      -0.641255       -17.4494
  39   2.0000      -0.613799       -16.7023
  40   2.0000      -0.599829       -16.3222
  41   2.0000      -0.575491       -15.6599
  42   2.0000      -0.564720       -15.3668
  43   2.0000      -0.552188       -15.0258
  44   2.0000      -0.539892       -14.6912
  45   2.0000      -0.523009       -14.2318
  46   2.0000      -0.521472       -14.1900
  47   2.0000      -0.512647       -13.9498
  48   2.0000      -0.507277       -13.8037
  49   2.0000      -0.493517       -13.4293
  50   2.0000      -0.483415       -13.1544
  51   2.0000      -0.477691       -12.9986
  52   2.0000      -0.475872       -12.9491
  53   2.0000      -0.465349       -12.6628
  54   2.0000      -0.460583       -12.5331
  55   2.0000      -0.448474       -12.2036
  56   2.0000      -0.448219       -12.1967
  57   2.0000      -0.440806       -11.9949
  58   2.0000      -0.435410       -11.8481
  59   2.0000      -0.428752       -11.6669
  60   2.0000      -0.417995       -11.3742
  61   2.0000      -0.414705       -11.2847
  62   2.0000      -0.411829       -11.2064
  63   2.0000      -0.339404        -9.2357
  64   2.0000      -0.328601        -8.9417
  65   2.0000      -0.326527        -8.8852
  66   2.0000      -0.301111        -8.1936
  67   0.0000       0.033317         0.9066
  68   0.0000       0.061520         1.6741
  69   0.0000       0.119583         3.2540
  70   0.0000       0.125578         3.4171
  71   0.0000       0.126761         3.4494

MULLIKEN ATOMIC CHARGES
-----------------------
   0 S :    0.112935
   1 C :   -0.107163
   2 C :   -0.139351
   3 C :    0.056769
   4 C :   -0.198954
   5 H :    0.012839
   6 C :    0.100780
   7 H :    0.027036
   8 H :    0.000531
   9 C :   -0.030560
  10 H :    0.022273
  11 H :    0.022957
  12 C :   -0.039496
  13 H :    0.027718
  14 H :    0.029501
  15 H :    0.016689
  16 S :    0.120635
  17 C :   -0.088361
  18 C :   -0.032401
  19 C :   -0.064757
  20 C :   -0.138581
  21 H :    0.033241
  22 C :    0.153687
  23 H :    0.033917
  24 H :   -0.010743
  25 C :   -0.090479
  26 H :    0.003958
  27 H :    0.012475
  28 C :   -0.032524
  29 H :    0.046043
  30 H :    0.017954
  31 H :    0.029786
  32 H :    0.044925
  33 H :    0.046723
Sum of atomic charges:   -0.0000000

LOEWDIN ATOMIC CHARGES
----------------------
   0 S :    0.423874
   1 C :   -0.199932
   2 C :   -0.058821
   3 C :   -0.059892
   4 C :   -0.208094
   5 H :    0.027456
   6 C :   -0.021842
   7 H :    0.029972
   8 H :    0.023152
   9 C :   -0.025489
  10 H :    0.021655
  11 H :    0.018004
  12 C :   -0.062875
  13 H :    0.028664
  14 H :    0.021910
  15 H :    0.021316
  16 S :    0.413818
  17 C :   -0.183296
  18 C :   -0.079992
  19 C :   -0.042211
  20 C :   -0.216122
  21 H :    0.039646
  22 C :   -0.017841
  23 H :    0.036270
  24 H :    0.015936
  25 C :   -0.044529
  26 H :    0.016232
  27 H :    0.020419
  28 C :   -0.058168
  29 H :    0.034141
  30 H :    0.016264
  31 H :    0.023583
  32 H :    0.025043
  33 H :    0.021748

  Mayer bond orders larger than 0.100000
B(  0-S ,  1-C ) :   1.1477 B(  0-S ,  4-C ) :   1.1752 B(  1-C ,  2-C ) :   1.5954
B(  1-C , 32-H ) :   0.9686 B(  2-C ,  3-C ) :   1.2628 B(  2-C ,  6-C ) :   1.0186
B(  3-C ,  4-C ) :   1.5517 B(  3-C ,  5-H ) :   0.9888 B(  4-C , 20-C ) :   1.0144
B(  6-C ,  7-H ) :   0.9375 B(  6-C ,  8-H ) :   0.9402 B(  6-C ,  9-C ) :   1.0661
B(  9-C , 10-H ) :   0.9552 B(  9-C , 11-H ) :   0.9621 B(  9-C , 12-C ) :   1.0793
B( 12-C , 13-H ) :   0.9735 B( 12-C , 14-H ) :   0.9731 B( 12-C , 15-H ) :   0.9764
B( 16-S , 17-C ) :   1.1744 B( 16-S , 20-C ) :   1.1249 B( 17-C , 18-C ) :   1.6079
B( 17-C , 33-H ) :   0.9680 B( 18-C , 19-C ) :   1.2354 B( 18-C , 21-H ) :   0.9893
B( 19-C , 20-C ) :   1.6193 B( 19-C , 22-C ) :   1.0376 B( 22-C , 23-H ) :   0.9411
B( 22-C , 24-H ) :   0.9206 B( 22-C , 25-C ) :   1.0631 B( 25-C , 26-H ) :   0.9493
B( 25-C , 27-H ) :   0.9473 B( 25-C , 28-C ) :   1.0922 B( 28-C , 29-H ) :   0.9735
B( 28-C , 30-H ) :   0.9726 B( 28-C , 31-H ) :   0.9752

Dispersion correction           -0.014607770
FINAL SINGLE POINT ENERGY     -1339.875899549587

DIPOLE MOMENT
-------------
                                X             Y             Z
Electronic contribution:      3.10618       8.29102     -28.43854
Nuclear contribution   :     -3.11615      -8.07916      29.01833
                        -----------------------------------------
Total Dipole Moment    :     -0.00997       0.21186       0.57979
                        -----------------------------------------
Magnitude (a.u.)       :      0.61736
Magnitude (Debye)      :      1.56921

Rotational constants in cm-1:     0.017853     0.009412     0.006923
Rotational constants in MHz :   535.229380   282.166681   207.557948

                             ****ORCA TERMINATED NORMALLY****
TOTAL RUN TIME: 0 days 0 hours 0 minutes 30 seconds 554 msec
