                         Program Version 4.2.1 -  RELEASE  -
|  1> ! wB97X-D3 SP def2-SVP
|  2> %pal
|  3> nprocs 16
|  4> end
|  5>
|  6> * xyz 0 1
|  7> S 	 14.2336 	 -6.17844 	 73.8602
|  8> C 	 14.4824 	 -4.49137 	 74.3131
|  9> C 	 13.4245 	 -3.74184 	 73.8261
| 10> C 	 12.4036 	 -4.55652 	 73.2223
| 11> C 	 12.6264 	 -5.88525 	 73.3276
| 12> H 	 11.4909 	 -4.12885 	 72.9015
| 13> C 	 13.2174 	 -2.23084 	 74.1039
| 14> H 	 13.7371 	 -1.86772 	 73.2044
| 15> H 	 13.6608 	 -1.90347 	 75.033
| 16> C 	 11.7942 	 -1.73422 	 74.1828
| 17> H 	 11.1919 	 -2.11292 	 73.3504
| 18> H 	 11.314 	 -2.1229 	 75.1062
| 19> C 	 11.8884 	 -0.219845 	 74.2015
| 20> H 	 12.3999 	 0.109501 	 75.1596
| 21> H 	 12.4083 	 0.0188745 	 73.3519
| 22> H 	 10.8966 	 0.221577 	 74.1973
| 23> S 	 12.4082 	 -8.20986 	 71.8363
| 24> C 	 10.9596 	 -8.91312 	 71.389
| 25> C 	 9.92927 	 -8.28961 	 72.062
| 26> C 	 10.3083 	 -7.02811 	 72.6593
| 27> C 	 11.6713 	 -6.80798 	 72.6561
| 28> H 	 8.93371 	 -8.77481 	 71.983
| 29> C 	 9.281 	 -6.27118 	 73.4891
| 30> H 	 8.30309 	 -6.42539 	 73.1464
| 31> H 	 9.2821 	 -5.20874 	 73.2968
| 32> C 	 9.41082 	 -6.34567 	 74.9746
| 33> H 	 10.2992 	 -5.89928 	 75.3054
| 34> H 	 9.38106 	 -7.34353 	 75.3746
| 35> C 	 8.35083 	 -5.37213 	 75.7703
| 36> H 	 7.39419 	 -5.71851 	 75.3543
| 37> H 	 8.33777 	 -4.32909 	 75.4603
| 38> H 	 8.41306 	 -5.55191 	 76.8378
| 39> H 	 15.2771 	 -4.02601 	 74.8544
| 40> H 	 10.7915 	 -9.83517 	 70.8101
| 41> *
| 42>
| 43>                          ****END OF INPUT****

CARTESIAN COORDINATES (ANGSTROEM)
---------------------------------
  S     14.233600   -6.178440   73.860200
  C     14.482400   -4.491370   74.313100
  C     13.424500   -3.741840   73.826100
  C     12.403600   -4.556520   73.222300
  C     12.626400   -5.885250   73.327600
  H     11.490900   -4.128850   72.901500
  C     13.217400   -2.230840   74.103900
  H     13.737100   -1.867720   73.204400
  H     13.660800   -1.903470   75.033000
  C     11.794200   -1.734220   74.182800
  H     11.191900   -2.112920   73.350400
  H     11.314000   -2.122900   75.106200
  C     11.888400   -0.219845   74.201500
  H     12.399900    0.109501   75.159600
  H     12.408300    0.018874   73.351900
  H     10.896600    0.221577   74.197300
  S     12.408200   -8.209860   71.836300
  C     10.959600   -8.913120   71.389000
  C      9.929270   -8.289610   72.062000
  C     10.308300   -7.028110   72.659300
  C     11.671300   -6.807980   72.656100
  H      8.933710   -8.774810   71.983000
  C      9.281000   -6.271180   73.489100
  H      8.303090   -6.425390   73.146400
  H      9.282100   -5.208740   73.296800
  C      9.410820   -6.345670   74.974600
  H     10.299200   -5.899280   75.305400
  H      9.381060   -7.343530   75.374600
  C      8.350830   -5.372130   75.770300
  H      7.394190   -5.718510   75.354300
  H      8.337770   -4.329090   75.460300
  H      8.413060   -5.551910   76.837800
  H     15.277100   -4.026010   74.854400
  H     10.791500   -9.835170   70.810100

 Total Charge           Charge          ....    0
 Multiplicity           Mult            ....    1
 Number of Electrons    NEL             ....  134
 Basis Dimension        Dim             ....  322

ORBITAL ENERGIES
----------------

  NO   OCC          E(Eh)            E(eV)
   0   2.0000     -88.969744     -2420.9898
   1   2.0000     -88.960507     -2420.7385
   2   2.0000     -10.334012      -281.2028
   3   2.0000     -10.330506      -281.1073
   4   2.0000     -10.312764      -280.6246
   5   2.0000     -10.312620      -280.6207
   6   2.0000     -10.308034      -280.4959
   7   2.0000     -10.301008      -280.3047
   8   2.0000     -10.294574      -280.1296
   9   2.0000     -10.293445      -280.0989
  10   2.0000     -10.288462      -279.9633
  11   2.0000     -10.286039      -279.8973
  12   2.0000     -10.283613      -279.8313
  13   2.0000     -10.282377      -279.7977
  14   2.0000     -10.279800      -279.7276
  15   2.0000     -10.277603      -279.6678
  16   2.0000      -8.084303      -219.9851
  17   2.0000      -8.076504      -219.7729
  18   2.0000      -6.043053      -164.4398
  19   2.0000      -6.038849      -164.3254
  20   2.0000      -6.034930      -164.2188
  21   2.0000      -6.034784      -164.2148
  22   2.0000      -6.030727      -164.1044
  23   2.0000      -6.027371      -164.0131
  24   2.0000      -1.011931       -27.5360
  25   2.0000      -0.990941       -26.9649
  26   2.0000      -0.921493       -25.0751
  27   2.0000      -0.909937       -24.7606
  28   2.0000      -0.872603       -23.7447
  29   2.0000      -0.851090       -23.1593
  30   2.0000      -0.841195       -22.8901
  31   2.0000      -0.815616       -22.1940
  32   2.0000      -0.780898       -21.2493
  33   2.0000      -0.774679       -21.0801
  34   2.0000      -0.713051       -19.4031
  35   2.0000      -0.702930       -19.1277
  36   2.0000      -0.692279       -18.8379
  37   2.0000      -0.658281       -17.9127
  38   2.0000      -0.635375       -17.2894
  39   2.0000      -0.629328       -17.1249
  40   2.0000      -0.600921       -16.3519
  41   2.0000      -0.581680       -15.8283
  42   2.0000      -0.571229       -15.5439
  43   2.0000      -0.557860       -15.1802
  44   2.0000      -0.531962       -14.4754
  45   2.0000      -0.528164       -14.3721
  46   2.0000      -0.516516       -14.0551
  47   2.0000      -0.511722       -13.9247
  48   2.0000      -0.507181       -13.8011
  49   2.0000      -0.500270       -13.6130
  50   2.0000      -0.491435       -13.3726
  51   2.0000      -0.487609       -13.2685
  52   2.0000      -0.467897       -12.7321
  53   2.0000      -0.467491       -12.7211
  54   2.0000      -0.464998       -12.6532
  55   2.0000      -0.455587       -12.3972
  56   2.0000      -0.452135       -12.3032
  57   2.0000      -0.440566       -11.9884
  58   2.0000      -0.428965       -11.6727
  59   2.0000      -0.420923       -11.4539
  60   2.0000      -0.420405       -11.4398
  61   2.0000      -0.408914       -11.1271
  62   2.0000      -0.398854       -10.8534
  63   2.0000      -0.356955        -9.7132
  64   2.0000      -0.328877        -8.9492
  65   2.0000      -0.326373        -8.8811
  66   2.0000      -0.290915        -7.9162
  67   0.0000       0.029769         0.8101
  68   0.0000       0.074167         2.0182
  69   0.0000       0.112441         3.0597
  70   0.0000       0.122128         3.3233
  71   0.0000       0.129335         3.5194

MULLIKEN ATOMIC CHARGES
-----------------------
   0 S :    0.113492
   1 C :   -0.117334
   2 C :   -0.075965
   3 C :    0.005854
   4 C :   -0.067565
   5 H :   -0.009756
   6 C :    0.036109
   7 H :    0.049123
   8 H :    0.027634
   9 C :   -0.112315
  10 H :    0.034531
  11 H :    0.038528
  12 C :   -0.004774
  13 H :    0.038684
  14 H :    0.013411
  15 H :    0.031668
  16 S :    0.090335
  17 C :   -0.090112
  18 C :   -0.070575
  19 C :   -0.037994
  20 C :   -0.147465
  21 H :    0.033279
  22 C :    0.096825
  23 H :   -0.009187
  24 H :   -0.003989
  25 C :   -0.045159
  26 H :    0.025784
  27 H :    0.028666
  28 C :   -0.081322
  29 H :    0.017436
  30 H :    0.034842
  31 H :    0.050921
  32 H :    0.036157
  33 H :    0.070235
Sum of atomic charges:   -0.0000000

LOEWDIN ATOMIC CHARGES
----------------------
   0 S :    0.412540
   1 C :   -0.198902
   2 C :   -0.056503
   3 C :   -0.064763
   4 C :   -0.199541
   5 H :    0.020527
   6 C :   -0.032230
   7 H :    0.039651
   8 H :    0.029586
   9 C :   -0.045856
  10 H :    0.019867
  11 H :    0.027166
  12 C :   -0.052059
  13 H :    0.034150
  14 H :    0.013089
  15 H :    0.025410
  16 S :    0.418623
  17 C :   -0.215146
  18 C :   -0.082581
  19 C :   -0.059991
  20 C :   -0.170504
  21 H :    0.036938
  22 C :   -0.036870
  23 H :    0.020569
  24 H :    0.028972
  25 C :   -0.025713
  26 H :    0.017421
  27 H :    0.021116
  28 C :   -0.066626
  29 H :    0.020912
  30 H :    0.023236
  31 H :    0.028054
  32 H :    0.028265
  33 H :    0.041194

  Mayer bond orders larger than 0.100000
B(  0-S ,  1-C ) :   1.1173 B(  0-S ,  4-C ) :   1.1488 B(  1-C ,  2-C ) :   1.6229
B(  1-C , 32-H ) :   0.9749 B(  2-C ,  3-C ) :   1.2537 B(  2-C ,  6-C ) :   0.9817
B(  3-C ,  4-C ) :   1.5519 B(  3-C ,  5-H ) :   0.9973 B(  4-C , 20-C ) :   1.0449
B(  6-C ,  7-H ) :   0.9337 B(  6-C ,  8-H ) :   0.9570 B(  6-C ,  9-C ) :   1.0799
B(  9-C , 10-H ) :   0.9460 B(  9-C , 11-H ) :   0.9548 B(  9-C , 12-C ) :   1.0846
B( 12-C , 13-H ) :   0.9726 B( 12-C , 14-H ) :   0.9763 B( 12-C , 15-H ) :   0.9711
B( 16-S , 17-C ) :   1.1820 B( 16-S , 20-C ) :   1.1319 B( 17-C , 18-C ) :   1.5935
B( 17-C , 33-H ) :   0.9631 B( 18-C , 19-C ) :   1.2541 B( 18-C , 21-H ) :   0.9865
B( 19-C , 20-C ) :   1.5855 B( 19-C , 22-C ) :   1.0520 B( 22-C , 23-H ) :   0.9268
B( 22-C , 24-H ) :   0.9229 B( 22-C , 25-C ) :   1.0639 B( 25-C , 26-H ) :   0.9537
B( 25-C , 27-H ) :   0.9604 B( 25-C , 28-C ) :   1.0609 B( 28-C , 29-H ) :   0.9793
B( 28-C , 30-H ) :   0.9766 B( 28-C , 31-H ) :   0.9772

Dispersion correction           -0.014176190
FINAL SINGLE POINT ENERGY     -1339.844417108339

DIPOLE MOMENT
-------------
                                X             Y             Z
Electronic contribution:     18.20014     -23.74279     -11.89931
Nuclear contribution   :    -18.68157      24.25072      12.10353
                        -----------------------------------------
Total Dipole Moment    :     -0.48143       0.50793       0.20422
                        -----------------------------------------
Magnitude (a.u.)       :      0.72902
Magnitude (Debye)      :      1.85303

Rotational constants in cm-1:     0.017496     0.009365     0.006944
Rotational constants in MHz :   524.515518   280.755614   208.161714

                             ****ORCA TERMINATED NORMALLY****
TOTAL RUN TIME: 0 days 0 hours 0 minutes 33 seconds 233 msec
