                         Program Version 4.2.1 -  RELEASE  -
|  1> ! wB97X-D3 SP def2-SVP
|  2> %pal
|  3> nprocs 16
|  4> end
|  5>
|  6> * xyz 0 1
|  7> S 	 -46.75 	 54.5466 	 96.1785
|  8> C 	 -47.5969 	 55.3806 	 97.4735
|  9> C 	 -47.7827 	 54.5971 	 98.5801
| 10> C 	 -47.3436 	 53.254 	 98.3516
| 11> C 	 -46.5995 	 53.0993 	 97.2131
| 12> H 	 -47.4789 	 52.4424 	 99.0052
| 13> C 	 -48.4089 	 54.9866 	 99.9155
| 14> H 	 -48.7704 	 54.0596 	 100.336
| 15> H 	 -49.2878 	 55.5461 	 99.6646
| 16> C 	 -47.4822 	 55.8066 	 100.91
| 17> H 	 -46.7456 	 55.0895 	 101.253
| 18> H 	 -46.8489 	 56.4684 	 100.312
| 19> C 	 -48.1871 	 56.5703 	 102.013
| 20> H 	 -48.6759 	 55.8396 	 102.692
| 21> H 	 -47.5397 	 57.0952 	 102.572
| 22> H 	 -49.0239 	 57.0954 	 101.528
| 23> S 	 -45.4811 	 51.7368 	 95.0109
| 24> C 	 -44.7393 	 50.1285 	 95.1319
| 25> C 	 -44.7043 	 49.8685 	 96.4678
| 26> C 	 -45.2501 	 50.82 	 97.3499
| 27> C 	 -45.8944 	 51.8639 	 96.7131
| 28> H 	 -44.1612 	 49.0065 	 96.8149
| 29> C 	 -45.3096 	 50.5716 	 98.843
| 30> H 	 -46.2192 	 50.0749 	 98.9728
| 31> H 	 -45.3648 	 51.4812 	 99.4179
| 32> C 	 -44.1222 	 49.7513 	 99.4176
| 33> H 	 -44.0741 	 48.631 	 99.2356
| 34> H 	 -44.1378 	 49.7001 	 100.548
| 35> C 	 -42.7193 	 50.3681 	 99.2115
| 36> H 	 -41.9431 	 49.8367 	 99.7742
| 37> H 	 -42.6063 	 51.4798 	 99.3663
| 38> H 	 -42.3181 	 50.1562 	 98.1979
| 39> H 	 -47.7852 	 56.4572 	 97.55
| 40> H 	 -44.2264 	 49.5836 	 94.3824
| 41> *
| 42>
| 43>                          ****END OF INPUT****

CARTESIAN COORDINATES (ANGSTROEM)
---------------------------------
  S    -46.750000   54.546600   96.178500
  C    -47.596900   55.380600   97.473500
  C    -47.782700   54.597100   98.580100
  C    -47.343600   53.254000   98.351600
  C    -46.599500   53.099300   97.213100
  H    -47.478900   52.442400   99.005200
  C    -48.408900   54.986600   99.915500
  H    -48.770400   54.059600  100.336000
  H    -49.287800   55.546100   99.664600
  C    -47.482200   55.806600  100.910000
  H    -46.745600   55.089500  101.253000
  H    -46.848900   56.468400  100.312000
  C    -48.187100   56.570300  102.013000
  H    -48.675900   55.839600  102.692000
  H    -47.539700   57.095200  102.572000
  H    -49.023900   57.095400  101.528000
  S    -45.481100   51.736800   95.010900
  C    -44.739300   50.128500   95.131900
  C    -44.704300   49.868500   96.467800
  C    -45.250100   50.820000   97.349900
  C    -45.894400   51.863900   96.713100
  H    -44.161200   49.006500   96.814900
  C    -45.309600   50.571600   98.843000
  H    -46.219200   50.074900   98.972800
  H    -45.364800   51.481200   99.417900
  C    -44.122200   49.751300   99.417600
  H    -44.074100   48.631000   99.235600
  H    -44.137800   49.700100  100.548000
  C    -42.719300   50.368100   99.211500
  H    -41.943100   49.836700   99.774200
  H    -42.606300   51.479800   99.366300
  H    -42.318100   50.156200   98.197900
  H    -47.785200   56.457200   97.550000
  H    -44.226400   49.583600   94.382400

 Total Charge           Charge          ....    0
 Multiplicity           Mult            ....    1
 Number of Electrons    NEL             ....  134
 Basis Dimension        Dim             ....  322

ORBITAL ENERGIES
----------------

  NO   OCC          E(Eh)            E(eV)
   0   2.0000     -88.968803     -2420.9642
   1   2.0000     -88.960490     -2420.7380
   2   2.0000     -10.338735      -281.3313
   3   2.0000     -10.332783      -281.1693
   4   2.0000     -10.317515      -280.7539
   5   2.0000     -10.314614      -280.6749
   6   2.0000     -10.300888      -280.3014
   7   2.0000     -10.300887      -280.3014
   8   2.0000     -10.300844      -280.3002
   9   2.0000     -10.294240      -280.1205
  10   2.0000     -10.292205      -280.0651
  11   2.0000     -10.292194      -280.0648
  12   2.0000     -10.289605      -279.9944
  13   2.0000     -10.288820      -279.9730
  14   2.0000     -10.282906      -279.8121
  15   2.0000     -10.276816      -279.6464
  16   2.0000      -8.082723      -219.9421
  17   2.0000      -8.074951      -219.7306
  18   2.0000      -6.041472      -164.3968
  19   2.0000      -6.037469      -164.2879
  20   2.0000      -6.033605      -164.1827
  21   2.0000      -6.033150      -164.1704
  22   2.0000      -6.029506      -164.0712
  23   2.0000      -6.025547      -163.9635
  24   2.0000      -1.006298       -27.3828
  25   2.0000      -0.986784       -26.8517
  26   2.0000      -0.908422       -24.7194
  27   2.0000      -0.906156       -24.6578
  28   2.0000      -0.870395       -23.6846
  29   2.0000      -0.854495       -23.2520
  30   2.0000      -0.840507       -22.8713
  31   2.0000      -0.822384       -22.3782
  32   2.0000      -0.784103       -21.3365
  33   2.0000      -0.777177       -21.1481
  34   2.0000      -0.707867       -19.2621
  35   2.0000      -0.704321       -19.1655
  36   2.0000      -0.698543       -19.0083
  37   2.0000      -0.659321       -17.9410
  38   2.0000      -0.640206       -17.4209
  39   2.0000      -0.622866       -16.9491
  40   2.0000      -0.599781       -16.3209
  41   2.0000      -0.569288       -15.4911
  42   2.0000      -0.564500       -15.3608
  43   2.0000      -0.560446       -15.2505
  44   2.0000      -0.537130       -14.6161
  45   2.0000      -0.526634       -14.3304
  46   2.0000      -0.520474       -14.1628
  47   2.0000      -0.514270       -13.9940
  48   2.0000      -0.506069       -13.7708
  49   2.0000      -0.501025       -13.6336
  50   2.0000      -0.489274       -13.3138
  51   2.0000      -0.480889       -13.0857
  52   2.0000      -0.474209       -12.9039
  53   2.0000      -0.467259       -12.7148
  54   2.0000      -0.463917       -12.6238
  55   2.0000      -0.447005       -12.1636
  56   2.0000      -0.444237       -12.0883
  57   2.0000      -0.439671       -11.9640
  58   2.0000      -0.433317       -11.7912
  59   2.0000      -0.431610       -11.7447
  60   2.0000      -0.418795       -11.3960
  61   2.0000      -0.413735       -11.2583
  62   2.0000      -0.398341       -10.8394
  63   2.0000      -0.360793        -9.8177
  64   2.0000      -0.334554        -9.1037
  65   2.0000      -0.324849        -8.8396
  66   2.0000      -0.289035        -7.8650
  67   0.0000       0.020355         0.5539
  68   0.0000       0.082547         2.2462
  69   0.0000       0.095319         2.5938
  70   0.0000       0.125447         3.4136
  71   0.0000       0.137041         3.7291

MULLIKEN ATOMIC CHARGES
-----------------------
   0 S :    0.103457
   1 C :   -0.109046
   2 C :   -0.115346
   3 C :    0.008736
   4 C :   -0.107362
   5 H :   -0.005300
   6 C :    0.078748
   7 H :    0.017324
   8 H :    0.017673
   9 C :   -0.078066
  10 H :    0.019893
  11 H :    0.021601
  12 C :    0.016769
  13 H :    0.025008
  14 H :    0.019656
  15 H :    0.033975
  16 S :    0.064388
  17 C :   -0.061397
  18 C :   -0.030118
  19 C :   -0.068896
  20 C :   -0.121920
  21 H :    0.015099
  22 C :    0.115576
  23 H :    0.038469
  24 H :    0.029346
  25 C :   -0.132300
  26 H :    0.040396
  27 H :    0.033703
  28 C :   -0.076433
  29 H :    0.027910
  30 H :    0.052411
  31 H :    0.023881
  32 H :    0.051495
  33 H :    0.050670
Sum of atomic charges:    0.0000000

LOEWDIN ATOMIC CHARGES
----------------------
   0 S :    0.385110
   1 C :   -0.195794
   2 C :   -0.061939
   3 C :   -0.062328
   4 C :   -0.165533
   5 H :    0.021929
   6 C :   -0.026310
   7 H :    0.027210
   8 H :    0.025647
   9 C :   -0.038897
  10 H :    0.021753
  11 H :    0.021806
  12 C :   -0.052373
  13 H :    0.030586
  14 H :    0.011598
  15 H :    0.031109
  16 S :    0.383221
  17 C :   -0.168390
  18 C :   -0.072208
  19 C :   -0.065446
  20 C :   -0.186992
  21 H :    0.028332
  22 C :   -0.025360
  23 H :    0.030282
  24 H :    0.032003
  25 C :   -0.058020
  26 H :    0.030374
  27 H :    0.032092
  28 C :   -0.080845
  29 H :    0.026742
  30 H :    0.034120
  31 H :    0.022574
  32 H :    0.033806
  33 H :    0.030142

  Mayer bond orders larger than 0.100000
B(  0-S ,  1-C ) :   1.1215 B(  0-S ,  4-C ) :   1.1322 B(  1-C ,  2-C ) :   1.6572
B(  1-C , 32-H ) :   0.9579 B(  2-C ,  3-C ) :   1.2165 B(  2-C ,  6-C ) :   1.0175
B(  3-C ,  4-C ) :   1.6014 B(  3-C ,  5-H ) :   0.9952 B(  4-C , 20-C ) :   1.0495
B(  6-C ,  7-H ) :   0.9413 B(  6-C ,  8-H ) :   0.9399 B(  6-C ,  9-C ) :   1.0432
B(  9-C , 10-H ) :   0.9524 B(  9-C , 11-H ) :   0.9615 B(  9-C , 12-C ) :   1.0795
B( 12-C , 13-H ) :   0.9725 B( 12-C , 14-H ) :   0.9725 B( 12-C , 15-H ) :   0.9751
B( 16-S , 17-C ) :   1.1428 B( 16-S , 20-C ) :   1.1370 B( 17-C , 18-C ) :   1.5907
B( 17-C , 20-C ) :   0.1025 B( 17-C , 33-H ) :   0.9756 B( 18-C , 19-C ) :   1.2756
B( 18-C , 21-H ) :   0.9820 B( 19-C , 20-C ) :   1.5770 B( 19-C , 22-C ) :   1.0315
B( 22-C , 23-H ) :   0.9358 B( 22-C , 24-H ) :   0.9274 B( 22-C , 25-C ) :   1.0656
B( 25-C , 26-H ) :   0.9492 B( 25-C , 27-H ) :   0.9588 B( 25-C , 28-C ) :   1.0711
B( 28-C , 29-H ) :   0.9728 B( 28-C , 30-H ) :   0.9748 B( 28-C , 31-H ) :   0.9711

Dispersion correction           -0.013766639
FINAL SINGLE POINT ENERGY     -1339.862501806796

DIPOLE MOMENT
-------------
                                X             Y             Z
Electronic contribution:     -2.81678      -0.11969     -29.17098
Nuclear contribution   :      2.92209      -0.08039      30.03441
                        -----------------------------------------
Total Dipole Moment    :      0.10531      -0.20008       0.86343
                        -----------------------------------------
Magnitude (a.u.)       :      0.89255
Magnitude (Debye)      :      2.26867

Rotational constants in cm-1:     0.019611     0.007955     0.006007
Rotational constants in MHz :   587.936117   238.496375   180.086083

                             ****ORCA TERMINATED NORMALLY****
TOTAL RUN TIME: 0 days 0 hours 0 minutes 29 seconds 196 msec
