                         Program Version 4.2.1 -  RELEASE  -
|  1> ! wB97X-D3 SP def2-SVP
|  2> %pal
|  3> nprocs 16
|  4> end
|  5>
|  6> * xyz 0 1
|  7> S 	 46.7288 	 14.3783 	 48.575
|  8> C 	 45.84 	 14.209 	 47.041
|  9> C 	 45.2152 	 15.3678 	 46.6873
| 10> C 	 45.3429 	 16.3641 	 47.6671
| 11> C 	 46.1337 	 15.9689 	 48.7786
| 12> H 	 44.9328 	 17.3808 	 47.5102
| 13> C 	 44.2669 	 15.4969 	 45.5574
| 14> H 	 44.6288 	 14.6722 	 44.885
| 15> H 	 44.4939 	 16.4859 	 45.0836
| 16> C 	 42.7922 	 15.4367 	 45.8757
| 17> H 	 42.4266 	 16.3323 	 46.4094
| 18> H 	 42.3009 	 15.4926 	 44.8775
| 19> C 	 42.4234 	 14.134 	 46.6794
| 20> H 	 42.7945 	 14.037 	 47.7122
| 21> H 	 41.2998 	 14.0125 	 46.7933
| 22> H 	 42.8389 	 13.2308 	 46.2409
| 23> S 	 47.4167 	 18.0246 	 50.2268
| 24> C 	 46.8505 	 18.3723 	 51.839
| 25> C 	 45.6559 	 17.7117 	 52.065
| 26> C 	 45.3143 	 16.6682 	 51.114
| 27> C 	 46.2087 	 16.7261 	 50.0639
| 28> H 	 45.0771 	 18.0318 	 52.9445
| 29> C 	 44.2833 	 15.6575 	 51.1579
| 30> H 	 44.6861 	 14.6966 	 51.4301
| 31> H 	 43.8285 	 15.5074 	 50.1224
| 32> C 	 43.1246 	 15.9748 	 52.096
| 33> H 	 43.4331 	 16.2914 	 53.0972
| 34> H 	 42.6155 	 15.0589 	 52.4115
| 35> C 	 42.1851 	 16.9856 	 51.3749
| 36> H 	 42.079 	 16.9068 	 50.2682
| 37> H 	 42.3155 	 18.036 	 51.6333
| 38> H 	 41.2197 	 16.8304 	 51.7432
| 39> H 	 45.726 	 13.1956 	 46.6019
| 40> H 	 47.1887 	 19.3017 	 52.2987
| 41> *
| 42>
| 43>                          ****END OF INPUT****

CARTESIAN COORDINATES (ANGSTROEM)
---------------------------------
  S     46.728800   14.378300   48.575000
  C     45.840000   14.209000   47.041000
  C     45.215200   15.367800   46.687300
  C     45.342900   16.364100   47.667100
  C     46.133700   15.968900   48.778600
  H     44.932800   17.380800   47.510200
  C     44.266900   15.496900   45.557400
  H     44.628800   14.672200   44.885000
  H     44.493900   16.485900   45.083600
  C     42.792200   15.436700   45.875700
  H     42.426600   16.332300   46.409400
  H     42.300900   15.492600   44.877500
  C     42.423400   14.134000   46.679400
  H     42.794500   14.037000   47.712200
  H     41.299800   14.012500   46.793300
  H     42.838900   13.230800   46.240900
  S     47.416700   18.024600   50.226800
  C     46.850500   18.372300   51.839000
  C     45.655900   17.711700   52.065000
  C     45.314300   16.668200   51.114000
  C     46.208700   16.726100   50.063900
  H     45.077100   18.031800   52.944500
  C     44.283300   15.657500   51.157900
  H     44.686100   14.696600   51.430100
  H     43.828500   15.507400   50.122400
  C     43.124600   15.974800   52.096000
  H     43.433100   16.291400   53.097200
  H     42.615500   15.058900   52.411500
  C     42.185100   16.985600   51.374900
  H     42.079000   16.906800   50.268200
  H     42.315500   18.036000   51.633300
  H     41.219700   16.830400   51.743200
  H     45.726000   13.195600   46.601900
  H     47.188700   19.301700   52.298700

 Total Charge           Charge          ....    0
 Multiplicity           Mult            ....    1
 Number of Electrons    NEL             ....  134
 Basis Dimension        Dim             ....  322

ORBITAL ENERGIES
----------------

  NO   OCC          E(Eh)            E(eV)
   0   2.0000     -88.967343     -2420.9245
   1   2.0000     -88.959628     -2420.7145
   2   2.0000     -10.330089      -281.0960
   3   2.0000     -10.324047      -280.9316
   4   2.0000     -10.315229      -280.6916
   5   2.0000     -10.315131      -280.6890
   6   2.0000     -10.301451      -280.3167
   7   2.0000     -10.298712      -280.2422
   8   2.0000     -10.298264      -280.2300
   9   2.0000     -10.295061      -280.1429
  10   2.0000     -10.295030      -280.1420
  11   2.0000     -10.292784      -280.0809
  12   2.0000     -10.288353      -279.9603
  13   2.0000     -10.287212      -279.9293
  14   2.0000     -10.286130      -279.8998
  15   2.0000     -10.274761      -279.5904
  16   2.0000      -8.082107      -219.9253
  17   2.0000      -8.074301      -219.7129
  18   2.0000      -6.040418      -164.3681
  19   2.0000      -6.036536      -164.2625
  20   2.0000      -6.033151      -164.1704
  21   2.0000      -6.032682      -164.1576
  22   2.0000      -6.028921      -164.0553
  23   2.0000      -6.025109      -163.9516
  24   2.0000      -1.004294       -27.3282
  25   2.0000      -0.983785       -26.7702
  26   2.0000      -0.916218       -24.9316
  27   2.0000      -0.913760       -24.8647
  28   2.0000      -0.862261       -23.4633
  29   2.0000      -0.846089       -23.0233
  30   2.0000      -0.841341       -22.8941
  31   2.0000      -0.806521       -21.9466
  32   2.0000      -0.784551       -21.3487
  33   2.0000      -0.775516       -21.1029
  34   2.0000      -0.711917       -19.3723
  35   2.0000      -0.706782       -19.2325
  36   2.0000      -0.691780       -18.8243
  37   2.0000      -0.648032       -17.6338
  38   2.0000      -0.635055       -17.2807
  39   2.0000      -0.616434       -16.7740
  40   2.0000      -0.600324       -16.3356
  41   2.0000      -0.562929       -15.3181
  42   2.0000      -0.560375       -15.2486
  43   2.0000      -0.548952       -14.9377
  44   2.0000      -0.541677       -14.7398
  45   2.0000      -0.527320       -14.3491
  46   2.0000      -0.517325       -14.0771
  47   2.0000      -0.515796       -14.0355
  48   2.0000      -0.494543       -13.4572
  49   2.0000      -0.489967       -13.3327
  50   2.0000      -0.483434       -13.1549
  51   2.0000      -0.480487       -13.0747
  52   2.0000      -0.470660       -12.8073
  53   2.0000      -0.462733       -12.5916
  54   2.0000      -0.454485       -12.3672
  55   2.0000      -0.450482       -12.2582
  56   2.0000      -0.440805       -11.9949
  57   2.0000      -0.439906       -11.9704
  58   2.0000      -0.434900       -11.8342
  59   2.0000      -0.425753       -11.5853
  60   2.0000      -0.421767       -11.4769
  61   2.0000      -0.414535       -11.2801
  62   2.0000      -0.410671       -11.1749
  63   2.0000      -0.334194        -9.0939
  64   2.0000      -0.324831        -8.8391
  65   2.0000      -0.315897        -8.5960
  66   2.0000      -0.311079        -8.4649
  67   0.0000       0.041984         1.1424
  68   0.0000       0.052156         1.4192
  69   0.0000       0.113304         3.0832
  70   0.0000       0.117646         3.2013
  71   0.0000       0.120862         3.2888

MULLIKEN ATOMIC CHARGES
-----------------------
   0 S :    0.118228
   1 C :   -0.178711
   2 C :   -0.057265
   3 C :    0.023860
   4 C :   -0.182922
   5 H :    0.023552
   6 C :    0.026575
   7 H :    0.034551
   8 H :    0.035646
   9 C :   -0.035723
  10 H :    0.034915
  11 H :    0.042887
  12 C :   -0.090017
  13 H :    0.046600
  14 H :    0.043542
  15 H :    0.022493
  16 S :    0.093240
  17 C :   -0.094021
  18 C :   -0.060700
  19 C :    0.016081
  20 C :   -0.179320
  21 H :    0.029695
  22 C :    0.047819
  23 H :    0.033475
  24 H :    0.054120
  25 C :   -0.065132
  26 H :    0.020767
  27 H :    0.021127
  28 C :   -0.038194
  29 H :    0.038728
  30 H :    0.032757
  31 H :    0.009525
  32 H :    0.063991
  33 H :    0.067830
Sum of atomic charges:    0.0000000

LOEWDIN ATOMIC CHARGES
----------------------
   0 S :    0.417434
   1 C :   -0.197260
   2 C :   -0.076426
   3 C :   -0.063137
   4 C :   -0.208900
   5 H :    0.036357
   6 C :   -0.040631
   7 H :    0.036763
   8 H :    0.037423
   9 C :   -0.039719
  10 H :    0.027080
  11 H :    0.033836
  12 C :   -0.077822
  13 H :    0.029165
  14 H :    0.032758
  15 H :    0.021187
  16 S :    0.389161
  17 C :   -0.193199
  18 C :   -0.071089
  19 C :   -0.053441
  20 C :   -0.189794
  21 H :    0.033086
  22 C :   -0.039062
  23 H :    0.032836
  24 H :    0.044169
  25 C :   -0.040586
  26 H :    0.023657
  27 H :    0.025238
  28 C :   -0.069811
  29 H :    0.031415
  30 H :    0.027903
  31 H :    0.018640
  32 H :    0.032294
  33 H :    0.030476

  Mayer bond orders larger than 0.100000
B(  0-S ,  1-C ) :   1.1440 B(  0-S ,  4-C ) :   1.1825 B(  1-C ,  2-C ) :   1.5800
B(  1-C , 32-H ) :   0.9649 B(  2-C ,  3-C ) :   1.2653 B(  2-C ,  6-C ) :   1.0279
B(  3-C ,  4-C ) :   1.5443 B(  3-C ,  5-H ) :   0.9933 B(  4-C , 20-C ) :   0.9901
B(  6-C ,  7-H ) :   0.9427 B(  6-C ,  8-H ) :   0.9298 B(  6-C ,  9-C ) :   1.0799
B(  9-C , 10-H ) :   0.9515 B(  9-C , 11-H ) :   0.9537 B(  9-C , 12-C ) :   1.0595
B( 12-C , 13-H ) :   0.9717 B( 12-C , 14-H ) :   0.9753 B( 12-C , 15-H ) :   0.9763
B( 16-S , 17-C ) :   1.1499 B( 16-S , 20-C ) :   1.1528 B( 17-C , 18-C ) :   1.6245
B( 17-C , 33-H ) :   0.9615 B( 18-C , 19-C ) :   1.2111 B( 18-C , 21-H ) :   0.9823
B( 19-C , 20-C ) :   1.6047 B( 19-C , 22-C ) :   1.0545 B( 22-C , 23-H ) :   0.9204
B( 22-C , 24-H ) :   0.9278 B( 22-C , 25-C ) :   1.0896 B( 25-C , 26-H ) :   0.9478
B( 25-C , 27-H ) :   0.9581 B( 25-C , 28-C ) :   1.0594 B( 28-C , 29-H ) :   0.9782
B( 28-C , 30-H ) :   0.9748 B( 28-C , 31-H ) :   0.9728

Dispersion correction           -0.015969371
FINAL SINGLE POINT ENERGY     -1339.871791311054

DIPOLE MOMENT
-------------
                                X             Y             Z
Electronic contribution:     27.40661       3.91352       3.28249
Nuclear contribution   :    -28.26083      -3.92183      -3.30796
                        -----------------------------------------
Total Dipole Moment    :     -0.85422      -0.00831      -0.02548
                        -----------------------------------------
Magnitude (a.u.)       :      0.85465
Magnitude (Debye)      :      2.17234

Rotational constants in cm-1:     0.018631     0.009852     0.007761
Rotational constants in MHz :   558.536052   295.361321   232.680803

                             ****ORCA TERMINATED NORMALLY****
TOTAL RUN TIME: 0 days 0 hours 0 minutes 36 seconds 714 msec
