                         Program Version 4.2.1 -  RELEASE  -
|  1> ! wB97X-D3 SP def2-SVP
|  2> %pal
|  3> nprocs 16
|  4> end
|  5>
|  6> * xyz 0 1
|  7> S 	 52.7533 	 3.18834 	 84.5263
|  8> C 	 52.1074 	 1.70271 	 83.7864
|  9> C 	 50.8489 	 1.37745 	 84.3549
| 10> C 	 50.3597 	 2.43441 	 85.1786
| 11> C 	 51.3376 	 3.35537 	 85.5919
| 12> H 	 49.3969 	 2.50156 	 85.7028
| 13> C 	 50.0943 	 0.0499504 	 84.1873
| 14> H 	 49.0628 	 0.141984 	 84.491
| 15> H 	 50.424 	 -0.617326 	 84.9107
| 16> C 	 50.2591 	 -0.592612 	 82.7819
| 17> H 	 50.1447 	 0.152787 	 81.9794
| 18> H 	 51.3075 	 -0.955727 	 82.7699
| 19> C 	 49.3951 	 -1.81619 	 82.6303
| 20> H 	 49.4126 	 -2.48756 	 83.4993
| 21> H 	 48.3326 	 -1.36749 	 82.5652
| 22> H 	 49.6484 	 -2.40239 	 81.7115
| 23> S 	 50.8702 	 6.04777 	 85.468
| 24> C 	 50.5653 	 6.95457 	 86.9711
| 25> C 	 50.4589 	 6.07107 	 88.0282
| 26> C 	 50.6921 	 4.7517 	 87.6755
| 27> C 	 51.064 	 4.57518 	 86.3627
| 28> H 	 50.2467 	 6.50336 	 89.057
| 29> C 	 50.6757 	 3.68157 	 88.7173
| 30> H 	 49.937 	 2.96241 	 88.2469
| 31> H 	 50.1631 	 4.20581 	 89.5631
| 32> C 	 51.9977 	 2.92434 	 88.9435
| 33> H 	 52.876 	 3.62541 	 88.9699
| 34> H 	 52.2195 	 2.35479 	 88.0644
| 35> C 	 51.9353 	 2.00408 	 90.1583
| 36> H 	 51.9715 	 2.57858 	 91.0498
| 37> H 	 52.6752 	 1.27394 	 90.0213
| 38> H 	 51.0397 	 1.43328 	 90.1144
| 39> H 	 52.7723 	 1.08893 	 83.2535
| 40> H 	 50.3002 	 8.00148 	 87.1207
| 41> *
| 42>
| 43>                          ****END OF INPUT****

CARTESIAN COORDINATES (ANGSTROEM)
---------------------------------
  S     52.753300    3.188340   84.526300
  C     52.107400    1.702710   83.786400
  C     50.848900    1.377450   84.354900
  C     50.359700    2.434410   85.178600
  C     51.337600    3.355370   85.591900
  H     49.396900    2.501560   85.702800
  C     50.094300    0.049950   84.187300
  H     49.062800    0.141984   84.491000
  H     50.424000   -0.617326   84.910700
  C     50.259100   -0.592612   82.781900
  H     50.144700    0.152787   81.979400
  H     51.307500   -0.955727   82.769900
  C     49.395100   -1.816190   82.630300
  H     49.412600   -2.487560   83.499300
  H     48.332600   -1.367490   82.565200
  H     49.648400   -2.402390   81.711500
  S     50.870200    6.047770   85.468000
  C     50.565300    6.954570   86.971100
  C     50.458900    6.071070   88.028200
  C     50.692100    4.751700   87.675500
  C     51.064000    4.575180   86.362700
  H     50.246700    6.503360   89.057000
  C     50.675700    3.681570   88.717300
  H     49.937000    2.962410   88.246900
  H     50.163100    4.205810   89.563100
  C     51.997700    2.924340   88.943500
  H     52.876000    3.625410   88.969900
  H     52.219500    2.354790   88.064400
  C     51.935300    2.004080   90.158300
  H     51.971500    2.578580   91.049800
  H     52.675200    1.273940   90.021300
  H     51.039700    1.433280   90.114400
  H     52.772300    1.088930   83.253500
  H     50.300200    8.001480   87.120700

 Total Charge           Charge          ....    0
 Multiplicity           Mult            ....    1
 Number of Electrons    NEL             ....  134
 Basis Dimension        Dim             ....  322

ORBITAL ENERGIES
----------------

  NO   OCC          E(Eh)            E(eV)
   0   2.0000     -88.967014     -2420.9155
   1   2.0000     -88.965278     -2420.8683
   2   2.0000     -10.334292      -281.2104
   3   2.0000     -10.320589      -280.8375
   4   2.0000     -10.319838      -280.8171
   5   2.0000     -10.316670      -280.7309
   6   2.0000     -10.312317      -280.6124
   7   2.0000     -10.300127      -280.2807
   8   2.0000     -10.293176      -280.0916
   9   2.0000     -10.292454      -280.0719
  10   2.0000     -10.292123      -280.0629
  11   2.0000     -10.291370      -280.0424
  12   2.0000     -10.290960      -280.0313
  13   2.0000     -10.289413      -279.9892
  14   2.0000     -10.282904      -279.8120
  15   2.0000     -10.265263      -279.3320
  16   2.0000      -8.080692      -219.8868
  17   2.0000      -8.079549      -219.8557
  18   2.0000      -6.039222      -164.3356
  19   2.0000      -6.038115      -164.3055
  20   2.0000      -6.035215      -164.2265
  21   2.0000      -6.034086      -164.1958
  22   2.0000      -6.031609      -164.1284
  23   2.0000      -6.030297      -164.0927
  24   2.0000      -1.005507       -27.3612
  25   2.0000      -0.979824       -26.6624
  26   2.0000      -0.912821       -24.8391
  27   2.0000      -0.907166       -24.6852
  28   2.0000      -0.868161       -23.6239
  29   2.0000      -0.854026       -23.2392
  30   2.0000      -0.847944       -23.0737
  31   2.0000      -0.812521       -22.1098
  32   2.0000      -0.779674       -21.2160
  33   2.0000      -0.767670       -20.8894
  34   2.0000      -0.711861       -19.3707
  35   2.0000      -0.701392       -19.0859
  36   2.0000      -0.686592       -18.6831
  37   2.0000      -0.658994       -17.9321
  38   2.0000      -0.648685       -17.6516
  39   2.0000      -0.610817       -16.6212
  40   2.0000      -0.585653       -15.9364
  41   2.0000      -0.569264       -15.4905
  42   2.0000      -0.565800       -15.3962
  43   2.0000      -0.563319       -15.3287
  44   2.0000      -0.528830       -14.3902
  45   2.0000      -0.523807       -14.2535
  46   2.0000      -0.521810       -14.1992
  47   2.0000      -0.511791       -13.9265
  48   2.0000      -0.500921       -13.6307
  49   2.0000      -0.496188       -13.5020
  50   2.0000      -0.494574       -13.4580
  51   2.0000      -0.485597       -13.2138
  52   2.0000      -0.474586       -12.9141
  53   2.0000      -0.461296       -12.5525
  54   2.0000      -0.457072       -12.4375
  55   2.0000      -0.449056       -12.2194
  56   2.0000      -0.444144       -12.0858
  57   2.0000      -0.433201       -11.7880
  58   2.0000      -0.432192       -11.7605
  59   2.0000      -0.424335       -11.5467
  60   2.0000      -0.417594       -11.3633
  61   2.0000      -0.413117       -11.2415
  62   2.0000      -0.412009       -11.2113
  63   2.0000      -0.342748        -9.3267
  64   2.0000      -0.327974        -8.9246
  65   2.0000      -0.323917        -8.8142
  66   2.0000      -0.297670        -8.1000
  67   0.0000       0.029060         0.7908
  68   0.0000       0.054186         1.4745
  69   0.0000       0.114674         3.1204
  70   0.0000       0.118835         3.2337
  71   0.0000       0.127084         3.4581

MULLIKEN ATOMIC CHARGES
-----------------------
   0 S :    0.094879
   1 C :   -0.114872
   2 C :   -0.071188
   3 C :    0.025953
   4 C :   -0.189883
   5 H :    0.031113
   6 C :    0.094285
   7 H :    0.007801
   8 H :    0.020525
   9 C :   -0.103910
  10 H :    0.047730
  11 H :    0.029527
  12 C :   -0.066555
  13 H :    0.034301
  14 H :    0.039804
  15 H :    0.049660
  16 S :    0.119730
  17 C :   -0.096439
  18 C :   -0.079114
  19 C :   -0.042815
  20 C :   -0.157900
  21 H :    0.041143
  22 C :    0.066634
  23 H :    0.027648
  24 H :    0.021830
  25 C :   -0.088273
  26 H :    0.034909
  27 H :    0.028810
  28 C :    0.033612
  29 H :    0.033552
  30 H :    0.016356
  31 H :    0.008543
  32 H :    0.046443
  33 H :    0.056159
Sum of atomic charges:   -0.0000000

LOEWDIN ATOMIC CHARGES
----------------------
   0 S :    0.386758
   1 C :   -0.183030
   2 C :   -0.052057
   3 C :   -0.060471
   4 C :   -0.192533
   5 H :    0.035148
   6 C :   -0.026535
   7 H :    0.025679
   8 H :    0.027042
   9 C :   -0.045872
  10 H :    0.028349
  11 H :    0.023624
  12 C :   -0.072909
  13 H :    0.024753
  14 H :    0.034022
  15 H :    0.031966
  16 S :    0.411451
  17 C :   -0.183227
  18 C :   -0.083847
  19 C :   -0.068225
  20 C :   -0.213574
  21 H :    0.043812
  22 C :   -0.038293
  23 H :    0.038343
  24 H :    0.032056
  25 C :   -0.039141
  26 H :    0.027759
  27 H :    0.023353
  28 C :   -0.050866
  29 H :    0.023126
  30 H :    0.022332
  31 H :    0.021923
  32 H :    0.015441
  33 H :    0.033645

  Mayer bond orders larger than 0.100000
B(  0-S ,  1-C ) :   1.1454 B(  0-S ,  4-C ) :   1.1489 B(  1-C ,  2-C ) :   1.5760
B(  1-C ,  4-C ) :   0.1121 B(  1-C , 32-H ) :   0.9750 B(  2-C ,  3-C ) :   1.2534
B(  2-C ,  6-C ) :   1.0163 B(  3-C ,  4-C ) :   1.5747 B(  3-C ,  5-H ) :   0.9786
B(  4-C , 20-C ) :   1.0132 B(  6-C ,  7-H ) :   0.9448 B(  6-C ,  8-H ) :   0.9262
B(  6-C ,  9-C ) :   1.0580 B(  9-C , 10-H ) :   0.9658 B(  9-C , 11-H ) :   0.9456
B(  9-C , 12-C ) :   1.0839 B( 12-C , 13-H ) :   0.9718 B( 12-C , 14-H ) :   0.9751
B( 12-C , 15-H ) :   0.9723 B( 16-S , 17-C ) :   1.1566 B( 16-S , 20-C ) :   1.1514
B( 17-C , 18-C ) :   1.6066 B( 17-C , 20-C ) :   0.1059 B( 17-C , 33-H ) :   0.9623
B( 18-C , 19-C ) :   1.2776 B( 18-C , 21-H ) :   0.9760 B( 19-C , 20-C ) :   1.5804
B( 19-C , 22-C ) :   1.0339 B( 22-C , 23-H ) :   0.9119 B( 22-C , 24-H ) :   0.9408
B( 22-C , 25-C ) :   1.0622 B( 25-C , 26-H ) :   0.9594 B( 25-C , 27-H ) :   0.9447
B( 25-C , 28-C ) :   1.0907 B( 28-C , 29-H ) :   0.9782 B( 28-C , 30-H ) :   0.9710
B( 28-C , 31-H ) :   0.9679

Dispersion correction           -0.014063699
FINAL SINGLE POINT ENERGY     -1339.861964308697

DIPOLE MOMENT
-------------
                                X             Y             Z
Electronic contribution:      6.71438      24.61127      -7.38358
Nuclear contribution   :     -7.04488     -25.17868       7.70655
                        -----------------------------------------
Total Dipole Moment    :     -0.33050      -0.56741       0.32298
                        -----------------------------------------
Magnitude (a.u.)       :      0.73178
Magnitude (Debye)      :      1.86004

Rotational constants in cm-1:     0.019630     0.007706     0.006464
Rotational constants in MHz :   588.495794   231.018880   193.774958

                             ****ORCA TERMINATED NORMALLY****
TOTAL RUN TIME: 0 days 0 hours 0 minutes 30 seconds 96 msec
