                         Program Version 4.2.1 -  RELEASE  -
|  1> ! wB97X-D3 SP def2-SVP
|  2> %pal
|  3> nprocs 16
|  4> end
|  5>
|  6> * xyz 0 1
|  7> S 	 -112.767 	 54.0976 	 116.258
|  8> C 	 -111.55 	 52.8103 	 116.384
|  9> C 	 -110.316 	 53.3975 	 116.485
| 10> C 	 -110.286 	 54.8117 	 116.494
| 11> C 	 -111.55 	 55.3793 	 116.495
| 12> H 	 -109.47 	 55.4901 	 116.524
| 13> C 	 -108.995 	 52.6611 	 116.41
| 14> H 	 -108.488 	 52.8294 	 115.5
| 15> H 	 -109.31 	 51.6211 	 116.36
| 16> C 	 -108.09 	 52.7813 	 117.646
| 17> H 	 -107.165 	 52.2201 	 117.429
| 18> H 	 -107.998 	 53.8977 	 117.733
| 19> C 	 -108.468 	 52.0942 	 118.951
| 20> H 	 -109.417 	 52.4499 	 119.355
| 21> H 	 -108.473 	 50.9964 	 118.848
| 22> H 	 -107.711 	 52.4102 	 119.645
| 23> S 	 -111.284 	 57.3864 	 114.664
| 24> C 	 -111.42 	 59.0261 	 115.172
| 25> C 	 -111.441 	 59.0688 	 116.574
| 26> C 	 -111.648 	 57.806 	 117.195
| 27> C 	 -111.697 	 56.7939 	 116.237
| 28> H 	 -111.301 	 60.0007 	 117.114
| 29> C 	 -111.777 	 57.7144 	 118.72
| 30> H 	 -112.616 	 57.0569 	 118.841
| 31> H 	 -112.221 	 58.6752 	 119.099
| 32> C 	 -110.504 	 57.2591 	 119.432
| 33> H 	 -110.244 	 56.2008 	 119.298
| 34> H 	 -110.738 	 57.3295 	 120.511
| 35> C 	 -109.256 	 58.0131 	 119.13
| 36> H 	 -109.012 	 57.9943 	 118.061
| 37> H 	 -108.39 	 57.6426 	 119.706
| 38> H 	 -109.31 	 59.0954 	 119.38
| 39> H 	 -111.822 	 51.7938 	 116.28
| 40> H 	 -111.461 	 59.8386 	 114.449
| 41> *
| 42>
| 43>                          ****END OF INPUT****

CARTESIAN COORDINATES (ANGSTROEM)
---------------------------------
  S    -112.767000   54.097600  116.258000
  C    -111.550000   52.810300  116.384000
  C    -110.316000   53.397500  116.485000
  C    -110.286000   54.811700  116.494000
  C    -111.550000   55.379300  116.495000
  H    -109.470000   55.490100  116.524000
  C    -108.995000   52.661100  116.410000
  H    -108.488000   52.829400  115.500000
  H    -109.310000   51.621100  116.360000
  C    -108.090000   52.781300  117.646000
  H    -107.165000   52.220100  117.429000
  H    -107.998000   53.897700  117.733000
  C    -108.468000   52.094200  118.951000
  H    -109.417000   52.449900  119.355000
  H    -108.473000   50.996400  118.848000
  H    -107.711000   52.410200  119.645000
  S    -111.284000   57.386400  114.664000
  C    -111.420000   59.026100  115.172000
  C    -111.441000   59.068800  116.574000
  C    -111.648000   57.806000  117.195000
  C    -111.697000   56.793900  116.237000
  H    -111.301000   60.000700  117.114000
  C    -111.777000   57.714400  118.720000
  H    -112.616000   57.056900  118.841000
  H    -112.221000   58.675200  119.099000
  C    -110.504000   57.259100  119.432000
  H    -110.244000   56.200800  119.298000
  H    -110.738000   57.329500  120.511000
  C    -109.256000   58.013100  119.130000
  H    -109.012000   57.994300  118.061000
  H    -108.390000   57.642600  119.706000
  H    -109.310000   59.095400  119.380000
  H    -111.822000   51.793800  116.280000
  H    -111.461000   59.838600  114.449000

 Total Charge           Charge          ....    0
 Multiplicity           Mult            ....    1
 Number of Electrons    NEL             ....  134
 Basis Dimension        Dim             ....  322

ORBITAL ENERGIES
----------------

  NO   OCC          E(Eh)            E(eV)
   0   2.0000     -88.964788     -2420.8550
   1   2.0000     -88.963461     -2420.8189
   2   2.0000     -10.326343      -280.9941
   3   2.0000     -10.320775      -280.8426
   4   2.0000     -10.318537      -280.7817
   5   2.0000     -10.316452      -280.7249
   6   2.0000     -10.301919      -280.3295
   7   2.0000     -10.298714      -280.2423
   8   2.0000     -10.295178      -280.1460
   9   2.0000     -10.293495      -280.1003
  10   2.0000     -10.289865      -280.0014
  11   2.0000     -10.289217      -279.9838
  12   2.0000     -10.285923      -279.8942
  13   2.0000     -10.282559      -279.8027
  14   2.0000     -10.277229      -279.6576
  15   2.0000     -10.276749      -279.6445
  16   2.0000      -8.080374      -219.8782
  17   2.0000      -8.077366      -219.7963
  18   2.0000      -6.038745      -164.3226
  19   2.0000      -6.035971      -164.2471
  20   2.0000      -6.034761      -164.2142
  21   2.0000      -6.031908      -164.1366
  22   2.0000      -6.031231      -164.1181
  23   2.0000      -6.028146      -164.0342
  24   2.0000      -1.008559       -27.4443
  25   2.0000      -0.983770       -26.7697
  26   2.0000      -0.911064       -24.7913
  27   2.0000      -0.909789       -24.7566
  28   2.0000      -0.872126       -23.7318
  29   2.0000      -0.851002       -23.1569
  30   2.0000      -0.846531       -23.0353
  31   2.0000      -0.811323       -22.0772
  32   2.0000      -0.786026       -21.3889
  33   2.0000      -0.774917       -21.0866
  34   2.0000      -0.707545       -19.2533
  35   2.0000      -0.691660       -18.8210
  36   2.0000      -0.687141       -18.6980
  37   2.0000      -0.663030       -18.0420
  38   2.0000      -0.646818       -17.6008
  39   2.0000      -0.616079       -16.7644
  40   2.0000      -0.592917       -16.1341
  41   2.0000      -0.568292       -15.4640
  42   2.0000      -0.554470       -15.0879
  43   2.0000      -0.552529       -15.0351
  44   2.0000      -0.549888       -14.9632
  45   2.0000      -0.543570       -14.7913
  46   2.0000      -0.526171       -14.3178
  47   2.0000      -0.517302       -14.0765
  48   2.0000      -0.504629       -13.7317
  49   2.0000      -0.490318       -13.3422
  50   2.0000      -0.486611       -13.2414
  51   2.0000      -0.482425       -13.1275
  52   2.0000      -0.471462       -12.8291
  53   2.0000      -0.466790       -12.7020
  54   2.0000      -0.458939       -12.4884
  55   2.0000      -0.444988       -12.1087
  56   2.0000      -0.440648       -11.9906
  57   2.0000      -0.437596       -11.9076
  58   2.0000      -0.433724       -11.8022
  59   2.0000      -0.420420       -11.4402
  60   2.0000      -0.413094       -11.2409
  61   2.0000      -0.410131       -11.1602
  62   2.0000      -0.404190       -10.9986
  63   2.0000      -0.336962        -9.1692
  64   2.0000      -0.326189        -8.8761
  65   2.0000      -0.319767        -8.7013
  66   2.0000      -0.310366        -8.4455
  67   0.0000       0.038646         1.0516
  68   0.0000       0.047721         1.2986
  69   0.0000       0.111358         3.0302
  70   0.0000       0.122566         3.3352
  71   0.0000       0.129459         3.5228

MULLIKEN ATOMIC CHARGES
-----------------------
   0 S :    0.087191
   1 C :   -0.114053
   2 C :   -0.069846
   3 C :    0.025177
   4 C :   -0.153064
   5 H :    0.011167
   6 C :    0.108717
   7 H :    0.034251
   8 H :   -0.012207
   9 C :   -0.113469
  10 H :    0.033367
  11 H :    0.034100
  12 C :   -0.036789
  13 H :    0.032392
  14 H :    0.036947
  15 H :    0.033973
  16 S :    0.123437
  17 C :   -0.106502
  18 C :   -0.033020
  19 C :   -0.075498
  20 C :   -0.175223
  21 H :    0.019287
  22 C :    0.105174
  23 H :    0.026345
  24 H :    0.028565
  25 C :   -0.057233
  26 H :    0.037918
  27 H :    0.029894
  28 C :   -0.071605
  29 H :    0.041869
  30 H :    0.037552
  31 H :    0.023693
  32 H :    0.041700
  33 H :    0.065792
Sum of atomic charges:    0.0000000

LOEWDIN ATOMIC CHARGES
----------------------
   0 S :    0.380255
   1 C :   -0.176817
   2 C :   -0.066605
   3 C :   -0.054548
   4 C :   -0.190346
   5 H :    0.026491
   6 C :   -0.032818
   7 H :    0.028581
   8 H :    0.022901
   9 C :   -0.045930
  10 H :    0.030040
  11 H :    0.025367
  12 C :   -0.062998
  13 H :    0.022114
  14 H :    0.027732
  15 H :    0.028446
  16 S :    0.434192
  17 C :   -0.194362
  18 C :   -0.074300
  19 C :   -0.053026
  20 C :   -0.217328
  21 H :    0.028790
  22 C :   -0.029169
  23 H :    0.034092
  24 H :    0.037003
  25 C :   -0.046896
  26 H :    0.029310
  27 H :    0.028899
  28 C :   -0.072507
  29 H :    0.025057
  30 H :    0.030615
  31 H :    0.023867
  32 H :    0.023843
  33 H :    0.030053

  Mayer bond orders larger than 0.100000
B(  0-S ,  1-C ) :   1.1342 B(  0-S ,  4-C ) :   1.1431 B(  1-C ,  2-C ) :   1.6032
B(  1-C , 32-H ) :   0.9795 B(  2-C ,  3-C ) :   1.2176 B(  2-C ,  6-C ) :   1.0216
B(  3-C ,  4-C ) :   1.5755 B(  3-C ,  5-H ) :   1.0032 B(  4-C , 20-C ) :   1.0225
B(  6-C ,  7-H ) :   0.9432 B(  6-C ,  8-H ) :   0.9289 B(  6-C ,  9-C ) :   1.0671
B(  9-C , 10-H ) :   0.9554 B(  9-C , 11-H ) :   0.9583 B(  9-C , 12-C ) :   1.0825
B( 12-C , 13-H ) :   0.9741 B( 12-C , 14-H ) :   0.9725 B( 12-C , 15-H ) :   0.9721
B( 16-S , 17-C ) :   1.1828 B( 16-S , 20-C ) :   1.1695 B( 17-C , 18-C ) :   1.5461
B( 17-C , 20-C ) :   0.1040 B( 17-C , 33-H ) :   0.9735 B( 18-C , 19-C ) :   1.2869
B( 18-C , 21-H ) :   0.9924 B( 19-C , 20-C ) :   1.5583 B( 19-C , 22-C ) :   1.0173
B( 22-C , 23-H ) :   0.9293 B( 22-C , 24-H ) :   0.9408 B( 22-C , 25-C ) :   1.0674
B( 25-C , 26-H ) :   0.9517 B( 25-C , 27-H ) :   0.9511 B( 25-C , 28-C ) :   1.0883
B( 28-C , 29-H ) :   0.9681 B( 28-C , 30-H ) :   0.9709 B( 28-C , 31-H ) :   0.9714

Dispersion correction           -0.015773596
FINAL SINGLE POINT ENERGY     -1339.871878237709

DIPOLE MOMENT
-------------
                                X             Y             Z
Electronic contribution:    -18.20309       4.46828     -19.55847
Nuclear contribution   :     18.71847      -4.43758      19.82057
                        -----------------------------------------
Total Dipole Moment    :      0.51537       0.03069       0.26210
                        -----------------------------------------
Magnitude (a.u.)       :      0.57901
Magnitude (Debye)      :      1.47172

Rotational constants in cm-1:     0.018607     0.009771     0.007935
Rotational constants in MHz :   557.817816   292.918479   237.894529

                             ****ORCA TERMINATED NORMALLY****
TOTAL RUN TIME: 0 days 0 hours 0 minutes 36 seconds 856 msec
