                         Program Version 4.2.1 -  RELEASE  -
|  1> ! wB97X-D3 SP def2-SVP
|  2> %pal
|  3> nprocs 16
|  4> end
|  5>
|  6> * xyz 0 1
|  7> S 	 38.2418 	 -8.68712 	 71.6427
|  8> C 	 38.6826 	 -7.00199 	 72.0014
|  9> C 	 39.4345 	 -6.43341 	 70.9649
| 10> C 	 39.9592 	 -7.41309 	 70.074
| 11> C 	 39.341 	 -8.64849 	 70.2123
| 12> H 	 40.6222 	 -7.21111 	 69.282
| 13> C 	 39.8747 	 -5.00871 	 70.9171
| 14> H 	 39.0306 	 -4.50042 	 71.3605
| 15> H 	 39.9353 	 -4.6464 	 69.8449
| 16> C 	 41.0588 	 -4.72333 	 71.8214
| 17> H 	 40.7915 	 -5.01268 	 72.8452
| 18> H 	 41.896 	 -5.29293 	 71.4448
| 19> C 	 41.5601 	 -3.23285 	 71.9401
| 20> H 	 41.9568 	 -2.90801 	 70.9521
| 21> H 	 40.7064 	 -2.56795 	 72.2332
| 22> H 	 42.243 	 -3.08629 	 72.7574
| 23> S 	 40.2496 	 -11.2272 	 70.0879
| 24> C 	 40.6175 	 -11.9144 	 68.5176
| 25> C 	 40.0457 	 -11.0707 	 67.5269
| 26> C 	 39.5067 	 -9.79739 	 67.9982
| 27> C 	 39.6033 	 -9.72829 	 69.3425
| 28> H 	 40.263 	 -11.3016 	 66.4919
| 29> C 	 38.9586 	 -8.75418 	 67.0451
| 30> H 	 39.6861 	 -8.0133 	 67.0005
| 31> H 	 38.1927 	 -8.26666 	 67.645
| 32> C 	 38.305 	 -9.17031 	 65.7125
| 33> H 	 37.5254 	 -9.86602 	 65.9735
| 34> H 	 39.0586 	 -9.72401 	 65.1383
| 35> C 	 37.5262 	 -8.07845 	 64.9098
| 36> H 	 36.787 	 -7.60257 	 65.6041
| 37> H 	 37.0472 	 -8.41431 	 63.9709
| 38> H 	 38.2161 	 -7.3224 	 64.6638
| 39> H 	 38.3474 	 -6.52359 	 72.9092
| 40> H 	 40.9376 	 -12.84 	 68.1833
| 41> *
| 42>
| 43>                          ****END OF INPUT****

CARTESIAN COORDINATES (ANGSTROEM)
---------------------------------
  S     38.241800   -8.687120   71.642700
  C     38.682600   -7.001990   72.001400
  C     39.434500   -6.433410   70.964900
  C     39.959200   -7.413090   70.074000
  C     39.341000   -8.648490   70.212300
  H     40.622200   -7.211110   69.282000
  C     39.874700   -5.008710   70.917100
  H     39.030600   -4.500420   71.360500
  H     39.935300   -4.646400   69.844900
  C     41.058800   -4.723330   71.821400
  H     40.791500   -5.012680   72.845200
  H     41.896000   -5.292930   71.444800
  C     41.560100   -3.232850   71.940100
  H     41.956800   -2.908010   70.952100
  H     40.706400   -2.567950   72.233200
  H     42.243000   -3.086290   72.757400
  S     40.249600  -11.227200   70.087900
  C     40.617500  -11.914400   68.517600
  C     40.045700  -11.070700   67.526900
  C     39.506700   -9.797390   67.998200
  C     39.603300   -9.728290   69.342500
  H     40.263000  -11.301600   66.491900
  C     38.958600   -8.754180   67.045100
  H     39.686100   -8.013300   67.000500
  H     38.192700   -8.266660   67.645000
  C     38.305000   -9.170310   65.712500
  H     37.525400   -9.866020   65.973500
  H     39.058600   -9.724010   65.138300
  C     37.526200   -8.078450   64.909800
  H     36.787000   -7.602570   65.604100
  H     37.047200   -8.414310   63.970900
  H     38.216100   -7.322400   64.663800
  H     38.347400   -6.523590   72.909200
  H     40.937600  -12.840000   68.183300

 Total Charge           Charge          ....    0
 Multiplicity           Mult            ....    1
 Number of Electrons    NEL             ....  134
 Basis Dimension        Dim             ....  322

ORBITAL ENERGIES
----------------

  NO   OCC          E(Eh)            E(eV)
   0   2.0000     -88.968450     -2420.9546
   1   2.0000     -88.964194     -2420.8388
   2   2.0000     -10.328029      -281.0400
   3   2.0000     -10.320396      -280.8322
   4   2.0000     -10.319154      -280.7985
   5   2.0000     -10.316718      -280.7322
   6   2.0000     -10.305107      -280.4162
   7   2.0000     -10.302367      -280.3417
   8   2.0000     -10.295113      -280.1443
   9   2.0000     -10.292940      -280.0851
  10   2.0000     -10.292489      -280.0729
  11   2.0000     -10.291519      -280.0465
  12   2.0000     -10.289313      -279.9864
  13   2.0000     -10.289244      -279.9846
  14   2.0000     -10.285214      -279.8749
  15   2.0000     -10.285157      -279.8734
  16   2.0000      -8.081827      -219.9177
  17   2.0000      -8.078103      -219.8164
  18   2.0000      -6.040368      -164.3668
  19   2.0000      -6.036815      -164.2701
  20   2.0000      -6.036632      -164.2651
  21   2.0000      -6.032738      -164.1591
  22   2.0000      -6.032530      -164.1535
  23   2.0000      -6.028659      -164.0481
  24   2.0000      -1.002303       -27.2741
  25   2.0000      -0.976153       -26.5625
  26   2.0000      -0.911744       -24.8098
  27   2.0000      -0.908131       -24.7115
  28   2.0000      -0.870944       -23.6996
  29   2.0000      -0.850281       -23.1373
  30   2.0000      -0.844645       -22.9839
  31   2.0000      -0.811403       -22.0794
  32   2.0000      -0.785577       -21.3766
  33   2.0000      -0.770712       -20.9721
  34   2.0000      -0.710730       -19.3400
  35   2.0000      -0.706778       -19.2324
  36   2.0000      -0.698813       -19.0157
  37   2.0000      -0.656710       -17.8700
  38   2.0000      -0.644568       -17.5396
  39   2.0000      -0.619206       -16.8494
  40   2.0000      -0.590705       -16.0739
  41   2.0000      -0.573004       -15.5922
  42   2.0000      -0.569517       -15.4973
  43   2.0000      -0.553293       -15.0559
  44   2.0000      -0.529981       -14.4215
  45   2.0000      -0.523199       -14.2370
  46   2.0000      -0.517338       -14.0775
  47   2.0000      -0.514835       -14.0094
  48   2.0000      -0.508349       -13.8329
  49   2.0000      -0.502091       -13.6626
  50   2.0000      -0.496394       -13.5076
  51   2.0000      -0.477658       -12.9977
  52   2.0000      -0.469246       -12.7688
  53   2.0000      -0.463701       -12.6180
  54   2.0000      -0.458479       -12.4758
  55   2.0000      -0.452705       -12.3187
  56   2.0000      -0.443951       -12.0805
  57   2.0000      -0.438732       -11.9385
  58   2.0000      -0.427021       -11.6198
  59   2.0000      -0.423754       -11.5309
  60   2.0000      -0.421883       -11.4800
  61   2.0000      -0.418085       -11.3767
  62   2.0000      -0.413453       -11.2506
  63   2.0000      -0.340287        -9.2597
  64   2.0000      -0.331217        -9.0129
  65   2.0000      -0.325559        -8.8589
  66   2.0000      -0.293100        -7.9756
  67   0.0000       0.025810         0.7023
  68   0.0000       0.062014         1.6875
  69   0.0000       0.103690         2.8216
  70   0.0000       0.123101         3.3497
  71   0.0000       0.127037         3.4568

MULLIKEN ATOMIC CHARGES
-----------------------
   0 S :    0.108188
   1 C :   -0.136625
   2 C :   -0.084191
   3 C :    0.043025
   4 C :   -0.154775
   5 H :    0.001733
   6 C :    0.065733
   7 H :    0.012670
   8 H :    0.038972
   9 C :   -0.074134
  10 H :    0.028311
  11 H :    0.029015
  12 C :   -0.053790
  13 H :    0.039743
  14 H :    0.027007
  15 H :    0.038181
  16 S :    0.109362
  17 C :   -0.046727
  18 C :   -0.082313
  19 C :   -0.034360
  20 C :   -0.177972
  21 H :    0.020845
  22 C :    0.111563
  23 H :    0.011658
  24 H :    0.021368
  25 C :   -0.082180
  26 H :    0.032907
  27 H :    0.035215
  28 C :   -0.041174
  29 H :    0.038588
  30 H :    0.050486
  31 H :    0.020027
  32 H :    0.053017
  33 H :    0.030631
Sum of atomic charges:   -0.0000000

LOEWDIN ATOMIC CHARGES
----------------------
   0 S :    0.372725
   1 C :   -0.184697
   2 C :   -0.058623
   3 C :   -0.045765
   4 C :   -0.179978
   5 H :    0.025166
   6 C :   -0.041279
   7 H :    0.029170
   8 H :    0.036821
   9 C :   -0.036575
  10 H :    0.026371
  11 H :    0.021932
  12 C :   -0.069754
  13 H :    0.026861
  14 H :    0.026268
  15 H :    0.024617
  16 S :    0.387556
  17 C :   -0.178093
  18 C :   -0.071618
  19 C :   -0.045228
  20 C :   -0.191328
  21 H :    0.024514
  22 C :   -0.030683
  23 H :    0.021368
  24 H :    0.036053
  25 C :   -0.039181
  26 H :    0.026809
  27 H :    0.021178
  28 C :   -0.061610
  29 H :    0.032940
  30 H :    0.033934
  31 H :    0.015882
  32 H :    0.024857
  33 H :    0.019388

  Mayer bond orders larger than 0.100000
B(  0-S ,  1-C ) :   1.1333 B(  0-S ,  4-C ) :   1.1250 B(  1-C ,  2-C ) :   1.5945
B(  1-C , 32-H ) :   0.9708 B(  2-C ,  3-C ) :   1.2357 B(  2-C ,  6-C ) :   1.0398
B(  3-C ,  4-C ) :   1.5716 B(  3-C ,  5-H ) :   0.9954 B(  4-C , 20-C ) :   1.0802
B(  6-C ,  7-H ) :   0.9256 B(  6-C ,  8-H ) :   0.9400 B(  6-C ,  9-C ) :   1.0658
B(  9-C , 10-H ) :   0.9545 B(  9-C , 11-H ) :   0.9597 B(  9-C , 12-C ) :   1.0779
B( 12-C , 13-H ) :   0.9765 B( 12-C , 14-H ) :   0.9744 B( 12-C , 15-H ) :   0.9763
B( 16-S , 17-C ) :   1.1424 B( 16-S , 20-C ) :   1.1064 B( 17-C , 18-C ) :   1.6417
B( 17-C , 33-H ) :   0.9690 B( 18-C , 19-C ) :   1.2070 B( 18-C , 21-H ) :   0.9789
B( 19-C , 20-C ) :   1.6389 B( 19-C , 22-C ) :   1.0311 B( 22-C , 23-H ) :   0.9170
B( 22-C , 24-H ) :   0.9223 B( 22-C , 25-C ) :   1.0605 B( 25-C , 26-H ) :   0.9597
B( 25-C , 27-H ) :   0.9516 B( 25-C , 28-C ) :   1.0776 B( 28-C , 29-H ) :   0.9734
B( 28-C , 30-H ) :   0.9749 B( 28-C , 31-H ) :   0.9776

Dispersion correction           -0.013662746
FINAL SINGLE POINT ENERGY     -1339.859968784292

DIPOLE MOMENT
-------------
                                X             Y             Z
Electronic contribution:     -1.78730     -23.58617      13.30088
Nuclear contribution   :      1.87312      24.17113     -13.77448
                        -----------------------------------------
Total Dipole Moment    :      0.08581       0.58497      -0.47360
                        -----------------------------------------
Magnitude (a.u.)       :      0.75753
Magnitude (Debye)      :      1.92548

Rotational constants in cm-1:     0.017063     0.007769     0.006312
Rotational constants in MHz :   511.524670   232.921112   189.233653

                             ****ORCA TERMINATED NORMALLY****
TOTAL RUN TIME: 0 days 0 hours 0 minutes 28 seconds 954 msec
