                         Program Version 4.2.1 -  RELEASE  -
|  1> ! wB97X-D3 SP def2-SVP
|  2> %pal
|  3> nprocs 16
|  4> end
|  5>
|  6> * xyz 0 1
|  7> S 	 38.245 	 29.6968 	 93.6503
|  8> C 	 37.8338 	 30.119 	 91.9824
|  9> C 	 37.6978 	 29.0302 	 91.1133
| 10> C 	 37.8272 	 27.8152 	 91.8739
| 11> C 	 38.3062 	 27.9423 	 93.1949
| 12> H 	 37.7143 	 26.7997 	 91.4023
| 13> C 	 37.4552 	 29.1085 	 89.6065
| 14> H 	 38.2274 	 28.4626 	 89.1175
| 15> H 	 37.5675 	 30.1661 	 89.353
| 16> C 	 36.0754 	 28.6607 	 89.1631
| 17> H 	 35.1893 	 29.2829 	 89.571
| 18> H 	 35.9874 	 28.8121 	 88.0756
| 19> C 	 35.7285 	 27.1951 	 89.2327
| 20> H 	 34.6761 	 27.187 	 88.9996
| 21> H 	 36.2653 	 26.5501 	 88.5405
| 22> H 	 35.7376 	 26.8065 	 90.2447
| 23> S 	 37.5328 	 26.9072 	 95.563
| 24> C 	 37.9812 	 25.2296 	 95.9874
| 25> C 	 39.0187 	 24.7663 	 95.1485
| 26> C 	 39.2187 	 25.5754 	 94.0153
| 27> C 	 38.5447 	 26.8061 	 94.1118
| 28> H 	 39.4273 	 23.796 	 95.3301
| 29> C 	 40.0769 	 25.154 	 92.9015
| 30> H 	 41.0436 	 24.784 	 93.1971
| 31> H 	 40.2998 	 26.0821 	 92.3691
| 32> C 	 39.4149 	 24.1187 	 91.9693
| 33> H 	 38.3676 	 24.329 	 91.7656
| 34> H 	 39.3365 	 23.1861 	 92.502
| 35> C 	 40.1601 	 23.8067 	 90.6551
| 36> H 	 41.1899 	 23.5926 	 90.9494
| 37> H 	 40.2072 	 24.6286 	 89.9431
| 38> H 	 39.6831 	 22.8694 	 90.1985
| 39> H 	 37.9128 	 31.1497 	 91.531
| 40> H 	 37.9121 	 24.7364 	 96.8903
| 41> *
| 42>
| 43>                          ****END OF INPUT****

CARTESIAN COORDINATES (ANGSTROEM)
---------------------------------
  S     38.245000   29.696800   93.650300
  C     37.833800   30.119000   91.982400
  C     37.697800   29.030200   91.113300
  C     37.827200   27.815200   91.873900
  C     38.306200   27.942300   93.194900
  H     37.714300   26.799700   91.402300
  C     37.455200   29.108500   89.606500
  H     38.227400   28.462600   89.117500
  H     37.567500   30.166100   89.353000
  C     36.075400   28.660700   89.163100
  H     35.189300   29.282900   89.571000
  H     35.987400   28.812100   88.075600
  C     35.728500   27.195100   89.232700
  H     34.676100   27.187000   88.999600
  H     36.265300   26.550100   88.540500
  H     35.737600   26.806500   90.244700
  S     37.532800   26.907200   95.563000
  C     37.981200   25.229600   95.987400
  C     39.018700   24.766300   95.148500
  C     39.218700   25.575400   94.015300
  C     38.544700   26.806100   94.111800
  H     39.427300   23.796000   95.330100
  C     40.076900   25.154000   92.901500
  H     41.043600   24.784000   93.197100
  H     40.299800   26.082100   92.369100
  C     39.414900   24.118700   91.969300
  H     38.367600   24.329000   91.765600
  H     39.336500   23.186100   92.502000
  C     40.160100   23.806700   90.655100
  H     41.189900   23.592600   90.949400
  H     40.207200   24.628600   89.943100
  H     39.683100   22.869400   90.198500
  H     37.912800   31.149700   91.531000
  H     37.912100   24.736400   96.890300

 Total Charge           Charge          ....    0
 Multiplicity           Mult            ....    1
 Number of Electrons    NEL             ....  134
 Basis Dimension        Dim             ....  322

ORBITAL ENERGIES
----------------

  NO   OCC          E(Eh)            E(eV)
   0   2.0000     -88.972097     -2421.0538
   1   2.0000     -88.967963     -2420.9414
   2   2.0000     -10.339398      -281.3493
   3   2.0000     -10.333444      -281.1873
   4   2.0000     -10.321953      -280.8746
   5   2.0000     -10.314717      -280.6777
   6   2.0000     -10.305024      -280.4140
   7   2.0000     -10.303788      -280.3803
   8   2.0000     -10.302184      -280.3367
   9   2.0000     -10.301825      -280.3269
  10   2.0000     -10.293593      -280.1029
  11   2.0000     -10.292977      -280.0861
  12   2.0000     -10.287369      -279.9335
  13   2.0000     -10.286210      -279.9020
  14   2.0000     -10.285765      -279.8899
  15   2.0000     -10.274664      -279.5878
  16   2.0000      -8.085084      -220.0063
  17   2.0000      -8.081523      -219.9094
  18   2.0000      -6.043808      -164.4604
  19   2.0000      -6.040134      -164.3604
  20   2.0000      -6.039952      -164.3554
  21   2.0000      -6.036175      -164.2527
  22   2.0000      -6.035594      -164.2369
  23   2.0000      -6.032247      -164.1458
  24   2.0000      -0.997512       -27.1437
  25   2.0000      -0.975227       -26.5373
  26   2.0000      -0.914244       -24.8778
  27   2.0000      -0.910136       -24.7661
  28   2.0000      -0.866913       -23.5899
  29   2.0000      -0.851844       -23.1799
  30   2.0000      -0.845363       -23.0035
  31   2.0000      -0.813415       -22.1341
  32   2.0000      -0.785044       -21.3621
  33   2.0000      -0.770009       -20.9530
  34   2.0000      -0.704717       -19.1763
  35   2.0000      -0.699191       -19.0260
  36   2.0000      -0.692386       -18.8408
  37   2.0000      -0.665761       -18.1163
  38   2.0000      -0.629907       -17.1406
  39   2.0000      -0.613622       -16.6975
  40   2.0000      -0.593968       -16.1627
  41   2.0000      -0.573973       -15.6186
  42   2.0000      -0.563154       -15.3242
  43   2.0000      -0.544164       -14.8074
  44   2.0000      -0.542526       -14.7629
  45   2.0000      -0.527812       -14.3625
  46   2.0000      -0.522936       -14.2298
  47   2.0000      -0.512860       -13.9556
  48   2.0000      -0.508325       -13.8322
  49   2.0000      -0.490780       -13.3548
  50   2.0000      -0.488539       -13.2938
  51   2.0000      -0.477657       -12.9977
  52   2.0000      -0.472717       -12.8633
  53   2.0000      -0.460813       -12.5394
  54   2.0000      -0.457262       -12.4427
  55   2.0000      -0.442672       -12.0457
  56   2.0000      -0.439849       -11.9689
  57   2.0000      -0.435782       -11.8582
  58   2.0000      -0.433061       -11.7842
  59   2.0000      -0.431288       -11.7359
  60   2.0000      -0.425368       -11.5749
  61   2.0000      -0.416198       -11.3253
  62   2.0000      -0.410665       -11.1748
  63   2.0000      -0.345437        -9.3998
  64   2.0000      -0.331906        -9.0316
  65   2.0000      -0.328528        -8.9397
  66   2.0000      -0.288997        -7.8640
  67   0.0000       0.022447         0.6108
  68   0.0000       0.059406         1.6165
  69   0.0000       0.103371         2.8129
  70   0.0000       0.115239         3.1358
  71   0.0000       0.116514         3.1705

MULLIKEN ATOMIC CHARGES
-----------------------
   0 S :    0.108691
   1 C :   -0.130892
   2 C :   -0.117941
   3 C :    0.009612
   4 C :   -0.146048
   5 H :    0.032207
   6 C :    0.108615
   7 H :    0.041922
   8 H :    0.019275
   9 C :   -0.118096
  10 H :    0.045422
  11 H :    0.027713
  12 C :   -0.042154
  13 H :    0.025125
  14 H :    0.036337
  15 H :    0.032635
  16 S :    0.097441
  17 C :   -0.054271
  18 C :   -0.054280
  19 C :   -0.036473
  20 C :   -0.145909
  21 H :    0.017178
  22 C :    0.086347
  23 H :    0.018669
  24 H :    0.020458
  25 C :   -0.089954
  26 H :    0.027705
  27 H :    0.017296
  28 C :   -0.048629
  29 H :    0.024838
  30 H :    0.036638
  31 H :    0.049277
  32 H :    0.066761
  33 H :    0.034487
Sum of atomic charges:   -0.0000000

LOEWDIN ATOMIC CHARGES
----------------------
   0 S :    0.373399
   1 C :   -0.202177
   2 C :   -0.066179
   3 C :   -0.063888
   4 C :   -0.187277
   5 H :    0.035726
   6 C :   -0.030266
   7 H :    0.039942
   8 H :    0.033305
   9 C :   -0.052971
  10 H :    0.036449
  11 H :    0.027475
  12 C :   -0.068419
  13 H :    0.030983
  14 H :    0.024176
  15 H :    0.021212
  16 S :    0.392526
  17 C :   -0.172269
  18 C :   -0.057788
  19 C :   -0.055826
  20 C :   -0.183944
  21 H :    0.028517
  22 C :   -0.033449
  23 H :    0.029393
  24 H :    0.031533
  25 C :   -0.041763
  26 H :    0.020034
  27 H :    0.021538
  28 C :   -0.066063
  29 H :    0.023256
  30 H :    0.021540
  31 H :    0.037959
  32 H :    0.039197
  33 H :    0.014123

  Mayer bond orders larger than 0.100000
B(  0-S ,  1-C ) :   1.1325 B(  0-S ,  4-C ) :   1.1226 B(  1-C ,  2-C ) :   1.6371
B(  1-C , 32-H ) :   0.9471 B(  2-C ,  3-C ) :   1.2352 B(  2-C ,  6-C ) :   1.0210
B(  3-C ,  4-C ) :   1.5794 B(  3-C ,  5-H ) :   0.9711 B(  4-C , 20-C ) :   1.0355
B(  6-C ,  7-H ) :   0.9361 B(  6-C ,  8-H ) :   0.9315 B(  6-C ,  9-C ) :   1.0800
B(  9-C , 10-H ) :   0.9534 B(  9-C , 11-H ) :   0.9522 B(  9-C , 12-C ) :   1.0866
B( 12-C , 13-H ) :   0.9668 B( 12-C , 14-H ) :   0.9746 B( 12-C , 15-H ) :   0.9674
B( 16-S , 17-C ) :   1.1490 B( 16-S , 20-C ) :   1.1408 B( 17-C , 18-C ) :   1.6174
B( 17-C , 20-C ) :   0.1097 B( 17-C , 33-H ) :   0.9637 B( 18-C , 19-C ) :   1.2479
B( 18-C , 21-H ) :   0.9855 B( 19-C , 20-C ) :   1.5836 B( 19-C , 22-C ) :   1.0652
B( 22-C , 23-H ) :   0.9278 B( 22-C , 24-H ) :   0.9308 B( 22-C , 25-C ) :   1.0484
B( 25-C , 26-H ) :   0.9548 B( 25-C , 27-H ) :   0.9514 B( 25-C , 28-C ) :   1.0819
B( 28-C , 29-H ) :   0.9713 B( 28-C , 30-H ) :   0.9778 B( 28-C , 31-H ) :   0.9741

Dispersion correction           -0.014451101
FINAL SINGLE POINT ENERGY     -1339.863695069087

DIPOLE MOMENT
-------------
                                X             Y             Z
Electronic contribution:     -0.05685      14.23068      27.03793
Nuclear contribution   :      0.17888     -14.65229     -27.71325
                        -----------------------------------------
Total Dipole Moment    :      0.12202      -0.42161      -0.67532
                        -----------------------------------------
Magnitude (a.u.)       :      0.80543
Magnitude (Debye)      :      2.04723

Rotational constants in cm-1:     0.015731     0.010074     0.007199
Rotational constants in MHz :   471.615030   301.998873   215.831942

                             ****ORCA TERMINATED NORMALLY****
TOTAL RUN TIME: 0 days 0 hours 0 minutes 31 seconds 302 msec
