                         Program Version 4.2.1 -  RELEASE  -
|  1> ! wB97X-D3 SP def2-SVP
|  2> %pal
|  3> nprocs 16
|  4> end
|  5>
|  6> * xyz 0 1
|  7> S 	 -92.6555 	 54.7346 	 126.884
|  8> C 	 -91.1548 	 53.8386 	 126.491
|  9> C 	 -91.4553 	 52.743 	 125.634
| 10> C 	 -92.9234 	 52.513 	 125.56
| 11> C 	 -93.6501 	 53.4968 	 126.182
| 12> H 	 -93.4521 	 51.5997 	 125.255
| 13> C 	 -90.4379 	 51.8268 	 124.915
| 14> H 	 -89.5449 	 52.286 	 124.549
| 15> H 	 -90.8402 	 51.4469 	 123.976
| 16> C 	 -89.9969 	 50.6035 	 125.687
| 17> H 	 -90.8754 	 50.2464 	 126.315
| 18> H 	 -89.737 	 49.7952 	 124.996
| 19> C 	 -88.8742 	 50.9386 	 126.743
| 20> H 	 -87.9555 	 51.2675 	 126.293
| 21> H 	 -89.1795 	 51.7074 	 127.431
| 22> H 	 -88.6546 	 50.1556 	 127.419
| 23> S 	 -95.8685 	 53.8213 	 127.706
| 24> C 	 -97.4357 	 54.2701 	 126.936
| 25> C 	 -97.2118 	 54.4976 	 125.583
| 26> C 	 -95.8675 	 54.2879 	 125.186
| 27> C 	 -95.0754 	 53.7035 	 126.17
| 28> H 	 -97.9689 	 54.884 	 124.935
| 29> C 	 -95.3893 	 54.595 	 123.82
| 30> H 	 -96.1484 	 54.2085 	 123.194
| 31> H 	 -94.517 	 53.987 	 123.778
| 32> C 	 -95.043 	 55.9814 	 123.428
| 33> H 	 -94.1468 	 56.2735 	 123.98
| 34> H 	 -95.9205 	 56.6529 	 123.56
| 35> C 	 -94.7415 	 56.1243 	 121.906
| 36> H 	 -94.8407 	 57.1599 	 121.729
| 37> H 	 -95.2986 	 55.4267 	 121.295
| 38> H 	 -93.6951 	 55.7712 	 121.769
| 39> H 	 -90.144 	 54.1198 	 126.678
| 40> H 	 -98.3905 	 54.4292 	 127.407
| 41> *
| 42>
| 43>                          ****END OF INPUT****

CARTESIAN COORDINATES (ANGSTROEM)
---------------------------------
  S    -92.655500   54.734600  126.884000
  C    -91.154800   53.838600  126.491000
  C    -91.455300   52.743000  125.634000
  C    -92.923400   52.513000  125.560000
  C    -93.650100   53.496800  126.182000
  H    -93.452100   51.599700  125.255000
  C    -90.437900   51.826800  124.915000
  H    -89.544900   52.286000  124.549000
  H    -90.840200   51.446900  123.976000
  C    -89.996900   50.603500  125.687000
  H    -90.875400   50.246400  126.315000
  H    -89.737000   49.795200  124.996000
  C    -88.874200   50.938600  126.743000
  H    -87.955500   51.267500  126.293000
  H    -89.179500   51.707400  127.431000
  H    -88.654600   50.155600  127.419000
  S    -95.868500   53.821300  127.706000
  C    -97.435700   54.270100  126.936000
  C    -97.211800   54.497600  125.583000
  C    -95.867500   54.287900  125.186000
  C    -95.075400   53.703500  126.170000
  H    -97.968900   54.884000  124.935000
  C    -95.389300   54.595000  123.820000
  H    -96.148400   54.208500  123.194000
  H    -94.517000   53.987000  123.778000
  C    -95.043000   55.981400  123.428000
  H    -94.146800   56.273500  123.980000
  H    -95.920500   56.652900  123.560000
  C    -94.741500   56.124300  121.906000
  H    -94.840700   57.159900  121.729000
  H    -95.298600   55.426700  121.295000
  H    -93.695100   55.771200  121.769000
  H    -90.144000   54.119800  126.678000
  H    -98.390500   54.429200  127.407000

 Total Charge           Charge          ....    0
 Multiplicity           Mult            ....    1
 Number of Electrons    NEL             ....  134
 Basis Dimension        Dim             ....  322

ORBITAL ENERGIES
----------------

  NO   OCC          E(Eh)            E(eV)
   0   2.0000     -88.968782     -2420.9636
   1   2.0000     -88.965193     -2420.8660
   2   2.0000     -10.328019      -281.0397
   3   2.0000     -10.323330      -280.9121
   4   2.0000     -10.321773      -280.8697
   5   2.0000     -10.320937      -280.8470
   6   2.0000     -10.317761      -280.7606
   7   2.0000     -10.302035      -280.3326
   8   2.0000     -10.298712      -280.2422
   9   2.0000     -10.292876      -280.0834
  10   2.0000     -10.292503      -280.0732
  11   2.0000     -10.292481      -280.0727
  12   2.0000     -10.282480      -279.8005
  13   2.0000     -10.274169      -279.5744
  14   2.0000     -10.272663      -279.5334
  15   2.0000     -10.271667      -279.5063
  16   2.0000      -8.082793      -219.9440
  17   2.0000      -8.079336      -219.8499
  18   2.0000      -6.041491      -164.3973
  19   2.0000      -6.037953      -164.3011
  20   2.0000      -6.037360      -164.2849
  21   2.0000      -6.033947      -164.1921
  22   2.0000      -6.033406      -164.1773
  23   2.0000      -6.029977      -164.0840
  24   2.0000      -1.007354       -27.4115
  25   2.0000      -0.977113       -26.5886
  26   2.0000      -0.915348       -24.9079
  27   2.0000      -0.910020       -24.7629
  28   2.0000      -0.868650       -23.6372
  29   2.0000      -0.851101       -23.1596
  30   2.0000      -0.839443       -22.8424
  31   2.0000      -0.815144       -22.1812
  32   2.0000      -0.787335       -21.4245
  33   2.0000      -0.771891       -21.0042
  34   2.0000      -0.706388       -19.2218
  35   2.0000      -0.696359       -18.9489
  36   2.0000      -0.692292       -18.8382
  37   2.0000      -0.665317       -18.1042
  38   2.0000      -0.646550       -17.5935
  39   2.0000      -0.614615       -16.7245
  40   2.0000      -0.593643       -16.1539
  41   2.0000      -0.576823       -15.6962
  42   2.0000      -0.571068       -15.5395
  43   2.0000      -0.546335       -14.8665
  44   2.0000      -0.537724       -14.6322
  45   2.0000      -0.534083       -14.5331
  46   2.0000      -0.519254       -14.1296
  47   2.0000      -0.514007       -13.9868
  48   2.0000      -0.504707       -13.7338
  49   2.0000      -0.502067       -13.6619
  50   2.0000      -0.485058       -13.1991
  51   2.0000      -0.481390       -13.0993
  52   2.0000      -0.466338       -12.6897
  53   2.0000      -0.460523       -12.5315
  54   2.0000      -0.460302       -12.5254
  55   2.0000      -0.447726       -12.1832
  56   2.0000      -0.445215       -12.1149
  57   2.0000      -0.438358       -11.9283
  58   2.0000      -0.433213       -11.7883
  59   2.0000      -0.421519       -11.4701
  60   2.0000      -0.418474       -11.3872
  61   2.0000      -0.416464       -11.3326
  62   2.0000      -0.406144       -11.0518
  63   2.0000      -0.337971        -9.1966
  64   2.0000      -0.328505        -8.9391
  65   2.0000      -0.326944        -8.8966
  66   2.0000      -0.301654        -8.2084
  67   0.0000       0.033973         0.9245
  68   0.0000       0.054076         1.4715
  69   0.0000       0.104294         2.8380
  70   0.0000       0.113232         3.0812
  71   0.0000       0.127037         3.4569

MULLIKEN ATOMIC CHARGES
-----------------------
   0 S :    0.118574
   1 C :   -0.093351
   2 C :   -0.111228
   3 C :    0.037053
   4 C :   -0.168131
   5 H :    0.034628
   6 C :    0.080473
   7 H :    0.015138
   8 H :    0.019106
   9 C :   -0.092945
  10 H :    0.038192
  11 H :    0.036736
  12 C :   -0.036776
  13 H :    0.023195
  14 H :    0.019101
  15 H :    0.023615
  16 S :    0.094539
  17 C :   -0.083469
  18 C :   -0.012723
  19 C :   -0.050517
  20 C :   -0.169154
  21 H :    0.011447
  22 C :    0.112071
  23 H :    0.005836
  24 H :    0.002703
  25 C :   -0.076732
  26 H :    0.035465
  27 H :    0.024821
  28 C :   -0.024792
  29 H :    0.037249
  30 H :    0.024183
  31 H :    0.027167
  32 H :    0.042603
  33 H :    0.055927
Sum of atomic charges:    0.0000000

LOEWDIN ATOMIC CHARGES
----------------------
   0 S :    0.398330
   1 C :   -0.187447
   2 C :   -0.047387
   3 C :   -0.065885
   4 C :   -0.201353
   5 H :    0.039824
   6 C :   -0.038439
   7 H :    0.026319
   8 H :    0.033677
   9 C :   -0.039471
  10 H :    0.031848
  11 H :    0.024361
  12 C :   -0.066998
  13 H :    0.018957
  14 H :    0.024254
  15 H :    0.021680
  16 S :    0.397326
  17 C :   -0.164082
  18 C :   -0.067517
  19 C :   -0.044843
  20 C :   -0.220443
  21 H :    0.028637
  22 C :   -0.038431
  23 H :    0.024956
  24 H :    0.028910
  25 C :   -0.035471
  26 H :    0.027680
  27 H :    0.022833
  28 C :   -0.058161
  29 H :    0.022702
  30 H :    0.021690
  31 H :    0.028571
  32 H :    0.023223
  33 H :    0.030152

  Mayer bond orders larger than 0.100000
B(  0-S ,  1-C ) :   1.1163 B(  0-S ,  4-C ) :   1.1442 B(  1-C ,  2-C ) :   1.6426
B(  1-C , 32-H ) :   0.9697 B(  2-C ,  3-C ) :   1.1905 B(  2-C ,  6-C ) :   1.0310
B(  3-C ,  4-C ) :   1.6339 B(  3-C ,  5-H ) :   0.9834 B(  4-C , 20-C ) :   1.0208
B(  6-C ,  7-H ) :   0.9448 B(  6-C ,  8-H ) :   0.9400 B(  6-C ,  9-C ) :   1.0633
B(  9-C , 10-H ) :   0.9583 B(  9-C , 11-H ) :   0.9587 B(  9-C , 12-C ) :   1.0706
B( 12-C , 13-H ) :   0.9780 B( 12-C , 14-H ) :   0.9718 B( 12-C , 15-H ) :   0.9748
B( 16-S , 17-C ) :   1.1540 B( 16-S , 20-C ) :   1.1338 B( 17-C , 18-C ) :   1.5890
B( 17-C , 20-C ) :   0.1035 B( 17-C , 33-H ) :   0.9704 B( 18-C , 19-C ) :   1.2602
B( 18-C , 21-H ) :   0.9910 B( 19-C , 20-C ) :   1.5698 B( 19-C , 22-C ) :   1.0392
B( 22-C , 23-H ) :   0.9219 B( 22-C , 24-H ) :   0.9149 B( 22-C , 25-C ) :   1.0929
B( 25-C , 26-H ) :   0.9485 B( 25-C , 27-H ) :   0.9585 B( 25-C , 28-C ) :   1.0744
B( 28-C , 29-H ) :   0.9783 B( 28-C , 30-H ) :   0.9757 B( 28-C , 31-H ) :   0.9759

Dispersion correction           -0.014408764
FINAL SINGLE POINT ENERGY     -1339.859298081686

DIPOLE MOMENT
-------------
                                X             Y             Z
Electronic contribution:    -13.62239       5.03820      17.62623
Nuclear contribution   :     13.71063      -5.11401     -18.18177
                        -----------------------------------------
Total Dipole Moment    :      0.08823      -0.07581      -0.55554
                        -----------------------------------------
Magnitude (a.u.)       :      0.56759
Magnitude (Debye)      :      1.44269

Rotational constants in cm-1:     0.020285     0.008072     0.006660
Rotational constants in MHz :   608.126096   241.987204   199.666564

                             ****ORCA TERMINATED NORMALLY****
TOTAL RUN TIME: 0 days 0 hours 0 minutes 31 seconds 709 msec
