                         Program Version 4.2.1 -  RELEASE  -
|  1> ! wB97X-D3 SP def2-SVP
|  2> %pal
|  3> nprocs 16
|  4> end
|  5>
|  6> * xyz 0 1
|  7> S 	 -53.1505 	 42.9176 	 108.395
|  8> C 	 -52.1427 	 44.3207 	 108.157
|  9> C 	 -52.3642 	 44.906 	 106.948
| 10> C 	 -53.2345 	 44.2483 	 106.11
| 11> C 	 -53.8522 	 43.1817 	 106.739
| 12> H 	 -53.5407 	 44.5349 	 105.12
| 13> C 	 -51.5642 	 46.1167 	 106.421
| 14> H 	 -51.1272 	 45.8195 	 105.447
| 15> H 	 -50.6695 	 46.216 	 107.092
| 16> C 	 -52.2988 	 47.3962 	 106.273
| 17> H 	 -53.0871 	 47.1648 	 105.508
| 18> H 	 -52.8606 	 47.6791 	 107.137
| 19> C 	 -51.4644 	 48.4638 	 105.606
| 20> H 	 -50.7443 	 48.8547 	 106.358
| 21> H 	 -50.884 	 47.9711 	 104.788
| 22> H 	 -51.9799 	 49.3646 	 105.247
| 23> S 	 -54.8788 	 41.6072 	 104.678
| 24> C 	 -56.5018 	 41.0148 	 104.83
| 25> C 	 -57.0136 	 41.2815 	 106.039
| 26> C 	 -56.1253 	 42.0765 	 106.842
| 27> C 	 -54.9569 	 42.4173 	 106.234
| 28> H 	 -58.0416 	 41.0945 	 106.338
| 29> C 	 -56.6878 	 42.7914 	 108.066
| 30> H 	 -55.969 	 43.5231 	 108.312
| 31> H 	 -56.7264 	 42.0849 	 108.907
| 32> C 	 -57.9616 	 43.6829 	 107.877
| 33> H 	 -58.4612 	 43.7778 	 108.822
| 34> H 	 -58.7398 	 43.1618 	 107.229
| 35> C 	 -57.6688 	 45.023 	 107.341
| 36> H 	 -56.6957 	 45.2897 	 106.85
| 37> H 	 -57.7637 	 45.69 	 108.209
| 38> H 	 -58.469 	 45.362 	 106.744
| 39> H 	 -51.3333 	 44.6044 	 108.798
| 40> H 	 -57.1388 	 40.683 	 104
| 41> *
| 42>
| 43>                          ****END OF INPUT****

CARTESIAN COORDINATES (ANGSTROEM)
---------------------------------
  S    -53.150500   42.917600  108.395000
  C    -52.142700   44.320700  108.157000
  C    -52.364200   44.906000  106.948000
  C    -53.234500   44.248300  106.110000
  C    -53.852200   43.181700  106.739000
  H    -53.540700   44.534900  105.120000
  C    -51.564200   46.116700  106.421000
  H    -51.127200   45.819500  105.447000
  H    -50.669500   46.216000  107.092000
  C    -52.298800   47.396200  106.273000
  H    -53.087100   47.164800  105.508000
  H    -52.860600   47.679100  107.137000
  C    -51.464400   48.463800  105.606000
  H    -50.744300   48.854700  106.358000
  H    -50.884000   47.971100  104.788000
  H    -51.979900   49.364600  105.247000
  S    -54.878800   41.607200  104.678000
  C    -56.501800   41.014800  104.830000
  C    -57.013600   41.281500  106.039000
  C    -56.125300   42.076500  106.842000
  C    -54.956900   42.417300  106.234000
  H    -58.041600   41.094500  106.338000
  C    -56.687800   42.791400  108.066000
  H    -55.969000   43.523100  108.312000
  H    -56.726400   42.084900  108.907000
  C    -57.961600   43.682900  107.877000
  H    -58.461200   43.777800  108.822000
  H    -58.739800   43.161800  107.229000
  C    -57.668800   45.023000  107.341000
  H    -56.695700   45.289700  106.850000
  H    -57.763700   45.690000  108.209000
  H    -58.469000   45.362000  106.744000
  H    -51.333300   44.604400  108.798000
  H    -57.138800   40.683000  104.000000

 Total Charge           Charge          ....    0
 Multiplicity           Mult            ....    1
 Number of Electrons    NEL             ....  134
 Basis Dimension        Dim             ....  322

ORBITAL ENERGIES
----------------

  NO   OCC          E(Eh)            E(eV)
   0   2.0000     -88.970935     -2421.0222
   1   2.0000     -88.960997     -2420.7518
   2   2.0000     -10.333679      -281.1937
   3   2.0000     -10.320975      -280.8480
   4   2.0000     -10.313059      -280.6326
   5   2.0000     -10.312160      -280.6081
   6   2.0000     -10.295820      -280.1635
   7   2.0000     -10.294560      -280.1292
   8   2.0000     -10.294492      -280.1274
   9   2.0000     -10.293066      -280.0886
  10   2.0000     -10.287461      -279.9360
  11   2.0000     -10.285682      -279.8876
  12   2.0000     -10.284050      -279.8432
  13   2.0000     -10.283711      -279.8340
  14   2.0000     -10.282795      -279.8091
  15   2.0000     -10.268887      -279.4306
  16   2.0000      -8.084336      -219.9860
  17   2.0000      -8.076262      -219.7663
  18   2.0000      -6.042777      -164.4323
  19   2.0000      -6.039104      -164.3324
  20   2.0000      -6.035165      -164.2252
  21   2.0000      -6.034896      -164.2179
  22   2.0000      -6.030759      -164.1053
  23   2.0000      -6.026787      -163.9972
  24   2.0000      -1.010235       -27.4899
  25   2.0000      -0.989532       -26.9265
  26   2.0000      -0.917677       -24.9713
  27   2.0000      -0.908078       -24.7100
  28   2.0000      -0.877026       -23.8651
  29   2.0000      -0.856394       -23.3037
  30   2.0000      -0.848408       -23.0864
  31   2.0000      -0.817907       -22.2564
  32   2.0000      -0.780434       -21.2367
  33   2.0000      -0.768809       -20.9204
  34   2.0000      -0.710704       -19.3392
  35   2.0000      -0.697145       -18.9703
  36   2.0000      -0.692940       -18.8558
  37   2.0000      -0.662784       -18.0353
  38   2.0000      -0.641437       -17.4544
  39   2.0000      -0.618714       -16.8361
  40   2.0000      -0.596747       -16.2383
  41   2.0000      -0.577742       -15.7212
  42   2.0000      -0.562227       -15.2990
  43   2.0000      -0.555116       -15.1055
  44   2.0000      -0.536451       -14.5976
  45   2.0000      -0.525460       -14.2985
  46   2.0000      -0.517728       -14.0881
  47   2.0000      -0.512566       -13.9476
  48   2.0000      -0.511372       -13.9151
  49   2.0000      -0.499999       -13.6057
  50   2.0000      -0.492918       -13.4130
  51   2.0000      -0.483793       -13.1647
  52   2.0000      -0.466795       -12.7021
  53   2.0000      -0.463835       -12.6216
  54   2.0000      -0.458545       -12.4776
  55   2.0000      -0.450127       -12.2486
  56   2.0000      -0.445537       -12.1237
  57   2.0000      -0.440905       -11.9976
  58   2.0000      -0.431783       -11.7494
  59   2.0000      -0.424931       -11.5630
  60   2.0000      -0.418086       -11.3767
  61   2.0000      -0.404341       -11.0027
  62   2.0000      -0.397985       -10.8297
  63   2.0000      -0.352999        -9.6056
  64   2.0000      -0.338059        -9.1991
  65   2.0000      -0.327648        -8.9157
  66   2.0000      -0.292695        -7.9646
  67   0.0000       0.025809         0.7023
  68   0.0000       0.075176         2.0456
  69   0.0000       0.103629         2.8199
  70   0.0000       0.119108         3.2411
  71   0.0000       0.132673         3.6102

MULLIKEN ATOMIC CHARGES
-----------------------
   0 S :    0.118258
   1 C :   -0.119823
   2 C :   -0.054551
   3 C :    0.032738
   4 C :   -0.155963
   5 H :    0.012980
   6 C :    0.029071
   7 H :    0.028816
   8 H :    0.014091
   9 C :   -0.052168
  10 H :    0.019837
  11 H :    0.027707
  12 C :   -0.051618
  13 H :    0.030197
  14 H :    0.033048
  15 H :    0.043318
  16 S :    0.097449
  17 C :   -0.092634
  18 C :   -0.018656
  19 C :   -0.058802
  20 C :   -0.147654
  21 H :    0.021141
  22 C :    0.065054
  23 H :    0.009411
  24 H :    0.032983
  25 C :   -0.077023
  26 H :    0.025030
  27 H :    0.026207
  28 C :   -0.040517
  29 H :    0.055337
  30 H :    0.020073
  31 H :    0.016390
  32 H :    0.043135
  33 H :    0.067139
Sum of atomic charges:   -0.0000000

LOEWDIN ATOMIC CHARGES
----------------------
   0 S :    0.394477
   1 C :   -0.191122
   2 C :   -0.070081
   3 C :   -0.051142
   4 C :   -0.164221
   5 H :    0.032874
   6 C :   -0.031189
   7 H :    0.031608
   8 H :    0.025778
   9 C :   -0.049929
  10 H :    0.027473
  11 H :    0.022119
  12 C :   -0.067942
  13 H :    0.025966
  14 H :    0.030576
  15 H :    0.028224
  16 S :    0.396513
  17 C :   -0.189838
  18 C :   -0.067809
  19 C :   -0.063732
  20 C :   -0.200503
  21 H :    0.032155
  22 C :   -0.030710
  23 H :    0.016106
  24 H :    0.031056
  25 C :   -0.041695
  26 H :    0.024419
  27 H :    0.022225
  28 C :   -0.075375
  29 H :    0.035519
  30 H :    0.030834
  31 H :    0.022525
  32 H :    0.027031
  33 H :    0.037808

  Mayer bond orders larger than 0.100000
B(  0-S ,  1-C ) :   1.1373 B(  0-S ,  4-C ) :   1.1340 B(  1-C ,  2-C ) :   1.6170
B(  1-C , 32-H ) :   0.9658 B(  2-C ,  3-C ) :   1.2556 B(  2-C ,  6-C ) :   1.0090
B(  3-C ,  4-C ) :   1.5501 B(  3-C ,  5-H ) :   0.9965 B(  4-C , 20-C ) :   1.0623
B(  6-C ,  7-H ) :   0.9401 B(  6-C ,  8-H ) :   0.9433 B(  6-C ,  9-C ) :   1.0657
B(  9-C , 10-H ) :   0.9500 B(  9-C , 11-H ) :   0.9544 B(  9-C , 12-C ) :   1.0767
B( 12-C , 13-H ) :   0.9744 B( 12-C , 14-H ) :   0.9700 B( 12-C , 15-H ) :   0.9745
B( 16-S , 17-C ) :   1.1407 B( 16-S , 20-C ) :   1.1148 B( 17-C , 18-C ) :   1.6354
B( 17-C , 33-H ) :   0.9595 B( 18-C , 19-C ) :   1.2265 B( 18-C , 21-H ) :   0.9875
B( 19-C , 20-C ) :   1.6156 B( 19-C , 22-C ) :   1.0499 B( 22-C , 23-H ) :   0.9402
B( 22-C , 24-H ) :   0.9310 B( 22-C , 25-C ) :   1.0580 B( 25-C , 26-H ) :   0.9567
B( 25-C , 27-H ) :   0.9627 B( 25-C , 28-C ) :   1.0721 B( 28-C , 29-H ) :   0.9780
B( 28-C , 30-H ) :   0.9723 B( 28-C , 31-H ) :   0.9694

Dispersion correction           -0.014548016
FINAL SINGLE POINT ENERGY     -1339.870801634041

DIPOLE MOMENT
-------------
                                X             Y             Z
Electronic contribution:      4.02041     -24.42323      -1.21780
Nuclear contribution   :     -4.25716      25.01604       1.23625
                        -----------------------------------------
Total Dipole Moment    :     -0.23675       0.59281       0.01845
                        -----------------------------------------
Magnitude (a.u.)       :      0.63860
Magnitude (Debye)      :      1.62320

Rotational constants in cm-1:     0.019499     0.007957     0.007521
Rotational constants in MHz :   584.557421   238.536856   225.468028

                             ****ORCA TERMINATED NORMALLY****
TOTAL RUN TIME: 0 days 0 hours 0 minutes 28 seconds 746 msec
