                         Program Version 4.2.1 -  RELEASE  -
|  1> ! wB97X-D3 SP def2-SVP
|  2> %pal
|  3> nprocs 16
|  4> end
|  5>
|  6> * xyz 0 1
|  7> S 	 -11.6779 	 60.2164 	 55.742
|  8> C 	 -10.0869 	 59.3765 	 55.9366
|  9> C 	 -9.14344 	 60.2271 	 56.4191
| 10> C 	 -9.76633 	 61.3767 	 57.0222
| 11> C 	 -11.1184 	 61.5851 	 56.7292
| 12> H 	 -9.23379 	 62.0289 	 57.6939
| 13> C 	 -7.7186 	 59.9098 	 56.5904
| 14> H 	 -7.62358 	 58.8769 	 56.5986
| 15> H 	 -7.3885 	 60.1991 	 57.5996
| 16> C 	 -6.78596 	 60.6263 	 55.5929
| 17> H 	 -5.76216 	 60.407 	 55.8664
| 18> H 	 -6.85867 	 60.2776 	 54.5632
| 19> C 	 -6.85695 	 62.1416 	 55.4871
| 20> H 	 -7.89195 	 62.3712 	 55.1702
| 21> H 	 -6.73579 	 62.7076 	 56.4583
| 22> H 	 -6.22085 	 62.661 	 54.7274
| 23> S 	 -13.2966 	 62.3104 	 58.1942
| 24> C 	 -13.6911 	 64.039 	 58.4381
| 25> C 	 -12.7865 	 64.7681 	 57.698
| 26> C 	 -11.7815 	 64.0343 	 57.0285
| 27> C 	 -11.939 	 62.6701 	 57.2079
| 28> H 	 -12.7525 	 65.8403 	 57.6236
| 29> C 	 -10.7007 	 64.7593 	 56.2194
| 30> H 	 -11.132 	 65.3192 	 55.3893
| 31> H 	 -9.98688 	 64.043 	 55.7451
| 32> C 	 -10.005 	 65.803 	 57.0819
| 33> H 	 -9.6728 	 65.4449 	 58.0842
| 34> H 	 -10.7527 	 66.5756 	 57.2936
| 35> C 	 -8.90549 	 66.4688 	 56.3159
| 36> H 	 -8.7625 	 67.4842 	 56.7897
| 37> H 	 -9.01881 	 66.7618 	 55.2964
| 38> H 	 -8.02401 	 65.8697 	 56.327
| 39> H 	 -9.78243 	 58.4763 	 55.5068
| 40> H 	 -14.4145 	 64.459 	 59.1024
| 41> *
| 42>
| 43>                          ****END OF INPUT****

CARTESIAN COORDINATES (ANGSTROEM)
---------------------------------
  S    -11.677900   60.216400   55.742000
  C    -10.086900   59.376500   55.936600
  C     -9.143440   60.227100   56.419100
  C     -9.766330   61.376700   57.022200
  C    -11.118400   61.585100   56.729200
  H     -9.233790   62.028900   57.693900
  C     -7.718600   59.909800   56.590400
  H     -7.623580   58.876900   56.598600
  H     -7.388500   60.199100   57.599600
  C     -6.785960   60.626300   55.592900
  H     -5.762160   60.407000   55.866400
  H     -6.858670   60.277600   54.563200
  C     -6.856950   62.141600   55.487100
  H     -7.891950   62.371200   55.170200
  H     -6.735790   62.707600   56.458300
  H     -6.220850   62.661000   54.727400
  S    -13.296600   62.310400   58.194200
  C    -13.691100   64.039000   58.438100
  C    -12.786500   64.768100   57.698000
  C    -11.781500   64.034300   57.028500
  C    -11.939000   62.670100   57.207900
  H    -12.752500   65.840300   57.623600
  C    -10.700700   64.759300   56.219400
  H    -11.132000   65.319200   55.389300
  H     -9.986880   64.043000   55.745100
  C    -10.005000   65.803000   57.081900
  H     -9.672800   65.444900   58.084200
  H    -10.752700   66.575600   57.293600
  C     -8.905490   66.468800   56.315900
  H     -8.762500   67.484200   56.789700
  H     -9.018810   66.761800   55.296400
  H     -8.024010   65.869700   56.327000
  H     -9.782430   58.476300   55.506800
  H    -14.414500   64.459000   59.102400

 Total Charge           Charge          ....    0
 Multiplicity           Mult            ....    1
 Number of Electrons    NEL             ....  134
 Basis Dimension        Dim             ....  322

ORBITAL ENERGIES
----------------

  NO   OCC          E(Eh)            E(eV)
   0   2.0000     -88.965287     -2420.8685
   1   2.0000     -88.965190     -2420.8659
   2   2.0000     -10.331466      -281.1335
   3   2.0000     -10.323505      -280.9169
   4   2.0000     -10.320978      -280.8481
   5   2.0000     -10.311767      -280.5975
   6   2.0000     -10.299522      -280.2643
   7   2.0000     -10.296335      -280.1775
   8   2.0000     -10.293838      -280.1096
   9   2.0000     -10.293012      -280.0871
  10   2.0000     -10.291352      -280.0419
  11   2.0000     -10.291024      -280.0330
  12   2.0000     -10.288898      -279.9752
  13   2.0000     -10.287737      -279.9436
  14   2.0000     -10.285382      -279.8795
  15   2.0000     -10.274369      -279.5798
  16   2.0000      -8.079908      -219.8655
  17   2.0000      -8.078562      -219.8289
  18   2.0000      -6.038446      -164.3145
  19   2.0000      -6.037324      -164.2839
  20   2.0000      -6.034322      -164.2023
  21   2.0000      -6.033398      -164.1771
  22   2.0000      -6.030696      -164.1036
  23   2.0000      -6.029003      -164.0575
  24   2.0000      -1.005707       -27.3667
  25   2.0000      -0.981985       -26.7212
  26   2.0000      -0.917594       -24.9690
  27   2.0000      -0.914210       -24.8769
  28   2.0000      -0.872199       -23.7337
  29   2.0000      -0.851329       -23.1659
  30   2.0000      -0.842427       -22.9236
  31   2.0000      -0.815291       -22.1852
  32   2.0000      -0.785709       -21.3802
  33   2.0000      -0.773838       -21.0572
  34   2.0000      -0.708895       -19.2900
  35   2.0000      -0.702508       -19.1162
  36   2.0000      -0.700869       -19.0716
  37   2.0000      -0.662783       -18.0352
  38   2.0000      -0.639000       -17.3881
  39   2.0000      -0.616105       -16.7651
  40   2.0000      -0.600925       -16.3520
  41   2.0000      -0.577405       -15.7120
  42   2.0000      -0.569898       -15.5077
  43   2.0000      -0.553846       -15.0709
  44   2.0000      -0.543822       -14.7981
  45   2.0000      -0.528235       -14.3740
  46   2.0000      -0.516708       -14.0603
  47   2.0000      -0.509640       -13.8680
  48   2.0000      -0.505279       -13.7493
  49   2.0000      -0.499639       -13.5959
  50   2.0000      -0.494637       -13.4598
  51   2.0000      -0.482847       -13.1389
  52   2.0000      -0.476379       -12.9629
  53   2.0000      -0.460327       -12.5261
  54   2.0000      -0.459073       -12.4920
  55   2.0000      -0.452572       -12.3151
  56   2.0000      -0.449674       -12.2363
  57   2.0000      -0.434336       -11.8189
  58   2.0000      -0.429264       -11.6809
  59   2.0000      -0.423955       -11.5364
  60   2.0000      -0.417355       -11.3568
  61   2.0000      -0.411964       -11.2101
  62   2.0000      -0.410931       -11.1820
  63   2.0000      -0.343419        -9.3449
  64   2.0000      -0.330896        -9.0041
  65   2.0000      -0.325455        -8.8561
  66   2.0000      -0.297414        -8.0931
  67   0.0000       0.030653         0.8341
  68   0.0000       0.066734         1.8159
  69   0.0000       0.112116         3.0508
  70   0.0000       0.118508         3.2248
  71   0.0000       0.119739         3.2583

MULLIKEN ATOMIC CHARGES
-----------------------
   0 S :    0.097900
   1 C :   -0.084420
   2 C :   -0.107317
   3 C :    0.030159
   4 C :   -0.149950
   5 H :    0.005770
   6 C :    0.114588
   7 H :    0.002819
   8 H :    0.024126
   9 C :   -0.045805
  10 H :    0.022737
  11 H :    0.027802
  12 C :   -0.111132
  13 H :    0.045247
  14 H :    0.032167
  15 H :    0.046606
  16 S :    0.113211
  17 C :   -0.081411
  18 C :   -0.024873
  19 C :   -0.013761
  20 C :   -0.178304
  21 H :    0.009699
  22 C :    0.077296
  23 H :    0.028806
  24 H :    0.033622
  25 C :   -0.111749
  26 H :    0.041394
  27 H :    0.023472
  28 C :   -0.023142
  29 H :    0.030290
  30 H :    0.018120
  31 H :    0.029125
  32 H :    0.022232
  33 H :    0.054675
Sum of atomic charges:    0.0000000

LOEWDIN ATOMIC CHARGES
----------------------
   0 S :    0.365213
   1 C :   -0.164767
   2 C :   -0.064170
   3 C :   -0.053912
   4 C :   -0.186821
   5 H :    0.025274
   6 C :   -0.023517
   7 H :    0.024890
   8 H :    0.036505
   9 C :   -0.038697
  10 H :    0.021831
  11 H :    0.026324
  12 C :   -0.079996
  13 H :    0.025124
  14 H :    0.024382
  15 H :    0.033605
  16 S :    0.413400
  17 C :   -0.171495
  18 C :   -0.066461
  19 C :   -0.055646
  20 C :   -0.214895
  21 H :    0.026110
  22 C :   -0.030476
  23 H :    0.033389
  24 H :    0.031411
  25 C :   -0.044012
  26 H :    0.030039
  27 H :    0.020949
  28 C :   -0.067780
  29 H :    0.034368
  30 H :    0.021651
  31 H :    0.022068
  32 H :    0.016225
  33 H :    0.029887

  Mayer bond orders larger than 0.100000
B(  0-S ,  1-C ) :   1.1132 B(  0-S ,  4-C ) :   1.1236 B(  1-C ,  2-C ) :   1.6577
B(  1-C , 32-H ) :   0.9645 B(  2-C ,  3-C ) :   1.2003 B(  2-C ,  6-C ) :   1.0327
B(  3-C ,  4-C ) :   1.5975 B(  3-C ,  5-H ) :   0.9929 B(  4-C , 20-C ) :   1.0469
B(  6-C ,  7-H ) :   0.9350 B(  6-C ,  8-H ) :   0.9394 B(  6-C ,  9-C ) :   1.0615
B(  9-C , 10-H ) :   0.9556 B(  9-C , 11-H ) :   0.9539 B(  9-C , 12-C ) :   1.0816
B( 12-C , 13-H ) :   0.9679 B( 12-C , 14-H ) :   0.9728 B( 12-C , 15-H ) :   0.9711
B( 16-S , 17-C ) :   1.1439 B( 16-S , 20-C ) :   1.1556 B( 17-C , 18-C ) :   1.5830
B( 17-C , 20-C ) :   0.1009 B( 17-C , 33-H ) :   0.9762 B( 18-C , 19-C ) :   1.2705
B( 18-C , 21-H ) :   0.9846 B( 19-C , 20-C ) :   1.5784 B( 19-C , 22-C ) :   1.0392
B( 22-C , 23-H ) :   0.9288 B( 22-C , 24-H ) :   0.9399 B( 22-C , 25-C ) :   1.0567
B( 25-C , 26-H ) :   0.9566 B( 25-C , 27-H ) :   0.9522 B( 25-C , 28-C ) :   1.0891
B( 28-C , 29-H ) :   0.9721 B( 28-C , 30-H ) :   0.9688 B( 28-C , 31-H ) :   0.9742

Dispersion correction           -0.015065875
FINAL SINGLE POINT ENERGY     -1339.874117504638

DIPOLE MOMENT
-------------
                                X             Y             Z
Electronic contribution:    -26.87552     -15.57839       5.28886
Nuclear contribution   :     27.55520      16.03700      -5.29134
                        -----------------------------------------
Total Dipole Moment    :      0.67967       0.45861      -0.00248
                        -----------------------------------------
Magnitude (a.u.)       :      0.81993
Magnitude (Debye)      :      2.08410

Rotational constants in cm-1:     0.016503     0.010630     0.006980
Rotational constants in MHz :   494.741678   318.693612   209.261906

                             ****ORCA TERMINATED NORMALLY****
TOTAL RUN TIME: 0 days 0 hours 0 minutes 35 seconds 1 msec
