                         Program Version 4.2.1 -  RELEASE  -
|  1> ! wB97X-D3 SP def2-SVP
|  2> %pal
|  3> nprocs 16
|  4> end
|  5>
|  6> * xyz 0 1
|  7> S 	 27.0398 	 -12.1289 	 79.0066
|  8> C 	 27.2132 	 -12.7024 	 77.324
|  9> C 	 26.304 	 -13.6904 	 77.0439
| 10> C 	 25.4529 	 -13.9551 	 78.157
| 11> C 	 25.6505 	 -13.188 	 79.2619
| 12> H 	 24.6469 	 -14.6825 	 78.2494
| 13> C 	 26.1307 	 -14.4267 	 75.6472
| 14> H 	 26.5814 	 -15.4281 	 75.8647
| 15> H 	 26.7088 	 -13.9089 	 74.9142
| 16> C 	 24.6052 	 -14.5847 	 75.2367
| 17> H 	 24.6335 	 -15.0899 	 74.2112
| 18> H 	 23.9568 	 -15.1944 	 75.9532
| 19> C 	 23.9878 	 -13.1704 	 75.1307
| 20> H 	 22.9992 	 -13.1588 	 74.7228
| 21> H 	 23.9209 	 -12.7655 	 76.1476
| 22> H 	 24.5193 	 -12.48 	 74.3973
| 23> S 	 24.3213 	 -14.7215 	 81.1468
| 24> C 	 23.0239 	 -13.949 	 82.2025
| 25> C 	 23.2051 	 -12.5663 	 82.1068
| 26> C 	 24.2056 	 -12.1111 	 81.1496
| 27> C 	 24.7576 	 -13.1514 	 80.4305
| 28> H 	 22.5108 	 -11.863 	 82.5825
| 29> C 	 24.3575 	 -10.6578 	 80.7639
| 30> H 	 25.3409 	 -10.4459 	 80.3758
| 31> H 	 24.2254 	 -10.1466 	 81.6809
| 32> C 	 23.3288 	 -10.1976 	 79.6786
| 33> H 	 22.3526 	 -10.2676 	 80.0977
| 34> H 	 23.4863 	 -10.8596 	 78.815
| 35> C 	 23.6454 	 -8.82275 	 79.01
| 36> H 	 23.7508 	 -7.94474 	 79.6849
| 37> H 	 22.7827 	 -8.59751 	 78.3919
| 38> H 	 24.5445 	 -8.81475 	 78.3511
| 39> H 	 27.9086 	 -12.3998 	 76.5545
| 40> H 	 22.483 	 -14.4981 	 82.9252
| 41> *
| 42>
| 43>                          ****END OF INPUT****

CARTESIAN COORDINATES (ANGSTROEM)
---------------------------------
  S     27.039800  -12.128900   79.006600
  C     27.213200  -12.702400   77.324000
  C     26.304000  -13.690400   77.043900
  C     25.452900  -13.955100   78.157000
  C     25.650500  -13.188000   79.261900
  H     24.646900  -14.682500   78.249400
  C     26.130700  -14.426700   75.647200
  H     26.581400  -15.428100   75.864700
  H     26.708800  -13.908900   74.914200
  C     24.605200  -14.584700   75.236700
  H     24.633500  -15.089900   74.211200
  H     23.956800  -15.194400   75.953200
  C     23.987800  -13.170400   75.130700
  H     22.999200  -13.158800   74.722800
  H     23.920900  -12.765500   76.147600
  H     24.519300  -12.480000   74.397300
  S     24.321300  -14.721500   81.146800
  C     23.023900  -13.949000   82.202500
  C     23.205100  -12.566300   82.106800
  C     24.205600  -12.111100   81.149600
  C     24.757600  -13.151400   80.430500
  H     22.510800  -11.863000   82.582500
  C     24.357500  -10.657800   80.763900
  H     25.340900  -10.445900   80.375800
  H     24.225400  -10.146600   81.680900
  C     23.328800  -10.197600   79.678600
  H     22.352600  -10.267600   80.097700
  H     23.486300  -10.859600   78.815000
  C     23.645400   -8.822750   79.010000
  H     23.750800   -7.944740   79.684900
  H     22.782700   -8.597510   78.391900
  H     24.544500   -8.814750   78.351100
  H     27.908600  -12.399800   76.554500
  H     22.483000  -14.498100   82.925200

 Total Charge           Charge          ....    0
 Multiplicity           Mult            ....    1
 Number of Electrons    NEL             ....  134
 Basis Dimension        Dim             ....  322

ORBITAL ENERGIES
----------------

  NO   OCC          E(Eh)            E(eV)
   0   2.0000     -88.969976     -2420.9961
   1   2.0000     -88.963767     -2420.8272
   2   2.0000     -10.333158      -281.1795
   3   2.0000     -10.332300      -281.1562
   4   2.0000     -10.327250      -281.0188
   5   2.0000     -10.316957      -280.7387
   6   2.0000     -10.305989      -280.4402
   7   2.0000     -10.305975      -280.4398
   8   2.0000     -10.305478      -280.4263
   9   2.0000     -10.305381      -280.4237
  10   2.0000     -10.304871      -280.4098
  11   2.0000     -10.293406      -280.0978
  12   2.0000     -10.287190      -279.9287
  13   2.0000     -10.284833      -279.8645
  14   2.0000     -10.280780      -279.7543
  15   2.0000     -10.279380      -279.7161
  16   2.0000      -8.083337      -219.9588
  17   2.0000      -8.076768      -219.7800
  18   2.0000      -6.042075      -164.4132
  19   2.0000      -6.038076      -164.3044
  20   2.0000      -6.035506      -164.2345
  21   2.0000      -6.033883      -164.1903
  22   2.0000      -6.031543      -164.1266
  23   2.0000      -6.027363      -164.0129
  24   2.0000      -1.002536       -27.2804
  25   2.0000      -0.976035       -26.5593
  26   2.0000      -0.902022       -24.5453
  27   2.0000      -0.901117       -24.5206
  28   2.0000      -0.868304       -23.6278
  29   2.0000      -0.844549       -22.9814
  30   2.0000      -0.837687       -22.7946
  31   2.0000      -0.814788       -22.1715
  32   2.0000      -0.779944       -21.2233
  33   2.0000      -0.770654       -20.9706
  34   2.0000      -0.707961       -19.2646
  35   2.0000      -0.695743       -18.9321
  36   2.0000      -0.688380       -18.7318
  37   2.0000      -0.672223       -18.2921
  38   2.0000      -0.632922       -17.2227
  39   2.0000      -0.617274       -16.7969
  40   2.0000      -0.593166       -16.1409
  41   2.0000      -0.566948       -15.4274
  42   2.0000      -0.563308       -15.3284
  43   2.0000      -0.548574       -14.9275
  44   2.0000      -0.536291       -14.5932
  45   2.0000      -0.518993       -14.1225
  46   2.0000      -0.515856       -14.0372
  47   2.0000      -0.513858       -13.9828
  48   2.0000      -0.511227       -13.9112
  49   2.0000      -0.491546       -13.3756
  50   2.0000      -0.481756       -13.1092
  51   2.0000      -0.479017       -13.0347
  52   2.0000      -0.469456       -12.7745
  53   2.0000      -0.463033       -12.5998
  54   2.0000      -0.459564       -12.5054
  55   2.0000      -0.444193       -12.0871
  56   2.0000      -0.439313       -11.9543
  57   2.0000      -0.434867       -11.8333
  58   2.0000      -0.429138       -11.6774
  59   2.0000      -0.427915       -11.6442
  60   2.0000      -0.424515       -11.5516
  61   2.0000      -0.411519       -11.1980
  62   2.0000      -0.408748       -11.1226
  63   2.0000      -0.351373        -9.5613
  64   2.0000      -0.332477        -9.0472
  65   2.0000      -0.328291        -8.9333
  66   2.0000      -0.294124        -8.0035
  67   0.0000       0.021862         0.5949
  68   0.0000       0.074055         2.0151
  69   0.0000       0.101538         2.7630
  70   0.0000       0.114954         3.1281
  71   0.0000       0.128143         3.4869

MULLIKEN ATOMIC CHARGES
-----------------------
   0 S :    0.106592
   1 C :   -0.122359
   2 C :   -0.102955
   3 C :    0.003079
   4 C :   -0.124721
   5 H :    0.012921
   6 C :    0.095520
   7 H :    0.054944
   8 H :    0.019132
   9 C :   -0.129211
  10 H :    0.049243
  11 H :    0.057503
  12 C :   -0.066918
  13 H :    0.026639
  14 H :    0.054515
  15 H :    0.035481
  16 S :    0.070004
  17 C :   -0.086619
  18 C :   -0.038615
  19 C :   -0.053600
  20 C :   -0.154643
  21 H :    0.033314
  22 C :    0.098380
  23 H :    0.009662
  24 H :    0.012988
  25 C :   -0.061751
  26 H :    0.024986
  27 H :    0.041934
  28 C :   -0.072937
  29 H :    0.030693
  30 H :    0.033150
  31 H :    0.045071
  32 H :    0.040863
  33 H :    0.057714
Sum of atomic charges:   -0.0000000

LOEWDIN ATOMIC CHARGES
----------------------
   0 S :    0.388981
   1 C :   -0.189555
   2 C :   -0.063458
   3 C :   -0.068483
   4 C :   -0.187094
   5 H :    0.027994
   6 C :   -0.021830
   7 H :    0.039886
   8 H :    0.023518
   9 C :   -0.049171
  10 H :    0.032639
  11 H :    0.033811
  12 C :   -0.074862
  13 H :    0.019906
  14 H :    0.029685
  15 H :    0.031168
  16 S :    0.353925
  17 C :   -0.154614
  18 C :   -0.062966
  19 C :   -0.062262
  20 C :   -0.173306
  21 H :    0.033767
  22 C :   -0.030127
  23 H :    0.016939
  24 H :    0.023573
  25 C :   -0.030060
  26 H :    0.018470
  27 H :    0.032838
  28 C :   -0.073862
  29 H :    0.022503
  30 H :    0.027023
  31 H :    0.030623
  32 H :    0.030711
  33 H :    0.023692

  Mayer bond orders larger than 0.100000
B(  0-S ,  1-C ) :   1.1153 B(  0-S ,  4-C ) :   1.1251 B(  1-C ,  2-C ) :   1.6578
B(  1-C , 32-H ) :   0.9632 B(  2-C ,  3-C ) :   1.2122 B(  2-C ,  6-C ) :   0.9953
B(  3-C ,  4-C ) :   1.6071 B(  3-C ,  5-H ) :   0.9864 B(  4-C , 20-C ) :   1.0360
B(  6-C ,  7-H ) :   0.9416 B(  6-C ,  8-H ) :   0.9471 B(  6-C ,  9-C ) :   1.0593
B(  9-C , 10-H ) :   0.9577 B(  9-C , 11-H ) :   0.9528 B(  9-C , 12-C ) :   1.0685
B( 12-C , 13-H ) :   0.9732 B( 12-C , 14-H ) :   0.9706 B( 12-C , 15-H ) :   0.9750
B( 16-S , 17-C ) :   1.1143 B( 16-S , 20-C ) :   1.1305 B( 17-C , 18-C ) :   1.6285
B( 17-C , 33-H ) :   0.9767 B( 18-C , 19-C ) :   1.2155 B( 18-C , 21-H ) :   0.9786
B( 19-C , 20-C ) :   1.6063 B( 19-C , 22-C ) :   1.0650 B( 22-C , 23-H ) :   0.9297
B( 22-C , 24-H ) :   0.9222 B( 22-C , 25-C ) :   1.0587 B( 25-C , 26-H ) :   0.9596
B( 25-C , 27-H ) :   0.9576 B( 25-C , 28-C ) :   1.0749 B( 28-C , 29-H ) :   0.9765
B( 28-C , 30-H ) :   0.9743 B( 28-C , 31-H ) :   0.9760

Dispersion correction           -0.015287021
FINAL SINGLE POINT ENERGY     -1339.873973154139

DIPOLE MOMENT
-------------
                                X             Y             Z
Electronic contribution:     10.26940     -11.22998      17.70483
Nuclear contribution   :    -10.64574      11.41301     -18.13364
                        -----------------------------------------
Total Dipole Moment    :     -0.37633       0.18304      -0.42880
                        -----------------------------------------
Magnitude (a.u.)       :      0.59917
Magnitude (Debye)      :      1.52296

Rotational constants in cm-1:     0.016821     0.009690     0.008238
Rotational constants in MHz :   504.266805   290.490403   246.978044

                             ****ORCA TERMINATED NORMALLY****
TOTAL RUN TIME: 0 days 0 hours 0 minutes 29 seconds 722 msec
