                         Program Version 4.2.1 -  RELEASE  -
|  1> ! wB97X-D3 SP def2-SVP
|  2> %pal
|  3> nprocs 16
|  4> end
|  5>
|  6> * xyz 0 1
|  7> S 	 24.5202 	 0.534877 	 84.1652
|  8> C 	 25.8666 	 1.55706 	 84.3327
|  9> C 	 25.53 	 2.85741 	 83.9242
| 10> C 	 24.1943 	 2.90359 	 83.3222
| 11> C 	 23.5534 	 1.7446 	 83.3976
| 12> H 	 23.7022 	 3.70463 	 82.8958
| 13> C 	 26.3874 	 4.08913 	 83.948
| 14> H 	 26.9806 	 4.14765 	 84.8288
| 15> H 	 25.7469 	 4.90588 	 83.9118
| 16> C 	 27.3339 	 4.14706 	 82.7864
| 17> H 	 27.9443 	 3.30025 	 82.759
| 18> H 	 26.6886 	 4.07183 	 81.9121
| 19> C 	 28.3129 	 5.41155 	 82.7901
| 20> H 	 28.9804 	 5.38595 	 83.6533
| 21> H 	 28.8597 	 5.52339 	 81.8629
| 22> H 	 27.7478 	 6.31361 	 82.9034
| 23> S 	 21.107 	 0.930258 	 84.2203
| 24> C 	 19.9456 	 0.363129 	 83.0235
| 25> C 	 20.5062 	 0.471224 	 81.761
| 26> C 	 21.7627 	 1.03378 	 81.6952
| 27> C 	 22.2362 	 1.37893 	 82.9829
| 28> H 	 19.9204 	 0.294965 	 80.8919
| 29> C 	 22.4724 	 1.14168 	 80.3597
| 30> H 	 23.415 	 1.58908 	 80.5897
| 31> H 	 21.9596 	 1.82206 	 79.7164
| 32> C 	 22.7532 	 -0.169408 	 79.5674
| 33> H 	 21.8191 	 -0.562199 	 79.1619
| 34> H 	 23.1782 	 -0.971148 	 80.1159
| 35> C 	 23.6624 	 0.245177 	 78.3976
| 36> H 	 23.3502 	 1.19654 	 77.9443
| 37> H 	 23.5513 	 -0.433606 	 77.5301
| 38> H 	 24.7217 	 0.381231 	 78.6868
| 39> H 	 26.7778 	 1.37104 	 84.8551
| 40> H 	 18.8971 	 0.185111 	 83.1701
| 41> *
| 42>
| 43>                          ****END OF INPUT****

CARTESIAN COORDINATES (ANGSTROEM)
---------------------------------
  S     24.520200    0.534877   84.165200
  C     25.866600    1.557060   84.332700
  C     25.530000    2.857410   83.924200
  C     24.194300    2.903590   83.322200
  C     23.553400    1.744600   83.397600
  H     23.702200    3.704630   82.895800
  C     26.387400    4.089130   83.948000
  H     26.980600    4.147650   84.828800
  H     25.746900    4.905880   83.911800
  C     27.333900    4.147060   82.786400
  H     27.944300    3.300250   82.759000
  H     26.688600    4.071830   81.912100
  C     28.312900    5.411550   82.790100
  H     28.980400    5.385950   83.653300
  H     28.859700    5.523390   81.862900
  H     27.747800    6.313610   82.903400
  S     21.107000    0.930258   84.220300
  C     19.945600    0.363129   83.023500
  C     20.506200    0.471224   81.761000
  C     21.762700    1.033780   81.695200
  C     22.236200    1.378930   82.982900
  H     19.920400    0.294965   80.891900
  C     22.472400    1.141680   80.359700
  H     23.415000    1.589080   80.589700
  H     21.959600    1.822060   79.716400
  C     22.753200   -0.169408   79.567400
  H     21.819100   -0.562199   79.161900
  H     23.178200   -0.971148   80.115900
  C     23.662400    0.245177   78.397600
  H     23.350200    1.196540   77.944300
  H     23.551300   -0.433606   77.530100
  H     24.721700    0.381231   78.686800
  H     26.777800    1.371040   84.855100
  H     18.897100    0.185111   83.170100

 Total Charge           Charge          ....    0
 Multiplicity           Mult            ....    1
 Number of Electrons    NEL             ....  134
 Basis Dimension        Dim             ....  322

ORBITAL ENERGIES
----------------

  NO   OCC          E(Eh)            E(eV)
   0   2.0000     -88.968282     -2420.9500
   1   2.0000     -88.960652     -2420.7424
   2   2.0000     -10.323229      -280.9093
   3   2.0000     -10.316509      -280.7265
   4   2.0000     -10.315800      -280.7072
   5   2.0000     -10.309291      -280.5301
   6   2.0000     -10.301656      -280.3223
   7   2.0000     -10.298151      -280.2269
   8   2.0000     -10.287169      -279.9281
   9   2.0000     -10.285762      -279.8898
  10   2.0000     -10.284459      -279.8544
  11   2.0000     -10.284255      -279.8488
  12   2.0000     -10.280537      -279.7476
  13   2.0000     -10.280073      -279.7350
  14   2.0000     -10.279090      -279.7083
  15   2.0000     -10.278194      -279.6839
  16   2.0000      -8.082832      -219.9451
  17   2.0000      -8.076868      -219.7827
  18   2.0000      -6.041267      -164.3912
  19   2.0000      -6.037208      -164.2808
  20   2.0000      -6.035384      -164.2311
  21   2.0000      -6.033827      -164.1888
  22   2.0000      -6.031027      -164.1126
  23   2.0000      -6.027652      -164.0208
  24   2.0000      -1.014459       -27.6048
  25   2.0000      -0.987767       -26.8785
  26   2.0000      -0.916538       -24.9403
  27   2.0000      -0.908905       -24.7326
  28   2.0000      -0.873769       -23.7765
  29   2.0000      -0.853401       -23.2222
  30   2.0000      -0.845381       -23.0040
  31   2.0000      -0.816502       -22.2181
  32   2.0000      -0.781675       -21.2705
  33   2.0000      -0.767666       -20.8893
  34   2.0000      -0.708610       -19.2822
  35   2.0000      -0.706041       -19.2124
  36   2.0000      -0.701190       -19.0803
  37   2.0000      -0.661836       -18.0095
  38   2.0000      -0.654267       -17.8035
  39   2.0000      -0.622045       -16.9267
  40   2.0000      -0.598580       -16.2882
  41   2.0000      -0.573011       -15.5924
  42   2.0000      -0.567894       -15.4532
  43   2.0000      -0.562840       -15.3157
  44   2.0000      -0.524580       -14.2745
  45   2.0000      -0.523305       -14.2399
  46   2.0000      -0.516934       -14.0665
  47   2.0000      -0.512065       -13.9340
  48   2.0000      -0.508170       -13.8280
  49   2.0000      -0.500708       -13.6250
  50   2.0000      -0.494893       -13.4667
  51   2.0000      -0.479917       -13.0592
  52   2.0000      -0.471961       -12.8427
  53   2.0000      -0.465123       -12.6566
  54   2.0000      -0.459384       -12.5005
  55   2.0000      -0.445036       -12.1101
  56   2.0000      -0.443245       -12.0613
  57   2.0000      -0.440073       -11.9750
  58   2.0000      -0.439530       -11.9602
  59   2.0000      -0.426040       -11.5931
  60   2.0000      -0.424132       -11.5412
  61   2.0000      -0.419661       -11.4196
  62   2.0000      -0.416007       -11.3201
  63   2.0000      -0.343471        -9.3463
  64   2.0000      -0.334823        -9.1110
  65   2.0000      -0.322391        -8.7727
  66   2.0000      -0.298123        -8.1123
  67   0.0000       0.040737         1.1085
  68   0.0000       0.060613         1.6494
  69   0.0000       0.121820         3.3149
  70   0.0000       0.127486         3.4691
  71   0.0000       0.133219         3.6251

MULLIKEN ATOMIC CHARGES
-----------------------
   0 S :    0.124598
   1 C :   -0.094758
   2 C :   -0.137644
   3 C :    0.064586
   4 C :   -0.158241
   5 H :   -0.023339
   6 C :    0.137300
   7 H :    0.006329
   8 H :   -0.001039
   9 C :   -0.064306
  10 H :    0.011235
  11 H :    0.016032
  12 C :   -0.032113
  13 H :    0.030896
  14 H :    0.039232
  15 H :    0.017353
  16 S :    0.119525
  17 C :   -0.091059
  18 C :   -0.031072
  19 C :    0.001922
  20 C :   -0.193424
  21 H :    0.005639
  22 C :    0.076753
  23 H :    0.010899
  24 H :    0.026448
  25 C :   -0.042170
  26 H :    0.023353
  27 H :    0.033068
  28 C :   -0.072819
  29 H :    0.018862
  30 H :    0.032618
  31 H :    0.049140
  32 H :    0.039636
  33 H :    0.056561
Sum of atomic charges:   -0.0000000

LOEWDIN ATOMIC CHARGES
----------------------
   0 S :    0.432803
   1 C :   -0.213810
   2 C :   -0.051590
   3 C :   -0.055812
   4 C :   -0.204934
   5 H :    0.021452
   6 C :   -0.027229
   7 H :    0.023982
   8 H :    0.021096
   9 C :   -0.029868
  10 H :    0.013319
  11 H :    0.021872
  12 C :   -0.062611
  13 H :    0.025402
  14 H :    0.027204
  15 H :    0.019306
  16 S :    0.422365
  17 C :   -0.184879
  18 C :   -0.068094
  19 C :   -0.054053
  20 C :   -0.212952
  21 H :    0.025484
  22 C :   -0.025252
  23 H :    0.025932
  24 H :    0.029498
  25 C :   -0.029571
  26 H :    0.021786
  27 H :    0.023114
  28 C :   -0.070111
  29 H :    0.023301
  30 H :    0.027172
  31 H :    0.030090
  32 H :    0.026415
  33 H :    0.029175

  Mayer bond orders larger than 0.100000
B(  0-S ,  1-C ) :   1.1473 B(  0-S ,  4-C ) :   1.1481 B(  1-C ,  2-C ) :   1.6102
B(  1-C , 32-H ) :   0.9718 B(  2-C ,  3-C ) :   1.2028 B(  2-C ,  6-C ) :   1.0423
B(  3-C ,  4-C ) :   1.6254 B(  3-C ,  5-H ) :   1.0093 B(  4-C , 20-C ) :   1.0095
B(  6-C ,  7-H ) :   0.9319 B(  6-C ,  8-H ) :   0.9300 B(  6-C ,  9-C ) :   1.0686
B(  9-C , 10-H ) :   0.9587 B(  9-C , 11-H ) :   0.9557 B(  9-C , 12-C ) :   1.0680
B( 12-C , 13-H ) :   0.9761 B( 12-C , 14-H ) :   0.9773 B( 12-C , 15-H ) :   0.9771
B( 16-S , 17-C ) :   1.1601 B( 16-S , 20-C ) :   1.1723 B( 17-C , 18-C ) :   1.5702
B( 17-C , 20-C ) :   0.1167 B( 17-C , 33-H ) :   0.9684 B( 18-C , 19-C ) :   1.2994
B( 18-C , 21-H ) :   0.9886 B( 19-C , 20-C ) :   1.5350 B( 19-C , 22-C ) :   1.0400
B( 22-C , 23-H ) :   0.9328 B( 22-C , 24-H ) :   0.9293 B( 22-C , 25-C ) :   1.0671
B( 25-C , 26-H ) :   0.9512 B( 25-C , 27-H ) :   0.9596 B( 25-C , 28-C ) :   1.0803
B( 28-C , 29-H ) :   0.9702 B( 28-C , 30-H ) :   0.9737 B( 28-C , 31-H ) :   0.9770

Dispersion correction           -0.013691044
FINAL SINGLE POINT ENERGY     -1339.875661363315

DIPOLE MOMENT
-------------
                                X             Y             Z
Electronic contribution:    -16.93753     -11.29702      20.05769
Nuclear contribution   :     17.03289      11.62052     -20.53259
                        -----------------------------------------
Total Dipole Moment    :      0.09536       0.32350      -0.47491
                        -----------------------------------------
Magnitude (a.u.)       :      0.58248
Magnitude (Debye)      :      1.48054

Rotational constants in cm-1:     0.018563     0.008160     0.006480
Rotational constants in MHz :   556.491880   244.618357   194.275527

                             ****ORCA TERMINATED NORMALLY****
TOTAL RUN TIME: 0 days 0 hours 0 minutes 32 seconds 227 msec
