                         Program Version 4.2.1 -  RELEASE  -
|  1> ! wB97X-D3 SP def2-SVP
|  2> %pal
|  3> nprocs 16
|  4> end
|  5>
|  6> * xyz 0 1
|  7> S 	 48.9195 	 12.1407 	 83.7512
|  8> C 	 48.7944 	 11.9571 	 85.4513
|  9> C 	 49.3628 	 13.0543 	 86.1382
| 10> C 	 49.8696 	 14.0335 	 85.2112
| 11> C 	 49.7321 	 13.7449 	 83.9173
| 12> H 	 50.431 	 14.9111 	 85.4294
| 13> C 	 49.6757 	 13.1865 	 87.6185
| 14> H 	 50.7192 	 13.4728 	 87.6974
| 15> H 	 49.6288 	 12.1972 	 88.0427
| 16> C 	 48.8009 	 14.1687 	 88.3582
| 17> H 	 49.1842 	 14.253 	 89.3778
| 18> H 	 48.8122 	 15.2331 	 87.9467
| 19> C 	 47.3593 	 13.6594 	 88.4417
| 20> H 	 46.7991 	 14.2582 	 89.1786
| 21> H 	 46.7873 	 13.7678 	 87.4718
| 22> H 	 47.3898 	 12.6265 	 88.6736
| 23> S 	 51.6902 	 13.7415 	 82.077
| 24> C 	 51.9689 	 15.1975 	 81.1354
| 25> C 	 51.0028 	 16.1905 	 81.3489
| 26> C 	 50.1369 	 15.8507 	 82.454
| 27> C 	 50.2938 	 14.5251 	 82.8222
| 28> H 	 51.0089 	 17.1552 	 80.7971
| 29> C 	 49.1627 	 16.8646 	 82.9709
| 30> H 	 49.5349 	 17.7842 	 82.5498
| 31> H 	 49.2934 	 16.8269 	 84.0764
| 32> C 	 47.7093 	 16.6683 	 82.4915
| 33> H 	 47.4223 	 15.7407 	 82.8032
| 34> H 	 47.6384 	 16.7178 	 81.3677
| 35> C 	 46.6576 	 17.6 	 83.1395
| 36> H 	 45.6939 	 17.393 	 82.732
| 37> H 	 46.7785 	 18.7014 	 83.1323
| 38> H 	 46.605 	 17.3891 	 84.214
| 39> H 	 48.5432 	 10.9539 	 85.8456
| 40> H 	 52.8746 	 15.4517 	 80.5788
| 41> *
| 42>
| 43>                          ****END OF INPUT****

CARTESIAN COORDINATES (ANGSTROEM)
---------------------------------
  S     48.919500   12.140700   83.751200
  C     48.794400   11.957100   85.451300
  C     49.362800   13.054300   86.138200
  C     49.869600   14.033500   85.211200
  C     49.732100   13.744900   83.917300
  H     50.431000   14.911100   85.429400
  C     49.675700   13.186500   87.618500
  H     50.719200   13.472800   87.697400
  H     49.628800   12.197200   88.042700
  C     48.800900   14.168700   88.358200
  H     49.184200   14.253000   89.377800
  H     48.812200   15.233100   87.946700
  C     47.359300   13.659400   88.441700
  H     46.799100   14.258200   89.178600
  H     46.787300   13.767800   87.471800
  H     47.389800   12.626500   88.673600
  S     51.690200   13.741500   82.077000
  C     51.968900   15.197500   81.135400
  C     51.002800   16.190500   81.348900
  C     50.136900   15.850700   82.454000
  C     50.293800   14.525100   82.822200
  H     51.008900   17.155200   80.797100
  C     49.162700   16.864600   82.970900
  H     49.534900   17.784200   82.549800
  H     49.293400   16.826900   84.076400
  C     47.709300   16.668300   82.491500
  H     47.422300   15.740700   82.803200
  H     47.638400   16.717800   81.367700
  C     46.657600   17.600000   83.139500
  H     45.693900   17.393000   82.732000
  H     46.778500   18.701400   83.132300
  H     46.605000   17.389100   84.214000
  H     48.543200   10.953900   85.845600
  H     52.874600   15.451700   80.578800

 Total Charge           Charge          ....    0
 Multiplicity           Mult            ....    1
 Number of Electrons    NEL             ....  134
 Basis Dimension        Dim             ....  322

ORBITAL ENERGIES
----------------

  NO   OCC          E(Eh)            E(eV)
   0   2.0000     -88.968241     -2420.9489
   1   2.0000     -88.962203     -2420.7846
   2   2.0000     -10.325296      -280.9656
   3   2.0000     -10.324640      -280.9477
   4   2.0000     -10.320242      -280.8281
   5   2.0000     -10.318384      -280.7775
   6   2.0000     -10.305187      -280.4184
   7   2.0000     -10.304742      -280.4063
   8   2.0000     -10.299592      -280.2661
   9   2.0000     -10.293215      -280.0926
  10   2.0000     -10.289329      -279.9869
  11   2.0000     -10.289220      -279.9839
  12   2.0000     -10.286477      -279.9093
  13   2.0000     -10.284717      -279.8614
  14   2.0000     -10.276238      -279.6307
  15   2.0000     -10.275367      -279.6069
  16   2.0000      -8.082545      -219.9372
  17   2.0000      -8.076992      -219.7861
  18   2.0000      -6.041041      -164.3851
  19   2.0000      -6.037168      -164.2797
  20   2.0000      -6.035512      -164.2346
  21   2.0000      -6.033267      -164.1735
  22   2.0000      -6.031508      -164.1257
  23   2.0000      -6.027723      -164.0227
  24   2.0000      -1.004660       -27.3382
  25   2.0000      -0.980946       -26.6929
  26   2.0000      -0.913288       -24.8518
  27   2.0000      -0.908894       -24.7323
  28   2.0000      -0.870835       -23.6966
  29   2.0000      -0.852654       -23.2019
  30   2.0000      -0.844489       -22.9797
  31   2.0000      -0.811803       -22.0903
  32   2.0000      -0.781460       -21.2646
  33   2.0000      -0.768453       -20.9107
  34   2.0000      -0.708288       -19.2735
  35   2.0000      -0.695604       -18.9284
  36   2.0000      -0.687100       -18.6969
  37   2.0000      -0.663463       -18.0537
  38   2.0000      -0.647278       -17.6133
  39   2.0000      -0.619753       -16.8643
  40   2.0000      -0.587269       -15.9804
  41   2.0000      -0.568234       -15.4624
  42   2.0000      -0.561420       -15.2770
  43   2.0000      -0.552363       -15.0306
  44   2.0000      -0.535870       -14.5818
  45   2.0000      -0.526277       -14.3207
  46   2.0000      -0.519161       -14.1271
  47   2.0000      -0.510799       -13.8995
  48   2.0000      -0.500256       -13.6126
  49   2.0000      -0.499160       -13.5828
  50   2.0000      -0.485302       -13.2058
  51   2.0000      -0.481597       -13.1049
  52   2.0000      -0.467116       -12.7109
  53   2.0000      -0.463940       -12.6244
  54   2.0000      -0.452858       -12.3229
  55   2.0000      -0.448111       -12.1937
  56   2.0000      -0.442829       -12.0500
  57   2.0000      -0.439320       -11.9545
  58   2.0000      -0.436153       -11.8683
  59   2.0000      -0.425403       -11.5758
  60   2.0000      -0.421784       -11.4773
  61   2.0000      -0.420270       -11.4361
  62   2.0000      -0.410622       -11.1736
  63   2.0000      -0.347049        -9.4437
  64   2.0000      -0.330841        -9.0026
  65   2.0000      -0.322746        -8.7824
  66   2.0000      -0.295676        -8.0458
  67   0.0000       0.035969         0.9788
  68   0.0000       0.060490         1.6460
  69   0.0000       0.110713         3.0126
  70   0.0000       0.120589         3.2814
  71   0.0000       0.124830         3.3968

MULLIKEN ATOMIC CHARGES
-----------------------
   0 S :    0.094602
   1 C :   -0.136658
   2 C :   -0.086574
   3 C :    0.041930
   4 C :   -0.163970
   5 H :    0.006116
   6 C :    0.074456
   7 H :    0.029606
   8 H :    0.015099
   9 C :   -0.082029
  10 H :    0.029316
  11 H :    0.039144
  12 C :   -0.055130
  13 H :    0.035877
  14 H :    0.048675
  15 H :    0.017989
  16 S :    0.117090
  17 C :   -0.096734
  18 C :   -0.054301
  19 C :   -0.067115
  20 C :   -0.164996
  21 H :    0.037371
  22 C :    0.101036
  23 H :    0.007494
  24 H :    0.031002
  25 C :   -0.034683
  26 H :    0.013379
  27 H :    0.038348
  28 C :   -0.051364
  29 H :    0.028971
  30 H :    0.029648
  31 H :    0.024259
  32 H :    0.068531
  33 H :    0.063614
Sum of atomic charges:    0.0000000

LOEWDIN ATOMIC CHARGES
----------------------
   0 S :    0.385818
   1 C :   -0.212310
   2 C :   -0.060640
   3 C :   -0.059913
   4 C :   -0.187397
   5 H :    0.029159
   6 C :   -0.032399
   7 H :    0.032894
   8 H :    0.027419
   9 C :   -0.046098
  10 H :    0.023916
  11 H :    0.030135
  12 C :   -0.066663
  13 H :    0.027100
  14 H :    0.033399
  15 H :    0.016140
  16 S :    0.406370
  17 C :   -0.187933
  18 C :   -0.075050
  19 C :   -0.050006
  20 C :   -0.197921
  21 H :    0.038336
  22 C :   -0.029022
  23 H :    0.027053
  24 H :    0.036866
  25 C :   -0.027730
  26 H :    0.014894
  27 H :    0.032246
  28 C :   -0.069157
  29 H :    0.023544
  30 H :    0.024091
  31 H :    0.025984
  32 H :    0.034092
  33 H :    0.032782

  Mayer bond orders larger than 0.100000
B(  0-S ,  1-C ) :   1.1521 B(  0-S ,  4-C ) :   1.1156 B(  1-C ,  2-C ) :   1.6003
B(  1-C , 32-H ) :   0.9637 B(  2-C ,  3-C ) :   1.2142 B(  2-C ,  6-C ) :   1.0211
B(  3-C ,  4-C ) :   1.6399 B(  3-C ,  5-H ) :   0.9922 B(  4-C , 20-C ) :   1.0180
B(  6-C ,  7-H ) :   0.9410 B(  6-C ,  8-H ) :   0.9409 B(  6-C ,  9-C ) :   1.0792
B(  9-C , 10-H ) :   0.9537 B(  9-C , 11-H ) :   0.9550 B(  9-C , 12-C ) :   1.0728
B( 12-C , 13-H ) :   0.9741 B( 12-C , 14-H ) :   0.9729 B( 12-C , 15-H ) :   0.9757
B( 16-S , 17-C ) :   1.1580 B( 16-S , 20-C ) :   1.1364 B( 17-C , 18-C ) :   1.6213
B( 17-C , 33-H ) :   0.9623 B( 18-C , 19-C ) :   1.2341 B( 18-C , 21-H ) :   0.9767
B( 19-C , 20-C ) :   1.6106 B( 19-C , 22-C ) :   1.0456 B( 22-C , 23-H ) :   0.9222
B( 22-C , 24-H ) :   0.9255 B( 22-C , 25-C ) :   1.0754 B( 25-C , 26-H ) :   0.9539
B( 25-C , 27-H ) :   0.9553 B( 25-C , 28-C ) :   1.0797 B( 28-C , 29-H ) :   0.9742
B( 28-C , 30-H ) :   0.9782 B( 28-C , 31-H ) :   0.9738

Dispersion correction           -0.014403429
FINAL SINGLE POINT ENERGY     -1339.876559177874

DIPOLE MOMENT
-------------
                                X             Y             Z
Electronic contribution:     15.43161     -15.38313     -17.21790
Nuclear contribution   :    -15.31947      15.86154      17.63819
                        -----------------------------------------
Total Dipole Moment    :      0.11214       0.47841       0.42030
                        -----------------------------------------
Magnitude (a.u.)       :      0.64661
Magnitude (Debye)      :      1.64354

Rotational constants in cm-1:     0.017418     0.009182     0.007175
Rotational constants in MHz :   522.168598   275.274717   215.104936

                             ****ORCA TERMINATED NORMALLY****
TOTAL RUN TIME: 0 days 0 hours 0 minutes 28 seconds 986 msec
