                         Program Version 4.2.1 -  RELEASE  -
|  1> ! wB97X-D3 SP def2-SVP
|  2> %pal
|  3> nprocs 16
|  4> end
|  5>
|  6> * xyz 0 1
|  7> S 	 26.3883 	 -10.9351 	 76.4778
|  8> C 	 27.1389 	 -11.988 	 75.2165
|  9> C 	 28.3764 	 -12.5176 	 75.6738
| 10> C 	 28.6885 	 -12.1604 	 77.044
| 11> C 	 27.6404 	 -11.5135 	 77.6329
| 12> H 	 29.5636 	 -12.3932 	 77.554
| 13> C 	 29.2801 	 -13.4419 	 74.9314
| 14> H 	 28.8319 	 -13.7262 	 73.9543
| 15> H 	 29.4534 	 -14.3479 	 75.5628
| 16> C 	 30.6492 	 -12.8087 	 74.6536
| 17> H 	 30.5144 	 -11.9656 	 73.9414
| 18> H 	 30.9783 	 -12.259 	 75.6139
| 19> C 	 31.6292 	 -13.8343 	 74.0729
| 20> H 	 31.0888 	 -14.2664 	 73.1508
| 21> H 	 32.5727 	 -13.4473 	 73.7723
| 22> H 	 31.7845 	 -14.6692 	 74.749
| 23> S 	 28.6018 	 -12.1894 	 80.1895
| 24> C 	 27.8443 	 -11.4917 	 81.6093
| 25> C 	 26.9138 	 -10.5972 	 81.1663
| 26> C 	 26.8213 	 -10.3501 	 79.7592
| 27> C 	 27.6079 	 -11.2206 	 79.0965
| 28> H 	 26.2688 	 -10.0898 	 81.9131
| 29> C 	 26.0208 	 -9.20026 	 79.0557
| 30> H 	 25.2371 	 -9.72567 	 78.5132
| 31> H 	 26.787 	 -8.76392 	 78.477
| 32> C 	 25.3823 	 -8.26221 	 80.0324
| 33> H 	 26.1256 	 -7.66236 	 80.5525
| 34> H 	 24.8263 	 -8.8281 	 80.7891
| 35> C 	 24.4144 	 -7.30566 	 79.4894
| 36> H 	 24.6385 	 -7.01392 	 78.4486
| 37> H 	 24.4518 	 -6.41127 	 80.106
| 38> H 	 23.3606 	 -7.5861 	 79.5244
| 39> H 	 26.7407 	 -12.0946 	 74.2445
| 40> H 	 28.0295 	 -11.7148 	 82.6387
| 41> *
| 42>
| 43>                          ****END OF INPUT****

CARTESIAN COORDINATES (ANGSTROEM)
---------------------------------
  S     26.388300  -10.935100   76.477800
  C     27.138900  -11.988000   75.216500
  C     28.376400  -12.517600   75.673800
  C     28.688500  -12.160400   77.044000
  C     27.640400  -11.513500   77.632900
  H     29.563600  -12.393200   77.554000
  C     29.280100  -13.441900   74.931400
  H     28.831900  -13.726200   73.954300
  H     29.453400  -14.347900   75.562800
  C     30.649200  -12.808700   74.653600
  H     30.514400  -11.965600   73.941400
  H     30.978300  -12.259000   75.613900
  C     31.629200  -13.834300   74.072900
  H     31.088800  -14.266400   73.150800
  H     32.572700  -13.447300   73.772300
  H     31.784500  -14.669200   74.749000
  S     28.601800  -12.189400   80.189500
  C     27.844300  -11.491700   81.609300
  C     26.913800  -10.597200   81.166300
  C     26.821300  -10.350100   79.759200
  C     27.607900  -11.220600   79.096500
  H     26.268800  -10.089800   81.913100
  C     26.020800   -9.200260   79.055700
  H     25.237100   -9.725670   78.513200
  H     26.787000   -8.763920   78.477000
  C     25.382300   -8.262210   80.032400
  H     26.125600   -7.662360   80.552500
  H     24.826300   -8.828100   80.789100
  C     24.414400   -7.305660   79.489400
  H     24.638500   -7.013920   78.448600
  H     24.451800   -6.411270   80.106000
  H     23.360600   -7.586100   79.524400
  H     26.740700  -12.094600   74.244500
  H     28.029500  -11.714800   82.638700

 Total Charge           Charge          ....    0
 Multiplicity           Mult            ....    1
 Number of Electrons    NEL             ....  134
 Basis Dimension        Dim             ....  322

ORBITAL ENERGIES
----------------

  NO   OCC          E(Eh)            E(eV)
   0   2.0000     -88.969709     -2420.9889
   1   2.0000     -88.962728     -2420.7989
   2   2.0000     -10.335472      -281.2425
   3   2.0000     -10.323408      -280.9142
   4   2.0000     -10.318239      -280.7736
   5   2.0000     -10.315391      -280.6961
   6   2.0000     -10.307421      -280.4792
   7   2.0000     -10.297398      -280.2065
   8   2.0000     -10.295063      -280.1429
   9   2.0000     -10.294383      -280.1244
  10   2.0000     -10.292792      -280.0811
  11   2.0000     -10.292728      -280.0794
  12   2.0000     -10.289635      -279.9952
  13   2.0000     -10.283624      -279.8316
  14   2.0000     -10.280517      -279.7471
  15   2.0000     -10.272567      -279.5307
  16   2.0000      -8.082099      -219.9251
  17   2.0000      -8.077200      -219.7918
  18   2.0000      -6.040953      -164.3827
  19   2.0000      -6.037141      -164.2790
  20   2.0000      -6.035963      -164.2469
  21   2.0000      -6.032434      -164.1509
  22   2.0000      -6.031785      -164.1332
  23   2.0000      -6.027676      -164.0214
  24   2.0000      -1.004036       -27.3212
  25   2.0000      -0.976905       -26.5829
  26   2.0000      -0.920447       -25.0466
  27   2.0000      -0.911364       -24.7995
  28   2.0000      -0.866907       -23.5897
  29   2.0000      -0.856177       -23.2978
  30   2.0000      -0.843729       -22.9590
  31   2.0000      -0.812490       -22.1090
  32   2.0000      -0.786027       -21.3889
  33   2.0000      -0.769620       -20.9424
  34   2.0000      -0.703356       -19.1393
  35   2.0000      -0.700938       -19.0735
  36   2.0000      -0.691040       -18.8042
  37   2.0000      -0.658432       -17.9168
  38   2.0000      -0.636966       -17.3327
  39   2.0000      -0.615775       -16.7561
  40   2.0000      -0.598118       -16.2756
  41   2.0000      -0.585392       -15.9293
  42   2.0000      -0.567015       -15.4293
  43   2.0000      -0.558078       -15.1861
  44   2.0000      -0.538475       -14.6527
  45   2.0000      -0.524436       -14.2706
  46   2.0000      -0.518711       -14.1149
  47   2.0000      -0.510789       -13.8993
  48   2.0000      -0.507430       -13.8079
  49   2.0000      -0.504730       -13.7344
  50   2.0000      -0.486407       -13.2358
  51   2.0000      -0.480753       -13.0819
  52   2.0000      -0.476048       -12.9539
  53   2.0000      -0.463488       -12.6121
  54   2.0000      -0.459120       -12.4933
  55   2.0000      -0.451375       -12.2825
  56   2.0000      -0.443763       -12.0754
  57   2.0000      -0.434980       -11.8364
  58   2.0000      -0.432697       -11.7743
  59   2.0000      -0.424461       -11.5502
  60   2.0000      -0.415974       -11.3192
  61   2.0000      -0.412246       -11.2178
  62   2.0000      -0.407040       -11.0761
  63   2.0000      -0.357358        -9.7242
  64   2.0000      -0.330181        -8.9847
  65   2.0000      -0.327190        -8.9033
  66   2.0000      -0.283952        -7.7267
  67   0.0000       0.020951         0.5701
  68   0.0000       0.082345         2.2407
  69   0.0000       0.103141         2.8066
  70   0.0000       0.115818         3.1516
  71   0.0000       0.130992         3.5645

MULLIKEN ATOMIC CHARGES
-----------------------
   0 S :    0.071344
   1 C :   -0.097391
   2 C :   -0.060096
   3 C :   -0.011618
   4 C :   -0.085453
   5 H :    0.003245
   6 C :    0.045492
   7 H :    0.022816
   8 H :    0.044524
   9 C :   -0.132884
  10 H :    0.033749
  11 H :    0.039044
  12 C :   -0.019959
  13 H :    0.031676
  14 H :    0.035462
  15 H :    0.030869
  16 S :    0.079310
  17 C :   -0.066555
  18 C :   -0.059136
  19 C :   -0.115729
  20 C :   -0.124401
  21 H :    0.021833
  22 C :    0.113483
  23 H :    0.051520
  24 H :    0.040728
  25 C :   -0.088972
  26 H :    0.029020
  27 H :    0.030672
  28 C :   -0.030965
  29 H :    0.028284
  30 H :    0.023204
  31 H :    0.032723
  32 H :    0.034068
  33 H :    0.050092
Sum of atomic charges:    0.0000000

LOEWDIN ATOMIC CHARGES
----------------------
   0 S :    0.370272
   1 C :   -0.183424
   2 C :   -0.046256
   3 C :   -0.064557
   4 C :   -0.151442
   5 H :    0.017818
   6 C :   -0.037980
   7 H :    0.030584
   8 H :    0.036982
   9 C :   -0.050717
  10 H :    0.026642
  11 H :    0.027537
  12 C :   -0.064437
  13 H :    0.035588
  14 H :    0.021088
  15 H :    0.023364
  16 S :    0.387424
  17 C :   -0.182634
  18 C :   -0.076486
  19 C :   -0.067087
  20 C :   -0.183907
  21 H :    0.031301
  22 C :   -0.026420
  23 H :    0.028326
  24 H :    0.029921
  25 C :   -0.050448
  26 H :    0.027196
  27 H :    0.028414
  28 C :   -0.067025
  29 H :    0.026614
  30 H :    0.028750
  31 H :    0.025022
  32 H :    0.018412
  33 H :    0.031567

  Mayer bond orders larger than 0.100000
B(  0-S ,  1-C ) :   1.0926 B(  0-S ,  4-C ) :   1.1233 B(  1-C ,  2-C ) :   1.6332
B(  1-C , 32-H ) :   0.9749 B(  2-C ,  3-C ) :   1.1879 B(  2-C ,  6-C ) :   1.0442
B(  3-C ,  4-C ) :   1.5967 B(  3-C ,  5-H ) :   0.9963 B(  4-C , 20-C ) :   1.0749
B(  6-C ,  7-H ) :   0.9371 B(  6-C ,  8-H ) :   0.9430 B(  6-C ,  9-C ) :   1.0442
B(  9-C , 10-H ) :   0.9526 B(  9-C , 11-H ) :   0.9585 B(  9-C , 12-C ) :   1.0726
B( 12-C , 13-H ) :   0.9684 B( 12-C , 14-H ) :   0.9751 B( 12-C , 15-H ) :   0.9760
B( 16-S , 17-C ) :   1.1249 B( 16-S , 20-C ) :   1.1291 B( 17-C , 18-C ) :   1.6297
B( 17-C , 33-H ) :   0.9702 B( 18-C , 19-C ) :   1.2417 B( 18-C , 21-H ) :   0.9765
B( 19-C , 20-C ) :   1.6266 B( 19-C , 22-C ) :   0.9863 B( 22-C , 23-H ) :   0.9196
B( 22-C , 24-H ) :   0.9325 B( 22-C , 25-C ) :   1.1149 B( 25-C , 26-H ) :   0.9525
B( 25-C , 27-H ) :   0.9438 B( 25-C , 28-C ) :   1.0924 B( 28-C , 29-H ) :   0.9702
B( 28-C , 30-H ) :   0.9708 B( 28-C , 31-H ) :   0.9744

Dispersion correction           -0.013256071
FINAL SINGLE POINT ENERGY     -1339.868894834046

DIPOLE MOMENT
-------------
                                X             Y             Z
Electronic contribution:     -2.68152      -5.36447       8.50822
Nuclear contribution   :      2.71436       5.52906      -8.52041
                        -----------------------------------------
Total Dipole Moment    :      0.03284       0.16460      -0.01219
                        -----------------------------------------
Magnitude (a.u.)       :      0.16828
Magnitude (Debye)      :      0.42774

Rotational constants in cm-1:     0.022788     0.007377     0.005865
Rotational constants in MHz :   683.166954   221.150975   175.829931

                             ****ORCA TERMINATED NORMALLY****
TOTAL RUN TIME: 0 days 0 hours 0 minutes 28 seconds 915 msec
