                         Program Version 4.2.1 -  RELEASE  -
|  1> ! wB97X-D3 SP def2-SVP
|  2> %pal
|  3> nprocs 16
|  4> end
|  5>
|  6> * xyz 0 1
|  7> S 	 7.94561 	 -13.7685 	 66.839
|  8> C 	 7.26796 	 -15.3968 	 66.5188
|  9> C 	 6.64452 	 -15.8995 	 67.6543
| 10> C 	 6.78376 	 -15.0336 	 68.7664
| 11> C 	 7.55161 	 -13.9001 	 68.5508
| 12> H 	 6.35662 	 -15.1036 	 69.7551
| 13> C 	 5.91171 	 -17.2105 	 67.6355
| 14> H 	 5.65493 	 -17.4772 	 66.6083
| 15> H 	 4.94054 	 -17.1481 	 68.08
| 16> C 	 6.69657 	 -18.3977 	 68.2265
| 17> H 	 6.79471 	 -18.1858 	 69.3262
| 18> H 	 6.11614 	 -19.3438 	 68.0547
| 19> C 	 8.03092 	 -18.5848 	 67.5161
| 20> H 	 8.594 	 -19.3759 	 68.0185
| 21> H 	 8.03321 	 -18.7128 	 66.4214
| 22> H 	 8.67691 	 -17.7046 	 67.7243
| 23> S 	 8.45573 	 -11.3265 	 69.0194
| 24> C 	 9.19514 	 -10.9017 	 70.5607
| 25> C 	 8.98462 	 -11.9077 	 71.4919
| 26> C 	 8.33651 	 -13.0711 	 70.9355
| 27> C 	 8.08243 	 -13.0011 	 69.5698
| 28> H 	 9.18908 	 -11.6207 	 72.5159
| 29> C 	 7.91588 	 -14.1324 	 71.9145
| 30> H 	 7.99427 	 -15.0388 	 71.297
| 31> H 	 6.89018 	 -13.9776 	 72.1893
| 32> C 	 8.76223 	 -14.4215 	 73.1884
| 33> H 	 8.2759 	 -15.2354 	 73.6783
| 34> H 	 8.7105 	 -13.5934 	 73.8736
| 35> C 	 10.2281 	 -14.7842 	 73.0247
| 36> H 	 10.8873 	 -13.9657 	 72.822
| 37> H 	 10.2368 	 -15.5387 	 72.2358
| 38> H 	 10.5867 	 -15.1297 	 74.0269
| 39> H 	 7.23779 	 -15.885 	 65.5282
| 40> H 	 9.78566 	 -10.0603 	 70.8233
| 41> *
| 42>
| 43>                          ****END OF INPUT****

CARTESIAN COORDINATES (ANGSTROEM)
---------------------------------
  S      7.945610  -13.768500   66.839000
  C      7.267960  -15.396800   66.518800
  C      6.644520  -15.899500   67.654300
  C      6.783760  -15.033600   68.766400
  C      7.551610  -13.900100   68.550800
  H      6.356620  -15.103600   69.755100
  C      5.911710  -17.210500   67.635500
  H      5.654930  -17.477200   66.608300
  H      4.940540  -17.148100   68.080000
  C      6.696570  -18.397700   68.226500
  H      6.794710  -18.185800   69.326200
  H      6.116140  -19.343800   68.054700
  C      8.030920  -18.584800   67.516100
  H      8.594000  -19.375900   68.018500
  H      8.033210  -18.712800   66.421400
  H      8.676910  -17.704600   67.724300
  S      8.455730  -11.326500   69.019400
  C      9.195140  -10.901700   70.560700
  C      8.984620  -11.907700   71.491900
  C      8.336510  -13.071100   70.935500
  C      8.082430  -13.001100   69.569800
  H      9.189080  -11.620700   72.515900
  C      7.915880  -14.132400   71.914500
  H      7.994270  -15.038800   71.297000
  H      6.890180  -13.977600   72.189300
  C      8.762230  -14.421500   73.188400
  H      8.275900  -15.235400   73.678300
  H      8.710500  -13.593400   73.873600
  C     10.228100  -14.784200   73.024700
  H     10.887300  -13.965700   72.822000
  H     10.236800  -15.538700   72.235800
  H     10.586700  -15.129700   74.026900
  H      7.237790  -15.885000   65.528200
  H      9.785660  -10.060300   70.823300

 Total Charge           Charge          ....    0
 Multiplicity           Mult            ....    1
 Number of Electrons    NEL             ....  134
 Basis Dimension        Dim             ....  322

ORBITAL ENERGIES
----------------

  NO   OCC          E(Eh)            E(eV)
   0   2.0000     -88.967853     -2420.9383
   1   2.0000     -88.964330     -2420.8425
   2   2.0000     -10.335650      -281.2473
   3   2.0000     -10.334583      -281.2183
   4   2.0000     -10.321342      -280.8580
   5   2.0000     -10.317786      -280.7612
   6   2.0000     -10.308925      -280.5201
   7   2.0000     -10.304010      -280.3864
   8   2.0000     -10.294809      -280.1360
   9   2.0000     -10.294224      -280.1201
  10   2.0000     -10.293798      -280.1085
  11   2.0000     -10.292601      -280.0759
  12   2.0000     -10.288748      -279.9711
  13   2.0000     -10.284426      -279.8535
  14   2.0000     -10.278154      -279.6828
  15   2.0000     -10.276706      -279.6434
  16   2.0000      -8.081667      -219.9133
  17   2.0000      -8.078186      -219.8186
  18   2.0000      -6.040297      -164.3648
  19   2.0000      -6.036885      -164.2720
  20   2.0000      -6.036375      -164.2581
  21   2.0000      -6.032902      -164.1636
  22   2.0000      -6.032257      -164.1461
  23   2.0000      -6.028724      -164.0499
  24   2.0000      -1.002540       -27.2805
  25   2.0000      -0.979859       -26.6633
  26   2.0000      -0.913967       -24.8703
  27   2.0000      -0.909459       -24.7476
  28   2.0000      -0.868529       -23.6339
  29   2.0000      -0.852296       -23.1922
  30   2.0000      -0.840789       -22.8790
  31   2.0000      -0.816405       -22.2155
  32   2.0000      -0.784838       -21.3565
  33   2.0000      -0.776189       -21.1212
  34   2.0000      -0.712550       -19.3895
  35   2.0000      -0.697123       -18.9697
  36   2.0000      -0.690676       -18.7943
  37   2.0000      -0.657189       -17.8830
  38   2.0000      -0.642601       -17.4861
  39   2.0000      -0.619726       -16.8636
  40   2.0000      -0.592633       -16.1264
  41   2.0000      -0.572307       -15.5733
  42   2.0000      -0.564980       -15.3739
  43   2.0000      -0.551529       -15.0079
  44   2.0000      -0.543969       -14.8022
  45   2.0000      -0.535374       -14.5683
  46   2.0000      -0.523241       -14.2381
  47   2.0000      -0.515347       -14.0233
  48   2.0000      -0.506341       -13.7782
  49   2.0000      -0.495544       -13.4844
  50   2.0000      -0.494506       -13.4562
  51   2.0000      -0.482563       -13.1312
  52   2.0000      -0.474200       -12.9036
  53   2.0000      -0.459312       -12.4985
  54   2.0000      -0.454303       -12.3622
  55   2.0000      -0.446948       -12.1621
  56   2.0000      -0.438559       -11.9338
  57   2.0000      -0.434603       -11.8262
  58   2.0000      -0.430908       -11.7256
  59   2.0000      -0.425414       -11.5761
  60   2.0000      -0.417123       -11.3505
  61   2.0000      -0.413487       -11.2516
  62   2.0000      -0.410760       -11.1773
  63   2.0000      -0.355932        -9.6854
  64   2.0000      -0.333949        -9.0872
  65   2.0000      -0.327612        -8.9148
  66   2.0000      -0.284265        -7.7352
  67   0.0000       0.014661         0.3989
  68   0.0000       0.077005         2.0954
  69   0.0000       0.093210         2.5364
  70   0.0000       0.125612         3.4181
  71   0.0000       0.126786         3.4500

MULLIKEN ATOMIC CHARGES
-----------------------
   0 S :    0.106700
   1 C :   -0.132895
   2 C :   -0.073398
   3 C :   -0.008146
   4 C :   -0.118468
   5 H :    0.011265
   6 C :    0.084934
   7 H :    0.008227
   8 H :    0.023756
   9 C :   -0.092580
  10 H :    0.041223
  11 H :    0.041701
  12 C :   -0.070620
  13 H :    0.031418
  14 H :    0.037352
  15 H :    0.044272
  16 S :    0.078702
  17 C :   -0.068783
  18 C :   -0.054452
  19 C :   -0.044885
  20 C :   -0.128497
  21 H :    0.025319
  22 C :    0.029203
  23 H :    0.025854
  24 H :    0.051296
  25 C :   -0.058001
  26 H :    0.022898
  27 H :    0.014657
  28 C :   -0.038808
  29 H :    0.031838
  30 H :    0.035757
  31 H :    0.033978
  32 H :    0.061988
  33 H :    0.047195
Sum of atomic charges:    0.0000000

LOEWDIN ATOMIC CHARGES
----------------------
   0 S :    0.384510
   1 C :   -0.182517
   2 C :   -0.062005
   3 C :   -0.068553
   4 C :   -0.186045
   5 H :    0.030719
   6 C :   -0.034357
   7 H :    0.027537
   8 H :    0.028341
   9 C :   -0.042945
  10 H :    0.028930
  11 H :    0.029161
  12 C :   -0.076742
  13 H :    0.026842
  14 H :    0.026486
  15 H :    0.030821
  16 S :    0.372557
  17 C :   -0.171015
  18 C :   -0.075669
  19 C :   -0.055902
  20 C :   -0.177079
  21 H :    0.033903
  22 C :   -0.036237
  23 H :    0.030960
  24 H :    0.034348
  25 C :   -0.039595
  26 H :    0.024923
  27 H :    0.015545
  28 C :   -0.060936
  29 H :    0.021179
  30 H :    0.026750
  31 H :    0.033658
  32 H :    0.035575
  33 H :    0.026854

  Mayer bond orders larger than 0.100000
B(  0-S ,  1-C ) :   1.1280 B(  0-S ,  4-C ) :   1.1385 B(  1-C ,  2-C ) :   1.5994
B(  1-C ,  4-C ) :   0.1001 B(  1-C , 32-H ) :   0.9649 B(  2-C ,  3-C ) :   1.2277
B(  2-C ,  6-C ) :   1.0309 B(  3-C ,  4-C ) :   1.5648 B(  3-C ,  5-H ) :   0.9972
B(  4-C , 20-C ) :   1.0822 B(  6-C ,  7-H ) :   0.9376 B(  6-C ,  8-H ) :   0.9399
B(  6-C ,  9-C ) :   1.0669 B(  9-C , 10-H ) :   0.9564 B(  9-C , 11-H ) :   0.9565
B(  9-C , 12-C ) :   1.0781 B( 12-C , 13-H ) :   0.9716 B( 12-C , 14-H ) :   0.9748
B( 12-C , 15-H ) :   0.9683 B( 16-S , 17-C ) :   1.1468 B( 16-S , 20-C ) :   1.1079
B( 17-C , 18-C ) :   1.6361 B( 17-C , 33-H ) :   0.9653 B( 18-C , 19-C ) :   1.2240
B( 18-C , 21-H ) :   0.9864 B( 19-C , 20-C ) :   1.5993 B( 19-C , 22-C ) :   1.0292
B( 22-C , 23-H ) :   0.9278 B( 22-C , 24-H ) :   0.9330 B( 22-C , 25-C ) :   1.0829
B( 25-C , 26-H ) :   0.9526 B( 25-C , 27-H ) :   0.9447 B( 25-C , 28-C ) :   1.0847
B( 28-C , 29-H ) :   0.9734 B( 28-C , 30-H ) :   0.9765 B( 28-C , 31-H ) :   0.9709

Dispersion correction           -0.014382604
FINAL SINGLE POINT ENERGY     -1339.875157990982

DIPOLE MOMENT
-------------
                                X             Y             Z
Electronic contribution:     -1.41074      24.34686     -14.63097
Nuclear contribution   :      1.25836     -24.82039      15.22505
                        -----------------------------------------
Total Dipole Moment    :     -0.15238      -0.47353       0.59407
                        -----------------------------------------
Magnitude (a.u.)       :      0.77484
Magnitude (Debye)      :      1.96948

Rotational constants in cm-1:     0.018394     0.009135     0.006650
Rotational constants in MHz :   551.431135   273.858968   199.362578

                             ****ORCA TERMINATED NORMALLY****
TOTAL RUN TIME: 0 days 0 hours 0 minutes 35 seconds 311 msec
