                         Program Version 4.2.1 -  RELEASE  -
|  1> ! wB97X-D3 SP def2-SVP
|  2> %pal
|  3> nprocs 16
|  4> end
|  5>
|  6> * xyz 0 1
|  7> S 	 -98.6378 	 40.2845 	 126.97
|  8> C 	 -98.9524 	 40.3783 	 128.636
|  9> C 	 -97.7612 	 40.2789 	 129.346
| 10> C 	 -96.5601 	 40.322 	 128.547
| 11> C 	 -96.8896 	 40.2368 	 127.213
| 12> H 	 -95.5075 	 40.47 	 128.834
| 13> C 	 -97.6639 	 40.3337 	 130.855
| 14> H 	 -98.082 	 41.2379 	 131.178
| 15> H 	 -96.6496 	 40.4195 	 131.178
| 16> C 	 -98.2897 	 39.1737 	 131.598
| 17> H 	 -99.4289 	 39.2041 	 131.558
| 18> H 	 -97.9041 	 38.3036 	 131.027
| 19> C 	 -97.7175 	 39.0459 	 133.077
| 20> H 	 -98.1029 	 39.7144 	 133.762
| 21> H 	 -97.9671 	 38.0577 	 133.546
| 22> H 	 -96.6399 	 39.2279 	 133.061
| 23> S 	 -94.454 	 39.7561 	 125.978
| 24> C 	 -94.0537 	 40.7587 	 124.565
| 25> C 	 -94.8354 	 41.8493 	 124.527
| 26> C 	 -95.9838 	 41.7548 	 125.348
| 27> C 	 -95.9466 	 40.6197 	 126.151
| 28> H 	 -94.574 	 42.6432 	 123.926
| 29> C 	 -97.1685 	 42.8063 	 125.361
| 30> H 	 -97.2406 	 43.3985 	 126.306
| 31> H 	 -97.9928 	 42.1765 	 125.231
| 32> C 	 -97.222 	 43.807 	 124.161
| 33> H 	 -96.3156 	 44.4052 	 124.154
| 34> H 	 -98.0992 	 44.441 	 124.357
| 35> C 	 -97.4378 	 43.1822 	 122.792
| 36> H 	 -96.6945 	 42.3993 	 122.558
| 37> H 	 -97.4337 	 43.9029 	 121.981
| 38> H 	 -98.4072 	 42.691 	 122.679
| 39> H 	 -99.8995 	 40.2953 	 129.102
| 40> H 	 -93.0461 	 40.8266 	 124.196
| 41> *
| 42>
| 43>                          ****END OF INPUT****

CARTESIAN COORDINATES (ANGSTROEM)
---------------------------------
  S    -98.637800   40.284500  126.970000
  C    -98.952400   40.378300  128.636000
  C    -97.761200   40.278900  129.346000
  C    -96.560100   40.322000  128.547000
  C    -96.889600   40.236800  127.213000
  H    -95.507500   40.470000  128.834000
  C    -97.663900   40.333700  130.855000
  H    -98.082000   41.237900  131.178000
  H    -96.649600   40.419500  131.178000
  C    -98.289700   39.173700  131.598000
  H    -99.428900   39.204100  131.558000
  H    -97.904100   38.303600  131.027000
  C    -97.717500   39.045900  133.077000
  H    -98.102900   39.714400  133.762000
  H    -97.967100   38.057700  133.546000
  H    -96.639900   39.227900  133.061000
  S    -94.454000   39.756100  125.978000
  C    -94.053700   40.758700  124.565000
  C    -94.835400   41.849300  124.527000
  C    -95.983800   41.754800  125.348000
  C    -95.946600   40.619700  126.151000
  H    -94.574000   42.643200  123.926000
  C    -97.168500   42.806300  125.361000
  H    -97.240600   43.398500  126.306000
  H    -97.992800   42.176500  125.231000
  C    -97.222000   43.807000  124.161000
  H    -96.315600   44.405200  124.154000
  H    -98.099200   44.441000  124.357000
  C    -97.437800   43.182200  122.792000
  H    -96.694500   42.399300  122.558000
  H    -97.433700   43.902900  121.981000
  H    -98.407200   42.691000  122.679000
  H    -99.899500   40.295300  129.102000
  H    -93.046100   40.826600  124.196000

 Total Charge           Charge          ....    0
 Multiplicity           Mult            ....    1
 Number of Electrons    NEL             ....  134
 Basis Dimension        Dim             ....  322

ORBITAL ENERGIES
----------------

  NO   OCC          E(Eh)            E(eV)
   0   2.0000     -88.969186     -2420.9746
   1   2.0000     -88.963942     -2420.8319
   2   2.0000     -10.328245      -281.0458
   3   2.0000     -10.325101      -280.9603
   4   2.0000     -10.311679      -280.5950
   5   2.0000     -10.308738      -280.5150
   6   2.0000     -10.302202      -280.3372
   7   2.0000     -10.301772      -280.3255
   8   2.0000     -10.299223      -280.2561
   9   2.0000     -10.294952      -280.1399
  10   2.0000     -10.291512      -280.0463
  11   2.0000     -10.287373      -279.9336
  12   2.0000     -10.285223      -279.8752
  13   2.0000     -10.279811      -279.7279
  14   2.0000     -10.279175      -279.7106
  15   2.0000     -10.274085      -279.5721
  16   2.0000      -8.083977      -219.9762
  17   2.0000      -8.078652      -219.8313
  18   2.0000      -6.042494      -164.4246
  19   2.0000      -6.038359      -164.3121
  20   2.0000      -6.037201      -164.2806
  21   2.0000      -6.034823      -164.2159
  22   2.0000      -6.033379      -164.1766
  23   2.0000      -6.029175      -164.0622
  24   2.0000      -1.010212       -27.4893
  25   2.0000      -0.988625       -26.9019
  26   2.0000      -0.911156       -24.7938
  27   2.0000      -0.901357       -24.5272
  28   2.0000      -0.875348       -23.8194
  29   2.0000      -0.848899       -23.0997
  30   2.0000      -0.842054       -22.9135
  31   2.0000      -0.818899       -22.2834
  32   2.0000      -0.781460       -21.2646
  33   2.0000      -0.771799       -21.0017
  34   2.0000      -0.707012       -19.2388
  35   2.0000      -0.698943       -19.0192
  36   2.0000      -0.693003       -18.8576
  37   2.0000      -0.661991       -18.0137
  38   2.0000      -0.645394       -17.5621
  39   2.0000      -0.612949       -16.6792
  40   2.0000      -0.594429       -16.1752
  41   2.0000      -0.575296       -15.6546
  42   2.0000      -0.565317       -15.3831
  43   2.0000      -0.549829       -14.9616
  44   2.0000      -0.538472       -14.6526
  45   2.0000      -0.521346       -14.1866
  46   2.0000      -0.516247       -14.0478
  47   2.0000      -0.513262       -13.9666
  48   2.0000      -0.506310       -13.7774
  49   2.0000      -0.497886       -13.5482
  50   2.0000      -0.491259       -13.3678
  51   2.0000      -0.479133       -13.0379
  52   2.0000      -0.474475       -12.9111
  53   2.0000      -0.465432       -12.6651
  54   2.0000      -0.453708       -12.3460
  55   2.0000      -0.447140       -12.1673
  56   2.0000      -0.443118       -12.0578
  57   2.0000      -0.442091       -12.0299
  58   2.0000      -0.433927       -11.8077
  59   2.0000      -0.423992       -11.5374
  60   2.0000      -0.418208       -11.3800
  61   2.0000      -0.413993       -11.2653
  62   2.0000      -0.411311       -11.1923
  63   2.0000      -0.353934        -9.6310
  64   2.0000      -0.332769        -9.0551
  65   2.0000      -0.324305        -8.8248
  66   2.0000      -0.294115        -8.0033
  67   0.0000       0.028760         0.7826
  68   0.0000       0.069559         1.8928
  69   0.0000       0.106818         2.9067
  70   0.0000       0.123107         3.3499
  71   0.0000       0.130435         3.5493

MULLIKEN ATOMIC CHARGES
-----------------------
   0 S :    0.110426
   1 C :   -0.091879
   2 C :   -0.113197
   3 C :    0.015609
   4 C :   -0.133314
   5 H :    0.037695
   6 C :    0.113828
   7 H :    0.015472
   8 H :   -0.005742
   9 C :   -0.113800
  10 H :    0.044068
  11 H :    0.040880
  12 C :   -0.045095
  13 H :    0.015724
  14 H :    0.041413
  15 H :    0.030609
  16 S :    0.089894
  17 C :   -0.062211
  18 C :   -0.034681
  19 C :   -0.055349
  20 C :   -0.174724
  21 H :   -0.006009
  22 C :    0.098481
  23 H :    0.055014
  24 H :    0.016888
  25 C :   -0.078799
  26 H :    0.030553
  27 H :    0.035655
  28 C :   -0.066069
  29 H :    0.038050
  30 H :    0.029709
  31 H :    0.026169
  32 H :    0.040914
  33 H :    0.053817
Sum of atomic charges:    0.0000000

LOEWDIN ATOMIC CHARGES
----------------------
   0 S :    0.441576
   1 C :   -0.208193
   2 C :   -0.059885
   3 C :   -0.057135
   4 C :   -0.190488
   5 H :    0.039788
   6 C :   -0.035614
   7 H :    0.022903
   8 H :    0.023314
   9 C :   -0.041567
  10 H :    0.027656
  11 H :    0.029519
  12 C :   -0.065358
  13 H :    0.012100
  14 H :    0.033438
  15 H :    0.026057
  16 S :    0.396385
  17 C :   -0.182578
  18 C :   -0.057767
  19 C :   -0.059201
  20 C :   -0.198928
  21 H :    0.020448
  22 C :   -0.028991
  23 H :    0.039897
  24 H :    0.009712
  25 C :   -0.043885
  26 H :    0.019377
  27 H :    0.031342
  28 C :   -0.072560
  29 H :    0.026683
  30 H :    0.025087
  31 H :    0.025426
  32 H :    0.024842
  33 H :    0.026601

  Mayer bond orders larger than 0.100000
B(  0-S ,  1-C ) :   1.1513 B(  0-S ,  4-C ) :   1.1666 B(  1-C ,  2-C ) :   1.5944
B(  1-C , 32-H ) :   0.9754 B(  2-C ,  3-C ) :   1.2494 B(  2-C ,  6-C ) :   1.0294
B(  3-C ,  4-C ) :   1.5764 B(  3-C ,  5-H ) :   0.9844 B(  4-C , 20-C ) :   0.9985
B(  6-C ,  7-H ) :   0.9317 B(  6-C ,  8-H ) :   0.9400 B(  6-C ,  9-C ) :   1.0550
B(  9-C , 10-H ) :   0.9556 B(  9-C , 11-H ) :   0.9620 B(  9-C , 12-C ) :   1.0720
B( 12-C , 13-H ) :   0.9772 B( 12-C , 14-H ) :   0.9771 B( 12-C , 15-H ) :   0.9752
B( 16-S , 17-C ) :   1.1294 B( 16-S , 20-C ) :   1.1570 B( 17-C , 18-C ) :   1.6364
B( 17-C , 33-H ) :   0.9548 B( 18-C , 19-C ) :   1.2563 B( 18-C , 21-H ) :   0.9939
B( 19-C , 20-C ) :   1.5940 B( 19-C , 22-C ) :   0.9920 B( 22-C , 23-H ) :   0.9386
B( 22-C , 24-H ) :   0.9306 B( 22-C , 25-C ) :   1.0871 B( 25-C , 26-H ) :   0.9524
B( 25-C , 27-H ) :   0.9523 B( 25-C , 28-C ) :   1.0816 B( 28-C , 29-H ) :   0.9748
B( 28-C , 30-H ) :   0.9731 B( 28-C , 31-H ) :   0.9708

Dispersion correction           -0.014161280
FINAL SINGLE POINT ENERGY     -1339.862005018778

DIPOLE MOMENT
-------------
                                X             Y             Z
Electronic contribution:      6.61213      -8.31020      -9.52876
Nuclear contribution   :     -6.67710       8.89786       9.92248
                        -----------------------------------------
Total Dipole Moment    :     -0.06497       0.58766       0.39372
                        -----------------------------------------
Magnitude (a.u.)       :      0.71034
Magnitude (Debye)      :      1.80554

Rotational constants in cm-1:     0.025016     0.007089     0.006001
Rotational constants in MHz :   749.975164   212.526171   179.890811

                             ****ORCA TERMINATED NORMALLY****
TOTAL RUN TIME: 0 days 0 hours 0 minutes 33 seconds 632 msec
