                         Program Version 4.2.1 -  RELEASE  -
|  1> ! wB97X-D3 SP def2-SVP
|  2> %pal
|  3> nprocs 16
|  4> end
|  5>
|  6> * xyz 0 1
|  7> S 	 41.7422 	 21.2919 	 83.917
|  8> C 	 41.2854 	 23.0192 	 83.8863
|  9> C 	 42.4397 	 23.7783 	 83.8776
| 10> C 	 43.66 	 23.0171 	 83.834
| 11> C 	 43.3925 	 21.6849 	 83.8678
| 12> H 	 44.6491 	 23.4613 	 83.8577
| 13> C 	 42.3329 	 25.2195 	 83.8041
| 14> H 	 42.1698 	 25.5577 	 82.8043
| 15> H 	 43.2805 	 25.6958 	 83.997
| 16> C 	 41.2619 	 25.9563 	 84.658
| 17> H 	 40.2073 	 25.7344 	 84.4429
| 18> H 	 41.4939 	 25.7891 	 85.6969
| 19> C 	 41.3406 	 27.4596 	 84.3314
| 20> H 	 40.9084 	 27.5565 	 83.318
| 21> H 	 40.5867 	 27.9323 	 84.8703
| 22> H 	 42.2794 	 27.9322 	 84.4918
| 23> S 	 44.3452 	 19.4991 	 82.7077
| 24> C 	 45.7199 	 18.639 	 83.2858
| 25> C 	 46.1722 	 19.2281 	 84.4717
| 26> C 	 45.4622 	 20.4289 	 84.8148
| 27> C 	 44.3626 	 20.6043 	 83.9995
| 28> H 	 47.0679 	 18.7715 	 85.054
| 29> C 	 45.8575 	 21.3396 	 85.9641
| 30> H 	 46.1483 	 20.7065 	 86.8034
| 31> H 	 44.9773 	 21.9132 	 86.2267
| 32> C 	 47.0122 	 22.3801 	 85.5485
| 33> H 	 46.7173 	 22.9381 	 84.6647
| 34> H 	 47.8458 	 21.7398 	 85.214
| 35> C 	 47.6452 	 23.0363 	 86.7972
| 36> H 	 47.5511 	 22.3676 	 87.6998
| 37> H 	 47.1767 	 23.9923 	 86.9889
| 38> H 	 48.6978 	 23.1951 	 86.4426
| 39> H 	 40.2389 	 23.3309 	 83.9544
| 40> H 	 46.2525 	 17.7616 	 82.7981
| 41> *
| 42>
| 43>                          ****END OF INPUT****

CARTESIAN COORDINATES (ANGSTROEM)
---------------------------------
  S     41.742200   21.291900   83.917000
  C     41.285400   23.019200   83.886300
  C     42.439700   23.778300   83.877600
  C     43.660000   23.017100   83.834000
  C     43.392500   21.684900   83.867800
  H     44.649100   23.461300   83.857700
  C     42.332900   25.219500   83.804100
  H     42.169800   25.557700   82.804300
  H     43.280500   25.695800   83.997000
  C     41.261900   25.956300   84.658000
  H     40.207300   25.734400   84.442900
  H     41.493900   25.789100   85.696900
  C     41.340600   27.459600   84.331400
  H     40.908400   27.556500   83.318000
  H     40.586700   27.932300   84.870300
  H     42.279400   27.932200   84.491800
  S     44.345200   19.499100   82.707700
  C     45.719900   18.639000   83.285800
  C     46.172200   19.228100   84.471700
  C     45.462200   20.428900   84.814800
  C     44.362600   20.604300   83.999500
  H     47.067900   18.771500   85.054000
  C     45.857500   21.339600   85.964100
  H     46.148300   20.706500   86.803400
  H     44.977300   21.913200   86.226700
  C     47.012200   22.380100   85.548500
  H     46.717300   22.938100   84.664700
  H     47.845800   21.739800   85.214000
  C     47.645200   23.036300   86.797200
  H     47.551100   22.367600   87.699800
  H     47.176700   23.992300   86.988900
  H     48.697800   23.195100   86.442600
  H     40.238900   23.330900   83.954400
  H     46.252500   17.761600   82.798100

 Total Charge           Charge          ....    0
 Multiplicity           Mult            ....    1
 Number of Electrons    NEL             ....  134
 Basis Dimension        Dim             ....  322

ORBITAL ENERGIES
----------------

  NO   OCC          E(Eh)            E(eV)
   0   2.0000     -88.962679     -2420.7976
   1   2.0000     -88.962275     -2420.7866
   2   2.0000     -10.323061      -280.9048
   3   2.0000     -10.319214      -280.8001
   4   2.0000     -10.317297      -280.7479
   5   2.0000     -10.312616      -280.6205
   6   2.0000     -10.300783      -280.2986
   7   2.0000     -10.300480      -280.2903
   8   2.0000     -10.297188      -280.2007
   9   2.0000     -10.292622      -280.0765
  10   2.0000     -10.291684      -280.0510
  11   2.0000     -10.291586      -280.0483
  12   2.0000     -10.288526      -279.9650
  13   2.0000     -10.287539      -279.9382
  14   2.0000     -10.281782      -279.7815
  15   2.0000     -10.272531      -279.5298
  16   2.0000      -8.078789      -219.8350
  17   2.0000      -8.077728      -219.8062
  18   2.0000      -6.037190      -164.2803
  19   2.0000      -6.036173      -164.2526
  20   2.0000      -6.032882      -164.1631
  21   2.0000      -6.032102      -164.1418
  22   2.0000      -6.029790      -164.0789
  23   2.0000      -6.028537      -164.0448
  24   2.0000      -1.014735       -27.6124
  25   2.0000      -0.987769       -26.8786
  26   2.0000      -0.918545       -24.9949
  27   2.0000      -0.901730       -24.5373
  28   2.0000      -0.870097       -23.6766
  29   2.0000      -0.852285       -23.1919
  30   2.0000      -0.847354       -23.0577
  31   2.0000      -0.815681       -22.1958
  32   2.0000      -0.779769       -21.2186
  33   2.0000      -0.766788       -20.8654
  34   2.0000      -0.708908       -19.2904
  35   2.0000      -0.698334       -19.0026
  36   2.0000      -0.689670       -18.7669
  37   2.0000      -0.659445       -17.9444
  38   2.0000      -0.640452       -17.4276
  39   2.0000      -0.619838       -16.8666
  40   2.0000      -0.590260       -16.0618
  41   2.0000      -0.578360       -15.7380
  42   2.0000      -0.563912       -15.3448
  43   2.0000      -0.561282       -15.2732
  44   2.0000      -0.526369       -14.3232
  45   2.0000      -0.525104       -14.2888
  46   2.0000      -0.518328       -14.1044
  47   2.0000      -0.514792       -14.0082
  48   2.0000      -0.502871       -13.6838
  49   2.0000      -0.497777       -13.5452
  50   2.0000      -0.496653       -13.5146
  51   2.0000      -0.480095       -13.0640
  52   2.0000      -0.472757       -12.8644
  53   2.0000      -0.462161       -12.5760
  54   2.0000      -0.455169       -12.3858
  55   2.0000      -0.452265       -12.3068
  56   2.0000      -0.445383       -12.1195
  57   2.0000      -0.436820       -11.8865
  58   2.0000      -0.434559       -11.8250
  59   2.0000      -0.425275       -11.5723
  60   2.0000      -0.421209       -11.4617
  61   2.0000      -0.413597       -11.2545
  62   2.0000      -0.411002       -11.1839
  63   2.0000      -0.341822        -9.3015
  64   2.0000      -0.329792        -8.9741
  65   2.0000      -0.324284        -8.8242
  66   2.0000      -0.295996        -8.0545
  67   0.0000       0.041223         1.1217
  68   0.0000       0.071036         1.9330
  69   0.0000       0.116123         3.1599
  70   0.0000       0.123478         3.3600
  71   0.0000       0.130252         3.5443

MULLIKEN ATOMIC CHARGES
-----------------------
   0 S :    0.109410
   1 C :   -0.146106
   2 C :   -0.055119
   3 C :    0.042625
   4 C :   -0.127653
   5 H :    0.000022
   6 C :    0.069952
   7 H :    0.022685
   8 H :   -0.003160
   9 C :   -0.101711
  10 H :    0.032155
  11 H :    0.033890
  12 C :   -0.020937
  13 H :    0.025089
  14 H :    0.010039
  15 H :    0.035920
  16 S :    0.121427
  17 C :   -0.120304
  18 C :   -0.074950
  19 C :   -0.040200
  20 C :   -0.162809
  21 H :    0.048748
  22 C :    0.060763
  23 H :    0.025493
  24 H :    0.032891
  25 C :   -0.104847
  26 H :    0.034657
  27 H :    0.023216
  28 C :   -0.043976
  29 H :    0.048965
  30 H :    0.037272
  31 H :    0.045452
  32 H :    0.059498
  33 H :    0.081602
Sum of atomic charges:   -0.0000000

LOEWDIN ATOMIC CHARGES
----------------------
   0 S :    0.413868
   1 C :   -0.191186
   2 C :   -0.060451
   3 C :   -0.066796
   4 C :   -0.205677
   5 H :    0.031895
   6 C :   -0.040154
   7 H :    0.031913
   8 H :    0.026276
   9 C :   -0.030576
  10 H :    0.024745
  11 H :    0.020656
  12 C :   -0.058349
  13 H :    0.030583
  14 H :    0.017964
  15 H :    0.019812
  16 S :    0.443897
  17 C :   -0.216574
  18 C :   -0.085586
  19 C :   -0.061747
  20 C :   -0.221857
  21 H :    0.044927
  22 C :   -0.028698
  23 H :    0.029123
  24 H :    0.027775
  25 C :   -0.041999
  26 H :    0.020997
  27 H :    0.023863
  28 C :   -0.067543
  29 H :    0.035340
  30 H :    0.021375
  31 H :    0.034819
  32 H :    0.030548
  33 H :    0.046820

  Mayer bond orders larger than 0.100000
B(  0-S ,  1-C ) :   1.1144 B(  0-S ,  4-C ) :   1.1889 B(  1-C ,  2-C ) :   1.5960
B(  1-C , 32-H ) :   0.9765 B(  2-C ,  3-C ) :   1.2277 B(  2-C ,  6-C ) :   1.0403
B(  3-C ,  4-C ) :   1.5614 B(  3-C ,  5-H ) :   1.0035 B(  4-C , 20-C ) :   0.9669
B(  6-C ,  7-H ) :   0.9274 B(  6-C ,  8-H ) :   0.9330 B(  6-C ,  9-C ) :   1.0638
B(  9-C , 10-H ) :   0.9519 B(  9-C , 11-H ) :   0.9611 B(  9-C , 12-C ) :   1.0901
B( 12-C , 13-H ) :   0.9720 B( 12-C , 14-H ) :   0.9696 B( 12-C , 15-H ) :   0.9761
B( 16-S , 17-C ) :   1.1695 B( 16-S , 20-C ) :   1.1728 B( 17-C , 18-C ) :   1.5894
B( 17-C , 20-C ) :   0.1038 B( 17-C , 33-H ) :   0.9608 B( 18-C , 19-C ) :   1.2499
B( 18-C , 21-H ) :   0.9740 B( 19-C , 20-C ) :   1.5944 B( 19-C , 22-C ) :   1.0513
B( 22-C , 23-H ) :   0.9368 B( 22-C , 24-H ) :   0.9344 B( 22-C , 25-C ) :   1.0528
B( 25-C , 26-H ) :   0.9569 B( 25-C , 27-H ) :   0.9669 B( 25-C , 28-C ) :   1.0495
B( 28-C , 29-H ) :   0.9721 B( 28-C , 30-H ) :   0.9784 B( 28-C , 31-H ) :   0.9821

Dispersion correction           -0.013899720
FINAL SINGLE POINT ENERGY     -1339.869412415220

DIPOLE MOMENT
-------------
                                X             Y             Z
Electronic contribution:     -7.72037     -26.58433     -12.07201
Nuclear contribution   :      8.04547      27.15815      12.31969
                        -----------------------------------------
Total Dipole Moment    :      0.32510       0.57382       0.24768
                        -----------------------------------------
Magnitude (a.u.)       :      0.70449
Magnitude (Debye)      :      1.79068

Rotational constants in cm-1:     0.019020     0.008363     0.006202
Rotational constants in MHz :   570.201135   250.726159   185.919760

                             ****ORCA TERMINATED NORMALLY****
TOTAL RUN TIME: 0 days 0 hours 0 minutes 29 seconds 501 msec
