                         Program Version 4.2.1 -  RELEASE  -
|  1> ! wB97X-D3 SP def2-SVP
|  2> %pal
|  3> nprocs 16
|  4> end
|  5>
|  6> * xyz 0 1
|  7> S 	 -49.5288 	 62.8854 	 140.443
|  8> C 	 -48.6568 	 61.5255 	 140.95
|  9> C 	 -49.0176 	 61.089 	 142.178
| 10> C 	 -49.9441 	 61.9686 	 142.848
| 11> C 	 -50.3408 	 62.9997 	 142.012
| 12> H 	 -50.1491 	 61.9355 	 143.906
| 13> C 	 -48.3033 	 60.0376 	 143.029
| 14> H 	 -47.4895 	 59.5347 	 142.444
| 15> H 	 -48.9835 	 59.3225 	 143.354
| 16> C 	 -47.4319 	 60.784 	 144.144
| 17> H 	 -46.7265 	 61.4355 	 143.727
| 18> H 	 -48.1026 	 61.4575 	 144.707
| 19> C 	 -46.6788 	 59.8839 	 145.101
| 20> H 	 -46.8241 	 58.9138 	 144.744
| 21> H 	 -45.6253 	 60.1443 	 145.116
| 22> H 	 -47.092 	 59.8596 	 146.112
| 23> S 	 -50.8721 	 65.6349 	 142.815
| 24> C 	 -52.5643 	 66.0331 	 143.055
| 25> C 	 -53.4235 	 65.0189 	 142.719
| 26> C 	 -52.7222 	 63.792 	 142.388
| 27> C 	 -51.3965 	 63.9824 	 142.309
| 28> H 	 -54.5223 	 65.1684 	 142.804
| 29> C 	 -53.5084 	 62.5077 	 142.426
| 30> H 	 -54.244 	 62.491 	 143.249
| 31> H 	 -52.7709 	 61.6268 	 142.7
| 32> C 	 -54.1359 	 62.2245 	 141.029
| 33> H 	 -53.2138 	 61.9073 	 140.455
| 34> H 	 -54.6628 	 63.0912 	 140.608
| 35> C 	 -55.173 	 61.0689 	 141.058
| 36> H 	 -54.7817 	 60.173 	 141.408
| 37> H 	 -55.5185 	 60.9056 	 140.036
| 38> H 	 -56.0412 	 61.5395 	 141.499
| 39> H 	 -48.0656 	 60.9417 	 140.33
| 40> H 	 -53.0351 	 66.9527 	 143.376
| 41> *
| 42>
| 43>                          ****END OF INPUT****

CARTESIAN COORDINATES (ANGSTROEM)
---------------------------------
  S    -49.528800   62.885400  140.443000
  C    -48.656800   61.525500  140.950000
  C    -49.017600   61.089000  142.178000
  C    -49.944100   61.968600  142.848000
  C    -50.340800   62.999700  142.012000
  H    -50.149100   61.935500  143.906000
  C    -48.303300   60.037600  143.029000
  H    -47.489500   59.534700  142.444000
  H    -48.983500   59.322500  143.354000
  C    -47.431900   60.784000  144.144000
  H    -46.726500   61.435500  143.727000
  H    -48.102600   61.457500  144.707000
  C    -46.678800   59.883900  145.101000
  H    -46.824100   58.913800  144.744000
  H    -45.625300   60.144300  145.116000
  H    -47.092000   59.859600  146.112000
  S    -50.872100   65.634900  142.815000
  C    -52.564300   66.033100  143.055000
  C    -53.423500   65.018900  142.719000
  C    -52.722200   63.792000  142.388000
  C    -51.396500   63.982400  142.309000
  H    -54.522300   65.168400  142.804000
  C    -53.508400   62.507700  142.426000
  H    -54.244000   62.491000  143.249000
  H    -52.770900   61.626800  142.700000
  C    -54.135900   62.224500  141.029000
  H    -53.213800   61.907300  140.455000
  H    -54.662800   63.091200  140.608000
  C    -55.173000   61.068900  141.058000
  H    -54.781700   60.173000  141.408000
  H    -55.518500   60.905600  140.036000
  H    -56.041200   61.539500  141.499000
  H    -48.065600   60.941700  140.330000
  H    -53.035100   66.952700  143.376000

 Total Charge           Charge          ....    0
 Multiplicity           Mult            ....    1
 Number of Electrons    NEL             ....  134
 Basis Dimension        Dim             ....  322

ORBITAL ENERGIES
----------------

  NO   OCC          E(Eh)            E(eV)
   0   2.0000     -88.965182     -2420.8657
   1   2.0000     -88.964615     -2420.8502
   2   2.0000     -10.328719      -281.0587
   3   2.0000     -10.323773      -280.9241
   4   2.0000     -10.315126      -280.6889
   5   2.0000     -10.302376      -280.3419
   6   2.0000     -10.299956      -280.2761
   7   2.0000     -10.299056      -280.2516
   8   2.0000     -10.295022      -280.1418
   9   2.0000     -10.294867      -280.1376
  10   2.0000     -10.293833      -280.1094
  11   2.0000     -10.293434      -280.0986
  12   2.0000     -10.289629      -279.9950
  13   2.0000     -10.282661      -279.8054
  14   2.0000     -10.270911      -279.4857
  15   2.0000     -10.269753      -279.4542
  16   2.0000      -8.080686      -219.8866
  17   2.0000      -8.078544      -219.8283
  18   2.0000      -6.039120      -164.3328
  19   2.0000      -6.037240      -164.2816
  20   2.0000      -6.035052      -164.2221
  21   2.0000      -6.033404      -164.1773
  22   2.0000      -6.031504      -164.1256
  23   2.0000      -6.028906      -164.0549
  24   2.0000      -1.005943       -27.3731
  25   2.0000      -0.984700       -26.7950
  26   2.0000      -0.906768       -24.6744
  27   2.0000      -0.902710       -24.5640
  28   2.0000      -0.869767       -23.6676
  29   2.0000      -0.851998       -23.1840
  30   2.0000      -0.847733       -23.0680
  31   2.0000      -0.814046       -22.1513
  32   2.0000      -0.780475       -21.2378
  33   2.0000      -0.770333       -20.9618
  34   2.0000      -0.706961       -19.2374
  35   2.0000      -0.698715       -19.0130
  36   2.0000      -0.684910       -18.6374
  37   2.0000      -0.657511       -17.8918
  38   2.0000      -0.646951       -17.6044
  39   2.0000      -0.618405       -16.8276
  40   2.0000      -0.591274       -16.0894
  41   2.0000      -0.570136       -15.5142
  42   2.0000      -0.566473       -15.4145
  43   2.0000      -0.557728       -15.1765
  44   2.0000      -0.534564       -14.5462
  45   2.0000      -0.518467       -14.1082
  46   2.0000      -0.516175       -14.0458
  47   2.0000      -0.510464       -13.8904
  48   2.0000      -0.503499       -13.7009
  49   2.0000      -0.499906       -13.6031
  50   2.0000      -0.493036       -13.4162
  51   2.0000      -0.475800       -12.9472
  52   2.0000      -0.475176       -12.9302
  53   2.0000      -0.464138       -12.6299
  54   2.0000      -0.453663       -12.3448
  55   2.0000      -0.451942       -12.2980
  56   2.0000      -0.445560       -12.1243
  57   2.0000      -0.439061       -11.9475
  58   2.0000      -0.426272       -11.5994
  59   2.0000      -0.424319       -11.5463
  60   2.0000      -0.417959       -11.3732
  61   2.0000      -0.409339       -11.1387
  62   2.0000      -0.407056       -11.0766
  63   2.0000      -0.336067        -9.1449
  64   2.0000      -0.327448        -8.9103
  65   2.0000      -0.325612        -8.8604
  66   2.0000      -0.308531        -8.3955
  67   0.0000       0.047930         1.3042
  68   0.0000       0.059378         1.6157
  69   0.0000       0.109809         2.9880
  70   0.0000       0.123123         3.3504
  71   0.0000       0.127794         3.4774

MULLIKEN ATOMIC CHARGES
-----------------------
   0 S :    0.120946
   1 C :   -0.076858
   2 C :   -0.095833
   3 C :    0.036685
   4 C :   -0.168716
   5 H :    0.026115
   6 C :    0.064625
   7 H :    0.025006
   8 H :    0.025773
   9 C :   -0.103451
  10 H :    0.020215
  11 H :    0.022775
  12 C :   -0.002113
  13 H :    0.007042
  14 H :    0.038251
  15 H :    0.033239
  16 S :    0.105338
  17 C :   -0.073271
  18 C :   -0.060238
  19 C :    0.026621
  20 C :   -0.199005
  21 H :    0.033101
  22 C :    0.015588
  23 H :    0.032613
  24 H :    0.040976
  25 C :   -0.136661
  26 H :    0.046624
  27 H :    0.038520
  28 C :    0.013600
  29 H :    0.026567
  30 H :    0.022960
  31 H :    0.025473
  32 H :    0.020272
  33 H :    0.047220
Sum of atomic charges:    0.0000000

LOEWDIN ATOMIC CHARGES
----------------------
   0 S :    0.420877
   1 C :   -0.202667
   2 C :   -0.068053
   3 C :   -0.053554
   4 C :   -0.190603
   5 H :    0.032760
   6 C :   -0.024403
   7 H :    0.031900
   8 H :    0.018866
   9 C :   -0.035415
  10 H :    0.019999
  11 H :    0.020615
  12 C :   -0.063307
  13 H :    0.017211
  14 H :    0.029450
  15 H :    0.029413
  16 S :    0.372502
  17 C :   -0.180899
  18 C :   -0.073783
  19 C :   -0.050844
  20 C :   -0.187661
  21 H :    0.037243
  22 C :   -0.038859
  23 H :    0.026469
  24 H :    0.040537
  25 C :   -0.041337
  26 H :    0.032067
  27 H :    0.024102
  28 C :   -0.059365
  29 H :    0.015506
  30 H :    0.027571
  31 H :    0.026468
  32 H :    0.016370
  33 H :    0.030825

  Mayer bond orders larger than 0.100000
B(  0-S ,  1-C ) :   1.1407 B(  0-S ,  4-C ) :   1.1545 B(  1-C ,  2-C ) :   1.6427
B(  1-C , 32-H ) :   0.9671 B(  2-C ,  3-C ) :   1.2190 B(  2-C ,  6-C ) :   1.0350
B(  3-C ,  4-C ) :   1.5979 B(  3-C ,  5-H ) :   0.9915 B(  4-C , 20-C ) :   1.0040
B(  6-C ,  7-H ) :   0.9469 B(  6-C ,  8-H ) :   0.9398 B(  6-C ,  9-C ) :   1.0537
B(  9-C , 10-H ) :   0.9639 B(  9-C , 11-H ) :   0.9618 B(  9-C , 12-C ) :   1.0673
B( 12-C , 13-H ) :   0.9746 B( 12-C , 14-H ) :   0.9789 B( 12-C , 15-H ) :   0.9739
B( 16-S , 17-C ) :   1.1259 B( 16-S , 20-C ) :   1.1039 B( 17-C , 18-C ) :   1.6935
B( 17-C , 33-H ) :   0.9607 B( 18-C , 19-C ) :   1.1734 B( 18-C , 21-H ) :   0.9775
B( 19-C , 20-C ) :   1.6952 B( 19-C , 22-C ) :   1.0297 B( 22-C , 23-H ) :   0.9489
B( 22-C , 24-H ) :   0.9357 B( 22-C , 25-C ) :   1.0383 B( 25-C , 26-H ) :   0.9559
B( 25-C , 27-H ) :   0.9657 B( 25-C , 28-C ) :   1.0838 B( 28-C , 29-H ) :   0.9736
B( 28-C , 30-H ) :   0.9722 B( 28-C , 31-H ) :   0.9745

Dispersion correction           -0.014175771
FINAL SINGLE POINT ENERGY     -1339.856415609046

DIPOLE MOMENT
-------------
                                X             Y             Z
Electronic contribution:      3.69293      20.86136      -8.14415
Nuclear contribution   :     -3.92720     -21.32345       8.45781
                        -----------------------------------------
Total Dipole Moment    :     -0.23427      -0.46209       0.31367
                        -----------------------------------------
Magnitude (a.u.)       :      0.60564
Magnitude (Debye)      :      1.53941

Rotational constants in cm-1:     0.017631     0.008087     0.006978
Rotational constants in MHz :   528.571016   242.455919   209.188218

                             ****ORCA TERMINATED NORMALLY****
TOTAL RUN TIME: 0 days 0 hours 0 minutes 34 seconds 671 msec
