                         Program Version 4.2.1 -  RELEASE  -
|  1> ! wB97X-D3 SP def2-SVP
|  2> %pal
|  3> nprocs 16
|  4> end
|  5>
|  6> * xyz 0 1
|  7> S 	 6.77662 	 -13.9067 	 60.016
|  8> C 	 7.22214 	 -12.2542 	 60.6134
|  9> C 	 6.44544 	 -11.9591 	 61.6935
| 10> C 	 5.67014 	 -13.0483 	 62.1172
| 11> C 	 5.55949 	 -14.1127 	 61.2746
| 12> H 	 4.99944 	 -13.0197 	 62.9602
| 13> C 	 6.4612 	 -10.6613 	 62.4179
| 14> H 	 5.8505 	 -10.8126 	 63.2977
| 15> H 	 6.06221 	 -9.83231 	 61.85
| 16> C 	 7.87147 	 -10.3341 	 62.9622
| 17> H 	 8.53402 	 -10.0888 	 62.1328
| 18> H 	 7.89859 	 -9.44323 	 63.6008
| 19> C 	 8.58316 	 -11.3554 	 63.8976
| 20> H 	 8.96704 	 -12.2525 	 63.4628
| 21> H 	 9.41746 	 -10.8797 	 64.4496
| 22> H 	 7.77979 	 -11.6189 	 64.6756
| 23> S 	 5.87066 	 -16.7221 	 61.9516
| 24> C 	 4.50827 	 -17.7746 	 62.0198
| 25> C 	 3.28718 	 -17.0767 	 62.0728
| 26> C 	 3.48234 	 -15.6438 	 61.7284
| 27> C 	 4.8352 	 -15.3408 	 61.5524
| 28> H 	 2.41453 	 -17.6284 	 62.3269
| 29> C 	 2.23999 	 -14.7592 	 61.4588
| 30> H 	 2.1679 	 -14.0646 	 62.2831
| 31> H 	 1.32849 	 -15.3581 	 61.4881
| 32> C 	 2.22547 	 -14.149 	 60.0786
| 33> H 	 2.0453 	 -14.9559 	 59.2975
| 34> H 	 3.18198 	 -13.6789 	 59.8246
| 35> C 	 1.26049 	 -13.0256 	 59.8243
| 36> H 	 0.224383 	 -13.3214 	 59.9641
| 37> H 	 1.40793 	 -12.6792 	 58.8021
| 38> H 	 1.45595 	 -12.1524 	 60.5048
| 39> H 	 7.86041 	 -11.4829 	 60.1727
| 40> H 	 4.46337 	 -18.8778 	 62.1295
| 41> *
| 42>
| 43>                          ****END OF INPUT****

CARTESIAN COORDINATES (ANGSTROEM)
---------------------------------
  S      6.776620  -13.906700   60.016000
  C      7.222140  -12.254200   60.613400
  C      6.445440  -11.959100   61.693500
  C      5.670140  -13.048300   62.117200
  C      5.559490  -14.112700   61.274600
  H      4.999440  -13.019700   62.960200
  C      6.461200  -10.661300   62.417900
  H      5.850500  -10.812600   63.297700
  H      6.062210   -9.832310   61.850000
  C      7.871470  -10.334100   62.962200
  H      8.534020  -10.088800   62.132800
  H      7.898590   -9.443230   63.600800
  C      8.583160  -11.355400   63.897600
  H      8.967040  -12.252500   63.462800
  H      9.417460  -10.879700   64.449600
  H      7.779790  -11.618900   64.675600
  S      5.870660  -16.722100   61.951600
  C      4.508270  -17.774600   62.019800
  C      3.287180  -17.076700   62.072800
  C      3.482340  -15.643800   61.728400
  C      4.835200  -15.340800   61.552400
  H      2.414530  -17.628400   62.326900
  C      2.239990  -14.759200   61.458800
  H      2.167900  -14.064600   62.283100
  H      1.328490  -15.358100   61.488100
  C      2.225470  -14.149000   60.078600
  H      2.045300  -14.955900   59.297500
  H      3.181980  -13.678900   59.824600
  C      1.260490  -13.025600   59.824300
  H      0.224383  -13.321400   59.964100
  H      1.407930  -12.679200   58.802100
  H      1.455950  -12.152400   60.504800
  H      7.860410  -11.482900   60.172700
  H      4.463370  -18.877800   62.129500

 Total Charge           Charge          ....    0
 Multiplicity           Mult            ....    1
 Number of Electrons    NEL             ....  134
 Basis Dimension        Dim             ....  322

ORBITAL ENERGIES
----------------

  NO   OCC          E(Eh)            E(eV)
   0   2.0000     -88.966554     -2420.9030
   1   2.0000     -88.965783     -2420.8820
   2   2.0000     -10.329645      -281.0839
   3   2.0000     -10.328609      -281.0557
   4   2.0000     -10.319488      -280.8075
   5   2.0000     -10.317844      -280.7628
   6   2.0000     -10.315287      -280.6932
   7   2.0000     -10.297371      -280.2057
   8   2.0000     -10.294383      -280.1244
   9   2.0000     -10.293273      -280.0942
  10   2.0000     -10.292014      -280.0599
  11   2.0000     -10.289426      -279.9895
  12   2.0000     -10.287698      -279.9425
  13   2.0000     -10.282738      -279.8075
  14   2.0000     -10.282283      -279.7951
  15   2.0000     -10.275519      -279.6111
  16   2.0000      -8.080586      -219.8839
  17   2.0000      -8.079900      -219.8653
  18   2.0000      -6.039216      -164.3354
  19   2.0000      -6.038587      -164.3183
  20   2.0000      -6.035128      -164.2242
  21   2.0000      -6.034548      -164.2084
  22   2.0000      -6.031153      -164.1160
  23   2.0000      -6.030561      -164.0999
  24   2.0000      -1.005072       -27.3494
  25   2.0000      -0.980983       -26.6939
  26   2.0000      -0.913390       -24.8546
  27   2.0000      -0.909642       -24.7526
  28   2.0000      -0.865811       -23.5599
  29   2.0000      -0.848811       -23.0973
  30   2.0000      -0.841993       -22.9118
  31   2.0000      -0.812977       -22.1222
  32   2.0000      -0.784733       -21.3537
  33   2.0000      -0.774888       -21.0858
  34   2.0000      -0.708688       -19.2844
  35   2.0000      -0.698816       -19.0157
  36   2.0000      -0.684038       -18.6136
  37   2.0000      -0.657728       -17.8977
  38   2.0000      -0.635724       -17.2989
  39   2.0000      -0.614806       -16.7297
  40   2.0000      -0.589204       -16.0331
  41   2.0000      -0.576056       -15.6753
  42   2.0000      -0.566825       -15.4241
  43   2.0000      -0.555576       -15.1180
  44   2.0000      -0.544417       -14.8143
  45   2.0000      -0.525772       -14.3070
  46   2.0000      -0.514587       -14.0026
  47   2.0000      -0.507220       -13.8022
  48   2.0000      -0.502795       -13.6817
  49   2.0000      -0.496682       -13.5154
  50   2.0000      -0.491173       -13.3655
  51   2.0000      -0.487063       -13.2537
  52   2.0000      -0.469226       -12.7683
  53   2.0000      -0.464565       -12.6415
  54   2.0000      -0.458569       -12.4783
  55   2.0000      -0.445486       -12.1223
  56   2.0000      -0.440205       -11.9786
  57   2.0000      -0.432419       -11.7667
  58   2.0000      -0.427890       -11.6435
  59   2.0000      -0.419777       -11.4227
  60   2.0000      -0.418161       -11.3787
  61   2.0000      -0.412744       -11.2313
  62   2.0000      -0.410308       -11.1650
  63   2.0000      -0.336678        -9.1615
  64   2.0000      -0.331625        -9.0240
  65   2.0000      -0.324135        -8.8202
  66   2.0000      -0.302966        -8.2441
  67   0.0000       0.029273         0.7966
  68   0.0000       0.062029         1.6879
  69   0.0000       0.108564         2.9542
  70   0.0000       0.114434         3.1139
  71   0.0000       0.132378         3.6022

MULLIKEN ATOMIC CHARGES
-----------------------
   0 S :    0.098980
   1 C :   -0.124360
   2 C :   -0.088553
   3 C :    0.041625
   4 C :   -0.167242
   5 H :    0.005024
   6 C :    0.122791
   7 H :    0.009256
   8 H :    0.044350
   9 C :   -0.111877
  10 H :    0.023204
  11 H :    0.029394
  12 C :   -0.072541
  13 H :    0.043604
  14 H :    0.040328
  15 H :    0.030821
  16 S :    0.123020
  17 C :   -0.096761
  18 C :   -0.052720
  19 C :   -0.023044
  20 C :   -0.177841
  21 H :    0.014306
  22 C :    0.118249
  23 H :    0.026093
  24 H :    0.015655
  25 C :   -0.114742
  26 H :    0.039750
  27 H :    0.038817
  28 C :   -0.047218
  29 H :    0.023645
  30 H :    0.036239
  31 H :    0.032067
  32 H :    0.052371
  33 H :    0.067313
Sum of atomic charges:    0.0000000

LOEWDIN ATOMIC CHARGES
----------------------
   0 S :    0.378602
   1 C :   -0.176231
   2 C :   -0.070335
   3 C :   -0.059736
   4 C :   -0.198406
   5 H :    0.028024
   6 C :   -0.026887
   7 H :    0.027840
   8 H :    0.036684
   9 C :   -0.044725
  10 H :    0.016221
  11 H :    0.025829
  12 C :   -0.068553
  13 H :    0.019254
  14 H :    0.030274
  15 H :    0.031324
  16 S :    0.412501
  17 C :   -0.198588
  18 C :   -0.072221
  19 C :   -0.041313
  20 C :   -0.197651
  21 H :    0.026234
  22 C :   -0.029129
  23 H :    0.028698
  24 H :    0.031398
  25 C :   -0.050000
  26 H :    0.032957
  27 H :    0.025888
  28 C :   -0.066205
  29 H :    0.017527
  30 H :    0.029104
  31 H :    0.027853
  32 H :    0.035564
  33 H :    0.038204

  Mayer bond orders larger than 0.100000
B(  0-S ,  1-C ) :   1.1260 B(  0-S ,  4-C ) :   1.1286 B(  1-C ,  2-C ) :   1.6131
B(  1-C , 32-H ) :   0.9657 B(  2-C ,  3-C ) :   1.2483 B(  2-C ,  6-C ) :   1.0197
B(  3-C ,  4-C ) :   1.5983 B(  3-C ,  5-H ) :   0.9861 B(  4-C , 20-C ) :   1.0361
B(  6-C ,  7-H ) :   0.9356 B(  6-C ,  8-H ) :   0.9352 B(  6-C ,  9-C ) :   1.0755
B(  9-C , 10-H ) :   0.9554 B(  9-C , 11-H ) :   0.9606 B(  9-C , 12-C ) :   1.0653
B( 12-C , 13-H ) :   0.9761 B( 12-C , 14-H ) :   0.9771 B( 12-C , 15-H ) :   0.9753
B( 16-S , 17-C ) :   1.1541 B( 16-S , 20-C ) :   1.1372 B( 17-C , 18-C ) :   1.6397
B( 17-C , 33-H ) :   0.9603 B( 18-C , 19-C ) :   1.2105 B( 18-C , 21-H ) :   0.9918
B( 19-C , 20-C ) :   1.6173 B( 19-C , 22-C ) :   1.0321 B( 22-C , 23-H ) :   0.9290
B( 22-C , 24-H ) :   0.9379 B( 22-C , 25-C ) :   1.0644 B( 25-C , 26-H ) :   0.9519
B( 25-C , 27-H ) :   0.9573 B( 25-C , 28-C ) :   1.0922 B( 28-C , 29-H ) :   0.9738
B( 28-C , 30-H ) :   0.9724 B( 28-C , 31-H ) :   0.9731

Dispersion correction           -0.014517339
FINAL SINGLE POINT ENERGY     -1339.868967144189

DIPOLE MOMENT
-------------
                                X             Y             Z
Electronic contribution:      8.53133     -18.97591      -5.18260
Nuclear contribution   :     -8.92963      19.38392       5.48219
                        -----------------------------------------
Total Dipole Moment    :     -0.39830       0.40802       0.29959
                        -----------------------------------------
Magnitude (a.u.)       :      0.64411
Magnitude (Debye)      :      1.63719

Rotational constants in cm-1:     0.018585     0.008812     0.007191
Rotational constants in MHz :   557.157973   264.177139   215.594220

                             ****ORCA TERMINATED NORMALLY****
TOTAL RUN TIME: 0 days 0 hours 0 minutes 30 seconds 545 msec
