                         Program Version 4.2.1 -  RELEASE  -
|  1> ! wB97X-D3 SP def2-SVP
|  2> %pal
|  3> nprocs 16
|  4> end
|  5>
|  6> * xyz 0 1
|  7> S 	 4.44709 	 11.0872 	 80.4636
|  8> C 	 6.10576 	 10.9419 	 79.8849
|  9> C 	 6.88384 	 11.9341 	 80.5159
| 10> C 	 6.13239 	 12.6587 	 81.4735
| 11> C 	 4.85171 	 12.2357 	 81.7089
| 12> H 	 6.58618 	 13.3867 	 82.1057
| 13> C 	 8.37532 	 12.1295 	 80.2718
| 14> H 	 8.87663 	 11.2287 	 79.8552
| 15> H 	 8.8418 	 12.2701 	 81.2032
| 16> C 	 8.73979 	 13.4865 	 79.4288
| 17> H 	 8.27194 	 13.3981 	 78.4011
| 18> H 	 8.22541 	 14.2333 	 79.9587
| 19> C 	 10.2447 	 13.734 	 79.3145
| 20> H 	 10.8313 	 12.8369 	 79.0511
| 21> H 	 10.5213 	 14.3183 	 78.4564
| 22> H 	 10.6054 	 14.3129 	 80.1346
| 23> S 	 2.35524 	 13.2286 	 82.0777
| 24> C 	 1.97221 	 13.9978 	 83.5654
| 25> C 	 2.80193 	 13.6934 	 84.5745
| 26> C 	 3.94421 	 12.9882 	 84.088
| 27> C 	 3.91724 	 12.7299 	 82.7378
| 28> H 	 2.60614 	 13.9931 	 85.5957
| 29> C 	 4.94246 	 12.3721 	 85.1204
| 30> H 	 5.63964 	 11.6886 	 84.5883
| 31> H 	 4.36595 	 11.651 	 85.7353
| 32> C 	 5.74288 	 13.3516 	 86.0407
| 33> H 	 6.34477 	 12.7775 	 86.791
| 34> H 	 5.16723 	 14.0528 	 86.6313
| 35> C 	 6.63035 	 14.3914 	 85.2355
| 36> H 	 7.58911 	 13.9887 	 84.9755
| 37> H 	 6.84109 	 15.2848 	 85.7301
| 38> H 	 6.25474 	 14.7085 	 84.2331
| 39> H 	 6.32108 	 10.2807 	 79.0599
| 40> H 	 1.13314 	 14.6687 	 83.5639
| 41> *
| 42>
| 43>                          ****END OF INPUT****

CARTESIAN COORDINATES (ANGSTROEM)
---------------------------------
  S      4.447090   11.087200   80.463600
  C      6.105760   10.941900   79.884900
  C      6.883840   11.934100   80.515900
  C      6.132390   12.658700   81.473500
  C      4.851710   12.235700   81.708900
  H      6.586180   13.386700   82.105700
  C      8.375320   12.129500   80.271800
  H      8.876630   11.228700   79.855200
  H      8.841800   12.270100   81.203200
  C      8.739790   13.486500   79.428800
  H      8.271940   13.398100   78.401100
  H      8.225410   14.233300   79.958700
  C     10.244700   13.734000   79.314500
  H     10.831300   12.836900   79.051100
  H     10.521300   14.318300   78.456400
  H     10.605400   14.312900   80.134600
  S      2.355240   13.228600   82.077700
  C      1.972210   13.997800   83.565400
  C      2.801930   13.693400   84.574500
  C      3.944210   12.988200   84.088000
  C      3.917240   12.729900   82.737800
  H      2.606140   13.993100   85.595700
  C      4.942460   12.372100   85.120400
  H      5.639640   11.688600   84.588300
  H      4.365950   11.651000   85.735300
  C      5.742880   13.351600   86.040700
  H      6.344770   12.777500   86.791000
  H      5.167230   14.052800   86.631300
  C      6.630350   14.391400   85.235500
  H      7.589110   13.988700   84.975500
  H      6.841090   15.284800   85.730100
  H      6.254740   14.708500   84.233100
  H      6.321080   10.280700   79.059900
  H      1.133140   14.668700   83.563900

 Total Charge           Charge          ....    0
 Multiplicity           Mult            ....    1
 Number of Electrons    NEL             ....  134
 Basis Dimension        Dim             ....  322

ORBITAL ENERGIES
----------------

  NO   OCC          E(Eh)            E(eV)
   0   2.0000     -88.962080     -2420.7813
   1   2.0000     -88.960552     -2420.7397
   2   2.0000     -10.330786      -281.1150
   3   2.0000     -10.330365      -281.1035
   4   2.0000     -10.317352      -280.7494
   5   2.0000     -10.312970      -280.6302
   6   2.0000     -10.309150      -280.5262
   7   2.0000     -10.304489      -280.3994
   8   2.0000     -10.302937      -280.3572
   9   2.0000     -10.298151      -280.2269
  10   2.0000     -10.294224      -280.1201
  11   2.0000     -10.292375      -280.0698
  12   2.0000     -10.291686      -280.0510
  13   2.0000     -10.288016      -279.9512
  14   2.0000     -10.276612      -279.6408
  15   2.0000     -10.273817      -279.5648
  16   2.0000      -8.077007      -219.7865
  17   2.0000      -8.076581      -219.7749
  18   2.0000      -6.035482      -164.2338
  19   2.0000      -6.034925      -164.2186
  20   2.0000      -6.031461      -164.1244
  21   2.0000      -6.031096      -164.1145
  22   2.0000      -6.027811      -164.0251
  23   2.0000      -6.027241      -164.0096
  24   2.0000      -1.010024       -27.4842
  25   2.0000      -0.987718       -26.8772
  26   2.0000      -0.900458       -24.5027
  27   2.0000      -0.897209       -24.4143
  28   2.0000      -0.869317       -23.6553
  29   2.0000      -0.848319       -23.0839
  30   2.0000      -0.844405       -22.9774
  31   2.0000      -0.817345       -22.2411
  32   2.0000      -0.783299       -21.3147
  33   2.0000      -0.772987       -21.0340
  34   2.0000      -0.709387       -19.3034
  35   2.0000      -0.701508       -19.0890
  36   2.0000      -0.693803       -18.8793
  37   2.0000      -0.662604       -18.0304
  38   2.0000      -0.644704       -17.5433
  39   2.0000      -0.622515       -16.9395
  40   2.0000      -0.600687       -16.3455
  41   2.0000      -0.565700       -15.3935
  42   2.0000      -0.560893       -15.2627
  43   2.0000      -0.545828       -14.8527
  44   2.0000      -0.534171       -14.5355
  45   2.0000      -0.521453       -14.1895
  46   2.0000      -0.516376       -14.0513
  47   2.0000      -0.510781       -13.8991
  48   2.0000      -0.503394       -13.6980
  49   2.0000      -0.499843       -13.6014
  50   2.0000      -0.487675       -13.2703
  51   2.0000      -0.481510       -13.1025
  52   2.0000      -0.470593       -12.8055
  53   2.0000      -0.462843       -12.5946
  54   2.0000      -0.457912       -12.4604
  55   2.0000      -0.452670       -12.3178
  56   2.0000      -0.448451       -12.2030
  57   2.0000      -0.443857       -12.0780
  58   2.0000      -0.433075       -11.7846
  59   2.0000      -0.422835       -11.5059
  60   2.0000      -0.418168       -11.3789
  61   2.0000      -0.411425       -11.1954
  62   2.0000      -0.407925       -11.1002
  63   2.0000      -0.350347        -9.5334
  64   2.0000      -0.332176        -9.0390
  65   2.0000      -0.326726        -8.8907
  66   2.0000      -0.291355        -7.9282
  67   0.0000       0.032598         0.8870
  68   0.0000       0.064405         1.7526
  69   0.0000       0.105728         2.8770
  70   0.0000       0.123065         3.3488
  71   0.0000       0.130820         3.5598

MULLIKEN ATOMIC CHARGES
-----------------------
   0 S :    0.089689
   1 C :   -0.129805
   2 C :   -0.075330
   3 C :    0.044700
   4 C :   -0.119364
   5 H :   -0.014128
   6 C :    0.051985
   7 H :    0.028706
   8 H :    0.013307
   9 C :   -0.083507
  10 H :    0.042065
  11 H :    0.021150
  12 C :   -0.027044
  13 H :    0.032082
  14 H :    0.020183
  15 H :    0.034233
  16 S :    0.087756
  17 C :   -0.082633
  18 C :   -0.009341
  19 C :   -0.037547
  20 C :   -0.152775
  21 H :    0.022260
  22 C :    0.039471
  23 H :    0.035465
  24 H :    0.043929
  25 C :   -0.068347
  26 H :    0.041659
  27 H :    0.027758
  28 C :   -0.061801
  29 H :    0.016435
  30 H :    0.017873
  31 H :    0.040803
  32 H :    0.055909
  33 H :    0.054205
Sum of atomic charges:   -0.0000000

LOEWDIN ATOMIC CHARGES
----------------------
   0 S :    0.396464
   1 C :   -0.189910
   2 C :   -0.062067
   3 C :   -0.067817
   4 C :   -0.194971
   5 H :    0.023483
   6 C :   -0.028923
   7 H :    0.031235
   8 H :    0.020728
   9 C :   -0.031814
  10 H :    0.030010
  11 H :    0.015526
  12 C :   -0.073621
  13 H :    0.031570
  14 H :    0.027358
  15 H :    0.024600
  16 S :    0.401256
  17 C :   -0.173017
  18 C :   -0.072763
  19 C :   -0.054929
  20 C :   -0.186052
  21 H :    0.035770
  22 C :   -0.030768
  23 H :    0.034129
  24 H :    0.037360
  25 C :   -0.041347
  26 H :    0.031987
  27 H :    0.020765
  28 C :   -0.070293
  29 H :    0.018456
  30 H :    0.016468
  31 H :    0.029725
  32 H :    0.027523
  33 H :    0.023876

  Mayer bond orders larger than 0.100000
B(  0-S ,  1-C ) :   1.1451 B(  0-S ,  4-C ) :   1.1556 B(  1-C ,  2-C ) :   1.5653
B(  1-C ,  4-C ) :   0.1057 B(  1-C , 32-H ) :   0.9781 B(  2-C ,  3-C ) :   1.2638
B(  2-C ,  6-C ) :   1.0313 B(  3-C ,  4-C ) :   1.5630 B(  3-C ,  5-H ) :   0.9989
B(  4-C , 20-C ) :   1.0124 B(  6-C ,  7-H ) :   0.9506 B(  6-C ,  8-H ) :   0.9416
B(  6-C ,  9-C ) :   1.0397 B(  9-C , 10-H ) :   0.9624 B(  9-C , 11-H ) :   0.9628
B(  9-C , 12-C ) :   1.0805 B( 12-C , 13-H ) :   0.9717 B( 12-C , 14-H ) :   0.9712
B( 12-C , 15-H ) :   0.9756 B( 16-S , 17-C ) :   1.1677 B( 16-S , 20-C ) :   1.1289
B( 17-C , 18-C ) :   1.6114 B( 17-C , 33-H ) :   0.9706 B( 18-C , 19-C ) :   1.2078
B( 18-C , 21-H ) :   1.0002 B( 19-C , 20-C ) :   1.6425 B( 19-C , 22-C ) :   1.0217
B( 22-C , 23-H ) :   0.9478 B( 22-C , 24-H ) :   0.9465 B( 22-C , 25-C ) :   1.0556
B( 25-C , 26-H ) :   0.9596 B( 25-C , 27-H ) :   0.9671 B( 25-C , 28-C ) :   1.0520
B( 28-C , 29-H ) :   0.9776 B( 28-C , 30-H ) :   0.9781 B( 28-C , 31-H ) :   0.9733

Dispersion correction           -0.014198937
FINAL SINGLE POINT ENERGY     -1339.864843216633

DIPOLE MOMENT
-------------
                                X             Y             Z
Electronic contribution:    -27.85625      -8.91014      -6.76890
Nuclear contribution   :     28.35826       9.19270       7.13910
                        -----------------------------------------
Total Dipole Moment    :      0.50202       0.28256       0.37021
                        -----------------------------------------
Magnitude (a.u.)       :      0.68477
Magnitude (Debye)      :      1.74055

Rotational constants in cm-1:     0.018017     0.008463     0.006551
Rotational constants in MHz :   540.122186   253.706476   196.397254

                             ****ORCA TERMINATED NORMALLY****
TOTAL RUN TIME: 0 days 0 hours 0 minutes 34 seconds 362 msec
