                         Program Version 4.2.1 -  RELEASE  -
|  1> ! wB97X-D3 SP def2-SVP
|  2> %pal
|  3> nprocs 16
|  4> end
|  5>
|  6> * xyz 0 1
|  7> S 	 11.4078 	 -9.76563 	 93.518
|  8> C 	 10.7951 	 -8.40304 	 94.4728
|  9> C 	 9.45704 	 -8.6131 	 94.806
| 10> C 	 8.93056 	 -9.79138 	 94.2186
| 11> C 	 9.87011 	 -10.6294 	 93.608
| 12> H 	 7.88942 	 -10.0906 	 94.1391
| 13> C 	 8.50636 	 -7.51312 	 95.3967
| 14> H 	 7.53803 	 -7.648 	 95.0202
| 15> H 	 8.81448 	 -6.61284 	 94.8946
| 16> C 	 8.45785 	 -7.31178 	 96.9261
| 17> H 	 7.77656 	 -6.5302 	 97.1572
| 18> H 	 8.05271 	 -8.19672 	 97.4539
| 19> C 	 9.8249 	 -6.99961 	 97.4479
| 20> H 	 10.412 	 -6.20882 	 96.9396
| 21> H 	 9.86153 	 -6.89258 	 98.5552
| 22> H 	 10.4436 	 -7.89797 	 97.266
| 23> S 	 10.1602 	 -11.7988 	 91.1865
| 24> C 	 9.81618 	 -13.5494 	 90.9294
| 25> C 	 8.86548 	 -13.9551 	 91.9149
| 26> C 	 8.71221 	 -12.9373 	 92.9538
| 27> C 	 9.57612 	 -11.8297 	 92.8229
| 28> H 	 8.50609 	 -14.8836 	 91.922
| 29> C 	 7.81138 	 -13.1468 	 94.122
| 30> H 	 8.03529 	 -12.426 	 94.9421
| 31> H 	 8.04319 	 -14.141 	 94.4496
| 32> C 	 6.28803 	 -13.0817 	 93.7744
| 33> H 	 5.9795 	 -13.3879 	 92.7305
| 34> H 	 5.96055 	 -12.0782 	 93.9033
| 35> C 	 5.39995 	 -13.8902 	 94.715
| 36> H 	 4.42925 	 -13.5033 	 94.5822
| 37> H 	 5.54896 	 -13.6429 	 95.7296
| 38> H 	 5.46128 	 -14.9601 	 94.5798
| 39> H 	 11.2947 	 -7.51374 	 94.7279
| 40> H 	 10.0916 	 -14.2806 	 90.1674
| 41> *
| 42>
| 43>                          ****END OF INPUT****

CARTESIAN COORDINATES (ANGSTROEM)
---------------------------------
  S     11.407800   -9.765630   93.518000
  C     10.795100   -8.403040   94.472800
  C      9.457040   -8.613100   94.806000
  C      8.930560   -9.791380   94.218600
  C      9.870110  -10.629400   93.608000
  H      7.889420  -10.090600   94.139100
  C      8.506360   -7.513120   95.396700
  H      7.538030   -7.648000   95.020200
  H      8.814480   -6.612840   94.894600
  C      8.457850   -7.311780   96.926100
  H      7.776560   -6.530200   97.157200
  H      8.052710   -8.196720   97.453900
  C      9.824900   -6.999610   97.447900
  H     10.412000   -6.208820   96.939600
  H      9.861530   -6.892580   98.555200
  H     10.443600   -7.897970   97.266000
  S     10.160200  -11.798800   91.186500
  C      9.816180  -13.549400   90.929400
  C      8.865480  -13.955100   91.914900
  C      8.712210  -12.937300   92.953800
  C      9.576120  -11.829700   92.822900
  H      8.506090  -14.883600   91.922000
  C      7.811380  -13.146800   94.122000
  H      8.035290  -12.426000   94.942100
  H      8.043190  -14.141000   94.449600
  C      6.288030  -13.081700   93.774400
  H      5.979500  -13.387900   92.730500
  H      5.960550  -12.078200   93.903300
  C      5.399950  -13.890200   94.715000
  H      4.429250  -13.503300   94.582200
  H      5.548960  -13.642900   95.729600
  H      5.461280  -14.960100   94.579800
  H     11.294700   -7.513740   94.727900
  H     10.091600  -14.280600   90.167400

 Total Charge           Charge          ....    0
 Multiplicity           Mult            ....    1
 Number of Electrons    NEL             ....  134
 Basis Dimension        Dim             ....  322

ORBITAL ENERGIES
----------------

  NO   OCC          E(Eh)            E(eV)
   0   2.0000     -88.972434     -2421.0630
   1   2.0000     -88.962959     -2420.8052
   2   2.0000     -10.334999      -281.2296
   3   2.0000     -10.328540      -281.0539
   4   2.0000     -10.325379      -280.9679
   5   2.0000     -10.319680      -280.8128
   6   2.0000     -10.307635      -280.4850
   7   2.0000     -10.307225      -280.4738
   8   2.0000     -10.298076      -280.2249
   9   2.0000     -10.294010      -280.1143
  10   2.0000     -10.291818      -280.0546
  11   2.0000     -10.290273      -280.0126
  12   2.0000     -10.289123      -279.9813
  13   2.0000     -10.286750      -279.9167
  14   2.0000     -10.278497      -279.6921
  15   2.0000     -10.268687      -279.4252
  16   2.0000      -8.086016      -220.0317
  17   2.0000      -8.076964      -219.7854
  18   2.0000      -6.044592      -164.4817
  19   2.0000      -6.040591      -164.3728
  20   2.0000      -6.036816      -164.2701
  21   2.0000      -6.035770      -164.2416
  22   2.0000      -6.031706      -164.1311
  23   2.0000      -6.027275      -164.0105
  24   2.0000      -1.002339       -27.2750
  25   2.0000      -0.977118       -26.5887
  26   2.0000      -0.912871       -24.8405
  27   2.0000      -0.907111       -24.6837
  28   2.0000      -0.868664       -23.6376
  29   2.0000      -0.852723       -23.2038
  30   2.0000      -0.845852       -23.0168
  31   2.0000      -0.815152       -22.1814
  32   2.0000      -0.783802       -21.3283
  33   2.0000      -0.769928       -20.9508
  34   2.0000      -0.709444       -19.3050
  35   2.0000      -0.700318       -19.0566
  36   2.0000      -0.695244       -18.9186
  37   2.0000      -0.668274       -18.1846
  38   2.0000      -0.644416       -17.5355
  39   2.0000      -0.617764       -16.8102
  40   2.0000      -0.586106       -15.9487
  41   2.0000      -0.574718       -15.6389
  42   2.0000      -0.567778       -15.4500
  43   2.0000      -0.550934       -14.9917
  44   2.0000      -0.546898       -14.8819
  45   2.0000      -0.526527       -14.3275
  46   2.0000      -0.522095       -14.2069
  47   2.0000      -0.515212       -14.0196
  48   2.0000      -0.510554       -13.8929
  49   2.0000      -0.507555       -13.8113
  50   2.0000      -0.488475       -13.2921
  51   2.0000      -0.477996       -13.0069
  52   2.0000      -0.470368       -12.7994
  53   2.0000      -0.461625       -12.5614
  54   2.0000      -0.453052       -12.3282
  55   2.0000      -0.447385       -12.1740
  56   2.0000      -0.445033       -12.1100
  57   2.0000      -0.434833       -11.8324
  58   2.0000      -0.433209       -11.7882
  59   2.0000      -0.428102       -11.6492
  60   2.0000      -0.426096       -11.5947
  61   2.0000      -0.414220       -11.2715
  62   2.0000      -0.410625       -11.1737
  63   2.0000      -0.346380        -9.4255
  64   2.0000      -0.334317        -9.0972
  65   2.0000      -0.320978        -8.7343
  66   2.0000      -0.287283        -7.8174
  67   0.0000       0.014835         0.4037
  68   0.0000       0.069253         1.8845
  69   0.0000       0.096134         2.6159
  70   0.0000       0.121223         3.2986
  71   0.0000       0.129880         3.5342

MULLIKEN ATOMIC CHARGES
-----------------------
   0 S :    0.120105
   1 C :   -0.099604
   2 C :   -0.080305
   3 C :    0.010796
   4 C :   -0.146918
   5 H :    0.019082
   6 C :    0.066083
   7 H :    0.006406
   8 H :    0.023441
   9 C :   -0.021452
  10 H :    0.023384
  11 H :    0.031893
  12 C :   -0.089716
  13 H :    0.030441
  14 H :    0.039534
  15 H :    0.035884
  16 S :    0.092314
  17 C :   -0.094067
  18 C :    0.012515
  19 C :   -0.039562
  20 C :   -0.140969
  21 H :   -0.028267
  22 C :    0.057862
  23 H :    0.036219
  24 H :    0.019178
  25 C :   -0.090140
  26 H :    0.041795
  27 H :    0.016680
  28 C :   -0.013742
  29 H :    0.013515
  30 H :    0.010101
  31 H :    0.038885
  32 H :    0.034933
  33 H :    0.063698
Sum of atomic charges:   -0.0000000

LOEWDIN ATOMIC CHARGES
----------------------
   0 S :    0.406736
   1 C :   -0.180095
   2 C :   -0.062469
   3 C :   -0.059283
   4 C :   -0.198631
   5 H :    0.031580
   6 C :   -0.020999
   7 H :    0.021707
   8 H :    0.029967
   9 C :   -0.038092
  10 H :    0.019512
  11 H :    0.030133
  12 C :   -0.078249
  13 H :    0.023471
  14 H :    0.029336
  15 H :    0.028803
  16 S :    0.387547
  17 C :   -0.174124
  18 C :   -0.049002
  19 C :   -0.052045
  20 C :   -0.202362
  21 H :    0.006534
  22 C :   -0.036054
  23 H :    0.035463
  24 H :    0.026356
  25 C :   -0.036396
  26 H :    0.030980
  27 H :    0.017303
  28 C :   -0.060053
  29 H :    0.023637
  30 H :    0.018598
  31 H :    0.023293
  32 H :    0.020894
  33 H :    0.036007

  Mayer bond orders larger than 0.100000
B(  0-S ,  1-C ) :   1.1499 B(  0-S ,  4-C ) :   1.1485 B(  1-C ,  2-C ) :   1.5782
B(  1-C ,  4-C ) :   0.1029 B(  1-C , 32-H ) :   0.9743 B(  2-C ,  3-C ) :   1.2724
B(  2-C ,  6-C ) :   0.9946 B(  3-C ,  4-C ) :   1.5420 B(  3-C ,  5-H ) :   0.9880
B(  4-C , 20-C ) :   1.0609 B(  6-C ,  7-H ) :   0.9473 B(  6-C ,  8-H ) :   0.9491
B(  6-C ,  9-C ) :   1.0722 B(  9-C , 10-H ) :   0.9539 B(  9-C , 11-H ) :   0.9518
B(  9-C , 12-C ) :   1.0824 B( 12-C , 13-H ) :   0.9751 B( 12-C , 14-H ) :   0.9711
B( 12-C , 15-H ) :   0.9670 B( 16-S , 17-C ) :   1.1339 B( 16-S , 20-C ) :   1.1318
B( 17-C , 18-C ) :   1.6123 B( 17-C , 20-C ) :   0.1007 B( 17-C , 33-H ) :   0.9687
B( 18-C , 19-C ) :   1.2186 B( 18-C , 21-H ) :   1.0057 B( 19-C , 20-C ) :   1.5804
B( 19-C , 22-C ) :   1.0593 B( 22-C , 23-H ) :   0.9349 B( 22-C , 24-H ) :   0.9424
B( 22-C , 25-C ) :   1.0378 B( 25-C , 26-H ) :   0.9636 B( 25-C , 27-H ) :   0.9561
B( 25-C , 28-C ) :   1.0899 B( 28-C , 29-H ) :   0.9698 B( 28-C , 30-H ) :   0.9690
B( 28-C , 31-H ) :   0.9775

Dispersion correction           -0.013927843
FINAL SINGLE POINT ENERGY     -1339.844868678624

DIPOLE MOMENT
-------------
                                X             Y             Z
Electronic contribution:     19.68451      -3.28372     -20.10159
Nuclear contribution   :    -20.36037       3.33770      20.43068
                        -----------------------------------------
Total Dipole Moment    :     -0.67585       0.05398       0.32909
                        -----------------------------------------
Magnitude (a.u.)       :      0.75365
Magnitude (Debye)      :      1.91564

Rotational constants in cm-1:     0.018398     0.008478     0.006116
Rotational constants in MHz :   551.545964   254.167052   183.343490

                             ****ORCA TERMINATED NORMALLY****
TOTAL RUN TIME: 0 days 0 hours 0 minutes 33 seconds 118 msec
