                         Program Version 4.2.1 -  RELEASE  -
|  1> ! wB97X-D3 SP def2-SVP
|  2> %pal
|  3> nprocs 16
|  4> end
|  5>
|  6> * xyz 0 1
|  7> S 	 7.77597 	 -14.9804 	 82.045
|  8> C 	 8.59634 	 -16.1164 	 83.1257
|  9> C 	 8.38196 	 -15.8713 	 84.4811
| 10> C 	 7.59156 	 -14.6563 	 84.6389
| 11> C 	 7.25962 	 -14.0842 	 83.4527
| 12> H 	 7.24091 	 -14.0814 	 85.5046
| 13> C 	 8.93958 	 -16.6395 	 85.6172
| 14> H 	 9.82739 	 -16.147 	 85.9059
| 15> H 	 9.25642 	 -17.6974 	 85.3443
| 16> C 	 7.92894 	 -16.6753 	 86.8065
| 17> H 	 7.66243 	 -15.6569 	 87.1183
| 18> H 	 6.98399 	 -17.0392 	 86.3992
| 19> C 	 8.33851 	 -17.4927 	 88.0668
| 20> H 	 7.40528 	 -17.5624 	 88.59
| 21> H 	 8.62385 	 -18.5067 	 87.7818
| 22> H 	 9.11808 	 -16.9494 	 88.6673
| 23> S 	 4.89 	 -12.6825 	 83.3655
| 24> C 	 4.93721 	 -10.9643 	 83.2977
| 25> C 	 6.25815 	 -10.4992 	 83.2496
| 26> C 	 7.22719 	 -11.5274 	 83.402
| 27> C 	 6.69268 	 -12.7453 	 83.3029
| 28> H 	 6.35909 	 -9.45755 	 83.1299
| 29> C 	 8.68388 	 -11.1981 	 83.4608
| 30> H 	 8.80865 	 -10.1405 	 83.2306
| 31> H 	 9.1584 	 -11.6834 	 82.6431
| 32> C 	 9.27778 	 -11.4065 	 84.825
| 33> H 	 9.3114 	 -12.4702 	 84.9834
| 34> H 	 8.659 	 -10.8605 	 85.5607
| 35> C 	 10.734 	 -10.936 	 85.0069
| 36> H 	 11.3865 	 -11.4276 	 84.237
| 37> H 	 11.1639 	 -11.0195 	 85.9861
| 38> H 	 10.8573 	 -9.86444 	 84.7299
| 39> H 	 9.21617 	 -16.884 	 82.8117
| 40> H 	 4.10311 	 -10.2948 	 83.4497
| 41> *
| 42>
| 43>                          ****END OF INPUT****

CARTESIAN COORDINATES (ANGSTROEM)
---------------------------------
  S      7.775970  -14.980400   82.045000
  C      8.596340  -16.116400   83.125700
  C      8.381960  -15.871300   84.481100
  C      7.591560  -14.656300   84.638900
  C      7.259620  -14.084200   83.452700
  H      7.240910  -14.081400   85.504600
  C      8.939580  -16.639500   85.617200
  H      9.827390  -16.147000   85.905900
  H      9.256420  -17.697400   85.344300
  C      7.928940  -16.675300   86.806500
  H      7.662430  -15.656900   87.118300
  H      6.983990  -17.039200   86.399200
  C      8.338510  -17.492700   88.066800
  H      7.405280  -17.562400   88.590000
  H      8.623850  -18.506700   87.781800
  H      9.118080  -16.949400   88.667300
  S      4.890000  -12.682500   83.365500
  C      4.937210  -10.964300   83.297700
  C      6.258150  -10.499200   83.249600
  C      7.227190  -11.527400   83.402000
  C      6.692680  -12.745300   83.302900
  H      6.359090   -9.457550   83.129900
  C      8.683880  -11.198100   83.460800
  H      8.808650  -10.140500   83.230600
  H      9.158400  -11.683400   82.643100
  C      9.277780  -11.406500   84.825000
  H      9.311400  -12.470200   84.983400
  H      8.659000  -10.860500   85.560700
  C     10.734000  -10.936000   85.006900
  H     11.386500  -11.427600   84.237000
  H     11.163900  -11.019500   85.986100
  H     10.857300   -9.864440   84.729900
  H      9.216170  -16.884000   82.811700
  H      4.103110  -10.294800   83.449700

 Total Charge           Charge          ....    0
 Multiplicity           Mult            ....    1
 Number of Electrons    NEL             ....  134
 Basis Dimension        Dim             ....  322

ORBITAL ENERGIES
----------------

  NO   OCC          E(Eh)            E(eV)
   0   2.0000     -88.966403     -2420.8989
   1   2.0000     -88.960653     -2420.7424
   2   2.0000     -10.322228      -280.8821
   3   2.0000     -10.319549      -280.8092
   4   2.0000     -10.314301      -280.6664
   5   2.0000     -10.310221      -280.5554
   6   2.0000     -10.305594      -280.4295
   7   2.0000     -10.297189      -280.2008
   8   2.0000     -10.295321      -280.1499
   9   2.0000     -10.293871      -280.1105
  10   2.0000     -10.289575      -279.9936
  11   2.0000     -10.287848      -279.9466
  12   2.0000     -10.283765      -279.8355
  13   2.0000     -10.283084      -279.8170
  14   2.0000     -10.282892      -279.8117
  15   2.0000     -10.279306      -279.7141
  16   2.0000      -8.080840      -219.8908
  17   2.0000      -8.075417      -219.7433
  18   2.0000      -6.039273      -164.3370
  19   2.0000      -6.035514      -164.2347
  20   2.0000      -6.033851      -164.1894
  21   2.0000      -6.031588      -164.1278
  22   2.0000      -6.029960      -164.0835
  23   2.0000      -6.026230      -163.9821
  24   2.0000      -1.006620       -27.3915
  25   2.0000      -0.982822       -26.7439
  26   2.0000      -0.913774       -24.8651
  27   2.0000      -0.910855       -24.7856
  28   2.0000      -0.867192       -23.5975
  29   2.0000      -0.850883       -23.1537
  30   2.0000      -0.847146       -23.0520
  31   2.0000      -0.813306       -22.1312
  32   2.0000      -0.784793       -21.3553
  33   2.0000      -0.774172       -21.0663
  34   2.0000      -0.709019       -19.2934
  35   2.0000      -0.698119       -18.9968
  36   2.0000      -0.686872       -18.6907
  37   2.0000      -0.664569       -18.0838
  38   2.0000      -0.647955       -17.6317
  39   2.0000      -0.613883       -16.7046
  40   2.0000      -0.594649       -16.1812
  41   2.0000      -0.572861       -15.5884
  42   2.0000      -0.566125       -15.4051
  43   2.0000      -0.561119       -15.2688
  44   2.0000      -0.528067       -14.3694
  45   2.0000      -0.522735       -14.2243
  46   2.0000      -0.516530       -14.0555
  47   2.0000      -0.515871       -14.0376
  48   2.0000      -0.508246       -13.8301
  49   2.0000      -0.503090       -13.6898
  50   2.0000      -0.490529       -13.3480
  51   2.0000      -0.476608       -12.9692
  52   2.0000      -0.470588       -12.8054
  53   2.0000      -0.461323       -12.5532
  54   2.0000      -0.456399       -12.4192
  55   2.0000      -0.453005       -12.3269
  56   2.0000      -0.444118       -12.0851
  57   2.0000      -0.434994       -11.8368
  58   2.0000      -0.431472       -11.7409
  59   2.0000      -0.423995       -11.5375
  60   2.0000      -0.421443       -11.4680
  61   2.0000      -0.417404       -11.3582
  62   2.0000      -0.412282       -11.2188
  63   2.0000      -0.338202        -9.2029
  64   2.0000      -0.328137        -8.9291
  65   2.0000      -0.318115        -8.6564
  66   2.0000      -0.310282        -8.4432
  67   0.0000       0.048742         1.3263
  68   0.0000       0.052976         1.4415
  69   0.0000       0.113311         3.0834
  70   0.0000       0.121294         3.3006
  71   0.0000       0.125735         3.4214

MULLIKEN ATOMIC CHARGES
-----------------------
   0 S :    0.116482
   1 C :   -0.092092
   2 C :   -0.084377
   3 C :    0.038636
   4 C :   -0.183562
   5 H :    0.028270
   6 C :    0.108039
   7 H :    0.028163
   8 H :    0.027761
   9 C :   -0.152286
  10 H :    0.033066
  11 H :    0.030631
  12 C :   -0.017895
  13 H :    0.033483
  14 H :    0.031744
  15 H :    0.048871
  16 S :    0.097655
  17 C :   -0.090254
  18 C :   -0.040703
  19 C :   -0.001454
  20 C :   -0.202378
  21 H :    0.001716
  22 C :    0.122935
  23 H :   -0.001929
  24 H :    0.024161
  25 C :   -0.082917
  26 H :    0.041080
  27 H :    0.033514
  28 C :   -0.052328
  29 H :    0.028854
  30 H :    0.039056
  31 H :    0.018888
  32 H :    0.012092
  33 H :    0.057078
Sum of atomic charges:    0.0000000

LOEWDIN ATOMIC CHARGES
----------------------
   0 S :    0.396875
   1 C :   -0.180784
   2 C :   -0.055557
   3 C :   -0.060405
   4 C :   -0.201117
   5 H :    0.038916
   6 C :   -0.033974
   7 H :    0.027816
   8 H :    0.035982
   9 C :   -0.042655
  10 H :    0.022503
  11 H :    0.024237
  12 C :   -0.063168
  13 H :    0.028126
  14 H :    0.024039
  15 H :    0.032541
  16 S :    0.391453
  17 C :   -0.189072
  18 C :   -0.071643
  19 C :   -0.050881
  20 C :   -0.186203
  21 H :    0.023213
  22 C :   -0.024442
  23 H :    0.027506
  24 H :    0.029005
  25 C :   -0.039130
  26 H :    0.024300
  27 H :    0.028742
  28 C :   -0.072049
  29 H :    0.028946
  30 H :    0.023334
  31 H :    0.022822
  32 H :    0.011046
  33 H :    0.029678

  Mayer bond orders larger than 0.100000
B(  0-S ,  1-C ) :   1.1272 B(  0-S ,  4-C ) :   1.1405 B(  1-C ,  2-C ) :   1.6471
B(  1-C , 32-H ) :   0.9763 B(  2-C ,  3-C ) :   1.1677 B(  2-C ,  6-C ) :   1.0339
B(  3-C ,  4-C ) :   1.6506 B(  3-C ,  5-H ) :   0.9816 B(  4-C , 20-C ) :   0.9825
B(  6-C ,  7-H ) :   0.9264 B(  6-C ,  8-H ) :   0.9388 B(  6-C ,  9-C ) :   1.0562
B(  9-C , 10-H ) :   0.9481 B(  9-C , 11-H ) :   0.9642 B(  9-C , 12-C ) :   1.0807
B( 12-C , 13-H ) :   0.9734 B( 12-C , 14-H ) :   0.9742 B( 12-C , 15-H ) :   0.9750
B( 16-S , 17-C ) :   1.1681 B( 16-S , 20-C ) :   1.1210 B( 17-C , 18-C ) :   1.6180
B( 17-C , 33-H ) :   0.9647 B( 18-C , 19-C ) :   1.2128 B( 18-C , 21-H ) :   0.9988
B( 19-C , 20-C ) :   1.6563 B( 19-C , 22-C ) :   1.0386 B( 22-C , 23-H ) :   0.9258
B( 22-C , 24-H ) :   0.9277 B( 22-C , 25-C ) :   1.0654 B( 25-C , 26-H ) :   0.9518
B( 25-C , 27-H ) :   0.9528 B( 25-C , 28-C ) :   1.0890 B( 28-C , 29-H ) :   0.9714
B( 28-C , 30-H ) :   0.9763 B( 28-C , 31-H ) :   0.9720

Dispersion correction           -0.014738933
FINAL SINGLE POINT ENERGY     -1339.875578649471

DIPOLE MOMENT
-------------
                                X             Y             Z
Electronic contribution:    -17.49865       1.35908     -20.63679
Nuclear contribution   :     17.90860      -1.21787      21.17316
                        -----------------------------------------
Total Dipole Moment    :      0.40995       0.14121       0.53636
                        -----------------------------------------
Magnitude (a.u.)       :      0.68970
Magnitude (Debye)      :      1.75308

Rotational constants in cm-1:     0.016822     0.008737     0.007683
Rotational constants in MHz :   504.310897   261.930414   230.339445

                             ****ORCA TERMINATED NORMALLY****
TOTAL RUN TIME: 0 days 0 hours 0 minutes 33 seconds 297 msec
