                         Program Version 4.2.1 -  RELEASE  -
|  1> ! wB97X-D3 SP def2-SVP
|  2> %pal
|  3> nprocs 16
|  4> end
|  5>
|  6> * xyz 0 1
|  7> S 	 43.3292 	 10.0314 	 88.0539
|  8> C 	 44.9084 	 10.5559 	 88.484
|  9> C 	 45.5339 	 9.58067 	 89.1958
| 10> C 	 44.8122 	 8.38034 	 89.3411
| 11> C 	 43.5349 	 8.41265 	 88.7559
| 12> H 	 45.087 	 7.48672 	 89.9102
| 13> C 	 46.9842 	 9.69791 	 89.679
| 14> H 	 47.072 	 8.89657 	 90.4411
| 15> H 	 46.9772 	 10.6726 	 90.1901
| 16> C 	 48.0666 	 9.55283 	 88.6366
| 17> H 	 48.0584 	 10.4432 	 87.9443
| 18> H 	 48.9453 	 9.65259 	 89.2164
| 19> C 	 48.2242 	 8.19081 	 87.9139
| 20> H 	 47.3582 	 7.70853 	 87.5397
| 21> H 	 48.9345 	 8.29983 	 87.0974
| 22> H 	 48.6227 	 7.41824 	 88.573
| 23> S 	 41.0148 	 8.11855 	 89.5658
| 24> C 	 40.3311 	 6.44552 	 89.8305
| 25> C 	 41.2486 	 5.47048 	 89.2981
| 26> C 	 42.469 	 6.04579 	 88.8113
| 27> C 	 42.4805 	 7.44065 	 88.8843
| 28> H 	 40.9027 	 4.41233 	 89.2883
| 29> C 	 43.481 	 5.1652 	 88.1184
| 30> H 	 43.4799 	 4.15967 	 88.4687
| 31> H 	 44.5109 	 5.53682 	 88.3082
| 32> C 	 43.2757 	 5.08891 	 86.6012
| 33> H 	 43.2502 	 6.11011 	 86.2424
| 34> H 	 42.3081 	 4.71455 	 86.2552
| 35> C 	 44.3887 	 4.40647 	 85.7415
| 36> H 	 44.1051 	 4.50877 	 84.7212
| 37> H 	 44.4646 	 3.39738 	 86.0664
| 38> H 	 45.336 	 4.71585 	 86.0034
| 39> H 	 45.2898 	 11.5814 	 88.434
| 40> H 	 39.3575 	 6.23442 	 90.1675
| 41> *
| 42>
| 43>                          ****END OF INPUT****

CARTESIAN COORDINATES (ANGSTROEM)
---------------------------------
  S     43.329200   10.031400   88.053900
  C     44.908400   10.555900   88.484000
  C     45.533900    9.580670   89.195800
  C     44.812200    8.380340   89.341100
  C     43.534900    8.412650   88.755900
  H     45.087000    7.486720   89.910200
  C     46.984200    9.697910   89.679000
  H     47.072000    8.896570   90.441100
  H     46.977200   10.672600   90.190100
  C     48.066600    9.552830   88.636600
  H     48.058400   10.443200   87.944300
  H     48.945300    9.652590   89.216400
  C     48.224200    8.190810   87.913900
  H     47.358200    7.708530   87.539700
  H     48.934500    8.299830   87.097400
  H     48.622700    7.418240   88.573000
  S     41.014800    8.118550   89.565800
  C     40.331100    6.445520   89.830500
  C     41.248600    5.470480   89.298100
  C     42.469000    6.045790   88.811300
  C     42.480500    7.440650   88.884300
  H     40.902700    4.412330   89.288300
  C     43.481000    5.165200   88.118400
  H     43.479900    4.159670   88.468700
  H     44.510900    5.536820   88.308200
  C     43.275700    5.088910   86.601200
  H     43.250200    6.110110   86.242400
  H     42.308100    4.714550   86.255200
  C     44.388700    4.406470   85.741500
  H     44.105100    4.508770   84.721200
  H     44.464600    3.397380   86.066400
  H     45.336000    4.715850   86.003400
  H     45.289800   11.581400   88.434000
  H     39.357500    6.234420   90.167500

 Total Charge           Charge          ....    0
 Multiplicity           Mult            ....    1
 Number of Electrons    NEL             ....  134
 Basis Dimension        Dim             ....  322

ORBITAL ENERGIES
----------------

  NO   OCC          E(Eh)            E(eV)
   0   2.0000     -88.968531     -2420.9568
   1   2.0000     -88.965611     -2420.8774
   2   2.0000     -10.331869      -281.1444
   3   2.0000     -10.331181      -281.1257
   4   2.0000     -10.326584      -281.0006
   5   2.0000     -10.310049      -280.5507
   6   2.0000     -10.310043      -280.5505
   7   2.0000     -10.307680      -280.4862
   8   2.0000     -10.294105      -280.1168
   9   2.0000     -10.293040      -280.0879
  10   2.0000     -10.293005      -280.0869
  11   2.0000     -10.292244      -280.0662
  12   2.0000     -10.288734      -279.9707
  13   2.0000     -10.281308      -279.7686
  14   2.0000     -10.275866      -279.6205
  15   2.0000     -10.266812      -279.3742
  16   2.0000      -8.081979      -219.9218
  17   2.0000      -8.080283      -219.8757
  18   2.0000      -6.040577      -164.3725
  19   2.0000      -6.038811      -164.3244
  20   2.0000      -6.036622      -164.2648
  21   2.0000      -6.034610      -164.2101
  22   2.0000      -6.032725      -164.1588
  23   2.0000      -6.031217      -164.1178
  24   2.0000      -1.005748       -27.3678
  25   2.0000      -0.978886       -26.6368
  26   2.0000      -0.910683       -24.7809
  27   2.0000      -0.905289       -24.6342
  28   2.0000      -0.869467       -23.6594
  29   2.0000      -0.850749       -23.1501
  30   2.0000      -0.844198       -22.9718
  31   2.0000      -0.813071       -22.1248
  32   2.0000      -0.784539       -21.3484
  33   2.0000      -0.774698       -21.0806
  34   2.0000      -0.708456       -19.2781
  35   2.0000      -0.703626       -19.1466
  36   2.0000      -0.696465       -18.9518
  37   2.0000      -0.668024       -18.1779
  38   2.0000      -0.638733       -17.3808
  39   2.0000      -0.610557       -16.6141
  40   2.0000      -0.592443       -16.1212
  41   2.0000      -0.569766       -15.5041
  42   2.0000      -0.561380       -15.2759
  43   2.0000      -0.547920       -14.9097
  44   2.0000      -0.540703       -14.7133
  45   2.0000      -0.536597       -14.6016
  46   2.0000      -0.512995       -13.9593
  47   2.0000      -0.511191       -13.9102
  48   2.0000      -0.508045       -13.8246
  49   2.0000      -0.501222       -13.6389
  50   2.0000      -0.489659       -13.3243
  51   2.0000      -0.483643       -13.1606
  52   2.0000      -0.473612       -12.8876
  53   2.0000      -0.465944       -12.6790
  54   2.0000      -0.459355       -12.4997
  55   2.0000      -0.447111       -12.1665
  56   2.0000      -0.441047       -12.0015
  57   2.0000      -0.437932       -11.9167
  58   2.0000      -0.431106       -11.7310
  59   2.0000      -0.427271       -11.6266
  60   2.0000      -0.421068       -11.4578
  61   2.0000      -0.409905       -11.1541
  62   2.0000      -0.404374       -11.0036
  63   2.0000      -0.348803        -9.4914
  64   2.0000      -0.332468        -9.0469
  65   2.0000      -0.328520        -8.9395
  66   2.0000      -0.288041        -7.8380
  67   0.0000       0.020589         0.5603
  68   0.0000       0.065353         1.7783
  69   0.0000       0.104775         2.8511
  70   0.0000       0.121154         3.2968
  71   0.0000       0.129217         3.5162

MULLIKEN ATOMIC CHARGES
-----------------------
   0 S :    0.103881
   1 C :   -0.117194
   2 C :   -0.106534
   3 C :    0.028547
   4 C :   -0.161497
   5 H :    0.022347
   6 C :    0.047544
   7 H :    0.017726
   8 H :    0.032052
   9 C :   -0.034255
  10 H :    0.033501
  11 H :    0.022030
  12 C :   -0.042113
  13 H :    0.029888
  14 H :    0.034545
  15 H :    0.020498
  16 S :    0.100087
  17 C :   -0.096021
  18 C :   -0.054624
  19 C :   -0.031970
  20 C :   -0.138154
  21 H :    0.043710
  22 C :    0.097960
  23 H :    0.010412
  24 H :    0.017212
  25 C :   -0.101544
  26 H :    0.022287
  27 H :    0.020870
  28 C :    0.023648
  29 H :    0.043097
  30 H :    0.005922
  31 H :    0.002359
  32 H :    0.056796
  33 H :    0.046988
Sum of atomic charges:   -0.0000000

LOEWDIN ATOMIC CHARGES
----------------------
   0 S :    0.408548
   1 C :   -0.211837
   2 C :   -0.074873
   3 C :   -0.066958
   4 C :   -0.193402
   5 H :    0.033925
   6 C :   -0.032606
   7 H :    0.028905
   8 H :    0.034398
   9 C :   -0.039323
  10 H :    0.028541
  11 H :    0.023513
  12 C :   -0.063771
  13 H :    0.019282
  14 H :    0.030350
  15 H :    0.025994
  16 S :    0.388766
  17 C :   -0.163555
  18 C :   -0.063553
  19 C :   -0.056837
  20 C :   -0.193439
  21 H :    0.041165
  22 C :   -0.030272
  23 H :    0.023594
  24 H :    0.032409
  25 C :   -0.038727
  26 H :    0.022256
  27 H :    0.022073
  28 C :   -0.051359
  29 H :    0.029060
  30 H :    0.019410
  31 H :    0.013318
  32 H :    0.037045
  33 H :    0.017963

  Mayer bond orders larger than 0.100000
B(  0-S ,  1-C ) :   1.1413 B(  0-S ,  4-C ) :   1.1569 B(  1-C ,  2-C ) :   1.5972
B(  1-C ,  4-C ) :   0.1013 B(  1-C , 32-H ) :   0.9658 B(  2-C ,  3-C ) :   1.2758
B(  2-C ,  6-C ) :   1.0061 B(  3-C ,  4-C ) :   1.5396 B(  3-C ,  5-H ) :   0.9878
B(  4-C , 20-C ) :   1.0511 B(  6-C ,  7-H ) :   0.9432 B(  6-C ,  8-H ) :   0.9367
B(  6-C ,  9-C ) :   1.0842 B(  9-C , 10-H ) :   0.9558 B(  9-C , 11-H ) :   0.9509
B(  9-C , 12-C ) :   1.0679 B( 12-C , 13-H ) :   0.9795 B( 12-C , 14-H ) :   0.9736
B( 12-C , 15-H ) :   0.9730 B( 16-S , 17-C ) :   1.1445 B( 16-S , 20-C ) :   1.1427
B( 17-C , 18-C ) :   1.5982 B( 17-C , 20-C ) :   0.1120 B( 17-C , 33-H ) :   0.9752
B( 18-C , 19-C ) :   1.2377 B( 18-C , 21-H ) :   0.9826 B( 19-C , 20-C ) :   1.5761
B( 19-C , 22-C ) :   1.0629 B( 22-C , 23-H ) :   0.9306 B( 22-C , 24-H ) :   0.9280
B( 22-C , 25-C ) :   1.0599 B( 25-C , 26-H ) :   0.9569 B( 25-C , 27-H ) :   0.9563
B( 25-C , 28-C ) :   1.0818 B( 28-C , 29-H ) :   0.9750 B( 28-C , 30-H ) :   0.9709
B( 28-C , 31-H ) :   0.9710

Dispersion correction           -0.014342518
FINAL SINGLE POINT ENERGY     -1339.867608283962

DIPOLE MOMENT
-------------
                                X             Y             Z
Electronic contribution:    -23.70623      13.88940       8.74746
Nuclear contribution   :     24.16675     -14.29905      -8.66732
                        -----------------------------------------
Total Dipole Moment    :      0.46052      -0.40965       0.08014
                        -----------------------------------------
Magnitude (a.u.)       :      0.62154
Magnitude (Debye)      :      1.57983

Rotational constants in cm-1:     0.017316     0.009512     0.007022
Rotational constants in MHz :   519.125503   285.173812   210.517033

                             ****ORCA TERMINATED NORMALLY****
TOTAL RUN TIME: 0 days 0 hours 0 minutes 30 seconds 840 msec
