                         Program Version 4.2.1 -  RELEASE  -
|  1> ! wB97X-D3 SP def2-SVP
|  2> %pal
|  3> nprocs 16
|  4> end
|  5>
|  6> * xyz 0 1
|  7> S 	 -38.8775 	 35.1745 	 82.7614
|  8> C 	 -38.1529 	 36.7325 	 82.4714
|  9> C 	 -38.83 	 37.3696 	 81.3847
| 10> C 	 -39.7406 	 36.5174 	 80.7165
| 11> C 	 -39.9592 	 35.3134 	 81.3515
| 12> H 	 -40.2554 	 36.8235 	 79.8207
| 13> C 	 -38.6662 	 38.8402 	 81.0049
| 14> H 	 -38.7041 	 38.9122 	 79.8916
| 15> H 	 -37.646 	 39.1477 	 81.1586
| 16> C 	 -39.7186 	 39.7928 	 81.6494
| 17> H 	 -40.7397 	 39.5169 	 81.3324
| 18> H 	 -39.6848 	 39.5466 	 82.7642
| 19> C 	 -39.3297 	 41.2298 	 81.4011
| 20> H 	 -40.1399 	 41.8065 	 81.9285
| 21> H 	 -38.4047 	 41.523 	 81.9209
| 22> H 	 -39.2732 	 41.634 	 80.3848
| 23> S 	 -41.9452 	 33.7231 	 82.2435
| 24> C 	 -42.8132 	 32.7126 	 81.2696
| 25> C 	 -42.2432 	 32.6948 	 80.0128
| 26> C 	 -41.2506 	 33.667 	 79.7327
| 27> C 	 -40.9056 	 34.2639 	 80.9277
| 28> H 	 -42.6815 	 32.0846 	 79.2962
| 29> C 	 -40.5816 	 33.8517 	 78.3293
| 30> H 	 -40.9267 	 34.8132 	 77.8399
| 31> H 	 -40.8429 	 32.9759 	 77.6792
| 32> C 	 -39.0093 	 33.8869 	 78.4125
| 33> H 	 -38.6385 	 32.8718 	 78.5678
| 34> H 	 -38.7352 	 34.5402 	 79.2984
| 35> C 	 -38.26 	 34.4423 	 77.1513
| 36> H 	 -38.2825 	 33.8351 	 76.2782
| 37> H 	 -37.1838 	 34.6284 	 77.4298
| 38> H 	 -38.7447 	 35.4251 	 76.84
| 39> H 	 -37.5345 	 37.209 	 83.2287
| 40> H 	 -43.6288 	 32.0856 	 81.4962
| 41> *
| 42>
| 43>                          ****END OF INPUT****

CARTESIAN COORDINATES (ANGSTROEM)
---------------------------------
  S    -38.877500   35.174500   82.761400
  C    -38.152900   36.732500   82.471400
  C    -38.830000   37.369600   81.384700
  C    -39.740600   36.517400   80.716500
  C    -39.959200   35.313400   81.351500
  H    -40.255400   36.823500   79.820700
  C    -38.666200   38.840200   81.004900
  H    -38.704100   38.912200   79.891600
  H    -37.646000   39.147700   81.158600
  C    -39.718600   39.792800   81.649400
  H    -40.739700   39.516900   81.332400
  H    -39.684800   39.546600   82.764200
  C    -39.329700   41.229800   81.401100
  H    -40.139900   41.806500   81.928500
  H    -38.404700   41.523000   81.920900
  H    -39.273200   41.634000   80.384800
  S    -41.945200   33.723100   82.243500
  C    -42.813200   32.712600   81.269600
  C    -42.243200   32.694800   80.012800
  C    -41.250600   33.667000   79.732700
  C    -40.905600   34.263900   80.927700
  H    -42.681500   32.084600   79.296200
  C    -40.581600   33.851700   78.329300
  H    -40.926700   34.813200   77.839900
  H    -40.842900   32.975900   77.679200
  C    -39.009300   33.886900   78.412500
  H    -38.638500   32.871800   78.567800
  H    -38.735200   34.540200   79.298400
  C    -38.260000   34.442300   77.151300
  H    -38.282500   33.835100   76.278200
  H    -37.183800   34.628400   77.429800
  H    -38.744700   35.425100   76.840000
  H    -37.534500   37.209000   83.228700
  H    -43.628800   32.085600   81.496200

 Total Charge           Charge          ....    0
 Multiplicity           Mult            ....    1
 Number of Electrons    NEL             ....  134
 Basis Dimension        Dim             ....  322

ORBITAL ENERGIES
----------------

  NO   OCC          E(Eh)            E(eV)
   0   2.0000     -88.968164     -2420.9468
   1   2.0000     -88.964006     -2420.8337
   2   2.0000     -10.333654      -281.1930
   3   2.0000     -10.327843      -281.0349
   4   2.0000     -10.317367      -280.7498
   5   2.0000     -10.308192      -280.5002
   6   2.0000     -10.307949      -280.4936
   7   2.0000     -10.306612      -280.4572
   8   2.0000     -10.304576      -280.4018
   9   2.0000     -10.296389      -280.1790
  10   2.0000     -10.292044      -280.0608
  11   2.0000     -10.291898      -280.0568
  12   2.0000     -10.288844      -279.9737
  13   2.0000     -10.283683      -279.8332
  14   2.0000     -10.283488      -279.8279
  15   2.0000     -10.283156      -279.8189
  16   2.0000      -8.082133      -219.9260
  17   2.0000      -8.080606      -219.8845
  18   2.0000      -6.040678      -164.3752
  19   2.0000      -6.038833      -164.3250
  20   2.0000      -6.036592      -164.2640
  21   2.0000      -6.034699      -164.2125
  22   2.0000      -6.033059      -164.1679
  23   2.0000      -6.031686      -164.1305
  24   2.0000      -1.012819       -27.5602
  25   2.0000      -0.985556       -26.8184
  26   2.0000      -0.906896       -24.6779
  27   2.0000      -0.898610       -24.4524
  28   2.0000      -0.866227       -23.5712
  29   2.0000      -0.851357       -23.1666
  30   2.0000      -0.847528       -23.0624
  31   2.0000      -0.812102       -22.0984
  32   2.0000      -0.779569       -21.2132
  33   2.0000      -0.767146       -20.8751
  34   2.0000      -0.703807       -19.1516
  35   2.0000      -0.697894       -18.9907
  36   2.0000      -0.683734       -18.6053
  37   2.0000      -0.665105       -18.0984
  38   2.0000      -0.641046       -17.4438
  39   2.0000      -0.623540       -16.9674
  40   2.0000      -0.594977       -16.1902
  41   2.0000      -0.563489       -15.3333
  42   2.0000      -0.560738       -15.2585
  43   2.0000      -0.553684       -15.0665
  44   2.0000      -0.525110       -14.2890
  45   2.0000      -0.518582       -14.1113
  46   2.0000      -0.514850       -14.0098
  47   2.0000      -0.512784       -13.9536
  48   2.0000      -0.504484       -13.7277
  49   2.0000      -0.496271       -13.5042
  50   2.0000      -0.492859       -13.4114
  51   2.0000      -0.485551       -13.2125
  52   2.0000      -0.471865       -12.8401
  53   2.0000      -0.466431       -12.6922
  54   2.0000      -0.458889       -12.4870
  55   2.0000      -0.450225       -12.2512
  56   2.0000      -0.441600       -12.0166
  57   2.0000      -0.434659       -11.8277
  58   2.0000      -0.426220       -11.5980
  59   2.0000      -0.420410       -11.4399
  60   2.0000      -0.417106       -11.3500
  61   2.0000      -0.413426       -11.2499
  62   2.0000      -0.411364       -11.1938
  63   2.0000      -0.347863        -9.4658
  64   2.0000      -0.334932        -9.1140
  65   2.0000      -0.328636        -8.9426
  66   2.0000      -0.288587        -7.8529
  67   0.0000       0.029793         0.8107
  68   0.0000       0.067741         1.8433
  69   0.0000       0.118345         3.2203
  70   0.0000       0.122817         3.3420
  71   0.0000       0.132283         3.5996

MULLIKEN ATOMIC CHARGES
-----------------------
   0 S :    0.112138
   1 C :   -0.121034
   2 C :   -0.107094
   3 C :    0.030838
   4 C :   -0.140672
   5 H :    0.008216
   6 C :    0.040790
   7 H :    0.021336
   8 H :    0.013518
   9 C :   -0.072425
  10 H :    0.036996
  11 H :    0.040227
  12 C :   -0.058478
  13 H :    0.037232
  14 H :    0.035413
  15 H :    0.042431
  16 S :    0.120889
  17 C :   -0.052745
  18 C :   -0.044566
  19 C :    0.003039
  20 C :   -0.186532
  21 H :   -0.015911
  22 C :    0.049947
  23 H :    0.045608
  24 H :    0.037002
  25 C :   -0.124930
  26 H :    0.037453
  27 H :    0.072138
  28 C :   -0.069818
  29 H :    0.030296
  30 H :    0.049914
  31 H :    0.026706
  32 H :    0.061347
  33 H :    0.040732
Sum of atomic charges:   -0.0000000

LOEWDIN ATOMIC CHARGES
----------------------
   0 S :    0.401946
   1 C :   -0.211469
   2 C :   -0.058741
   3 C :   -0.067394
   4 C :   -0.190002
   5 H :    0.031277
   6 C :   -0.040958
   7 H :    0.030050
   8 H :    0.024886
   9 C :   -0.041719
  10 H :    0.026999
  11 H :    0.034653
  12 C :   -0.075569
  13 H :    0.034397
  14 H :    0.028266
  15 H :    0.026802
  16 S :    0.449962
  17 C :   -0.211193
  18 C :   -0.070451
  19 C :   -0.055150
  20 C :   -0.193086
  21 H :    0.015070
  22 C :   -0.031994
  23 H :    0.035315
  24 H :    0.035479
  25 C :   -0.049000
  26 H :    0.024356
  27 H :    0.036278
  28 C :   -0.073337
  29 H :    0.015676
  30 H :    0.036057
  31 H :    0.026113
  32 H :    0.029553
  33 H :    0.026929

  Mayer bond orders larger than 0.100000
B(  0-S ,  1-C ) :   1.1443 B(  0-S ,  4-C ) :   1.1603 B(  1-C ,  2-C ) :   1.5668
B(  1-C ,  4-C ) :   0.1094 B(  1-C , 32-H ) :   0.9689 B(  2-C ,  3-C ) :   1.2791
B(  2-C ,  6-C ) :   1.0315 B(  3-C ,  4-C ) :   1.5349 B(  3-C ,  5-H ) :   0.9986
B(  4-C , 20-C ) :   1.0219 B(  6-C ,  7-H ) :   0.9396 B(  6-C ,  8-H ) :   0.9456
B(  6-C ,  9-C ) :   1.0466 B(  9-C , 10-H ) :   0.9557 B(  9-C , 11-H ) :   0.9548
B(  9-C , 12-C ) :   1.0781 B( 12-C , 13-H ) :   0.9720 B( 12-C , 14-H ) :   0.9730
B( 12-C , 15-H ) :   0.9759 B( 16-S , 17-C ) :   1.1783 B( 16-S , 20-C ) :   1.1727
B( 17-C , 18-C ) :   1.5814 B( 17-C , 20-C ) :   0.1009 B( 17-C , 33-H ) :   0.9723
B( 18-C , 19-C ) :   1.2701 B( 18-C , 21-H ) :   0.9924 B( 19-C , 20-C ) :   1.5670
B( 19-C , 22-C ) :   1.0255 B( 22-C , 23-H ) :   0.9367 B( 22-C , 24-H ) :   0.9441
B( 22-C , 25-C ) :   1.0525 B( 25-C , 26-H ) :   0.9561 B( 25-C , 27-H ) :   0.9569
B( 25-C , 28-C ) :   1.0747 B( 28-C , 29-H ) :   0.9782 B( 28-C , 30-H ) :   0.9753
B( 28-C , 31-H ) :   0.9744

Dispersion correction           -0.014295801
FINAL SINGLE POINT ENERGY     -1339.878198247502

DIPOLE MOMENT
-------------
                                X             Y             Z
Electronic contribution:     -8.37572     -18.51390      17.68744
Nuclear contribution   :      8.28372      18.84653     -18.09796
                        -----------------------------------------
Total Dipole Moment    :     -0.09200       0.33262      -0.41052
                        -----------------------------------------
Magnitude (a.u.)       :      0.53631
Magnitude (Debye)      :      1.36320

Rotational constants in cm-1:     0.017922     0.008434     0.007033
Rotational constants in MHz :   537.300647   252.852047   210.834034

                             ****ORCA TERMINATED NORMALLY****
TOTAL RUN TIME: 0 days 0 hours 0 minutes 28 seconds 844 msec
