                         Program Version 4.2.1 -  RELEASE  -
|  1> ! wB97X-D3 SP def2-SVP
|  2> %pal
|  3> nprocs 16
|  4> end
|  5>
|  6> * xyz 0 1
|  7> S 	 -22.2327 	 56.5722 	 107.87
|  8> C 	 -23.8175 	 56.3273 	 107.197
|  9> C 	 -24.8288 	 56.9864 	 107.937
| 10> C 	 -24.203 	 57.693 	 109.006
| 11> C 	 -22.8054 	 57.6065 	 109.117
| 12> H 	 -24.8358 	 58.2199 	 109.694
| 13> C 	 -26.3276 	 56.8351 	 107.76
| 14> H 	 -26.8639 	 56.7619 	 108.71
| 15> H 	 -26.4427 	 55.8292 	 107.466
| 16> C 	 -27.0589 	 57.8841 	 106.903
| 17> H 	 -28.1255 	 57.9817 	 107.141
| 18> H 	 -26.6338 	 58.8282 	 107.135
| 19> C 	 -27.1162 	 57.7319 	 105.402
| 20> H 	 -26.2013 	 57.8388 	 104.97
| 21> H 	 -27.5162 	 56.6894 	 105.273
| 22> H 	 -27.7067 	 58.5143 	 104.925
| 23> S 	 -20.952 	 59.5755 	 109.423
| 24> C 	 -20.4281 	 59.9334 	 111.088
| 25> C 	 -20.9693 	 59.0467 	 111.959
| 26> C 	 -21.7824 	 58.0523 	 111.353
| 27> C 	 -21.9639 	 58.2969 	 110
| 28> H 	 -20.7677 	 59.0588 	 112.99
| 29> C 	 -22.531 	 57.0213 	 112.144
| 30> H 	 -21.7432 	 56.3845 	 112.613
| 31> H 	 -22.998 	 56.302 	 111.415
| 32> C 	 -23.5129 	 57.4933 	 113.208
| 33> H 	 -22.9527 	 58.0208 	 113.998
| 34> H 	 -24.0757 	 56.6765 	 113.568
| 35> C 	 -24.5368 	 58.5386 	 112.772
| 36> H 	 -25.1522 	 58.0694 	 111.999
| 37> H 	 -24.0805 	 59.4373 	 112.32
| 38> H 	 -25.1778 	 58.9373 	 113.534
| 39> H 	 -24.0727 	 55.6486 	 106.357
| 40> H 	 -19.7392 	 60.7101 	 111.403
| 41> *
| 42>
| 43>                          ****END OF INPUT****

CARTESIAN COORDINATES (ANGSTROEM)
---------------------------------
  S    -22.232700   56.572200  107.870000
  C    -23.817500   56.327300  107.197000
  C    -24.828800   56.986400  107.937000
  C    -24.203000   57.693000  109.006000
  C    -22.805400   57.606500  109.117000
  H    -24.835800   58.219900  109.694000
  C    -26.327600   56.835100  107.760000
  H    -26.863900   56.761900  108.710000
  H    -26.442700   55.829200  107.466000
  C    -27.058900   57.884100  106.903000
  H    -28.125500   57.981700  107.141000
  H    -26.633800   58.828200  107.135000
  C    -27.116200   57.731900  105.402000
  H    -26.201300   57.838800  104.970000
  H    -27.516200   56.689400  105.273000
  H    -27.706700   58.514300  104.925000
  S    -20.952000   59.575500  109.423000
  C    -20.428100   59.933400  111.088000
  C    -20.969300   59.046700  111.959000
  C    -21.782400   58.052300  111.353000
  C    -21.963900   58.296900  110.000000
  H    -20.767700   59.058800  112.990000
  C    -22.531000   57.021300  112.144000
  H    -21.743200   56.384500  112.613000
  H    -22.998000   56.302000  111.415000
  C    -23.512900   57.493300  113.208000
  H    -22.952700   58.020800  113.998000
  H    -24.075700   56.676500  113.568000
  C    -24.536800   58.538600  112.772000
  H    -25.152200   58.069400  111.999000
  H    -24.080500   59.437300  112.320000
  H    -25.177800   58.937300  113.534000
  H    -24.072700   55.648600  106.357000
  H    -19.739200   60.710100  111.403000

 Total Charge           Charge          ....    0
 Multiplicity           Mult            ....    1
 Number of Electrons    NEL             ....  134
 Basis Dimension        Dim             ....  322

ORBITAL ENERGIES
----------------

  NO   OCC          E(Eh)            E(eV)
   0   2.0000     -88.969598     -2420.9858
   1   2.0000     -88.965366     -2420.8707
   2   2.0000     -10.322336      -280.8851
   3   2.0000     -10.318609      -280.7836
   4   2.0000     -10.318299      -280.7752
   5   2.0000     -10.317409      -280.7510
   6   2.0000     -10.302818      -280.3539
   7   2.0000     -10.297509      -280.2095
   8   2.0000     -10.292692      -280.0784
   9   2.0000     -10.292285      -280.0673
  10   2.0000     -10.291785      -280.0537
  11   2.0000     -10.286697      -279.9153
  12   2.0000     -10.284477      -279.8548
  13   2.0000     -10.281055      -279.7617
  14   2.0000     -10.272472      -279.5282
  15   2.0000     -10.269774      -279.4548
  16   2.0000      -8.084577      -219.9925
  17   2.0000      -8.080029      -219.8688
  18   2.0000      -6.042929      -164.4365
  19   2.0000      -6.038861      -164.3258
  20   2.0000      -6.038568      -164.3178
  21   2.0000      -6.035681      -164.2392
  22   2.0000      -6.034591      -164.2096
  23   2.0000      -6.030707      -164.1039
  24   2.0000      -1.010979       -27.5101
  25   2.0000      -0.984538       -26.7906
  26   2.0000      -0.913952       -24.8699
  27   2.0000      -0.909726       -24.7549
  28   2.0000      -0.875758       -23.8306
  29   2.0000      -0.851554       -23.1720
  30   2.0000      -0.848756       -23.0958
  31   2.0000      -0.813675       -22.1412
  32   2.0000      -0.788852       -21.4657
  33   2.0000      -0.773114       -21.0375
  34   2.0000      -0.711956       -19.3733
  35   2.0000      -0.697926       -18.9915
  36   2.0000      -0.693967       -18.8838
  37   2.0000      -0.661242       -17.9933
  38   2.0000      -0.639311       -17.3965
  39   2.0000      -0.622088       -16.9279
  40   2.0000      -0.595713       -16.2102
  41   2.0000      -0.573893       -15.6164
  42   2.0000      -0.555924       -15.1275
  43   2.0000      -0.552539       -15.0353
  44   2.0000      -0.548093       -14.9144
  45   2.0000      -0.545329       -14.8391
  46   2.0000      -0.522448       -14.2165
  47   2.0000      -0.514307       -13.9950
  48   2.0000      -0.505580       -13.7575
  49   2.0000      -0.493080       -13.4174
  50   2.0000      -0.491113       -13.3639
  51   2.0000      -0.473638       -12.8884
  52   2.0000      -0.472929       -12.8691
  53   2.0000      -0.461114       -12.5475
  54   2.0000      -0.455976       -12.4077
  55   2.0000      -0.448318       -12.1994
  56   2.0000      -0.442869       -12.0511
  57   2.0000      -0.439492       -11.9592
  58   2.0000      -0.438633       -11.9358
  59   2.0000      -0.422870       -11.5069
  60   2.0000      -0.420206       -11.4344
  61   2.0000      -0.414718       -11.2851
  62   2.0000      -0.405896       -11.0450
  63   2.0000      -0.340887        -9.2760
  64   2.0000      -0.331105        -9.0098
  65   2.0000      -0.324372        -8.8266
  66   2.0000      -0.300506        -8.1772
  67   0.0000       0.039436         1.0731
  68   0.0000       0.058486         1.5915
  69   0.0000       0.110575         3.0089
  70   0.0000       0.120057         3.2669
  71   0.0000       0.133123         3.6225

MULLIKEN ATOMIC CHARGES
-----------------------
   0 S :    0.138584
   1 C :   -0.137375
   2 C :   -0.105946
   3 C :    0.055253
   4 C :   -0.191955
   5 H :   -0.011234
   6 C :    0.084707
   7 H :    0.023415
   8 H :    0.003926
   9 C :   -0.058444
  10 H :    0.025126
  11 H :    0.015198
  12 C :   -0.020162
  13 H :    0.009060
  14 H :    0.030530
  15 H :    0.034070
  16 S :    0.118813
  17 C :   -0.085818
  18 C :   -0.009403
  19 C :   -0.036701
  20 C :   -0.166892
  21 H :   -0.002063
  22 C :    0.052371
  23 H :    0.036144
  24 H :    0.037401
  25 C :   -0.035727
  26 H :    0.027213
  27 H :    0.028752
  28 C :   -0.070053
  29 H :    0.024208
  30 H :    0.040529
  31 H :    0.031417
  32 H :    0.059133
  33 H :    0.055924
Sum of atomic charges:    0.0000000

LOEWDIN ATOMIC CHARGES
----------------------
   0 S :    0.438607
   1 C :   -0.209110
   2 C :   -0.065043
   3 C :   -0.052780
   4 C :   -0.220671
   5 H :    0.022572
   6 C :   -0.033140
   7 H :    0.038931
   8 H :    0.024981
   9 C :   -0.040606
  10 H :    0.026964
  11 H :    0.018938
  12 C :   -0.058002
  13 H :    0.007698
  14 H :    0.030512
  15 H :    0.030205
  16 S :    0.403995
  17 C :   -0.171556
  18 C :   -0.065389
  19 C :   -0.053253
  20 C :   -0.214255
  21 H :    0.023833
  22 C :   -0.040153
  23 H :    0.039226
  24 H :    0.036096
  25 C :   -0.035668
  26 H :    0.024219
  27 H :    0.023684
  28 C :   -0.068720
  29 H :    0.019766
  30 H :    0.027945
  31 H :    0.023647
  32 H :    0.034018
  33 H :    0.032507

  Mayer bond orders larger than 0.100000
B(  0-S ,  1-C ) :   1.1749 B(  0-S ,  4-C ) :   1.1619 B(  1-C ,  2-C ) :   1.5585
B(  1-C ,  4-C ) :   0.1088 B(  1-C , 32-H ) :   0.9603 B(  2-C ,  3-C ) :   1.3069
B(  2-C ,  6-C ) :   1.0164 B(  3-C ,  4-C ) :   1.5222 B(  3-C ,  5-H ) :   0.9940
B(  4-C , 20-C ) :   1.0554 B(  6-C ,  7-H ) :   0.9405 B(  6-C ,  8-H ) :   0.9407
B(  6-C ,  9-C ) :   1.0542 B(  9-C , 10-H ) :   0.9594 B(  9-C , 11-H ) :   0.9533
B(  9-C , 12-C ) :   1.0874 B( 12-C , 13-H ) :   0.9755 B( 12-C , 14-H ) :   0.9756
B( 12-C , 15-H ) :   0.9712 B( 16-S , 17-C ) :   1.1359 B( 16-S , 20-C ) :   1.1430
B( 17-C , 18-C ) :   1.6231 B( 17-C , 33-H ) :   0.9677 B( 18-C , 19-C ) :   1.2353
B( 18-C , 21-H ) :   0.9954 B( 19-C , 20-C ) :   1.5886 B( 19-C , 22-C ) :   1.0569
B( 22-C , 23-H ) :   0.9261 B( 22-C , 24-H ) :   0.9268 B( 22-C , 25-C ) :   1.0725
B( 25-C , 26-H ) :   0.9532 B( 25-C , 27-H ) :   0.9541 B( 25-C , 28-C ) :   1.0810
B( 28-C , 29-H ) :   0.9719 B( 28-C , 30-H ) :   0.9709 B( 28-C , 31-H ) :   0.9716

Dispersion correction           -0.015251850
FINAL SINGLE POINT ENERGY     -1339.876040901987

DIPOLE MOMENT
-------------
                                X             Y             Z
Electronic contribution:     24.74691       1.73253      -4.93916
Nuclear contribution   :    -25.22871      -1.82278       5.35654
                        -----------------------------------------
Total Dipole Moment    :     -0.48181      -0.09025       0.41738
                        -----------------------------------------
Magnitude (a.u.)       :      0.64381
Magnitude (Debye)      :      1.63642

Rotational constants in cm-1:     0.020929     0.008273     0.007067
Rotational constants in MHz :   627.426134   248.011143   211.858890

                             ****ORCA TERMINATED NORMALLY****
TOTAL RUN TIME: 0 days 0 hours 0 minutes 29 seconds 78 msec
