                         Program Version 4.2.1 -  RELEASE  -
|  1> ! wB97X-D3 SP def2-SVP
|  2> %pal
|  3> nprocs 16
|  4> end
|  5>
|  6> * xyz 0 1
|  7> S 	 -46.7643 	 25.4989 	 82.0273
|  8> C 	 -47.4221 	 26.3563 	 83.3927
|  9> C 	 -48.1766 	 25.4541 	 84.184
| 10> C 	 -48.2243 	 24.0939 	 83.6805
| 11> C 	 -47.5774 	 23.9979 	 82.4384
| 12> H 	 -48.5544 	 23.1485 	 84.0578
| 13> C 	 -48.9899 	 25.7955 	 85.4294
| 14> H 	 -49.9869 	 25.3823 	 85.4031
| 15> H 	 -49.2368 	 26.8587 	 85.3869
| 16> C 	 -48.2374 	 25.4816 	 86.7589
| 17> H 	 -47.9127 	 24.4649 	 86.7758
| 18> H 	 -47.2392 	 25.9937 	 86.7684
| 19> C 	 -48.8825 	 25.8885 	 88.058
| 20> H 	 -49.8542 	 25.3233 	 88.1619
| 21> H 	 -48.2371 	 25.6171 	 88.93
| 22> H 	 -49.1794 	 26.9221 	 87.9542
| 23> S 	 -47.9366 	 22.7807 	 80.0087
| 24> C 	 -47.427 	 21.1081 	 79.871
| 25> C 	 -46.7198 	 20.6781 	 80.9225
| 26> C 	 -46.65 	 21.6437 	 82.0273
| 27> C 	 -47.2471 	 22.8221 	 81.6845
| 28> H 	 -46.3948 	 19.6625 	 80.9751
| 29> C 	 -45.8872 	 21.2904 	 83.3373
| 30> H 	 -46.6377 	 21.385 	 84.1626
| 31> H 	 -45.1838 	 22.0892 	 83.466
| 32> C 	 -45.3323 	 19.9102 	 83.3496
| 33> H 	 -44.5086 	 19.8142 	 82.66
| 34> H 	 -46.105 	 19.1781 	 83.1242
| 35> C 	 -44.7863 	 19.4215 	 84.6752
| 36> H 	 -44.6075 	 18.3337 	 84.6476
| 37> H 	 -45.4824 	 19.707 	 85.4151
| 38> H 	 -43.8856 	 19.9979 	 85.0092
| 39> H 	 -47.15 	 27.4033 	 83.5418
| 40> H 	 -47.4565 	 20.5025 	 79.0358
| 41> *
| 42>
| 43>                          ****END OF INPUT****

CARTESIAN COORDINATES (ANGSTROEM)
---------------------------------
  S    -46.764300   25.498900   82.027300
  C    -47.422100   26.356300   83.392700
  C    -48.176600   25.454100   84.184000
  C    -48.224300   24.093900   83.680500
  C    -47.577400   23.997900   82.438400
  H    -48.554400   23.148500   84.057800
  C    -48.989900   25.795500   85.429400
  H    -49.986900   25.382300   85.403100
  H    -49.236800   26.858700   85.386900
  C    -48.237400   25.481600   86.758900
  H    -47.912700   24.464900   86.775800
  H    -47.239200   25.993700   86.768400
  C    -48.882500   25.888500   88.058000
  H    -49.854200   25.323300   88.161900
  H    -48.237100   25.617100   88.930000
  H    -49.179400   26.922100   87.954200
  S    -47.936600   22.780700   80.008700
  C    -47.427000   21.108100   79.871000
  C    -46.719800   20.678100   80.922500
  C    -46.650000   21.643700   82.027300
  C    -47.247100   22.822100   81.684500
  H    -46.394800   19.662500   80.975100
  C    -45.887200   21.290400   83.337300
  H    -46.637700   21.385000   84.162600
  H    -45.183800   22.089200   83.466000
  C    -45.332300   19.910200   83.349600
  H    -44.508600   19.814200   82.660000
  H    -46.105000   19.178100   83.124200
  C    -44.786300   19.421500   84.675200
  H    -44.607500   18.333700   84.647600
  H    -45.482400   19.707000   85.415100
  H    -43.885600   19.997900   85.009200
  H    -47.150000   27.403300   83.541800
  H    -47.456500   20.502500   79.035800

 Total Charge           Charge          ....    0
 Multiplicity           Mult            ....    1
 Number of Electrons    NEL             ....  134
 Basis Dimension        Dim             ....  322

ORBITAL ENERGIES
----------------

  NO   OCC          E(Eh)            E(eV)
   0   2.0000     -88.963683     -2420.8249
   1   2.0000     -88.960886     -2420.7488
   2   2.0000     -10.326670      -281.0030
   3   2.0000     -10.324322      -280.9391
   4   2.0000     -10.322101      -280.8786
   5   2.0000     -10.312953      -280.6297
   6   2.0000     -10.307938      -280.4932
   7   2.0000     -10.307172      -280.4724
   8   2.0000     -10.298925      -280.2480
   9   2.0000     -10.297628      -280.2127
  10   2.0000     -10.292468      -280.0723
  11   2.0000     -10.287150      -279.9276
  12   2.0000     -10.284043      -279.8430
  13   2.0000     -10.283981      -279.8414
  14   2.0000     -10.282738      -279.8075
  15   2.0000     -10.278695      -279.6975
  16   2.0000      -8.078658      -219.8315
  17   2.0000      -8.075083      -219.7342
  18   2.0000      -6.037104      -164.2780
  19   2.0000      -6.033776      -164.1874
  20   2.0000      -6.032935      -164.1645
  21   2.0000      -6.029857      -164.0807
  22   2.0000      -6.029662      -164.0754
  23   2.0000      -6.025481      -163.9617
  24   2.0000      -1.001930       -27.2639
  25   2.0000      -0.978163       -26.6172
  26   2.0000      -0.918176       -24.9848
  27   2.0000      -0.907084       -24.6830
  28   2.0000      -0.873167       -23.7601
  29   2.0000      -0.851189       -23.1620
  30   2.0000      -0.845502       -23.0073
  31   2.0000      -0.816325       -22.2133
  32   2.0000      -0.783922       -21.3316
  33   2.0000      -0.770053       -20.9542
  34   2.0000      -0.705823       -19.2064
  35   2.0000      -0.701185       -19.0802
  36   2.0000      -0.695124       -18.9153
  37   2.0000      -0.656694       -17.8696
  38   2.0000      -0.648374       -17.6432
  39   2.0000      -0.612439       -16.6653
  40   2.0000      -0.597612       -16.2619
  41   2.0000      -0.581136       -15.8135
  42   2.0000      -0.563817       -15.3422
  43   2.0000      -0.554725       -15.0948
  44   2.0000      -0.539036       -14.6679
  45   2.0000      -0.531733       -14.4692
  46   2.0000      -0.519893       -14.1470
  47   2.0000      -0.514892       -14.0109
  48   2.0000      -0.505594       -13.7579
  49   2.0000      -0.495475       -13.4826
  50   2.0000      -0.490271       -13.3409
  51   2.0000      -0.478275       -13.0145
  52   2.0000      -0.470688       -12.8081
  53   2.0000      -0.463028       -12.5996
  54   2.0000      -0.457949       -12.4614
  55   2.0000      -0.452943       -12.3252
  56   2.0000      -0.445821       -12.1314
  57   2.0000      -0.436479       -11.8772
  58   2.0000      -0.434062       -11.8114
  59   2.0000      -0.424942       -11.5633
  60   2.0000      -0.421056       -11.4575
  61   2.0000      -0.411657       -11.2017
  62   2.0000      -0.406186       -11.0529
  63   2.0000      -0.339331        -9.2337
  64   2.0000      -0.331071        -9.0089
  65   2.0000      -0.327484        -8.9113
  66   2.0000      -0.298967        -8.1353
  67   0.0000       0.034944         0.9509
  68   0.0000       0.063762         1.7350
  69   0.0000       0.114020         3.1027
  70   0.0000       0.115268         3.1366
  71   0.0000       0.127530         3.4703

MULLIKEN ATOMIC CHARGES
-----------------------
   0 S :    0.103571
   1 C :   -0.120851
   2 C :   -0.088516
   3 C :    0.052294
   4 C :   -0.169374
   5 H :    0.012840
   6 C :    0.070844
   7 H :    0.027358
   8 H :    0.011000
   9 C :   -0.088535
  10 H :    0.012709
  11 H :    0.023971
  12 C :   -0.039527
  13 H :    0.026761
  14 H :    0.052697
  15 H :    0.030702
  16 S :    0.093166
  17 C :   -0.016104
  18 C :   -0.055571
  19 C :   -0.056108
  20 C :   -0.183432
  21 H :    0.013312
  22 C :    0.115138
  23 H :    0.024686
  24 H :    0.039386
  25 C :   -0.117726
  26 H :    0.033953
  27 H :    0.036857
  28 C :   -0.012314
  29 H :    0.045953
  30 H :    0.007733
  31 H :    0.027416
  32 H :    0.065094
  33 H :    0.020617
Sum of atomic charges:    0.0000000

LOEWDIN ATOMIC CHARGES
----------------------
   0 S :    0.411793
   1 C :   -0.202725
   2 C :   -0.056169
   3 C :   -0.055452
   4 C :   -0.198209
   5 H :    0.032364
   6 C :   -0.034145
   7 H :    0.029090
   8 H :    0.027905
   9 C :   -0.049427
  10 H :    0.015521
  11 H :    0.028096
  12 C :   -0.069552
  13 H :    0.026161
  14 H :    0.035949
  15 H :    0.023453
  16 S :    0.369860
  17 C :   -0.164862
  18 C :   -0.073341
  19 C :   -0.044028
  20 C :   -0.192034
  21 H :    0.027902
  22 C :   -0.025622
  23 H :    0.034960
  24 H :    0.034606
  25 C :   -0.049682
  26 H :    0.024786
  27 H :    0.028144
  28 C :   -0.060824
  29 H :    0.031927
  30 H :    0.015168
  31 H :    0.028078
  32 H :    0.033301
  33 H :    0.017010

  Mayer bond orders larger than 0.100000
B(  0-S ,  1-C ) :   1.1500 B(  0-S ,  4-C ) :   1.1698 B(  1-C ,  2-C ) :   1.5769
B(  1-C ,  4-C ) :   0.1030 B(  1-C , 32-H ) :   0.9753 B(  2-C ,  3-C ) :   1.2229
B(  2-C ,  6-C ) :   1.0320 B(  3-C ,  4-C ) :   1.5766 B(  3-C ,  5-H ) :   1.0010
B(  4-C , 20-C ) :   1.0160 B(  6-C ,  7-H ) :   0.9465 B(  6-C ,  8-H ) :   0.9398
B(  6-C ,  9-C ) :   1.0469 B(  9-C , 10-H ) :   0.9569 B(  9-C , 11-H ) :   0.9526
B(  9-C , 12-C ) :   1.0881 B( 12-C , 13-H ) :   0.9723 B( 12-C , 14-H ) :   0.9715
B( 12-C , 15-H ) :   0.9727 B( 16-S , 17-C ) :   1.1265 B( 16-S , 20-C ) :   1.1063
B( 17-C , 18-C ) :   1.6788 B( 17-C , 33-H ) :   0.9567 B( 18-C , 19-C ) :   1.1925
B( 18-C , 21-H ) :   0.9831 B( 19-C , 20-C ) :   1.6817 B( 19-C , 22-C ) :   1.0069
B( 22-C , 23-H ) :   0.9242 B( 22-C , 24-H ) :   0.9283 B( 22-C , 25-C ) :   1.1094
B( 25-C , 26-H ) :   0.9427 B( 25-C , 27-H ) :   0.9443 B( 25-C , 28-C ) :   1.0891
B( 28-C , 29-H ) :   0.9732 B( 28-C , 30-H ) :   0.9704 B( 28-C , 31-H ) :   0.9701

Dispersion correction           -0.013466210
FINAL SINGLE POINT ENERGY     -1339.871270059226

DIPOLE MOMENT
-------------
                                X             Y             Z
Electronic contribution:     -2.84058       8.08503     -29.11903
Nuclear contribution   :      3.00031      -8.47396      29.74924
                        -----------------------------------------
Total Dipole Moment    :      0.15974      -0.38893       0.63020
                        -----------------------------------------
Magnitude (a.u.)       :      0.75759
Magnitude (Debye)      :      1.92563

Rotational constants in cm-1:     0.016796     0.008255     0.006128
Rotational constants in MHz :   503.520101   247.475363   183.704877

                             ****ORCA TERMINATED NORMALLY****
TOTAL RUN TIME: 0 days 0 hours 0 minutes 28 seconds 800 msec
