                         Program Version 4.2.1 -  RELEASE  -
|  1> ! wB97X-D3 SP def2-SVP
|  2> %pal
|  3> nprocs 16
|  4> end
|  5>
|  6> * xyz 0 1
|  7> S 	 -16.5611 	 36.9932 	 38.3553
|  8> C 	 -15.6442 	 37.552 	 39.7423
|  9> C 	 -14.6055 	 36.6955 	 40.0722
| 10> C 	 -14.2903 	 35.8782 	 38.9139
| 11> C 	 -15.3041 	 35.8149 	 37.9839
| 12> H 	 -13.4277 	 35.2582 	 38.7397
| 13> C 	 -13.6796 	 36.8345 	 41.2812
| 14> H 	 -12.9736 	 36.0306 	 41.2687
| 15> H 	 -14.2098 	 36.6586 	 42.2178
| 16> C 	 -12.9373 	 38.194 	 41.4771
| 17> H 	 -13.659 	 38.8176 	 41.8921
| 18> H 	 -12.2391 	 37.9606 	 42.2646
| 19> C 	 -12.1861 	 38.8248 	 40.2931
| 20> H 	 -11.633 	 38.0187 	 39.7989
| 21> H 	 -12.8725 	 39.4339 	 39.6393
| 22> H 	 -11.4933 	 39.5481 	 40.6911
| 23> S 	 -15.3863 	 36.3678 	 35.2889
| 24> C 	 -15.3118 	 35.1598 	 34.063
| 25> C 	 -15.0331 	 33.9463 	 34.6813
| 26> C 	 -15.0452 	 33.9565 	 36.147
| 27> C 	 -15.2454 	 35.1954 	 36.6573
| 28> H 	 -14.6443 	 33.1584 	 34.0573
| 29> C 	 -14.8562 	 32.7042 	 36.9194
| 30> H 	 -14.4424 	 32.8999 	 37.9247
| 31> H 	 -13.9956 	 32.2 	 36.4443
| 32> C 	 -16.1193 	 31.7396 	 36.9795
| 33> H 	 -16.6869 	 31.8882 	 36.1072
| 34> H 	 -16.8494 	 32.0739 	 37.7515
| 35> C 	 -15.8427 	 30.273 	 37.0222
| 36> H 	 -16.7417 	 29.6905 	 36.8292
| 37> H 	 -15.4178 	 29.9019 	 37.999
| 38> H 	 -15.2373 	 29.8894 	 36.1946
| 39> H 	 -16.0731 	 38.3177 	 40.4585
| 40> H 	 -14.9452 	 35.3067 	 33.0517
| 41> *
| 42>
| 43>                          ****END OF INPUT****

CARTESIAN COORDINATES (ANGSTROEM)
---------------------------------
  S    -16.561100   36.993200   38.355300
  C    -15.644200   37.552000   39.742300
  C    -14.605500   36.695500   40.072200
  C    -14.290300   35.878200   38.913900
  C    -15.304100   35.814900   37.983900
  H    -13.427700   35.258200   38.739700
  C    -13.679600   36.834500   41.281200
  H    -12.973600   36.030600   41.268700
  H    -14.209800   36.658600   42.217800
  C    -12.937300   38.194000   41.477100
  H    -13.659000   38.817600   41.892100
  H    -12.239100   37.960600   42.264600
  C    -12.186100   38.824800   40.293100
  H    -11.633000   38.018700   39.798900
  H    -12.872500   39.433900   39.639300
  H    -11.493300   39.548100   40.691100
  S    -15.386300   36.367800   35.288900
  C    -15.311800   35.159800   34.063000
  C    -15.033100   33.946300   34.681300
  C    -15.045200   33.956500   36.147000
  C    -15.245400   35.195400   36.657300
  H    -14.644300   33.158400   34.057300
  C    -14.856200   32.704200   36.919400
  H    -14.442400   32.899900   37.924700
  H    -13.995600   32.200000   36.444300
  C    -16.119300   31.739600   36.979500
  H    -16.686900   31.888200   36.107200
  H    -16.849400   32.073900   37.751500
  C    -15.842700   30.273000   37.022200
  H    -16.741700   29.690500   36.829200
  H    -15.417800   29.901900   37.999000
  H    -15.237300   29.889400   36.194600
  H    -16.073100   38.317700   40.458500
  H    -14.945200   35.306700   33.051700

 Total Charge           Charge          ....    0
 Multiplicity           Mult            ....    1
 Number of Electrons    NEL             ....  134
 Basis Dimension        Dim             ....  322

ORBITAL ENERGIES
----------------

  NO   OCC          E(Eh)            E(eV)
   0   2.0000     -88.966077     -2420.8900
   1   2.0000     -88.957025     -2420.6437
   2   2.0000     -10.329665      -281.0845
   3   2.0000     -10.329383      -281.0768
   4   2.0000     -10.319930      -280.8196
   5   2.0000     -10.314686      -280.6769
   6   2.0000     -10.306871      -280.4642
   7   2.0000     -10.304111      -280.3891
   8   2.0000     -10.297716      -280.2151
   9   2.0000     -10.295310      -280.1496
  10   2.0000     -10.294488      -280.1273
  11   2.0000     -10.292743      -280.0798
  12   2.0000     -10.284868      -279.8655
  13   2.0000     -10.281991      -279.7872
  14   2.0000     -10.280261      -279.7401
  15   2.0000     -10.279135      -279.7095
  16   2.0000      -8.080625      -219.8850
  17   2.0000      -8.071716      -219.6426
  18   2.0000      -6.039159      -164.3339
  19   2.0000      -6.035232      -164.2270
  20   2.0000      -6.031264      -164.1190
  21   2.0000      -6.030438      -164.0966
  22   2.0000      -6.026104      -163.9786
  23   2.0000      -6.022334      -163.8760
  24   2.0000      -1.004168       -27.3248
  25   2.0000      -0.981408       -26.7055
  26   2.0000      -0.908420       -24.7194
  27   2.0000      -0.905311       -24.6348
  28   2.0000      -0.868704       -23.6386
  29   2.0000      -0.852635       -23.2014
  30   2.0000      -0.843783       -22.9605
  31   2.0000      -0.812402       -22.1066
  32   2.0000      -0.783858       -21.3298
  33   2.0000      -0.773882       -21.0584
  34   2.0000      -0.705355       -19.1937
  35   2.0000      -0.702640       -19.1198
  36   2.0000      -0.693688       -18.8762
  37   2.0000      -0.660860       -17.9829
  38   2.0000      -0.639556       -17.4032
  39   2.0000      -0.610133       -16.6026
  40   2.0000      -0.591581       -16.0978
  41   2.0000      -0.574769       -15.6403
  42   2.0000      -0.555092       -15.1048
  43   2.0000      -0.547416       -14.8959
  44   2.0000      -0.538099       -14.6424
  45   2.0000      -0.524702       -14.2779
  46   2.0000      -0.517932       -14.0936
  47   2.0000      -0.511848       -13.9281
  48   2.0000      -0.508504       -13.8371
  49   2.0000      -0.496792       -13.5184
  50   2.0000      -0.487320       -13.2606
  51   2.0000      -0.477891       -13.0041
  52   2.0000      -0.469584       -12.7780
  53   2.0000      -0.464232       -12.6324
  54   2.0000      -0.456274       -12.4158
  55   2.0000      -0.449091       -12.2204
  56   2.0000      -0.443174       -12.0594
  57   2.0000      -0.434484       -11.8229
  58   2.0000      -0.428318       -11.6551
  59   2.0000      -0.423723       -11.5301
  60   2.0000      -0.419468       -11.4143
  61   2.0000      -0.414556       -11.2806
  62   2.0000      -0.410040       -11.1578
  63   2.0000      -0.348467        -9.4823
  64   2.0000      -0.331148        -9.0110
  65   2.0000      -0.318417        -8.6646
  66   2.0000      -0.298437        -8.1209
  67   0.0000       0.031217         0.8495
  68   0.0000       0.060513         1.6466
  69   0.0000       0.106006         2.8846
  70   0.0000       0.112286         3.0555
  71   0.0000       0.132286         3.5997

MULLIKEN ATOMIC CHARGES
-----------------------
   0 S :    0.113412
   1 C :   -0.154777
   2 C :   -0.072185
   3 C :    0.029494
   4 C :   -0.152265
   5 H :    0.015445
   6 C :    0.066366
   7 H :    0.005625
   8 H :    0.030632
   9 C :   -0.069084
  10 H :    0.012330
  11 H :    0.024317
  12 C :   -0.034939
  13 H :    0.036566
  14 H :    0.049476
  15 H :    0.030599
  16 S :    0.079169
  17 C :   -0.073014
  18 C :   -0.069767
  19 C :   -0.043307
  20 C :   -0.144810
  21 H :    0.021831
  22 C :    0.058481
  23 H :    0.021211
  24 H :    0.021913
  25 C :   -0.033709
  26 H :    0.013131
  27 H :    0.039537
  28 C :   -0.063782
  29 H :    0.026425
  30 H :    0.040565
  31 H :    0.026380
  32 H :    0.075341
  33 H :    0.073395
Sum of atomic charges:    0.0000000

LOEWDIN ATOMIC CHARGES
----------------------
   0 S :    0.400039
   1 C :   -0.199256
   2 C :   -0.063032
   3 C :   -0.052524
   4 C :   -0.196612
   5 H :    0.029749
   6 C :   -0.032431
   7 H :    0.021615
   8 H :    0.035951
   9 C :   -0.034807
  10 H :    0.011963
  11 H :    0.025013
  12 C :   -0.065449
  13 H :    0.028484
  14 H :    0.035506
  15 H :    0.025834
  16 S :    0.384844
  17 C :   -0.202332
  18 C :   -0.069897
  19 C :   -0.063626
  20 C :   -0.173749
  21 H :    0.026963
  22 C :   -0.035063
  23 H :    0.029563
  24 H :    0.034072
  25 C :   -0.040169
  26 H :    0.020316
  27 H :    0.034075
  28 C :   -0.073889
  29 H :    0.028799
  30 H :    0.028156
  31 H :    0.025629
  32 H :    0.038166
  33 H :    0.038098

  Mayer bond orders larger than 0.100000
B(  0-S ,  1-C ) :   1.1460 B(  0-S ,  4-C ) :   1.1365 B(  1-C ,  2-C ) :   1.6131
B(  1-C , 32-H ) :   0.9580 B(  2-C ,  3-C ) :   1.2048 B(  2-C ,  6-C ) :   1.0351
B(  3-C ,  4-C ) :   1.6197 B(  3-C ,  5-H ) :   0.9833 B(  4-C , 20-C ) :   1.0181
B(  6-C ,  7-H ) :   0.9411 B(  6-C ,  8-H ) :   0.9353 B(  6-C ,  9-C ) :   1.0757
B(  9-C , 10-H ) :   0.9554 B(  9-C , 11-H ) :   0.9552 B(  9-C , 12-C ) :   1.0778
B( 12-C , 13-H ) :   0.9775 B( 12-C , 14-H ) :   0.9724 B( 12-C , 15-H ) :   0.9731
B( 16-S , 17-C ) :   1.1499 B( 16-S , 20-C ) :   1.1222 B( 17-C , 18-C ) :   1.6392
B( 17-C , 33-H ) :   0.9562 B( 18-C , 19-C ) :   1.2033 B( 18-C , 21-H ) :   0.9826
B( 19-C , 20-C ) :   1.6449 B( 19-C , 22-C ) :   1.0644 B( 22-C , 23-H ) :   0.9309
B( 22-C , 24-H ) :   0.9360 B( 22-C , 25-C ) :   1.0392 B( 25-C , 26-H ) :   0.9579
B( 25-C , 27-H ) :   0.9510 B( 25-C , 28-C ) :   1.0933 B( 28-C , 29-H ) :   0.9691
B( 28-C , 30-H ) :   0.9752 B( 28-C , 31-H ) :   0.9705

Dispersion correction           -0.013820225
FINAL SINGLE POINT ENERGY     -1339.864986913109

DIPOLE MOMENT
-------------
                                X             Y             Z
Electronic contribution:    -11.38571      11.80703     -12.69709
Nuclear contribution   :     11.94892     -12.13900      13.07689
                        -----------------------------------------
Total Dipole Moment    :      0.56321      -0.33196       0.37980
                        -----------------------------------------
Magnitude (a.u.)       :      0.75608
Magnitude (Debye)      :      1.92180

Rotational constants in cm-1:     0.020051     0.007586     0.006494
Rotational constants in MHz :   601.116926   227.434452   194.682818

                             ****ORCA TERMINATED NORMALLY****
TOTAL RUN TIME: 0 days 0 hours 0 minutes 32 seconds 766 msec
