                         Program Version 4.2.1 -  RELEASE  -
|  1> ! wB97X-D3 SP def2-SVP
|  2> %pal
|  3> nprocs 16
|  4> end
|  5>
|  6> * xyz 0 1
|  7> S 	 35.8379 	 14.8236 	 64.7872
|  8> C 	 35.5395 	 15.9599 	 66.0328
|  9> C 	 36.6939 	 16.259 	 66.7773
| 10> C 	 37.8295 	 15.774 	 66.0142
| 11> C 	 37.5808 	 14.9999 	 64.95
| 12> H 	 38.899 	 15.8165 	 66.2209
| 13> C 	 36.7529 	 17.076 	 68.0372
| 14> H 	 37.5905 	 16.7156 	 68.643
| 15> H 	 35.8203 	 16.9013 	 68.483
| 16> C 	 37.0802 	 18.558 	 67.9454
| 17> H 	 38.0134 	 18.6735 	 67.347
| 18> H 	 36.3176 	 18.9965 	 67.382
| 19> C 	 37.1886 	 19.224 	 69.3117
| 20> H 	 37.8539 	 18.6261 	 69.9869
| 21> H 	 37.6374 	 20.2496 	 69.3328
| 22> H 	 36.2078 	 19.2189 	 69.7981
| 23> S 	 39.0026 	 15.0279 	 62.5109
| 24> C 	 39.7662 	 13.5257 	 62.0132
| 25> C 	 40.0467 	 12.7773 	 63.1127
| 26> C 	 39.3247 	 13.1915 	 64.2972
| 27> C 	 38.571 	 14.3607 	 64.0719
| 28> H 	 40.7845 	 11.9499 	 63.0394
| 29> C 	 39.0528 	 12.3239 	 65.5195
| 30> H 	 38.8118 	 12.8572 	 66.409
| 31> H 	 40.0026 	 11.8078 	 65.7315
| 32> C 	 38.0331 	 11.1218 	 65.2965
| 33> H 	 38.0402 	 10.5882 	 66.236
| 34> H 	 38.4132 	 10.5437 	 64.5256
| 35> C 	 36.5667 	 11.407 	 64.9778
| 36> H 	 36.1348 	 10.4492 	 64.9433
| 37> H 	 36.3568 	 11.9759 	 64.0216
| 38> H 	 36.1455 	 11.9332 	 65.8403
| 39> H 	 34.4828 	 16.1317 	 66.2686
| 40> H 	 40.2158 	 13.5057 	 61.0631
| 41> *
| 42>
| 43>                          ****END OF INPUT****

CARTESIAN COORDINATES (ANGSTROEM)
---------------------------------
  S     35.837900   14.823600   64.787200
  C     35.539500   15.959900   66.032800
  C     36.693900   16.259000   66.777300
  C     37.829500   15.774000   66.014200
  C     37.580800   14.999900   64.950000
  H     38.899000   15.816500   66.220900
  C     36.752900   17.076000   68.037200
  H     37.590500   16.715600   68.643000
  H     35.820300   16.901300   68.483000
  C     37.080200   18.558000   67.945400
  H     38.013400   18.673500   67.347000
  H     36.317600   18.996500   67.382000
  C     37.188600   19.224000   69.311700
  H     37.853900   18.626100   69.986900
  H     37.637400   20.249600   69.332800
  H     36.207800   19.218900   69.798100
  S     39.002600   15.027900   62.510900
  C     39.766200   13.525700   62.013200
  C     40.046700   12.777300   63.112700
  C     39.324700   13.191500   64.297200
  C     38.571000   14.360700   64.071900
  H     40.784500   11.949900   63.039400
  C     39.052800   12.323900   65.519500
  H     38.811800   12.857200   66.409000
  H     40.002600   11.807800   65.731500
  C     38.033100   11.121800   65.296500
  H     38.040200   10.588200   66.236000
  H     38.413200   10.543700   64.525600
  C     36.566700   11.407000   64.977800
  H     36.134800   10.449200   64.943300
  H     36.356800   11.975900   64.021600
  H     36.145500   11.933200   65.840300
  H     34.482800   16.131700   66.268600
  H     40.215800   13.505700   61.063100

 Total Charge           Charge          ....    0
 Multiplicity           Mult            ....    1
 Number of Electrons    NEL             ....  134
 Basis Dimension        Dim             ....  322

ORBITAL ENERGIES
----------------

  NO   OCC          E(Eh)            E(eV)
   0   2.0000     -88.960882     -2420.7487
   1   2.0000     -88.959623     -2420.7144
   2   2.0000     -10.326370      -280.9948
   3   2.0000     -10.321873      -280.8724
   4   2.0000     -10.317367      -280.7498
   5   2.0000     -10.314745      -280.6785
   6   2.0000     -10.307622      -280.4847
   7   2.0000     -10.307477      -280.4807
   8   2.0000     -10.300660      -280.2952
   9   2.0000     -10.291010      -280.0326
  10   2.0000     -10.289596      -279.9941
  11   2.0000     -10.287587      -279.9395
  12   2.0000     -10.285340      -279.8783
  13   2.0000     -10.282184      -279.7924
  14   2.0000     -10.278510      -279.6925
  15   2.0000     -10.269233      -279.4400
  16   2.0000      -8.076147      -219.7631
  17   2.0000      -8.074700      -219.7237
  18   2.0000      -6.034563      -164.2088
  19   2.0000      -6.033121      -164.1696
  20   2.0000      -6.030555      -164.0997
  21   2.0000      -6.029306      -164.0658
  22   2.0000      -6.026969      -164.0022
  23   2.0000      -6.025379      -163.9589
  24   2.0000      -1.006256       -27.3816
  25   2.0000      -0.985689       -26.8220
  26   2.0000      -0.916454       -24.9380
  27   2.0000      -0.900095       -24.4928
  28   2.0000      -0.871717       -23.7206
  29   2.0000      -0.848564       -23.0906
  30   2.0000      -0.843877       -22.9631
  31   2.0000      -0.819041       -22.2872
  32   2.0000      -0.782350       -21.2888
  33   2.0000      -0.768702       -20.9174
  34   2.0000      -0.704353       -19.1664
  35   2.0000      -0.696115       -18.9423
  36   2.0000      -0.690567       -18.7913
  37   2.0000      -0.654082       -17.7985
  38   2.0000      -0.650661       -17.7054
  39   2.0000      -0.616097       -16.7648
  40   2.0000      -0.598855       -16.2957
  41   2.0000      -0.578654       -15.7460
  42   2.0000      -0.562352       -15.3024
  43   2.0000      -0.549223       -14.9451
  44   2.0000      -0.538498       -14.6533
  45   2.0000      -0.526502       -14.3268
  46   2.0000      -0.515194       -14.0191
  47   2.0000      -0.508484       -13.8366
  48   2.0000      -0.504484       -13.7277
  49   2.0000      -0.494947       -13.4682
  50   2.0000      -0.489533       -13.3209
  51   2.0000      -0.476619       -12.9695
  52   2.0000      -0.471482       -12.8297
  53   2.0000      -0.463969       -12.6252
  54   2.0000      -0.458336       -12.4719
  55   2.0000      -0.449606       -12.2344
  56   2.0000      -0.440973       -11.9995
  57   2.0000      -0.433474       -11.7954
  58   2.0000      -0.427916       -11.6442
  59   2.0000      -0.423901       -11.5349
  60   2.0000      -0.422016       -11.4836
  61   2.0000      -0.420100       -11.4315
  62   2.0000      -0.408778       -11.1234
  63   2.0000      -0.335163        -9.1202
  64   2.0000      -0.328180        -8.9302
  65   2.0000      -0.318616        -8.6700
  66   2.0000      -0.308501        -8.3947
  67   0.0000       0.037446         1.0190
  68   0.0000       0.058642         1.5957
  69   0.0000       0.102976         2.8021
  70   0.0000       0.113197         3.0802
  71   0.0000       0.139469         3.7951

MULLIKEN ATOMIC CHARGES
-----------------------
   0 S :    0.107559
   1 C :   -0.133345
   2 C :   -0.084676
   3 C :    0.044778
   4 C :   -0.175518
   5 H :    0.011280
   6 C :    0.085456
   7 H :    0.019580
   8 H :    0.009552
   9 C :   -0.040086
  10 H :    0.031495
  11 H :    0.012258
  12 C :   -0.063887
  13 H :    0.024061
  14 H :    0.050085
  15 H :    0.032835
  16 S :    0.097855
  17 C :   -0.081912
  18 C :   -0.041271
  19 C :   -0.018601
  20 C :   -0.186094
  21 H :    0.037543
  22 C :    0.075232
  23 H :    0.018996
  24 H :    0.017331
  25 C :   -0.058114
  26 H :    0.027104
  27 H :    0.011092
  28 C :   -0.046608
  29 H :    0.022935
  30 H :    0.051747
  31 H :    0.030412
  32 H :    0.061820
  33 H :    0.049104
Sum of atomic charges:   -0.0000000

LOEWDIN ATOMIC CHARGES
----------------------
   0 S :    0.425678
   1 C :   -0.200935
   2 C :   -0.062699
   3 C :   -0.060780
   4 C :   -0.200796
   5 H :    0.034508
   6 C :   -0.029563
   7 H :    0.033988
   8 H :    0.023478
   9 C :   -0.038152
  10 H :    0.028941
  11 H :    0.014386
  12 C :   -0.071376
  13 H :    0.025300
  14 H :    0.033935
  15 H :    0.026460
  16 S :    0.394798
  17 C :   -0.168266
  18 C :   -0.073798
  19 C :   -0.053290
  20 C :   -0.202503
  21 H :    0.038587
  22 C :   -0.031304
  23 H :    0.023197
  24 H :    0.032725
  25 C :   -0.026971
  26 H :    0.025627
  27 H :    0.011215
  28 C :   -0.069382
  29 H :    0.021169
  30 H :    0.027348
  31 H :    0.020986
  32 H :    0.028465
  33 H :    0.019024

  Mayer bond orders larger than 0.100000
B(  0-S ,  1-C ) :   1.1775 B(  0-S ,  4-C ) :   1.1268 B(  1-C ,  2-C ) :   1.5763
B(  1-C , 32-H ) :   0.9676 B(  2-C ,  3-C ) :   1.2014 B(  2-C ,  6-C ) :   1.0459
B(  3-C ,  4-C ) :   1.6489 B(  3-C ,  5-H ) :   0.9848 B(  4-C , 20-C ) :   1.0235
B(  6-C ,  7-H ) :   0.9325 B(  6-C ,  8-H ) :   0.9326 B(  6-C ,  9-C ) :   1.0691
B(  9-C , 10-H ) :   0.9541 B(  9-C , 11-H ) :   0.9522 B(  9-C , 12-C ) :   1.0776
B( 12-C , 13-H ) :   0.9737 B( 12-C , 14-H ) :   0.9735 B( 12-C , 15-H ) :   0.9738
B( 16-S , 17-C ) :   1.1517 B( 16-S , 20-C ) :   1.1497 B( 17-C , 18-C ) :   1.6143
B( 17-C , 33-H ) :   0.9745 B( 18-C , 19-C ) :   1.2220 B( 18-C , 21-H ) :   0.9842
B( 19-C , 20-C ) :   1.5803 B( 19-C , 22-C ) :   1.0664 B( 22-C , 23-H ) :   0.9329
B( 22-C , 24-H ) :   0.9273 B( 22-C , 25-C ) :   1.0664 B( 25-C , 26-H ) :   0.9547
B( 25-C , 27-H ) :   0.9571 B( 25-C , 28-C ) :   1.0843 B( 28-C , 29-H ) :   0.9684
B( 28-C , 30-H ) :   0.9721 B( 28-C , 31-H ) :   0.9733

Dispersion correction           -0.015142506
FINAL SINGLE POINT ENERGY     -1339.868754785254

DIPOLE MOMENT
-------------
                                X             Y             Z
Electronic contribution:      1.52449      -0.63361     -20.64459
Nuclear contribution   :     -1.33472       0.43897      21.15132
                        -----------------------------------------
Total Dipole Moment    :      0.18977      -0.19465       0.50674
                        -----------------------------------------
Magnitude (a.u.)       :      0.57505
Magnitude (Debye)      :      1.46166

Rotational constants in cm-1:     0.022026     0.007662     0.006931
Rotational constants in MHz :   660.328700   229.704206   207.796404

                             ****ORCA TERMINATED NORMALLY****
TOTAL RUN TIME: 0 days 0 hours 0 minutes 29 seconds 169 msec
