                         Program Version 4.2.1 -  RELEASE  -
|  1> ! wB97X-D3 SP def2-SVP
|  2> %pal
|  3> nprocs 16
|  4> end
|  5>
|  6> * xyz 0 1
|  7> S 	 -74.2747 	 34.9056 	 119.279
|  8> C 	 -73.3958 	 33.9501 	 118.052
|  9> C 	 -71.9967 	 34.0925 	 118.141
| 10> C 	 -71.7215 	 34.7653 	 119.348
| 11> C 	 -72.7434 	 35.3425 	 120.037
| 12> H 	 -70.7763 	 34.9919 	 119.743
| 13> C 	 -70.958 	 33.562 	 117.199
| 14> H 	 -70.3196 	 34.3714 	 116.914
| 15> H 	 -71.5318 	 33.195 	 116.333
| 16> C 	 -70.2111 	 32.349 	 117.767
| 17> H 	 -69.2778 	 32.2491 	 117.283
| 18> H 	 -70.1508 	 32.5604 	 118.792
| 19> C 	 -70.9499 	 31.0107 	 117.436
| 20> H 	 -70.5763 	 30.2014 	 118.048
| 21> H 	 -71.9976 	 31.0296 	 117.548
| 22> H 	 -70.7856 	 30.7396 	 116.29
| 23> S 	 -72.6388 	 38.0541 	 120.605
| 24> C 	 -72.1401 	 38.5802 	 122.19
| 25> C 	 -71.8586 	 37.5007 	 123.011
| 26> C 	 -72.0458 	 36.277 	 122.358
| 27> C 	 -72.5845 	 36.3539 	 121.035
| 28> H 	 -71.5473 	 37.7757 	 124.028
| 29> C 	 -71.693 	 34.9668 	 123.082
| 30> H 	 -72.5624 	 34.3224 	 123.01
| 31> H 	 -71.6353 	 35.2384 	 124.13
| 32> C 	 -70.3883 	 34.2472 	 122.662
| 33> H 	 -69.5178 	 34.9185 	 122.689
| 34> H 	 -70.5175 	 33.8421 	 121.64
| 35> C 	 -70.1365 	 32.9978 	 123.523
| 36> H 	 -69.2371 	 32.4373 	 123.306
| 37> H 	 -70.981 	 32.4168 	 123.47
| 38> H 	 -69.9515 	 33.2196 	 124.528
| 39> H 	 -73.9285 	 33.3564 	 117.354
| 40> H 	 -72.2317 	 39.6135 	 122.518
| 41> *
| 42>
| 43>                          ****END OF INPUT****

CARTESIAN COORDINATES (ANGSTROEM)
---------------------------------
  S    -74.274700   34.905600  119.279000
  C    -73.395800   33.950100  118.052000
  C    -71.996700   34.092500  118.141000
  C    -71.721500   34.765300  119.348000
  C    -72.743400   35.342500  120.037000
  H    -70.776300   34.991900  119.743000
  C    -70.958000   33.562000  117.199000
  H    -70.319600   34.371400  116.914000
  H    -71.531800   33.195000  116.333000
  C    -70.211100   32.349000  117.767000
  H    -69.277800   32.249100  117.283000
  H    -70.150800   32.560400  118.792000
  C    -70.949900   31.010700  117.436000
  H    -70.576300   30.201400  118.048000
  H    -71.997600   31.029600  117.548000
  H    -70.785600   30.739600  116.290000
  S    -72.638800   38.054100  120.605000
  C    -72.140100   38.580200  122.190000
  C    -71.858600   37.500700  123.011000
  C    -72.045800   36.277000  122.358000
  C    -72.584500   36.353900  121.035000
  H    -71.547300   37.775700  124.028000
  C    -71.693000   34.966800  123.082000
  H    -72.562400   34.322400  123.010000
  H    -71.635300   35.238400  124.130000
  C    -70.388300   34.247200  122.662000
  H    -69.517800   34.918500  122.689000
  H    -70.517500   33.842100  121.640000
  C    -70.136500   32.997800  123.523000
  H    -69.237100   32.437300  123.306000
  H    -70.981000   32.416800  123.470000
  H    -69.951500   33.219600  124.528000
  H    -73.928500   33.356400  117.354000
  H    -72.231700   39.613500  122.518000

 Total Charge           Charge          ....    0
 Multiplicity           Mult            ....    1
 Number of Electrons    NEL             ....  134
 Basis Dimension        Dim             ....  322

ORBITAL ENERGIES
----------------

  NO   OCC          E(Eh)            E(eV)
   0   2.0000     -88.966402     -2420.8989
   1   2.0000     -88.964249     -2420.8403
   2   2.0000     -10.325901      -280.9821
   3   2.0000     -10.324077      -280.9324
   4   2.0000     -10.320643      -280.8390
   5   2.0000     -10.316309      -280.7210
   6   2.0000     -10.305365      -280.4232
   7   2.0000     -10.304663      -280.4041
   8   2.0000     -10.293268      -280.0941
   9   2.0000     -10.292121      -280.0628
  10   2.0000     -10.288406      -279.9617
  11   2.0000     -10.288034      -279.9516
  12   2.0000     -10.286875      -279.9201
  13   2.0000     -10.285987      -279.8959
  14   2.0000     -10.283661      -279.8326
  15   2.0000     -10.263200      -279.2759
  16   2.0000      -8.080419      -219.8794
  17   2.0000      -8.078930      -219.8389
  18   2.0000      -6.038879      -164.3262
  19   2.0000      -6.037319      -164.2838
  20   2.0000      -6.035023      -164.2213
  21   2.0000      -6.033255      -164.1732
  22   2.0000      -6.031283      -164.1196
  23   2.0000      -6.030011      -164.0849
  24   2.0000      -1.005503       -27.3611
  25   2.0000      -0.982752       -26.7421
  26   2.0000      -0.917494       -24.9663
  27   2.0000      -0.903861       -24.5953
  28   2.0000      -0.870890       -23.6981
  29   2.0000      -0.850348       -23.1391
  30   2.0000      -0.847249       -23.0548
  31   2.0000      -0.813599       -22.1391
  32   2.0000      -0.784151       -21.3378
  33   2.0000      -0.770513       -20.9667
  34   2.0000      -0.713529       -19.4161
  35   2.0000      -0.703806       -19.1515
  36   2.0000      -0.693121       -18.8608
  37   2.0000      -0.655572       -17.8390
  38   2.0000      -0.650839       -17.7102
  39   2.0000      -0.623438       -16.9646
  40   2.0000      -0.593119       -16.1396
  41   2.0000      -0.577603       -15.7174
  42   2.0000      -0.565129       -15.3779
  43   2.0000      -0.554397       -15.0859
  44   2.0000      -0.544861       -14.8264
  45   2.0000      -0.525235       -14.2924
  46   2.0000      -0.522814       -14.2265
  47   2.0000      -0.512118       -13.9354
  48   2.0000      -0.508974       -13.8499
  49   2.0000      -0.494743       -13.4626
  50   2.0000      -0.481789       -13.1102
  51   2.0000      -0.475499       -12.9390
  52   2.0000      -0.473503       -12.8847
  53   2.0000      -0.465030       -12.6541
  54   2.0000      -0.459412       -12.5012
  55   2.0000      -0.446131       -12.1398
  56   2.0000      -0.441322       -12.0090
  57   2.0000      -0.438183       -11.9236
  58   2.0000      -0.433551       -11.7975
  59   2.0000      -0.428596       -11.6627
  60   2.0000      -0.423974       -11.5369
  61   2.0000      -0.419979       -11.4282
  62   2.0000      -0.412032       -11.2120
  63   2.0000      -0.341909        -9.3038
  64   2.0000      -0.330424        -8.9913
  65   2.0000      -0.322416        -8.7734
  66   2.0000      -0.299956        -8.1622
  67   0.0000       0.033474         0.9109
  68   0.0000       0.053459         1.4547
  69   0.0000       0.113227         3.0811
  70   0.0000       0.123305         3.3553
  71   0.0000       0.130626         3.5545

MULLIKEN ATOMIC CHARGES
-----------------------
   0 S :    0.106670
   1 C :   -0.117118
   2 C :   -0.097930
   3 C :    0.062526
   4 C :   -0.184879
   5 H :   -0.004825
   6 C :    0.082759
   7 H :    0.037858
   8 H :    0.016622
   9 C :   -0.016535
  10 H :    0.027368
  11 H :    0.024705
  12 C :   -0.086065
  13 H :    0.039387
  14 H :    0.022875
  15 H :    0.042377
  16 S :    0.111435
  17 C :   -0.111213
  18 C :   -0.044044
  19 C :   -0.042273
  20 C :   -0.148169
  21 H :    0.030048
  22 C :    0.072303
  23 H :    0.030020
  24 H :    0.008797
  25 C :   -0.086976
  26 H :    0.032207
  27 H :    0.038582
  28 C :    0.009829
  29 H :    0.025268
  30 H :    0.012625
  31 H :    0.004328
  32 H :    0.038083
  33 H :    0.063358
Sum of atomic charges:   -0.0000000

LOEWDIN ATOMIC CHARGES
----------------------
   0 S :    0.387463
   1 C :   -0.171189
   2 C :   -0.060111
   3 C :   -0.049416
   4 C :   -0.203506
   5 H :    0.020671
   6 C :   -0.024896
   7 H :    0.032424
   8 H :    0.032169
   9 C :   -0.026755
  10 H :    0.022472
  11 H :    0.017035
  12 C :   -0.065174
  13 H :    0.025428
  14 H :    0.012882
  15 H :    0.037228
  16 S :    0.417132
  17 C :   -0.188715
  18 C :   -0.082212
  19 C :   -0.052011
  20 C :   -0.210788
  21 H :    0.039667
  22 C :   -0.029899
  23 H :    0.031701
  24 H :    0.026470
  25 C :   -0.036880
  26 H :    0.023740
  27 H :    0.026155
  28 C :   -0.056372
  29 H :    0.027646
  30 H :    0.015296
  31 H :    0.015561
  32 H :    0.016016
  33 H :    0.030771

  Mayer bond orders larger than 0.100000
B(  0-S ,  1-C ) :   1.1561 B(  0-S ,  4-C ) :   1.1237 B(  1-C ,  2-C ) :   1.5817
B(  1-C ,  4-C ) :   0.1022 B(  1-C , 32-H ) :   0.9717 B(  2-C ,  3-C ) :   1.2376
B(  2-C ,  6-C ) :   1.0342 B(  3-C ,  4-C ) :   1.6053 B(  3-C ,  5-H ) :   0.9852
B(  4-C , 20-C ) :   1.0450 B(  6-C ,  7-H ) :   0.9342 B(  6-C ,  8-H ) :   0.9382
B(  6-C ,  9-C ) :   1.0610 B(  9-C , 10-H ) :   0.9546 B(  9-C , 11-H ) :   0.9640
B(  9-C , 12-C ) :   1.0726 B( 12-C , 13-H ) :   0.9746 B( 12-C , 14-H ) :   0.9799
B( 12-C , 15-H ) :   0.9751 B( 16-S , 17-C ) :   1.1876 B( 16-S , 20-C ) :   1.1537
B( 17-C , 18-C ) :   1.5677 B( 17-C , 20-C ) :   0.1143 B( 17-C , 33-H ) :   0.9628
B( 18-C , 19-C ) :   1.2838 B( 18-C , 21-H ) :   0.9918 B( 19-C , 20-C ) :   1.5399
B( 19-C , 22-C ) :   1.0358 B( 22-C , 23-H ) :   0.9318 B( 22-C , 24-H ) :   0.9395
B( 22-C , 25-C ) :   1.0646 B( 25-C , 26-H ) :   0.9576 B( 25-C , 27-H ) :   0.9485
B( 25-C , 28-C ) :   1.0830 B( 28-C , 29-H ) :   0.9716 B( 28-C , 30-H ) :   0.9733
B( 28-C , 31-H ) :   0.9718

Dispersion correction           -0.014705622
FINAL SINGLE POINT ENERGY     -1339.864224058080

DIPOLE MOMENT
-------------
                                X             Y             Z
Electronic contribution:    -17.72130      23.39876      -2.09506
Nuclear contribution   :     18.26352     -23.70374       2.17465
                        -----------------------------------------
Total Dipole Moment    :      0.54221      -0.30498       0.07959
                        -----------------------------------------
Magnitude (a.u.)       :      0.62717
Magnitude (Debye)      :      1.59413

Rotational constants in cm-1:     0.017853     0.009324     0.007101
Rotational constants in MHz :   535.215551   279.514304   212.891148

                             ****ORCA TERMINATED NORMALLY****
TOTAL RUN TIME: 0 days 0 hours 0 minutes 35 seconds 167 msec
