                         Program Version 4.2.1 -  RELEASE  -
|  1> ! wB97X-D3 SP def2-SVP
|  2> %pal
|  3> nprocs 16
|  4> end
|  5>
|  6> * xyz 0 1
|  7> S 	 53.0232 	 3.85054 	 92.9715
|  8> C 	 54.1341 	 5.18628 	 92.936
|  9> C 	 53.415 	 6.38338 	 92.7793
| 10> C 	 51.9638 	 6.17364 	 92.8386
| 11> C 	 51.6246 	 4.82769 	 92.9609
| 12> H 	 51.1808 	 6.96571 	 92.7486
| 13> C 	 54.0074 	 7.74227 	 92.7109
| 14> H 	 53.4725 	 8.39296 	 91.9469
| 15> H 	 55.1338 	 7.66326 	 92.618
| 16> C 	 53.7712 	 8.5221 	 94.0206
| 17> H 	 53.8329 	 9.60612 	 93.7588
| 18> H 	 52.728 	 8.31685 	 94.3343
| 19> C 	 54.702 	 8.06773 	 95.1697
| 20> H 	 54.4513 	 8.36276 	 96.197
| 21> H 	 54.8612 	 6.9808 	 95.1768
| 22> H 	 55.7249 	 8.36286 	 94.9823
| 23> S 	 50.1891 	 2.6445 	 92.0834
| 24> C 	 48.3988 	 2.52483 	 92.6227
| 25> C 	 47.9663 	 3.69882 	 93.1804
| 26> C 	 48.9702 	 4.69274 	 93.4091
| 27> C 	 50.2593 	 4.25892 	 92.9943
| 28> H 	 46.8775 	 3.76845 	 93.4532
| 29> C 	 48.6206 	 6.06933 	 93.8623
| 30> H 	 48.5362 	 6.77736 	 93.0115
| 31> H 	 49.5465 	 6.36217 	 94.3627
| 32> C 	 47.3644 	 6.2342 	 94.8252
| 33> H 	 46.4569 	 6.07022 	 94.2646
| 34> H 	 47.378 	 7.27587 	 95.1694
| 35> C 	 47.4558 	 5.2902 	 96.0635
| 36> H 	 47.921 	 4.24567 	 95.7739
| 37> H 	 46.5329 	 5.07769 	 96.4594
| 38> H 	 48.2535 	 5.62313 	 96.718
| 39> H 	 55.2036 	 5.1376 	 92.9412
| 40> H 	 47.7814 	 1.64526 	 92.5278
| 41> *
| 42>
| 43>                          ****END OF INPUT****

CARTESIAN COORDINATES (ANGSTROEM)
---------------------------------
  S     53.023200    3.850540   92.971500
  C     54.134100    5.186280   92.936000
  C     53.415000    6.383380   92.779300
  C     51.963800    6.173640   92.838600
  C     51.624600    4.827690   92.960900
  H     51.180800    6.965710   92.748600
  C     54.007400    7.742270   92.710900
  H     53.472500    8.392960   91.946900
  H     55.133800    7.663260   92.618000
  C     53.771200    8.522100   94.020600
  H     53.832900    9.606120   93.758800
  H     52.728000    8.316850   94.334300
  C     54.702000    8.067730   95.169700
  H     54.451300    8.362760   96.197000
  H     54.861200    6.980800   95.176800
  H     55.724900    8.362860   94.982300
  S     50.189100    2.644500   92.083400
  C     48.398800    2.524830   92.622700
  C     47.966300    3.698820   93.180400
  C     48.970200    4.692740   93.409100
  C     50.259300    4.258920   92.994300
  H     46.877500    3.768450   93.453200
  C     48.620600    6.069330   93.862300
  H     48.536200    6.777360   93.011500
  H     49.546500    6.362170   94.362700
  C     47.364400    6.234200   94.825200
  H     46.456900    6.070220   94.264600
  H     47.378000    7.275870   95.169400
  C     47.455800    5.290200   96.063500
  H     47.921000    4.245670   95.773900
  H     46.532900    5.077690   96.459400
  H     48.253500    5.623130   96.718000
  H     55.203600    5.137600   92.941200
  H     47.781400    1.645260   92.527800

 Total Charge           Charge          ....    0
 Multiplicity           Mult            ....    1
 Number of Electrons    NEL             ....  134
 Basis Dimension        Dim             ....  322

ORBITAL ENERGIES
----------------

  NO   OCC          E(Eh)            E(eV)
   0   2.0000     -88.968763     -2420.9631
   1   2.0000     -88.964785     -2420.8549
   2   2.0000     -10.343183      -281.4523
   3   2.0000     -10.334002      -281.2025
   4   2.0000     -10.325245      -280.9642
   5   2.0000     -10.317692      -280.7587
   6   2.0000     -10.312880      -280.6277
   7   2.0000     -10.307684      -280.4863
   8   2.0000     -10.302847      -280.3547
   9   2.0000     -10.301235      -280.3109
  10   2.0000     -10.300881      -280.3012
  11   2.0000     -10.299437      -280.2619
  12   2.0000     -10.296934      -280.1938
  13   2.0000     -10.292966      -280.0859
  14   2.0000     -10.280195      -279.7383
  15   2.0000     -10.277463      -279.6640
  16   2.0000      -8.084178      -219.9817
  17   2.0000      -8.076467      -219.7718
  18   2.0000      -6.042766      -164.4320
  19   2.0000      -6.038442      -164.3144
  20   2.0000      -6.035296      -164.2287
  21   2.0000      -6.034933      -164.2189
  22   2.0000      -6.031783      -164.1332
  23   2.0000      -6.026682      -163.9944
  24   2.0000      -1.004699       -27.3393
  25   2.0000      -0.971060       -26.4239
  26   2.0000      -0.916002       -24.9257
  27   2.0000      -0.900900       -24.5147
  28   2.0000      -0.865906       -23.5625
  29   2.0000      -0.846322       -23.0296
  30   2.0000      -0.836952       -22.7746
  31   2.0000      -0.814168       -22.1546
  32   2.0000      -0.780591       -21.2410
  33   2.0000      -0.772364       -21.0171
  34   2.0000      -0.712943       -19.4002
  35   2.0000      -0.699048       -19.0221
  36   2.0000      -0.695345       -18.9213
  37   2.0000      -0.653795       -17.7907
  38   2.0000      -0.639758       -17.4087
  39   2.0000      -0.618511       -16.8305
  40   2.0000      -0.591924       -16.1071
  41   2.0000      -0.568485       -15.4693
  42   2.0000      -0.561858       -15.2889
  43   2.0000      -0.551283       -15.0012
  44   2.0000      -0.534069       -14.5327
  45   2.0000      -0.525933       -14.3114
  46   2.0000      -0.523702       -14.2506
  47   2.0000      -0.515186       -14.0189
  48   2.0000      -0.501835       -13.6556
  49   2.0000      -0.497135       -13.5277
  50   2.0000      -0.490052       -13.3350
  51   2.0000      -0.482561       -13.1312
  52   2.0000      -0.473185       -12.8760
  53   2.0000      -0.460351       -12.5268
  54   2.0000      -0.450308       -12.2535
  55   2.0000      -0.443901       -12.0792
  56   2.0000      -0.439259       -11.9528
  57   2.0000      -0.434126       -11.8132
  58   2.0000      -0.432197       -11.7607
  59   2.0000      -0.427303       -11.6275
  60   2.0000      -0.422418       -11.4946
  61   2.0000      -0.416131       -11.3235
  62   2.0000      -0.412136       -11.2148
  63   2.0000      -0.353395        -9.6164
  64   2.0000      -0.329423        -8.9640
  65   2.0000      -0.326056        -8.8724
  66   2.0000      -0.286461        -7.7950
  67   0.0000       0.016256         0.4424
  68   0.0000       0.069682         1.8961
  69   0.0000       0.089065         2.4236
  70   0.0000       0.114481         3.1152
  71   0.0000       0.124108         3.3772

MULLIKEN ATOMIC CHARGES
-----------------------
   0 S :    0.118688
   1 C :   -0.100565
   2 C :   -0.089785
   3 C :   -0.018236
   4 C :   -0.120654
   5 H :    0.032803
   6 C :    0.021923
   7 H :    0.046926
   8 H :    0.031977
   9 C :   -0.082091
  10 H :    0.040808
  11 H :    0.030436
  12 C :   -0.050632
  13 H :    0.043044
  14 H :    0.025045
  15 H :    0.014248
  16 S :    0.050199
  17 C :   -0.086188
  18 C :   -0.043527
  19 C :   -0.050108
  20 C :   -0.126270
  21 H :    0.045045
  22 C :    0.019926
  23 H :    0.059310
  24 H :    0.027911
  25 C :   -0.065962
  26 H :    0.034004
  27 H :    0.040408
  28 C :   -0.065078
  29 H :    0.048027
  30 H :    0.028386
  31 H :    0.038527
  32 H :    0.045204
  33 H :    0.056254
Sum of atomic charges:    0.0000000

LOEWDIN ATOMIC CHARGES
----------------------
   0 S :    0.433716
   1 C :   -0.205160
   2 C :   -0.059240
   3 C :   -0.075086
   4 C :   -0.212113
   5 H :    0.036259
   6 C :   -0.041106
   7 H :    0.043291
   8 H :    0.035030
   9 C :   -0.042891
  10 H :    0.026369
  11 H :    0.023152
  12 C :   -0.075021
  13 H :    0.028593
  14 H :    0.027624
  15 H :    0.020717
  16 S :    0.303680
  17 C :   -0.144327
  18 C :   -0.074152
  19 C :   -0.060128
  20 C :   -0.148000
  21 H :    0.044751
  22 C :   -0.039927
  23 H :    0.038058
  24 H :    0.032137
  25 C :   -0.036309
  26 H :    0.019335
  27 H :    0.030469
  28 C :   -0.069133
  29 H :    0.041725
  30 H :    0.012789
  31 H :    0.029047
  32 H :    0.027299
  33 H :    0.028555

  Mayer bond orders larger than 0.100000
B(  0-S ,  1-C ) :   1.1328 B(  0-S ,  4-C ) :   1.1690 B(  1-C ,  2-C ) :   1.5872
B(  1-C , 32-H ) :   0.9715 B(  2-C ,  3-C ) :   1.2336 B(  2-C ,  6-C ) :   1.0588
B(  3-C ,  4-C ) :   1.5444 B(  3-C ,  5-H ) :   0.9820 B(  4-C , 20-C ) :   1.0561
B(  6-C ,  7-H ) :   0.9338 B(  6-C ,  8-H ) :   0.9446 B(  6-C ,  9-C ) :   1.0549
B(  9-C , 10-H ) :   0.9603 B(  9-C , 11-H ) :   0.9578 B(  9-C , 12-C ) :   1.0603
B( 12-C , 13-H ) :   0.9768 B( 12-C , 14-H ) :   0.9741 B( 12-C , 15-H ) :   0.9714
B( 16-S , 17-C ) :   1.0960 B( 16-S , 20-C ) :   1.1092 B( 17-C , 18-C ) :   1.6780
B( 17-C , 20-C ) :   0.1011 B( 17-C , 33-H ) :   0.9651 B( 18-C , 19-C ) :   1.1911
B( 18-C , 21-H ) :   0.9713 B( 19-C , 20-C ) :   1.6199 B( 19-C , 22-C ) :   1.0408
B( 22-C , 23-H ) :   0.9329 B( 22-C , 24-H ) :   0.9261 B( 22-C , 25-C ) :   1.0639
B( 25-C , 26-H ) :   0.9556 B( 25-C , 27-H ) :   0.9567 B( 25-C , 28-C ) :   1.0676
B( 28-C , 29-H ) :   0.9721 B( 28-C , 30-H ) :   0.9771 B( 28-C , 31-H ) :   0.9740

Dispersion correction           -0.014424191
FINAL SINGLE POINT ENERGY     -1339.859546195349

DIPOLE MOMENT
-------------
                                X             Y             Z
Electronic contribution:      3.13647     -22.37133     -14.61868
Nuclear contribution   :     -3.41171      23.02967      14.84097
                        -----------------------------------------
Total Dipole Moment    :     -0.27524       0.65835       0.22229
                        -----------------------------------------
Magnitude (a.u.)       :      0.74739
Magnitude (Debye)      :      1.89971

Rotational constants in cm-1:     0.019204     0.008708     0.006518
Rotational constants in MHz :   575.711718   261.058059   195.413156

                             ****ORCA TERMINATED NORMALLY****
TOTAL RUN TIME: 0 days 0 hours 0 minutes 30 seconds 719 msec
