                         Program Version 4.2.1 -  RELEASE  -
|  1> ! wB97X-D3 SP def2-SVP
|  2> %pal
|  3> nprocs 16
|  4> end
|  5>
|  6> * xyz 0 1
|  7> S 	 -31.9879 	 53.8762 	 103.066
|  8> C 	 -32.7647 	 53.5464 	 101.508
|  9> C 	 -34.1139 	 54.0223 	 101.528
| 10> C 	 -34.3498 	 54.7985 	 102.746
| 11> C 	 -33.2717 	 54.8628 	 103.589
| 12> H 	 -35.2588 	 55.3064 	 102.936
| 13> C 	 -35.173 	 53.7238 	 100.509
| 14> H 	 -35.9544 	 52.9583 	 100.835
| 15> H 	 -34.6174 	 53.2007 	 99.6521
| 16> C 	 -35.8183 	 54.9729 	 99.8075
| 17> H 	 -36.3837 	 55.3638 	 100.707
| 18> H 	 -35.0725 	 55.654 	 99.4969
| 19> C 	 -36.6978 	 54.7232 	 98.5691
| 20> H 	 -37.0956 	 55.5432 	 97.9958
| 21> H 	 -36.1198 	 54.128 	 97.9392
| 22> H 	 -37.6037 	 54.1299 	 98.8344
| 23> S 	 -32.5121 	 54.8489 	 106.293
| 24> C 	 -32.8714 	 56.2403 	 107.293
| 25> C 	 -33.164 	 57.3394 	 106.437
| 26> C 	 -33.3275 	 56.9884 	 105.029
| 27> C 	 -33.0966 	 55.6328 	 104.819
| 28> H 	 -33.2082 	 58.3133 	 106.911
| 29> C 	 -33.7411 	 58.047 	 104.018
| 30> H 	 -34.737 	 58.3665 	 104.241
| 31> H 	 -33.7391 	 57.6866 	 103.041
| 32> C 	 -32.8499 	 59.2984 	 103.961
| 33> H 	 -31.8377 	 58.9802 	 103.716
| 34> H 	 -32.6366 	 59.6958 	 104.94
| 35> C 	 -33.4449 	 60.4838 	 103.094
| 36> H 	 -33.9994 	 61.2602 	 103.668
| 37> H 	 -34.1328 	 60.2212 	 102.361
| 38> H 	 -32.6565 	 61.1125 	 102.709
| 39> H 	 -32.4169 	 52.9443 	 100.723
| 40> H 	 -32.8826 	 56.3804 	 108.331
| 41> *
| 42>
| 43>                          ****END OF INPUT****

CARTESIAN COORDINATES (ANGSTROEM)
---------------------------------
  S    -31.987900   53.876200  103.066000
  C    -32.764700   53.546400  101.508000
  C    -34.113900   54.022300  101.528000
  C    -34.349800   54.798500  102.746000
  C    -33.271700   54.862800  103.589000
  H    -35.258800   55.306400  102.936000
  C    -35.173000   53.723800  100.509000
  H    -35.954400   52.958300  100.835000
  H    -34.617400   53.200700   99.652100
  C    -35.818300   54.972900   99.807500
  H    -36.383700   55.363800  100.707000
  H    -35.072500   55.654000   99.496900
  C    -36.697800   54.723200   98.569100
  H    -37.095600   55.543200   97.995800
  H    -36.119800   54.128000   97.939200
  H    -37.603700   54.129900   98.834400
  S    -32.512100   54.848900  106.293000
  C    -32.871400   56.240300  107.293000
  C    -33.164000   57.339400  106.437000
  C    -33.327500   56.988400  105.029000
  C    -33.096600   55.632800  104.819000
  H    -33.208200   58.313300  106.911000
  C    -33.741100   58.047000  104.018000
  H    -34.737000   58.366500  104.241000
  H    -33.739100   57.686600  103.041000
  C    -32.849900   59.298400  103.961000
  H    -31.837700   58.980200  103.716000
  H    -32.636600   59.695800  104.940000
  C    -33.444900   60.483800  103.094000
  H    -33.999400   61.260200  103.668000
  H    -34.132800   60.221200  102.361000
  H    -32.656500   61.112500  102.709000
  H    -32.416900   52.944300  100.723000
  H    -32.882600   56.380400  108.331000

 Total Charge           Charge          ....    0
 Multiplicity           Mult            ....    1
 Number of Electrons    NEL             ....  134
 Basis Dimension        Dim             ....  322

ORBITAL ENERGIES
----------------

  NO   OCC          E(Eh)            E(eV)
   0   2.0000     -88.968824     -2420.9648
   1   2.0000     -88.967974     -2420.9416
   2   2.0000     -10.331043      -281.1220
   3   2.0000     -10.327851      -281.0351
   4   2.0000     -10.320188      -280.8266
   5   2.0000     -10.317657      -280.7577
   6   2.0000     -10.310992      -280.5763
   7   2.0000     -10.309931      -280.5475
   8   2.0000     -10.306323      -280.4493
   9   2.0000     -10.299624      -280.2670
  10   2.0000     -10.293257      -280.0938
  11   2.0000     -10.291967      -280.0587
  12   2.0000     -10.287555      -279.9386
  13   2.0000     -10.285454      -279.8814
  14   2.0000     -10.278341      -279.6879
  15   2.0000     -10.277880      -279.6753
  16   2.0000      -8.083131      -219.9532
  17   2.0000      -8.082912      -219.9472
  18   2.0000      -6.041692      -164.4028
  19   2.0000      -6.041593      -164.4001
  20   2.0000      -6.037545      -164.2900
  21   2.0000      -6.037509      -164.2890
  22   2.0000      -6.033847      -164.1893
  23   2.0000      -6.033519      -164.1804
  24   2.0000      -1.006056       -27.3762
  25   2.0000      -0.978968       -26.6391
  26   2.0000      -0.909000       -24.7351
  27   2.0000      -0.905964       -24.6525
  28   2.0000      -0.867169       -23.5969
  29   2.0000      -0.849808       -23.1245
  30   2.0000      -0.840777       -22.8787
  31   2.0000      -0.815244       -22.1839
  32   2.0000      -0.785458       -21.3734
  33   2.0000      -0.775330       -21.0978
  34   2.0000      -0.712640       -19.3919
  35   2.0000      -0.705577       -19.1997
  36   2.0000      -0.695543       -18.9267
  37   2.0000      -0.656437       -17.8626
  38   2.0000      -0.642991       -17.4967
  39   2.0000      -0.623514       -16.9667
  40   2.0000      -0.598406       -16.2835
  41   2.0000      -0.571938       -15.5632
  42   2.0000      -0.561866       -15.2892
  43   2.0000      -0.557844       -15.1797
  44   2.0000      -0.528813       -14.3897
  45   2.0000      -0.525333       -14.2950
  46   2.0000      -0.519287       -14.1305
  47   2.0000      -0.508378       -13.8337
  48   2.0000      -0.504475       -13.7275
  49   2.0000      -0.500867       -13.6293
  50   2.0000      -0.495894       -13.4940
  51   2.0000      -0.485308       -13.2059
  52   2.0000      -0.470278       -12.7969
  53   2.0000      -0.464561       -12.6414
  54   2.0000      -0.461110       -12.5474
  55   2.0000      -0.453191       -12.3320
  56   2.0000      -0.449296       -12.2260
  57   2.0000      -0.438616       -11.9353
  58   2.0000      -0.435570       -11.8525
  59   2.0000      -0.427987       -11.6461
  60   2.0000      -0.420815       -11.4510
  61   2.0000      -0.409252       -11.1363
  62   2.0000      -0.401473       -10.9246
  63   2.0000      -0.346092        -9.4176
  64   2.0000      -0.329932        -8.9779
  65   2.0000      -0.327609        -8.9147
  66   2.0000      -0.291380        -7.9288
  67   0.0000       0.030948         0.8421
  68   0.0000       0.060989         1.6596
  69   0.0000       0.103086         2.8051
  70   0.0000       0.112755         3.0682
  71   0.0000       0.132592         3.6080

MULLIKEN ATOMIC CHARGES
-----------------------
   0 S :    0.114911
   1 C :   -0.086578
   2 C :   -0.100724
   3 C :    0.047279
   4 C :   -0.148976
   5 H :   -0.001775
   6 C :   -0.006021
   7 H :    0.065701
   8 H :    0.016212
   9 C :   -0.090981
  10 H :    0.036280
  11 H :    0.031770
  12 C :   -0.018773
  13 H :    0.040167
  14 H :    0.012944
  15 H :    0.026502
  16 S :    0.112649
  17 C :   -0.076452
  18 C :   -0.064564
  19 C :   -0.028064
  20 C :   -0.149006
  21 H :    0.026505
  22 C :    0.132726
  23 H :    0.023727
  24 H :    0.014972
  25 C :   -0.091584
  26 H :    0.027345
  27 H :    0.015923
  28 C :   -0.033696
  29 H :    0.025619
  30 H :    0.022271
  31 H :    0.031436
  32 H :    0.029383
  33 H :    0.042871
Sum of atomic charges:   -0.0000000

LOEWDIN ATOMIC CHARGES
----------------------
   0 S :    0.422609
   1 C :   -0.188428
   2 C :   -0.054886
   3 C :   -0.061953
   4 C :   -0.202718
   5 H :    0.023820
   6 C :   -0.046213
   7 H :    0.043278
   8 H :    0.030011
   9 C :   -0.040783
  10 H :    0.025578
  11 H :    0.020769
  12 C :   -0.064003
  13 H :    0.028648
  14 H :    0.016285
  15 H :    0.029356
  16 S :    0.398023
  17 C :   -0.181973
  18 C :   -0.067457
  19 C :   -0.049064
  20 C :   -0.197521
  21 H :    0.029182
  22 C :   -0.023654
  23 H :    0.029045
  24 H :    0.022971
  25 C :   -0.036172
  26 H :    0.025565
  27 H :    0.018186
  28 C :   -0.065866
  29 H :    0.031446
  30 H :    0.015152
  31 H :    0.029549
  32 H :    0.017291
  33 H :    0.023927

  Mayer bond orders larger than 0.100000
B(  0-S ,  1-C ) :   1.1361 B(  0-S ,  4-C ) :   1.1643 B(  1-C ,  2-C ) :   1.6043
B(  1-C , 32-H ) :   0.9728 B(  2-C ,  3-C ) :   1.2202 B(  2-C ,  6-C ) :   1.0414
B(  3-C ,  4-C ) :   1.5817 B(  3-C ,  5-H ) :   1.0042 B(  4-C , 20-C ) :   1.0205
B(  6-C ,  7-H ) :   0.9421 B(  6-C ,  8-H ) :   0.9374 B(  6-C ,  9-C ) :   1.0391
B(  9-C , 10-H ) :   0.9599 B(  9-C , 11-H ) :   0.9603 B(  9-C , 12-C ) :   1.0768
B( 12-C , 13-H ) :   0.9767 B( 12-C , 14-H ) :   0.9727 B( 12-C , 15-H ) :   0.9738
B( 16-S , 17-C ) :   1.1482 B( 16-S , 20-C ) :   1.1284 B( 17-C , 18-C ) :   1.6216
B( 17-C , 20-C ) :   0.1009 B( 17-C , 33-H ) :   0.9752 B( 18-C , 19-C ) :   1.2149
B( 18-C , 21-H ) :   0.9864 B( 19-C , 20-C ) :   1.5987 B( 19-C , 22-C ) :   1.0498
B( 22-C , 23-H ) :   0.9334 B( 22-C , 24-H ) :   0.9269 B( 22-C , 25-C ) :   1.0584
B( 25-C , 26-H ) :   0.9600 B( 25-C , 27-H ) :   0.9595 B( 25-C , 28-C ) :   1.0596
B( 28-C , 29-H ) :   0.9751 B( 28-C , 30-H ) :   0.9812 B( 28-C , 31-H ) :   0.9751

Dispersion correction           -0.013398009
FINAL SINGLE POINT ENERGY     -1339.853708189275

DIPOLE MOMENT
-------------
                                X             Y             Z
Electronic contribution:     15.54128     -17.65227      20.78467
Nuclear contribution   :    -15.97463      18.13112     -21.09106
                        -----------------------------------------
Total Dipole Moment    :     -0.43335       0.47885      -0.30639
                        -----------------------------------------
Magnitude (a.u.)       :      0.71482
Magnitude (Debye)      :      1.81692

Rotational constants in cm-1:     0.016453     0.008428     0.006236
Rotational constants in MHz :   493.234576   252.654883   186.937770

                             ****ORCA TERMINATED NORMALLY****
TOTAL RUN TIME: 0 days 0 hours 0 minutes 27 seconds 532 msec
