                         Program Version 4.2.1 -  RELEASE  -
|  1> ! wB97X-D3 SP def2-SVP
|  2> %pal
|  3> nprocs 16
|  4> end
|  5>
|  6> * xyz 0 1
|  7> S 	 -12.6839 	 66.0097 	 53.7798
|  8> C 	 -13.3349 	 64.4253 	 54.0315
|  9> C 	 -12.4136 	 63.706 	 54.8814
| 10> C 	 -11.3181 	 64.5056 	 55.3917
| 11> C 	 -11.3263 	 65.7588 	 54.8613
| 12> H 	 -10.5449 	 64.0694 	 55.9835
| 13> C 	 -12.5848 	 62.3315 	 55.4297
| 14> H 	 -13.6634 	 62.1533 	 55.4499
| 15> H 	 -12.0305 	 62.2941 	 56.3875
| 16> C 	 -12.0208 	 61.1559 	 54.5675
| 17> H 	 -12.4452 	 61.2441 	 53.5607
| 18> H 	 -10.9353 	 61.4242 	 54.4058
| 19> C 	 -12.1534 	 59.7762 	 55.1982
| 20> H 	 -11.5654 	 59.8207 	 56.0877
| 21> H 	 -13.2266 	 59.5794 	 55.5149
| 22> H 	 -11.5752 	 58.9654 	 54.7684
| 23> S 	 -10.0747 	 67.6297 	 56.482
| 24> C 	 -9.08865 	 68.8542 	 55.6678
| 25> C 	 -8.93758 	 68.5542 	 54.3247
| 26> C 	 -9.57157 	 67.3662 	 53.8923
| 27> C 	 -10.2651 	 66.7643 	 54.904
| 28> H 	 -8.34221 	 69.2745 	 53.8038
| 29> C 	 -9.39689 	 66.783 	 52.4169
| 30> H 	 -9.94813 	 65.8361 	 52.4973
| 31> H 	 -8.33391 	 66.5266 	 52.2741
| 32> C 	 -9.89785 	 67.6286 	 51.2856
| 33> H 	 -9.14129 	 68.3577 	 51.1085
| 34> H 	 -10.8977 	 68.0196 	 51.5906
| 35> C 	 -10.0079 	 66.8041 	 50.0206
| 36> H 	 -10.6434 	 65.9518 	 50.1721
| 37> H 	 -9.10819 	 66.484 	 49.5941
| 38> H 	 -10.6299 	 67.504 	 49.4027
| 39> H 	 -14.2837 	 64.0169 	 53.6629
| 40> H 	 -8.6897 	 69.7109 	 56.155
| 41> *
| 42>
| 43>                          ****END OF INPUT****

CARTESIAN COORDINATES (ANGSTROEM)
---------------------------------
  S    -12.683900   66.009700   53.779800
  C    -13.334900   64.425300   54.031500
  C    -12.413600   63.706000   54.881400
  C    -11.318100   64.505600   55.391700
  C    -11.326300   65.758800   54.861300
  H    -10.544900   64.069400   55.983500
  C    -12.584800   62.331500   55.429700
  H    -13.663400   62.153300   55.449900
  H    -12.030500   62.294100   56.387500
  C    -12.020800   61.155900   54.567500
  H    -12.445200   61.244100   53.560700
  H    -10.935300   61.424200   54.405800
  C    -12.153400   59.776200   55.198200
  H    -11.565400   59.820700   56.087700
  H    -13.226600   59.579400   55.514900
  H    -11.575200   58.965400   54.768400
  S    -10.074700   67.629700   56.482000
  C     -9.088650   68.854200   55.667800
  C     -8.937580   68.554200   54.324700
  C     -9.571570   67.366200   53.892300
  C    -10.265100   66.764300   54.904000
  H     -8.342210   69.274500   53.803800
  C     -9.396890   66.783000   52.416900
  H     -9.948130   65.836100   52.497300
  H     -8.333910   66.526600   52.274100
  C     -9.897850   67.628600   51.285600
  H     -9.141290   68.357700   51.108500
  H    -10.897700   68.019600   51.590600
  C    -10.007900   66.804100   50.020600
  H    -10.643400   65.951800   50.172100
  H     -9.108190   66.484000   49.594100
  H    -10.629900   67.504000   49.402700
  H    -14.283700   64.016900   53.662900
  H     -8.689700   69.710900   56.155000

 Total Charge           Charge          ....    0
 Multiplicity           Mult            ....    1
 Number of Electrons    NEL             ....  134
 Basis Dimension        Dim             ....  322

ORBITAL ENERGIES
----------------

  NO   OCC          E(Eh)            E(eV)
   0   2.0000     -88.969981     -2420.9963
   1   2.0000     -88.962259     -2420.7861
   2   2.0000     -10.329021      -281.0670
   3   2.0000     -10.326793      -281.0063
   4   2.0000     -10.322839      -280.8987
   5   2.0000     -10.316476      -280.7256
   6   2.0000     -10.306147      -280.4445
   7   2.0000     -10.304813      -280.4082
   8   2.0000     -10.293548      -280.1017
   9   2.0000     -10.292050      -280.0609
  10   2.0000     -10.291481      -280.0454
  11   2.0000     -10.290601      -280.0215
  12   2.0000     -10.290161      -280.0095
  13   2.0000     -10.281690      -279.7790
  14   2.0000     -10.281113      -279.7633
  15   2.0000     -10.271339      -279.4974
  16   2.0000      -8.084260      -219.9839
  17   2.0000      -8.076129      -219.7626
  18   2.0000      -6.042818      -164.4334
  19   2.0000      -6.038611      -164.3190
  20   2.0000      -6.035211      -164.2264
  21   2.0000      -6.034668      -164.2117
  22   2.0000      -6.030836      -164.1074
  23   2.0000      -6.026829      -163.9984
  24   2.0000      -1.003540       -27.3077
  25   2.0000      -0.978776       -26.6339
  26   2.0000      -0.911104       -24.7924
  27   2.0000      -0.909681       -24.7537
  28   2.0000      -0.867138       -23.5960
  29   2.0000      -0.853469       -23.2241
  30   2.0000      -0.847095       -23.0506
  31   2.0000      -0.814259       -22.1571
  32   2.0000      -0.781229       -21.2583
  33   2.0000      -0.767427       -20.8828
  34   2.0000      -0.700891       -19.0722
  35   2.0000      -0.697886       -18.9904
  36   2.0000      -0.692384       -18.8407
  37   2.0000      -0.659062       -17.9340
  38   2.0000      -0.642429       -17.4814
  39   2.0000      -0.618758       -16.8373
  40   2.0000      -0.590763       -16.0755
  41   2.0000      -0.579918       -15.7804
  42   2.0000      -0.567949       -15.4547
  43   2.0000      -0.561683       -15.2842
  44   2.0000      -0.532471       -14.4893
  45   2.0000      -0.526172       -14.3179
  46   2.0000      -0.519553       -14.1378
  47   2.0000      -0.512203       -13.9377
  48   2.0000      -0.502898       -13.6846
  49   2.0000      -0.498297       -13.5594
  50   2.0000      -0.487586       -13.2679
  51   2.0000      -0.476550       -12.9676
  52   2.0000      -0.474871       -12.9219
  53   2.0000      -0.464494       -12.6395
  54   2.0000      -0.459614       -12.5067
  55   2.0000      -0.450287       -12.2529
  56   2.0000      -0.438375       -11.9288
  57   2.0000      -0.427961       -11.6454
  58   2.0000      -0.425161       -11.5692
  59   2.0000      -0.423610       -11.5270
  60   2.0000      -0.420921       -11.4538
  61   2.0000      -0.415386       -11.3032
  62   2.0000      -0.405897       -11.0450
  63   2.0000      -0.346548        -9.4301
  64   2.0000      -0.333321        -9.0701
  65   2.0000      -0.321094        -8.7374
  66   2.0000      -0.295927        -8.0526
  67   0.0000       0.034856         0.9485
  68   0.0000       0.057997         1.5782
  69   0.0000       0.102784         2.7969
  70   0.0000       0.114634         3.1193
  71   0.0000       0.126090         3.4311

MULLIKEN ATOMIC CHARGES
-----------------------
   0 S :    0.122743
   1 C :   -0.116387
   2 C :   -0.117018
   3 C :    0.048206
   4 C :   -0.136499
   5 H :    0.013293
   6 C :    0.038661
   7 H :    0.025541
   8 H :    0.029892
   9 C :   -0.101094
  10 H :    0.025521
  11 H :    0.021989
  12 C :   -0.012271
  13 H :    0.006926
  14 H :    0.046176
  15 H :    0.036539
  16 S :    0.089214
  17 C :   -0.092902
  18 C :   -0.030862
  19 C :   -0.012493
  20 C :   -0.177923
  21 H :    0.010177
  22 C :    0.051411
  23 H :    0.023285
  24 H :    0.035867
  25 C :   -0.063961
  26 H :    0.025742
  27 H :    0.038508
  28 C :   -0.021751
  29 H :    0.021498
  30 H :    0.026792
  31 H :    0.036398
  32 H :    0.060010
  33 H :    0.048770
Sum of atomic charges:   -0.0000000

LOEWDIN ATOMIC CHARGES
----------------------
   0 S :    0.426595
   1 C :   -0.217613
   2 C :   -0.057555
   3 C :   -0.058539
   4 C :   -0.193900
   5 H :    0.031930
   6 C :   -0.037424
   7 H :    0.030801
   8 H :    0.033319
   9 C :   -0.047369
  10 H :    0.018471
  11 H :    0.024425
  12 C :   -0.077051
  13 H :    0.023623
  14 H :    0.035521
  15 H :    0.032614
  16 S :    0.367806
  17 C :   -0.167818
  18 C :   -0.071728
  19 C :   -0.056996
  20 C :   -0.183876
  21 H :    0.028696
  22 C :   -0.027984
  23 H :    0.024376
  24 H :    0.032519
  25 C :   -0.042007
  26 H :    0.021643
  27 H :    0.030473
  28 C :   -0.056312
  29 H :    0.021815
  30 H :    0.016668
  31 H :    0.036507
  32 H :    0.035079
  33 H :    0.023292

  Mayer bond orders larger than 0.100000
B(  0-S ,  1-C ) :   1.1440 B(  0-S ,  4-C ) :   1.1587 B(  1-C ,  2-C ) :   1.5632
B(  1-C , 32-H ) :   0.9706 B(  2-C ,  3-C ) :   1.2641 B(  2-C ,  6-C ) :   1.0452
B(  3-C ,  4-C ) :   1.5573 B(  3-C ,  5-H ) :   0.9940 B(  4-C , 20-C ) :   1.0001
B(  6-C ,  7-H ) :   0.9370 B(  6-C ,  8-H ) :   0.9435 B(  6-C ,  9-C ) :   1.0554
B(  9-C , 10-H ) :   0.9569 B(  9-C , 11-H ) :   0.9546 B(  9-C , 12-C ) :   1.0773
B( 12-C , 13-H ) :   0.9639 B( 12-C , 14-H ) :   0.9724 B( 12-C , 15-H ) :   0.9691
B( 16-S , 17-C ) :   1.1419 B( 16-S , 20-C ) :   1.1257 B( 17-C , 18-C ) :   1.6371
B( 17-C , 33-H ) :   0.9709 B( 18-C , 19-C ) :   1.1973 B( 18-C , 21-H ) :   0.9980
B( 19-C , 20-C ) :   1.6394 B( 19-C , 22-C ) :   1.0148 B( 22-C , 23-H ) :   0.9383
B( 22-C , 24-H ) :   0.9389 B( 22-C , 25-C ) :   1.0706 B( 25-C , 26-H ) :   0.9477
B( 25-C , 27-H ) :   0.9552 B( 25-C , 28-C ) :   1.0923 B( 28-C , 29-H ) :   0.9739
B( 28-C , 30-H ) :   0.9739 B( 28-C , 31-H ) :   0.9749

Dispersion correction           -0.014047479
FINAL SINGLE POINT ENERGY     -1339.862821483340

DIPOLE MOMENT
-------------
                                X             Y             Z
Electronic contribution:     -1.81411      18.85876      13.70461
Nuclear contribution   :      2.03511     -19.14099     -13.98275
                        -----------------------------------------
Total Dipole Moment    :      0.22100      -0.28223      -0.27814
                        -----------------------------------------
Magnitude (a.u.)       :      0.45371
Magnitude (Debye)      :      1.15325

Rotational constants in cm-1:     0.018665     0.007949     0.006505
Rotational constants in MHz :   559.572662   238.299252   195.019883

                             ****ORCA TERMINATED NORMALLY****
TOTAL RUN TIME: 0 days 0 hours 0 minutes 32 seconds 364 msec
