                         Program Version 4.2.1 -  RELEASE  -
|  1> ! wB97X-D3 SP def2-SVP
|  2> %pal
|  3> nprocs 16
|  4> end
|  5>
|  6> * xyz 0 1
|  7> S 	 14.3859 	 4.53925 	 85.8699
|  8> C 	 14.9716 	 6.11963 	 86.4912
|  9> C 	 13.9175 	 7.01096 	 86.7458
| 10> C 	 12.6534 	 6.39784 	 86.3646
| 11> C 	 12.716 	 5.11439 	 85.8534
| 12> H 	 11.7725 	 7.01017 	 86.3892
| 13> C 	 14.0815 	 8.41128 	 87.2558
| 14> H 	 15.1495 	 8.44458 	 87.4035
| 15> H 	 13.5603 	 8.58828 	 88.2138
| 16> C 	 13.6835 	 9.57264 	 86.3683
| 17> H 	 12.6531 	 9.48866 	 86.1254
| 18> H 	 13.7275 	 10.5023 	 86.9245
| 19> C 	 14.6194 	 9.73662 	 85.2073
| 20> H 	 14.4316 	 8.91962 	 84.523
| 21> H 	 14.3462 	 10.6732 	 84.7413
| 22> H 	 15.6768 	 9.81288 	 85.5972
| 23> S 	 11.7701 	 2.45088 	 85.9712
| 24> C 	 10.2462 	 2.12053 	 85.2635
| 25> C 	 9.60943 	 3.25604 	 84.8469
| 26> C 	 10.4095 	 4.40251 	 84.9686
| 27> C 	 11.6488 	 4.16485 	 85.4497
| 28> H 	 8.51644 	 3.15383 	 84.6361
| 29> C 	 9.83783 	 5.72889 	 84.5624
| 30> H 	 9.74797 	 5.68529 	 83.501
| 31> H 	 10.4665 	 6.52765 	 84.8768
| 32> C 	 8.50634 	 6.02303 	 85.2502
| 33> H 	 7.75614 	 5.23769 	 84.9326
| 34> H 	 8.18762 	 7.0868 	 84.9509
| 35> C 	 8.49217 	 5.82598 	 86.7756
| 36> H 	 9.3919 	 5.25407 	 86.9562
| 37> H 	 7.60118 	 5.2866 	 87.094
| 38> H 	 8.56989 	 6.75182 	 87.2765
| 39> H 	 15.9626 	 6.30488 	 86.8858
| 40> H 	 9.78948 	 1.13578 	 85.3262
| 41> *
| 42>
| 43>                          ****END OF INPUT****

CARTESIAN COORDINATES (ANGSTROEM)
---------------------------------
  S     14.385900    4.539250   85.869900
  C     14.971600    6.119630   86.491200
  C     13.917500    7.010960   86.745800
  C     12.653400    6.397840   86.364600
  C     12.716000    5.114390   85.853400
  H     11.772500    7.010170   86.389200
  C     14.081500    8.411280   87.255800
  H     15.149500    8.444580   87.403500
  H     13.560300    8.588280   88.213800
  C     13.683500    9.572640   86.368300
  H     12.653100    9.488660   86.125400
  H     13.727500   10.502300   86.924500
  C     14.619400    9.736620   85.207300
  H     14.431600    8.919620   84.523000
  H     14.346200   10.673200   84.741300
  H     15.676800    9.812880   85.597200
  S     11.770100    2.450880   85.971200
  C     10.246200    2.120530   85.263500
  C      9.609430    3.256040   84.846900
  C     10.409500    4.402510   84.968600
  C     11.648800    4.164850   85.449700
  H      8.516440    3.153830   84.636100
  C      9.837830    5.728890   84.562400
  H      9.747970    5.685290   83.501000
  H     10.466500    6.527650   84.876800
  C      8.506340    6.023030   85.250200
  H      7.756140    5.237690   84.932600
  H      8.187620    7.086800   84.950900
  C      8.492170    5.825980   86.775600
  H      9.391900    5.254070   86.956200
  H      7.601180    5.286600   87.094000
  H      8.569890    6.751820   87.276500
  H     15.962600    6.304880   86.885800
  H      9.789480    1.135780   85.326200

 Total Charge           Charge          ....    0
 Multiplicity           Mult            ....    1
 Number of Electrons    NEL             ....  134
 Basis Dimension        Dim             ....  322

ORBITAL ENERGIES
----------------

  NO   OCC          E(Eh)            E(eV)
   0   2.0000     -88.967457     -2420.9276
   1   2.0000     -88.966257     -2420.8949
   2   2.0000     -10.337763      -281.3048
   3   2.0000     -10.329355      -281.0760
   4   2.0000     -10.319329      -280.8032
   5   2.0000     -10.317242      -280.7464
   6   2.0000     -10.305869      -280.4370
   7   2.0000     -10.298853      -280.2460
   8   2.0000     -10.296416      -280.1797
   9   2.0000     -10.294051      -280.1154
  10   2.0000     -10.293541      -280.1015
  11   2.0000     -10.290988      -280.0320
  12   2.0000     -10.284936      -279.8673
  13   2.0000     -10.279943      -279.7315
  14   2.0000     -10.275806      -279.6189
  15   2.0000     -10.269445      -279.4458
  16   2.0000      -8.081263      -219.9023
  17   2.0000      -8.081092      -219.8977
  18   2.0000      -6.039799      -164.3513
  19   2.0000      -6.039713      -164.3490
  20   2.0000      -6.035879      -164.2446
  21   2.0000      -6.035784      -164.2420
  22   2.0000      -6.031903      -164.1364
  23   2.0000      -6.031684      -164.1305
  24   2.0000      -1.009918       -27.4813
  25   2.0000      -0.981854       -26.7176
  26   2.0000      -0.920825       -25.0569
  27   2.0000      -0.917689       -24.9716
  28   2.0000      -0.869855       -23.6700
  29   2.0000      -0.851955       -23.1829
  30   2.0000      -0.841347       -22.8942
  31   2.0000      -0.815878       -22.2012
  32   2.0000      -0.790280       -21.5046
  33   2.0000      -0.777013       -21.1436
  34   2.0000      -0.710654       -19.3379
  35   2.0000      -0.693981       -18.8842
  36   2.0000      -0.690780       -18.7971
  37   2.0000      -0.656009       -17.8509
  38   2.0000      -0.637502       -17.3473
  39   2.0000      -0.625414       -17.0184
  40   2.0000      -0.604566       -16.4511
  41   2.0000      -0.570326       -15.5194
  42   2.0000      -0.567169       -15.4335
  43   2.0000      -0.557595       -15.1729
  44   2.0000      -0.550318       -14.9749
  45   2.0000      -0.541503       -14.7350
  46   2.0000      -0.526579       -14.3289
  47   2.0000      -0.510894       -13.9021
  48   2.0000      -0.497331       -13.5331
  49   2.0000      -0.494303       -13.4507
  50   2.0000      -0.489674       -13.3247
  51   2.0000      -0.481338       -13.0979
  52   2.0000      -0.469470       -12.7749
  53   2.0000      -0.465775       -12.6744
  54   2.0000      -0.462454       -12.5840
  55   2.0000      -0.447869       -12.1871
  56   2.0000      -0.446078       -12.1384
  57   2.0000      -0.437869       -11.9150
  58   2.0000      -0.433084       -11.7848
  59   2.0000      -0.430563       -11.7162
  60   2.0000      -0.416732       -11.3399
  61   2.0000      -0.415091       -11.2952
  62   2.0000      -0.405245       -11.0273
  63   2.0000      -0.354279        -9.6404
  64   2.0000      -0.334426        -9.1002
  65   2.0000      -0.329761        -8.9733
  66   2.0000      -0.291967        -7.9448
  67   0.0000       0.024719         0.6726
  68   0.0000       0.073137         1.9902
  69   0.0000       0.100630         2.7383
  70   0.0000       0.114264         3.1093
  71   0.0000       0.125451         3.4137

MULLIKEN ATOMIC CHARGES
-----------------------
   0 S :    0.090756
   1 C :   -0.111143
   2 C :   -0.129306
   3 C :    0.028058
   4 C :   -0.136002
   5 H :   -0.002801
   6 C :    0.080939
   7 H :   -0.001434
   8 H :    0.041804
   9 C :   -0.065866
  10 H :    0.014063
  11 H :    0.019375
  12 C :   -0.043213
  13 H :    0.048225
  14 H :    0.028475
  15 H :    0.038121
  16 S :    0.099340
  17 C :   -0.089664
  18 C :   -0.059008
  19 C :   -0.102705
  20 C :   -0.098136
  21 H :    0.039346
  22 C :    0.159722
  23 H :    0.039606
  24 H :    0.002103
  25 C :   -0.168426
  26 H :    0.034431
  27 H :    0.046387
  28 C :   -0.020902
  29 H :    0.042087
  30 H :    0.038368
  31 H :    0.024457
  32 H :    0.052261
  33 H :    0.060684
Sum of atomic charges:   -0.0000000

LOEWDIN ATOMIC CHARGES
----------------------
   0 S :    0.379945
   1 C :   -0.188000
   2 C :   -0.057367
   3 C :   -0.070270
   4 C :   -0.174595
   5 H :    0.020910
   6 C :   -0.033443
   7 H :    0.026291
   8 H :    0.037744
   9 C :   -0.042402
  10 H :    0.016056
  11 H :    0.024456
  12 C :   -0.060921
  13 H :    0.027856
  14 H :    0.024315
  15 H :    0.032623
  16 S :    0.398051
  17 C :   -0.182632
  18 C :   -0.083109
  19 C :   -0.063127
  20 C :   -0.188383
  21 H :    0.042441
  22 C :   -0.024386
  23 H :    0.035614
  24 H :    0.022012
  25 C :   -0.047188
  26 H :    0.023480
  27 H :    0.030818
  28 C :   -0.063752
  29 H :    0.030536
  30 H :    0.029558
  31 H :    0.018411
  32 H :    0.027245
  33 H :    0.031213

  Mayer bond orders larger than 0.100000
B(  0-S ,  1-C ) :   1.1231 B(  0-S ,  4-C ) :   1.1421 B(  1-C ,  2-C ) :   1.6309
B(  1-C , 32-H ) :   0.9568 B(  2-C ,  3-C ) :   1.2328 B(  2-C ,  6-C ) :   1.0337
B(  3-C ,  4-C ) :   1.5802 B(  3-C ,  5-H ) :   0.9849 B(  4-C , 20-C ) :   1.0322
B(  6-C ,  7-H ) :   0.9344 B(  6-C ,  8-H ) :   0.9318 B(  6-C ,  9-C ) :   1.0823
B(  9-C , 10-H ) :   0.9514 B(  9-C , 11-H ) :   0.9506 B(  9-C , 12-C ) :   1.0782
B( 12-C , 13-H ) :   0.9780 B( 12-C , 14-H ) :   0.9725 B( 12-C , 15-H ) :   0.9718
B( 16-S , 17-C ) :   1.1676 B( 16-S , 20-C ) :   1.1214 B( 17-C , 18-C ) :   1.6173
B( 17-C , 33-H ) :   0.9639 B( 18-C , 19-C ) :   1.2216 B( 18-C , 21-H ) :   0.9876
B( 19-C , 20-C ) :   1.6333 B( 19-C , 22-C ) :   1.0327 B( 22-C , 23-H ) :   0.9292
B( 22-C , 24-H ) :   0.9314 B( 22-C , 25-C ) :   1.0694 B( 25-C , 26-H ) :   0.9615
B( 25-C , 27-H ) :   0.9608 B( 25-C , 28-C ) :   1.0554 B( 28-C , 29-H ) :   0.9764
B( 28-C , 30-H ) :   0.9789 B( 28-C , 31-H ) :   0.9744

Dispersion correction           -0.014964405
FINAL SINGLE POINT ENERGY     -1339.874142968634

DIPOLE MOMENT
-------------
                                X             Y             Z
Electronic contribution:      9.66851     -26.02229      -0.84947
Nuclear contribution   :    -10.16997      26.58141       1.01028
                        -----------------------------------------
Total Dipole Moment    :     -0.50146       0.55912       0.16080
                        -----------------------------------------
Magnitude (a.u.)       :      0.76807
Magnitude (Debye)      :      1.95228

Rotational constants in cm-1:     0.020352     0.009113     0.006862
Rotational constants in MHz :   610.141970   273.206855   205.714518

                             ****ORCA TERMINATED NORMALLY****
TOTAL RUN TIME: 0 days 0 hours 0 minutes 36 seconds 786 msec
