                         Program Version 4.2.1 -  RELEASE  -
|  1> ! wB97X-D3 SP def2-SVP
|  2> %pal
|  3> nprocs 16
|  4> end
|  5>
|  6> * xyz 0 1
|  7> S 	 49.4033 	 7.48891 	 100.618
|  8> C 	 48.7805 	 9.08544 	 101.079
|  9> C 	 49.199 	 10.0147 	 100.106
| 10> C 	 49.9137 	 9.42606 	 98.9779
| 11> C 	 49.9582 	 8.04795 	 99.0672
| 12> H 	 50.2976 	 9.99787 	 98.0966
| 13> C 	 48.9373 	 11.5469 	 100.258
| 14> H 	 49.6753 	 12.1393 	 99.7739
| 15> H 	 48.9125 	 11.8292 	 101.326
| 16> C 	 47.6428 	 12.0315 	 99.6409
| 17> H 	 47.4931 	 11.6714 	 98.5532
| 18> H 	 46.8436 	 11.7643 	 100.308
| 19> C 	 47.4634 	 13.5695 	 99.7063
| 20> H 	 46.6283 	 13.884 	 99.0415
| 21> H 	 47.2105 	 13.8565 	 100.738
| 22> H 	 48.3904 	 14.0522 	 99.5309
| 23> S 	 51.0086 	 5.4852 	 98.751
| 24> C 	 51.595 	 5.00004 	 97.2399
| 25> C 	 51.1899 	 5.86165 	 96.2951
| 26> C 	 50.4014 	 6.99557 	 96.7262
| 27> C 	 50.4129 	 7.03834 	 98.1127
| 28> H 	 51.4044 	 5.53016 	 95.3126
| 29> C 	 49.7875 	 7.96727 	 95.7153
| 30> H 	 50.518 	 8.09213 	 94.897
| 31> H 	 49.6338 	 8.94037 	 96.2439
| 32> C 	 48.508 	 7.49513 	 95.0163
| 33> H 	 48.7625 	 6.6124 	 94.4867
| 34> H 	 48.177 	 8.23648 	 94.2465
| 35> C 	 47.3272 	 7.28301 	 95.9648
| 36> H 	 47.0624 	 8.28633 	 96.5142
| 37> H 	 47.4032 	 6.48796 	 96.6259
| 38> H 	 46.4396 	 7.08064 	 95.3501
| 39> H 	 48.171 	 9.39121 	 101.908
| 40> H 	 52.1118 	 4.0165 	 96.9979
| 41> *
| 42>
| 43>                          ****END OF INPUT****

CARTESIAN COORDINATES (ANGSTROEM)
---------------------------------
  S     49.403300    7.488910  100.618000
  C     48.780500    9.085440  101.079000
  C     49.199000   10.014700  100.106000
  C     49.913700    9.426060   98.977900
  C     49.958200    8.047950   99.067200
  H     50.297600    9.997870   98.096600
  C     48.937300   11.546900  100.258000
  H     49.675300   12.139300   99.773900
  H     48.912500   11.829200  101.326000
  C     47.642800   12.031500   99.640900
  H     47.493100   11.671400   98.553200
  H     46.843600   11.764300  100.308000
  C     47.463400   13.569500   99.706300
  H     46.628300   13.884000   99.041500
  H     47.210500   13.856500  100.738000
  H     48.390400   14.052200   99.530900
  S     51.008600    5.485200   98.751000
  C     51.595000    5.000040   97.239900
  C     51.189900    5.861650   96.295100
  C     50.401400    6.995570   96.726200
  C     50.412900    7.038340   98.112700
  H     51.404400    5.530160   95.312600
  C     49.787500    7.967270   95.715300
  H     50.518000    8.092130   94.897000
  H     49.633800    8.940370   96.243900
  C     48.508000    7.495130   95.016300
  H     48.762500    6.612400   94.486700
  H     48.177000    8.236480   94.246500
  C     47.327200    7.283010   95.964800
  H     47.062400    8.286330   96.514200
  H     47.403200    6.487960   96.625900
  H     46.439600    7.080640   95.350100
  H     48.171000    9.391210  101.908000
  H     52.111800    4.016500   96.997900

 Total Charge           Charge          ....    0
 Multiplicity           Mult            ....    1
 Number of Electrons    NEL             ....  134
 Basis Dimension        Dim             ....  322

ORBITAL ENERGIES
----------------

  NO   OCC          E(Eh)            E(eV)
   0   2.0000     -88.966644     -2420.9055
   1   2.0000     -88.961934     -2420.7773
   2   2.0000     -10.334238      -281.2089
   3   2.0000     -10.332509      -281.1619
   4   2.0000     -10.317686      -280.7585
   5   2.0000     -10.314808      -280.6802
   6   2.0000     -10.310451      -280.5616
   7   2.0000     -10.309292      -280.5301
   8   2.0000     -10.303027      -280.3596
   9   2.0000     -10.298318      -280.2315
  10   2.0000     -10.293289      -280.0946
  11   2.0000     -10.287603      -279.9399
  12   2.0000     -10.287184      -279.9285
  13   2.0000     -10.285887      -279.8932
  14   2.0000     -10.278701      -279.6977
  15   2.0000     -10.275428      -279.6086
  16   2.0000      -8.081090      -219.8976
  17   2.0000      -8.077723      -219.8060
  18   2.0000      -6.039769      -164.3505
  19   2.0000      -6.036286      -164.2557
  20   2.0000      -6.035642      -164.2382
  21   2.0000      -6.032190      -164.1442
  22   2.0000      -6.031678      -164.1303
  23   2.0000      -6.028249      -164.0370
  24   2.0000      -1.010098       -27.4862
  25   2.0000      -0.984159       -26.7803
  26   2.0000      -0.912155       -24.8210
  27   2.0000      -0.909655       -24.7530
  28   2.0000      -0.870641       -23.6913
  29   2.0000      -0.850602       -23.1460
  30   2.0000      -0.838888       -22.8273
  31   2.0000      -0.816284       -22.2122
  32   2.0000      -0.783944       -21.3322
  33   2.0000      -0.774150       -21.0657
  34   2.0000      -0.707403       -19.2494
  35   2.0000      -0.692604       -18.8467
  36   2.0000      -0.689583       -18.7645
  37   2.0000      -0.656125       -17.8541
  38   2.0000      -0.635548       -17.2941
  39   2.0000      -0.619805       -16.8658
  40   2.0000      -0.593608       -16.1529
  41   2.0000      -0.574269       -15.6267
  42   2.0000      -0.564200       -15.3527
  43   2.0000      -0.550933       -14.9916
  44   2.0000      -0.547740       -14.9047
  45   2.0000      -0.524544       -14.2736
  46   2.0000      -0.515844       -14.0368
  47   2.0000      -0.509687       -13.8693
  48   2.0000      -0.503471       -13.7001
  49   2.0000      -0.502395       -13.6709
  50   2.0000      -0.494989       -13.4693
  51   2.0000      -0.477026       -12.9805
  52   2.0000      -0.472615       -12.8605
  53   2.0000      -0.467251       -12.7146
  54   2.0000      -0.456659       -12.4263
  55   2.0000      -0.446562       -12.1516
  56   2.0000      -0.440164       -11.9775
  57   2.0000      -0.434303       -11.8180
  58   2.0000      -0.428819       -11.6688
  59   2.0000      -0.423584       -11.5263
  60   2.0000      -0.420964       -11.4550
  61   2.0000      -0.416754       -11.3405
  62   2.0000      -0.407525       -11.0893
  63   2.0000      -0.359996        -9.7960
  64   2.0000      -0.333608        -9.0779
  65   2.0000      -0.324546        -8.8314
  66   2.0000      -0.285166        -7.7598
  67   0.0000       0.020635         0.5615
  68   0.0000       0.079728         2.1695
  69   0.0000       0.096902         2.6368
  70   0.0000       0.115325         3.1381
  71   0.0000       0.129793         3.5319

MULLIKEN ATOMIC CHARGES
-----------------------
   0 S :    0.095874
   1 C :   -0.093260
   2 C :   -0.103967
   3 C :    0.002960
   4 C :   -0.117700
   5 H :    0.042508
   6 C :    0.060357
   7 H :    0.011223
   8 H :    0.027318
   9 C :   -0.104963
  10 H :    0.048241
  11 H :    0.022291
  12 C :   -0.041044
  13 H :    0.049938
  14 H :    0.021412
  15 H :    0.015175
  16 S :    0.089410
  17 C :   -0.093741
  18 C :   -0.041862
  19 C :   -0.035357
  20 C :   -0.140270
  21 H :   -0.001811
  22 C :    0.070193
  23 H :    0.031944
  24 H :    0.016365
  25 C :   -0.063869
  26 H :    0.017895
  27 H :    0.038315
  28 C :   -0.056209
  29 H :    0.042289
  30 H :    0.036901
  31 H :    0.027033
  32 H :    0.044283
  33 H :    0.082129
Sum of atomic charges:    0.0000000

LOEWDIN ATOMIC CHARGES
----------------------
   0 S :    0.398521
   1 C :   -0.195283
   2 C :   -0.051512
   3 C :   -0.077446
   4 C :   -0.182323
   5 H :    0.040380
   6 C :   -0.032712
   7 H :    0.022214
   8 H :    0.032902
   9 C :   -0.048285
  10 H :    0.031444
  11 H :    0.020885
  12 C :   -0.065099
  13 H :    0.034326
  14 H :    0.023937
  15 H :    0.012972
  16 S :    0.399591
  17 C :   -0.207501
  18 C :   -0.079413
  19 C :   -0.052757
  20 C :   -0.184085
  21 H :    0.022957
  22 C :   -0.032443
  23 H :    0.035304
  24 H :    0.029146
  25 C :   -0.040209
  26 H :    0.017490
  27 H :    0.032151
  28 C :   -0.065783
  29 H :    0.037918
  30 H :    0.015293
  31 H :    0.026824
  32 H :    0.029891
  33 H :    0.050701

  Mayer bond orders larger than 0.100000
B(  0-S ,  1-C ) :   1.1168 B(  0-S ,  4-C ) :   1.1534 B(  1-C ,  2-C ) :   1.6251
B(  1-C , 32-H ) :   0.9725 B(  2-C ,  3-C ) :   1.2283 B(  2-C ,  6-C ) :   1.0235
B(  3-C ,  4-C ) :   1.5751 B(  3-C ,  5-H ) :   0.9800 B(  4-C , 20-C ) :   1.0651
B(  6-C ,  7-H ) :   0.9434 B(  6-C ,  8-H ) :   0.9455 B(  6-C ,  9-C ) :   1.0686
B(  9-C , 10-H ) :   0.9585 B(  9-C , 11-H ) :   0.9588 B(  9-C , 12-C ) :   1.0715
B( 12-C , 13-H ) :   0.9748 B( 12-C , 14-H ) :   0.9768 B( 12-C , 15-H ) :   0.9751
B( 16-S , 17-C ) :   1.1424 B( 16-S , 20-C ) :   1.1314 B( 17-C , 18-C ) :   1.6507
B( 17-C , 33-H ) :   0.9554 B( 18-C , 19-C ) :   1.2021 B( 18-C , 21-H ) :   0.9924
B( 19-C , 20-C ) :   1.5940 B( 19-C , 22-C ) :   1.0361 B( 22-C , 23-H ) :   0.9338
B( 22-C , 24-H ) :   0.9340 B( 22-C , 25-C ) :   1.0803 B( 25-C , 26-H ) :   0.9520
B( 25-C , 27-H ) :   0.9549 B( 25-C , 28-C ) :   1.0795 B( 28-C , 29-H ) :   0.9732
B( 28-C , 30-H ) :   0.9779 B( 28-C , 31-H ) :   0.9719

Dispersion correction           -0.014085153
FINAL SINGLE POINT ENERGY     -1339.867006191544

DIPOLE MOMENT
-------------
                                X             Y             Z
Electronic contribution:     15.14823     -22.92942      11.88629
Nuclear contribution   :    -15.37225      23.30739     -12.41899
                        -----------------------------------------
Total Dipole Moment    :     -0.22403       0.37797      -0.53270
                        -----------------------------------------
Magnitude (a.u.)       :      0.69052
Magnitude (Debye)      :      1.75516

Rotational constants in cm-1:     0.020579     0.008310     0.006577
Rotational constants in MHz :   616.947347   249.116216   197.177289

                             ****ORCA TERMINATED NORMALLY****
TOTAL RUN TIME: 0 days 0 hours 0 minutes 28 seconds 347 msec
