                         Program Version 4.2.1 -  RELEASE  -
|  1> ! wB97X-D3 SP def2-SVP
|  2> %pal
|  3> nprocs 16
|  4> end
|  5>
|  6> * xyz 0 1
|  7> S 	 -102.193 	 57.467 	 115.925
|  8> C 	 -101.447 	 56.5737 	 117.167
|  9> C 	 -101.358 	 55.1755 	 116.98
| 10> C 	 -101.942 	 54.8859 	 115.694
| 11> C 	 -102.582 	 55.9226 	 115.06
| 12> H 	 -102.034 	 53.8999 	 115.202
| 13> C 	 -100.66 	 54.1115 	 117.851
| 14> H 	 -100.518 	 54.5481 	 118.84
| 15> H 	 -99.5762 	 53.9676 	 117.635
| 16> C 	 -101.351 	 52.7544 	 118.061
| 17> H 	 -101.026 	 52.3724 	 119.009
| 18> H 	 -102.425 	 52.8682 	 118.078
| 19> C 	 -100.993 	 51.7491 	 116.953
| 20> H 	 -101.428 	 51.88 	 116.009
| 21> H 	 -99.9302 	 51.5818 	 116.846
| 22> H 	 -101.293 	 50.7813 	 117.288
| 23> S 	 -102.659 	 56.2798 	 112.316
| 24> C 	 -104.187 	 56.5243 	 111.581
| 25> C 	 -105.249 	 56.2793 	 112.407
| 26> C 	 -104.78 	 56.0487 	 113.755
| 27> C 	 -103.425 	 55.8591 	 113.86
| 28> H 	 -106.244 	 56.4183 	 112.029
| 29> C 	 -105.696 	 55.8609 	 114.945
| 30> H 	 -106.12 	 56.8544 	 115.133
| 31> H 	 -105.007 	 55.6667 	 115.784
| 32> C 	 -106.77 	 54.7585 	 114.793
| 33> H 	 -107.533 	 55.1299 	 114.023
| 34> H 	 -107.247 	 54.5085 	 115.757
| 35> C 	 -106.207 	 53.4483 	 114.207
| 36> H 	 -105.374 	 53.0804 	 114.895
| 37> H 	 -105.718 	 53.5122 	 113.312
| 38> H 	 -106.903 	 52.6375 	 114.057
| 39> H 	 -100.964 	 57.0654 	 117.97
| 40> H 	 -104.35 	 56.636 	 110.547
| 41> *
| 42>
| 43>                          ****END OF INPUT****

CARTESIAN COORDINATES (ANGSTROEM)
---------------------------------
  S    -102.193000   57.467000  115.925000
  C    -101.447000   56.573700  117.167000
  C    -101.358000   55.175500  116.980000
  C    -101.942000   54.885900  115.694000
  C    -102.582000   55.922600  115.060000
  H    -102.034000   53.899900  115.202000
  C    -100.660000   54.111500  117.851000
  H    -100.518000   54.548100  118.840000
  H    -99.576200   53.967600  117.635000
  C    -101.351000   52.754400  118.061000
  H    -101.026000   52.372400  119.009000
  H    -102.425000   52.868200  118.078000
  C    -100.993000   51.749100  116.953000
  H    -101.428000   51.880000  116.009000
  H    -99.930200   51.581800  116.846000
  H    -101.293000   50.781300  117.288000
  S    -102.659000   56.279800  112.316000
  C    -104.187000   56.524300  111.581000
  C    -105.249000   56.279300  112.407000
  C    -104.780000   56.048700  113.755000
  C    -103.425000   55.859100  113.860000
  H    -106.244000   56.418300  112.029000
  C    -105.696000   55.860900  114.945000
  H    -106.120000   56.854400  115.133000
  H    -105.007000   55.666700  115.784000
  C    -106.770000   54.758500  114.793000
  H    -107.533000   55.129900  114.023000
  H    -107.247000   54.508500  115.757000
  C    -106.207000   53.448300  114.207000
  H    -105.374000   53.080400  114.895000
  H    -105.718000   53.512200  113.312000
  H    -106.903000   52.637500  114.057000
  H    -100.964000   57.065400  117.970000
  H    -104.350000   56.636000  110.547000

 Total Charge           Charge          ....    0
 Multiplicity           Mult            ....    1
 Number of Electrons    NEL             ....  134
 Basis Dimension        Dim             ....  322

ORBITAL ENERGIES
----------------

  NO   OCC          E(Eh)            E(eV)
   0   2.0000     -88.966409     -2420.8991
   1   2.0000     -88.960971     -2420.7511
   2   2.0000     -10.327681      -281.0305
   3   2.0000     -10.320778      -280.8426
   4   2.0000     -10.313711      -280.6503
   5   2.0000     -10.311658      -280.5945
   6   2.0000     -10.307908      -280.4924
   7   2.0000     -10.303978      -280.3855
   8   2.0000     -10.296492      -280.1818
   9   2.0000     -10.296075      -280.1704
  10   2.0000     -10.296016      -280.1688
  11   2.0000     -10.292082      -280.0618
  12   2.0000     -10.288846      -279.9737
  13   2.0000     -10.287499      -279.9371
  14   2.0000     -10.269123      -279.4370
  15   2.0000     -10.268590      -279.4225
  16   2.0000      -8.081016      -219.8956
  17   2.0000      -8.076349      -219.7686
  18   2.0000      -6.039362      -164.3394
  19   2.0000      -6.035627      -164.2378
  20   2.0000      -6.034804      -164.2154
  21   2.0000      -6.031875      -164.1357
  22   2.0000      -6.030764      -164.1054
  23   2.0000      -6.027128      -164.0065
  24   2.0000      -1.004484       -27.3334
  25   2.0000      -0.982668       -26.7397
  26   2.0000      -0.908169       -24.7125
  27   2.0000      -0.905238       -24.6328
  28   2.0000      -0.870413       -23.6852
  29   2.0000      -0.846912       -23.0457
  30   2.0000      -0.842986       -22.9388
  31   2.0000      -0.817517       -22.2458
  32   2.0000      -0.785009       -21.3612
  33   2.0000      -0.772889       -21.0314
  34   2.0000      -0.706698       -19.2302
  35   2.0000      -0.698802       -19.0154
  36   2.0000      -0.692920       -18.8553
  37   2.0000      -0.657688       -17.8966
  38   2.0000      -0.643752       -17.5174
  39   2.0000      -0.619769       -16.8648
  40   2.0000      -0.589438       -16.0394
  41   2.0000      -0.573631       -15.6093
  42   2.0000      -0.552823       -15.0431
  43   2.0000      -0.543847       -14.7988
  44   2.0000      -0.541994       -14.7484
  45   2.0000      -0.536338       -14.5945
  46   2.0000      -0.515237       -14.0203
  47   2.0000      -0.505721       -13.7614
  48   2.0000      -0.498551       -13.5663
  49   2.0000      -0.495080       -13.4718
  50   2.0000      -0.488368       -13.2892
  51   2.0000      -0.485764       -13.2183
  52   2.0000      -0.469103       -12.7649
  53   2.0000      -0.462820       -12.5940
  54   2.0000      -0.454456       -12.3664
  55   2.0000      -0.445601       -12.1254
  56   2.0000      -0.442011       -12.0277
  57   2.0000      -0.439233       -11.9521
  58   2.0000      -0.434738       -11.8298
  59   2.0000      -0.431092       -11.7306
  60   2.0000      -0.417940       -11.3727
  61   2.0000      -0.414329       -11.2745
  62   2.0000      -0.407529       -11.0894
  63   2.0000      -0.337375        -9.1804
  64   2.0000      -0.331287        -9.0148
  65   2.0000      -0.320780        -8.7289
  66   2.0000      -0.307122        -8.3572
  67   0.0000       0.046379         1.2620
  68   0.0000       0.049516         1.3474
  69   0.0000       0.112316         3.0563
  70   0.0000       0.120733         3.2853
  71   0.0000       0.129975         3.5368

MULLIKEN ATOMIC CHARGES
-----------------------
   0 S :    0.128694
   1 C :   -0.105629
   2 C :   -0.070171
   3 C :    0.025526
   4 C :   -0.187106
   5 H :    0.018805
   6 C :    0.054453
   7 H :    0.006902
   8 H :    0.040828
   9 C :   -0.048022
  10 H :    0.023143
  11 H :    0.034466
  12 C :   -0.022472
  13 H :    0.026177
  14 H :    0.018914
  15 H :    0.010811
  16 S :    0.101905
  17 C :   -0.065683
  18 C :   -0.023845
  19 C :   -0.090137
  20 C :   -0.165503
  21 H :    0.017523
  22 C :    0.093947
  23 H :    0.037973
  24 H :    0.033960
  25 C :   -0.086138
  26 H :    0.038938
  27 H :    0.046537
  28 C :   -0.038871
  29 H :    0.022554
  30 H :    0.015872
  31 H :    0.030209
  32 H :    0.034760
  33 H :    0.040679
Sum of atomic charges:   -0.0000000

LOEWDIN ATOMIC CHARGES
----------------------
   0 S :    0.401852
   1 C :   -0.195488
   2 C :   -0.066437
   3 C :   -0.056032
   4 C :   -0.192231
   5 H :    0.036090
   6 C :   -0.040918
   7 H :    0.029484
   8 H :    0.037734
   9 C :   -0.030609
  10 H :    0.025780
  11 H :    0.026983
  12 C :   -0.061688
  13 H :    0.015381
  14 H :    0.024095
  15 H :    0.023535
  16 S :    0.405927
  17 C :   -0.175988
  18 C :   -0.076066
  19 C :   -0.040836
  20 C :   -0.211502
  21 H :    0.031256
  22 C :   -0.034167
  23 H :    0.035611
  24 H :    0.032910
  25 C :   -0.040793
  26 H :    0.028559
  27 H :    0.030997
  28 C :   -0.068440
  29 H :    0.030862
  30 H :    0.011171
  31 H :    0.024167
  32 H :    0.017715
  33 H :    0.021088

  Mayer bond orders larger than 0.100000
B(  0-S ,  1-C ) :   1.1760 B(  0-S ,  4-C ) :   1.1097 B(  1-C ,  2-C ) :   1.6015
B(  1-C , 32-H ) :   0.9653 B(  2-C ,  3-C ) :   1.2286 B(  2-C ,  6-C ) :   1.0275
B(  3-C ,  4-C ) :   1.6236 B(  3-C ,  5-H ) :   0.9791 B(  4-C , 20-C ) :   1.0284
B(  6-C ,  7-H ) :   0.9342 B(  6-C ,  8-H ) :   0.9370 B(  6-C ,  9-C ) :   1.0675
B(  9-C , 10-H ) :   0.9549 B(  9-C , 11-H ) :   0.9596 B(  9-C , 12-C ) :   1.0832
B( 12-C , 13-H ) :   0.9777 B( 12-C , 14-H ) :   0.9722 B( 12-C , 15-H ) :   0.9661
B( 16-S , 17-C ) :   1.1813 B( 16-S , 20-C ) :   1.1195 B( 17-C , 18-C ) :   1.6265
B( 17-C , 33-H ) :   0.9622 B( 18-C , 19-C ) :   1.2070 B( 18-C , 21-H ) :   0.9957
B( 19-C , 20-C ) :   1.6214 B( 19-C , 22-C ) :   1.0345 B( 22-C , 23-H ) :   0.9309
B( 22-C , 24-H ) :   0.9329 B( 22-C , 25-C ) :   1.0624 B( 25-C , 26-H ) :   0.9528
B( 25-C , 27-H ) :   0.9591 B( 25-C , 28-C ) :   1.0754 B( 28-C , 29-H ) :   0.9728
B( 28-C , 30-H ) :   0.9684 B( 28-C , 31-H ) :   0.9749

Dispersion correction           -0.015221298
FINAL SINGLE POINT ENERGY     -1339.872193994955

DIPOLE MOMENT
-------------
                                X             Y             Z
Electronic contribution:      7.00096      22.22641     -11.71123
Nuclear contribution   :     -7.19051     -22.58407      11.97136
                        -----------------------------------------
Total Dipole Moment    :     -0.18955      -0.35766       0.26012
                        -----------------------------------------
Magnitude (a.u.)       :      0.48116
Magnitude (Debye)      :      1.22301

Rotational constants in cm-1:     0.018226     0.009016     0.007657
Rotational constants in MHz :   546.392443   270.292329   229.558268

                             ****ORCA TERMINATED NORMALLY****
TOTAL RUN TIME: 0 days 0 hours 0 minutes 33 seconds 610 msec
