                         Program Version 4.2.1 -  RELEASE  -
|  1> ! wB97X-D3 SP def2-SVP
|  2> %pal
|  3> nprocs 16
|  4> end
|  5>
|  6> * xyz 0 1
|  7> S 	 -56.2549 	 26.9502 	 97.9272
|  8> C 	 -55.0998 	 28.2813 	 97.9504
|  9> C 	 -53.8868 	 27.9113 	 97.3716
| 10> C 	 -53.9659 	 26.6916 	 96.6435
| 11> C 	 -55.1813 	 26.0787 	 96.8433
| 12> H 	 -53.2388 	 26.0916 	 96.1537
| 13> C 	 -52.5385 	 28.5737 	 97.5302
| 14> H 	 -52.3952 	 28.829 	 96.557
| 15> H 	 -51.8893 	 27.7526 	 97.8192
| 16> C 	 -52.3927 	 29.8346 	 98.3956
| 17> H 	 -53.0037 	 30.5862 	 98.0588
| 18> H 	 -52.614 	 29.5682 	 99.3923
| 19> C 	 -50.9308 	 30.2499 	 98.466
| 20> H 	 -50.7309 	 31.1899 	 99.0156
| 21> H 	 -50.302 	 29.4164 	 98.8341
| 22> H 	 -50.5093 	 30.4741 	 97.4292
| 23> S 	 -55.9935 	 23.5098 	 97.7303
| 24> C 	 -56.0435 	 22.1795 	 96.567
| 25> C 	 -55.9643 	 22.7024 	 95.2646
| 26> C 	 -55.6523 	 24.1496 	 95.2444
| 27> C 	 -55.5687 	 24.74 	 96.5335
| 28> H 	 -56.1331 	 22.1721 	 94.2954
| 29> C 	 -55.3798 	 24.9115 	 93.9487
| 30> H 	 -54.503 	 24.5007 	 93.4696
| 31> H 	 -55.0184 	 25.8927 	 94.1192
| 32> C 	 -56.606 	 25.1977 	 93.0627
| 33> H 	 -57.2093 	 26.0224 	 93.5816
| 34> H 	 -57.3235 	 24.3286 	 93.1829
| 35> C 	 -56.3174 	 25.4868 	 91.5582
| 36> H 	 -55.7579 	 26.4399 	 91.4693
| 37> H 	 -57.231 	 25.4289 	 90.981
| 38> H 	 -55.5574 	 24.7077 	 91.2329
| 39> H 	 -55.179 	 29.1356 	 98.6305
| 40> H 	 -56.2818 	 21.1987 	 96.8879
| 41> *
| 42>
| 43>                          ****END OF INPUT****

CARTESIAN COORDINATES (ANGSTROEM)
---------------------------------
  S    -56.254900   26.950200   97.927200
  C    -55.099800   28.281300   97.950400
  C    -53.886800   27.911300   97.371600
  C    -53.965900   26.691600   96.643500
  C    -55.181300   26.078700   96.843300
  H    -53.238800   26.091600   96.153700
  C    -52.538500   28.573700   97.530200
  H    -52.395200   28.829000   96.557000
  H    -51.889300   27.752600   97.819200
  C    -52.392700   29.834600   98.395600
  H    -53.003700   30.586200   98.058800
  H    -52.614000   29.568200   99.392300
  C    -50.930800   30.249900   98.466000
  H    -50.730900   31.189900   99.015600
  H    -50.302000   29.416400   98.834100
  H    -50.509300   30.474100   97.429200
  S    -55.993500   23.509800   97.730300
  C    -56.043500   22.179500   96.567000
  C    -55.964300   22.702400   95.264600
  C    -55.652300   24.149600   95.244400
  C    -55.568700   24.740000   96.533500
  H    -56.133100   22.172100   94.295400
  C    -55.379800   24.911500   93.948700
  H    -54.503000   24.500700   93.469600
  H    -55.018400   25.892700   94.119200
  C    -56.606000   25.197700   93.062700
  H    -57.209300   26.022400   93.581600
  H    -57.323500   24.328600   93.182900
  C    -56.317400   25.486800   91.558200
  H    -55.757900   26.439900   91.469300
  H    -57.231000   25.428900   90.981000
  H    -55.557400   24.707700   91.232900
  H    -55.179000   29.135600   98.630500
  H    -56.281800   21.198700   96.887900

 Total Charge           Charge          ....    0
 Multiplicity           Mult            ....    1
 Number of Electrons    NEL             ....  134
 Basis Dimension        Dim             ....  322

ORBITAL ENERGIES
----------------

  NO   OCC          E(Eh)            E(eV)
   0   2.0000     -88.965550     -2420.8757
   1   2.0000     -88.965060     -2420.8624
   2   2.0000     -10.328308      -281.0475
   3   2.0000     -10.328010      -281.0394
   4   2.0000     -10.324856      -280.9536
   5   2.0000     -10.312386      -280.6143
   6   2.0000     -10.309453      -280.5345
   7   2.0000     -10.307840      -280.4906
   8   2.0000     -10.304287      -280.3939
   9   2.0000     -10.293728      -280.1066
  10   2.0000     -10.293574      -280.1024
  11   2.0000     -10.287040      -279.9246
  12   2.0000     -10.286922      -279.9214
  13   2.0000     -10.285242      -279.8757
  14   2.0000     -10.284451      -279.8541
  15   2.0000     -10.280696      -279.7520
  16   2.0000      -8.079650      -219.8584
  17   2.0000      -8.079623      -219.8577
  18   2.0000      -6.038384      -164.3128
  19   2.0000      -6.038084      -164.3046
  20   2.0000      -6.034364      -164.2034
  21   2.0000      -6.034110      -164.1965
  22   2.0000      -6.030303      -164.0929
  23   2.0000      -6.030277      -164.0922
  24   2.0000      -1.004683       -27.3388
  25   2.0000      -0.976211       -26.5640
  26   2.0000      -0.919378       -25.0175
  27   2.0000      -0.901348       -24.5269
  28   2.0000      -0.870380       -23.6843
  29   2.0000      -0.856117       -23.2961
  30   2.0000      -0.838484       -22.8163
  31   2.0000      -0.813042       -22.1240
  32   2.0000      -0.781949       -21.2779
  33   2.0000      -0.767777       -20.8923
  34   2.0000      -0.717787       -19.5320
  35   2.0000      -0.698386       -19.0040
  36   2.0000      -0.691922       -18.8282
  37   2.0000      -0.656488       -17.8639
  38   2.0000      -0.643042       -17.4981
  39   2.0000      -0.611180       -16.6310
  40   2.0000      -0.599555       -16.3147
  41   2.0000      -0.589963       -16.0537
  42   2.0000      -0.559816       -15.2334
  43   2.0000      -0.547064       -14.8864
  44   2.0000      -0.529382       -14.4052
  45   2.0000      -0.523654       -14.2493
  46   2.0000      -0.517274       -14.0757
  47   2.0000      -0.512747       -13.9525
  48   2.0000      -0.505088       -13.7441
  49   2.0000      -0.501962       -13.6591
  50   2.0000      -0.494060       -13.4441
  51   2.0000      -0.484115       -13.1734
  52   2.0000      -0.466210       -12.6862
  53   2.0000      -0.463786       -12.6203
  54   2.0000      -0.454142       -12.3578
  55   2.0000      -0.452737       -12.3196
  56   2.0000      -0.445898       -12.1335
  57   2.0000      -0.440383       -11.9834
  58   2.0000      -0.434275       -11.8172
  59   2.0000      -0.428445       -11.6586
  60   2.0000      -0.419629       -11.4187
  61   2.0000      -0.412737       -11.2312
  62   2.0000      -0.400303       -10.8928
  63   2.0000      -0.346480        -9.4282
  64   2.0000      -0.328573        -8.9409
  65   2.0000      -0.325325        -8.8525
  66   2.0000      -0.290663        -7.9094
  67   0.0000       0.028868         0.7855
  68   0.0000       0.061883         1.6839
  69   0.0000       0.104640         2.8474
  70   0.0000       0.119487         3.2514
  71   0.0000       0.131078         3.5668

MULLIKEN ATOMIC CHARGES
-----------------------
   0 S :    0.101034
   1 C :   -0.118164
   2 C :   -0.109038
   3 C :    0.045062
   4 C :   -0.176730
   5 H :    0.008960
   6 C :    0.066714
   7 H :    0.012920
   8 H :    0.039699
   9 C :   -0.003712
  10 H :    0.019553
  11 H :    0.021857
  12 C :   -0.082778
  13 H :    0.043111
  14 H :    0.036936
  15 H :    0.024900
  16 S :    0.099779
  17 C :   -0.093571
  18 C :   -0.011007
  19 C :   -0.080977
  20 C :   -0.132866
  21 H :    0.042447
  22 C :    0.081736
  23 H :    0.023806
  24 H :    0.006274
  25 C :   -0.130954
  26 H :    0.044395
  27 H :    0.027957
  28 C :   -0.044050
  29 H :    0.039889
  30 H :    0.051337
  31 H :    0.034525
  32 H :    0.053093
  33 H :    0.057861
Sum of atomic charges:    0.0000000

LOEWDIN ATOMIC CHARGES
----------------------
   0 S :    0.396532
   1 C :   -0.212891
   2 C :   -0.050375
   3 C :   -0.057208
   4 C :   -0.177147
   5 H :    0.032354
   6 C :   -0.022960
   7 H :    0.023393
   8 H :    0.037825
   9 C :   -0.029794
  10 H :    0.015659
  11 H :    0.021945
  12 C :   -0.069184
  13 H :    0.028537
  14 H :    0.028011
  15 H :    0.026012
  16 S :    0.389715
  17 C :   -0.174920
  18 C :   -0.070099
  19 C :   -0.051419
  20 C :   -0.207329
  21 H :    0.039567
  22 C :   -0.043775
  23 H :    0.027722
  24 H :    0.025837
  25 C :   -0.050982
  26 H :    0.032853
  27 H :    0.020822
  28 C :   -0.068750
  29 H :    0.028751
  30 H :    0.028971
  31 H :    0.031415
  32 H :    0.027557
  33 H :    0.023356

  Mayer bond orders larger than 0.100000
B(  0-S ,  1-C ) :   1.1141 B(  0-S ,  4-C ) :   1.1494 B(  1-C ,  2-C ) :   1.6423
B(  1-C , 32-H ) :   0.9592 B(  2-C ,  3-C ) :   1.2176 B(  2-C ,  6-C ) :   0.9832
B(  3-C ,  4-C ) :   1.5888 B(  3-C ,  5-H ) :   0.9958 B(  4-C , 20-C ) :   1.0660
B(  6-C ,  7-H ) :   0.9278 B(  6-C ,  8-H ) :   0.9467 B(  6-C ,  9-C ) :   1.0857
B(  9-C , 10-H ) :   0.9480 B(  9-C , 11-H ) :   0.9501 B(  9-C , 12-C ) :   1.0894
B( 12-C , 13-H ) :   0.9731 B( 12-C , 14-H ) :   0.9745 B( 12-C , 15-H ) :   0.9744
B( 16-S , 17-C ) :   1.1543 B( 16-S , 20-C ) :   1.1229 B( 17-C , 18-C ) :   1.5757
B( 17-C , 33-H ) :   0.9778 B( 18-C , 19-C ) :   1.2509 B( 18-C , 21-H ) :   0.9794
B( 19-C , 20-C ) :   1.5719 B( 19-C , 22-C ) :   1.0562 B( 22-C , 23-H ) :   0.9411
B( 22-C , 24-H ) :   0.9248 B( 22-C , 25-C ) :   1.0357 B( 25-C , 26-H ) :   0.9546
B( 25-C , 27-H ) :   0.9680 B( 25-C , 28-C ) :   1.0611 B( 28-C , 29-H ) :   0.9755
B( 28-C , 30-H ) :   0.9745 B( 28-C , 31-H ) :   0.9766

Dispersion correction           -0.013612919
FINAL SINGLE POINT ENERGY     -1339.856509601348

DIPOLE MOMENT
-------------
                                X             Y             Z
Electronic contribution:    -13.94955     -14.51568      14.81039
Nuclear contribution   :     14.46257      14.64680     -15.09708
                        -----------------------------------------
Total Dipole Moment    :      0.51301       0.13112      -0.28669
                        -----------------------------------------
Magnitude (a.u.)       :      0.60213
Magnitude (Debye)      :      1.53050

Rotational constants in cm-1:     0.019397     0.007267     0.006078
Rotational constants in MHz :   581.498045   217.869198   182.221978

                             ****ORCA TERMINATED NORMALLY****
TOTAL RUN TIME: 0 days 0 hours 0 minutes 27 seconds 456 msec
