                         Program Version 4.2.1 -  RELEASE  -
|  1> ! wB97X-D3 SP def2-SVP
|  2> %pal
|  3> nprocs 16
|  4> end
|  5>
|  6> * xyz 0 1
|  7> S 	 10.4735 	 -27.7484 	 83.5275
|  8> C 	 9.86729 	 -27.855 	 85.1928
|  9> C 	 9.28502 	 -26.6575 	 85.5557
| 10> C 	 9.28791 	 -25.7272 	 84.4746
| 11> C 	 9.9287 	 -26.186 	 83.3442
| 12> H 	 8.70411 	 -24.7652 	 84.5713
| 13> C 	 8.53682 	 -26.4877 	 86.8568
| 14> H 	 8.82287 	 -25.5727 	 87.3214
| 15> H 	 8.86995 	 -27.2791 	 87.6166
| 16> C 	 6.98321 	 -26.6326 	 86.7102
| 17> H 	 6.71154 	 -25.8518 	 85.9733
| 18> H 	 6.78424 	 -27.6528 	 86.3594
| 19> C 	 6.25231 	 -26.4063 	 88.0422
| 20> H 	 6.60144 	 -25.4302 	 88.5003
| 21> H 	 5.16026 	 -26.2491 	 88.0631
| 22> H 	 6.54089 	 -27.1307 	 88.8029
| 23> S 	 9.90263 	 -26.3473 	 80.6255
| 24> C 	 10.3882 	 -25.0056 	 79.6847
| 25> C 	 10.4628 	 -23.8951 	 80.4083
| 26> C 	 10.3181 	 -24.1139 	 81.8384
| 27> C 	 10.2031 	 -25.4726 	 82.1098
| 28> H 	 10.5546 	 -22.9288 	 79.9382
| 29> C 	 10.3238 	 -22.941 	 82.8122
| 30> H 	 11.3624 	 -22.5998 	 82.8247
| 31> H 	 10.0983 	 -23.3271 	 83.8179
| 32> C 	 9.3684 	 -21.7674 	 82.5128
| 33> H 	 8.39625 	 -22.2926 	 82.5176
| 34> H 	 9.58494 	 -21.4261 	 81.4969
| 35> C 	 9.41449 	 -20.6585 	 83.503
| 36> H 	 10.4372 	 -20.2455 	 83.5908
| 37> H 	 9.1833 	 -20.902 	 84.5545
| 38> H 	 8.78696 	 -19.8173 	 83.1589
| 39> H 	 10.0783 	 -28.7216 	 85.8197
| 40> H 	 10.5053 	 -25.0019 	 78.602
| 41> *
| 42>
| 43>                          ****END OF INPUT****

CARTESIAN COORDINATES (ANGSTROEM)
---------------------------------
  S     10.473500  -27.748400   83.527500
  C      9.867290  -27.855000   85.192800
  C      9.285020  -26.657500   85.555700
  C      9.287910  -25.727200   84.474600
  C      9.928700  -26.186000   83.344200
  H      8.704110  -24.765200   84.571300
  C      8.536820  -26.487700   86.856800
  H      8.822870  -25.572700   87.321400
  H      8.869950  -27.279100   87.616600
  C      6.983210  -26.632600   86.710200
  H      6.711540  -25.851800   85.973300
  H      6.784240  -27.652800   86.359400
  C      6.252310  -26.406300   88.042200
  H      6.601440  -25.430200   88.500300
  H      5.160260  -26.249100   88.063100
  H      6.540890  -27.130700   88.802900
  S      9.902630  -26.347300   80.625500
  C     10.388200  -25.005600   79.684700
  C     10.462800  -23.895100   80.408300
  C     10.318100  -24.113900   81.838400
  C     10.203100  -25.472600   82.109800
  H     10.554600  -22.928800   79.938200
  C     10.323800  -22.941000   82.812200
  H     11.362400  -22.599800   82.824700
  H     10.098300  -23.327100   83.817900
  C      9.368400  -21.767400   82.512800
  H      8.396250  -22.292600   82.517600
  H      9.584940  -21.426100   81.496900
  C      9.414490  -20.658500   83.503000
  H     10.437200  -20.245500   83.590800
  H      9.183300  -20.902000   84.554500
  H      8.786960  -19.817300   83.158900
  H     10.078300  -28.721600   85.819700
  H     10.505300  -25.001900   78.602000

 Total Charge           Charge          ....    0
 Multiplicity           Mult            ....    1
 Number of Electrons    NEL             ....  134
 Basis Dimension        Dim             ....  322

ORBITAL ENERGIES
----------------

  NO   OCC          E(Eh)            E(eV)
   0   2.0000     -88.964645     -2420.8511
   1   2.0000     -88.961123     -2420.7552
   2   2.0000     -10.324795      -280.9519
   3   2.0000     -10.324485      -280.9435
   4   2.0000     -10.314052      -280.6596
   5   2.0000     -10.309060      -280.5238
   6   2.0000     -10.305161      -280.4177
   7   2.0000     -10.301220      -280.3105
   8   2.0000     -10.297059      -280.1972
   9   2.0000     -10.295835      -280.1639
  10   2.0000     -10.294562      -280.1293
  11   2.0000     -10.291216      -280.0382
  12   2.0000     -10.290230      -280.0114
  13   2.0000     -10.287418      -279.9349
  14   2.0000     -10.284981      -279.8686
  15   2.0000     -10.283882      -279.8387
  16   2.0000      -8.080837      -219.8908
  17   2.0000      -8.077093      -219.7889
  18   2.0000      -6.039106      -164.3324
  19   2.0000      -6.035679      -164.2392
  20   2.0000      -6.035089      -164.2231
  21   2.0000      -6.031783      -164.1332
  22   2.0000      -6.031633      -164.1291
  23   2.0000      -6.027485      -164.0162
  24   2.0000      -1.016811       -27.6688
  25   2.0000      -0.992065       -26.9955
  26   2.0000      -0.913512       -24.8579
  27   2.0000      -0.911918       -24.8145
  28   2.0000      -0.872342       -23.7376
  29   2.0000      -0.854919       -23.2635
  30   2.0000      -0.843737       -22.9592
  31   2.0000      -0.815473       -22.1902
  32   2.0000      -0.783267       -21.3138
  33   2.0000      -0.772889       -21.0314
  34   2.0000      -0.707483       -19.2516
  35   2.0000      -0.698625       -19.0106
  36   2.0000      -0.694984       -18.9115
  37   2.0000      -0.657553       -17.8929
  38   2.0000      -0.636822       -17.3288
  39   2.0000      -0.624909       -17.0046
  40   2.0000      -0.598405       -16.2834
  41   2.0000      -0.571034       -15.5386
  42   2.0000      -0.568366       -15.4660
  43   2.0000      -0.561107       -15.2685
  44   2.0000      -0.526612       -14.3298
  45   2.0000      -0.524608       -14.2753
  46   2.0000      -0.520472       -14.1628
  47   2.0000      -0.510561       -13.8931
  48   2.0000      -0.505793       -13.7633
  49   2.0000      -0.498896       -13.5757
  50   2.0000      -0.493723       -13.4349
  51   2.0000      -0.485917       -13.2225
  52   2.0000      -0.468768       -12.7558
  53   2.0000      -0.462337       -12.5808
  54   2.0000      -0.461706       -12.5637
  55   2.0000      -0.459643       -12.5075
  56   2.0000      -0.452239       -12.3061
  57   2.0000      -0.428039       -11.6475
  58   2.0000      -0.426720       -11.6116
  59   2.0000      -0.425839       -11.5877
  60   2.0000      -0.421047       -11.4573
  61   2.0000      -0.419956       -11.4276
  62   2.0000      -0.415157       -11.2970
  63   2.0000      -0.354975        -9.6594
  64   2.0000      -0.332492        -9.0476
  65   2.0000      -0.325506        -8.8575
  66   2.0000      -0.290711        -7.9107
  67   0.0000       0.028622         0.7788
  68   0.0000       0.083398         2.2694
  69   0.0000       0.106329         2.8933
  70   0.0000       0.119517         3.2522
  71   0.0000       0.130745         3.5578

MULLIKEN ATOMIC CHARGES
-----------------------
   0 S :    0.111895
   1 C :   -0.138965
   2 C :   -0.066506
   3 C :   -0.019637
   4 C :   -0.134178
   5 H :    0.036834
   6 C :    0.020620
   7 H :    0.019149
   8 H :    0.025958
   9 C :   -0.053548
  10 H :    0.036518
  11 H :    0.040488
  12 C :   -0.064130
  13 H :    0.018048
  14 H :    0.046486
  15 H :    0.031442
  16 S :    0.095701
  17 C :   -0.068430
  18 C :   -0.038228
  19 C :   -0.056168
  20 C :   -0.116526
  21 H :    0.013072
  22 C :    0.062047
  23 H :    0.031879
  24 H :    0.007539
  25 C :   -0.080304
  26 H :    0.035105
  27 H :    0.029922
  28 C :   -0.036456
  29 H :    0.023522
  30 H :    0.032787
  31 H :    0.042928
  32 H :    0.056160
  33 H :    0.054976
Sum of atomic charges:   -0.0000000

LOEWDIN ATOMIC CHARGES
----------------------
   0 S :    0.437265
   1 C :   -0.193908
   2 C :   -0.062864
   3 C :   -0.082054
   4 C :   -0.218597
   5 H :    0.038354
   6 C :   -0.033371
   7 H :    0.021582
   8 H :    0.034678
   9 C :   -0.035427
  10 H :    0.026999
  11 H :    0.028290
  12 C :   -0.079167
  13 H :    0.027736
  14 H :    0.030109
  15 H :    0.024358
  16 S :    0.410061
  17 C :   -0.191525
  18 C :   -0.074708
  19 C :   -0.050386
  20 C :   -0.199513
  21 H :    0.029278
  22 C :   -0.034444
  23 H :    0.031048
  24 H :    0.025236
  25 C :   -0.042720
  26 H :    0.029418
  27 H :    0.023205
  28 C :   -0.070553
  29 H :    0.027815
  30 H :    0.027691
  31 H :    0.032973
  32 H :    0.029427
  33 H :    0.033711

  Mayer bond orders larger than 0.100000
B(  0-S ,  1-C ) :   1.1345 B(  0-S ,  4-C ) :   1.1932 B(  1-C ,  2-C ) :   1.5876
B(  1-C , 32-H ) :   0.9721 B(  2-C ,  3-C ) :   1.2726 B(  2-C ,  6-C ) :   1.0360
B(  3-C ,  4-C ) :   1.5432 B(  3-C ,  5-H ) :   0.9751 B(  4-C , 20-C ) :   1.0214
B(  6-C ,  7-H ) :   0.9366 B(  6-C ,  8-H ) :   0.9451 B(  6-C ,  9-C ) :   1.0519
B(  9-C , 10-H ) :   0.9582 B(  9-C , 11-H ) :   0.9571 B(  9-C , 12-C ) :   1.0741
B( 12-C , 13-H ) :   0.9717 B( 12-C , 14-H ) :   0.9756 B( 12-C , 15-H ) :   0.9745
B( 16-S , 17-C ) :   1.1406 B( 16-S , 20-C ) :   1.1400 B( 17-C , 18-C ) :   1.6441
B( 17-C , 33-H ) :   0.9639 B( 18-C , 19-C ) :   1.2117 B( 18-C , 21-H ) :   0.9924
B( 19-C , 20-C ) :   1.6166 B( 19-C , 22-C ) :   1.0397 B( 22-C , 23-H ) :   0.9278
B( 22-C , 24-H ) :   0.9373 B( 22-C , 25-C ) :   1.0571 B( 25-C , 26-H ) :   0.9542
B( 25-C , 27-H ) :   0.9503 B( 25-C , 28-C ) :   1.0980 B( 28-C , 29-H ) :   0.9683
B( 28-C , 30-H ) :   0.9715 B( 28-C , 31-H ) :   0.9714

Dispersion correction           -0.013553445
FINAL SINGLE POINT ENERGY     -1339.888912838261

DIPOLE MOMENT
-------------
                                X             Y             Z
Electronic contribution:     12.85563     -19.34274     -20.50234
Nuclear contribution   :    -13.11074      19.93334      20.82042
                        -----------------------------------------
Total Dipole Moment    :     -0.25511       0.59060       0.31808
                        -----------------------------------------
Magnitude (a.u.)       :      0.71768
Magnitude (Debye)      :      1.82419

Rotational constants in cm-1:     0.016759     0.008763     0.006278
Rotational constants in MHz :   502.424090   262.717421   188.219893

                             ****ORCA TERMINATED NORMALLY****
TOTAL RUN TIME: 0 days 0 hours 0 minutes 33 seconds 392 msec
