                         Program Version 4.2.1 -  RELEASE  -
|  1> ! wB97X-D3 SP def2-SVP
|  2> %pal
|  3> nprocs 16
|  4> end
|  5>
|  6> * xyz 0 1
|  7> S 	 0.0866321 	 -13.9391 	 81.3477
|  8> C 	 0.418905 	 -15.5661 	 81.6508
|  9> C 	 -0.514746 	 -16.3823 	 81.1304
| 10> C 	 -1.6385 	 -15.7074 	 80.5726
| 11> C 	 -1.45563 	 -14.3611 	 80.6817
| 12> H 	 -2.51783 	 -16.0666 	 80.0047
| 13> C 	 -0.515078 	 -17.849 	 81.2862
| 14> H 	 -1.52059 	 -18.2771 	 81.1751
| 15> H 	 -0.25974 	 -18.0673 	 82.2882
| 16> C 	 0.453159 	 -18.487 	 80.3103
| 17> H 	 1.51317 	 -18.369 	 80.5854
| 18> H 	 0.217873 	 -19.5159 	 80.4363
| 19> C 	 0.126084 	 -18.3069 	 78.8488
| 20> H 	 0.967987 	 -18.62 	 78.2191
| 21> H 	 -0.791093 	 -18.7705 	 78.58
| 22> H 	 0.0712808 	 -17.1986 	 78.7048
| 23> S 	 -1.22975 	 -11.9644 	 79.5169
| 24> C 	 -2.64506 	 -11.0731 	 79.113
| 25> C 	 -3.80919 	 -11.7304 	 79.3802
| 26> C 	 -3.6015 	 -13.0272 	 79.8251
| 27> C 	 -2.28513 	 -13.3064 	 80.0888
| 28> H 	 -4.77901 	 -11.2559 	 79.2636
| 29> C 	 -4.71446 	 -14.0121 	 80.1019
| 30> H 	 -5.44834 	 -13.5119 	 80.7724
| 31> H 	 -4.17737 	 -14.5738 	 80.8147
| 32> C 	 -5.2753 	 -14.7051 	 78.8294
| 33> H 	 -4.49941 	 -15.2861 	 78.274
| 34> H 	 -5.62941 	 -13.9112 	 78.1494
| 35> C 	 -6.37082 	 -15.7335 	 79.1648
| 36> H 	 -6.72922 	 -16.1185 	 78.2486
| 37> H 	 -7.12989 	 -15.3413 	 79.8873
| 38> H 	 -5.97196 	 -16.6524 	 79.5486
| 39> H 	 1.44596 	 -15.9419 	 81.9957
| 40> H 	 -2.63244 	 -10.0457 	 78.8276
| 41> *
| 42>
| 43>                          ****END OF INPUT****

CARTESIAN COORDINATES (ANGSTROEM)
---------------------------------
  S      0.086632  -13.939100   81.347700
  C      0.418905  -15.566100   81.650800
  C     -0.514746  -16.382300   81.130400
  C     -1.638500  -15.707400   80.572600
  C     -1.455630  -14.361100   80.681700
  H     -2.517830  -16.066600   80.004700
  C     -0.515078  -17.849000   81.286200
  H     -1.520590  -18.277100   81.175100
  H     -0.259740  -18.067300   82.288200
  C      0.453159  -18.487000   80.310300
  H      1.513170  -18.369000   80.585400
  H      0.217873  -19.515900   80.436300
  C      0.126084  -18.306900   78.848800
  H      0.967987  -18.620000   78.219100
  H     -0.791093  -18.770500   78.580000
  H      0.071281  -17.198600   78.704800
  S     -1.229750  -11.964400   79.516900
  C     -2.645060  -11.073100   79.113000
  C     -3.809190  -11.730400   79.380200
  C     -3.601500  -13.027200   79.825100
  C     -2.285130  -13.306400   80.088800
  H     -4.779010  -11.255900   79.263600
  C     -4.714460  -14.012100   80.101900
  H     -5.448340  -13.511900   80.772400
  H     -4.177370  -14.573800   80.814700
  C     -5.275300  -14.705100   78.829400
  H     -4.499410  -15.286100   78.274000
  H     -5.629410  -13.911200   78.149400
  C     -6.370820  -15.733500   79.164800
  H     -6.729220  -16.118500   78.248600
  H     -7.129890  -15.341300   79.887300
  H     -5.971960  -16.652400   79.548600
  H      1.445960  -15.941900   81.995700
  H     -2.632440  -10.045700   78.827600

 Total Charge           Charge          ....    0
 Multiplicity           Mult            ....    1
 Number of Electrons    NEL             ....  134
 Basis Dimension        Dim             ....  322

ORBITAL ENERGIES
----------------

  NO   OCC          E(Eh)            E(eV)
   0   2.0000     -88.964326     -2420.8424
   1   2.0000     -88.960078     -2420.7268
   2   2.0000     -10.324782      -280.9516
   3   2.0000     -10.324194      -280.9356
   4   2.0000     -10.308045      -280.4962
   5   2.0000     -10.306864      -280.4640
   6   2.0000     -10.297692      -280.2144
   7   2.0000     -10.295190      -280.1464
   8   2.0000     -10.291125      -280.0357
   9   2.0000     -10.290412      -280.0164
  10   2.0000     -10.288735      -279.9707
  11   2.0000     -10.284550      -279.8568
  12   2.0000     -10.281082      -279.7625
  13   2.0000     -10.277680      -279.6699
  14   2.0000     -10.277617      -279.6682
  15   2.0000     -10.273621      -279.5594
  16   2.0000      -8.080788      -219.8894
  17   2.0000      -8.075131      -219.7355
  18   2.0000      -6.039181      -164.3345
  19   2.0000      -6.035152      -164.2248
  20   2.0000      -6.033565      -164.1816
  21   2.0000      -6.031444      -164.1239
  22   2.0000      -6.029716      -164.0769
  23   2.0000      -6.025823      -163.9710
  24   2.0000      -1.018089       -27.7036
  25   2.0000      -0.992322       -27.0025
  26   2.0000      -0.922156       -25.0931
  27   2.0000      -0.908323       -24.7167
  28   2.0000      -0.871179       -23.7060
  29   2.0000      -0.859561       -23.3898
  30   2.0000      -0.850005       -23.1298
  31   2.0000      -0.817641       -22.2491
  32   2.0000      -0.785187       -21.3660
  33   2.0000      -0.772116       -21.0103
  34   2.0000      -0.707132       -19.2420
  35   2.0000      -0.700574       -19.0636
  36   2.0000      -0.695143       -18.9158
  37   2.0000      -0.667499       -18.1636
  38   2.0000      -0.637850       -17.3568
  39   2.0000      -0.613309       -16.6890
  40   2.0000      -0.592615       -16.1259
  41   2.0000      -0.578989       -15.7551
  42   2.0000      -0.563260       -15.3271
  43   2.0000      -0.553989       -15.0748
  44   2.0000      -0.540063       -14.6959
  45   2.0000      -0.531869       -14.4729
  46   2.0000      -0.518822       -14.1179
  47   2.0000      -0.516487       -14.0543
  48   2.0000      -0.507004       -13.7963
  49   2.0000      -0.498448       -13.5635
  50   2.0000      -0.486659       -13.2427
  51   2.0000      -0.483854       -13.1663
  52   2.0000      -0.474970       -12.9246
  53   2.0000      -0.464554       -12.6412
  54   2.0000      -0.456830       -12.4310
  55   2.0000      -0.450592       -12.2612
  56   2.0000      -0.445614       -12.1258
  57   2.0000      -0.442596       -12.0437
  58   2.0000      -0.436868       -11.8878
  59   2.0000      -0.427268       -11.6265
  60   2.0000      -0.419918       -11.4265
  61   2.0000      -0.410518       -11.1707
  62   2.0000      -0.399069       -10.8592
  63   2.0000      -0.356415        -9.6986
  64   2.0000      -0.334278        -9.0962
  65   2.0000      -0.329255        -8.9595
  66   2.0000      -0.283923        -7.7259
  67   0.0000       0.028321         0.7707
  68   0.0000       0.075611         2.0575
  69   0.0000       0.108104         2.9417
  70   0.0000       0.124724         3.3939
  71   0.0000       0.129212         3.5160

MULLIKEN ATOMIC CHARGES
-----------------------
   0 S :    0.111522
   1 C :   -0.131327
   2 C :   -0.094592
   3 C :   -0.006479
   4 C :   -0.111928
   5 H :    0.027045
   6 C :    0.089300
   7 H :    0.014763
   8 H :    0.018124
   9 C :   -0.074389
  10 H :    0.033960
  11 H :    0.010451
  12 C :   -0.045611
  13 H :    0.038430
  14 H :    0.027240
  15 H :    0.038821
  16 S :    0.073657
  17 C :   -0.066726
  18 C :   -0.033491
  19 C :   -0.073984
  20 C :   -0.143020
  21 H :    0.013981
  22 C :    0.073648
  23 H :    0.026328
  24 H :   -0.000480
  25 C :   -0.075008
  26 H :    0.036931
  27 H :    0.038619
  28 C :   -0.008084
  29 H :    0.018026
  30 H :    0.045104
  31 H :    0.015577
  32 H :    0.070740
  33 H :    0.042849
Sum of atomic charges:   -0.0000000

LOEWDIN ATOMIC CHARGES
----------------------
   0 S :    0.430822
   1 C :   -0.228735
   2 C :   -0.070041
   3 C :   -0.072295
   4 C :   -0.194988
   5 H :    0.040612
   6 C :   -0.029021
   7 H :    0.030457
   8 H :    0.028625
   9 C :   -0.044051
  10 H :    0.024678
  11 H :    0.019871
  12 C :   -0.062634
  13 H :    0.031160
  14 H :    0.019631
  15 H :    0.028645
  16 S :    0.384513
  17 C :   -0.185286
  18 C :   -0.075023
  19 C :   -0.062906
  20 C :   -0.169819
  21 H :    0.033716
  22 C :   -0.036291
  23 H :    0.035486
  24 H :    0.023156
  25 C :   -0.036423
  26 H :    0.031011
  27 H :    0.027990
  28 C :   -0.066299
  29 H :    0.022283
  30 H :    0.031350
  31 H :    0.022613
  32 H :    0.045046
  33 H :    0.022148

  Mayer bond orders larger than 0.100000
B(  0-S ,  1-C ) :   1.1293 B(  0-S ,  4-C ) :   1.1628 B(  1-C ,  2-C ) :   1.6324
B(  1-C , 32-H ) :   0.9533 B(  2-C ,  3-C ) :   1.2201 B(  2-C ,  6-C ) :   1.0169
B(  3-C ,  4-C ) :   1.5690 B(  3-C ,  5-H ) :   0.9940 B(  4-C , 20-C ) :   1.0380
B(  6-C ,  7-H ) :   0.9448 B(  6-C ,  8-H ) :   0.9368 B(  6-C ,  9-C ) :   1.0777
B(  9-C , 10-H ) :   0.9596 B(  9-C , 11-H ) :   0.9517 B(  9-C , 12-C ) :   1.0737
B( 12-C , 13-H ) :   0.9707 B( 12-C , 14-H ) :   0.9753 B( 12-C , 15-H ) :   0.9741
B( 16-S , 17-C ) :   1.1545 B( 16-S , 20-C ) :   1.1203 B( 17-C , 18-C ) :   1.6159
B( 17-C , 33-H ) :   0.9653 B( 18-C , 19-C ) :   1.2352 B( 18-C , 21-H ) :   0.9929
B( 19-C , 20-C ) :   1.6299 B( 19-C , 22-C ) :   1.0199 B( 22-C , 23-H ) :   0.9332
B( 22-C , 24-H ) :   0.9351 B( 22-C , 25-C ) :   1.0450 B( 25-C , 26-H ) :   0.9530
B( 25-C , 27-H ) :   0.9584 B( 25-C , 28-C ) :   1.0856 B( 28-C , 29-H ) :   0.9691
B( 28-C , 30-H ) :   0.9741 B( 28-C , 31-H ) :   0.9719

Dispersion correction           -0.014457368
FINAL SINGLE POINT ENERGY     -1339.861513346454

DIPOLE MOMENT
-------------
                                X             Y             Z
Electronic contribution:     13.12663      23.49388       6.26378
Nuclear contribution   :    -13.48082     -23.99821      -6.35931
                        -----------------------------------------
Total Dipole Moment    :     -0.35419      -0.50433      -0.09553
                        -----------------------------------------
Magnitude (a.u.)       :      0.62363
Magnitude (Debye)      :      1.58515

Rotational constants in cm-1:     0.017446     0.009742     0.006970
Rotational constants in MHz :   523.019075   292.043334   208.968311

                             ****ORCA TERMINATED NORMALLY****
TOTAL RUN TIME: 0 days 0 hours 0 minutes 34 seconds 373 msec
