                         Program Version 4.2.1 -  RELEASE  -
|  1> ! wB97X-D3 SP def2-SVP
|  2> %pal
|  3> nprocs 16
|  4> end
|  5>
|  6> * xyz 0 1
|  7> S 	 20.331 	 0.425217 	 84.5096
|  8> C 	 20.7251 	 1.13505 	 82.8913
|  9> C 	 19.5008 	 1.59704 	 82.3474
| 10> C 	 18.421 	 1.52854 	 83.2848
| 11> C 	 18.5927 	 0.745721 	 84.4085
| 12> H 	 17.4811 	 2.04306 	 83.2108
| 13> C 	 19.4454 	 2.37945 	 81.0671
| 14> H 	 20.3234 	 2.30006 	 80.4313
| 15> H 	 19.397 	 3.41818 	 81.562
| 16> C 	 18.2677 	 2.09253 	 80.0472
| 17> H 	 18.3394 	 1.11897 	 79.5737
| 18> H 	 17.2285 	 2.25132 	 80.4907
| 19> C 	 18.3356 	 3.06589 	 78.9054
| 20> H 	 17.5061 	 2.81571 	 78.2022
| 21> H 	 18.2108 	 4.07658 	 79.1151
| 22> H 	 19.2103 	 2.90781 	 78.2521
| 23> S 	 17.9949 	 0.082522 	 87.0559
| 24> C 	 16.4813 	 -0.479618 	 87.5331
| 25> C 	 15.6235 	 -0.43808 	 86.4223
| 26> C 	 16.2437 	 0.01636 	 85.189
| 27> C 	 17.5816 	 0.297776 	 85.3508
| 28> H 	 14.6132 	 -0.612912 	 86.5698
| 29> C 	 15.46 	 0.0891644 	 83.8726
| 30> H 	 15.5062 	 1.13139 	 83.6003
| 31> H 	 14.3822 	 -0.124705 	 84.1013
| 32> C 	 15.8673 	 -0.933675 	 82.7822
| 33> H 	 15.5403 	 -1.90517 	 83.0696
| 34> H 	 16.987 	 -0.912139 	 82.7494
| 35> C 	 15.3824 	 -0.573865 	 81.3602
| 36> H 	 14.3956 	 -0.936821 	 81.2296
| 37> H 	 16.0917 	 -0.916327 	 80.533
| 38> H 	 15.3189 	 0.503628 	 81.2359
| 39> H 	 21.6928 	 1.20585 	 82.561
| 40> H 	 16.0529 	 -0.663098 	 88.5298
| 41> *
| 42>
| 43>                          ****END OF INPUT****

CARTESIAN COORDINATES (ANGSTROEM)
---------------------------------
  S     20.331000    0.425217   84.509600
  C     20.725100    1.135050   82.891300
  C     19.500800    1.597040   82.347400
  C     18.421000    1.528540   83.284800
  C     18.592700    0.745721   84.408500
  H     17.481100    2.043060   83.210800
  C     19.445400    2.379450   81.067100
  H     20.323400    2.300060   80.431300
  H     19.397000    3.418180   81.562000
  C     18.267700    2.092530   80.047200
  H     18.339400    1.118970   79.573700
  H     17.228500    2.251320   80.490700
  C     18.335600    3.065890   78.905400
  H     17.506100    2.815710   78.202200
  H     18.210800    4.076580   79.115100
  H     19.210300    2.907810   78.252100
  S     17.994900    0.082522   87.055900
  C     16.481300   -0.479618   87.533100
  C     15.623500   -0.438080   86.422300
  C     16.243700    0.016360   85.189000
  C     17.581600    0.297776   85.350800
  H     14.613200   -0.612912   86.569800
  C     15.460000    0.089164   83.872600
  H     15.506200    1.131390   83.600300
  H     14.382200   -0.124705   84.101300
  C     15.867300   -0.933675   82.782200
  H     15.540300   -1.905170   83.069600
  H     16.987000   -0.912139   82.749400
  C     15.382400   -0.573865   81.360200
  H     14.395600   -0.936821   81.229600
  H     16.091700   -0.916327   80.533000
  H     15.318900    0.503628   81.235900
  H     21.692800    1.205850   82.561000
  H     16.052900   -0.663098   88.529800

 Total Charge           Charge          ....    0
 Multiplicity           Mult            ....    1
 Number of Electrons    NEL             ....  134
 Basis Dimension        Dim             ....  322

ORBITAL ENERGIES
----------------

  NO   OCC          E(Eh)            E(eV)
   0   2.0000     -88.966793     -2420.9095
   1   2.0000     -88.960817     -2420.7469
   2   2.0000     -10.335426      -281.2412
   3   2.0000     -10.331201      -281.1263
   4   2.0000     -10.320108      -280.8244
   5   2.0000     -10.317789      -280.7613
   6   2.0000     -10.310266      -280.5566
   7   2.0000     -10.308419      -280.5063
   8   2.0000     -10.302927      -280.3569
   9   2.0000     -10.296681      -280.1869
  10   2.0000     -10.296340      -280.1777
  11   2.0000     -10.293422      -280.0983
  12   2.0000     -10.291782      -280.0536
  13   2.0000     -10.285163      -279.8735
  14   2.0000     -10.278250      -279.6854
  15   2.0000     -10.275418      -279.6083
  16   2.0000      -8.082265      -219.9296
  17   2.0000      -8.074440      -219.7167
  18   2.0000      -6.040731      -164.3766
  19   2.0000      -6.036468      -164.2606
  20   2.0000      -6.033200      -164.1717
  21   2.0000      -6.033121      -164.1696
  22   2.0000      -6.029048      -164.0587
  23   2.0000      -6.025112      -163.9516
  24   2.0000      -1.007424       -27.4134
  25   2.0000      -0.981282       -26.7020
  26   2.0000      -0.910749       -24.7827
  27   2.0000      -0.906174       -24.6583
  28   2.0000      -0.873466       -23.7682
  29   2.0000      -0.851913       -23.1817
  30   2.0000      -0.842542       -22.9267
  31   2.0000      -0.817469       -22.2445
  32   2.0000      -0.781069       -21.2540
  33   2.0000      -0.769728       -20.9454
  34   2.0000      -0.711356       -19.3570
  35   2.0000      -0.698459       -19.0060
  36   2.0000      -0.694241       -18.8913
  37   2.0000      -0.664301       -18.0766
  38   2.0000      -0.646820       -17.6009
  39   2.0000      -0.622361       -16.9353
  40   2.0000      -0.589131       -16.0311
  41   2.0000      -0.573443       -15.6042
  42   2.0000      -0.565797       -15.3961
  43   2.0000      -0.564278       -15.3548
  44   2.0000      -0.531797       -14.4709
  45   2.0000      -0.523897       -14.2560
  46   2.0000      -0.518921       -14.1206
  47   2.0000      -0.513974       -13.9860
  48   2.0000      -0.510441       -13.8898
  49   2.0000      -0.501461       -13.6454
  50   2.0000      -0.497205       -13.5296
  51   2.0000      -0.484848       -13.1934
  52   2.0000      -0.473019       -12.8715
  53   2.0000      -0.470237       -12.7958
  54   2.0000      -0.459847       -12.5131
  55   2.0000      -0.448150       -12.1948
  56   2.0000      -0.439359       -11.9556
  57   2.0000      -0.438382       -11.9290
  58   2.0000      -0.432285       -11.7631
  59   2.0000      -0.421630       -11.4731
  60   2.0000      -0.419595       -11.4178
  61   2.0000      -0.408204       -11.1078
  62   2.0000      -0.399829       -10.8799
  63   2.0000      -0.356054        -9.6887
  64   2.0000      -0.329661        -8.9705
  65   2.0000      -0.321834        -8.7576
  66   2.0000      -0.286951        -7.8083
  67   0.0000       0.017761         0.4833
  68   0.0000       0.078835         2.1452
  69   0.0000       0.108554         2.9539
  70   0.0000       0.120372         3.2755
  71   0.0000       0.123941         3.3726

MULLIKEN ATOMIC CHARGES
-----------------------
   0 S :    0.078072
   1 C :   -0.094444
   2 C :   -0.039633
   3 C :   -0.008720
   4 C :   -0.114313
   5 H :    0.006441
   6 C :    0.005427
   7 H :    0.023163
   8 H :    0.063577
   9 C :   -0.084664
  10 H :    0.040681
  11 H :    0.044204
  12 C :   -0.051827
  13 H :    0.027202
  14 H :    0.023445
  15 H :    0.027418
  16 S :    0.117016
  17 C :   -0.081338
  18 C :   -0.038915
  19 C :   -0.055359
  20 C :   -0.141672
  21 H :   -0.007859
  22 C :    0.053645
  23 H :    0.027429
  24 H :    0.020549
  25 C :   -0.065099
  26 H :    0.027408
  27 H :    0.051128
  28 C :   -0.041726
  29 H :    0.024686
  30 H :    0.049246
  31 H :    0.016218
  32 H :    0.026905
  33 H :    0.071709
Sum of atomic charges:    0.0000000

LOEWDIN ATOMIC CHARGES
----------------------
   0 S :    0.366415
   1 C :   -0.166791
   2 C :   -0.058854
   3 C :   -0.073361
   4 C :   -0.179714
   5 H :    0.025821
   6 C :   -0.039867
   7 H :    0.029145
   8 H :    0.052621
   9 C :   -0.042346
  10 H :    0.028754
  11 H :    0.029641
  12 C :   -0.068052
  13 H :    0.031770
  14 H :    0.013570
  15 H :    0.024590
  16 S :    0.432448
  17 C :   -0.208857
  18 C :   -0.071250
  19 C :   -0.050109
  20 C :   -0.197086
  21 H :    0.016039
  22 C :   -0.032506
  23 H :    0.024160
  24 H :    0.032628
  25 C :   -0.036913
  26 H :    0.021054
  27 H :    0.031865
  28 C :   -0.065754
  29 H :    0.018199
  30 H :    0.037507
  31 H :    0.019684
  32 H :    0.011447
  33 H :    0.044105

  Mayer bond orders larger than 0.100000
B(  0-S ,  1-C ) :   1.1229 B(  0-S ,  4-C ) :   1.1386 B(  1-C ,  2-C ) :   1.5636
B(  1-C ,  4-C ) :   0.1070 B(  1-C , 32-H ) :   0.9934 B(  2-C ,  3-C ) :   1.2341
B(  2-C ,  6-C ) :   1.0255 B(  3-C ,  4-C ) :   1.5613 B(  3-C ,  5-H ) :   0.9942
B(  4-C , 20-C ) :   1.0859 B(  6-C ,  7-H ) :   0.9492 B(  6-C ,  8-H ) :   0.9431
B(  6-C ,  9-C ) :   1.0523 B(  9-C , 10-H ) :   0.9553 B(  9-C , 11-H ) :   0.9520
B(  9-C , 12-C ) :   1.0937 B( 12-C , 13-H ) :   0.9705 B( 12-C , 14-H ) :   0.9768
B( 12-C , 15-H ) :   0.9706 B( 16-S , 17-C ) :   1.1817 B( 16-S , 20-C ) :   1.1352
B( 17-C , 18-C ) :   1.5754 B( 17-C , 33-H ) :   0.9634 B( 18-C , 19-C ) :   1.2724
B( 18-C , 21-H ) :   0.9969 B( 19-C , 20-C ) :   1.5674 B( 19-C , 22-C ) :   1.0352
B( 22-C , 23-H ) :   0.9358 B( 22-C , 24-H ) :   0.9325 B( 22-C , 25-C ) :   1.0556
B( 25-C , 26-H ) :   0.9575 B( 25-C , 27-H ) :   0.9631 B( 25-C , 28-C ) :   1.0690
B( 28-C , 29-H ) :   0.9752 B( 28-C , 30-H ) :   0.9757 B( 28-C , 31-H ) :   0.9757

Dispersion correction           -0.015110318
FINAL SINGLE POINT ENERGY     -1339.858284989275

DIPOLE MOMENT
-------------
                                X             Y             Z
Electronic contribution:     13.30095      -5.51542      30.91965
Nuclear contribution   :    -13.86295       5.80568     -31.46981
                        -----------------------------------------
Total Dipole Moment    :     -0.56200       0.29026      -0.55017
                        -----------------------------------------
Magnitude (a.u.)       :      0.83832
Magnitude (Debye)      :      2.13084

Rotational constants in cm-1:     0.019806     0.009195     0.006748
Rotational constants in MHz :   593.775523   275.647150   202.307637

                             ****ORCA TERMINATED NORMALLY****
TOTAL RUN TIME: 0 days 0 hours 0 minutes 34 seconds 421 msec
