                         Program Version 4.2.1 -  RELEASE  -
|  1> ! wB97X-D3 SP def2-SVP
|  2> %pal
|  3> nprocs 16
|  4> end
|  5>
|  6> * xyz 0 1
|  7> S 	 -27.3854 	 32.7435 	 40.1389
|  8> C 	 -26.0205 	 32.9112 	 39.0962
|  9> C 	 -25.1055 	 31.8551 	 39.3284
| 10> C 	 -25.4572 	 31.093 	 40.474
| 11> C 	 -26.7254 	 31.3592 	 40.9317
| 12> H 	 -24.92 	 30.2692 	 40.9193
| 13> C 	 -23.7657 	 31.8097 	 38.6259
| 14> H 	 -23.1334 	 32.3672 	 39.2938
| 15> H 	 -23.677 	 32.4232 	 37.7313
| 16> C 	 -23.2538 	 30.3666 	 38.3224
| 17> H 	 -23.2078 	 29.7249 	 39.1922
| 18> H 	 -23.8125 	 29.8413 	 37.5302
| 19> C 	 -21.7981 	 30.3865 	 37.8949
| 20> H 	 -21.6692 	 30.7364 	 36.9678
| 21> H 	 -21.2523 	 31.0673 	 38.5525
| 22> H 	 -21.2583 	 29.4212 	 37.9903
| 23> S 	 -28.9378 	 29.7249 	 41.0986
| 24> C 	 -29.4897 	 28.904 	 42.5333
| 25> C 	 -28.5741 	 29.2671 	 43.5308
| 26> C 	 -27.5255 	 30.2208 	 43.1233
| 27> C 	 -27.554 	 30.5293 	 41.789
| 28> H 	 -28.744 	 28.9364 	 44.5565
| 29> C 	 -26.4255 	 30.7622 	 44.0568
| 30> H 	 -25.609 	 31.0967 	 43.5125
| 31> H 	 -26.0588 	 30.0043 	 44.7383
| 32> C 	 -26.8449 	 31.8616 	 45.0457
| 33> H 	 -27.4225 	 32.5848 	 44.4524
| 34> H 	 -25.9297 	 32.3487 	 45.4908
| 35> C 	 -27.7073 	 31.4173 	 46.2412
| 36> H 	 -27.2371 	 30.5103 	 46.7745
| 37> H 	 -28.677 	 31.0342 	 46.0277
| 38> H 	 -27.84 	 32.1994 	 47.0058
| 39> H 	 -25.788 	 33.7302 	 38.4188
| 40> H 	 -30.2701 	 28.1853 	 42.7628
| 41> *
| 42>
| 43>                          ****END OF INPUT****

CARTESIAN COORDINATES (ANGSTROEM)
---------------------------------
  S    -27.385400   32.743500   40.138900
  C    -26.020500   32.911200   39.096200
  C    -25.105500   31.855100   39.328400
  C    -25.457200   31.093000   40.474000
  C    -26.725400   31.359200   40.931700
  H    -24.920000   30.269200   40.919300
  C    -23.765700   31.809700   38.625900
  H    -23.133400   32.367200   39.293800
  H    -23.677000   32.423200   37.731300
  C    -23.253800   30.366600   38.322400
  H    -23.207800   29.724900   39.192200
  H    -23.812500   29.841300   37.530200
  C    -21.798100   30.386500   37.894900
  H    -21.669200   30.736400   36.967800
  H    -21.252300   31.067300   38.552500
  H    -21.258300   29.421200   37.990300
  S    -28.937800   29.724900   41.098600
  C    -29.489700   28.904000   42.533300
  C    -28.574100   29.267100   43.530800
  C    -27.525500   30.220800   43.123300
  C    -27.554000   30.529300   41.789000
  H    -28.744000   28.936400   44.556500
  C    -26.425500   30.762200   44.056800
  H    -25.609000   31.096700   43.512500
  H    -26.058800   30.004300   44.738300
  C    -26.844900   31.861600   45.045700
  H    -27.422500   32.584800   44.452400
  H    -25.929700   32.348700   45.490800
  C    -27.707300   31.417300   46.241200
  H    -27.237100   30.510300   46.774500
  H    -28.677000   31.034200   46.027700
  H    -27.840000   32.199400   47.005800
  H    -25.788000   33.730200   38.418800
  H    -30.270100   28.185300   42.762800

 Total Charge           Charge          ....    0
 Multiplicity           Mult            ....    1
 Number of Electrons    NEL             ....  134
 Basis Dimension        Dim             ....  322

ORBITAL ENERGIES
----------------

  NO   OCC          E(Eh)            E(eV)
   0   2.0000     -88.968886     -2420.9665
   1   2.0000     -88.962359     -2420.7888
   2   2.0000     -10.328897      -281.0636
   3   2.0000     -10.326921      -281.0098
   4   2.0000     -10.321902      -280.8732
   5   2.0000     -10.316149      -280.7167
   6   2.0000     -10.306428      -280.4522
   7   2.0000     -10.305735      -280.4333
   8   2.0000     -10.298623      -280.2398
   9   2.0000     -10.296376      -280.1786
  10   2.0000     -10.295028      -280.1420
  11   2.0000     -10.288506      -279.9645
  12   2.0000     -10.288360      -279.9605
  13   2.0000     -10.284196      -279.8472
  14   2.0000     -10.279679      -279.7243
  15   2.0000     -10.267780      -279.4005
  16   2.0000      -8.084141      -219.9807
  17   2.0000      -8.077180      -219.7912
  18   2.0000      -6.042515      -164.4252
  19   2.0000      -6.038341      -164.3116
  20   2.0000      -6.035877      -164.2446
  21   2.0000      -6.035228      -164.2269
  22   2.0000      -6.031366      -164.1218
  23   2.0000      -6.027961      -164.0291
  24   2.0000      -1.011824       -27.5331
  25   2.0000      -0.986194       -26.8357
  26   2.0000      -0.913387       -24.8545
  27   2.0000      -0.904451       -24.6114
  28   2.0000      -0.873613       -23.7722
  29   2.0000      -0.854486       -23.2517
  30   2.0000      -0.836663       -22.7667
  31   2.0000      -0.820577       -22.3290
  32   2.0000      -0.782927       -21.3045
  33   2.0000      -0.773474       -21.0473
  34   2.0000      -0.713384       -19.4122
  35   2.0000      -0.696064       -18.9409
  36   2.0000      -0.688051       -18.7228
  37   2.0000      -0.658800       -17.9268
  38   2.0000      -0.648755       -17.6535
  39   2.0000      -0.622656       -16.9433
  40   2.0000      -0.592501       -16.1228
  41   2.0000      -0.572440       -15.5769
  42   2.0000      -0.569510       -15.4972
  43   2.0000      -0.553884       -15.0720
  44   2.0000      -0.540216       -14.7000
  45   2.0000      -0.526609       -14.3297
  46   2.0000      -0.520365       -14.1599
  47   2.0000      -0.513380       -13.9698
  48   2.0000      -0.505777       -13.7629
  49   2.0000      -0.504716       -13.7340
  50   2.0000      -0.485955       -13.2235
  51   2.0000      -0.482673       -13.1342
  52   2.0000      -0.472470       -12.8566
  53   2.0000      -0.469440       -12.7741
  54   2.0000      -0.457955       -12.4616
  55   2.0000      -0.453017       -12.3272
  56   2.0000      -0.439981       -11.9725
  57   2.0000      -0.434676       -11.8281
  58   2.0000      -0.428556       -11.6616
  59   2.0000      -0.425086       -11.5672
  60   2.0000      -0.416245       -11.3266
  61   2.0000      -0.415033       -11.2936
  62   2.0000      -0.406751       -11.0683
  63   2.0000      -0.345551        -9.4029
  64   2.0000      -0.330302        -8.9880
  65   2.0000      -0.322500        -8.7757
  66   2.0000      -0.301480        -8.2037
  67   0.0000       0.037972         1.0333
  68   0.0000       0.059416         1.6168
  69   0.0000       0.115949         3.1551
  70   0.0000       0.121282         3.3003
  71   0.0000       0.133736         3.6391

MULLIKEN ATOMIC CHARGES
-----------------------
   0 S :    0.137981
   1 C :   -0.117362
   2 C :   -0.082504
   3 C :    0.061390
   4 C :   -0.189435
   5 H :    0.016614
   6 C :    0.049394
   7 H :    0.034278
   8 H :    0.017162
   9 C :   -0.079729
  10 H :    0.030295
  11 H :    0.044200
  12 C :   -0.019765
  13 H :    0.000733
  14 H :    0.011894
  15 H :    0.035413
  16 S :    0.105579
  17 C :   -0.082449
  18 C :   -0.057398
  19 C :   -0.042942
  20 C :   -0.154398
  21 H :    0.022933
  22 C :    0.117892
  23 H :    0.003323
  24 H :    0.012887
  25 C :   -0.080426
  26 H :    0.033501
  27 H :    0.041226
  28 C :   -0.078692
  29 H :    0.021293
  30 H :    0.026812
  31 H :    0.041419
  32 H :    0.053839
  33 H :    0.065042
Sum of atomic charges:    0.0000000

LOEWDIN ATOMIC CHARGES
----------------------
   0 S :    0.439475
   1 C :   -0.211365
   2 C :   -0.059131
   3 C :   -0.055674
   4 C :   -0.208173
   5 H :    0.032644
   6 C :   -0.032513
   7 H :    0.034301
   8 H :    0.030216
   9 C :   -0.038014
  10 H :    0.023329
  11 H :    0.030672
  12 C :   -0.058516
  13 H :    0.003054
  14 H :    0.023451
  15 H :    0.031121
  16 S :    0.414811
  17 C :   -0.196725
  18 C :   -0.076811
  19 C :   -0.057996
  20 C :   -0.204523
  21 H :    0.027231
  22 C :   -0.026370
  23 H :    0.020257
  24 H :    0.028067
  25 C :   -0.040078
  26 H :    0.024782
  27 H :    0.032302
  28 C :   -0.076761
  29 H :    0.027143
  30 H :    0.016044
  31 H :    0.029410
  32 H :    0.032132
  33 H :    0.042207

  Mayer bond orders larger than 0.100000
B(  0-S ,  1-C ) :   1.1568 B(  0-S ,  4-C ) :   1.1743 B(  1-C ,  2-C ) :   1.5667
B(  1-C ,  4-C ) :   0.1081 B(  1-C , 32-H ) :   0.9717 B(  2-C ,  3-C ) :   1.2659
B(  2-C ,  6-C ) :   1.0254 B(  3-C ,  4-C ) :   1.5562 B(  3-C ,  5-H ) :   0.9890
B(  4-C , 20-C ) :   1.0164 B(  6-C ,  7-H ) :   0.9400 B(  6-C ,  8-H ) :   0.9453
B(  6-C ,  9-C ) :   1.0547 B(  9-C , 10-H ) :   0.9590 B(  9-C , 11-H ) :   0.9594
B(  9-C , 12-C ) :   1.0840 B( 12-C , 13-H ) :   0.9739 B( 12-C , 14-H ) :   0.9716
B( 12-C , 15-H ) :   0.9745 B( 16-S , 17-C ) :   1.1526 B( 16-S , 20-C ) :   1.1386
B( 17-C , 18-C ) :   1.6069 B( 17-C , 33-H ) :   0.9688 B( 18-C , 19-C ) :   1.2372
B( 18-C , 21-H ) :   0.9820 B( 19-C , 20-C ) :   1.6099 B( 19-C , 22-C ) :   1.0477
B( 22-C , 23-H ) :   0.9274 B( 22-C , 24-H ) :   0.9373 B( 22-C , 25-C ) :   1.0707
B( 25-C , 26-H ) :   0.9530 B( 25-C , 27-H ) :   0.9561 B( 25-C , 28-C ) :   1.0771
B( 28-C , 29-H ) :   0.9720 B( 28-C , 30-H ) :   0.9735 B( 28-C , 31-H ) :   0.9739

Dispersion correction           -0.013839857
FINAL SINGLE POINT ENERGY     -1339.865879305713

DIPOLE MOMENT
-------------
                                X             Y             Z
Electronic contribution:    -20.66695       1.29133      -7.96850
Nuclear contribution   :     21.25794      -1.33080       8.13400
                        -----------------------------------------
Total Dipole Moment    :      0.59099      -0.03946       0.16550
                        -----------------------------------------
Magnitude (a.u.)       :      0.61500
Magnitude (Debye)      :      1.56320

Rotational constants in cm-1:     0.020506     0.007171     0.006699
Rotational constants in MHz :   614.740170   214.986944   200.843352

                             ****ORCA TERMINATED NORMALLY****
TOTAL RUN TIME: 0 days 0 hours 0 minutes 30 seconds 835 msec
