                         Program Version 4.2.1 -  RELEASE  -
|  1> ! wB97X-D3 SP def2-SVP
|  2> %pal
|  3> nprocs 16
|  4> end
|  5>
|  6> * xyz 0 1
|  7> S 	 16.9049 	 -7.42635 	 80.3617
|  8> C 	 16.0897 	 -7.1289 	 78.8553
|  9> C 	 16.7635 	 -7.77126 	 77.8407
| 10> C 	 18.1147 	 -8.17108 	 78.2409
| 11> C 	 18.3017 	 -8.07669 	 79.5711
| 12> H 	 18.843 	 -8.69134 	 77.674
| 13> C 	 16.2766 	 -7.903 	 76.4661
| 14> H 	 17.1334 	 -7.98148 	 75.8487
| 15> H 	 15.6273 	 -7.01184 	 76.2291
| 16> C 	 15.3784 	 -9.10177 	 76.2295
| 17> H 	 15.9964 	 -10.0028 	 76.2816
| 18> H 	 14.7046 	 -9.24204 	 77.0693
| 19> C 	 14.5598 	 -9.01453 	 74.8998
| 20> H 	 14.3419 	 -10.0784 	 74.4723
| 21> H 	 13.5852 	 -8.482 	 75.0133
| 22> H 	 15.0416 	 -8.42928 	 74.13
| 23> S 	 19.8221 	 -7.55792 	 81.7339
| 24> C 	 21.1698 	 -8.62941 	 82.1717
| 25> C 	 21.147 	 -9.86329 	 81.5064
| 26> C 	 20.1141 	 -9.88781 	 80.4919
| 27> C 	 19.3516 	 -8.68072 	 80.4275
| 28> H 	 21.9132 	 -10.6101 	 81.837
| 29> C 	 19.9718 	 -10.9611 	 79.4758
| 30> H 	 18.9172 	 -11.0754 	 79.1907
| 31> H 	 20.1275 	 -11.8694 	 80.0873
| 32> C 	 20.8825 	 -11.082 	 78.2826
| 33> H 	 21.8852 	 -11.1109 	 78.6677
| 34> H 	 20.8271 	 -10.1385 	 77.7491
| 35> C 	 20.753 	 -12.2141 	 77.2437
| 36> H 	 19.6776 	 -12.448 	 76.9481
| 37> H 	 21.1967 	 -13.0652 	 77.7941
| 38> H 	 21.3291 	 -12.0342 	 76.3262
| 39> H 	 15.1941 	 -6.57473 	 78.6812
| 40> H 	 21.8613 	 -8.58203 	 82.9633
| 41> *
| 42>
| 43>                          ****END OF INPUT****

CARTESIAN COORDINATES (ANGSTROEM)
---------------------------------
  S     16.904900   -7.426350   80.361700
  C     16.089700   -7.128900   78.855300
  C     16.763500   -7.771260   77.840700
  C     18.114700   -8.171080   78.240900
  C     18.301700   -8.076690   79.571100
  H     18.843000   -8.691340   77.674000
  C     16.276600   -7.903000   76.466100
  H     17.133400   -7.981480   75.848700
  H     15.627300   -7.011840   76.229100
  C     15.378400   -9.101770   76.229500
  H     15.996400  -10.002800   76.281600
  H     14.704600   -9.242040   77.069300
  C     14.559800   -9.014530   74.899800
  H     14.341900  -10.078400   74.472300
  H     13.585200   -8.482000   75.013300
  H     15.041600   -8.429280   74.130000
  S     19.822100   -7.557920   81.733900
  C     21.169800   -8.629410   82.171700
  C     21.147000   -9.863290   81.506400
  C     20.114100   -9.887810   80.491900
  C     19.351600   -8.680720   80.427500
  H     21.913200  -10.610100   81.837000
  C     19.971800  -10.961100   79.475800
  H     18.917200  -11.075400   79.190700
  H     20.127500  -11.869400   80.087300
  C     20.882500  -11.082000   78.282600
  H     21.885200  -11.110900   78.667700
  H     20.827100  -10.138500   77.749100
  C     20.753000  -12.214100   77.243700
  H     19.677600  -12.448000   76.948100
  H     21.196700  -13.065200   77.794100
  H     21.329100  -12.034200   76.326200
  H     15.194100   -6.574730   78.681200
  H     21.861300   -8.582030   82.963300

 Total Charge           Charge          ....    0
 Multiplicity           Mult            ....    1
 Number of Electrons    NEL             ....  134
 Basis Dimension        Dim             ....  322

ORBITAL ENERGIES
----------------

  NO   OCC          E(Eh)            E(eV)
   0   2.0000     -88.968654     -2420.9601
   1   2.0000     -88.962813     -2420.8012
   2   2.0000     -10.336469      -281.2696
   3   2.0000     -10.328471      -281.0520
   4   2.0000     -10.318888      -280.7912
   5   2.0000     -10.316663      -280.7307
   6   2.0000     -10.310668      -280.5675
   7   2.0000     -10.305088      -280.4157
   8   2.0000     -10.300322      -280.2860
   9   2.0000     -10.291156      -280.0366
  10   2.0000     -10.291020      -280.0329
  11   2.0000     -10.290295      -280.0132
  12   2.0000     -10.290273      -280.0126
  13   2.0000     -10.287401      -279.9344
  14   2.0000     -10.287089      -279.9259
  15   2.0000     -10.284889      -279.8661
  16   2.0000      -8.082217      -219.9283
  17   2.0000      -8.078338      -219.8227
  18   2.0000      -6.040844      -164.3797
  19   2.0000      -6.036933      -164.2733
  20   2.0000      -6.036821      -164.2703
  21   2.0000      -6.032960      -164.1652
  22   2.0000      -6.032795      -164.1607
  23   2.0000      -6.028868      -164.0538
  24   2.0000      -1.008531       -27.4435
  25   2.0000      -0.979699       -26.6590
  26   2.0000      -0.918005       -24.9802
  27   2.0000      -0.911685       -24.8082
  28   2.0000      -0.868228       -23.6257
  29   2.0000      -0.853046       -23.2126
  30   2.0000      -0.844728       -22.9862
  31   2.0000      -0.821059       -22.3422
  32   2.0000      -0.780991       -21.2518
  33   2.0000      -0.770139       -20.9565
  34   2.0000      -0.708110       -19.2687
  35   2.0000      -0.703432       -19.1414
  36   2.0000      -0.693325       -18.8663
  37   2.0000      -0.661538       -18.0014
  38   2.0000      -0.646423       -17.5901
  39   2.0000      -0.620613       -16.8877
  40   2.0000      -0.591635       -16.0992
  41   2.0000      -0.574030       -15.6201
  42   2.0000      -0.569068       -15.4851
  43   2.0000      -0.556418       -15.1409
  44   2.0000      -0.524739       -14.2789
  45   2.0000      -0.521675       -14.1955
  46   2.0000      -0.520960       -14.1761
  47   2.0000      -0.512969       -13.9586
  48   2.0000      -0.508530       -13.8378
  49   2.0000      -0.500870       -13.6294
  50   2.0000      -0.494665       -13.4605
  51   2.0000      -0.482984       -13.1427
  52   2.0000      -0.471159       -12.8209
  53   2.0000      -0.463028       -12.5996
  54   2.0000      -0.459042       -12.4912
  55   2.0000      -0.449944       -12.2436
  56   2.0000      -0.448136       -12.1944
  57   2.0000      -0.439334       -11.9549
  58   2.0000      -0.432039       -11.7564
  59   2.0000      -0.425712       -11.5842
  60   2.0000      -0.424077       -11.5397
  61   2.0000      -0.413838       -11.2611
  62   2.0000      -0.403627       -10.9832
  63   2.0000      -0.347997        -9.4695
  64   2.0000      -0.330570        -8.9953
  65   2.0000      -0.326300        -8.8791
  66   2.0000      -0.293401        -7.9839
  67   0.0000       0.024918         0.6781
  68   0.0000       0.068546         1.8652
  69   0.0000       0.100654         2.7389
  70   0.0000       0.116667         3.1747
  71   0.0000       0.125093         3.4040

MULLIKEN ATOMIC CHARGES
-----------------------
   0 S :    0.104828
   1 C :   -0.092201
   2 C :   -0.124046
   3 C :    0.035177
   4 C :   -0.086444
   5 H :   -0.012739
   6 C :    0.067933
   7 H :    0.017205
   8 H :    0.030218
   9 C :   -0.057480
  10 H :    0.019885
  11 H :    0.026513
  12 C :   -0.085160
  13 H :    0.051608
  14 H :    0.041532
  15 H :    0.030967
  16 S :    0.099318
  17 C :   -0.055471
  18 C :   -0.080169
  19 C :   -0.017915
  20 C :   -0.164204
  21 H :    0.045537
  22 C :    0.044280
  23 H :    0.025728
  24 H :    0.010804
  25 C :   -0.042575
  26 H :    0.014042
  27 H :    0.014222
  28 C :   -0.065665
  29 H :    0.043999
  30 H :    0.037112
  31 H :    0.048249
  32 H :    0.039777
  33 H :    0.035137
Sum of atomic charges:    0.0000000

LOEWDIN ATOMIC CHARGES
----------------------
   0 S :    0.409640
   1 C :   -0.197266
   2 C :   -0.055740
   3 C :   -0.065472
   4 C :   -0.195821
   5 H :    0.025101
   6 C :   -0.036537
   7 H :    0.026138
   8 H :    0.037388
   9 C :   -0.041462
  10 H :    0.022215
  11 H :    0.023041
  12 C :   -0.077685
  13 H :    0.039058
  14 H :    0.029717
  15 H :    0.020632
  16 S :    0.388777
  17 C :   -0.172520
  18 C :   -0.075324
  19 C :   -0.049695
  20 C :   -0.182079
  21 H :    0.045271
  22 C :   -0.046226
  23 H :    0.031228
  24 H :    0.032633
  25 C :   -0.046101
  26 H :    0.022633
  27 H :    0.015942
  28 C :   -0.067123
  29 H :    0.031145
  30 H :    0.028974
  31 H :    0.032208
  32 H :    0.027077
  33 H :    0.020235

  Mayer bond orders larger than 0.100000
B(  0-S ,  1-C ) :   1.1214 B(  0-S ,  4-C ) :   1.1517 B(  1-C ,  2-C ) :   1.6167
B(  1-C , 32-H ) :   0.9738 B(  2-C ,  3-C ) :   1.2023 B(  2-C ,  6-C ) :   1.0524
B(  3-C ,  4-C ) :   1.6141 B(  3-C ,  5-H ) :   1.0046 B(  4-C , 20-C ) :   1.0061
B(  6-C ,  7-H ) :   0.9293 B(  6-C ,  8-H ) :   0.9428 B(  6-C ,  9-C ) :   1.0602
B(  9-C , 10-H ) :   0.9552 B(  9-C , 11-H ) :   0.9605 B(  9-C , 12-C ) :   1.0621
B( 12-C , 13-H ) :   0.9767 B( 12-C , 14-H ) :   0.9757 B( 12-C , 15-H ) :   0.9770
B( 16-S , 17-C ) :   1.1465 B( 16-S , 20-C ) :   1.1289 B( 17-C , 18-C ) :   1.6444
B( 17-C , 20-C ) :   0.1042 B( 17-C , 33-H ) :   0.9650 B( 18-C , 19-C ) :   1.2137
B( 18-C , 21-H ) :   0.9819 B( 19-C , 20-C ) :   1.5850 B( 19-C , 22-C ) :   1.0611
B( 22-C , 23-H ) :   0.9288 B( 22-C , 24-H ) :   0.9188 B( 22-C , 25-C ) :   1.0632
B( 25-C , 26-H ) :   0.9486 B( 25-C , 27-H ) :   0.9509 B( 25-C , 28-C ) :   1.0739
B( 28-C , 29-H ) :   0.9757 B( 28-C , 30-H ) :   0.9781 B( 28-C , 31-H ) :   0.9732

Dispersion correction           -0.013833995
FINAL SINGLE POINT ENERGY     -1339.859187483328

DIPOLE MOMENT
-------------
                                X             Y             Z
Electronic contribution:      3.59396      17.49559      26.78137
Nuclear contribution   :     -3.47834     -18.00727     -27.26741
                        -----------------------------------------
Total Dipole Moment    :      0.11562      -0.51169      -0.48604
                        -----------------------------------------
Magnitude (a.u.)       :      0.71514
Magnitude (Debye)      :      1.81775

Rotational constants in cm-1:     0.017820     0.008891     0.006182
Rotational constants in MHz :   534.224473   266.551833   185.336848

                             ****ORCA TERMINATED NORMALLY****
TOTAL RUN TIME: 0 days 0 hours 0 minutes 29 seconds 73 msec
