                         Program Version 4.2.1 -  RELEASE  -
|  1> ! wB97X-D3 SP def2-SVP
|  2> %pal
|  3> nprocs 16
|  4> end
|  5>
|  6> * xyz 0 1
|  7> S 	 50.5193 	 5.43297 	 93.532
|  8> C 	 51.4597 	 6.89274 	 93.3355
|  9> C 	 50.8166 	 8.05711 	 93.7692
| 10> C 	 49.5033 	 7.70492 	 94.298
| 11> C 	 49.1463 	 6.34681 	 94.1739
| 12> H 	 48.8145 	 8.44006 	 94.6734
| 13> C 	 51.3556 	 9.5061 	 93.9178
| 14> H 	 52.4119 	 9.44546 	 93.8469
| 15> H 	 51.1428 	 9.93369 	 94.882
| 16> C 	 50.8893 	 10.5429 	 92.9109
| 17> H 	 50.9476 	 10.1232 	 91.8858
| 18> H 	 49.8326 	 10.7642 	 93.1673
| 19> C 	 51.6297 	 11.8495 	 92.9518
| 20> H 	 52.7199 	 11.7464 	 92.8411
| 21> H 	 51.2029 	 12.4047 	 92.1009
| 22> H 	 51.4945 	 12.3887 	 93.9189
| 23> S 	 47.2015 	 4.2873 	 93.7105
| 24> C 	 45.9727 	 3.90015 	 94.8814
| 25> C 	 46.0158 	 4.87595 	 95.8522
| 26> C 	 47.1444 	 5.85892 	 95.7952
| 27> C 	 47.9225 	 5.65112 	 94.6342
| 28> H 	 45.3906 	 4.71798 	 96.6905
| 29> C 	 47.3805 	 6.88165 	 96.8811
| 30> H 	 46.4583 	 7.46823 	 97.0322
| 31> H 	 48.1185 	 7.57343 	 96.5675
| 32> C 	 47.6857 	 6.38226 	 98.324
| 33> H 	 46.7115 	 5.93439 	 98.6784
| 34> H 	 47.9425 	 7.3096 	 98.8617
| 35> C 	 48.8467 	 5.30552 	 98.4321
| 36> H 	 49.1457 	 5.25375 	 99.4947
| 37> H 	 49.6557 	 5.69372 	 97.7952
| 38> H 	 48.5885 	 4.29683 	 98.1109
| 39> H 	 52.4368 	 6.89345 	 92.8417
| 40> H 	 45.2509 	 3.02408 	 94.8359
| 41> *
| 42>
| 43>                          ****END OF INPUT****

CARTESIAN COORDINATES (ANGSTROEM)
---------------------------------
  S     50.519300    5.432970   93.532000
  C     51.459700    6.892740   93.335500
  C     50.816600    8.057110   93.769200
  C     49.503300    7.704920   94.298000
  C     49.146300    6.346810   94.173900
  H     48.814500    8.440060   94.673400
  C     51.355600    9.506100   93.917800
  H     52.411900    9.445460   93.846900
  H     51.142800    9.933690   94.882000
  C     50.889300   10.542900   92.910900
  H     50.947600   10.123200   91.885800
  H     49.832600   10.764200   93.167300
  C     51.629700   11.849500   92.951800
  H     52.719900   11.746400   92.841100
  H     51.202900   12.404700   92.100900
  H     51.494500   12.388700   93.918900
  S     47.201500    4.287300   93.710500
  C     45.972700    3.900150   94.881400
  C     46.015800    4.875950   95.852200
  C     47.144400    5.858920   95.795200
  C     47.922500    5.651120   94.634200
  H     45.390600    4.717980   96.690500
  C     47.380500    6.881650   96.881100
  H     46.458300    7.468230   97.032200
  H     48.118500    7.573430   96.567500
  C     47.685700    6.382260   98.324000
  H     46.711500    5.934390   98.678400
  H     47.942500    7.309600   98.861700
  C     48.846700    5.305520   98.432100
  H     49.145700    5.253750   99.494700
  H     49.655700    5.693720   97.795200
  H     48.588500    4.296830   98.110900
  H     52.436800    6.893450   92.841700
  H     45.250900    3.024080   94.835900

 Total Charge           Charge          ....    0
 Multiplicity           Mult            ....    1
 Number of Electrons    NEL             ....  134
 Basis Dimension        Dim             ....  322

ORBITAL ENERGIES
----------------

  NO   OCC          E(Eh)            E(eV)
   0   2.0000     -88.970275     -2421.0043
   1   2.0000     -88.962176     -2420.7839
   2   2.0000     -10.338928      -281.3365
   3   2.0000     -10.337839      -281.3069
   4   2.0000     -10.326369      -280.9948
   5   2.0000     -10.321226      -280.8548
   6   2.0000     -10.314409      -280.6693
   7   2.0000     -10.310962      -280.5756
   8   2.0000     -10.300771      -280.2982
   9   2.0000     -10.296455      -280.1808
  10   2.0000     -10.295893      -280.1655
  11   2.0000     -10.292516      -280.0736
  12   2.0000     -10.290106      -280.0080
  13   2.0000     -10.287783      -279.9448
  14   2.0000     -10.284029      -279.8427
  15   2.0000     -10.278660      -279.6966
  16   2.0000      -8.084556      -219.9920
  17   2.0000      -8.076453      -219.7715
  18   2.0000      -6.043126      -164.4418
  19   2.0000      -6.039116      -164.3327
  20   2.0000      -6.035278      -164.2283
  21   2.0000      -6.035201      -164.2262
  22   2.0000      -6.030885      -164.1087
  23   2.0000      -6.027087      -164.0054
  24   2.0000      -0.996669       -27.1207
  25   2.0000      -0.976271       -26.5657
  26   2.0000      -0.915313       -24.9069
  27   2.0000      -0.902402       -24.5556
  28   2.0000      -0.867644       -23.6098
  29   2.0000      -0.849326       -23.1113
  30   2.0000      -0.833020       -22.6676
  31   2.0000      -0.811846       -22.0915
  32   2.0000      -0.784415       -21.3450
  33   2.0000      -0.774706       -21.0808
  34   2.0000      -0.704375       -19.1670
  35   2.0000      -0.691650       -18.8207
  36   2.0000      -0.688218       -18.7274
  37   2.0000      -0.652393       -17.7525
  38   2.0000      -0.638307       -17.3692
  39   2.0000      -0.622497       -16.9390
  40   2.0000      -0.593026       -16.1371
  41   2.0000      -0.578637       -15.7455
  42   2.0000      -0.560744       -15.2586
  43   2.0000      -0.548501       -14.9255
  44   2.0000      -0.534930       -14.5562
  45   2.0000      -0.528792       -14.3892
  46   2.0000      -0.514799       -14.0084
  47   2.0000      -0.509557       -13.8658
  48   2.0000      -0.504623       -13.7315
  49   2.0000      -0.497917       -13.5490
  50   2.0000      -0.494207       -13.4481
  51   2.0000      -0.474011       -12.8985
  52   2.0000      -0.470880       -12.8133
  53   2.0000      -0.466578       -12.6962
  54   2.0000      -0.459367       -12.5000
  55   2.0000      -0.446033       -12.1372
  56   2.0000      -0.441080       -12.0024
  57   2.0000      -0.433148       -11.7866
  58   2.0000      -0.428316       -11.6551
  59   2.0000      -0.427038       -11.6203
  60   2.0000      -0.420935       -11.4542
  61   2.0000      -0.414236       -11.2719
  62   2.0000      -0.409133       -11.1331
  63   2.0000      -0.353173        -9.6103
  64   2.0000      -0.332218        -9.0401
  65   2.0000      -0.322797        -8.7838
  66   2.0000      -0.291342        -7.9278
  67   0.0000       0.023158         0.6302
  68   0.0000       0.077260         2.1023
  69   0.0000       0.104648         2.8476
  70   0.0000       0.110976         3.0198
  71   0.0000       0.132574         3.6075

MULLIKEN ATOMIC CHARGES
-----------------------
   0 S :    0.118291
   1 C :   -0.135033
   2 C :   -0.071532
   3 C :    0.011567
   4 C :   -0.144103
   5 H :    0.020555
   6 C :    0.085832
   7 H :    0.002297
   8 H :    0.021114
   9 C :   -0.098512
  10 H :    0.037078
  11 H :    0.030537
  12 C :   -0.055705
  13 H :    0.032037
  14 H :    0.047639
  15 H :    0.034754
  16 S :    0.083878
  17 C :   -0.118746
  18 C :   -0.023656
  19 C :   -0.050502
  20 C :   -0.133606
  21 H :    0.009950
  22 C :    0.073359
  23 H :    0.035983
  24 H :   -0.002502
  25 C :   -0.111389
  26 H :    0.037028
  27 H :    0.041538
  28 C :   -0.054531
  29 H :    0.040454
  30 H :    0.040460
  31 H :    0.044723
  32 H :    0.056782
  33 H :    0.093961
Sum of atomic charges:    0.0000000

LOEWDIN ATOMIC CHARGES
----------------------
   0 S :    0.407858
   1 C :   -0.198448
   2 C :   -0.058319
   3 C :   -0.059622
   4 C :   -0.188146
   5 H :    0.026152
   6 C :   -0.028544
   7 H :    0.022099
   8 H :    0.029486
   9 C :   -0.046866
  10 H :    0.027563
  11 H :    0.025984
  12 C :   -0.069194
  13 H :    0.023752
  14 H :    0.035129
  15 H :    0.027541
  16 S :    0.378429
  17 C :   -0.195057
  18 C :   -0.075710
  19 C :   -0.047883
  20 C :   -0.189757
  21 H :    0.020855
  22 C :   -0.040089
  23 H :    0.039851
  24 H :    0.019097
  25 C :   -0.039015
  26 H :    0.023787
  27 H :    0.028907
  28 C :   -0.069326
  29 H :    0.028726
  30 H :    0.029700
  31 H :    0.027066
  32 H :    0.030768
  33 H :    0.053226

  Mayer bond orders larger than 0.100000
B(  0-S ,  1-C ) :   1.1489 B(  0-S ,  4-C ) :   1.1450 B(  1-C ,  2-C ) :   1.6145
B(  1-C , 32-H ) :   0.9611 B(  2-C ,  3-C ) :   1.2451 B(  2-C ,  6-C ) :   1.0207
B(  3-C ,  4-C ) :   1.5705 B(  3-C ,  5-H ) :   0.9847 B(  4-C , 20-C ) :   1.0549
B(  6-C ,  7-H ) :   0.9398 B(  6-C ,  8-H ) :   0.9443 B(  6-C ,  9-C ) :   1.0647
B(  9-C , 10-H ) :   0.9561 B(  9-C , 11-H ) :   0.9522 B(  9-C , 12-C ) :   1.0910
B( 12-C , 13-H ) :   0.9729 B( 12-C , 14-H ) :   0.9732 B( 12-C , 15-H ) :   0.9712
B( 16-S , 17-C ) :   1.1395 B( 16-S , 20-C ) :   1.1257 B( 17-C , 18-C ) :   1.6349
B( 17-C , 33-H ) :   0.9589 B( 18-C , 19-C ) :   1.2065 B( 18-C , 21-H ) :   0.9890
B( 19-C , 20-C ) :   1.5872 B( 19-C , 22-C ) :   1.0592 B( 22-C , 23-H ) :   0.9323
B( 22-C , 24-H ) :   0.9280 B( 22-C , 25-C ) :   1.0689 B( 25-C , 26-H ) :   0.9581
B( 25-C , 27-H ) :   0.9571 B( 25-C , 28-C ) :   1.0655 B( 28-C , 29-H ) :   0.9767
B( 28-C , 30-H ) :   0.9788 B( 28-C , 31-H ) :   0.9742

Dispersion correction           -0.013984514
FINAL SINGLE POINT ENERGY     -1339.881630978491

DIPOLE MOMENT
-------------
                                X             Y             Z
Electronic contribution:     -6.21446     -22.54045     -12.60638
Nuclear contribution   :      6.25014      23.08366      13.05344
                        -----------------------------------------
Total Dipole Moment    :      0.03569       0.54322       0.44706
                        -----------------------------------------
Magnitude (a.u.)       :      0.70443
Magnitude (Debye)      :      1.79052

Rotational constants in cm-1:     0.020111     0.007474     0.006477
Rotational constants in MHz :   602.924697   224.060279   194.166776

                             ****ORCA TERMINATED NORMALLY****
TOTAL RUN TIME: 0 days 0 hours 0 minutes 29 seconds 38 msec
