                         Program Version 4.2.1 -  RELEASE  -
|  1> ! wB97X-D3 SP def2-SVP
|  2> %pal
|  3> nprocs 16
|  4> end
|  5>
|  6> * xyz 0 1
|  7> S 	 -68.092 	 50.1855 	 126.871
|  8> C 	 -67.9391 	 51.6895 	 125.994
|  9> C 	 -69.2058 	 52.1791 	 125.649
| 10> C 	 -70.2365 	 51.3067 	 126.102
| 11> C 	 -69.8252 	 50.2104 	 126.824
| 12> H 	 -71.2639 	 51.4432 	 125.789
| 13> C 	 -69.4681 	 53.3701 	 124.804
| 14> H 	 -68.5397 	 53.9587 	 124.878
| 15> H 	 -70.1191 	 53.9289 	 125.418
| 16> C 	 -69.9401 	 53.2151 	 123.3
| 17> H 	 -69.1785 	 52.6665 	 122.763
| 18> H 	 -70.8706 	 52.606 	 123.14
| 19> C 	 -69.9649 	 54.6456 	 122.602
| 20> H 	 -70.8287 	 55.3129 	 122.879
| 21> H 	 -69.0906 	 55.3041 	 122.773
| 22> H 	 -70.0418 	 54.5288 	 121.488
| 23> S 	 -69.6787 	 47.3794 	 127.05
| 24> C 	 -71.0281 	 46.5244 	 127.641
| 25> C 	 -72.101 	 47.4402 	 127.825
| 26> C 	 -71.8769 	 48.8174 	 127.567
| 27> C 	 -70.5488 	 49.0433 	 127.246
| 28> H 	 -73.043 	 47.0611 	 128.167
| 29> C 	 -72.9481 	 49.8782 	 127.75
| 30> H 	 -72.4753 	 50.8778 	 127.64
| 31> H 	 -73.5339 	 49.7884 	 128.749
| 32> C 	 -73.9993 	 49.8504 	 126.627
| 33> H 	 -74.6328 	 48.9939 	 126.835
| 34> H 	 -73.6072 	 49.7144 	 125.63
| 35> C 	 -74.8381 	 51.1532 	 126.605
| 36> H 	 -75.3043 	 51.0822 	 127.53
| 37> H 	 -75.5824 	 51.0698 	 125.82
| 38> H 	 -74.3151 	 52.0733 	 126.423
| 39> H 	 -67.0504 	 52.3404 	 125.78
| 40> H 	 -71.0809 	 45.4726 	 127.905
| 41> *
| 42>
| 43>                          ****END OF INPUT****

CARTESIAN COORDINATES (ANGSTROEM)
---------------------------------
  S    -68.092000   50.185500  126.871000
  C    -67.939100   51.689500  125.994000
  C    -69.205800   52.179100  125.649000
  C    -70.236500   51.306700  126.102000
  C    -69.825200   50.210400  126.824000
  H    -71.263900   51.443200  125.789000
  C    -69.468100   53.370100  124.804000
  H    -68.539700   53.958700  124.878000
  H    -70.119100   53.928900  125.418000
  C    -69.940100   53.215100  123.300000
  H    -69.178500   52.666500  122.763000
  H    -70.870600   52.606000  123.140000
  C    -69.964900   54.645600  122.602000
  H    -70.828700   55.312900  122.879000
  H    -69.090600   55.304100  122.773000
  H    -70.041800   54.528800  121.488000
  S    -69.678700   47.379400  127.050000
  C    -71.028100   46.524400  127.641000
  C    -72.101000   47.440200  127.825000
  C    -71.876900   48.817400  127.567000
  C    -70.548800   49.043300  127.246000
  H    -73.043000   47.061100  128.167000
  C    -72.948100   49.878200  127.750000
  H    -72.475300   50.877800  127.640000
  H    -73.533900   49.788400  128.749000
  C    -73.999300   49.850400  126.627000
  H    -74.632800   48.993900  126.835000
  H    -73.607200   49.714400  125.630000
  C    -74.838100   51.153200  126.605000
  H    -75.304300   51.082200  127.530000
  H    -75.582400   51.069800  125.820000
  H    -74.315100   52.073300  126.423000
  H    -67.050400   52.340400  125.780000
  H    -71.080900   45.472600  127.905000

 Total Charge           Charge          ....    0
 Multiplicity           Mult            ....    1
 Number of Electrons    NEL             ....  134
 Basis Dimension        Dim             ....  322

ORBITAL ENERGIES
----------------

  NO   OCC          E(Eh)            E(eV)
   0   2.0000     -88.967048     -2420.9165
   1   2.0000     -88.965209     -2420.8664
   2   2.0000     -10.335833      -281.2523
   3   2.0000     -10.329236      -281.0728
   4   2.0000     -10.321129      -280.8522
   5   2.0000     -10.318347      -280.7765
   6   2.0000     -10.307187      -280.4728
   7   2.0000     -10.304734      -280.4061
   8   2.0000     -10.304515      -280.4001
   9   2.0000     -10.298553      -280.2379
  10   2.0000     -10.293627      -280.1038
  11   2.0000     -10.293313      -280.0953
  12   2.0000     -10.292731      -280.0795
  13   2.0000     -10.292459      -280.0720
  14   2.0000     -10.286465      -279.9089
  15   2.0000     -10.273867      -279.5661
  16   2.0000      -8.081909      -219.9199
  17   2.0000      -8.078869      -219.8372
  18   2.0000      -6.040512      -164.3707
  19   2.0000      -6.037546      -164.2900
  20   2.0000      -6.036305      -164.2562
  21   2.0000      -6.033509      -164.1801
  22   2.0000      -6.032621      -164.1560
  23   2.0000      -6.029500      -164.0710
  24   2.0000      -1.006218       -27.3806
  25   2.0000      -0.979617       -26.6567
  26   2.0000      -0.912954       -24.8427
  27   2.0000      -0.908341       -24.7172
  28   2.0000      -0.868625       -23.6365
  29   2.0000      -0.854811       -23.2606
  30   2.0000      -0.842638       -22.9293
  31   2.0000      -0.808124       -21.9902
  32   2.0000      -0.784957       -21.3598
  33   2.0000      -0.769772       -20.9466
  34   2.0000      -0.713917       -19.4267
  35   2.0000      -0.702957       -19.1284
  36   2.0000      -0.696851       -18.9623
  37   2.0000      -0.659774       -17.9534
  38   2.0000      -0.636340       -17.3157
  39   2.0000      -0.621805       -16.9202
  40   2.0000      -0.597569       -16.2607
  41   2.0000      -0.576680       -15.6922
  42   2.0000      -0.560938       -15.2639
  43   2.0000      -0.551196       -14.9988
  44   2.0000      -0.527110       -14.3434
  45   2.0000      -0.523145       -14.2355
  46   2.0000      -0.517919       -14.0933
  47   2.0000      -0.511325       -13.9139
  48   2.0000      -0.506663       -13.7870
  49   2.0000      -0.500271       -13.6131
  50   2.0000      -0.495530       -13.4840
  51   2.0000      -0.484752       -13.1908
  52   2.0000      -0.465877       -12.6772
  53   2.0000      -0.465866       -12.6769
  54   2.0000      -0.456649       -12.4260
  55   2.0000      -0.449356       -12.2276
  56   2.0000      -0.445192       -12.1143
  57   2.0000      -0.438553       -11.9336
  58   2.0000      -0.431472       -11.7409
  59   2.0000      -0.429007       -11.6739
  60   2.0000      -0.425278       -11.5724
  61   2.0000      -0.418147       -11.3784
  62   2.0000      -0.408370       -11.1123
  63   2.0000      -0.359179        -9.7738
  64   2.0000      -0.330475        -8.9927
  65   2.0000      -0.329147        -8.9566
  66   2.0000      -0.280302        -7.6274
  67   0.0000       0.017085         0.4649
  68   0.0000       0.072187         1.9643
  69   0.0000       0.102358         2.7853
  70   0.0000       0.118114         3.2140
  71   0.0000       0.125351         3.4110

MULLIKEN ATOMIC CHARGES
-----------------------
   0 S :    0.106416
   1 C :   -0.117626
   2 C :   -0.133929
   3 C :    0.009068
   4 C :   -0.122640
   5 H :    0.001001
   6 C :    0.082415
   7 H :    0.007225
   8 H :    0.018489
   9 C :   -0.041343
  10 H :    0.033965
  11 H :    0.047759
  12 C :   -0.106408
  13 H :    0.040288
  14 H :    0.039303
  15 H :    0.042791
  16 S :    0.085341
  17 C :   -0.082473
  18 C :   -0.050465
  19 C :    0.001286
  20 C :   -0.125405
  21 H :    0.002107
  22 C :    0.025413
  23 H :    0.025624
  24 H :    0.055426
  25 C :   -0.104240
  26 H :    0.026916
  27 H :    0.030787
  28 C :   -0.010400
  29 H :    0.016331
  30 H :    0.029363
  31 H :    0.035987
  32 H :    0.063206
  33 H :    0.068423
Sum of atomic charges:    0.0000000

LOEWDIN ATOMIC CHARGES
----------------------
   0 S :    0.419571
   1 C :   -0.212177
   2 C :   -0.068387
   3 C :   -0.068009
   4 C :   -0.195950
   5 H :    0.026637
   6 C :   -0.037044
   7 H :    0.033075
   8 H :    0.026977
   9 C :   -0.033300
  10 H :    0.026614
  11 H :    0.032770
  12 C :   -0.080881
  13 H :    0.027962
  14 H :    0.027796
  15 H :    0.030428
  16 S :    0.370140
  17 C :   -0.199170
  18 C :   -0.073750
  19 C :   -0.054233
  20 C :   -0.154713
  21 H :    0.020900
  22 C :   -0.034457
  23 H :    0.030645
  24 H :    0.044177
  25 C :   -0.038106
  26 H :    0.021915
  27 H :    0.019086
  28 C :   -0.055199
  29 H :    0.017526
  30 H :    0.027292
  31 H :    0.022635
  32 H :    0.042681
  33 H :    0.036547

  Mayer bond orders larger than 0.100000
B(  0-S ,  1-C ) :   1.1378 B(  0-S ,  4-C ) :   1.1505 B(  1-C ,  2-C ) :   1.5915
B(  1-C , 32-H ) :   0.9569 B(  2-C ,  3-C ) :   1.2750 B(  2-C ,  6-C ) :   1.0319
B(  3-C ,  4-C ) :   1.5316 B(  3-C ,  5-H ) :   0.9886 B(  4-C , 20-C ) :   1.0845
B(  6-C ,  7-H ) :   0.9339 B(  6-C ,  8-H ) :   0.9332 B(  6-C ,  9-C ) :   1.0442
B(  9-C , 10-H ) :   0.9574 B(  9-C , 11-H ) :   0.9593 B(  9-C , 12-C ) :   1.0609
B( 12-C , 13-H ) :   0.9789 B( 12-C , 14-H ) :   0.9769 B( 12-C , 15-H ) :   0.9779
B( 16-S , 17-C ) :   1.1611 B( 16-S , 20-C ) :   1.1066 B( 17-C , 18-C ) :   1.5843
B( 17-C , 20-C ) :   0.1063 B( 17-C , 33-H ) :   0.9679 B( 18-C , 19-C ) :   1.2407
B( 18-C , 21-H ) :   0.9905 B( 19-C , 20-C ) :   1.5931 B( 19-C , 22-C ) :   1.0465
B( 22-C , 23-H ) :   0.9370 B( 22-C , 24-H ) :   0.9359 B( 22-C , 25-C ) :   1.0510
B( 25-C , 26-H ) :   0.9558 B( 25-C , 27-H ) :   0.9592 B( 25-C , 28-C ) :   1.0807
B( 28-C , 29-H ) :   0.9737 B( 28-C , 30-H ) :   0.9740 B( 28-C , 31-H ) :   0.9771

Dispersion correction           -0.013668191
FINAL SINGLE POINT ENERGY     -1339.865714666424

DIPOLE MOMENT
-------------
                                X             Y             Z
Electronic contribution:     19.63682     -21.95660      13.23570
Nuclear contribution   :    -20.23048      22.35741     -13.54717
                        -----------------------------------------
Total Dipole Moment    :     -0.59366       0.40081      -0.31147
                        -----------------------------------------
Magnitude (a.u.)       :      0.78108
Magnitude (Debye)      :      1.98536

Rotational constants in cm-1:     0.016905     0.008927     0.006324
Rotational constants in MHz :   506.813098   267.612093   189.581186

                             ****ORCA TERMINATED NORMALLY****
TOTAL RUN TIME: 0 days 0 hours 0 minutes 33 seconds 433 msec
