                         Program Version 4.2.1 -  RELEASE  -
|  1> ! wB97X-D3 SP def2-SVP
|  2> %pal
|  3> nprocs 16
|  4> end
|  5>
|  6> * xyz 0 1
|  7> S 	 -83.6684 	 48.6179 	 130.267
|  8> C 	 -85.3329 	 48.6075 	 130.935
|  9> C 	 -85.8137 	 49.8964 	 131.103
| 10> C 	 -84.8121 	 50.8805 	 130.804
| 11> C 	 -83.6332 	 50.3592 	 130.404
| 12> H 	 -84.9616 	 51.9443 	 130.868
| 13> C 	 -87.2222 	 50.1092 	 131.556
| 14> H 	 -87.8312 	 49.201 	 131.414
| 15> H 	 -87.6567 	 50.9139 	 131.045
| 16> C 	 -87.4851 	 50.4079 	 133.062
| 17> H 	 -88.5451 	 50.2197 	 133.329
| 18> H 	 -86.8179 	 49.896 	 133.724
| 19> C 	 -87.2934 	 51.8505 	 133.404
| 20> H 	 -86.2495 	 52.2162 	 133.388
| 21> H 	 -87.9093 	 52.4545 	 132.734
| 22> H 	 -87.79 	 52.0914 	 134.398
| 23> S 	 -81.6108 	 50.5314 	 128.506
| 24> C 	 -80.4203 	 51.7818 	 128.622
| 25> C 	 -80.6536 	 52.6023 	 129.732
| 26> C 	 -81.7744 	 52.2284 	 130.51
| 27> C 	 -82.4365 	 51.1136 	 130.015
| 28> H 	 -79.9874 	 53.4473 	 129.878
| 29> C 	 -82.1293 	 53.0398 	 131.695
| 30> H 	 -83.2778 	 52.9901 	 131.712
| 31> H 	 -81.8796 	 54.1286 	 131.544
| 32> C 	 -81.5898 	 52.5845 	 133.066
| 33> H 	 -81.9543 	 53.2038 	 133.871
| 34> H 	 -80.5538 	 52.619 	 133.112
| 35> C 	 -82.0009 	 51.2293 	 133.547
| 36> H 	 -81.4748 	 51.0114 	 134.478
| 37> H 	 -81.8341 	 50.3055 	 132.992
| 38> H 	 -83.0892 	 51.1339 	 133.747
| 39> H 	 -85.9392 	 47.7206 	 130.936
| 40> H 	 -79.5614 	 51.9027 	 127.953
| 41> *
| 42>
| 43>                          ****END OF INPUT****

CARTESIAN COORDINATES (ANGSTROEM)
---------------------------------
  S    -83.668400   48.617900  130.267000
  C    -85.332900   48.607500  130.935000
  C    -85.813700   49.896400  131.103000
  C    -84.812100   50.880500  130.804000
  C    -83.633200   50.359200  130.404000
  H    -84.961600   51.944300  130.868000
  C    -87.222200   50.109200  131.556000
  H    -87.831200   49.201000  131.414000
  H    -87.656700   50.913900  131.045000
  C    -87.485100   50.407900  133.062000
  H    -88.545100   50.219700  133.329000
  H    -86.817900   49.896000  133.724000
  C    -87.293400   51.850500  133.404000
  H    -86.249500   52.216200  133.388000
  H    -87.909300   52.454500  132.734000
  H    -87.790000   52.091400  134.398000
  S    -81.610800   50.531400  128.506000
  C    -80.420300   51.781800  128.622000
  C    -80.653600   52.602300  129.732000
  C    -81.774400   52.228400  130.510000
  C    -82.436500   51.113600  130.015000
  H    -79.987400   53.447300  129.878000
  C    -82.129300   53.039800  131.695000
  H    -83.277800   52.990100  131.712000
  H    -81.879600   54.128600  131.544000
  C    -81.589800   52.584500  133.066000
  H    -81.954300   53.203800  133.871000
  H    -80.553800   52.619000  133.112000
  C    -82.000900   51.229300  133.547000
  H    -81.474800   51.011400  134.478000
  H    -81.834100   50.305500  132.992000
  H    -83.089200   51.133900  133.747000
  H    -85.939200   47.720600  130.936000
  H    -79.561400   51.902700  127.953000

 Total Charge           Charge          ....    0
 Multiplicity           Mult            ....    1
 Number of Electrons    NEL             ....  134
 Basis Dimension        Dim             ....  322

ORBITAL ENERGIES
----------------

  NO   OCC          E(Eh)            E(eV)
   0   2.0000     -88.967029     -2420.9159
   1   2.0000     -88.966050     -2420.8893
   2   2.0000     -10.332444      -281.1601
   3   2.0000     -10.330686      -281.1123
   4   2.0000     -10.319474      -280.8072
   5   2.0000     -10.315390      -280.6960
   6   2.0000     -10.304814      -280.4083
   7   2.0000     -10.303958      -280.3850
   8   2.0000     -10.299908      -280.2747
   9   2.0000     -10.293403      -280.0977
  10   2.0000     -10.293080      -280.0890
  11   2.0000     -10.290157      -280.0094
  12   2.0000     -10.284336      -279.8510
  13   2.0000     -10.279738      -279.7259
  14   2.0000     -10.279326      -279.7147
  15   2.0000     -10.268328      -279.4154
  16   2.0000      -8.081194      -219.9005
  17   2.0000      -8.080136      -219.8717
  18   2.0000      -6.039757      -164.3501
  19   2.0000      -6.038648      -164.3200
  20   2.0000      -6.035913      -164.2456
  21   2.0000      -6.034634      -164.2107
  22   2.0000      -6.031796      -164.1335
  23   2.0000      -6.031040      -164.1129
  24   2.0000      -1.005393       -27.3581
  25   2.0000      -0.982121       -26.7249
  26   2.0000      -0.916509       -24.9395
  27   2.0000      -0.911265       -24.7968
  28   2.0000      -0.869550       -23.6617
  29   2.0000      -0.856819       -23.3152
  30   2.0000      -0.845973       -23.0201
  31   2.0000      -0.816470       -22.2173
  32   2.0000      -0.783436       -21.3184
  33   2.0000      -0.771201       -20.9854
  34   2.0000      -0.707412       -19.2497
  35   2.0000      -0.697459       -18.9788
  36   2.0000      -0.693378       -18.8678
  37   2.0000      -0.661895       -18.0111
  38   2.0000      -0.644485       -17.5373
  39   2.0000      -0.622327       -16.9344
  40   2.0000      -0.593582       -16.1522
  41   2.0000      -0.576761       -15.6945
  42   2.0000      -0.552657       -15.0386
  43   2.0000      -0.550470       -14.9791
  44   2.0000      -0.547628       -14.9017
  45   2.0000      -0.537351       -14.6221
  46   2.0000      -0.518033       -14.0964
  47   2.0000      -0.516974       -14.0676
  48   2.0000      -0.504431       -13.7263
  49   2.0000      -0.498483       -13.5644
  50   2.0000      -0.491827       -13.3833
  51   2.0000      -0.481496       -13.1022
  52   2.0000      -0.467761       -12.7284
  53   2.0000      -0.464634       -12.6433
  54   2.0000      -0.453864       -12.3503
  55   2.0000      -0.444744       -12.1021
  56   2.0000      -0.441094       -12.0028
  57   2.0000      -0.432393       -11.7660
  58   2.0000      -0.428676       -11.6649
  59   2.0000      -0.425753       -11.5853
  60   2.0000      -0.420496       -11.4423
  61   2.0000      -0.418928       -11.3996
  62   2.0000      -0.409986       -11.1563
  63   2.0000      -0.350028        -9.5247
  64   2.0000      -0.332396        -9.0449
  65   2.0000      -0.332082        -9.0364
  66   2.0000      -0.289409        -7.8752
  67   0.0000       0.024307         0.6614
  68   0.0000       0.068885         1.8745
  69   0.0000       0.102917         2.8005
  70   0.0000       0.115977         3.1559
  71   0.0000       0.122635         3.3371

MULLIKEN ATOMIC CHARGES
-----------------------
   0 S :    0.098542
   1 C :   -0.123560
   2 C :   -0.074264
   3 C :    0.019384
   4 C :   -0.117130
   5 H :    0.013064
   6 C :    0.087964
   7 H :    0.025835
   8 H :    0.008511
   9 C :   -0.051794
  10 H :    0.032606
  11 H :    0.028051
  12 C :   -0.095060
  13 H :    0.045373
  14 H :    0.014179
  15 H :    0.036371
  16 S :    0.094089
  17 C :   -0.095258
  18 C :   -0.053490
  19 C :   -0.001915
  20 C :   -0.154254
  21 H :    0.019346
  22 C :    0.023104
  23 H :    0.019758
  24 H :    0.037647
  25 C :    0.012196
  26 H :    0.027686
  27 H :    0.011164
  28 C :   -0.086267
  29 H :    0.023626
  30 H :    0.034851
  31 H :    0.025256
  32 H :    0.049059
  33 H :    0.065331
Sum of atomic charges:   -0.0000000

LOEWDIN ATOMIC CHARGES
----------------------
   0 S :    0.384054
   1 C :   -0.179365
   2 C :   -0.055038
   3 C :   -0.066280
   4 C :   -0.185062
   5 H :    0.029297
   6 C :   -0.027310
   7 H :    0.036955
   8 H :    0.022357
   9 C :   -0.039093
  10 H :    0.030227
  11 H :    0.022011
  12 C :   -0.076607
  13 H :    0.023787
  14 H :    0.017375
  15 H :    0.032578
  16 S :    0.388081
  17 C :   -0.190816
  18 C :   -0.074062
  19 C :   -0.060575
  20 C :   -0.174560
  21 H :    0.032245
  22 C :   -0.038626
  23 H :    0.035403
  24 H :    0.038490
  25 C :   -0.033841
  26 H :    0.031334
  27 H :    0.016359
  28 C :   -0.074913
  29 H :    0.027480
  30 H :    0.024185
  31 H :    0.025099
  32 H :    0.024523
  33 H :    0.034307

  Mayer bond orders larger than 0.100000
B(  0-S ,  1-C ) :   1.1148 B(  0-S ,  4-C ) :   1.1403 B(  1-C ,  2-C ) :   1.6267
B(  1-C , 32-H ) :   0.9695 B(  2-C ,  3-C ) :   1.2119 B(  2-C ,  6-C ) :   1.0415
B(  3-C ,  4-C ) :   1.5966 B(  3-C ,  5-H ) :   0.9952 B(  4-C , 20-C ) :   1.0377
B(  6-C ,  7-H ) :   0.9392 B(  6-C ,  8-H ) :   0.9365 B(  6-C ,  9-C ) :   1.0607
B(  9-C , 10-H ) :   0.9558 B(  9-C , 11-H ) :   0.9539 B(  9-C , 12-C ) :   1.0877
B( 12-C , 13-H ) :   0.9751 B( 12-C , 14-H ) :   0.9717 B( 12-C , 15-H ) :   0.9711
B( 16-S , 17-C ) :   1.1633 B( 16-S , 20-C ) :   1.1277 B( 17-C , 18-C ) :   1.5976
B( 17-C , 20-C ) :   0.1066 B( 17-C , 33-H ) :   0.9642 B( 18-C , 19-C ) :   1.2417
B( 18-C , 21-H ) :   0.9918 B( 19-C , 20-C ) :   1.5913 B( 19-C , 22-C ) :   1.0389
B( 22-C , 23-H ) :   0.9333 B( 22-C , 24-H ) :   0.9334 B( 22-C , 25-C ) :   1.0785
B( 25-C , 26-H ) :   0.9485 B( 25-C , 27-H ) :   0.9522 B( 25-C , 28-C ) :   1.0830
B( 28-C , 29-H ) :   0.9699 B( 28-C , 30-H ) :   0.9716 B( 28-C , 31-H ) :   0.9740

Dispersion correction           -0.015411102
FINAL SINGLE POINT ENERGY     -1339.881517382065

DIPOLE MOMENT
-------------
                                X             Y             Z
Electronic contribution:     13.04967     -11.78940     -23.21653
Nuclear contribution   :    -13.31205      12.23451      23.57725
                        -----------------------------------------
Total Dipole Moment    :     -0.26238       0.44511       0.36072
                        -----------------------------------------
Magnitude (a.u.)       :      0.63014
Magnitude (Debye)      :      1.60170

Rotational constants in cm-1:     0.020041     0.009506     0.007442
Rotational constants in MHz :   600.817887   284.980391   223.117167

                             ****ORCA TERMINATED NORMALLY****
TOTAL RUN TIME: 0 days 0 hours 0 minutes 34 seconds 66 msec
