                         Program Version 4.2.1 -  RELEASE  -
|  1> ! wB97X-D3 SP def2-SVP
|  2> %pal
|  3> nprocs 16
|  4> end
|  5>
|  6> * xyz 0 1
|  7> S 	 -73.9926 	 46.4993 	 124.422
|  8> C 	 -72.6351 	 46.4351 	 123.292
|  9> C 	 -71.4923 	 47.1285 	 123.779
| 10> C 	 -71.728 	 47.7771 	 125.026
| 11> C 	 -73.0068 	 47.5467 	 125.501
| 12> H 	 -71.0104 	 48.4531 	 125.608
| 13> C 	 -70.1638 	 47.4009 	 123.135
| 14> H 	 -70.0281 	 46.7039 	 122.329
| 15> H 	 -69.347 	 47.1676 	 123.858
| 16> C 	 -70.0072 	 48.8585 	 122.592
| 17> H 	 -70.88 	 49.1848 	 122.082
| 18> H 	 -70.0398 	 49.5284 	 123.372
| 19> C 	 -68.94 	 49.0668 	 121.566
| 20> H 	 -69.1247 	 49.747 	 120.761
| 21> H 	 -68.0164 	 49.527 	 121.984
| 22> H 	 -68.6953 	 48.1318 	 121
| 23> S 	 -74.963 	 48.9424 	 126.951
| 24> C 	 -74.8535 	 48.9078 	 128.723
| 25> C 	 -73.6057 	 48.4639 	 129.058
| 26> C 	 -72.9339 	 47.7679 	 127.972
| 27> C 	 -73.5033 	 48.021 	 126.789
| 28> H 	 -73.3786 	 48.3672 	 130.073
| 29> C 	 -71.7163 	 46.8305 	 128.148
| 30> H 	 -70.8508 	 47.4883 	 128.448
| 31> H 	 -71.3769 	 46.2753 	 127.199
| 32> C 	 -71.9185 	 45.7819 	 129.232
| 33> H 	 -71.9656 	 46.3752 	 130.214
| 34> H 	 -71.1539 	 44.9492 	 129.147
| 35> C 	 -73.2863 	 45.0663 	 129.173
| 36> H 	 -73.3047 	 44.2027 	 129.864
| 37> H 	 -73.6516 	 44.7667 	 128.207
| 38> H 	 -74.1368 	 45.6105 	 129.636
| 39> H 	 -72.799 	 45.8625 	 122.388
| 40> H 	 -75.5155 	 49.3083 	 129.445
| 41> *
| 42>
| 43>                          ****END OF INPUT****

CARTESIAN COORDINATES (ANGSTROEM)
---------------------------------
  S    -73.992600   46.499300  124.422000
  C    -72.635100   46.435100  123.292000
  C    -71.492300   47.128500  123.779000
  C    -71.728000   47.777100  125.026000
  C    -73.006800   47.546700  125.501000
  H    -71.010400   48.453100  125.608000
  C    -70.163800   47.400900  123.135000
  H    -70.028100   46.703900  122.329000
  H    -69.347000   47.167600  123.858000
  C    -70.007200   48.858500  122.592000
  H    -70.880000   49.184800  122.082000
  H    -70.039800   49.528400  123.372000
  C    -68.940000   49.066800  121.566000
  H    -69.124700   49.747000  120.761000
  H    -68.016400   49.527000  121.984000
  H    -68.695300   48.131800  121.000000
  S    -74.963000   48.942400  126.951000
  C    -74.853500   48.907800  128.723000
  C    -73.605700   48.463900  129.058000
  C    -72.933900   47.767900  127.972000
  C    -73.503300   48.021000  126.789000
  H    -73.378600   48.367200  130.073000
  C    -71.716300   46.830500  128.148000
  H    -70.850800   47.488300  128.448000
  H    -71.376900   46.275300  127.199000
  C    -71.918500   45.781900  129.232000
  H    -71.965600   46.375200  130.214000
  H    -71.153900   44.949200  129.147000
  C    -73.286300   45.066300  129.173000
  H    -73.304700   44.202700  129.864000
  H    -73.651600   44.766700  128.207000
  H    -74.136800   45.610500  129.636000
  H    -72.799000   45.862500  122.388000
  H    -75.515500   49.308300  129.445000

 Total Charge           Charge          ....    0
 Multiplicity           Mult            ....    1
 Number of Electrons    NEL             ....  134
 Basis Dimension        Dim             ....  322

ORBITAL ENERGIES
----------------

  NO   OCC          E(Eh)            E(eV)
   0   2.0000     -88.968621     -2420.9593
   1   2.0000     -88.961467     -2420.7646
   2   2.0000     -10.330271      -281.1010
   3   2.0000     -10.323288      -280.9109
   4   2.0000     -10.317994      -280.7669
   5   2.0000     -10.316793      -280.7342
   6   2.0000     -10.307922      -280.4928
   7   2.0000     -10.300724      -280.2970
   8   2.0000     -10.299920      -280.2751
   9   2.0000     -10.298557      -280.2380
  10   2.0000     -10.295858      -280.1645
  11   2.0000     -10.294821      -280.1363
  12   2.0000     -10.291675      -280.0507
  13   2.0000     -10.278472      -279.6914
  14   2.0000     -10.276814      -279.6463
  15   2.0000     -10.271701      -279.5072
  16   2.0000      -8.082350      -219.9319
  17   2.0000      -8.076397      -219.7699
  18   2.0000      -6.040798      -164.3785
  19   2.0000      -6.037034      -164.2760
  20   2.0000      -6.035100      -164.2234
  21   2.0000      -6.033207      -164.1719
  22   2.0000      -6.030955      -164.1106
  23   2.0000      -6.026842      -163.9987
  24   2.0000      -1.006390       -27.3853
  25   2.0000      -0.979693       -26.6588
  26   2.0000      -0.911543       -24.8043
  27   2.0000      -0.902997       -24.5718
  28   2.0000      -0.871398       -23.7120
  29   2.0000      -0.853887       -23.2354
  30   2.0000      -0.837674       -22.7943
  31   2.0000      -0.814665       -22.1682
  32   2.0000      -0.780010       -21.2252
  33   2.0000      -0.770355       -20.9624
  34   2.0000      -0.712589       -19.3905
  35   2.0000      -0.699297       -19.0288
  36   2.0000      -0.686547       -18.6819
  37   2.0000      -0.657135       -17.8815
  38   2.0000      -0.644408       -17.5352
  39   2.0000      -0.619942       -16.8695
  40   2.0000      -0.593937       -16.1619
  41   2.0000      -0.565037       -15.3754
  42   2.0000      -0.558285       -15.1917
  43   2.0000      -0.550381       -14.9766
  44   2.0000      -0.539519       -14.6811
  45   2.0000      -0.521902       -14.2017
  46   2.0000      -0.517366       -14.0782
  47   2.0000      -0.512222       -13.9383
  48   2.0000      -0.507487       -13.8094
  49   2.0000      -0.495548       -13.4846
  50   2.0000      -0.486545       -13.2396
  51   2.0000      -0.483251       -13.1499
  52   2.0000      -0.467237       -12.7142
  53   2.0000      -0.464075       -12.6281
  54   2.0000      -0.456951       -12.4343
  55   2.0000      -0.446138       -12.1400
  56   2.0000      -0.437941       -11.9170
  57   2.0000      -0.436711       -11.8835
  58   2.0000      -0.431697       -11.7471
  59   2.0000      -0.428329       -11.6554
  60   2.0000      -0.411187       -11.1890
  61   2.0000      -0.406027       -11.0486
  62   2.0000      -0.405253       -11.0275
  63   2.0000      -0.343597        -9.3498
  64   2.0000      -0.332052        -9.0356
  65   2.0000      -0.327136        -8.9018
  66   2.0000      -0.297170        -8.0864
  67   0.0000       0.031204         0.8491
  68   0.0000       0.070289         1.9127
  69   0.0000       0.106701         2.9035
  70   0.0000       0.118151         3.2150
  71   0.0000       0.132089         3.5943

MULLIKEN ATOMIC CHARGES
-----------------------
   0 S :    0.106869
   1 C :   -0.137470
   2 C :   -0.071199
   3 C :   -0.009861
   4 C :   -0.161908
   5 H :    0.056786
   6 C :    0.077241
   7 H :    0.004463
   8 H :    0.040020
   9 C :   -0.012303
  10 H :    0.015822
  11 H :    0.000178
  12 C :   -0.059401
  13 H :    0.023039
  14 H :    0.030627
  15 H :    0.031895
  16 S :    0.098210
  17 C :   -0.085413
  18 C :    0.002670
  19 C :   -0.062153
  20 C :   -0.150146
  21 H :    0.002187
  22 C :    0.043066
  23 H :    0.043126
  24 H :    0.060485
  25 C :   -0.107927
  26 H :    0.038557
  27 H :    0.052490
  28 C :   -0.054298
  29 H :    0.026193
  30 H :    0.030604
  31 H :    0.022798
  32 H :    0.055385
  33 H :    0.049367
Sum of atomic charges:   -0.0000000

LOEWDIN ATOMIC CHARGES
----------------------
   0 S :    0.382226
   1 C :   -0.191118
   2 C :   -0.061558
   3 C :   -0.062382
   4 C :   -0.175159
   5 H :    0.051009
   6 C :   -0.027319
   7 H :    0.022551
   8 H :    0.036739
   9 C :   -0.040101
  10 H :    0.028758
  11 H :    0.013838
  12 C :   -0.072062
  13 H :    0.023628
  14 H :    0.027754
  15 H :    0.031945
  16 S :    0.387318
  17 C :   -0.162443
  18 C :   -0.061028
  19 C :   -0.056537
  20 C :   -0.210000
  21 H :    0.018985
  22 C :   -0.044271
  23 H :    0.035599
  24 H :    0.042118
  25 C :   -0.052132
  26 H :    0.031185
  27 H :    0.035475
  28 C :   -0.079840
  29 H :    0.027007
  30 H :    0.020804
  31 H :    0.027148
  32 H :    0.025137
  33 H :    0.026727

  Mayer bond orders larger than 0.100000
B(  0-S ,  1-C ) :   1.1382 B(  0-S ,  4-C ) :   1.1450 B(  1-C ,  2-C ) :   1.5863
B(  1-C ,  4-C ) :   0.1022 B(  1-C , 32-H ) :   0.9744 B(  2-C ,  3-C ) :   1.2219
B(  2-C ,  6-C ) :   1.0453 B(  3-C ,  4-C ) :   1.5895 B(  3-C ,  5-H ) :   0.9804
B(  4-C , 20-C ) :   1.0322 B(  6-C ,  7-H ) :   0.9358 B(  6-C ,  8-H ) :   0.9370
B(  6-C ,  9-C ) :   1.0539 B(  9-C , 10-H ) :   0.9531 B(  9-C , 11-H ) :   0.9513
B(  9-C , 12-C ) :   1.0780 B( 12-C , 13-H ) :   0.9779 B( 12-C , 14-H ) :   0.9751
B( 12-C , 15-H ) :   0.9729 B( 16-S , 17-C ) :   1.1289 B( 16-S , 20-C ) :   1.1177
B( 17-C , 18-C ) :   1.6632 B( 17-C , 33-H ) :   0.9709 B( 18-C , 19-C ) :   1.1968
B( 18-C , 21-H ) :   0.9834 B( 19-C , 20-C ) :   1.6636 B( 19-C , 22-C ) :   1.0246
B( 22-C , 23-H ) :   0.9401 B( 22-C , 24-H ) :   0.9355 B( 22-C , 25-C ) :   1.0678
B( 25-C , 26-H ) :   0.9516 B( 25-C , 27-H ) :   0.9606 B( 25-C , 28-C ) :   1.0782
B( 28-C , 29-H ) :   0.9733 B( 28-C , 30-H ) :   0.9766 B( 28-C , 31-H ) :   0.9660

Dispersion correction           -0.014952300
FINAL SINGLE POINT ENERGY     -1339.857612669313

DIPOLE MOMENT
-------------
                                X             Y             Z
Electronic contribution:    -21.08431       3.89872       0.81476
Nuclear contribution   :     21.60148      -3.92356      -0.69561
                        -----------------------------------------
Total Dipole Moment    :      0.51718      -0.02483       0.11915
                        -----------------------------------------
Magnitude (a.u.)       :      0.53130
Magnitude (Debye)      :      1.35047

Rotational constants in cm-1:     0.021395     0.007617     0.007169
Rotational constants in MHz :   641.403964   228.345415   214.929504

                             ****ORCA TERMINATED NORMALLY****
TOTAL RUN TIME: 0 days 0 hours 0 minutes 35 seconds 235 msec
