                         Program Version 4.2.1 -  RELEASE  -
|  1> ! wB97X-D3 SP def2-SVP
|  2> %pal
|  3> nprocs 16
|  4> end
|  5>
|  6> * xyz 0 1
|  7> S 	 -105.32 	 41.3548 	 128.393
|  8> C 	 -103.837 	 40.456 	 128.79
|  9> C 	 -104.152 	 39.1001 	 128.847
| 10> C 	 -105.497 	 38.8579 	 128.479
| 11> C 	 -106.269 	 39.9629 	 128.14
| 12> H 	 -105.982 	 37.8183 	 128.427
| 13> C 	 -103.168 	 38.023 	 129.073
| 14> H 	 -103.583 	 37.5331 	 129.932
| 15> H 	 -102.246 	 38.5244 	 129.25
| 16> C 	 -102.922 	 37.1573 	 127.865
| 17> H 	 -102 	 36.5583 	 128.116
| 18> H 	 -103.758 	 36.4627 	 127.798
| 19> C 	 -102.73 	 38.0128 	 126.599
| 20> H 	 -103.637 	 38.3047 	 126.131
| 21> H 	 -102.139 	 38.8256 	 126.836
| 22> H 	 -102.179 	 37.5452 	 125.817
| 23> S 	 -108.697 	 41.2843 	 128.624
| 24> C 	 -110.067 	 40.958 	 127.645
| 25> C 	 -109.904 	 39.7914 	 126.917
| 26> C 	 -108.514 	 39.3263 	 127.014
| 27> C 	 -107.684 	 40.0615 	 127.809
| 28> H 	 -110.712 	 39.4295 	 126.327
| 29> C 	 -108.138 	 38.0089 	 126.475
| 30> H 	 -107.065 	 37.9434 	 126.609
| 31> H 	 -108.459 	 37.9257 	 125.386
| 32> C 	 -108.866 	 36.769 	 127.055
| 33> H 	 -109.911 	 36.9679 	 127.349
| 34> H 	 -108.387 	 36.4301 	 128.01
| 35> C 	 -108.828 	 35.557 	 126.047
| 36> H 	 -108.894 	 35.8846 	 124.953
| 37> H 	 -109.316 	 34.6549 	 126.327
| 38> H 	 -107.802 	 35.2495 	 125.995
| 39> H 	 -102.832 	 40.928 	 128.856
| 40> H 	 -111.002 	 41.4471 	 127.632
| 41> *
| 42>
| 43>                          ****END OF INPUT****

CARTESIAN COORDINATES (ANGSTROEM)
---------------------------------
  S    -105.320000   41.354800  128.393000
  C    -103.837000   40.456000  128.790000
  C    -104.152000   39.100100  128.847000
  C    -105.497000   38.857900  128.479000
  C    -106.269000   39.962900  128.140000
  H    -105.982000   37.818300  128.427000
  C    -103.168000   38.023000  129.073000
  H    -103.583000   37.533100  129.932000
  H    -102.246000   38.524400  129.250000
  C    -102.922000   37.157300  127.865000
  H    -102.000000   36.558300  128.116000
  H    -103.758000   36.462700  127.798000
  C    -102.730000   38.012800  126.599000
  H    -103.637000   38.304700  126.131000
  H    -102.139000   38.825600  126.836000
  H    -102.179000   37.545200  125.817000
  S    -108.697000   41.284300  128.624000
  C    -110.067000   40.958000  127.645000
  C    -109.904000   39.791400  126.917000
  C    -108.514000   39.326300  127.014000
  C    -107.684000   40.061500  127.809000
  H    -110.712000   39.429500  126.327000
  C    -108.138000   38.008900  126.475000
  H    -107.065000   37.943400  126.609000
  H    -108.459000   37.925700  125.386000
  C    -108.866000   36.769000  127.055000
  H    -109.911000   36.967900  127.349000
  H    -108.387000   36.430100  128.010000
  C    -108.828000   35.557000  126.047000
  H    -108.894000   35.884600  124.953000
  H    -109.316000   34.654900  126.327000
  H    -107.802000   35.249500  125.995000
  H    -102.832000   40.928000  128.856000
  H    -111.002000   41.447100  127.632000

 Total Charge           Charge          ....    0
 Multiplicity           Mult            ....    1
 Number of Electrons    NEL             ....  134
 Basis Dimension        Dim             ....  322

ORBITAL ENERGIES
----------------

  NO   OCC          E(Eh)            E(eV)
   0   2.0000     -88.965415     -2420.8720
   1   2.0000     -88.963157     -2420.8106
   2   2.0000     -10.332710      -281.1673
   3   2.0000     -10.329407      -281.0774
   4   2.0000     -10.321109      -280.8517
   5   2.0000     -10.314785      -280.6796
   6   2.0000     -10.302578      -280.3474
   7   2.0000     -10.300399      -280.2881
   8   2.0000     -10.300044      -280.2785
   9   2.0000     -10.296805      -280.1903
  10   2.0000     -10.294369      -280.1240
  11   2.0000     -10.292048      -280.0609
  12   2.0000     -10.290829      -280.0277
  13   2.0000     -10.283373      -279.8248
  14   2.0000     -10.281964      -279.7865
  15   2.0000     -10.266240      -279.3586
  16   2.0000      -8.080506      -219.8818
  17   2.0000      -8.078126      -219.8170
  18   2.0000      -6.038964      -164.3286
  19   2.0000      -6.036834      -164.2706
  20   2.0000      -6.034798      -164.2152
  21   2.0000      -6.032596      -164.1553
  22   2.0000      -6.031425      -164.1234
  23   2.0000      -6.028640      -164.0476
  24   2.0000      -1.011527       -27.5250
  25   2.0000      -0.988607       -26.9014
  26   2.0000      -0.926533       -25.2122
  27   2.0000      -0.908760       -24.7286
  28   2.0000      -0.871735       -23.7211
  29   2.0000      -0.850100       -23.1324
  30   2.0000      -0.840295       -22.8656
  31   2.0000      -0.817222       -22.2377
  32   2.0000      -0.790555       -21.5121
  33   2.0000      -0.773548       -21.0493
  34   2.0000      -0.715651       -19.4739
  35   2.0000      -0.701514       -19.0892
  36   2.0000      -0.698432       -19.0053
  37   2.0000      -0.661395       -17.9975
  38   2.0000      -0.639419       -17.3995
  39   2.0000      -0.624589       -16.9959
  40   2.0000      -0.594480       -16.1766
  41   2.0000      -0.574829       -15.6419
  42   2.0000      -0.569198       -15.4887
  43   2.0000      -0.561789       -15.2871
  44   2.0000      -0.542891       -14.7728
  45   2.0000      -0.522517       -14.2184
  46   2.0000      -0.519309       -14.1311
  47   2.0000      -0.517870       -14.0920
  48   2.0000      -0.512087       -13.9346
  49   2.0000      -0.502258       -13.6671
  50   2.0000      -0.490547       -13.3485
  51   2.0000      -0.479470       -13.0470
  52   2.0000      -0.469699       -12.7812
  53   2.0000      -0.464397       -12.6369
  54   2.0000      -0.458346       -12.4722
  55   2.0000      -0.450081       -12.2473
  56   2.0000      -0.446095       -12.1389
  57   2.0000      -0.439460       -11.9583
  58   2.0000      -0.434021       -11.8103
  59   2.0000      -0.425439       -11.5768
  60   2.0000      -0.419354       -11.4112
  61   2.0000      -0.413794       -11.2599
  62   2.0000      -0.409607       -11.1460
  63   2.0000      -0.352408        -9.5895
  64   2.0000      -0.330876        -9.0036
  65   2.0000      -0.323134        -8.7929
  66   2.0000      -0.294040        -8.0012
  67   0.0000       0.025921         0.7054
  68   0.0000       0.075136         2.0446
  69   0.0000       0.104641         2.8474
  70   0.0000       0.119032         3.2390
  71   0.0000       0.126517         3.4427

MULLIKEN ATOMIC CHARGES
-----------------------
   0 S :    0.106311
   1 C :   -0.147305
   2 C :   -0.119391
   3 C :   -0.011143
   4 C :   -0.151996
   5 H :    0.036030
   6 C :    0.115118
   7 H :    0.038390
   8 H :    0.002649
   9 C :   -0.097439
  10 H :    0.041801
  11 H :    0.025610
  12 C :    0.024150
  13 H :    0.035133
  14 H :   -0.002047
  15 H :    0.019128
  16 S :    0.101270
  17 C :   -0.066092
  18 C :   -0.032470
  19 C :   -0.035791
  20 C :   -0.119706
  21 H :    0.015644
  22 C :    0.035322
  23 H :    0.022974
  24 H :    0.029345
  25 C :   -0.079955
  26 H :    0.036051
  27 H :    0.030599
  28 C :   -0.049827
  29 H :    0.035821
  30 H :    0.038174
  31 H :    0.009552
  32 H :    0.070239
  33 H :    0.043849
Sum of atomic charges:   -0.0000000

LOEWDIN ATOMIC CHARGES
----------------------
   0 S :    0.421781
   1 C :   -0.198772
   2 C :   -0.064582
   3 C :   -0.080972
   4 C :   -0.207652
   5 H :    0.039705
   6 C :   -0.030666
   7 H :    0.035840
   8 H :    0.024672
   9 C :   -0.036608
  10 H :    0.032096
  11 H :    0.019011
  12 C :   -0.053284
  13 H :    0.027530
  14 H :    0.015454
  15 H :    0.024714
  16 S :    0.397912
  17 C :   -0.181073
  18 C :   -0.067692
  19 C :   -0.056242
  20 C :   -0.189662
  21 H :    0.028564
  22 C :   -0.039178
  23 H :    0.026227
  24 H :    0.037048
  25 C :   -0.038241
  26 H :    0.023035
  27 H :    0.024985
  28 C :   -0.077893
  29 H :    0.033671
  30 H :    0.023498
  31 H :    0.022807
  32 H :    0.038446
  33 H :    0.025522

  Mayer bond orders larger than 0.100000
B(  0-S ,  1-C ) :   1.1422 B(  0-S ,  4-C ) :   1.1769 B(  1-C ,  2-C ) :   1.5676
B(  1-C ,  4-C ) :   0.1073 B(  1-C , 32-H ) :   0.9644 B(  2-C ,  3-C ) :   1.2704
B(  2-C ,  6-C ) :   1.0257 B(  3-C ,  4-C ) :   1.5308 B(  3-C ,  5-H ) :   0.9763
B(  4-C , 20-C ) :   1.0429 B(  6-C ,  7-H ) :   0.9319 B(  6-C ,  8-H ) :   0.9327
B(  6-C ,  9-C ) :   1.0787 B(  9-C , 10-H ) :   0.9599 B(  9-C , 11-H ) :   0.9537
B(  9-C , 12-C ) :   1.0759 B( 12-C , 13-H ) :   0.9657 B( 12-C , 14-H ) :   0.9726
B( 12-C , 15-H ) :   0.9698 B( 16-S , 17-C ) :   1.1572 B( 16-S , 20-C ) :   1.1069
B( 17-C , 18-C ) :   1.6253 B( 17-C , 33-H ) :   0.9698 B( 18-C , 19-C ) :   1.1929
B( 18-C , 21-H ) :   0.9969 B( 19-C , 20-C ) :   1.6294 B( 19-C , 22-C ) :   1.0869
B( 22-C , 23-H ) :   0.9286 B( 22-C , 24-H ) :   0.9277 B( 22-C , 25-C ) :   1.0432
B( 25-C , 26-H ) :   0.9606 B( 25-C , 27-H ) :   0.9534 B( 25-C , 28-C ) :   1.0661
B( 28-C , 29-H ) :   0.9725 B( 28-C , 30-H ) :   0.9753 B( 28-C , 31-H ) :   0.9698

Dispersion correction           -0.014813976
FINAL SINGLE POINT ENERGY     -1339.859723385357

DIPOLE MOMENT
-------------
                                X             Y             Z
Electronic contribution:     -7.89759      26.78305      10.20346
Nuclear contribution   :      8.05500     -27.44835     -10.38972
                        -----------------------------------------
Total Dipole Moment    :      0.15741      -0.66530      -0.18626
                        -----------------------------------------
Magnitude (a.u.)       :      0.70859
Magnitude (Debye)      :      1.80109

Rotational constants in cm-1:     0.017500     0.010111     0.006870
Rotational constants in MHz :   524.637636   303.117825   205.954877

                             ****ORCA TERMINATED NORMALLY****
TOTAL RUN TIME: 0 days 0 hours 0 minutes 35 seconds 530 msec
