                         Program Version 4.2.1 -  RELEASE  -
|  1> ! wB97X-D3 SP def2-SVP
|  2> %pal
|  3> nprocs 16
|  4> end
|  5>
|  6> * xyz 0 1
|  7> S 	 -32.5158 	 59.5248 	 108.286
|  8> C 	 -31.0248 	 60.1922 	 107.761
|  9> C 	 -30.2784 	 59.2413 	 107.137
| 10> C 	 -30.9512 	 57.9708 	 107.075
| 11> C 	 -32.2479 	 57.98 	 107.591
| 12> H 	 -30.493 	 57.0994 	 106.552
| 13> C 	 -28.9209 	 59.4595 	 106.582
| 14> H 	 -28.2356 	 58.7278 	 106.975
| 15> H 	 -28.5404 	 60.4352 	 106.815
| 16> C 	 -28.826 	 59.3193 	 105.032
| 17> H 	 -28.9846 	 58.2964 	 104.746
| 18> H 	 -29.5081 	 59.9143 	 104.421
| 19> C 	 -27.3846 	 59.5435 	 104.458
| 20> H 	 -27.1287 	 60.5958 	 104.214
| 21> H 	 -26.6382 	 59.2055 	 105.15
| 22> H 	 -27.3214 	 58.9128 	 103.598
| 23> S 	 -34.8955 	 57.2344 	 107.306
| 24> C 	 -35.3901 	 55.7163 	 107.815
| 25> C 	 -34.3251 	 54.8945 	 108.165
| 26> C 	 -33.0775 	 55.5774 	 108.102
| 27> C 	 -33.2231 	 56.8893 	 107.668
| 28> H 	 -34.4844 	 53.987 	 108.634
| 29> C 	 -31.8183 	 54.9317 	 108.406
| 30> H 	 -31.9663 	 54.1925 	 109.178
| 31> H 	 -31.1335 	 55.6692 	 108.834
| 32> C 	 -31.0293 	 54.3235 	 107.198
| 33> H 	 -31.0488 	 55.0325 	 106.358
| 34> H 	 -31.4141 	 53.4228 	 106.729
| 35> C 	 -29.5841 	 53.9402 	 107.547
| 36> H 	 -29.5112 	 53.6248 	 108.509
| 37> H 	 -28.9986 	 54.8176 	 107.565
| 38> H 	 -29.1459 	 53.2028 	 106.836
| 39> H 	 -30.7618 	 61.196 	 107.841
| 40> H 	 -36.4393 	 55.3626 	 107.82
| 41> *
| 42>
| 43>                          ****END OF INPUT****

CARTESIAN COORDINATES (ANGSTROEM)
---------------------------------
  S    -32.515800   59.524800  108.286000
  C    -31.024800   60.192200  107.761000
  C    -30.278400   59.241300  107.137000
  C    -30.951200   57.970800  107.075000
  C    -32.247900   57.980000  107.591000
  H    -30.493000   57.099400  106.552000
  C    -28.920900   59.459500  106.582000
  H    -28.235600   58.727800  106.975000
  H    -28.540400   60.435200  106.815000
  C    -28.826000   59.319300  105.032000
  H    -28.984600   58.296400  104.746000
  H    -29.508100   59.914300  104.421000
  C    -27.384600   59.543500  104.458000
  H    -27.128700   60.595800  104.214000
  H    -26.638200   59.205500  105.150000
  H    -27.321400   58.912800  103.598000
  S    -34.895500   57.234400  107.306000
  C    -35.390100   55.716300  107.815000
  C    -34.325100   54.894500  108.165000
  C    -33.077500   55.577400  108.102000
  C    -33.223100   56.889300  107.668000
  H    -34.484400   53.987000  108.634000
  C    -31.818300   54.931700  108.406000
  H    -31.966300   54.192500  109.178000
  H    -31.133500   55.669200  108.834000
  C    -31.029300   54.323500  107.198000
  H    -31.048800   55.032500  106.358000
  H    -31.414100   53.422800  106.729000
  C    -29.584100   53.940200  107.547000
  H    -29.511200   53.624800  108.509000
  H    -28.998600   54.817600  107.565000
  H    -29.145900   53.202800  106.836000
  H    -30.761800   61.196000  107.841000
  H    -36.439300   55.362600  107.820000

 Total Charge           Charge          ....    0
 Multiplicity           Mult            ....    1
 Number of Electrons    NEL             ....  134
 Basis Dimension        Dim             ....  322

ORBITAL ENERGIES
----------------

  NO   OCC          E(Eh)            E(eV)
   0   2.0000     -88.966655     -2420.9058
   1   2.0000     -88.962313     -2420.7876
   2   2.0000     -10.329769      -281.0873
   3   2.0000     -10.324579      -280.9461
   4   2.0000     -10.315784      -280.7068
   5   2.0000     -10.304437      -280.3980
   6   2.0000     -10.298864      -280.2463
   7   2.0000     -10.295680      -280.1597
   8   2.0000     -10.295330      -280.1502
   9   2.0000     -10.289301      -279.9861
  10   2.0000     -10.288498      -279.9643
  11   2.0000     -10.287601      -279.9399
  12   2.0000     -10.286486      -279.9095
  13   2.0000     -10.285854      -279.8923
  14   2.0000     -10.275890      -279.6212
  15   2.0000     -10.268789      -279.4279
  16   2.0000      -8.082843      -219.9453
  17   2.0000      -8.078338      -219.8227
  18   2.0000      -6.041119      -164.3872
  19   2.0000      -6.036996      -164.2750
  20   2.0000      -6.036841      -164.2708
  21   2.0000      -6.033924      -164.1914
  22   2.0000      -6.032450      -164.1513
  23   2.0000      -6.029240      -164.0640
  24   2.0000      -1.014635       -27.6096
  25   2.0000      -0.994363       -27.0580
  26   2.0000      -0.914915       -24.8961
  27   2.0000      -0.911519       -24.8037
  28   2.0000      -0.870764       -23.6947
  29   2.0000      -0.860879       -23.4257
  30   2.0000      -0.845419       -23.0050
  31   2.0000      -0.816254       -22.2114
  32   2.0000      -0.785800       -21.3827
  33   2.0000      -0.773462       -21.0470
  34   2.0000      -0.711099       -19.3500
  35   2.0000      -0.702470       -19.1152
  36   2.0000      -0.694303       -18.8929
  37   2.0000      -0.667948       -18.1758
  38   2.0000      -0.642530       -17.4841
  39   2.0000      -0.624407       -16.9910
  40   2.0000      -0.601853       -16.3773
  41   2.0000      -0.575221       -15.6526
  42   2.0000      -0.567025       -15.4295
  43   2.0000      -0.557507       -15.1705
  44   2.0000      -0.532025       -14.4771
  45   2.0000      -0.527765       -14.3612
  46   2.0000      -0.518823       -14.1179
  47   2.0000      -0.511660       -13.9230
  48   2.0000      -0.507746       -13.8165
  49   2.0000      -0.506287       -13.7768
  50   2.0000      -0.500513       -13.6197
  51   2.0000      -0.478047       -13.0083
  52   2.0000      -0.472867       -12.8674
  53   2.0000      -0.466795       -12.7021
  54   2.0000      -0.461558       -12.5596
  55   2.0000      -0.451943       -12.2980
  56   2.0000      -0.444092       -12.0844
  57   2.0000      -0.441437       -12.0121
  58   2.0000      -0.438080       -11.9208
  59   2.0000      -0.430279       -11.7085
  60   2.0000      -0.420683       -11.4474
  61   2.0000      -0.415412       -11.3039
  62   2.0000      -0.412648       -11.2287
  63   2.0000      -0.349082        -9.4990
  64   2.0000      -0.332477        -9.0472
  65   2.0000      -0.325727        -8.8635
  66   2.0000      -0.293109        -7.9759
  67   0.0000       0.031797         0.8652
  68   0.0000       0.080477         2.1899
  69   0.0000       0.117626         3.2008
  70   0.0000       0.125778         3.4226
  71   0.0000       0.130667         3.5556

MULLIKEN ATOMIC CHARGES
-----------------------
   0 S :    0.113578
   1 C :   -0.103068
   2 C :   -0.074347
   3 C :   -0.004513
   4 C :   -0.125666
   5 H :    0.016119
   6 C :    0.110707
   7 H :    0.023341
   8 H :    0.009867
   9 C :   -0.103899
  10 H :    0.018741
  11 H :    0.035670
  12 C :   -0.047290
  13 H :    0.040137
  14 H :    0.016996
  15 H :    0.027964
  16 S :    0.130194
  17 C :   -0.099479
  18 C :   -0.009599
  19 C :   -0.025488
  20 C :   -0.172276
  21 H :   -0.007523
  22 C :    0.077281
  23 H :    0.016849
  24 H :    0.025057
  25 C :   -0.087703
  26 H :    0.025717
  27 H :    0.020644
  28 C :    0.006266
  29 H :    0.003346
  30 H :    0.008320
  31 H :    0.042900
  32 H :    0.021380
  33 H :    0.069778
Sum of atomic charges:   -0.0000000

LOEWDIN ATOMIC CHARGES
----------------------
   0 S :    0.433030
   1 C :   -0.197653
   2 C :   -0.065850
   3 C :   -0.073608
   4 C :   -0.204307
   5 H :    0.032666
   6 C :   -0.026924
   7 H :    0.032431
   8 H :    0.025631
   9 C :   -0.035981
  10 H :    0.018047
  11 H :    0.025138
  12 C :   -0.064572
  13 H :    0.025858
  14 H :    0.019059
  15 H :    0.024020
  16 S :    0.445250
  17 C :   -0.207338
  18 C :   -0.067057
  19 C :   -0.049717
  20 C :   -0.208090
  21 H :    0.019506
  22 C :   -0.033287
  23 H :    0.029561
  24 H :    0.035335
  25 C :   -0.035519
  26 H :    0.019334
  27 H :    0.022051
  28 C :   -0.056446
  29 H :    0.011363
  30 H :    0.017899
  31 H :    0.034203
  32 H :    0.018156
  33 H :    0.037812

  Mayer bond orders larger than 0.100000
B(  0-S ,  1-C ) :   1.1408 B(  0-S ,  4-C ) :   1.1764 B(  1-C ,  2-C ) :   1.5934
B(  1-C , 32-H ) :   0.9784 B(  2-C ,  3-C ) :   1.2567 B(  2-C ,  6-C ) :   1.0487
B(  3-C ,  4-C ) :   1.5351 B(  3-C ,  5-H ) :   0.9870 B(  4-C , 20-C ) :   1.0400
B(  6-C ,  7-H ) :   0.9258 B(  6-C ,  8-H ) :   0.9436 B(  6-C ,  9-C ) :   1.0611
B(  9-C , 10-H ) :   0.9615 B(  9-C , 11-H ) :   0.9603 B(  9-C , 12-C ) :   1.0758
B( 12-C , 13-H ) :   0.9781 B( 12-C , 14-H ) :   0.9730 B( 12-C , 15-H ) :   0.9798
B( 16-S , 17-C ) :   1.1934 B( 16-S , 20-C ) :   1.1518 B( 17-C , 18-C ) :   1.5648
B( 17-C , 33-H ) :   0.9616 B( 18-C , 19-C ) :   1.2718 B( 18-C , 21-H ) :   1.0010
B( 19-C , 20-C ) :   1.5502 B( 19-C , 22-C ) :   1.0866 B( 22-C , 23-H ) :   0.9186
B( 22-C , 24-H ) :   0.9214 B( 22-C , 25-C ) :   1.0479 B( 25-C , 26-H ) :   0.9573
B( 25-C , 27-H ) :   0.9559 B( 25-C , 28-C ) :   1.0752 B( 28-C , 29-H ) :   0.9688
B( 28-C , 30-H ) :   0.9698 B( 28-C , 31-H ) :   0.9760

Dispersion correction           -0.014231006
FINAL SINGLE POINT ENERGY     -1339.884425373468

DIPOLE MOMENT
-------------
                                X             Y             Z
Electronic contribution:    -28.79176       9.26301       9.99211
Nuclear contribution   :     29.25132      -9.62900     -10.07206
                        -----------------------------------------
Total Dipole Moment    :      0.45956      -0.36599      -0.07995
                        -----------------------------------------
Magnitude (a.u.)       :      0.59290
Magnitude (Debye)      :      1.50703

Rotational constants in cm-1:     0.018233     0.008951     0.006697
Rotational constants in MHz :   546.614408   268.351727   200.762698

                             ****ORCA TERMINATED NORMALLY****
TOTAL RUN TIME: 0 days 0 hours 0 minutes 31 seconds 173 msec
