                         Program Version 4.2.1 -  RELEASE  -
|  1> ! wB97X-D3 SP def2-SVP
|  2> %pal
|  3> nprocs 16
|  4> end
|  5>
|  6> * xyz 0 1
|  7> S 	 39.8527 	 10.0546 	 90.5236
|  8> C 	 40.9654 	 10.306 	 89.2166
|  9> C 	 40.4258 	 9.79171 	 88.0264
| 10> C 	 39.1509 	 9.1081 	 88.2861
| 11> C 	 38.7556 	 9.12304 	 89.5826
| 12> H 	 38.5479 	 8.5803 	 87.6035
| 13> C 	 40.9283 	 9.98979 	 86.6188
| 14> H 	 40.3231 	 9.27387 	 86.0318
| 15> H 	 41.9912 	 9.76591 	 86.67
| 16> C 	 40.6255 	 11.3477 	 86.0397
| 17> H 	 41.1235 	 12.0744 	 86.6054
| 18> H 	 40.9603 	 11.3705 	 84.9874
| 19> C 	 39.1435 	 11.7032 	 86.0744
| 20> H 	 38.7023 	 11.9486 	 87.0204
| 21> H 	 38.99 	 12.4362 	 85.3752
| 22> H 	 38.648 	 10.8221 	 85.6714
| 23> S 	 38.078 	 6.91342 	 90.9523
| 24> C 	 36.341 	 6.69139 	 91.3852
| 25> C 	 35.5212 	 7.54018 	 90.6383
| 26> C 	 36.2825 	 8.56156 	 89.9215
| 27> C 	 37.6465 	 8.42704 	 90.1359
| 28> H 	 34.4462 	 7.47361 	 90.6775
| 29> C 	 35.6095 	 9.60175 	 89.0898
| 30> H 	 36.3766 	 10.3088 	 88.682
| 31> H 	 35.0775 	 10.245 	 89.7876
| 32> C 	 34.9345 	 9.10607 	 87.7624
| 33> H 	 35.766 	 8.71213 	 87.1432
| 34> H 	 34.7121 	 10.0675 	 87.2843
| 35> C 	 33.724 	 8.16274 	 87.8778
| 36> H 	 33.4641 	 7.77778 	 86.9349
| 37> H 	 32.842 	 8.54252 	 88.3701
| 38> H 	 34.08 	 7.20695 	 88.3207
| 39> H 	 41.8938 	 10.859 	 89.4051
| 40> H 	 35.9182 	 5.8462 	 91.9925
| 41> *
| 42>
| 43>                          ****END OF INPUT****

CARTESIAN COORDINATES (ANGSTROEM)
---------------------------------
  S     39.852700   10.054600   90.523600
  C     40.965400   10.306000   89.216600
  C     40.425800    9.791710   88.026400
  C     39.150900    9.108100   88.286100
  C     38.755600    9.123040   89.582600
  H     38.547900    8.580300   87.603500
  C     40.928300    9.989790   86.618800
  H     40.323100    9.273870   86.031800
  H     41.991200    9.765910   86.670000
  C     40.625500   11.347700   86.039700
  H     41.123500   12.074400   86.605400
  H     40.960300   11.370500   84.987400
  C     39.143500   11.703200   86.074400
  H     38.702300   11.948600   87.020400
  H     38.990000   12.436200   85.375200
  H     38.648000   10.822100   85.671400
  S     38.078000    6.913420   90.952300
  C     36.341000    6.691390   91.385200
  C     35.521200    7.540180   90.638300
  C     36.282500    8.561560   89.921500
  C     37.646500    8.427040   90.135900
  H     34.446200    7.473610   90.677500
  C     35.609500    9.601750   89.089800
  H     36.376600   10.308800   88.682000
  H     35.077500   10.245000   89.787600
  C     34.934500    9.106070   87.762400
  H     35.766000    8.712130   87.143200
  H     34.712100   10.067500   87.284300
  C     33.724000    8.162740   87.877800
  H     33.464100    7.777780   86.934900
  H     32.842000    8.542520   88.370100
  H     34.080000    7.206950   88.320700
  H     41.893800   10.859000   89.405100
  H     35.918200    5.846200   91.992500

 Total Charge           Charge          ....    0
 Multiplicity           Mult            ....    1
 Number of Electrons    NEL             ....  134
 Basis Dimension        Dim             ....  322

ORBITAL ENERGIES
----------------

  NO   OCC          E(Eh)            E(eV)
   0   2.0000     -88.962921     -2420.8042
   1   2.0000     -88.959533     -2420.7120
   2   2.0000     -10.325214      -280.9634
   3   2.0000     -10.321631      -280.8659
   4   2.0000     -10.317341      -280.7491
   5   2.0000     -10.317161      -280.7442
   6   2.0000     -10.304835      -280.4088
   7   2.0000     -10.304186      -280.3911
   8   2.0000     -10.297381      -280.2060
   9   2.0000     -10.297287      -280.2034
  10   2.0000     -10.292480      -280.0726
  11   2.0000     -10.289420      -279.9893
  12   2.0000     -10.288755      -279.9713
  13   2.0000     -10.280071      -279.7349
  14   2.0000     -10.278597      -279.6949
  15   2.0000     -10.265904      -279.3495
  16   2.0000      -8.076676      -219.7775
  17   2.0000      -8.075468      -219.7446
  18   2.0000      -6.035341      -164.2300
  19   2.0000      -6.033910      -164.1910
  20   2.0000      -6.031585      -164.1278
  21   2.0000      -6.029630      -164.0746
  22   2.0000      -6.027052      -164.0044
  23   2.0000      -6.026399      -163.9867
  24   2.0000      -1.006466       -27.3873
  25   2.0000      -0.976088       -26.5607
  26   2.0000      -0.919506       -25.0210
  27   2.0000      -0.903915       -24.5968
  28   2.0000      -0.870825       -23.6963
  29   2.0000      -0.846915       -23.0457
  30   2.0000      -0.843904       -22.9638
  31   2.0000      -0.814427       -22.1617
  32   2.0000      -0.787503       -21.4291
  33   2.0000      -0.773198       -21.0398
  34   2.0000      -0.708244       -19.2723
  35   2.0000      -0.703850       -19.1527
  36   2.0000      -0.687769       -18.7151
  37   2.0000      -0.659909       -17.9570
  38   2.0000      -0.649146       -17.6642
  39   2.0000      -0.606571       -16.5056
  40   2.0000      -0.588475       -16.0132
  41   2.0000      -0.578828       -15.7507
  42   2.0000      -0.558317       -15.1926
  43   2.0000      -0.553342       -15.0572
  44   2.0000      -0.543966       -14.8021
  45   2.0000      -0.533785       -14.5250
  46   2.0000      -0.523026       -14.2323
  47   2.0000      -0.513434       -13.9712
  48   2.0000      -0.501806       -13.6548
  49   2.0000      -0.497014       -13.5244
  50   2.0000      -0.491833       -13.3834
  51   2.0000      -0.479742       -13.0544
  52   2.0000      -0.468293       -12.7429
  53   2.0000      -0.464407       -12.6372
  54   2.0000      -0.461348       -12.5539
  55   2.0000      -0.443394       -12.0654
  56   2.0000      -0.440936       -11.9985
  57   2.0000      -0.437477       -11.9043
  58   2.0000      -0.436747       -11.8845
  59   2.0000      -0.423561       -11.5257
  60   2.0000      -0.419996       -11.4287
  61   2.0000      -0.413765       -11.2591
  62   2.0000      -0.410456       -11.1691
  63   2.0000      -0.336722        -9.1627
  64   2.0000      -0.324093        -8.8190
  65   2.0000      -0.319188        -8.6856
  66   2.0000      -0.304571        -8.2878
  67   0.0000       0.037038         1.0079
  68   0.0000       0.062292         1.6951
  69   0.0000       0.102649         2.7932
  70   0.0000       0.118316         3.2195
  71   0.0000       0.126912         3.4535

MULLIKEN ATOMIC CHARGES
-----------------------
   0 S :    0.113773
   1 C :   -0.145387
   2 C :   -0.104492
   3 C :    0.058054
   4 C :   -0.188795
   5 H :   -0.011845
   6 C :    0.076472
   7 H :    0.019400
   8 H :    0.035721
   9 C :   -0.046973
  10 H :    0.011154
  11 H :    0.035044
  12 C :   -0.013074
  13 H :    0.049948
  14 H :    0.011398
  15 H :    0.003024
  16 S :    0.102424
  17 C :   -0.102207
  18 C :   -0.037311
  19 C :   -0.019533
  20 C :   -0.165774
  21 H :    0.023259
  22 C :    0.032215
  23 H :    0.025316
  24 H :    0.037797
  25 C :   -0.078101
  26 H :    0.032169
  27 H :    0.032918
  28 C :   -0.013242
  29 H :    0.014981
  30 H :    0.042681
  31 H :    0.031755
  32 H :    0.063316
  33 H :    0.073917
Sum of atomic charges:   -0.0000000

LOEWDIN ATOMIC CHARGES
----------------------
   0 S :    0.422880
   1 C :   -0.206002
   2 C :   -0.060045
   3 C :   -0.056893
   4 C :   -0.218522
   5 H :    0.021151
   6 C :   -0.034115
   7 H :    0.030333
   8 H :    0.033690
   9 C :   -0.032112
  10 H :    0.013688
  11 H :    0.029294
  12 C :   -0.053554
  13 H :    0.026177
  14 H :    0.015700
  15 H :    0.021395
  16 S :    0.375259
  17 C :   -0.175634
  18 C :   -0.068433
  19 C :   -0.051069
  20 C :   -0.195308
  21 H :    0.029459
  22 C :   -0.043694
  23 H :    0.037427
  24 H :    0.032376
  25 C :   -0.034813
  26 H :    0.030259
  27 H :    0.026617
  28 C :   -0.069689
  29 H :    0.022289
  30 H :    0.026903
  31 H :    0.033637
  32 H :    0.032070
  33 H :    0.039280

  Mayer bond orders larger than 0.100000
B(  0-S ,  1-C ) :   1.1543 B(  0-S ,  4-C ) :   1.1565 B(  1-C ,  2-C ) :   1.5781
B(  1-C , 32-H ) :   0.9753 B(  2-C ,  3-C ) :   1.2249 B(  2-C ,  6-C ) :   1.0216
B(  3-C ,  4-C ) :   1.5948 B(  3-C ,  5-H ) :   1.0006 B(  4-C , 20-C ) :   1.0231
B(  6-C ,  7-H ) :   0.9369 B(  6-C ,  8-H ) :   0.9360 B(  6-C ,  9-C ) :   1.0866
B(  9-C , 10-H ) :   0.9504 B(  9-C , 11-H ) :   0.9562 B(  9-C , 12-C ) :   1.0811
B( 12-C , 13-H ) :   0.9716 B( 12-C , 14-H ) :   0.9688 B( 12-C , 15-H ) :   0.9719
B( 16-S , 17-C ) :   1.1285 B( 16-S , 20-C ) :   1.1304 B( 17-C , 18-C ) :   1.6421
B( 17-C , 33-H ) :   0.9603 B( 18-C , 19-C ) :   1.1959 B( 18-C , 21-H ) :   0.9847
B( 19-C , 20-C ) :   1.6308 B( 19-C , 22-C ) :   1.0512 B( 22-C , 23-H ) :   0.9287
B( 22-C , 24-H ) :   0.9358 B( 22-C , 25-C ) :   1.0585 B( 25-C , 26-H ) :   0.9523
B( 25-C , 27-H ) :   0.9577 B( 25-C , 28-C ) :   1.0809 B( 28-C , 29-H ) :   0.9660
B( 28-C , 30-H ) :   0.9761 B( 28-C , 31-H ) :   0.9631

Dispersion correction           -0.015583482
FINAL SINGLE POINT ENERGY     -1339.867879957003

DIPOLE MOMENT
-------------
                                X             Y             Z
Electronic contribution:     11.11951      -9.11978      23.01824
Nuclear contribution   :    -11.46887       9.30605     -23.67605
                        -----------------------------------------
Total Dipole Moment    :     -0.34936       0.18627      -0.65780
                        -----------------------------------------
Magnitude (a.u.)       :      0.76776
Magnitude (Debye)      :      1.95149

Rotational constants in cm-1:     0.019055     0.009634     0.007108
Rotational constants in MHz :   571.247293   288.808665   213.105402

                             ****ORCA TERMINATED NORMALLY****
TOTAL RUN TIME: 0 days 0 hours 0 minutes 32 seconds 1 msec
