                         Program Version 4.2.1 -  RELEASE  -
|  1> ! wB97X-D3 SP def2-SVP
|  2> %pal
|  3> nprocs 16
|  4> end
|  5>
|  6> * xyz 0 1
|  7> S 	 39.9156 	 25.5952 	 95.8708
|  8> C 	 38.7078 	 26.5525 	 95.0281
|  9> C 	 38.6842 	 26.293 	 93.6734
| 10> C 	 39.494 	 25.1486 	 93.3468
| 11> C 	 40.1039 	 24.5711 	 94.4469
| 12> H 	 39.6904 	 24.7896 	 92.3342
| 13> C 	 37.8528 	 27.0548 	 92.7115
| 14> H 	 37.2147 	 27.7712 	 93.1748
| 15> H 	 37.1764 	 26.3183 	 92.1905
| 16> C 	 38.6295 	 27.8366 	 91.6864
| 17> H 	 39.2571 	 27.0887 	 91.0446
| 18> H 	 38.0353 	 28.4068 	 90.953
| 19> C 	 39.5365 	 28.8063 	 92.3231
| 20> H 	 40.162 	 29.2154 	 91.6194
| 21> H 	 38.7945 	 29.5032 	 92.698
| 22> H 	 40.1296 	 28.3518 	 93.1243
| 23> S 	 40.7638 	 22.053 	 95.2403
| 24> C 	 42.1405 	 21.2807 	 94.5666
| 25> C 	 42.8769 	 22.1203 	 93.7681
| 26> C 	 42.3636 	 23.4194 	 93.6665
| 27> C 	 41.1673 	 23.5281 	 94.3888
| 28> H 	 43.7269 	 21.6879 	 93.2781
| 29> C 	 43.0671 	 24.529 	 92.9332
| 30> H 	 42.4845 	 25.4741 	 92.751
| 31> H 	 43.2496 	 24.1781 	 91.9553
| 32> C 	 44.3818 	 25.0221 	 93.5442
| 33> H 	 44.5461 	 25.979 	 93.0438
| 34> H 	 45.2519 	 24.3792 	 93.4864
| 35> C 	 44.2886 	 25.3192 	 95.0481
| 36> H 	 44.3426 	 24.441 	 95.6443
| 37> H 	 43.4594 	 25.9172 	 95.3099
| 38> H 	 45.1604 	 25.89 	 95.2954
| 39> H 	 38.093 	 27.2027 	 95.6436
| 40> H 	 42.2739 	 20.191 	 94.6727
| 41> *
| 42>
| 43>                          ****END OF INPUT****

CARTESIAN COORDINATES (ANGSTROEM)
---------------------------------
  S     39.915600   25.595200   95.870800
  C     38.707800   26.552500   95.028100
  C     38.684200   26.293000   93.673400
  C     39.494000   25.148600   93.346800
  C     40.103900   24.571100   94.446900
  H     39.690400   24.789600   92.334200
  C     37.852800   27.054800   92.711500
  H     37.214700   27.771200   93.174800
  H     37.176400   26.318300   92.190500
  C     38.629500   27.836600   91.686400
  H     39.257100   27.088700   91.044600
  H     38.035300   28.406800   90.953000
  C     39.536500   28.806300   92.323100
  H     40.162000   29.215400   91.619400
  H     38.794500   29.503200   92.698000
  H     40.129600   28.351800   93.124300
  S     40.763800   22.053000   95.240300
  C     42.140500   21.280700   94.566600
  C     42.876900   22.120300   93.768100
  C     42.363600   23.419400   93.666500
  C     41.167300   23.528100   94.388800
  H     43.726900   21.687900   93.278100
  C     43.067100   24.529000   92.933200
  H     42.484500   25.474100   92.751000
  H     43.249600   24.178100   91.955300
  C     44.381800   25.022100   93.544200
  H     44.546100   25.979000   93.043800
  H     45.251900   24.379200   93.486400
  C     44.288600   25.319200   95.048100
  H     44.342600   24.441000   95.644300
  H     43.459400   25.917200   95.309900
  H     45.160400   25.890000   95.295400
  H     38.093000   27.202700   95.643600
  H     42.273900   20.191000   94.672700

 Total Charge           Charge          ....    0
 Multiplicity           Mult            ....    1
 Number of Electrons    NEL             ....  134
 Basis Dimension        Dim             ....  322

ORBITAL ENERGIES
----------------

  NO   OCC          E(Eh)            E(eV)
   0   2.0000     -88.963330     -2420.8153
   1   2.0000     -88.962794     -2420.8007
   2   2.0000     -10.330109      -281.0966
   3   2.0000     -10.325343      -280.9669
   4   2.0000     -10.315268      -280.6927
   5   2.0000     -10.314985      -280.6850
   6   2.0000     -10.304432      -280.3979
   7   2.0000     -10.303012      -280.3592
   8   2.0000     -10.297719      -280.2152
   9   2.0000     -10.289687      -279.9966
  10   2.0000     -10.289661      -279.9959
  11   2.0000     -10.289553      -279.9930
  12   2.0000     -10.287206      -279.9291
  13   2.0000     -10.282748      -279.8078
  14   2.0000     -10.262713      -279.2626
  15   2.0000     -10.259903      -279.1862
  16   2.0000      -8.078988      -219.8404
  17   2.0000      -8.077498      -219.7999
  18   2.0000      -6.037219      -164.2811
  19   2.0000      -6.035965      -164.2470
  20   2.0000      -6.033281      -164.1739
  21   2.0000      -6.032120      -164.1423
  22   2.0000      -6.030074      -164.0867
  23   2.0000      -6.028191      -164.0354
  24   2.0000      -1.006538       -27.3893
  25   2.0000      -0.986718       -26.8500
  26   2.0000      -0.924844       -25.1663
  27   2.0000      -0.911114       -24.7927
  28   2.0000      -0.867367       -23.6023
  29   2.0000      -0.851799       -23.1786
  30   2.0000      -0.848244       -23.0819
  31   2.0000      -0.813973       -22.1493
  32   2.0000      -0.788507       -21.4564
  33   2.0000      -0.774855       -21.0849
  34   2.0000      -0.703591       -19.1457
  35   2.0000      -0.689394       -18.7594
  36   2.0000      -0.683361       -18.5952
  37   2.0000      -0.657152       -17.8820
  38   2.0000      -0.641692       -17.4613
  39   2.0000      -0.625683       -17.0257
  40   2.0000      -0.602772       -16.4023
  41   2.0000      -0.568415       -15.4674
  42   2.0000      -0.565857       -15.3978
  43   2.0000      -0.557402       -15.1677
  44   2.0000      -0.549315       -14.9476
  45   2.0000      -0.544180       -14.8079
  46   2.0000      -0.521413       -14.1884
  47   2.0000      -0.509867       -13.8742
  48   2.0000      -0.497127       -13.5275
  49   2.0000      -0.493191       -13.4204
  50   2.0000      -0.489499       -13.3199
  51   2.0000      -0.477380       -12.9902
  52   2.0000      -0.467943       -12.7334
  53   2.0000      -0.466679       -12.6990
  54   2.0000      -0.456649       -12.4261
  55   2.0000      -0.447432       -12.1752
  56   2.0000      -0.443412       -12.0658
  57   2.0000      -0.437354       -11.9010
  58   2.0000      -0.432742       -11.7755
  59   2.0000      -0.421973       -11.4825
  60   2.0000      -0.420649       -11.4464
  61   2.0000      -0.415986       -11.3196
  62   2.0000      -0.406344       -11.0572
  63   2.0000      -0.337856        -9.1935
  64   2.0000      -0.328595        -8.9415
  65   2.0000      -0.327995        -8.9252
  66   2.0000      -0.301628        -8.2077
  67   0.0000       0.036728         0.9994
  68   0.0000       0.061104         1.6627
  69   0.0000       0.106995         2.9115
  70   0.0000       0.125168         3.4060
  71   0.0000       0.129283         3.5180

MULLIKEN ATOMIC CHARGES
-----------------------
   0 S :    0.097112
   1 C :   -0.135571
   2 C :   -0.094283
   3 C :    0.033606
   4 C :   -0.121153
   5 H :    0.021476
   6 C :    0.098278
   7 H :    0.004294
   8 H :    0.042802
   9 C :   -0.123513
  10 H :    0.020725
  11 H :    0.032242
  12 C :   -0.004037
  13 H :    0.016836
  14 H :    0.016619
  15 H :    0.048555
  16 S :    0.115503
  17 C :   -0.105278
  18 C :   -0.047479
  19 C :    0.013403
  20 C :   -0.213970
  21 H :    0.011658
  22 C :    0.088524
  23 H :    0.032206
  24 H :    0.013532
  25 C :   -0.088843
  26 H :    0.029026
  27 H :    0.029254
  28 C :   -0.019962
  29 H :    0.032070
  30 H :    0.016829
  31 H :    0.017844
  32 H :    0.053612
  33 H :    0.068082
Sum of atomic charges:    0.0000000

LOEWDIN ATOMIC CHARGES
----------------------
   0 S :    0.390711
   1 C :   -0.186488
   2 C :   -0.064652
   3 C :   -0.056174
   4 C :   -0.193671
   5 H :    0.034661
   6 C :   -0.033713
   7 H :    0.023800
   8 H :    0.039732
   9 C :   -0.046897
  10 H :    0.018780
  11 H :    0.025221
  12 C :   -0.056953
  13 H :    0.014311
  14 H :    0.026609
  15 H :    0.028797
  16 S :    0.425810
  17 C :   -0.195350
  18 C :   -0.074257
  19 C :   -0.052067
  20 C :   -0.205121
  21 H :    0.030910
  22 C :   -0.034599
  23 H :    0.039136
  24 H :    0.025758
  25 C :   -0.035961
  26 H :    0.027056
  27 H :    0.021104
  28 C :   -0.057806
  29 H :    0.022415
  30 H :    0.015973
  31 H :    0.024068
  32 H :    0.025486
  33 H :    0.033372

  Mayer bond orders larger than 0.100000
B(  0-S ,  1-C ) :   1.1412 B(  0-S ,  4-C ) :   1.1565 B(  1-C ,  2-C ) :   1.5886
B(  1-C , 32-H ) :   0.9745 B(  2-C ,  3-C ) :   1.2196 B(  2-C ,  6-C ) :   1.0344
B(  3-C ,  4-C ) :   1.5849 B(  3-C ,  5-H ) :   1.0011 B(  4-C , 20-C ) :   0.9868
B(  6-C ,  7-H ) :   0.9400 B(  6-C ,  8-H ) :   0.9354 B(  6-C ,  9-C ) :   1.0700
B(  9-C , 10-H ) :   0.9525 B(  9-C , 11-H ) :   0.9596 B(  9-C , 12-C ) :   1.0667
B( 12-C , 13-H ) :   0.9693 B( 12-C , 14-H ) :   0.9744 B( 12-C , 15-H ) :   0.9724
B( 16-S , 17-C ) :   1.1754 B( 16-S , 20-C ) :   1.1704 B( 17-C , 18-C ) :   1.5876
B( 17-C , 20-C ) :   0.1019 B( 17-C , 33-H ) :   0.9651 B( 18-C , 19-C ) :   1.2396
B( 18-C , 21-H ) :   1.0009 B( 19-C , 20-C ) :   1.5729 B( 19-C , 22-C ) :   1.0461
B( 22-C , 23-H ) :   0.9386 B( 22-C , 24-H ) :   0.9236 B( 22-C , 25-C ) :   1.0747
B( 25-C , 26-H ) :   0.9593 B( 25-C , 27-H ) :   0.9568 B( 25-C , 28-C ) :   1.0861
B( 28-C , 29-H ) :   0.9710 B( 28-C , 30-H ) :   0.9751 B( 28-C , 31-H ) :   0.9713

Dispersion correction           -0.015619712
FINAL SINGLE POINT ENERGY     -1339.877111958050

DIPOLE MOMENT
-------------
                                X             Y             Z
Electronic contribution:     -7.67893     -18.31954      14.29210
Nuclear contribution   :      7.84726      18.54962     -14.85871
                        -----------------------------------------
Total Dipole Moment    :      0.16833       0.23008      -0.56660
                        -----------------------------------------
Magnitude (a.u.)       :      0.63428
Magnitude (Debye)      :      1.61221

Rotational constants in cm-1:     0.020473     0.009038     0.007747
Rotational constants in MHz :   613.769278   270.950605   232.240891

                             ****ORCA TERMINATED NORMALLY****
TOTAL RUN TIME: 0 days 0 hours 0 minutes 31 seconds 711 msec
