                         Program Version 4.2.1 -  RELEASE  -
|  1> ! wB97X-D3 SP def2-SVP
|  2> %pal
|  3> nprocs 16
|  4> end
|  5>
|  6> * xyz 0 1
|  7> S 	 -14.0995 	 69.1622 	 55.1138
|  8> C 	 -14.5155 	 67.5047 	 55.1502
|  9> C 	 -13.5499 	 66.7222 	 54.5221
| 10> C 	 -12.4481 	 67.5143 	 54.0043
| 11> C 	 -12.5288 	 68.8527 	 54.3671
| 12> H 	 -11.592 	 67.1557 	 53.4323
| 13> C 	 -13.72 	 65.2333 	 54.2995
| 14> H 	 -12.7347 	 64.9835 	 53.9452
| 15> H 	 -14.3921 	 65.2077 	 53.4104
| 16> C 	 -14.1214 	 64.3804 	 55.5441
| 17> H 	 -13.6893 	 64.7545 	 56.4291
| 18> H 	 -15.1395 	 64.4428 	 55.7289
| 19> C 	 -13.7287 	 62.9502 	 55.5172
| 20> H 	 -12.7059 	 62.8655 	 55.8237
| 21> H 	 -14.3523 	 62.2425 	 56.1733
| 22> H 	 -13.8065 	 62.5633 	 54.4542
| 23> S 	 -12.5033 	 70.9645 	 52.6361
| 24> C 	 -11.1138 	 72.0298 	 52.5875
| 25> C 	 -9.99624 	 71.4038 	 53.1587
| 26> C 	 -10.3646 	 70.151 	 53.9178
| 27> C 	 -11.7418 	 69.9734 	 53.8834
| 28> H 	 -9.01095 	 71.8123 	 53.0456
| 29> C 	 -9.24392 	 69.3426 	 54.5951
| 30> H 	 -9.70458 	 68.6857 	 55.2948
| 31> H 	 -8.62603 	 70.0879 	 55.1849
| 32> C 	 -8.36764 	 68.7043 	 53.5291
| 33> H 	 -7.94942 	 69.4999 	 52.8071
| 34> H 	 -9.08478 	 68.0182 	 53.0163
| 35> C 	 -7.20052 	 67.9001 	 54.1031
| 36> H 	 -6.28016 	 68.5332 	 54.4966
| 37> H 	 -6.76951 	 67.2882 	 53.3232
| 38> H 	 -7.41968 	 67.0937 	 54.8158
| 39> H 	 -15.472 	 67.1303 	 55.3533
| 40> H 	 -11.1869 	 73.0006 	 52.132
| 41> *
| 42>
| 43>                          ****END OF INPUT****

CARTESIAN COORDINATES (ANGSTROEM)
---------------------------------
  S    -14.099500   69.162200   55.113800
  C    -14.515500   67.504700   55.150200
  C    -13.549900   66.722200   54.522100
  C    -12.448100   67.514300   54.004300
  C    -12.528800   68.852700   54.367100
  H    -11.592000   67.155700   53.432300
  C    -13.720000   65.233300   54.299500
  H    -12.734700   64.983500   53.945200
  H    -14.392100   65.207700   53.410400
  C    -14.121400   64.380400   55.544100
  H    -13.689300   64.754500   56.429100
  H    -15.139500   64.442800   55.728900
  C    -13.728700   62.950200   55.517200
  H    -12.705900   62.865500   55.823700
  H    -14.352300   62.242500   56.173300
  H    -13.806500   62.563300   54.454200
  S    -12.503300   70.964500   52.636100
  C    -11.113800   72.029800   52.587500
  C     -9.996240   71.403800   53.158700
  C    -10.364600   70.151000   53.917800
  C    -11.741800   69.973400   53.883400
  H     -9.010950   71.812300   53.045600
  C     -9.243920   69.342600   54.595100
  H     -9.704580   68.685700   55.294800
  H     -8.626030   70.087900   55.184900
  C     -8.367640   68.704300   53.529100
  H     -7.949420   69.499900   52.807100
  H     -9.084780   68.018200   53.016300
  C     -7.200520   67.900100   54.103100
  H     -6.280160   68.533200   54.496600
  H     -6.769510   67.288200   53.323200
  H     -7.419680   67.093700   54.815800
  H    -15.472000   67.130300   55.353300
  H    -11.186900   73.000600   52.132000

 Total Charge           Charge          ....    0
 Multiplicity           Mult            ....    1
 Number of Electrons    NEL             ....  134
 Basis Dimension        Dim             ....  322

ORBITAL ENERGIES
----------------

  NO   OCC          E(Eh)            E(eV)
   0   2.0000     -88.962933     -2420.8045
   1   2.0000     -88.959516     -2420.7115
   2   2.0000     -10.327337      -281.0211
   3   2.0000     -10.325505      -280.9713
   4   2.0000     -10.319457      -280.8067
   5   2.0000     -10.311701      -280.5956
   6   2.0000     -10.306052      -280.4419
   7   2.0000     -10.301694      -280.3234
   8   2.0000     -10.301621      -280.3214
   9   2.0000     -10.301172      -280.3091
  10   2.0000     -10.300333      -280.2863
  11   2.0000     -10.296156      -280.1727
  12   2.0000     -10.295785      -280.1626
  13   2.0000     -10.288695      -279.9696
  14   2.0000     -10.282881      -279.8114
  15   2.0000     -10.277863      -279.6749
  16   2.0000      -8.078106      -219.8164
  17   2.0000      -8.074448      -219.7169
  18   2.0000      -6.036504      -164.2616
  19   2.0000      -6.033135      -164.1699
  20   2.0000      -6.032443      -164.1511
  21   2.0000      -6.029151      -164.0615
  22   2.0000      -6.029060      -164.0591
  23   2.0000      -6.024775      -163.9425
  24   2.0000      -1.002716       -27.2853
  25   2.0000      -0.977392       -26.5962
  26   2.0000      -0.913358       -24.8537
  27   2.0000      -0.909877       -24.7590
  28   2.0000      -0.869692       -23.6655
  29   2.0000      -0.853364       -23.2212
  30   2.0000      -0.841520       -22.8989
  31   2.0000      -0.812321       -22.1044
  32   2.0000      -0.780642       -21.2423
  33   2.0000      -0.767325       -20.8800
  34   2.0000      -0.709417       -19.3042
  35   2.0000      -0.698296       -19.0016
  36   2.0000      -0.690666       -18.7940
  37   2.0000      -0.660853       -17.9827
  38   2.0000      -0.643536       -17.5115
  39   2.0000      -0.609299       -16.5799
  40   2.0000      -0.592164       -16.1136
  41   2.0000      -0.570585       -15.5264
  42   2.0000      -0.568635       -15.4733
  43   2.0000      -0.561865       -15.2891
  44   2.0000      -0.527203       -14.3459
  45   2.0000      -0.524716       -14.2782
  46   2.0000      -0.518382       -14.1059
  47   2.0000      -0.514312       -13.9951
  48   2.0000      -0.509741       -13.8708
  49   2.0000      -0.495568       -13.4851
  50   2.0000      -0.493761       -13.4359
  51   2.0000      -0.475393       -12.9361
  52   2.0000      -0.472770       -12.8647
  53   2.0000      -0.463799       -12.6206
  54   2.0000      -0.450026       -12.2458
  55   2.0000      -0.448837       -12.2135
  56   2.0000      -0.447560       -12.1787
  57   2.0000      -0.432811       -11.7774
  58   2.0000      -0.430827       -11.7234
  59   2.0000      -0.422845       -11.5062
  60   2.0000      -0.420925       -11.4540
  61   2.0000      -0.417340       -11.3564
  62   2.0000      -0.415632       -11.3099
  63   2.0000      -0.340942        -9.2775
  64   2.0000      -0.323456        -8.8017
  65   2.0000      -0.318105        -8.6561
  66   2.0000      -0.299724        -8.1559
  67   0.0000       0.029301         0.7973
  68   0.0000       0.066650         1.8137
  69   0.0000       0.098336         2.6759
  70   0.0000       0.124048         3.3755
  71   0.0000       0.128468         3.4958

MULLIKEN ATOMIC CHARGES
-----------------------
   0 S :    0.111610
   1 C :   -0.080919
   2 C :   -0.159303
   3 C :    0.041784
   4 C :   -0.186358
   5 H :    0.018165
   6 C :    0.077866
   7 H :    0.005737
   8 H :    0.055766
   9 C :   -0.000659
  10 H :    0.017074
  11 H :    0.010412
  12 C :   -0.092424
  13 H :    0.032080
  14 H :    0.045226
  15 H :    0.035604
  16 S :    0.096883
  17 C :   -0.094158
  18 C :   -0.029358
  19 C :   -0.052751
  20 C :   -0.142179
  21 H :    0.019410
  22 C :    0.089911
  23 H :    0.023645
  24 H :    0.035141
  25 C :   -0.112722
  26 H :    0.055496
  27 H :    0.037412
  28 C :   -0.060534
  29 H :    0.050187
  30 H :    0.025030
  31 H :    0.032805
  32 H :    0.031991
  33 H :    0.062131
Sum of atomic charges:    0.0000000

LOEWDIN ATOMIC CHARGES
----------------------
   0 S :    0.422122
   1 C :   -0.205311
   2 C :   -0.065133
   3 C :   -0.060202
   4 C :   -0.200112
   5 H :    0.031989
   6 C :   -0.031112
   7 H :    0.024864
   8 H :    0.043183
   9 C :   -0.039470
  10 H :    0.024435
  11 H :    0.015832
  12 C :   -0.069215
  13 H :    0.020468
  14 H :    0.035667
  15 H :    0.028936
  16 S :    0.386925
  17 C :   -0.177131
  18 C :   -0.066120
  19 C :   -0.043197
  20 C :   -0.205702
  21 H :    0.025220
  22 C :   -0.031501
  23 H :    0.025430
  24 H :    0.036223
  25 C :   -0.046546
  26 H :    0.039079
  27 H :    0.029332
  28 C :   -0.084680
  29 H :    0.038754
  30 H :    0.024939
  31 H :    0.027019
  32 H :    0.018692
  33 H :    0.026322

  Mayer bond orders larger than 0.100000
B(  0-S ,  1-C ) :   1.1586 B(  0-S ,  4-C ) :   1.1593 B(  1-C ,  2-C ) :   1.5891
B(  1-C , 32-H ) :   0.9763 B(  2-C ,  3-C ) :   1.2620 B(  2-C ,  6-C ) :   1.0096
B(  3-C ,  4-C ) :   1.5601 B(  3-C ,  5-H ) :   0.9878 B(  4-C , 20-C ) :   1.0281
B(  6-C ,  7-H ) :   0.9439 B(  6-C ,  8-H ) :   0.9309 B(  6-C ,  9-C ) :   1.0515
B(  9-C , 10-H ) :   0.9599 B(  9-C , 11-H ) :   0.9482 B(  9-C , 12-C ) :   1.0910
B( 12-C , 13-H ) :   0.9780 B( 12-C , 14-H ) :   0.9733 B( 12-C , 15-H ) :   0.9750
B( 16-S , 17-C ) :   1.1385 B( 16-S , 20-C ) :   1.1327 B( 17-C , 18-C ) :   1.6315
B( 17-C , 33-H ) :   0.9737 B( 18-C , 19-C ) :   1.1775 B( 18-C , 21-H ) :   0.9909
B( 19-C , 20-C ) :   1.6358 B( 19-C , 22-C ) :   1.0463 B( 22-C , 23-H ) :   0.9352
B( 22-C , 24-H ) :   0.9367 B( 22-C , 25-C ) :   1.0547 B( 25-C , 26-H ) :   0.9528
B( 25-C , 27-H ) :   0.9510 B( 25-C , 28-C ) :   1.0876 B( 28-C , 29-H ) :   0.9712
B( 28-C , 30-H ) :   0.9708 B( 28-C , 31-H ) :   0.9709

Dispersion correction           -0.013688542
FINAL SINGLE POINT ENERGY     -1339.855892892115

DIPOLE MOMENT
-------------
                                X             Y             Z
Electronic contribution:    -14.93763      25.24500      -4.10812
Nuclear contribution   :     15.35726     -25.76590       3.95687
                        -----------------------------------------
Total Dipole Moment    :      0.41964      -0.52090      -0.15124
                        -----------------------------------------
Magnitude (a.u.)       :      0.68579
Magnitude (Debye)      :      1.74313

Rotational constants in cm-1:     0.018158     0.008062     0.005977
Rotational constants in MHz :   544.377398   241.683388   179.187988

                             ****ORCA TERMINATED NORMALLY****
TOTAL RUN TIME: 0 days 0 hours 0 minutes 32 seconds 734 msec
