                         Program Version 4.2.1 -  RELEASE  -
|  1> ! wB97X-D3 SP def2-SVP
|  2> %pal
|  3> nprocs 16
|  4> end
|  5>
|  6> * xyz 0 1
|  7> S 	 -5.57451 	 -9.50012 	 85.8243
|  8> C 	 -6.50704 	 -10.6693 	 84.861
|  9> C 	 -7.7451 	 -10.1769 	 84.4335
| 10> C 	 -7.91047 	 -8.81772 	 84.955
| 11> C 	 -6.9232 	 -8.34117 	 85.7737
| 12> H 	 -8.71305 	 -8.0802 	 84.7133
| 13> C 	 -8.72004 	 -10.962 	 83.686
| 14> H 	 -9.08611 	 -11.8428 	 84.2923
| 15> H 	 -8.19894 	 -11.5855 	 82.9618
| 16> C 	 -10.0118 	 -10.3333 	 83.1872
| 17> H 	 -10.5073 	 -9.87481 	 84.0769
| 18> H 	 -9.58395 	 -9.56459 	 82.5438
| 19> C 	 -10.8351 	 -11.3795 	 82.4554
| 20> H 	 -10.2037 	 -12.0017 	 81.8822
| 21> H 	 -11.338 	 -12.0188 	 83.1575
| 22> H 	 -11.7019 	 -10.9392 	 81.9058
| 23> S 	 -8.35489 	 -6.25526 	 86.8782
| 24> C 	 -7.6141 	 -4.88656 	 87.6269
| 25> C 	 -6.23131 	 -4.89246 	 87.4129
| 26> C 	 -5.81303 	 -6.1008 	 86.7262
| 27> C 	 -6.83195 	 -7.05896 	 86.4392
| 28> H 	 -5.67528 	 -4.02233 	 87.6368
| 29> C 	 -4.41453 	 -6.25817 	 86.288
| 30> H 	 -3.95703 	 -5.25325 	 86.1717
| 31> H 	 -4.32814 	 -6.8652 	 85.4099
| 32> C 	 -3.54554 	 -6.8865 	 87.3392
| 33> H 	 -3.87754 	 -7.88878 	 87.6301
| 34> H 	 -3.60608 	 -6.31008 	 88.2433
| 35> C 	 -2.12103 	 -6.80125 	 86.8849
| 36> H 	 -1.8084 	 -5.85869 	 86.3519
| 37> H 	 -1.87628 	 -7.53201 	 86.0981
| 38> H 	 -1.48109 	 -7.02969 	 87.7793
| 39> H 	 -6.14242 	 -11.5897 	 84.449
| 40> H 	 -8.24385 	 -4.20105 	 88.1984
| 41> *
| 42>
| 43>                          ****END OF INPUT****

CARTESIAN COORDINATES (ANGSTROEM)
---------------------------------
  S     -5.574510   -9.500120   85.824300
  C     -6.507040  -10.669300   84.861000
  C     -7.745100  -10.176900   84.433500
  C     -7.910470   -8.817720   84.955000
  C     -6.923200   -8.341170   85.773700
  H     -8.713050   -8.080200   84.713300
  C     -8.720040  -10.962000   83.686000
  H     -9.086110  -11.842800   84.292300
  H     -8.198940  -11.585500   82.961800
  C    -10.011800  -10.333300   83.187200
  H    -10.507300   -9.874810   84.076900
  H     -9.583950   -9.564590   82.543800
  C    -10.835100  -11.379500   82.455400
  H    -10.203700  -12.001700   81.882200
  H    -11.338000  -12.018800   83.157500
  H    -11.701900  -10.939200   81.905800
  S     -8.354890   -6.255260   86.878200
  C     -7.614100   -4.886560   87.626900
  C     -6.231310   -4.892460   87.412900
  C     -5.813030   -6.100800   86.726200
  C     -6.831950   -7.058960   86.439200
  H     -5.675280   -4.022330   87.636800
  C     -4.414530   -6.258170   86.288000
  H     -3.957030   -5.253250   86.171700
  H     -4.328140   -6.865200   85.409900
  C     -3.545540   -6.886500   87.339200
  H     -3.877540   -7.888780   87.630100
  H     -3.606080   -6.310080   88.243300
  C     -2.121030   -6.801250   86.884900
  H     -1.808400   -5.858690   86.351900
  H     -1.876280   -7.532010   86.098100
  H     -1.481090   -7.029690   87.779300
  H     -6.142420  -11.589700   84.449000
  H     -8.243850   -4.201050   88.198400

 Total Charge           Charge          ....    0
 Multiplicity           Mult            ....    1
 Number of Electrons    NEL             ....  134
 Basis Dimension        Dim             ....  322

ORBITAL ENERGIES
----------------

  NO   OCC          E(Eh)            E(eV)
   0   2.0000     -88.969672     -2420.9879
   1   2.0000     -88.962555     -2420.7942
   2   2.0000     -10.335306      -281.2380
   3   2.0000     -10.333368      -281.1852
   4   2.0000     -10.323382      -280.9135
   5   2.0000     -10.315746      -280.7057
   6   2.0000     -10.309088      -280.5245
   7   2.0000     -10.308593      -280.5111
   8   2.0000     -10.300100      -280.2800
   9   2.0000     -10.298957      -280.2489
  10   2.0000     -10.291758      -280.0530
  11   2.0000     -10.290747      -280.0255
  12   2.0000     -10.281229      -279.7665
  13   2.0000     -10.280374      -279.7432
  14   2.0000     -10.278598      -279.6949
  15   2.0000     -10.275429      -279.6086
  16   2.0000      -8.082816      -219.9446
  17   2.0000      -8.077406      -219.7974
  18   2.0000      -6.041565      -164.3993
  19   2.0000      -6.037571      -164.2907
  20   2.0000      -6.035893      -164.2450
  21   2.0000      -6.033413      -164.1775
  22   2.0000      -6.031755      -164.1324
  23   2.0000      -6.028339      -164.0394
  24   2.0000      -1.002341       -27.2751
  25   2.0000      -0.980046       -26.6684
  26   2.0000      -0.922316       -25.0975
  27   2.0000      -0.920484       -25.0476
  28   2.0000      -0.874416       -23.7941
  29   2.0000      -0.851231       -23.1632
  30   2.0000      -0.845366       -23.0036
  31   2.0000      -0.815573       -22.1929
  32   2.0000      -0.782046       -21.2805
  33   2.0000      -0.767262       -20.8783
  34   2.0000      -0.716393       -19.4941
  35   2.0000      -0.695880       -18.9358
  36   2.0000      -0.687674       -18.7126
  37   2.0000      -0.671897       -18.2833
  38   2.0000      -0.636807       -17.3284
  39   2.0000      -0.618330       -16.8256
  40   2.0000      -0.602149       -16.3853
  41   2.0000      -0.575707       -15.6658
  42   2.0000      -0.574155       -15.6235
  43   2.0000      -0.570187       -15.5156
  44   2.0000      -0.531492       -14.4626
  45   2.0000      -0.526381       -14.3236
  46   2.0000      -0.516906       -14.0657
  47   2.0000      -0.510434       -13.8896
  48   2.0000      -0.505753       -13.7622
  49   2.0000      -0.496740       -13.5170
  50   2.0000      -0.486139       -13.2285
  51   2.0000      -0.485798       -13.2192
  52   2.0000      -0.473978       -12.8976
  53   2.0000      -0.461811       -12.5665
  54   2.0000      -0.456858       -12.4317
  55   2.0000      -0.453954       -12.3527
  56   2.0000      -0.451265       -12.2795
  57   2.0000      -0.438609       -11.9351
  58   2.0000      -0.433154       -11.7867
  59   2.0000      -0.427599       -11.6356
  60   2.0000      -0.414571       -11.2811
  61   2.0000      -0.410815       -11.1789
  62   2.0000      -0.406891       -11.0721
  63   2.0000      -0.357764        -9.7352
  64   2.0000      -0.326435        -8.8827
  65   2.0000      -0.324434        -8.8283
  66   2.0000      -0.281509        -7.6602
  67   0.0000       0.018430         0.5015
  68   0.0000       0.071577         1.9477
  69   0.0000       0.095580         2.6009
  70   0.0000       0.115948         3.1551
  71   0.0000       0.134948         3.6721

MULLIKEN ATOMIC CHARGES
-----------------------
   0 S :    0.094573
   1 C :   -0.102176
   2 C :   -0.036541
   3 C :   -0.037034
   4 C :   -0.112930
   5 H :    0.034247
   6 C :   -0.025594
   7 H :    0.032538
   8 H :    0.014461
   9 C :   -0.069244
  10 H :    0.049803
  11 H :    0.036004
  12 C :   -0.005099
  13 H :    0.022047
  14 H :    0.022056
  15 H :    0.042897
  16 S :    0.078678
  17 C :   -0.099702
  18 C :   -0.004414
  19 C :   -0.047967
  20 C :   -0.120140
  21 H :    0.014876
  22 C :    0.035690
  23 H :    0.018953
  24 H :    0.024411
  25 C :   -0.051921
  26 H :    0.028775
  27 H :    0.013187
  28 C :   -0.063276
  29 H :    0.032971
  30 H :    0.026892
  31 H :    0.043453
  32 H :    0.037499
  33 H :    0.072028
Sum of atomic charges:   -0.0000000

LOEWDIN ATOMIC CHARGES
----------------------
   0 S :    0.389766
   1 C :   -0.186897
   2 C :   -0.053498
   3 C :   -0.078686
   4 C :   -0.180435
   5 H :    0.033950
   6 C :   -0.054197
   7 H :    0.040711
   8 H :    0.030254
   9 C :   -0.042129
  10 H :    0.033108
  11 H :    0.024829
  12 C :   -0.058344
  13 H :    0.020671
  14 H :    0.025655
  15 H :    0.035335
  16 S :    0.407908
  17 C :   -0.183577
  18 C :   -0.070826
  19 C :   -0.047481
  20 C :   -0.195644
  21 H :    0.028530
  22 C :   -0.039563
  23 H :    0.035799
  24 H :    0.021405
  25 C :   -0.042558
  26 H :    0.018465
  27 H :    0.019776
  28 C :   -0.074912
  29 H :    0.029390
  30 H :    0.024590
  31 H :    0.032050
  32 H :    0.023960
  33 H :    0.032595

  Mayer bond orders larger than 0.100000
B(  0-S ,  1-C ) :   1.1206 B(  0-S ,  4-C ) :   1.1160 B(  1-C ,  2-C ) :   1.6271
B(  1-C , 32-H ) :   0.9685 B(  2-C ,  3-C ) :   1.2121 B(  2-C ,  6-C ) :   1.0339
B(  3-C ,  4-C ) :   1.6070 B(  3-C ,  5-H ) :   0.9719 B(  4-C , 20-C ) :   1.0803
B(  6-C ,  7-H ) :   0.9297 B(  6-C ,  8-H ) :   0.9250 B(  6-C ,  9-C ) :   1.0622
B(  9-C , 10-H ) :   0.9464 B(  9-C , 11-H ) :   0.9566 B(  9-C , 12-C ) :   1.0821
B( 12-C , 13-H ) :   0.9734 B( 12-C , 14-H ) :   0.9699 B( 12-C , 15-H ) :   0.9712
B( 16-S , 17-C ) :   1.1909 B( 16-S , 20-C ) :   1.1280 B( 17-C , 18-C ) :   1.5502
B( 17-C , 33-H ) :   0.9674 B( 18-C , 19-C ) :   1.2623 B( 18-C , 21-H ) :   1.0010
B( 19-C , 20-C ) :   1.5203 B( 19-C , 22-C ) :   1.0700 B( 22-C , 23-H ) :   0.9262
B( 22-C , 24-H ) :   0.9345 B( 22-C , 25-C ) :   1.0762 B( 25-C , 26-H ) :   0.9432
B( 25-C , 27-H ) :   0.9531 B( 25-C , 28-C ) :   1.0839 B( 28-C , 29-H ) :   0.9695
B( 28-C , 30-H ) :   0.9703 B( 28-C , 31-H ) :   0.9731

Dispersion correction           -0.013644859
FINAL SINGLE POINT ENERGY     -1339.866326268872

DIPOLE MOMENT
-------------
                                X             Y             Z
Electronic contribution:     -2.63391       6.63604       9.08920
Nuclear contribution   :      2.54144      -6.63367      -9.36600
                        -----------------------------------------
Total Dipole Moment    :     -0.09247       0.00238      -0.27680
                        -----------------------------------------
Magnitude (a.u.)       :      0.29185
Magnitude (Debye)      :      0.74183

Rotational constants in cm-1:     0.022067     0.007741     0.005940
Rotational constants in MHz :   661.543139   232.078000   178.078907

                             ****ORCA TERMINATED NORMALLY****
TOTAL RUN TIME: 0 days 0 hours 0 minutes 32 seconds 875 msec
