                         Program Version 4.2.1 -  RELEASE  -
|  1> ! wB97X-D3 SP def2-SVP
|  2> %pal
|  3> nprocs 16
|  4> end
|  5>
|  6> * xyz 0 1
|  7> S 	 3.72302 	 -3.26261 	 79.1955
|  8> C 	 3.97476 	 -2.03209 	 80.4102
|  9> C 	 4.40368 	 -2.65456 	 81.6061
| 10> C 	 4.36739 	 -4.06368 	 81.4997
| 11> C 	 4.12224 	 -4.58313 	 80.2565
| 12> H 	 4.50065 	 -4.69158 	 82.367
| 13> C 	 4.85904 	 -1.87416 	 82.8035
| 14> H 	 5.31578 	 -0.967183 	 82.4515
| 15> H 	 5.67718 	 -2.48375 	 83.3469
| 16> C 	 3.67844 	 -1.58596 	 83.8235
| 17> H 	 4.14806 	 -0.971293 	 84.5648
| 18> H 	 2.85318 	 -1.05441 	 83.3484
| 19> C 	 3.05741 	 -2.85798 	 84.3777
| 20> H 	 2.47246 	 -2.70171 	 85.2989
| 21> H 	 2.31717 	 -3.42318 	 83.7422
| 22> H 	 3.79115 	 -3.66316 	 84.6591
| 23> S 	 4.62469 	 -6.3844 	 78.2516
| 24> C 	 4.38466 	 -8.11559 	 78.3609
| 25> C 	 3.78254 	 -8.39347 	 79.5959
| 26> C 	 3.6572 	 -7.2044 	 80.4992
| 27> C 	 4.02745 	 -6.03208 	 79.838
| 28> H 	 3.57574 	 -9.42222 	 79.8952
| 29> C 	 3.24743 	 -7.34838 	 81.9442
| 30> H 	 2.23179 	 -7.85873 	 81.9141
| 31> H 	 3.1346 	 -6.37669 	 82.4197
| 32> C 	 4.23168 	 -8.15759 	 82.8197
| 33> H 	 5.28222 	 -8.01637 	 82.4766
| 34> H 	 4.05927 	 -9.20398 	 82.5502
| 35> C 	 3.82702 	 -8.11939 	 84.2877
| 36> H 	 3.89571 	 -7.19746 	 84.9039
| 37> H 	 4.4923 	 -8.7136 	 84.8284
| 38> H 	 2.81949 	 -8.49614 	 84.4243
| 39> H 	 3.95992 	 -0.990216 	 80.1921
| 40> H 	 4.42328 	 -8.78731 	 77.5576
| 41> *
| 42>
| 43>                          ****END OF INPUT****

CARTESIAN COORDINATES (ANGSTROEM)
---------------------------------
  S      3.723020   -3.262610   79.195500
  C      3.974760   -2.032090   80.410200
  C      4.403680   -2.654560   81.606100
  C      4.367390   -4.063680   81.499700
  C      4.122240   -4.583130   80.256500
  H      4.500650   -4.691580   82.367000
  C      4.859040   -1.874160   82.803500
  H      5.315780   -0.967183   82.451500
  H      5.677180   -2.483750   83.346900
  C      3.678440   -1.585960   83.823500
  H      4.148060   -0.971293   84.564800
  H      2.853180   -1.054410   83.348400
  C      3.057410   -2.857980   84.377700
  H      2.472460   -2.701710   85.298900
  H      2.317170   -3.423180   83.742200
  H      3.791150   -3.663160   84.659100
  S      4.624690   -6.384400   78.251600
  C      4.384660   -8.115590   78.360900
  C      3.782540   -8.393470   79.595900
  C      3.657200   -7.204400   80.499200
  C      4.027450   -6.032080   79.838000
  H      3.575740   -9.422220   79.895200
  C      3.247430   -7.348380   81.944200
  H      2.231790   -7.858730   81.914100
  H      3.134600   -6.376690   82.419700
  C      4.231680   -8.157590   82.819700
  H      5.282220   -8.016370   82.476600
  H      4.059270   -9.203980   82.550200
  C      3.827020   -8.119390   84.287700
  H      3.895710   -7.197460   84.903900
  H      4.492300   -8.713600   84.828400
  H      2.819490   -8.496140   84.424300
  H      3.959920   -0.990216   80.192100
  H      4.423280   -8.787310   77.557600

 Total Charge           Charge          ....    0
 Multiplicity           Mult            ....    1
 Number of Electrons    NEL             ....  134
 Basis Dimension        Dim             ....  322

ORBITAL ENERGIES
----------------

  NO   OCC          E(Eh)            E(eV)
   0   2.0000     -88.965342     -2420.8700
   1   2.0000     -88.962524     -2420.7933
   2   2.0000     -10.334084      -281.2047
   3   2.0000     -10.333401      -281.1861
   4   2.0000     -10.318773      -280.7881
   5   2.0000     -10.315189      -280.6906
   6   2.0000     -10.310947      -280.5751
   7   2.0000     -10.304147      -280.3901
   8   2.0000     -10.301341      -280.3137
   9   2.0000     -10.299929      -280.2753
  10   2.0000     -10.295827      -280.1637
  11   2.0000     -10.292683      -280.0781
  12   2.0000     -10.292007      -280.0598
  13   2.0000     -10.290377      -280.0154
  14   2.0000     -10.285889      -279.8933
  15   2.0000     -10.278634      -279.6959
  16   2.0000      -8.080109      -219.8709
  17   2.0000      -8.077645      -219.8039
  18   2.0000      -6.038712      -164.3217
  19   2.0000      -6.036262      -164.2551
  20   2.0000      -6.034388      -164.2040
  21   2.0000      -6.031941      -164.1374
  22   2.0000      -6.030976      -164.1112
  23   2.0000      -6.028411      -164.0414
  24   2.0000      -1.004654       -27.3380
  25   2.0000      -0.982487       -26.7348
  26   2.0000      -0.910735       -24.7824
  27   2.0000      -0.908376       -24.7182
  28   2.0000      -0.864480       -23.5237
  29   2.0000      -0.850601       -23.1460
  30   2.0000      -0.842111       -22.9150
  31   2.0000      -0.818523       -22.2731
  32   2.0000      -0.780205       -21.2304
  33   2.0000      -0.771442       -20.9920
  34   2.0000      -0.706401       -19.2222
  35   2.0000      -0.702638       -19.1198
  36   2.0000      -0.695170       -18.9165
  37   2.0000      -0.660246       -17.9662
  38   2.0000      -0.641669       -17.4607
  39   2.0000      -0.622723       -16.9452
  40   2.0000      -0.595561       -16.2060
  41   2.0000      -0.572985       -15.5917
  42   2.0000      -0.564892       -15.3715
  43   2.0000      -0.546644       -14.8749
  44   2.0000      -0.537228       -14.6187
  45   2.0000      -0.524008       -14.2590
  46   2.0000      -0.518771       -14.1165
  47   2.0000      -0.514598       -14.0029
  48   2.0000      -0.510936       -13.9033
  49   2.0000      -0.493516       -13.4293
  50   2.0000      -0.492433       -13.3998
  51   2.0000      -0.480929       -13.0867
  52   2.0000      -0.473934       -12.8964
  53   2.0000      -0.464534       -12.6406
  54   2.0000      -0.458157       -12.4671
  55   2.0000      -0.449298       -12.2260
  56   2.0000      -0.443548       -12.0696
  57   2.0000      -0.438017       -11.9190
  58   2.0000      -0.432290       -11.7632
  59   2.0000      -0.427565       -11.6346
  60   2.0000      -0.419650       -11.4193
  61   2.0000      -0.413360       -11.2481
  62   2.0000      -0.407292       -11.0830
  63   2.0000      -0.352789        -9.5999
  64   2.0000      -0.328953        -8.9513
  65   2.0000      -0.322629        -8.7792
  66   2.0000      -0.292090        -7.9482
  67   0.0000       0.029134         0.7928
  68   0.0000       0.075286         2.0486
  69   0.0000       0.111679         3.0390
  70   0.0000       0.120656         3.2832
  71   0.0000       0.121609         3.3091

MULLIKEN ATOMIC CHARGES
-----------------------
   0 S :    0.107081
   1 C :   -0.118639
   2 C :   -0.089705
   3 C :    0.008895
   4 C :   -0.099682
   5 H :   -0.000987
   6 C :    0.021810
   7 H :    0.024558
   8 H :    0.046267
   9 C :   -0.016001
  10 H :    0.033905
  11 H :    0.036012
  12 C :   -0.113028
  13 H :    0.036210
  14 H :    0.050245
  15 H :    0.027774
  16 S :    0.088180
  17 C :   -0.068617
  18 C :   -0.044823
  19 C :   -0.072479
  20 C :   -0.121439
  21 H :    0.028244
  22 C :    0.036708
  23 H :    0.043052
  24 H :    0.018070
  25 C :   -0.085090
  26 H :    0.049474
  27 H :    0.022555
  28 C :   -0.022011
  29 H :    0.029608
  30 H :    0.016304
  31 H :    0.030510
  32 H :    0.045875
  33 H :    0.051163
Sum of atomic charges:    0.0000000

LOEWDIN ATOMIC CHARGES
----------------------
   0 S :    0.415278
   1 C :   -0.196255
   2 C :   -0.062704
   3 C :   -0.070747
   4 C :   -0.195708
   5 H :    0.026142
   6 C :   -0.032369
   7 H :    0.027232
   8 H :    0.040005
   9 C :   -0.033076
  10 H :    0.022982
  11 H :    0.029129
  12 C :   -0.083864
  13 H :    0.028998
  14 H :    0.033235
  15 H :    0.023102
  16 S :    0.409306
  17 C :   -0.182148
  18 C :   -0.067046
  19 C :   -0.060276
  20 C :   -0.197878
  21 H :    0.029783
  22 C :   -0.038878
  23 H :    0.041004
  24 H :    0.024312
  25 C :   -0.044927
  26 H :    0.032431
  27 H :    0.026446
  28 C :   -0.066180
  29 H :    0.026787
  30 H :    0.020735
  31 H :    0.029166
  32 H :    0.023327
  33 H :    0.022656

  Mayer bond orders larger than 0.100000
B(  0-S ,  1-C ) :   1.1548 B(  0-S ,  4-C ) :   1.1654 B(  1-C ,  2-C ) :   1.5588
B(  1-C ,  4-C ) :   0.1086 B(  1-C , 32-H ) :   0.9760 B(  2-C ,  3-C ) :   1.2832
B(  2-C ,  6-C ) :   1.0212 B(  3-C ,  4-C ) :   1.5520 B(  3-C ,  5-H ) :   0.9945
B(  4-C , 20-C ) :   1.0018 B(  6-C ,  7-H ) :   0.9416 B(  6-C ,  8-H ) :   0.9482
B(  6-C ,  9-C ) :   1.0659 B(  9-C , 10-H ) :   0.9587 B(  9-C , 11-H ) :   0.9548
B(  9-C , 12-C ) :   1.0702 B( 12-C , 13-H ) :   0.9716 B( 12-C , 14-H ) :   0.9717
B( 12-C , 15-H ) :   0.9746 B( 16-S , 17-C ) :   1.1486 B( 16-S , 20-C ) :   1.1482
B( 17-C , 18-C ) :   1.6163 B( 17-C , 33-H ) :   0.9744 B( 18-C , 19-C ) :   1.2169
B( 18-C , 21-H ) :   0.9849 B( 19-C , 20-C ) :   1.6076 B( 19-C , 22-C ) :   1.0553
B( 22-C , 23-H ) :   0.9269 B( 22-C , 24-H ) :   0.9455 B( 22-C , 25-C ) :   1.0531
B( 25-C , 26-H ) :   0.9616 B( 25-C , 27-H ) :   0.9458 B( 25-C , 28-C ) :   1.0774
B( 28-C , 29-H ) :   0.9743 B( 28-C , 30-H ) :   0.9706 B( 28-C , 31-H ) :   0.9700

Dispersion correction           -0.014610909
FINAL SINGLE POINT ENERGY     -1339.877742968989

DIPOLE MOMENT
-------------
                                X             Y             Z
Electronic contribution:      3.06705       2.54456     -31.29109
Nuclear contribution   :     -3.10813      -2.69974      32.05760
                        -----------------------------------------
Total Dipole Moment    :     -0.04108      -0.15518       0.76651
                        -----------------------------------------
Magnitude (a.u.)       :      0.78314
Magnitude (Debye)      :      1.99058

Rotational constants in cm-1:     0.016821     0.010118     0.006621
Rotational constants in MHz :   504.292217   303.335292   198.481971

                             ****ORCA TERMINATED NORMALLY****
TOTAL RUN TIME: 0 days 0 hours 0 minutes 35 seconds 557 msec
