                         Program Version 4.2.1 -  RELEASE  -
|  1> ! wB97X-D3 SP def2-SVP
|  2> %pal
|  3> nprocs 16
|  4> end
|  5>
|  6> * xyz 0 1
|  7> S 	 -48.7766 	 50.3778 	 97.9521
|  8> C 	 -47.5212 	 50.721 	 99.0772
|  9> C 	 -47.3356 	 52.0583 	 99.308
| 10> C 	 -48.2967 	 52.8402 	 98.5896
| 11> C 	 -49.1155 	 52.0782 	 97.8097
| 12> H 	 -48.3396 	 53.969 	 98.543
| 13> C 	 -46.3895 	 52.7846 	 100.224
| 14> H 	 -46.2482 	 53.8162 	 99.7659
| 15> H 	 -45.4257 	 52.2371 	 100.181
| 16> C 	 -46.8469 	 53.1015 	 101.638
| 17> H 	 -45.9542 	 53.6234 	 102.088
| 18> H 	 -47.7151 	 53.7101 	 101.491
| 19> C 	 -47.2115 	 51.8687 	 102.449
| 20> H 	 -48.039 	 51.3129 	 102.035
| 21> H 	 -46.2916 	 51.2061 	 102.457
| 22> H 	 -47.3522 	 52.2286 	 103.405
| 23> S 	 -51.9061 	 52.2624 	 97.8876
| 24> C 	 -52.732 	 53.2442 	 96.6864
| 25> C 	 -51.8183 	 53.9178 	 95.9051
| 26> C 	 -50.465 	 53.6557 	 96.2105
| 27> C 	 -50.3042 	 52.6181 	 97.1249
| 28> H 	 -52.1475 	 54.6155 	 95.0903
| 29> C 	 -49.3459 	 54.3048 	 95.4193
| 30> H 	 -49.6985 	 54.1881 	 94.3852
| 31> H 	 -48.3867 	 53.8797 	 95.7542
| 32> C 	 -49.2368 	 55.8251 	 95.5239
| 33> H 	 -48.7609 	 56.1226 	 96.4595
| 34> H 	 -50.2167 	 56.1904 	 95.5737
| 35> C 	 -48.4272 	 56.3641 	 94.2944
| 36> H 	 -47.4714 	 55.9099 	 94.2175
| 37> H 	 -48.3687 	 57.4932 	 94.5113
| 38> H 	 -48.9993 	 56.2263 	 93.4019
| 39> H 	 -46.9282 	 50.0043 	 99.6688
| 40> H 	 -53.8081 	 53.2805 	 96.4152
| 41> *
| 42>
| 43>                          ****END OF INPUT****

CARTESIAN COORDINATES (ANGSTROEM)
---------------------------------
  S    -48.776600   50.377800   97.952100
  C    -47.521200   50.721000   99.077200
  C    -47.335600   52.058300   99.308000
  C    -48.296700   52.840200   98.589600
  C    -49.115500   52.078200   97.809700
  H    -48.339600   53.969000   98.543000
  C    -46.389500   52.784600  100.224000
  H    -46.248200   53.816200   99.765900
  H    -45.425700   52.237100  100.181000
  C    -46.846900   53.101500  101.638000
  H    -45.954200   53.623400  102.088000
  H    -47.715100   53.710100  101.491000
  C    -47.211500   51.868700  102.449000
  H    -48.039000   51.312900  102.035000
  H    -46.291600   51.206100  102.457000
  H    -47.352200   52.228600  103.405000
  S    -51.906100   52.262400   97.887600
  C    -52.732000   53.244200   96.686400
  C    -51.818300   53.917800   95.905100
  C    -50.465000   53.655700   96.210500
  C    -50.304200   52.618100   97.124900
  H    -52.147500   54.615500   95.090300
  C    -49.345900   54.304800   95.419300
  H    -49.698500   54.188100   94.385200
  H    -48.386700   53.879700   95.754200
  C    -49.236800   55.825100   95.523900
  H    -48.760900   56.122600   96.459500
  H    -50.216700   56.190400   95.573700
  C    -48.427200   56.364100   94.294400
  H    -47.471400   55.909900   94.217500
  H    -48.368700   57.493200   94.511300
  H    -48.999300   56.226300   93.401900
  H    -46.928200   50.004300   99.668800
  H    -53.808100   53.280500   96.415200

 Total Charge           Charge          ....    0
 Multiplicity           Mult            ....    1
 Number of Electrons    NEL             ....  134
 Basis Dimension        Dim             ....  322

ORBITAL ENERGIES
----------------

  NO   OCC          E(Eh)            E(eV)
   0   2.0000     -88.970675     -2421.0151
   1   2.0000     -88.962468     -2420.7918
   2   2.0000     -10.328246      -281.0459
   3   2.0000     -10.325969      -280.9839
   4   2.0000     -10.319505      -280.8080
   5   2.0000     -10.314156      -280.6625
   6   2.0000     -10.300551      -280.2922
   7   2.0000     -10.296915      -280.1933
   8   2.0000     -10.295867      -280.1648
   9   2.0000     -10.293848      -280.1099
  10   2.0000     -10.293624      -280.1038
  11   2.0000     -10.289879      -280.0018
  12   2.0000     -10.287041      -279.9246
  13   2.0000     -10.283197      -279.8200
  14   2.0000     -10.282588      -279.8034
  15   2.0000     -10.272515      -279.5293
  16   2.0000      -8.085927      -220.0292
  17   2.0000      -8.076224      -219.7652
  18   2.0000      -6.044344      -164.4750
  19   2.0000      -6.040443      -164.3688
  20   2.0000      -6.036654      -164.2657
  21   2.0000      -6.034896      -164.2179
  22   2.0000      -6.030944      -164.1103
  23   2.0000      -6.026784      -163.9971
  24   2.0000      -1.008726       -27.4488
  25   2.0000      -0.983618       -26.7656
  26   2.0000      -0.917010       -24.9531
  27   2.0000      -0.910777       -24.7835
  28   2.0000      -0.867919       -23.6173
  29   2.0000      -0.853988       -23.2382
  30   2.0000      -0.845823       -23.0160
  31   2.0000      -0.809373       -22.0242
  32   2.0000      -0.784292       -21.3417
  33   2.0000      -0.771553       -20.9950
  34   2.0000      -0.705289       -19.1919
  35   2.0000      -0.695332       -18.9210
  36   2.0000      -0.693095       -18.8601
  37   2.0000      -0.657186       -17.8829
  38   2.0000      -0.636306       -17.3148
  39   2.0000      -0.616582       -16.7780
  40   2.0000      -0.592570       -16.1246
  41   2.0000      -0.571771       -15.5587
  42   2.0000      -0.570468       -15.5232
  43   2.0000      -0.551519       -15.0076
  44   2.0000      -0.544223       -14.8091
  45   2.0000      -0.523182       -14.2365
  46   2.0000      -0.517681       -14.0868
  47   2.0000      -0.510850       -13.9009
  48   2.0000      -0.503718       -13.7069
  49   2.0000      -0.496614       -13.5135
  50   2.0000      -0.490711       -13.3529
  51   2.0000      -0.479659       -13.0522
  52   2.0000      -0.471121       -12.8199
  53   2.0000      -0.467314       -12.7163
  54   2.0000      -0.459953       -12.5160
  55   2.0000      -0.449887       -12.2421
  56   2.0000      -0.441795       -12.0219
  57   2.0000      -0.433917       -11.8075
  58   2.0000      -0.431664       -11.7462
  59   2.0000      -0.427819       -11.6416
  60   2.0000      -0.422699       -11.5022
  61   2.0000      -0.418480       -11.3874
  62   2.0000      -0.409338       -11.1387
  63   2.0000      -0.342774        -9.3274
  64   2.0000      -0.327184        -8.9031
  65   2.0000      -0.325774        -8.8647
  66   2.0000      -0.300968        -8.1898
  67   0.0000       0.033305         0.9063
  68   0.0000       0.065703         1.7879
  69   0.0000       0.108193         2.9441
  70   0.0000       0.117978         3.2104
  71   0.0000       0.124054         3.3757

MULLIKEN ATOMIC CHARGES
-----------------------
   0 S :    0.135415
   1 C :   -0.121128
   2 C :   -0.096053
   3 C :    0.009759
   4 C :   -0.183322
   5 H :    0.037860
   6 C :    0.021223
   7 H :    0.029641
   8 H :    0.029149
   9 C :   -0.061174
  10 H :    0.044759
  11 H :    0.023457
  12 C :   -0.028418
  13 H :    0.049844
  14 H :    0.022376
  15 H :    0.023597
  16 S :    0.091712
  17 C :   -0.093355
  18 C :   -0.065150
  19 C :   -0.018744
  20 C :   -0.151482
  21 H :    0.034838
  22 C :    0.061244
  23 H :    0.026550
  24 H :    0.035517
  25 C :   -0.073022
  26 H :    0.021985
  27 H :    0.010011
  28 C :   -0.052083
  29 H :    0.038496
  30 H :    0.046424
  31 H :    0.032028
  32 H :    0.048386
  33 H :    0.069661
Sum of atomic charges:   -0.0000000

LOEWDIN ATOMIC CHARGES
----------------------
   0 S :    0.428591
   1 C :   -0.209651
   2 C :   -0.073010
   3 C :   -0.060797
   4 C :   -0.210147
   5 H :    0.042256
   6 C :   -0.041467
   7 H :    0.037518
   8 H :    0.028413
   9 C :   -0.038047
  10 H :    0.034764
  11 H :    0.020952
  12 C :   -0.059952
  13 H :    0.027020
  14 H :    0.028550
  15 H :    0.016812
  16 S :    0.374853
  17 C :   -0.189149
  18 C :   -0.084581
  19 C :   -0.059494
  20 C :   -0.182835
  21 H :    0.037524
  22 C :   -0.030933
  23 H :    0.036474
  24 H :    0.032498
  25 C :   -0.035573
  26 H :    0.019418
  27 H :    0.012559
  28 C :   -0.058038
  29 H :    0.021649
  30 H :    0.037866
  31 H :    0.020134
  32 H :    0.034224
  33 H :    0.041597

  Mayer bond orders larger than 0.100000
B(  0-S ,  1-C ) :   1.1395 B(  0-S ,  4-C ) :   1.1538 B(  1-C ,  2-C ) :   1.6275
B(  1-C , 32-H ) :   0.9595 B(  2-C ,  3-C ) :   1.2365 B(  2-C ,  6-C ) :   1.0221
B(  3-C ,  4-C ) :   1.5915 B(  3-C ,  5-H ) :   0.9812 B(  4-C , 20-C ) :   1.0097
B(  6-C ,  7-H ) :   0.9396 B(  6-C ,  8-H ) :   0.9374 B(  6-C ,  9-C ) :   1.0751
B(  9-C , 10-H ) :   0.9529 B(  9-C , 11-H ) :   0.9495 B(  9-C , 12-C ) :   1.0845
B( 12-C , 13-H ) :   0.9718 B( 12-C , 14-H ) :   0.9741 B( 12-C , 15-H ) :   0.9724
B( 16-S , 17-C ) :   1.1469 B( 16-S , 20-C ) :   1.1230 B( 17-C , 18-C ) :   1.6307
B( 17-C , 20-C ) :   0.1021 B( 17-C , 33-H ) :   0.9583 B( 18-C , 19-C ) :   1.2311
B( 18-C , 21-H ) :   0.9751 B( 19-C , 20-C ) :   1.6098 B( 19-C , 22-C ) :   1.0455
B( 22-C , 23-H ) :   0.9397 B( 22-C , 24-H ) :   0.9339 B( 22-C , 25-C ) :   1.0623
B( 25-C , 26-H ) :   0.9516 B( 25-C , 27-H ) :   0.9574 B( 25-C , 28-C ) :   1.0765
B( 28-C , 29-H ) :   0.9762 B( 28-C , 30-H ) :   0.9756 B( 28-C , 31-H ) :   0.9768

Dispersion correction           -0.014207435
FINAL SINGLE POINT ENERGY     -1339.870043909909

DIPOLE MOMENT
-------------
                                X             Y             Z
Electronic contribution:    -15.09469     -17.98446      -2.98278
Nuclear contribution   :     15.40119      18.54510       3.01101
                        -----------------------------------------
Total Dipole Moment    :      0.30650       0.56064       0.02823
                        -----------------------------------------
Magnitude (a.u.)       :      0.63958
Magnitude (Debye)      :      1.62568

Rotational constants in cm-1:     0.018054     0.008355     0.006862
Rotational constants in MHz :   541.233883   250.466695   205.721153

                             ****ORCA TERMINATED NORMALLY****
TOTAL RUN TIME: 0 days 0 hours 0 minutes 30 seconds 605 msec
