                         Program Version 4.2.1 -  RELEASE  -
|  1> ! wB97X-D3 SP def2-SVP
|  2> %pal
|  3> nprocs 16
|  4> end
|  5>
|  6> * xyz 0 1
|  7> S 	 -2.08415 	 -20.0878 	 84.3213
|  8> C 	 -0.381227 	 -19.9699 	 84.0263
|  9> C 	 0.26638 	 -19.4262 	 85.0928
| 10> C 	 -0.602277 	 -19.0499 	 86.0907
| 11> C 	 -1.93913 	 -19.0397 	 85.7586
| 12> H 	 -0.367673 	 -18.7238 	 87.0742
| 13> C 	 1.79033 	 -19.3144 	 85.1918
| 14> H 	 2.17552 	 -20.245 	 84.6914
| 15> H 	 1.99183 	 -19.3417 	 86.2604
| 16> C 	 2.39242 	 -18.0354 	 84.6896
| 17> H 	 1.93683 	 -17.7937 	 83.788
| 18> H 	 2.1957 	 -17.2278 	 85.3358
| 19> C 	 3.92354 	 -18.137 	 84.4654
| 20> H 	 4.31408 	 -18.2442 	 85.4999
| 21> H 	 4.07343 	 -19.0314 	 83.8593
| 22> H 	 4.36963 	 -17.2809 	 83.9821
| 23> S 	 -4.02258 	 -20.088 	 87.247
| 24> C 	 -4.86866 	 -18.9373 	 88.295
| 25> C 	 -4.61662 	 -17.6439 	 87.8714
| 26> C 	 -3.52648 	 -17.513 	 87.0116
| 27> C 	 -2.99441 	 -18.785 	 86.7355
| 28> H 	 -5.22321 	 -16.8763 	 88.2665
| 29> C 	 -3.0698 	 -16.1546 	 86.4734
| 30> H 	 -2.09092 	 -15.9907 	 86.9864
| 31> H 	 -3.64226 	 -15.4243 	 86.9899
| 32> C 	 -3.10859 	 -16.0011 	 84.8443
| 33> H 	 -4.20095 	 -16.0781 	 84.618
| 34> H 	 -2.62529 	 -16.7886 	 84.257
| 35> C 	 -2.61628 	 -14.6386 	 84.4636
| 36> H 	 -3.22917 	 -14.1457 	 83.7191
| 37> H 	 -1.61683 	 -14.4831 	 84.1513
| 38> H 	 -2.81828 	 -14.0386 	 85.3199
| 39> H 	 0.13964 	 -20.3876 	 83.1536
| 40> H 	 -5.64527 	 -19.1705 	 88.9642
| 41> *
| 42>
| 43>                          ****END OF INPUT****

CARTESIAN COORDINATES (ANGSTROEM)
---------------------------------
  S     -2.084150  -20.087800   84.321300
  C     -0.381227  -19.969900   84.026300
  C      0.266380  -19.426200   85.092800
  C     -0.602277  -19.049900   86.090700
  C     -1.939130  -19.039700   85.758600
  H     -0.367673  -18.723800   87.074200
  C      1.790330  -19.314400   85.191800
  H      2.175520  -20.245000   84.691400
  H      1.991830  -19.341700   86.260400
  C      2.392420  -18.035400   84.689600
  H      1.936830  -17.793700   83.788000
  H      2.195700  -17.227800   85.335800
  C      3.923540  -18.137000   84.465400
  H      4.314080  -18.244200   85.499900
  H      4.073430  -19.031400   83.859300
  H      4.369630  -17.280900   83.982100
  S     -4.022580  -20.088000   87.247000
  C     -4.868660  -18.937300   88.295000
  C     -4.616620  -17.643900   87.871400
  C     -3.526480  -17.513000   87.011600
  C     -2.994410  -18.785000   86.735500
  H     -5.223210  -16.876300   88.266500
  C     -3.069800  -16.154600   86.473400
  H     -2.090920  -15.990700   86.986400
  H     -3.642260  -15.424300   86.989900
  C     -3.108590  -16.001100   84.844300
  H     -4.200950  -16.078100   84.618000
  H     -2.625290  -16.788600   84.257000
  C     -2.616280  -14.638600   84.463600
  H     -3.229170  -14.145700   83.719100
  H     -1.616830  -14.483100   84.151300
  H     -2.818280  -14.038600   85.319900
  H      0.139640  -20.387600   83.153600
  H     -5.645270  -19.170500   88.964200

 Total Charge           Charge          ....    0
 Multiplicity           Mult            ....    1
 Number of Electrons    NEL             ....  134
 Basis Dimension        Dim             ....  322

ORBITAL ENERGIES
----------------

  NO   OCC          E(Eh)            E(eV)
   0   2.0000     -88.967613     -2420.9318
   1   2.0000     -88.964258     -2420.8405
   2   2.0000     -10.323243      -280.9097
   3   2.0000     -10.321700      -280.8677
   4   2.0000     -10.312313      -280.6123
   5   2.0000     -10.310517      -280.5634
   6   2.0000     -10.300515      -280.2913
   7   2.0000     -10.298285      -280.2306
   8   2.0000     -10.292644      -280.0771
   9   2.0000     -10.292081      -280.0618
  10   2.0000     -10.290881      -280.0291
  11   2.0000     -10.286455      -279.9087
  12   2.0000     -10.283380      -279.8250
  13   2.0000     -10.279539      -279.7205
  14   2.0000     -10.273205      -279.5481
  15   2.0000     -10.264903      -279.3222
  16   2.0000      -8.082068      -219.9242
  17   2.0000      -8.078600      -219.8299
  18   2.0000      -6.040408      -164.3679
  19   2.0000      -6.037071      -164.2771
  20   2.0000      -6.036925      -164.2731
  21   2.0000      -6.033293      -164.1742
  22   2.0000      -6.032716      -164.1585
  23   2.0000      -6.029286      -164.0652
  24   2.0000      -1.008872       -27.4528
  25   2.0000      -0.987852       -26.8808
  26   2.0000      -0.914203       -24.8767
  27   2.0000      -0.899563       -24.4784
  28   2.0000      -0.869977       -23.6733
  29   2.0000      -0.855708       -23.2850
  30   2.0000      -0.848744       -23.0955
  31   2.0000      -0.813971       -22.1493
  32   2.0000      -0.779726       -21.2174
  33   2.0000      -0.767688       -20.8899
  34   2.0000      -0.710008       -19.3203
  35   2.0000      -0.700507       -19.0618
  36   2.0000      -0.696007       -18.9393
  37   2.0000      -0.660646       -17.9771
  38   2.0000      -0.642263       -17.4769
  39   2.0000      -0.616746       -16.7825
  40   2.0000      -0.591749       -16.1023
  41   2.0000      -0.578229       -15.7344
  42   2.0000      -0.560866       -15.2619
  43   2.0000      -0.556116       -15.1327
  44   2.0000      -0.525610       -14.3026
  45   2.0000      -0.522310       -14.2128
  46   2.0000      -0.515647       -14.0315
  47   2.0000      -0.511895       -13.9294
  48   2.0000      -0.509648       -13.8682
  49   2.0000      -0.495311       -13.4781
  50   2.0000      -0.491447       -13.3730
  51   2.0000      -0.482605       -13.1324
  52   2.0000      -0.471868       -12.8402
  53   2.0000      -0.462854       -12.5949
  54   2.0000      -0.460227       -12.5234
  55   2.0000      -0.444855       -12.1051
  56   2.0000      -0.444287       -12.0897
  57   2.0000      -0.438207       -11.9242
  58   2.0000      -0.432577       -11.7710
  59   2.0000      -0.426943       -11.6177
  60   2.0000      -0.422941       -11.5088
  61   2.0000      -0.412530       -11.2255
  62   2.0000      -0.410980       -11.1833
  63   2.0000      -0.340875        -9.2757
  64   2.0000      -0.330417        -8.9911
  65   2.0000      -0.325230        -8.8500
  66   2.0000      -0.291152        -7.9227
  67   0.0000       0.029649         0.8068
  68   0.0000       0.052546         1.4299
  69   0.0000       0.104914         2.8549
  70   0.0000       0.120549         3.2803
  71   0.0000       0.139129         3.7859

MULLIKEN ATOMIC CHARGES
-----------------------
   0 S :    0.096392
   1 C :   -0.134390
   2 C :   -0.059147
   3 C :    0.020828
   4 C :   -0.155116
   5 H :    0.000870
   6 C :    0.057206
   7 H :    0.030994
   8 H :    0.016694
   9 C :   -0.016895
  10 H :    0.002653
  11 H :    0.014474
  12 C :   -0.049744
  13 H :    0.034072
  14 H :    0.030391
  15 H :    0.039799
  16 S :    0.117132
  17 C :   -0.077335
  18 C :   -0.026119
  19 C :   -0.051635
  20 C :   -0.182048
  21 H :    0.000090
  22 C :    0.096506
  23 H :    0.036607
  24 H :    0.000197
  25 C :   -0.082612
  26 H :    0.038321
  27 H :    0.057314
  28 C :    0.000243
  29 H :    0.017598
  30 H :    0.033654
  31 H :    0.005095
  32 H :    0.051898
  33 H :    0.036014
Sum of atomic charges:   -0.0000000

LOEWDIN ATOMIC CHARGES
----------------------
   0 S :    0.391185
   1 C :   -0.198865
   2 C :   -0.074270
   3 C :   -0.054037
   4 C :   -0.186565
   5 H :    0.026033
   6 C :   -0.025878
   7 H :    0.034038
   8 H :    0.029544
   9 C :   -0.035850
  10 H :    0.011339
  11 H :    0.018854
  12 C :   -0.059027
  13 H :    0.028943
  14 H :    0.023674
  15 H :    0.024300
  16 S :    0.407965
  17 C :   -0.173062
  18 C :   -0.064856
  19 C :   -0.055142
  20 C :   -0.207215
  21 H :    0.024013
  22 C :   -0.032263
  23 H :    0.039105
  24 H :    0.022785
  25 C :   -0.031083
  26 H :    0.033029
  27 H :    0.028553
  28 C :   -0.067782
  29 H :    0.026917
  30 H :    0.021876
  31 H :    0.022703
  32 H :    0.032994
  33 H :    0.018043

  Mayer bond orders larger than 0.100000
B(  0-S ,  1-C ) :   1.1517 B(  0-S ,  4-C ) :   1.1329 B(  1-C ,  2-C ) :   1.5863
B(  1-C ,  4-C ) :   0.1030 B(  1-C , 32-H ) :   0.9662 B(  2-C ,  3-C ) :   1.2710
B(  2-C ,  6-C ) :   1.0105 B(  3-C ,  4-C ) :   1.5620 B(  3-C ,  5-H ) :   0.9980
B(  4-C , 20-C ) :   1.0572 B(  6-C ,  7-H ) :   0.9431 B(  6-C ,  8-H ) :   0.9361
B(  6-C ,  9-C ) :   1.0697 B(  9-C , 10-H ) :   0.9535 B(  9-C , 11-H ) :   0.9510
B(  9-C , 12-C ) :   1.0782 B( 12-C , 13-H ) :   0.9774 B( 12-C , 14-H ) :   0.9784
B( 12-C , 15-H ) :   0.9759 B( 16-S , 17-C ) :   1.1492 B( 16-S , 20-C ) :   1.1625
B( 17-C , 18-C ) :   1.5927 B( 17-C , 20-C ) :   0.1058 B( 17-C , 33-H ) :   0.9743
B( 18-C , 19-C ) :   1.2801 B( 18-C , 21-H ) :   0.9941 B( 19-C , 20-C ) :   1.5521
B( 19-C , 22-C ) :   1.0276 B( 22-C , 23-H ) :   0.9303 B( 22-C , 24-H ) :   0.9268
B( 22-C , 25-C ) :   1.0346 B( 25-C , 26-H ) :   0.9562 B( 25-C , 27-H ) :   0.9617
B( 25-C , 28-C ) :   1.0793 B( 28-C , 29-H ) :   0.9694 B( 28-C , 30-H ) :   0.9764
B( 28-C , 31-H ) :   0.9677

Dispersion correction           -0.014148206
FINAL SINGLE POINT ENERGY     -1339.845493067855

DIPOLE MOMENT
-------------
                                X             Y             Z
Electronic contribution:    -19.78638     -20.20972       6.36333
Nuclear contribution   :     20.02071      20.71833      -6.29087
                        -----------------------------------------
Total Dipole Moment    :      0.23433       0.50861       0.07246
                        -----------------------------------------
Magnitude (a.u.)       :      0.56467
Magnitude (Debye)      :      1.43526

Rotational constants in cm-1:     0.018944     0.008427     0.006931
Rotational constants in MHz :   567.918660   252.628986   207.780052

                             ****ORCA TERMINATED NORMALLY****
TOTAL RUN TIME: 0 days 0 hours 0 minutes 30 seconds 187 msec
