                         Program Version 4.2.1 -  RELEASE  -
|  1> ! wB97X-D3 SP def2-SVP
|  2> %pal
|  3> nprocs 16
|  4> end
|  5>
|  6> * xyz 0 1
|  7> S 	 -91.1665 	 41.6457 	 116.951
|  8> C 	 -91.1044 	 42.5412 	 118.454
|  9> C 	 -92.3697 	 43.0574 	 118.741
| 10> C 	 -93.3303 	 42.4877 	 117.861
| 11> C 	 -92.8848 	 41.6286 	 116.906
| 12> H 	 -94.43 	 42.7587 	 117.854
| 13> C 	 -92.7265 	 43.9126 	 119.965
| 14> H 	 -92.8021 	 44.9143 	 119.7
| 15> H 	 -91.822 	 43.8824 	 120.603
| 16> C 	 -93.9277 	 43.4002 	 120.831
| 17> H 	 -94.7543 	 43.3625 	 120.146
| 18> H 	 -93.8034 	 42.3772 	 121.163
| 19> C 	 -94.22 	 44.3624 	 122.033
| 20> H 	 -95.0272 	 44.1174 	 122.712
| 21> H 	 -93.3237 	 44.325 	 122.655
| 22> H 	 -94.3634 	 45.359 	 121.746
| 23> S 	 -94.1604 	 42.2327 	 114.48
| 24> C 	 -95.0681 	 41.0354 	 113.627
| 25> C 	 -94.9844 	 39.8057 	 114.334
| 26> C 	 -94.0262 	 39.8435 	 115.425
| 27> C 	 -93.6065 	 41.0926 	 115.732
| 28> H 	 -95.5422 	 38.8895 	 114.056
| 29> C 	 -93.6418 	 38.5591 	 116.246
| 30> H 	 -92.5574 	 38.654 	 116.41
| 31> H 	 -93.9762 	 37.6831 	 115.645
| 32> C 	 -94.2995 	 38.4287 	 117.69
| 33> H 	 -94.3063 	 39.3799 	 118.238
| 34> H 	 -93.6991 	 37.715 	 118.291
| 35> C 	 -95.6813 	 37.7771 	 117.658
| 36> H 	 -95.6177 	 36.7053 	 117.471
| 37> H 	 -96.3924 	 38.2588 	 116.999
| 38> H 	 -96.1757 	 37.8072 	 118.646
| 39> H 	 -90.2706 	 42.9322 	 118.997
| 40> H 	 -95.8358 	 41.2669 	 112.876
| 41> *
| 42>
| 43>                          ****END OF INPUT****

CARTESIAN COORDINATES (ANGSTROEM)
---------------------------------
  S    -91.166500   41.645700  116.951000
  C    -91.104400   42.541200  118.454000
  C    -92.369700   43.057400  118.741000
  C    -93.330300   42.487700  117.861000
  C    -92.884800   41.628600  116.906000
  H    -94.430000   42.758700  117.854000
  C    -92.726500   43.912600  119.965000
  H    -92.802100   44.914300  119.700000
  H    -91.822000   43.882400  120.603000
  C    -93.927700   43.400200  120.831000
  H    -94.754300   43.362500  120.146000
  H    -93.803400   42.377200  121.163000
  C    -94.220000   44.362400  122.033000
  H    -95.027200   44.117400  122.712000
  H    -93.323700   44.325000  122.655000
  H    -94.363400   45.359000  121.746000
  S    -94.160400   42.232700  114.480000
  C    -95.068100   41.035400  113.627000
  C    -94.984400   39.805700  114.334000
  C    -94.026200   39.843500  115.425000
  C    -93.606500   41.092600  115.732000
  H    -95.542200   38.889500  114.056000
  C    -93.641800   38.559100  116.246000
  H    -92.557400   38.654000  116.410000
  H    -93.976200   37.683100  115.645000
  C    -94.299500   38.428700  117.690000
  H    -94.306300   39.379900  118.238000
  H    -93.699100   37.715000  118.291000
  C    -95.681300   37.777100  117.658000
  H    -95.617700   36.705300  117.471000
  H    -96.392400   38.258800  116.999000
  H    -96.175700   37.807200  118.646000
  H    -90.270600   42.932200  118.997000
  H    -95.835800   41.266900  112.876000

 Total Charge           Charge          ....    0
 Multiplicity           Mult            ....    1
 Number of Electrons    NEL             ....  134
 Basis Dimension        Dim             ....  322

ORBITAL ENERGIES
----------------

  NO   OCC          E(Eh)            E(eV)
   0   2.0000     -88.966752     -2420.9084
   1   2.0000     -88.964511     -2420.8474
   2   2.0000     -10.327463      -281.0246
   3   2.0000     -10.326902      -281.0093
   4   2.0000     -10.323703      -280.9222
   5   2.0000     -10.315733      -280.7054
   6   2.0000     -10.305682      -280.4319
   7   2.0000     -10.303636      -280.3762
   8   2.0000     -10.302887      -280.3558
   9   2.0000     -10.300970      -280.3037
  10   2.0000     -10.295929      -280.1665
  11   2.0000     -10.295002      -280.1413
  12   2.0000     -10.291531      -280.0468
  13   2.0000     -10.288671      -279.9690
  14   2.0000     -10.277457      -279.6638
  15   2.0000     -10.274178      -279.5746
  16   2.0000      -8.081753      -219.9157
  17   2.0000      -8.079117      -219.8439
  18   2.0000      -6.040251      -164.3636
  19   2.0000      -6.037637      -164.2924
  20   2.0000      -6.036165      -164.2524
  21   2.0000      -6.033518      -164.1804
  22   2.0000      -6.032536      -164.1536
  23   2.0000      -6.029975      -164.0840
  24   2.0000      -1.009583       -27.4722
  25   2.0000      -0.985139       -26.8070
  26   2.0000      -0.908319       -24.7166
  27   2.0000      -0.896444       -24.3935
  28   2.0000      -0.867357       -23.6020
  29   2.0000      -0.845526       -23.0079
  30   2.0000      -0.844142       -22.9703
  31   2.0000      -0.812438       -22.1076
  32   2.0000      -0.782150       -21.2834
  33   2.0000      -0.773210       -21.0401
  34   2.0000      -0.714807       -19.4509
  35   2.0000      -0.699175       -19.0255
  36   2.0000      -0.685563       -18.6551
  37   2.0000      -0.665306       -18.1039
  38   2.0000      -0.638835       -17.3836
  39   2.0000      -0.615640       -16.7524
  40   2.0000      -0.585716       -15.9381
  41   2.0000      -0.570699       -15.5295
  42   2.0000      -0.560846       -15.2614
  43   2.0000      -0.548615       -14.9286
  44   2.0000      -0.543082       -14.7780
  45   2.0000      -0.523407       -14.2426
  46   2.0000      -0.518773       -14.1165
  47   2.0000      -0.507577       -13.8119
  48   2.0000      -0.506569       -13.7844
  49   2.0000      -0.493865       -13.4387
  50   2.0000      -0.486452       -13.2370
  51   2.0000      -0.474952       -12.9241
  52   2.0000      -0.468578       -12.7507
  53   2.0000      -0.464526       -12.6404
  54   2.0000      -0.461090       -12.5469
  55   2.0000      -0.450264       -12.2523
  56   2.0000      -0.447176       -12.1683
  57   2.0000      -0.443200       -12.0601
  58   2.0000      -0.427879       -11.6432
  59   2.0000      -0.423490       -11.5237
  60   2.0000      -0.421506       -11.4697
  61   2.0000      -0.417049       -11.3485
  62   2.0000      -0.409117       -11.1327
  63   2.0000      -0.333984        -9.0882
  64   2.0000      -0.330439        -8.9917
  65   2.0000      -0.324767        -8.8374
  66   2.0000      -0.312598        -8.5062
  67   0.0000       0.036052         0.9810
  68   0.0000       0.055847         1.5197
  69   0.0000       0.112768         3.0686
  70   0.0000       0.121731         3.3125
  71   0.0000       0.132486         3.6051

MULLIKEN ATOMIC CHARGES
-----------------------
   0 S :    0.116428
   1 C :   -0.092849
   2 C :   -0.114287
   3 C :   -0.006214
   4 C :   -0.151907
   5 H :    0.036060
   6 C :    0.077314
   7 H :    0.025263
   8 H :    0.012960
   9 C :   -0.072014
  10 H :    0.025295
  11 H :    0.036260
  12 C :   -0.030541
  13 H :    0.035577
  14 H :    0.023646
  15 H :    0.020127
  16 S :    0.112819
  17 C :   -0.099415
  18 C :   -0.057946
  19 C :   -0.043576
  20 C :   -0.171048
  21 H :    0.034522
  22 C :    0.067081
  23 H :    0.040917
  24 H :    0.029905
  25 C :   -0.071213
  26 H :    0.044906
  27 H :    0.031556
  28 C :   -0.069633
  29 H :    0.030204
  30 H :    0.032040
  31 H :    0.028437
  32 H :    0.041183
  33 H :    0.078147
Sum of atomic charges:    0.0000000

LOEWDIN ATOMIC CHARGES
----------------------
   0 S :    0.425773
   1 C :   -0.194630
   2 C :   -0.064390
   3 C :   -0.072002
   4 C :   -0.212599
   5 H :    0.039406
   6 C :   -0.024422
   7 H :    0.023323
   8 H :    0.030437
   9 C :   -0.030880
  10 H :    0.016313
  11 H :    0.026560
  12 C :   -0.061778
  13 H :    0.027656
  14 H :    0.026561
  15 H :    0.017333
  16 S :    0.405956
  17 C :   -0.199427
  18 C :   -0.078052
  19 C :   -0.055688
  20 C :   -0.199410
  21 H :    0.034256
  22 C :   -0.025997
  23 H :    0.034850
  24 H :    0.033027
  25 C :   -0.040630
  26 H :    0.026820
  27 H :    0.027964
  28 C :   -0.074748
  29 H :    0.023757
  30 H :    0.020554
  31 H :    0.029103
  32 H :    0.027206
  33 H :    0.037796

  Mayer bond orders larger than 0.100000
B(  0-S ,  1-C ) :   1.1546 B(  0-S ,  4-C ) :   1.1599 B(  1-C ,  2-C ) :   1.6010
B(  1-C ,  4-C ) :   0.1015 B(  1-C , 32-H ) :   0.9645 B(  2-C ,  3-C ) :   1.2588
B(  2-C ,  6-C ) :   1.0171 B(  3-C ,  4-C ) :   1.5881 B(  3-C ,  5-H ) :   0.9849
B(  4-C , 20-C ) :   1.0024 B(  6-C ,  7-H ) :   0.9351 B(  6-C ,  8-H ) :   0.9449
B(  6-C ,  9-C ) :   1.0541 B(  9-C , 10-H ) :   0.9563 B(  9-C , 11-H ) :   0.9617
B(  9-C , 12-C ) :   1.0724 B( 12-C , 13-H ) :   0.9762 B( 12-C , 14-H ) :   0.9769
B( 12-C , 15-H ) :   0.9775 B( 16-S , 17-C ) :   1.1713 B( 16-S , 20-C ) :   1.1339
B( 17-C , 18-C ) :   1.5896 B( 17-C , 33-H ) :   0.9632 B( 18-C , 19-C ) :   1.2501
B( 18-C , 21-H ) :   0.9799 B( 19-C , 20-C ) :   1.6224 B( 19-C , 22-C ) :   1.0347
B( 22-C , 23-H ) :   0.9332 B( 22-C , 24-H ) :   0.9408 B( 22-C , 25-C ) :   1.0569
B( 25-C , 26-H ) :   0.9605 B( 25-C , 27-H ) :   0.9572 B( 25-C , 28-C ) :   1.0787
B( 28-C , 29-H ) :   0.9750 B( 28-C , 30-H ) :   0.9781 B( 28-C , 31-H ) :   0.9713

Dispersion correction           -0.014333658
FINAL SINGLE POINT ENERGY     -1339.874837763361

DIPOLE MOMENT
-------------
                                X             Y             Z
Electronic contribution:     11.15611       5.22148     -23.59382
Nuclear contribution   :    -11.51929      -5.19666      24.10631
                        -----------------------------------------
Total Dipole Moment    :     -0.36318       0.02482       0.51248
                        -----------------------------------------
Magnitude (a.u.)       :      0.62861
Magnitude (Debye)      :      1.59781

Rotational constants in cm-1:     0.017805     0.008133     0.007216
Rotational constants in MHz :   533.785728   243.808459   216.339046

                             ****ORCA TERMINATED NORMALLY****
TOTAL RUN TIME: 0 days 0 hours 0 minutes 31 seconds 475 msec
