                         Program Version 4.2.1 -  RELEASE  -
|  1> ! wB97X-D3 SP def2-SVP
|  2> %pal
|  3> nprocs 16
|  4> end
|  5>
|  6> * xyz 0 1
|  7> S 	 -4.08139 	 -10.8183 	 70.8436
|  8> C 	 -4.71368 	 -12.3997 	 70.4709
|  9> C 	 -3.76109 	 -13.3563 	 70.6881
| 10> C 	 -2.48502 	 -12.7703 	 70.8789
| 11> C 	 -2.42914 	 -11.4224 	 70.9114
| 12> H 	 -1.55524 	 -13.306 	 71.0217
| 13> C 	 -3.9695 	 -14.8484 	 70.4371
| 14> H 	 -4.78334 	 -15.1668 	 71.1189
| 15> H 	 -3.07582 	 -15.4744 	 70.6037
| 16> C 	 -4.43543 	 -15.1249 	 68.9571
| 17> H 	 -5.5515 	 -14.8481 	 68.9034
| 18> H 	 -3.94024 	 -14.5463 	 68.1682
| 19> C 	 -4.15972 	 -16.5074 	 68.435
| 20> H 	 -3.11883 	 -16.6929 	 68.5763
| 21> H 	 -4.57789 	 -17.2431 	 69.0797
| 22> H 	 -4.55193 	 -16.708 	 67.4297
| 23> S 	 -0.456806 	 -10.7844 	 72.6049
| 24> C 	 0.671891 	 -9.44943 	 72.1699
| 25> C 	 0.267944 	 -8.87395 	 71.0304
| 26> C 	 -0.746715 	 -9.49881 	 70.3295
| 27> C 	 -1.30615 	 -10.5338 	 71.1032
| 28> H 	 0.797845 	 -7.96111 	 70.8831
| 29> C 	 -1.15486 	 -9.03879 	 68.9595
| 30> H 	 -1.82717 	 -8.1898 	 69.0169
| 31> H 	 -1.76845 	 -9.83599 	 68.5808
| 32> C 	 -0.0280407 	 -8.8704 	 67.8997
| 33> H 	 0.281503 	 -9.87754 	 67.6905
| 34> H 	 0.78914 	 -8.32794 	 68.3321
| 35> C 	 -0.453756 	 -8.33073 	 66.4508
| 36> H 	 -1.24392 	 -8.91856 	 65.8749
| 37> H 	 0.4721 	 -8.43908 	 65.8203
| 38> H 	 -0.729738 	 -7.28107 	 66.5194
| 39> H 	 -5.78341 	 -12.5768 	 70.3749
| 40> H 	 1.57771 	 -9.07936 	 72.6985
| 41> *
| 42>
| 43>                          ****END OF INPUT****

CARTESIAN COORDINATES (ANGSTROEM)
---------------------------------
  S     -4.081390  -10.818300   70.843600
  C     -4.713680  -12.399700   70.470900
  C     -3.761090  -13.356300   70.688100
  C     -2.485020  -12.770300   70.878900
  C     -2.429140  -11.422400   70.911400
  H     -1.555240  -13.306000   71.021700
  C     -3.969500  -14.848400   70.437100
  H     -4.783340  -15.166800   71.118900
  H     -3.075820  -15.474400   70.603700
  C     -4.435430  -15.124900   68.957100
  H     -5.551500  -14.848100   68.903400
  H     -3.940240  -14.546300   68.168200
  C     -4.159720  -16.507400   68.435000
  H     -3.118830  -16.692900   68.576300
  H     -4.577890  -17.243100   69.079700
  H     -4.551930  -16.708000   67.429700
  S     -0.456806  -10.784400   72.604900
  C      0.671891   -9.449430   72.169900
  C      0.267944   -8.873950   71.030400
  C     -0.746715   -9.498810   70.329500
  C     -1.306150  -10.533800   71.103200
  H      0.797845   -7.961110   70.883100
  C     -1.154860   -9.038790   68.959500
  H     -1.827170   -8.189800   69.016900
  H     -1.768450   -9.835990   68.580800
  C     -0.028041   -8.870400   67.899700
  H      0.281503   -9.877540   67.690500
  H      0.789140   -8.327940   68.332100
  C     -0.453756   -8.330730   66.450800
  H     -1.243920   -8.918560   65.874900
  H      0.472100   -8.439080   65.820300
  H     -0.729738   -7.281070   66.519400
  H     -5.783410  -12.576800   70.374900
  H      1.577710   -9.079360   72.698500

 Total Charge           Charge          ....    0
 Multiplicity           Mult            ....    1
 Number of Electrons    NEL             ....  134
 Basis Dimension        Dim             ....  322

ORBITAL ENERGIES
----------------

  NO   OCC          E(Eh)            E(eV)
   0   2.0000     -88.965796     -2420.8824
   1   2.0000     -88.960415     -2420.7360
   2   2.0000     -10.327543      -281.0267
   3   2.0000     -10.323400      -280.9140
   4   2.0000     -10.315925      -280.7106
   5   2.0000     -10.312164      -280.6083
   6   2.0000     -10.302549      -280.3466
   7   2.0000     -10.301191      -280.3096
   8   2.0000     -10.299473      -280.2629
   9   2.0000     -10.291601      -280.0487
  10   2.0000     -10.291151      -280.0365
  11   2.0000     -10.288808      -279.9727
  12   2.0000     -10.288473      -279.9636
  13   2.0000     -10.285440      -279.8811
  14   2.0000     -10.281768      -279.7811
  15   2.0000     -10.271705      -279.5073
  16   2.0000      -8.079788      -219.8622
  17   2.0000      -8.075386      -219.7424
  18   2.0000      -6.038281      -164.3100
  19   2.0000      -6.034449      -164.2057
  20   2.0000      -6.033895      -164.1906
  21   2.0000      -6.030547      -164.0995
  22   2.0000      -6.029868      -164.0811
  23   2.0000      -6.026119      -163.9790
  24   2.0000      -1.010177       -27.4883
  25   2.0000      -0.988103       -26.8877
  26   2.0000      -0.909381       -24.7455
  27   2.0000      -0.901369       -24.5275
  28   2.0000      -0.876582       -23.8530
  29   2.0000      -0.850414       -23.1409
  30   2.0000      -0.841604       -22.9012
  31   2.0000      -0.820997       -22.3405
  32   2.0000      -0.782003       -21.2794
  33   2.0000      -0.767693       -20.8900
  34   2.0000      -0.707621       -19.2553
  35   2.0000      -0.697400       -18.9772
  36   2.0000      -0.695373       -18.9221
  37   2.0000      -0.658343       -17.9144
  38   2.0000      -0.641236       -17.4489
  39   2.0000      -0.617897       -16.8138
  40   2.0000      -0.593711       -16.1557
  41   2.0000      -0.572930       -15.5902
  42   2.0000      -0.563158       -15.3243
  43   2.0000      -0.558463       -15.1965
  44   2.0000      -0.527798       -14.3621
  45   2.0000      -0.522584       -14.2202
  46   2.0000      -0.519427       -14.1343
  47   2.0000      -0.511147       -13.9090
  48   2.0000      -0.505864       -13.7653
  49   2.0000      -0.501220       -13.6389
  50   2.0000      -0.494542       -13.4572
  51   2.0000      -0.474451       -12.9105
  52   2.0000      -0.471636       -12.8339
  53   2.0000      -0.467580       -12.7235
  54   2.0000      -0.455777       -12.4023
  55   2.0000      -0.447519       -12.1776
  56   2.0000      -0.441861       -12.0236
  57   2.0000      -0.431762       -11.7488
  58   2.0000      -0.427582       -11.6351
  59   2.0000      -0.425032       -11.5657
  60   2.0000      -0.420577       -11.4445
  61   2.0000      -0.416255       -11.3269
  62   2.0000      -0.408085       -11.1046
  63   2.0000      -0.340789        -9.2733
  64   2.0000      -0.335848        -9.1389
  65   2.0000      -0.323552        -8.8043
  66   2.0000      -0.299183        -8.1412
  67   0.0000       0.031147         0.8476
  68   0.0000       0.067899         1.8476
  69   0.0000       0.109923         2.9912
  70   0.0000       0.123268         3.3543
  71   0.0000       0.129178         3.5151

MULLIKEN ATOMIC CHARGES
-----------------------
   0 S :    0.107528
   1 C :   -0.137737
   2 C :   -0.053323
   3 C :    0.018402
   4 C :   -0.155853
   5 H :    0.005689
   6 C :    0.056329
   7 H :    0.044959
   8 H :    0.025326
   9 C :   -0.117840
  10 H :    0.033829
  11 H :    0.040235
  12 C :   -0.019328
  13 H :    0.020371
  14 H :    0.005802
  15 H :    0.045097
  16 S :    0.109652
  17 C :   -0.116947
  18 C :   -0.039297
  19 C :   -0.000519
  20 C :   -0.180222
  21 H :    0.012038
  22 C :    0.108941
  23 H :    0.035174
  24 H :    0.012561
  25 C :   -0.089149
  26 H :    0.028940
  27 H :    0.032672
  28 C :   -0.092204
  29 H :    0.050879
  30 H :    0.044393
  31 H :    0.042221
  32 H :    0.056528
  33 H :    0.064856
Sum of atomic charges:   -0.0000000

LOEWDIN ATOMIC CHARGES
----------------------
   0 S :    0.400673
   1 C :   -0.191437
   2 C :   -0.067491
   3 C :   -0.064877
   4 C :   -0.198472
   5 H :    0.030030
   6 C :   -0.029489
   7 H :    0.038427
   8 H :    0.029085
   9 C :   -0.048224
  10 H :    0.025807
  11 H :    0.027301
  12 C :   -0.066489
  13 H :    0.022138
  14 H :    0.016031
  15 H :    0.032426
  16 S :    0.395276
  17 C :   -0.176679
  18 C :   -0.075418
  19 C :   -0.055024
  20 C :   -0.197386
  21 H :    0.032439
  22 C :   -0.034695
  23 H :    0.030822
  24 H :    0.029324
  25 C :   -0.033362
  26 H :    0.025252
  27 H :    0.018012
  28 C :   -0.073654
  29 H :    0.034499
  30 H :    0.033644
  31 H :    0.021825
  32 H :    0.029349
  33 H :    0.040335

  Mayer bond orders larger than 0.100000
B(  0-S ,  1-C ) :   1.1519 B(  0-S ,  4-C ) :   1.1356 B(  1-C ,  2-C ) :   1.5930
B(  1-C , 32-H ) :   0.9704 B(  2-C ,  3-C ) :   1.2378 B(  2-C ,  6-C ) :   1.0291
B(  3-C ,  4-C ) :   1.6010 B(  3-C ,  5-H ) :   0.9998 B(  4-C , 20-C ) :   1.0307
B(  6-C ,  7-H ) :   0.9315 B(  6-C ,  8-H ) :   0.9551 B(  6-C ,  9-C ) :   1.0486
B(  9-C , 10-H ) :   0.9502 B(  9-C , 11-H ) :   0.9656 B(  9-C , 12-C ) :   1.0875
B( 12-C , 13-H ) :   0.9713 B( 12-C , 14-H ) :   0.9691 B( 12-C , 15-H ) :   0.9725
B( 16-S , 17-C ) :   1.1250 B( 16-S , 20-C ) :   1.1584 B( 17-C , 18-C ) :   1.6588
B( 17-C , 20-C ) :   0.1055 B( 17-C , 33-H ) :   0.9594 B( 18-C , 19-C ) :   1.2160
B( 18-C , 21-H ) :   0.9874 B( 19-C , 20-C ) :   1.5705 B( 19-C , 22-C ) :   1.0496
B( 22-C , 23-H ) :   0.9322 B( 22-C , 24-H ) :   0.9252 B( 22-C , 25-C ) :   1.0494
B( 25-C , 26-H ) :   0.9589 B( 25-C , 27-H ) :   0.9632 B( 25-C , 28-C ) :   1.0730
B( 28-C , 29-H ) :   0.9760 B( 28-C , 30-H ) :   0.9761 B( 28-C , 31-H ) :   0.9780

Dispersion correction           -0.013446304
FINAL SINGLE POINT ENERGY     -1339.863508392869

DIPOLE MOMENT
-------------
                                X             Y             Z
Electronic contribution:      0.66086       9.36161      22.93325
Nuclear contribution   :     -0.51087      -9.53524     -23.30338
                        -----------------------------------------
Total Dipole Moment    :      0.14999      -0.17363      -0.37014
                        -----------------------------------------
Magnitude (a.u.)       :      0.43548
Magnitude (Debye)      :      1.10691

Rotational constants in cm-1:     0.018020     0.007510     0.006309
Rotational constants in MHz :   540.223091   225.132302   189.135877

                             ****ORCA TERMINATED NORMALLY****
TOTAL RUN TIME: 0 days 0 hours 0 minutes 33 seconds 347 msec
