                         Program Version 4.2.1 -  RELEASE  -
|  1> ! wB97X-D3 SP def2-SVP
|  2> %pal
|  3> nprocs 16
|  4> end
|  5>
|  6> * xyz 0 1
|  7> S 	 -41.3083 	 55.0713 	 106.329
|  8> C 	 -42.58 	 55.9028 	 105.479
|  9> C 	 -42.4762 	 57.2989 	 105.757
| 10> C 	 -41.3059 	 57.6415 	 106.51
| 11> C 	 -40.5659 	 56.5409 	 106.874
| 12> H 	 -40.9172 	 58.5018 	 106.922
| 13> C 	 -43.5496 	 58.2896 	 105.341
| 14> H 	 -44.5145 	 57.7634 	 105.278
| 15> H 	 -43.3861 	 58.6393 	 104.353
| 16> C 	 -43.8358 	 59.3744 	 106.348
| 17> H 	 -44.4571 	 59.017 	 107.218
| 18> H 	 -42.9476 	 59.9743 	 106.564
| 19> C 	 -44.62 	 60.5089 	 105.676
| 20> H 	 -44.0919 	 61.0786 	 104.86
| 21> H 	 -45.6642 	 60.3834 	 105.28
| 22> H 	 -44.8126 	 61.2701 	 106.483
| 23> S 	 -39.4435 	 56.6187 	 109.426
| 24> C 	 -37.6882 	 56.5008 	 109.525
| 25> C 	 -37.111 	 56.3098 	 108.307
| 26> C 	 -38.0602 	 56.2193 	 107.241
| 27> C 	 -39.3643 	 56.5341 	 107.7
| 28> H 	 -36.0239 	 56.2582 	 108.2
| 29> C 	 -37.6947 	 56.0069 	 105.724
| 30> H 	 -38.6027 	 55.5864 	 105.271
| 31> H 	 -36.9702 	 55.18 	 105.746
| 32> C 	 -37.0902 	 57.1864 	 105.029
| 33> H 	 -36.1244 	 57.32 	 105.433
| 34> H 	 -37.6291 	 58.0741 	 105.272
| 35> C 	 -36.9739 	 56.8471 	 103.551
| 36> H 	 -36.4807 	 55.8912 	 103.357
| 37> H 	 -36.3697 	 57.5505 	 102.996
| 38> H 	 -37.9897 	 56.8022 	 103.191
| 39> H 	 -43.3896 	 55.3849 	 104.983
| 40> H 	 -37.1872 	 56.3715 	 110.521
| 41> *
| 42>
| 43>                          ****END OF INPUT****

CARTESIAN COORDINATES (ANGSTROEM)
---------------------------------
  S    -41.308300   55.071300  106.329000
  C    -42.580000   55.902800  105.479000
  C    -42.476200   57.298900  105.757000
  C    -41.305900   57.641500  106.510000
  C    -40.565900   56.540900  106.874000
  H    -40.917200   58.501800  106.922000
  C    -43.549600   58.289600  105.341000
  H    -44.514500   57.763400  105.278000
  H    -43.386100   58.639300  104.353000
  C    -43.835800   59.374400  106.348000
  H    -44.457100   59.017000  107.218000
  H    -42.947600   59.974300  106.564000
  C    -44.620000   60.508900  105.676000
  H    -44.091900   61.078600  104.860000
  H    -45.664200   60.383400  105.280000
  H    -44.812600   61.270100  106.483000
  S    -39.443500   56.618700  109.426000
  C    -37.688200   56.500800  109.525000
  C    -37.111000   56.309800  108.307000
  C    -38.060200   56.219300  107.241000
  C    -39.364300   56.534100  107.700000
  H    -36.023900   56.258200  108.200000
  C    -37.694700   56.006900  105.724000
  H    -38.602700   55.586400  105.271000
  H    -36.970200   55.180000  105.746000
  C    -37.090200   57.186400  105.029000
  H    -36.124400   57.320000  105.433000
  H    -37.629100   58.074100  105.272000
  C    -36.973900   56.847100  103.551000
  H    -36.480700   55.891200  103.357000
  H    -36.369700   57.550500  102.996000
  H    -37.989700   56.802200  103.191000
  H    -43.389600   55.384900  104.983000
  H    -37.187200   56.371500  110.521000

 Total Charge           Charge          ....    0
 Multiplicity           Mult            ....    1
 Number of Electrons    NEL             ....  134
 Basis Dimension        Dim             ....  322

ORBITAL ENERGIES
----------------

  NO   OCC          E(Eh)            E(eV)
   0   2.0000     -88.966780     -2420.9091
   1   2.0000     -88.964663     -2420.8516
   2   2.0000     -10.323461      -280.9157
   3   2.0000     -10.322721      -280.8955
   4   2.0000     -10.319536      -280.8088
   5   2.0000     -10.316381      -280.7230
   6   2.0000     -10.307227      -280.4739
   7   2.0000     -10.305585      -280.4292
   8   2.0000     -10.294650      -280.1317
   9   2.0000     -10.292189      -280.0647
  10   2.0000     -10.289535      -279.9925
  11   2.0000     -10.287935      -279.9489
  12   2.0000     -10.286125      -279.8997
  13   2.0000     -10.285192      -279.8743
  14   2.0000     -10.274673      -279.5881
  15   2.0000     -10.272533      -279.5298
  16   2.0000      -8.081621      -219.9121
  17   2.0000      -8.079318      -219.8494
  18   2.0000      -6.040003      -164.3568
  19   2.0000      -6.037671      -164.2934
  20   2.0000      -6.036168      -164.2525
  21   2.0000      -6.033613      -164.1830
  22   2.0000      -6.032468      -164.1518
  23   2.0000      -6.030471      -164.0974
  24   2.0000      -1.005391       -27.3581
  25   2.0000      -0.982203       -26.7271
  26   2.0000      -0.914468       -24.8839
  27   2.0000      -0.912039       -24.8178
  28   2.0000      -0.869165       -23.6512
  29   2.0000      -0.848627       -23.0923
  30   2.0000      -0.845705       -23.0128
  31   2.0000      -0.815950       -22.2031
  32   2.0000      -0.778770       -21.1914
  33   2.0000      -0.763851       -20.7854
  34   2.0000      -0.705327       -19.1929
  35   2.0000      -0.698388       -19.0041
  36   2.0000      -0.684875       -18.6364
  37   2.0000      -0.659589       -17.9483
  38   2.0000      -0.647274       -17.6132
  39   2.0000      -0.615922       -16.7601
  40   2.0000      -0.593617       -16.1531
  41   2.0000      -0.575080       -15.6487
  42   2.0000      -0.571643       -15.5552
  43   2.0000      -0.560495       -15.2518
  44   2.0000      -0.526252       -14.3200
  45   2.0000      -0.524739       -14.2789
  46   2.0000      -0.515896       -14.0383
  47   2.0000      -0.509902       -13.8751
  48   2.0000      -0.502733       -13.6800
  49   2.0000      -0.497332       -13.5331
  50   2.0000      -0.490958       -13.3596
  51   2.0000      -0.469664       -12.7802
  52   2.0000      -0.466968       -12.7069
  53   2.0000      -0.464653       -12.6439
  54   2.0000      -0.456198       -12.4138
  55   2.0000      -0.448955       -12.2167
  56   2.0000      -0.444600       -12.0982
  57   2.0000      -0.439091       -11.9483
  58   2.0000      -0.438249       -11.9254
  59   2.0000      -0.419469       -11.4143
  60   2.0000      -0.416537       -11.3346
  61   2.0000      -0.415049       -11.2940
  62   2.0000      -0.406984       -11.0746
  63   2.0000      -0.337834        -9.1929
  64   2.0000      -0.335087        -9.1182
  65   2.0000      -0.318150        -8.6573
  66   2.0000      -0.303463        -8.2576
  67   0.0000       0.042662         1.1609
  68   0.0000       0.055213         1.5024
  69   0.0000       0.116282         3.1642
  70   0.0000       0.124690         3.3930
  71   0.0000       0.131405         3.5757

MULLIKEN ATOMIC CHARGES
-----------------------
   0 S :    0.121291
   1 C :   -0.131294
   2 C :   -0.065278
   3 C :    0.077468
   4 C :   -0.195647
   5 H :   -0.024224
   6 C :    0.092876
   7 H :    0.017062
   8 H :    0.029046
   9 C :   -0.077036
  10 H :    0.058969
  11 H :    0.043355
  12 C :   -0.129403
  13 H :    0.040425
  14 H :    0.032647
  15 H :    0.031132
  16 S :    0.121070
  17 C :   -0.119815
  18 C :   -0.025156
  19 C :   -0.052177
  20 C :   -0.179634
  21 H :    0.025442
  22 C :    0.049531
  23 H :    0.022153
  24 H :    0.021240
  25 C :   -0.006296
  26 H :    0.005439
  27 H :    0.025487
  28 C :   -0.029239
  29 H :    0.024258
  30 H :    0.027796
  31 H :    0.035557
  32 H :    0.055005
  33 H :    0.077950
Sum of atomic charges:    0.0000000

LOEWDIN ATOMIC CHARGES
----------------------
   0 S :    0.423884
   1 C :   -0.207372
   2 C :   -0.056118
   3 C :   -0.057727
   4 C :   -0.199098
   5 H :    0.021105
   6 C :   -0.036418
   7 H :    0.034608
   8 H :    0.027262
   9 C :   -0.043054
  10 H :    0.039912
  11 H :    0.030958
  12 C :   -0.085316
  13 H :    0.027173
  14 H :    0.021742
  15 H :    0.028287
  16 S :    0.412206
  17 C :   -0.189842
  18 C :   -0.076564
  19 C :   -0.046811
  20 C :   -0.221910
  21 H :    0.035393
  22 C :   -0.027776
  23 H :    0.023000
  24 H :    0.030043
  25 C :   -0.034702
  26 H :    0.017411
  27 H :    0.023175
  28 C :   -0.058194
  29 H :    0.026625
  30 H :    0.022513
  31 H :    0.027287
  32 H :    0.028661
  33 H :    0.039661

  Mayer bond orders larger than 0.100000
B(  0-S ,  1-C ) :   1.1568 B(  0-S ,  4-C ) :   1.1650 B(  1-C ,  2-C ) :   1.5727
B(  1-C ,  4-C ) :   0.1028 B(  1-C , 32-H ) :   0.9754 B(  2-C ,  3-C ) :   1.2251
B(  2-C ,  6-C ) :   1.0139 B(  3-C ,  4-C ) :   1.5859 B(  3-C ,  5-H ) :   1.0044
B(  4-C , 20-C ) :   1.0213 B(  6-C ,  7-H ) :   0.9404 B(  6-C ,  8-H ) :   0.9404
B(  6-C ,  9-C ) :   1.0796 B(  9-C , 10-H ) :   0.9564 B(  9-C , 11-H ) :   0.9469
B(  9-C , 12-C ) :   1.0669 B( 12-C , 13-H ) :   0.9776 B( 12-C , 14-H ) :   0.9735
B( 12-C , 15-H ) :   0.9750 B( 16-S , 17-C ) :   1.1553 B( 16-S , 20-C ) :   1.1582
B( 17-C , 18-C ) :   1.6062 B( 17-C , 33-H ) :   0.9592 B( 18-C , 19-C ) :   1.2580
B( 18-C , 21-H ) :   0.9884 B( 19-C , 20-C ) :   1.5689 B( 19-C , 22-C ) :   1.0320
B( 22-C , 23-H ) :   0.9294 B( 22-C , 24-H ) :   0.9302 B( 22-C , 25-C ) :   1.0706
B( 25-C , 26-H ) :   0.9446 B( 25-C , 27-H ) :   0.9559 B( 25-C , 28-C ) :   1.0834
B( 28-C , 29-H ) :   0.9708 B( 28-C , 30-H ) :   0.9733 B( 28-C , 31-H ) :   0.9777

Dispersion correction           -0.013963978
FINAL SINGLE POINT ENERGY     -1339.872023869488

DIPOLE MOMENT
-------------
                                X             Y             Z
Electronic contribution:      2.67159     -15.35267      17.35470
Nuclear contribution   :     -2.58381      15.58943     -17.57047
                        -----------------------------------------
Total Dipole Moment    :      0.08779       0.23675      -0.21577
                        -----------------------------------------
Magnitude (a.u.)       :      0.33214
Magnitude (Debye)      :      0.84424

Rotational constants in cm-1:     0.017634     0.008121     0.007045
Rotational constants in MHz :   528.660301   243.465262   211.194624

                             ****ORCA TERMINATED NORMALLY****
TOTAL RUN TIME: 0 days 0 hours 0 minutes 27 seconds 882 msec
