                         Program Version 4.2.1 -  RELEASE  -
|  1> ! wB97X-D3 SP def2-SVP
|  2> %pal
|  3> nprocs 16
|  4> end
|  5>
|  6> * xyz 0 1
|  7> S 	 53.5331 	 -0.339233 	 89.0374
|  8> C 	 55.1755 	 -0.0527878 	 89.5645
|  9> C 	 56.0441 	 0.177764 	 88.491
| 10> C 	 55.3937 	 -0.112702 	 87.2379
| 11> C 	 54.0893 	 -0.444984 	 87.3259
| 12> H 	 55.8805 	 -0.0390161 	 86.2767
| 13> C 	 57.4752 	 0.565014 	 88.5865
| 14> H 	 58.2158 	 -0.172745 	 88.423
| 15> H 	 57.6236 	 0.811001 	 89.6345
| 16> C 	 57.8369 	 1.80847 	 87.827
| 17> H 	 58.9494 	 1.89332 	 87.8804
| 18> H 	 57.7513 	 1.81947 	 86.736
| 19> C 	 57.2174 	 3.01644 	 88.4203
| 20> H 	 57.3579 	 3.11673 	 89.4789
| 21> H 	 57.6899 	 3.92743 	 88.0731
| 22> H 	 56.1497 	 3.19748 	 88.1693
| 23> S 	 51.8167 	 0.246656 	 86.1425
| 24> C 	 51.2722 	 -0.57636 	 84.7022
| 25> C 	 52.2591 	 -1.41147 	 84.2216
| 26> C 	 53.4239 	 -1.45497 	 85.0198
| 27> C 	 53.2314 	 -0.684208 	 86.2112
| 28> H 	 51.9776 	 -1.87703 	 83.2278
| 29> C 	 54.4914 	 -2.46095 	 84.7937
| 30> H 	 55.2453 	 -2.41101 	 85.5655
| 31> H 	 54.9945 	 -2.13352 	 83.8734
| 32> C 	 54.0646 	 -3.86025 	 84.4308
| 33> H 	 53.3104 	 -3.71679 	 83.7011
| 34> H 	 53.6785 	 -4.30557 	 85.276
| 35> C 	 55.196 	 -4.77847 	 84.0628
| 36> H 	 54.8402 	 -5.80128 	 83.8713
| 37> H 	 55.9449 	 -4.84876 	 84.8853
| 38> H 	 55.7066 	 -4.49796 	 83.1431
| 39> H 	 55.3122 	 0.20894 	 90.5807
| 40> H 	 50.3124 	 -0.27869 	 84.1636
| 41> *
| 42>
| 43>                          ****END OF INPUT****

CARTESIAN COORDINATES (ANGSTROEM)
---------------------------------
  S     53.533100   -0.339233   89.037400
  C     55.175500   -0.052788   89.564500
  C     56.044100    0.177764   88.491000
  C     55.393700   -0.112702   87.237900
  C     54.089300   -0.444984   87.325900
  H     55.880500   -0.039016   86.276700
  C     57.475200    0.565014   88.586500
  H     58.215800   -0.172745   88.423000
  H     57.623600    0.811001   89.634500
  C     57.836900    1.808470   87.827000
  H     58.949400    1.893320   87.880400
  H     57.751300    1.819470   86.736000
  C     57.217400    3.016440   88.420300
  H     57.357900    3.116730   89.478900
  H     57.689900    3.927430   88.073100
  H     56.149700    3.197480   88.169300
  S     51.816700    0.246656   86.142500
  C     51.272200   -0.576360   84.702200
  C     52.259100   -1.411470   84.221600
  C     53.423900   -1.454970   85.019800
  C     53.231400   -0.684208   86.211200
  H     51.977600   -1.877030   83.227800
  C     54.491400   -2.460950   84.793700
  H     55.245300   -2.411010   85.565500
  H     54.994500   -2.133520   83.873400
  C     54.064600   -3.860250   84.430800
  H     53.310400   -3.716790   83.701100
  H     53.678500   -4.305570   85.276000
  C     55.196000   -4.778470   84.062800
  H     54.840200   -5.801280   83.871300
  H     55.944900   -4.848760   84.885300
  H     55.706600   -4.497960   83.143100
  H     55.312200    0.208940   90.580700
  H     50.312400   -0.278690   84.163600

 Total Charge           Charge          ....    0
 Multiplicity           Mult            ....    1
 Number of Electrons    NEL             ....  134
 Basis Dimension        Dim             ....  322

ORBITAL ENERGIES
----------------

  NO   OCC          E(Eh)            E(eV)
   0   2.0000     -88.964168     -2420.8381
   1   2.0000     -88.964084     -2420.8358
   2   2.0000     -10.326183      -280.9897
   3   2.0000     -10.323312      -280.9116
   4   2.0000     -10.317881      -280.7638
   5   2.0000     -10.314036      -280.6592
   6   2.0000     -10.305075      -280.4153
   7   2.0000     -10.302778      -280.3529
   8   2.0000     -10.297391      -280.2063
   9   2.0000     -10.289743      -279.9981
  10   2.0000     -10.285141      -279.8729
  11   2.0000     -10.284713      -279.8613
  12   2.0000     -10.283071      -279.8166
  13   2.0000     -10.278695      -279.6975
  14   2.0000     -10.270962      -279.4871
  15   2.0000     -10.269899      -279.4582
  16   2.0000      -8.080073      -219.8700
  17   2.0000      -8.078317      -219.8222
  18   2.0000      -6.038331      -164.3114
  19   2.0000      -6.036950      -164.2738
  20   2.0000      -6.034336      -164.2026
  21   2.0000      -6.033017      -164.1667
  22   2.0000      -6.031108      -164.1148
  23   2.0000      -6.028862      -164.0537
  24   2.0000      -1.010437       -27.4954
  25   2.0000      -0.983571       -26.7643
  26   2.0000      -0.922732       -25.1088
  27   2.0000      -0.919335       -25.0164
  28   2.0000      -0.874743       -23.8030
  29   2.0000      -0.856043       -23.2941
  30   2.0000      -0.845912       -23.0184
  31   2.0000      -0.816953       -22.2304
  32   2.0000      -0.783660       -21.3245
  33   2.0000      -0.769954       -20.9515
  34   2.0000      -0.711727       -19.3671
  35   2.0000      -0.700706       -19.0672
  36   2.0000      -0.694613       -18.9014
  37   2.0000      -0.655281       -17.8311
  38   2.0000      -0.641688       -17.4612
  39   2.0000      -0.627348       -17.0710
  40   2.0000      -0.600230       -16.3331
  41   2.0000      -0.574258       -15.6264
  42   2.0000      -0.570739       -15.5306
  43   2.0000      -0.558440       -15.1959
  44   2.0000      -0.535493       -14.5715
  45   2.0000      -0.526462       -14.3258
  46   2.0000      -0.519597       -14.1390
  47   2.0000      -0.512863       -13.9557
  48   2.0000      -0.501773       -13.6539
  49   2.0000      -0.498705       -13.5705
  50   2.0000      -0.486820       -13.2470
  51   2.0000      -0.482752       -13.1363
  52   2.0000      -0.468932       -12.7603
  53   2.0000      -0.462443       -12.5837
  54   2.0000      -0.460887       -12.5414
  55   2.0000      -0.449791       -12.2394
  56   2.0000      -0.441108       -12.0032
  57   2.0000      -0.437566       -11.9068
  58   2.0000      -0.432646       -11.7729
  59   2.0000      -0.427834       -11.6419
  60   2.0000      -0.426534       -11.6066
  61   2.0000      -0.416492       -11.3333
  62   2.0000      -0.406096       -11.0504
  63   2.0000      -0.353601        -9.6220
  64   2.0000      -0.330514        -8.9937
  65   2.0000      -0.326014        -8.8713
  66   2.0000      -0.286261        -7.7895
  67   0.0000       0.027473         0.7476
  68   0.0000       0.070961         1.9309
  69   0.0000       0.111566         3.0359
  70   0.0000       0.123702         3.3661
  71   0.0000       0.132573         3.6075

MULLIKEN ATOMIC CHARGES
-----------------------
   0 S :    0.094938
   1 C :   -0.105699
   2 C :   -0.085580
   3 C :    0.024839
   4 C :   -0.134722
   5 H :    0.015688
   6 C :    0.114666
   7 H :    0.028901
   8 H :    0.000571
   9 C :   -0.095369
  10 H :    0.021464
  11 H :    0.030707
  12 C :   -0.038245
  13 H :    0.016331
  14 H :    0.015229
  15 H :    0.047420
  16 S :    0.113770
  17 C :   -0.133019
  18 C :   -0.084216
  19 C :    0.010040
  20 C :   -0.169922
  21 H :    0.049105
  22 C :    0.060791
  23 H :    0.010806
  24 H :    0.014418
  25 C :   -0.008178
  26 H :    0.014782
  27 H :    0.011905
  28 C :   -0.059524
  29 H :    0.034122
  30 H :    0.037233
  31 H :    0.022726
  32 H :    0.043112
  33 H :    0.080910
Sum of atomic charges:   -0.0000000

LOEWDIN ATOMIC CHARGES
----------------------
   0 S :    0.376948
   1 C :   -0.185688
   2 C :   -0.057396
   3 C :   -0.056284
   4 C :   -0.181225
   5 H :    0.032145
   6 C :   -0.032259
   7 H :    0.028292
   8 H :    0.032038
   9 C :   -0.049465
  10 H :    0.029671
  11 H :    0.025018
  12 C :   -0.069282
  13 H :    0.020951
  14 H :    0.025540
  15 H :    0.033071
  16 S :    0.435082
  17 C :   -0.206426
  18 C :   -0.083202
  19 C :   -0.057241
  20 C :   -0.212313
  21 H :    0.045709
  22 C :   -0.034641
  23 H :    0.023952
  24 H :    0.033662
  25 C :   -0.032125
  26 H :    0.018694
  27 H :    0.018235
  28 C :   -0.062747
  29 H :    0.029348
  30 H :    0.030856
  31 H :    0.019878
  32 H :    0.018324
  33 H :    0.042880

  Mayer bond orders larger than 0.100000
B(  0-S ,  1-C ) :   1.1365 B(  0-S ,  4-C ) :   1.1182 B(  1-C ,  2-C ) :   1.6126
B(  1-C , 32-H ) :   0.9682 B(  2-C ,  3-C ) :   1.2139 B(  2-C ,  6-C ) :   1.0315
B(  3-C ,  4-C ) :   1.6005 B(  3-C ,  5-H ) :   0.9951 B(  4-C , 20-C ) :   1.0680
B(  6-C ,  7-H ) :   0.9374 B(  6-C ,  8-H ) :   0.9316 B(  6-C ,  9-C ) :   1.0804
B(  9-C , 10-H ) :   0.9488 B(  9-C , 11-H ) :   0.9517 B(  9-C , 12-C ) :   1.0873
B( 12-C , 13-H ) :   0.9716 B( 12-C , 14-H ) :   0.9677 B( 12-C , 15-H ) :   0.9713
B( 16-S , 17-C ) :   1.1567 B( 16-S , 20-C ) :   1.1878 B( 17-C , 18-C ) :   1.6018
B( 17-C , 20-C ) :   0.1055 B( 17-C , 33-H ) :   0.9591 B( 18-C , 19-C ) :   1.2472
B( 18-C , 21-H ) :   0.9751 B( 19-C , 20-C ) :   1.5174 B( 19-C , 22-C ) :   1.0667
B( 22-C , 23-H ) :   0.9354 B( 22-C , 24-H ) :   0.9142 B( 22-C , 25-C ) :   1.0717
B( 25-C , 26-H ) :   0.9453 B( 25-C , 27-H ) :   0.9483 B( 25-C , 28-C ) :   1.0939
B( 28-C , 29-H ) :   0.9722 B( 28-C , 30-H ) :   0.9724 B( 28-C , 31-H ) :   0.9737

Dispersion correction           -0.013864058
FINAL SINGLE POINT ENERGY     -1339.872115155250

DIPOLE MOMENT
-------------
                                X             Y             Z
Electronic contribution:    -21.43113       4.67975       7.84245
Nuclear contribution   :     21.96082      -4.65890      -8.19210
                        -----------------------------------------
Total Dipole Moment    :      0.52970       0.02085      -0.34966
                        -----------------------------------------
Magnitude (a.u.)       :      0.63504
Magnitude (Debye)      :      1.61414

Rotational constants in cm-1:     0.018158     0.008436     0.006983
Rotational constants in MHz :   544.367051   252.911820   209.350715

                             ****ORCA TERMINATED NORMALLY****
TOTAL RUN TIME: 0 days 0 hours 0 minutes 28 seconds 754 msec
