                         Program Version 4.2.1 -  RELEASE  -
|  1> ! wB97X-D3 SP def2-SVP
|  2> %pal
|  3> nprocs 16
|  4> end
|  5>
|  6> * xyz 0 1
|  7> S 	 -2.58136 	 -12.9146 	 84.9201
|  8> C 	 -3.98212 	 -14.0336 	 84.6727
|  9> C 	 -3.62025 	 -15.1033 	 83.8622
| 10> C 	 -2.28003 	 -14.9981 	 83.343
| 11> C 	 -1.63209 	 -13.882 	 83.8351
| 12> H 	 -1.7168 	 -15.5519 	 82.5694
| 13> C 	 -4.51108 	 -16.2945 	 83.4779
| 14> H 	 -5.3641 	 -16.2654 	 84.1664
| 15> H 	 -4.00555 	 -17.2408 	 83.4352
| 16> C 	 -5.26515 	 -16.1969 	 82.0962
| 17> H 	 -5.8596 	 -17.1781 	 81.9467
| 18> H 	 -5.98426 	 -15.3977 	 82.1543
| 19> C 	 -4.2074 	 -15.9658 	 80.9796
| 20> H 	 -4.72329 	 -16.0673 	 79.9687
| 21> H 	 -3.71836 	 -15.0192 	 81.1195
| 22> H 	 -3.4005 	 -16.7307 	 81.0599
| 23> S 	 1.05579 	 -14.0861 	 84.4242
| 24> C 	 2.21809 	 -13.1309 	 83.5236
| 25> C 	 1.62537 	 -12.4341 	 82.4952
| 26> C 	 0.169748 	 -12.6004 	 82.4937
| 27> C 	 -0.274454 	 -13.4427 	 83.5008
| 28> H 	 2.19337 	 -11.8113 	 81.8922
| 29> C 	 -0.749351 	 -11.9425 	 81.461
| 30> H 	 -0.378142 	 -10.9526 	 81.6123
| 31> H 	 -1.73659 	 -11.6767 	 81.7859
| 32> C 	 -0.660541 	 -12.4821 	 80.0641
| 33> H 	 0.351283 	 -12.5885 	 79.7476
| 34> H 	 -1.14483 	 -11.8363 	 79.342
| 35> C 	 -1.41597 	 -13.7988 	 79.8614
| 36> H 	 -1.01711 	 -14.4552 	 80.647
| 37> H 	 -1.34066 	 -14.3447 	 78.9103
| 38> H 	 -2.46525 	 -13.7073 	 80.0414
| 39> H 	 -4.91097 	 -13.8881 	 85.3194
| 40> H 	 3.24207 	 -13.0246 	 83.8099
| 41> *
| 42>
| 43>                          ****END OF INPUT****

CARTESIAN COORDINATES (ANGSTROEM)
---------------------------------
  S     -2.581360  -12.914600   84.920100
  C     -3.982120  -14.033600   84.672700
  C     -3.620250  -15.103300   83.862200
  C     -2.280030  -14.998100   83.343000
  C     -1.632090  -13.882000   83.835100
  H     -1.716800  -15.551900   82.569400
  C     -4.511080  -16.294500   83.477900
  H     -5.364100  -16.265400   84.166400
  H     -4.005550  -17.240800   83.435200
  C     -5.265150  -16.196900   82.096200
  H     -5.859600  -17.178100   81.946700
  H     -5.984260  -15.397700   82.154300
  C     -4.207400  -15.965800   80.979600
  H     -4.723290  -16.067300   79.968700
  H     -3.718360  -15.019200   81.119500
  H     -3.400500  -16.730700   81.059900
  S      1.055790  -14.086100   84.424200
  C      2.218090  -13.130900   83.523600
  C      1.625370  -12.434100   82.495200
  C      0.169748  -12.600400   82.493700
  C     -0.274454  -13.442700   83.500800
  H      2.193370  -11.811300   81.892200
  C     -0.749351  -11.942500   81.461000
  H     -0.378142  -10.952600   81.612300
  H     -1.736590  -11.676700   81.785900
  C     -0.660541  -12.482100   80.064100
  H      0.351283  -12.588500   79.747600
  H     -1.144830  -11.836300   79.342000
  C     -1.415970  -13.798800   79.861400
  H     -1.017110  -14.455200   80.647000
  H     -1.340660  -14.344700   78.910300
  H     -2.465250  -13.707300   80.041400
  H     -4.910970  -13.888100   85.319400
  H      3.242070  -13.024600   83.809900

 Total Charge           Charge          ....    0
 Multiplicity           Mult            ....    1
 Number of Electrons    NEL             ....  134
 Basis Dimension        Dim             ....  322

ORBITAL ENERGIES
----------------

  NO   OCC          E(Eh)            E(eV)
   0   2.0000     -88.966592     -2420.9040
   1   2.0000     -88.963147     -2420.8103
   2   2.0000     -10.327617      -281.0287
   3   2.0000     -10.326820      -281.0070
   4   2.0000     -10.322452      -280.8882
   5   2.0000     -10.317281      -280.7475
   6   2.0000     -10.311294      -280.5846
   7   2.0000     -10.308146      -280.4989
   8   2.0000     -10.298068      -280.2247
   9   2.0000     -10.294557      -280.1291
  10   2.0000     -10.293785      -280.1081
  11   2.0000     -10.292992      -280.0866
  12   2.0000     -10.285862      -279.8925
  13   2.0000     -10.282010      -279.7877
  14   2.0000     -10.281889      -279.7844
  15   2.0000     -10.271587      -279.5041
  16   2.0000      -8.080768      -219.8889
  17   2.0000      -8.078166      -219.8181
  18   2.0000      -6.039253      -164.3364
  19   2.0000      -6.036748      -164.2683
  20   2.0000      -6.035368      -164.2307
  21   2.0000      -6.032545      -164.1539
  22   2.0000      -6.031564      -164.1272
  23   2.0000      -6.028933      -164.0556
  24   2.0000      -1.003689       -27.3118
  25   2.0000      -0.979522       -26.6541
  26   2.0000      -0.912599       -24.8331
  27   2.0000      -0.905839       -24.6491
  28   2.0000      -0.865681       -23.5564
  29   2.0000      -0.846939       -23.0464
  30   2.0000      -0.840284       -22.8653
  31   2.0000      -0.815348       -22.1868
  32   2.0000      -0.782956       -21.3053
  33   2.0000      -0.772276       -21.0147
  34   2.0000      -0.705791       -19.2055
  35   2.0000      -0.694849       -18.9078
  36   2.0000      -0.693079       -18.8596
  37   2.0000      -0.662319       -18.0226
  38   2.0000      -0.643116       -17.5001
  39   2.0000      -0.610434       -16.6108
  40   2.0000      -0.599477       -16.3126
  41   2.0000      -0.575532       -15.6610
  42   2.0000      -0.559194       -15.2164
  43   2.0000      -0.549195       -14.9444
  44   2.0000      -0.537515       -14.6265
  45   2.0000      -0.532948       -14.5023
  46   2.0000      -0.520419       -14.1613
  47   2.0000      -0.512854       -13.9555
  48   2.0000      -0.498866       -13.5748
  49   2.0000      -0.492053       -13.3895
  50   2.0000      -0.483447       -13.1553
  51   2.0000      -0.479923       -13.0594
  52   2.0000      -0.470943       -12.8150
  53   2.0000      -0.464102       -12.6289
  54   2.0000      -0.457504       -12.4493
  55   2.0000      -0.449959       -12.2440
  56   2.0000      -0.441052       -12.0016
  57   2.0000      -0.437393       -11.9021
  58   2.0000      -0.432493       -11.7687
  59   2.0000      -0.426826       -11.6145
  60   2.0000      -0.420395       -11.4395
  61   2.0000      -0.411050       -11.1852
  62   2.0000      -0.398041       -10.8312
  63   2.0000      -0.335812        -9.1379
  64   2.0000      -0.329874        -8.9763
  65   2.0000      -0.320621        -8.7245
  66   2.0000      -0.313924        -8.5423
  67   0.0000       0.047317         1.2876
  68   0.0000       0.054010         1.4697
  69   0.0000       0.106895         2.9087
  70   0.0000       0.116260         3.1636
  71   0.0000       0.129336         3.5194

MULLIKEN ATOMIC CHARGES
-----------------------
   0 S :    0.107217
   1 C :   -0.166363
   2 C :   -0.064203
   3 C :    0.040846
   4 C :   -0.181855
   5 H :    0.033065
   6 C :    0.064774
   7 H :    0.019513
   8 H :    0.036846
   9 C :   -0.092653
  10 H :    0.045785
  11 H :    0.026662
  12 C :   -0.087132
  13 H :    0.048027
  14 H :    0.051785
  15 H :    0.029354
  16 S :    0.111054
  17 C :   -0.088579
  18 C :   -0.003893
  19 C :   -0.051553
  20 C :   -0.188058
  21 H :   -0.005496
  22 C :    0.103197
  23 H :    0.012713
  24 H :    0.010711
  25 C :   -0.011269
  26 H :    0.019714
  27 H :    0.023212
  28 C :   -0.070478
  29 H :    0.016491
  30 H :    0.039196
  31 H :    0.035080
  32 H :    0.081899
  33 H :    0.054391
Sum of atomic charges:   -0.0000000

LOEWDIN ATOMIC CHARGES
----------------------
   0 S :    0.389192
   1 C :   -0.193861
   2 C :   -0.059795
   3 C :   -0.065741
   4 C :   -0.195194
   5 H :    0.040337
   6 C :   -0.030139
   7 H :    0.030309
   8 H :    0.028524
   9 C :   -0.037596
  10 H :    0.031832
  11 H :    0.016452
  12 C :   -0.072960
  13 H :    0.032825
  14 H :    0.021219
  15 H :    0.024237
  16 S :    0.405036
  17 C :   -0.174927
  18 C :   -0.062347
  19 C :   -0.048434
  20 C :   -0.215767
  21 H :    0.020156
  22 C :   -0.037115
  23 H :    0.036345
  24 H :    0.031001
  25 C :   -0.033303
  26 H :    0.021039
  27 H :    0.025029
  28 C :   -0.066423
  29 H :    0.021884
  30 H :    0.029237
  31 H :    0.019246
  32 H :    0.043200
  33 H :    0.026500

  Mayer bond orders larger than 0.100000
B(  0-S ,  1-C ) :   1.1209 B(  0-S ,  4-C ) :   1.1602 B(  1-C ,  2-C ) :   1.6337
B(  1-C , 32-H ) :   0.9587 B(  2-C ,  3-C ) :   1.1850 B(  2-C ,  6-C ) :   1.0291
B(  3-C ,  4-C ) :   1.6272 B(  3-C ,  5-H ) :   0.9820 B(  4-C , 20-C ) :   0.9933
B(  6-C ,  7-H ) :   0.9392 B(  6-C ,  8-H ) :   0.9488 B(  6-C ,  9-C ) :   1.0618
B(  9-C , 10-H ) :   0.9583 B(  9-C , 11-H ) :   0.9579 B(  9-C , 12-C ) :   1.0761
B( 12-C , 13-H ) :   0.9732 B( 12-C , 14-H ) :   0.9616 B( 12-C , 15-H ) :   0.9711
B( 16-S , 17-C ) :   1.1527 B( 16-S , 20-C ) :   1.1443 B( 17-C , 18-C ) :   1.6232
B( 17-C , 33-H ) :   0.9699 B( 18-C , 19-C ) :   1.2173 B( 18-C , 21-H ) :   1.0009
B( 19-C , 20-C ) :   1.6210 B( 19-C , 22-C ) :   1.0201 B( 22-C , 23-H ) :   0.9193
B( 22-C , 24-H ) :   0.9315 B( 22-C , 25-C ) :   1.0737 B( 25-C , 26-H ) :   0.9561
B( 25-C , 27-H ) :   0.9508 B( 25-C , 28-C ) :   1.0757 B( 28-C , 29-H ) :   0.9760
B( 28-C , 30-H ) :   0.9698 B( 28-C , 31-H ) :   0.9657

Dispersion correction           -0.016879377
FINAL SINGLE POINT ENERGY     -1339.871599479124

DIPOLE MOMENT
-------------
                                X             Y             Z
Electronic contribution:     13.21275       6.97975      23.04166
Nuclear contribution   :    -13.36397      -6.92840     -23.49119
                        -----------------------------------------
Total Dipole Moment    :     -0.15122       0.05135      -0.44953
                        -----------------------------------------
Magnitude (a.u.)       :      0.47706
Magnitude (Debye)      :      1.21258

Rotational constants in cm-1:     0.019474     0.010038     0.008003
Rotational constants in MHz :   583.820700   300.930775   239.923780

                             ****ORCA TERMINATED NORMALLY****
TOTAL RUN TIME: 0 days 0 hours 0 minutes 35 seconds 948 msec
