                         Program Version 4.2.1 -  RELEASE  -
|  1> ! wB97X-D3 SP def2-SVP
|  2> %pal
|  3> nprocs 16
|  4> end
|  5>
|  6> * xyz 0 1
|  7> S 	 46.5908 	 14.8279 	 75.1153
|  8> C 	 45.1089 	 14.1702 	 75.6511
|  9> C 	 44.2155 	 15.1885 	 76.0545
| 10> C 	 44.8819 	 16.505 	 76.0138
| 11> C 	 46.1611 	 16.4985 	 75.5593
| 12> H 	 44.535 	 17.4956 	 76.1918
| 13> C 	 42.8069 	 14.9601 	 76.5671
| 14> H 	 42.2203 	 14.7644 	 75.6558
| 15> H 	 42.3089 	 15.9041 	 76.9789
| 16> C 	 42.6836 	 13.7826 	 77.5585
| 17> H 	 42.88 	 12.8414 	 77.0036
| 18> H 	 43.3776 	 13.7174 	 78.3655
| 19> C 	 41.3694 	 13.64 	 78.2938
| 20> H 	 41.4395 	 13.062 	 79.1822
| 21> H 	 40.8473 	 14.6162 	 78.4333
| 22> H 	 40.5566 	 13.1396 	 77.8279
| 23> S 	 48.7952 	 17.1652 	 75.7427
| 24> C 	 49.3117 	 18.8593 	 75.7755
| 25> C 	 48.2166 	 19.7142 	 75.7319
| 26> C 	 46.9607 	 19.0559 	 75.608
| 27> C 	 47.0916 	 17.6274 	 75.5986
| 28> H 	 48.2566 	 20.76 	 75.7748
| 29> C 	 45.6723 	 19.8173 	 75.4783
| 30> H 	 45.0957 	 19.1976 	 74.7909
| 31> H 	 45.8208 	 20.6206 	 74.7189
| 32> C 	 45.0201 	 20.3253 	 76.7933
| 33> H 	 44.9957 	 19.4437 	 77.4433
| 34> H 	 44.0332 	 20.5202 	 76.5947
| 35> C 	 45.8429 	 21.5438 	 77.3515
| 36> H 	 46.0539 	 22.2705 	 76.5187
| 37> H 	 46.7959 	 21.1778 	 77.6491
| 38> H 	 45.3253 	 22.1049 	 78.1775
| 39> H 	 44.7282 	 13.1046 	 75.4439
| 40> H 	 50.3863 	 19.1316 	 75.9531
| 41> *
| 42>
| 43>                          ****END OF INPUT****

CARTESIAN COORDINATES (ANGSTROEM)
---------------------------------
  S     46.590800   14.827900   75.115300
  C     45.108900   14.170200   75.651100
  C     44.215500   15.188500   76.054500
  C     44.881900   16.505000   76.013800
  C     46.161100   16.498500   75.559300
  H     44.535000   17.495600   76.191800
  C     42.806900   14.960100   76.567100
  H     42.220300   14.764400   75.655800
  H     42.308900   15.904100   76.978900
  C     42.683600   13.782600   77.558500
  H     42.880000   12.841400   77.003600
  H     43.377600   13.717400   78.365500
  C     41.369400   13.640000   78.293800
  H     41.439500   13.062000   79.182200
  H     40.847300   14.616200   78.433300
  H     40.556600   13.139600   77.827900
  S     48.795200   17.165200   75.742700
  C     49.311700   18.859300   75.775500
  C     48.216600   19.714200   75.731900
  C     46.960700   19.055900   75.608000
  C     47.091600   17.627400   75.598600
  H     48.256600   20.760000   75.774800
  C     45.672300   19.817300   75.478300
  H     45.095700   19.197600   74.790900
  H     45.820800   20.620600   74.718900
  C     45.020100   20.325300   76.793300
  H     44.995700   19.443700   77.443300
  H     44.033200   20.520200   76.594700
  C     45.842900   21.543800   77.351500
  H     46.053900   22.270500   76.518700
  H     46.795900   21.177800   77.649100
  H     45.325300   22.104900   78.177500
  H     44.728200   13.104600   75.443900
  H     50.386300   19.131600   75.953100

 Total Charge           Charge          ....    0
 Multiplicity           Mult            ....    1
 Number of Electrons    NEL             ....  134
 Basis Dimension        Dim             ....  322

ORBITAL ENERGIES
----------------

  NO   OCC          E(Eh)            E(eV)
   0   2.0000     -88.966950     -2420.9138
   1   2.0000     -88.965687     -2420.8794
   2   2.0000     -10.336238      -281.2633
   3   2.0000     -10.330660      -281.1116
   4   2.0000     -10.324931      -280.9557
   5   2.0000     -10.321973      -280.8752
   6   2.0000     -10.311656      -280.5944
   7   2.0000     -10.307087      -280.4701
   8   2.0000     -10.303439      -280.3708
   9   2.0000     -10.294870      -280.1376
  10   2.0000     -10.293602      -280.1031
  11   2.0000     -10.293082      -280.0890
  12   2.0000     -10.291133      -280.0360
  13   2.0000     -10.289568      -279.9934
  14   2.0000     -10.288119      -279.9540
  15   2.0000     -10.272535      -279.5299
  16   2.0000      -8.080982      -219.8947
  17   2.0000      -8.080482      -219.8811
  18   2.0000      -6.039526      -164.3439
  19   2.0000      -6.039208      -164.3352
  20   2.0000      -6.035537      -164.2353
  21   2.0000      -6.034863      -164.2170
  22   2.0000      -6.031800      -164.1336
  23   2.0000      -6.031122      -164.1152
  24   2.0000      -1.003011       -27.2933
  25   2.0000      -0.979189       -26.6451
  26   2.0000      -0.911080       -24.7917
  27   2.0000      -0.908501       -24.7216
  28   2.0000      -0.871456       -23.7135
  29   2.0000      -0.852141       -23.1879
  30   2.0000      -0.844351       -22.9760
  31   2.0000      -0.816860       -22.2279
  32   2.0000      -0.782242       -21.2859
  33   2.0000      -0.766836       -20.8667
  34   2.0000      -0.716066       -19.4851
  35   2.0000      -0.709598       -19.3092
  36   2.0000      -0.688722       -18.7411
  37   2.0000      -0.669573       -18.2200
  38   2.0000      -0.640721       -17.4349
  39   2.0000      -0.610478       -16.6119
  40   2.0000      -0.596650       -16.2357
  41   2.0000      -0.570122       -15.5138
  42   2.0000      -0.554146       -15.0791
  43   2.0000      -0.552255       -15.0276
  44   2.0000      -0.543271       -14.7832
  45   2.0000      -0.531830       -14.4718
  46   2.0000      -0.518906       -14.1202
  47   2.0000      -0.507382       -13.8066
  48   2.0000      -0.501108       -13.6358
  49   2.0000      -0.495211       -13.4754
  50   2.0000      -0.489836       -13.3291
  51   2.0000      -0.484413       -13.1816
  52   2.0000      -0.474463       -12.9108
  53   2.0000      -0.464508       -12.6399
  54   2.0000      -0.457323       -12.4444
  55   2.0000      -0.447039       -12.1645
  56   2.0000      -0.444051       -12.0832
  57   2.0000      -0.441893       -12.0245
  58   2.0000      -0.437431       -11.9031
  59   2.0000      -0.427675       -11.6376
  60   2.0000      -0.423160       -11.5148
  61   2.0000      -0.411344       -11.1932
  62   2.0000      -0.404573       -11.0090
  63   2.0000      -0.363750        -9.8981
  64   2.0000      -0.334478        -9.1016
  65   2.0000      -0.323102        -8.7920
  66   2.0000      -0.281237        -7.6528
  67   0.0000       0.019548         0.5319
  68   0.0000       0.079148         2.1537
  69   0.0000       0.102634         2.7928
  70   0.0000       0.116683         3.1751
  71   0.0000       0.134878         3.6702

MULLIKEN ATOMIC CHARGES
-----------------------
   0 S :    0.110658
   1 C :   -0.144870
   2 C :   -0.088109
   3 C :    0.016344
   4 C :   -0.118005
   5 H :   -0.018403
   6 C :    0.052133
   7 H :    0.045476
   8 H :    0.035668
   9 C :   -0.062519
  10 H :    0.023458
  11 H :    0.031791
  12 C :   -0.040036
  13 H :    0.026342
  14 H :    0.023427
  15 H :    0.008224
  16 S :    0.092110
  17 C :   -0.107937
  18 C :    0.008206
  19 C :   -0.072448
  20 C :   -0.139081
  21 H :   -0.004392
  22 C :   -0.018273
  23 H :    0.027121
  24 H :    0.025068
  25 C :    0.007460
  26 H :    0.038493
  27 H :    0.014058
  28 C :   -0.066093
  29 H :    0.034600
  30 H :    0.037197
  31 H :    0.053486
  32 H :    0.087958
  33 H :    0.080887
Sum of atomic charges:   -0.0000000

LOEWDIN ATOMIC CHARGES
----------------------
   0 S :    0.401999
   1 C :   -0.228375
   2 C :   -0.059416
   3 C :   -0.065157
   4 C :   -0.186987
   5 H :    0.025210
   6 C :   -0.039120
   7 H :    0.039255
   8 H :    0.036208
   9 C :   -0.043852
  10 H :    0.026829
  11 H :    0.026517
  12 C :   -0.072731
  13 H :    0.024999
  14 H :    0.030170
  15 H :    0.018447
  16 S :    0.394763
  17 C :   -0.187467
  18 C :   -0.065517
  19 C :   -0.060199
  20 C :   -0.181642
  21 H :    0.022259
  22 C :   -0.049457
  23 H :    0.032737
  24 H :    0.034786
  25 C :   -0.026984
  26 H :    0.027967
  27 H :    0.012729
  28 C :   -0.064192
  29 H :    0.029382
  30 H :    0.021403
  31 H :    0.034100
  32 H :    0.051043
  33 H :    0.040292

  Mayer bond orders larger than 0.100000
B(  0-S ,  1-C ) :   1.1464 B(  0-S ,  4-C ) :   1.1241 B(  1-C ,  2-C ) :   1.6025
B(  1-C , 32-H ) :   0.9540 B(  2-C ,  3-C ) :   1.2197 B(  2-C ,  6-C ) :   1.0229
B(  3-C ,  4-C ) :   1.6027 B(  3-C ,  5-H ) :   0.9939 B(  4-C , 20-C ) :   1.0702
B(  6-C ,  7-H ) :   0.9293 B(  6-C ,  8-H ) :   0.9512 B(  6-C ,  9-C ) :   1.0590
B(  9-C , 10-H ) :   0.9455 B(  9-C , 11-H ) :   0.9683 B(  9-C , 12-C ) :   1.0824
B( 12-C , 13-H ) :   0.9761 B( 12-C , 14-H ) :   0.9718 B( 12-C , 15-H ) :   0.9696
B( 16-S , 17-C ) :   1.1545 B( 16-S , 20-C ) :   1.1505 B( 17-C , 18-C ) :   1.5648
B( 17-C , 20-C ) :   0.1055 B( 17-C , 33-H ) :   0.9628 B( 18-C , 19-C ) :   1.2857
B( 18-C , 21-H ) :   0.9918 B( 19-C , 20-C ) :   1.5451 B( 19-C , 22-C ) :   1.0373
B( 22-C , 23-H ) :   0.9310 B( 22-C , 24-H ) :   0.9339 B( 22-C , 25-C ) :   1.0422
B( 25-C , 26-H ) :   0.9538 B( 25-C , 27-H ) :   0.9577 B( 25-C , 28-C ) :   1.0621
B( 28-C , 29-H ) :   0.9758 B( 28-C , 30-H ) :   0.9733 B( 28-C , 31-H ) :   0.9740

Dispersion correction           -0.013986669
FINAL SINGLE POINT ENERGY     -1339.858045647909

DIPOLE MOMENT
-------------
                                X             Y             Z
Electronic contribution:     24.44576      -7.91043     -11.86061
Nuclear contribution   :    -25.07659       8.25734      12.03517
                        -----------------------------------------
Total Dipole Moment    :     -0.63083       0.34692       0.17456
                        -----------------------------------------
Magnitude (a.u.)       :      0.74079
Magnitude (Debye)      :      1.88294

Rotational constants in cm-1:     0.019820     0.007885     0.005981
Rotational constants in MHz :   594.177056   236.392509   179.309985

                             ****ORCA TERMINATED NORMALLY****
TOTAL RUN TIME: 0 days 0 hours 0 minutes 29 seconds 723 msec
