                         Program Version 4.2.1 -  RELEASE  -
|  1> ! wB97X-D3 SP def2-SVP
|  2> %pal
|  3> nprocs 16
|  4> end
|  5>
|  6> * xyz 0 1
|  7> S 	 43.6169 	 16.8046 	 87.0631
|  8> C 	 44.5061 	 18.2078 	 86.571
|  9> C 	 44.3648 	 19.2468 	 87.4664
| 10> C 	 43.4007 	 18.8594 	 88.4831
| 11> C 	 42.9508 	 17.5829 	 88.4417
| 12> H 	 43.1543 	 19.4965 	 89.2699
| 13> C 	 44.8173 	 20.6138 	 87.1923
| 14> H 	 44.1234 	 21.2908 	 87.7263
| 15> H 	 44.6513 	 20.7259 	 86.1201
| 16> C 	 46.3262 	 20.9934 	 87.4588
| 17> H 	 46.7324 	 20.5313 	 88.3667
| 18> H 	 46.9317 	 20.374 	 86.7837
| 19> C 	 46.7282 	 22.4749 	 87.455
| 20> H 	 46.6172 	 22.8842 	 86.5049
| 21> H 	 46.045 	 23.0569 	 88.0337
| 22> H 	 47.75 	 22.6763 	 87.7842
| 23> S 	 40.6716 	 16.0173 	 88.59
| 24> C 	 40.0353 	 15.69 	 90.15
| 25> C 	 40.9764 	 15.8907 	 91.116
| 26> C 	 42.1035 	 16.6626 	 90.6471
| 27> C 	 42.0569 	 16.8198 	 89.2928
| 28> H 	 40.8794 	 15.5412 	 92.1115
| 29> C 	 43.2485 	 17.1458 	 91.5373
| 30> H 	 42.9428 	 17.1082 	 92.6103
| 31> H 	 43.6453 	 18.1545 	 91.2379
| 32> C 	 44.4806 	 16.33 	 91.3587
| 33> H 	 45.0727 	 16.5404 	 90.4813
| 34> H 	 44.3201 	 15.2404 	 91.1946
| 35> C 	 45.4209 	 16.4211 	 92.542
| 36> H 	 46.3037 	 15.8037 	 92.2986
| 37> H 	 44.9466 	 15.9988 	 93.4289
| 38> H 	 45.6282 	 17.4724 	 92.6607
| 39> H 	 45.2528 	 18.218 	 85.8179
| 40> H 	 39.07 	 15.1001 	 90.3565
| 41> *
| 42>
| 43>                          ****END OF INPUT****

CARTESIAN COORDINATES (ANGSTROEM)
---------------------------------
  S     43.616900   16.804600   87.063100
  C     44.506100   18.207800   86.571000
  C     44.364800   19.246800   87.466400
  C     43.400700   18.859400   88.483100
  C     42.950800   17.582900   88.441700
  H     43.154300   19.496500   89.269900
  C     44.817300   20.613800   87.192300
  H     44.123400   21.290800   87.726300
  H     44.651300   20.725900   86.120100
  C     46.326200   20.993400   87.458800
  H     46.732400   20.531300   88.366700
  H     46.931700   20.374000   86.783700
  C     46.728200   22.474900   87.455000
  H     46.617200   22.884200   86.504900
  H     46.045000   23.056900   88.033700
  H     47.750000   22.676300   87.784200
  S     40.671600   16.017300   88.590000
  C     40.035300   15.690000   90.150000
  C     40.976400   15.890700   91.116000
  C     42.103500   16.662600   90.647100
  C     42.056900   16.819800   89.292800
  H     40.879400   15.541200   92.111500
  C     43.248500   17.145800   91.537300
  H     42.942800   17.108200   92.610300
  H     43.645300   18.154500   91.237900
  C     44.480600   16.330000   91.358700
  H     45.072700   16.540400   90.481300
  H     44.320100   15.240400   91.194600
  C     45.420900   16.421100   92.542000
  H     46.303700   15.803700   92.298600
  H     44.946600   15.998800   93.428900
  H     45.628200   17.472400   92.660700
  H     45.252800   18.218000   85.817900
  H     39.070000   15.100100   90.356500

 Total Charge           Charge          ....    0
 Multiplicity           Mult            ....    1
 Number of Electrons    NEL             ....  134
 Basis Dimension        Dim             ....  322

ORBITAL ENERGIES
----------------

  NO   OCC          E(Eh)            E(eV)
   0   2.0000     -88.965233     -2420.8671
   1   2.0000     -88.961630     -2420.7690
   2   2.0000     -10.323759      -280.9238
   3   2.0000     -10.321775      -280.8698
   4   2.0000     -10.320600      -280.8378
   5   2.0000     -10.307295      -280.4757
   6   2.0000     -10.302694      -280.3506
   7   2.0000     -10.298400      -280.2337
   8   2.0000     -10.297438      -280.2075
   9   2.0000     -10.295740      -280.1613
  10   2.0000     -10.292026      -280.0603
  11   2.0000     -10.291467      -280.0451
  12   2.0000     -10.287440      -279.9355
  13   2.0000     -10.274778      -279.5909
  14   2.0000     -10.274318      -279.5784
  15   2.0000     -10.273341      -279.5518
  16   2.0000      -8.080811      -219.8900
  17   2.0000      -8.077538      -219.8010
  18   2.0000      -6.039330      -164.3385
  19   2.0000      -6.035961      -164.2469
  20   2.0000      -6.035324      -164.2295
  21   2.0000      -6.031782      -164.1331
  22   2.0000      -6.031366      -164.1218
  23   2.0000      -6.028420      -164.0417
  24   2.0000      -1.015011       -27.6199
  25   2.0000      -0.991635       -26.9838
  26   2.0000      -0.917253       -24.9597
  27   2.0000      -0.912045       -24.8180
  28   2.0000      -0.872088       -23.7307
  29   2.0000      -0.855168       -23.2703
  30   2.0000      -0.847951       -23.0739
  31   2.0000      -0.820627       -22.3304
  32   2.0000      -0.785271       -21.3683
  33   2.0000      -0.772224       -21.0133
  34   2.0000      -0.712658       -19.3924
  35   2.0000      -0.701923       -19.1003
  36   2.0000      -0.685479       -18.6528
  37   2.0000      -0.664350       -18.0779
  38   2.0000      -0.643791       -17.5184
  39   2.0000      -0.623968       -16.9790
  40   2.0000      -0.602466       -16.3939
  41   2.0000      -0.570772       -15.5315
  42   2.0000      -0.565990       -15.4014
  43   2.0000      -0.551859       -15.0169
  44   2.0000      -0.531658       -14.4671
  45   2.0000      -0.530292       -14.4300
  46   2.0000      -0.519474       -14.1356
  47   2.0000      -0.513992       -13.9864
  48   2.0000      -0.505555       -13.7568
  49   2.0000      -0.502070       -13.6620
  50   2.0000      -0.492772       -13.4090
  51   2.0000      -0.486092       -13.2272
  52   2.0000      -0.473286       -12.8788
  53   2.0000      -0.465734       -12.6733
  54   2.0000      -0.460823       -12.5396
  55   2.0000      -0.451150       -12.2764
  56   2.0000      -0.448143       -12.1946
  57   2.0000      -0.442802       -12.0493
  58   2.0000      -0.438445       -11.9307
  59   2.0000      -0.424569       -11.5531
  60   2.0000      -0.417686       -11.3658
  61   2.0000      -0.408882       -11.1262
  62   2.0000      -0.404602       -11.0098
  63   2.0000      -0.349823        -9.5192
  64   2.0000      -0.329456        -8.9649
  65   2.0000      -0.327613        -8.9148
  66   2.0000      -0.294922        -8.0252
  67   0.0000       0.036961         1.0057
  68   0.0000       0.066638         1.8133
  69   0.0000       0.113406         3.0859
  70   0.0000       0.119714         3.2576
  71   0.0000       0.131090         3.5671

MULLIKEN ATOMIC CHARGES
-----------------------
   0 S :    0.101854
   1 C :   -0.096819
   2 C :   -0.099088
   3 C :    0.042031
   4 C :   -0.146647
   5 H :   -0.015495
   6 C :    0.045051
   7 H :    0.026617
   8 H :    0.040312
   9 C :   -0.081769
  10 H :    0.018436
  11 H :    0.012641
  12 C :    0.002652
  13 H :    0.011667
  14 H :    0.018519
  15 H :    0.039383
  16 S :    0.122297
  17 C :   -0.111888
  18 C :   -0.020594
  19 C :   -0.029675
  20 C :   -0.149765
  21 H :    0.004743
  22 C :    0.084462
  23 H :    0.026906
  24 H :    0.034564
  25 C :   -0.111131
  26 H :    0.030796
  27 H :    0.021294
  28 C :   -0.035172
  29 H :    0.038112
  30 H :    0.029086
  31 H :    0.024215
  32 H :    0.036701
  33 H :    0.085705
Sum of atomic charges:    0.0000000

LOEWDIN ATOMIC CHARGES
----------------------
   0 S :    0.420416
   1 C :   -0.195510
   2 C :   -0.064550
   3 C :   -0.061721
   4 C :   -0.196740
   5 H :    0.017767
   6 C :   -0.033926
   7 H :    0.033425
   8 H :    0.038538
   9 C :   -0.047166
  10 H :    0.022860
  11 H :    0.021602
  12 C :   -0.058569
  13 H :    0.016763
  14 H :    0.023075
  15 H :    0.032588
  16 S :    0.417159
  17 C :   -0.203515
  18 C :   -0.068538
  19 C :   -0.047784
  20 C :   -0.206426
  21 H :    0.024746
  22 C :   -0.034250
  23 H :    0.033823
  24 H :    0.041599
  25 C :   -0.053227
  26 H :    0.023262
  27 H :    0.021834
  28 C :   -0.058618
  29 H :    0.030924
  30 H :    0.020972
  31 H :    0.019879
  32 H :    0.020301
  33 H :    0.049006

  Mayer bond orders larger than 0.100000
B(  0-S ,  1-C ) :   1.1483 B(  0-S ,  4-C ) :   1.1524 B(  1-C ,  2-C ) :   1.6107
B(  1-C , 32-H ) :   0.9678 B(  2-C ,  3-C ) :   1.2346 B(  2-C ,  6-C ) :   1.0281
B(  3-C ,  4-C ) :   1.6018 B(  3-C ,  5-H ) :   1.0027 B(  4-C , 20-C ) :   1.0089
B(  6-C ,  7-H ) :   0.9460 B(  6-C ,  8-H ) :   0.9455 B(  6-C ,  9-C ) :   1.0382
B(  9-C , 10-H ) :   0.9612 B(  9-C , 11-H ) :   0.9519 B(  9-C , 12-C ) :   1.0794
B( 12-C , 13-H ) :   0.9734 B( 12-C , 14-H ) :   0.9734 B( 12-C , 15-H ) :   0.9738
B( 16-S , 17-C ) :   1.1578 B( 16-S , 20-C ) :   1.1333 B( 17-C , 18-C ) :   1.6142
B( 17-C , 33-H ) :   0.9552 B( 18-C , 19-C ) :   1.2309 B( 18-C , 21-H ) :   0.9932
B( 19-C , 20-C ) :   1.6162 B( 19-C , 22-C ) :   1.0575 B( 22-C , 23-H ) :   0.9390
B( 22-C , 24-H ) :   0.9212 B( 22-C , 25-C ) :   1.0527 B( 25-C , 26-H ) :   0.9506
B( 25-C , 27-H ) :   0.9550 B( 25-C , 28-C ) :   1.0929 B( 28-C , 29-H ) :   0.9728
B( 28-C , 30-H ) :   0.9768 B( 28-C , 31-H ) :   0.9718

Dispersion correction           -0.014023510
FINAL SINGLE POINT ENERGY     -1339.872229473038

DIPOLE MOMENT
-------------
                                X             Y             Z
Electronic contribution:    -21.96885     -16.52648     -11.14939
Nuclear contribution   :     22.30765      16.81266      11.51804
                        -----------------------------------------
Total Dipole Moment    :      0.33880       0.28618       0.36866
                        -----------------------------------------
Magnitude (a.u.)       :      0.57671
Magnitude (Debye)      :      1.46588

Rotational constants in cm-1:     0.019792     0.008050     0.006520
Rotational constants in MHz :   593.356173   241.325673   195.458355

                             ****ORCA TERMINATED NORMALLY****
TOTAL RUN TIME: 0 days 0 hours 0 minutes 30 seconds 338 msec
