                         Program Version 4.2.1 -  RELEASE  -
|  1> ! wB97X-D3 SP def2-SVP
|  2> %pal
|  3> nprocs 16
|  4> end
|  5>
|  6> * xyz 0 1
|  7> S 	 -66.8589 	 39.1664 	 125.522
|  8> C 	 -67.8107 	 40.6162 	 125.753
|  9> C 	 -68.0517 	 41.3013 	 124.531
| 10> C 	 -67.3199 	 40.7314 	 123.461
| 11> C 	 -66.7157 	 39.5742 	 123.794
| 12> H 	 -67.4038 	 41.0552 	 122.488
| 13> C 	 -68.9155 	 42.5114 	 124.3
| 14> H 	 -69.5019 	 42.8538 	 125.147
| 15> H 	 -69.6389 	 42.3982 	 123.545
| 16> C 	 -68.1437 	 43.7745 	 123.754
| 17> H 	 -67.4642 	 43.4905 	 122.945
| 18> H 	 -68.8172 	 44.6508 	 123.553
| 19> C 	 -67.1634 	 44.3611 	 124.702
| 20> H 	 -66.6349 	 45.2415 	 124.339
| 21> H 	 -67.6207 	 44.5915 	 125.656
| 22> H 	 -66.3731 	 43.6879 	 124.889
| 23> S 	 -67.1668 	 37.4922 	 122.144
| 24> C 	 -66.0067 	 37.0835 	 120.962
| 25> C 	 -64.8261 	 37.7058 	 121.204
| 26> C 	 -64.8558 	 38.6673 	 122.306
| 27> C 	 -66.1297 	 38.6668 	 122.819
| 28> H 	 -63.9474 	 37.6012 	 120.663
| 29> C 	 -63.7313 	 39.5173 	 122.713
| 30> H 	 -62.9903 	 38.7745 	 123.075
| 31> H 	 -64.0494 	 40.1875 	 123.552
| 32> C 	 -63.1989 	 40.3633 	 121.557
| 33> H 	 -62.998 	 39.7259 	 120.679
| 34> H 	 -62.251 	 40.8188 	 121.924
| 35> C 	 -64.1245 	 41.5125 	 121.167
| 36> H 	 -65.1456 	 41.1214 	 120.784
| 37> H 	 -63.8576 	 42.1779 	 120.41
| 38> H 	 -64.3958 	 42.1278 	 122.024
| 39> H 	 -68.2126 	 41.0263 	 126.664
| 40> H 	 -66.073 	 36.4241 	 120.144
| 41> *
| 42>
| 43>                          ****END OF INPUT****

CARTESIAN COORDINATES (ANGSTROEM)
---------------------------------
  S    -66.858900   39.166400  125.522000
  C    -67.810700   40.616200  125.753000
  C    -68.051700   41.301300  124.531000
  C    -67.319900   40.731400  123.461000
  C    -66.715700   39.574200  123.794000
  H    -67.403800   41.055200  122.488000
  C    -68.915500   42.511400  124.300000
  H    -69.501900   42.853800  125.147000
  H    -69.638900   42.398200  123.545000
  C    -68.143700   43.774500  123.754000
  H    -67.464200   43.490500  122.945000
  H    -68.817200   44.650800  123.553000
  C    -67.163400   44.361100  124.702000
  H    -66.634900   45.241500  124.339000
  H    -67.620700   44.591500  125.656000
  H    -66.373100   43.687900  124.889000
  S    -67.166800   37.492200  122.144000
  C    -66.006700   37.083500  120.962000
  C    -64.826100   37.705800  121.204000
  C    -64.855800   38.667300  122.306000
  C    -66.129700   38.666800  122.819000
  H    -63.947400   37.601200  120.663000
  C    -63.731300   39.517300  122.713000
  H    -62.990300   38.774500  123.075000
  H    -64.049400   40.187500  123.552000
  C    -63.198900   40.363300  121.557000
  H    -62.998000   39.725900  120.679000
  H    -62.251000   40.818800  121.924000
  C    -64.124500   41.512500  121.167000
  H    -65.145600   41.121400  120.784000
  H    -63.857600   42.177900  120.410000
  H    -64.395800   42.127800  122.024000
  H    -68.212600   41.026300  126.664000
  H    -66.073000   36.424100  120.144000

 Total Charge           Charge          ....    0
 Multiplicity           Mult            ....    1
 Number of Electrons    NEL             ....  134
 Basis Dimension        Dim             ....  322

ORBITAL ENERGIES
----------------

  NO   OCC          E(Eh)            E(eV)
   0   2.0000     -88.970175     -2421.0015
   1   2.0000     -88.962059     -2420.7807
   2   2.0000     -10.324083      -280.9326
   3   2.0000     -10.316927      -280.7379
   4   2.0000     -10.313497      -280.6445
   5   2.0000     -10.308239      -280.5014
   6   2.0000     -10.302922      -280.3568
   7   2.0000     -10.295782      -280.1625
   8   2.0000     -10.293720      -280.1064
   9   2.0000     -10.293072      -280.0887
  10   2.0000     -10.290619      -280.0220
  11   2.0000     -10.287229      -279.9297
  12   2.0000     -10.285112      -279.8721
  13   2.0000     -10.284347      -279.8513
  14   2.0000     -10.277914      -279.6763
  15   2.0000     -10.262318      -279.2519
  16   2.0000      -8.084088      -219.9792
  17   2.0000      -8.078589      -219.8296
  18   2.0000      -6.042569      -164.4267
  19   2.0000      -6.038801      -164.3241
  20   2.0000      -6.037060      -164.2768
  21   2.0000      -6.034839      -164.2163
  22   2.0000      -6.032872      -164.1628
  23   2.0000      -6.029248      -164.0642
  24   2.0000      -1.012873       -27.5617
  25   2.0000      -0.986217       -26.8363
  26   2.0000      -0.917122       -24.9562
  27   2.0000      -0.912481       -24.8299
  28   2.0000      -0.870990       -23.7008
  29   2.0000      -0.854012       -23.2388
  30   2.0000      -0.848845       -23.0982
  31   2.0000      -0.818070       -22.2608
  32   2.0000      -0.786042       -21.3893
  33   2.0000      -0.773384       -21.0449
  34   2.0000      -0.707290       -19.2463
  35   2.0000      -0.699073       -19.0227
  36   2.0000      -0.687842       -18.7171
  37   2.0000      -0.661809       -18.0087
  38   2.0000      -0.644321       -17.5329
  39   2.0000      -0.630220       -17.1492
  40   2.0000      -0.602220       -16.3872
  41   2.0000      -0.570721       -15.5301
  42   2.0000      -0.560051       -15.2398
  43   2.0000      -0.552725       -15.0404
  44   2.0000      -0.544834       -14.8257
  45   2.0000      -0.540613       -14.7108
  46   2.0000      -0.519570       -14.1382
  47   2.0000      -0.513665       -13.9775
  48   2.0000      -0.500643       -13.6232
  49   2.0000      -0.494989       -13.4693
  50   2.0000      -0.492261       -13.3951
  51   2.0000      -0.476981       -12.9793
  52   2.0000      -0.471011       -12.8169
  53   2.0000      -0.463752       -12.6193
  54   2.0000      -0.457844       -12.4586
  55   2.0000      -0.452862       -12.3230
  56   2.0000      -0.445679       -12.1275
  57   2.0000      -0.440426       -11.9846
  58   2.0000      -0.433365       -11.7925
  59   2.0000      -0.425967       -11.5912
  60   2.0000      -0.422986       -11.5100
  61   2.0000      -0.411968       -11.2102
  62   2.0000      -0.411597       -11.2001
  63   2.0000      -0.342572        -9.3219
  64   2.0000      -0.326879        -8.8948
  65   2.0000      -0.317926        -8.6512
  66   2.0000      -0.307758        -8.3745
  67   0.0000       0.048750         1.3265
  68   0.0000       0.060343         1.6420
  69   0.0000       0.115684         3.1479
  70   0.0000       0.117095         3.1863
  71   0.0000       0.127839         3.4787

MULLIKEN ATOMIC CHARGES
-----------------------
   0 S :    0.124831
   1 C :   -0.100882
   2 C :   -0.090433
   3 C :    0.075395
   4 C :   -0.178943
   5 H :   -0.012623
   6 C :    0.108113
   7 H :    0.012795
   8 H :    0.025097
   9 C :   -0.124891
  10 H :    0.032197
  11 H :    0.043244
  12 C :   -0.033957
  13 H :    0.027569
  14 H :    0.013061
  15 H :    0.014632
  16 S :    0.134586
  17 C :   -0.048115
  18 C :   -0.017301
  19 C :   -0.038501
  20 C :   -0.207950
  21 H :   -0.017395
  22 C :    0.070872
  23 H :    0.046856
  24 H :    0.039755
  25 C :   -0.070887
  26 H :    0.035691
  27 H :    0.036457
  28 C :   -0.058508
  29 H :    0.035590
  30 H :    0.026026
  31 H :    0.025003
  32 H :    0.037952
  33 H :    0.034663
Sum of atomic charges:   -0.0000000

LOEWDIN ATOMIC CHARGES
----------------------
   0 S :    0.396426
   1 C :   -0.198293
   2 C :   -0.056751
   3 C :   -0.046136
   4 C :   -0.184400
   5 H :    0.021340
   6 C :   -0.028506
   7 H :    0.028382
   8 H :    0.029069
   9 C :   -0.044686
  10 H :    0.024655
  11 H :    0.032107
  12 C :   -0.067779
  13 H :    0.025787
  14 H :    0.017057
  15 H :    0.015848
  16 S :    0.438709
  17 C :   -0.191644
  18 C :   -0.063031
  19 C :   -0.053658
  20 C :   -0.222410
  21 H :    0.013947
  22 C :   -0.035663
  23 H :    0.043419
  24 H :    0.038320
  25 C :   -0.039133
  26 H :    0.024808
  27 H :    0.028751
  28 C :   -0.070563
  29 H :    0.032647
  30 H :    0.017220
  31 H :    0.023738
  32 H :    0.025735
  33 H :    0.024689

  Mayer bond orders larger than 0.100000
B(  0-S ,  1-C ) :   1.1371 B(  0-S ,  4-C ) :   1.1345 B(  1-C ,  2-C ) :   1.6098
B(  1-C , 32-H ) :   0.9649 B(  2-C ,  3-C ) :   1.2245 B(  2-C ,  6-C ) :   1.0394
B(  3-C ,  4-C ) :   1.6132 B(  3-C ,  5-H ) :   1.0006 B(  4-C , 20-C ) :   0.9956
B(  6-C ,  7-H ) :   0.9418 B(  6-C ,  8-H ) :   0.9364 B(  6-C ,  9-C ) :   1.0587
B(  9-C , 10-H ) :   0.9573 B(  9-C , 11-H ) :   0.9579 B(  9-C , 12-C ) :   1.0793
B( 12-C , 13-H ) :   0.9721 B( 12-C , 14-H ) :   0.9715 B( 12-C , 15-H ) :   0.9719
B( 16-S , 17-C ) :   1.1440 B( 16-S , 20-C ) :   1.1592 B( 17-C , 18-C ) :   1.6221
B( 17-C , 33-H ) :   0.9725 B( 18-C , 19-C ) :   1.2200 B( 18-C , 21-H ) :   0.9953
B( 19-C , 20-C ) :   1.6128 B( 19-C , 22-C ) :   1.0512 B( 22-C , 23-H ) :   0.9223
B( 22-C , 24-H ) :   0.9293 B( 22-C , 25-C ) :   1.0718 B( 25-C , 26-H ) :   0.9573
B( 25-C , 27-H ) :   0.9534 B( 25-C , 28-C ) :   1.0693 B( 28-C , 29-H ) :   0.9708
B( 28-C , 30-H ) :   0.9743 B( 28-C , 31-H ) :   0.9718

Dispersion correction           -0.015800245
FINAL SINGLE POINT ENERGY     -1339.871135178190

DIPOLE MOMENT
-------------
                                X             Y             Z
Electronic contribution:     -7.18864     -26.03663       5.46857
Nuclear contribution   :      7.38328      26.47363      -5.78572
                        -----------------------------------------
Total Dipole Moment    :      0.19464       0.43700      -0.31715
                        -----------------------------------------
Magnitude (a.u.)       :      0.57397
Magnitude (Debye)      :      1.45891

Rotational constants in cm-1:     0.018990     0.009716     0.007827
Rotational constants in MHz :   569.305734   291.264218   234.647489

                             ****ORCA TERMINATED NORMALLY****
TOTAL RUN TIME: 0 days 0 hours 0 minutes 37 seconds 656 msec
