                         Program Version 4.2.1 -  RELEASE  -
|  1> ! wB97X-D3 SP def2-SVP
|  2> %pal
|  3> nprocs 16
|  4> end
|  5>
|  6> * xyz 0 1
|  7> S 	 49.2309 	 22.9412 	 87.4359
|  8> C 	 47.5574 	 22.5084 	 87.8597
|  9> C 	 47.1387 	 23.0193 	 89.0815
| 10> C 	 48.2006 	 23.7666 	 89.6882
| 11> C 	 49.4344 	 23.7745 	 89.0042
| 12> H 	 48.1388 	 24.2021 	 90.6696
| 13> C 	 45.7849 	 22.9219 	 89.7081
| 14> H 	 45.0531 	 22.4085 	 89.1441
| 15> H 	 45.3311 	 23.8638 	 89.9028
| 16> C 	 45.8238 	 22.2667 	 91.0902
| 17> H 	 46.6183 	 21.5201 	 91.0739
| 18> H 	 46.0759 	 23.0144 	 91.8803
| 19> C 	 44.4284 	 21.7985 	 91.5718
| 20> H 	 43.6094 	 22.4887 	 91.3773
| 21> H 	 44.2197 	 20.8386 	 91.1445
| 22> H 	 44.3238 	 21.7394 	 92.6144
| 23> S 	 51.53 	 25.2845 	 88.1892
| 24> C 	 52.589 	 25.9532 	 89.3004
| 25> C 	 52.443 	 25.4326 	 90.5341
| 26> C 	 51.3767 	 24.4583 	 90.6693
| 27> C 	 50.6751 	 24.3807 	 89.4882
| 28> H 	 53.0633 	 25.8194 	 91.3312
| 29> C 	 50.9865 	 23.9175 	 92.0192
| 30> H 	 51.6518 	 23.0491 	 92.1965
| 31> H 	 49.9789 	 23.4893 	 91.899
| 32> C 	 50.8673 	 24.8806 	 93.1506
| 33> H 	 50.2627 	 25.7562 	 92.8579
| 34> H 	 51.8707 	 25.2557 	 93.4098
| 35> C 	 50.2607 	 24.2432 	 94.4252
| 36> H 	 50.6778 	 23.3057 	 94.7967
| 37> H 	 49.1984 	 24.0744 	 94.2301
| 38> H 	 50.3765 	 24.9732 	 95.2096
| 39> H 	 46.9895 	 22.0555 	 87.0495
| 40> H 	 53.2193 	 26.8449 	 89.1146
| 41> *
| 42>
| 43>                          ****END OF INPUT****

CARTESIAN COORDINATES (ANGSTROEM)
---------------------------------
  S     49.230900   22.941200   87.435900
  C     47.557400   22.508400   87.859700
  C     47.138700   23.019300   89.081500
  C     48.200600   23.766600   89.688200
  C     49.434400   23.774500   89.004200
  H     48.138800   24.202100   90.669600
  C     45.784900   22.921900   89.708100
  H     45.053100   22.408500   89.144100
  H     45.331100   23.863800   89.902800
  C     45.823800   22.266700   91.090200
  H     46.618300   21.520100   91.073900
  H     46.075900   23.014400   91.880300
  C     44.428400   21.798500   91.571800
  H     43.609400   22.488700   91.377300
  H     44.219700   20.838600   91.144500
  H     44.323800   21.739400   92.614400
  S     51.530000   25.284500   88.189200
  C     52.589000   25.953200   89.300400
  C     52.443000   25.432600   90.534100
  C     51.376700   24.458300   90.669300
  C     50.675100   24.380700   89.488200
  H     53.063300   25.819400   91.331200
  C     50.986500   23.917500   92.019200
  H     51.651800   23.049100   92.196500
  H     49.978900   23.489300   91.899000
  C     50.867300   24.880600   93.150600
  H     50.262700   25.756200   92.857900
  H     51.870700   25.255700   93.409800
  C     50.260700   24.243200   94.425200
  H     50.677800   23.305700   94.796700
  H     49.198400   24.074400   94.230100
  H     50.376500   24.973200   95.209600
  H     46.989500   22.055500   87.049500
  H     53.219300   26.844900   89.114600

 Total Charge           Charge          ....    0
 Multiplicity           Mult            ....    1
 Number of Electrons    NEL             ....  134
 Basis Dimension        Dim             ....  322

ORBITAL ENERGIES
----------------

  NO   OCC          E(Eh)            E(eV)
   0   2.0000     -88.966048     -2420.8892
   1   2.0000     -88.958394     -2420.6810
   2   2.0000     -10.335951      -281.2555
   3   2.0000     -10.329874      -281.0902
   4   2.0000     -10.318482      -280.7802
   5   2.0000     -10.309905      -280.5468
   6   2.0000     -10.306967      -280.4668
   7   2.0000     -10.305573      -280.4289
   8   2.0000     -10.294724      -280.1337
   9   2.0000     -10.291807      -280.0543
  10   2.0000     -10.291319      -280.0410
  11   2.0000     -10.289214      -279.9837
  12   2.0000     -10.287880      -279.9474
  13   2.0000     -10.285638      -279.8864
  14   2.0000     -10.281164      -279.7647
  15   2.0000     -10.274775      -279.5908
  16   2.0000      -8.079783      -219.8621
  17   2.0000      -8.074694      -219.7236
  18   2.0000      -6.038403      -164.3133
  19   2.0000      -6.034466      -164.2062
  20   2.0000      -6.033076      -164.1684
  21   2.0000      -6.030451      -164.0969
  22   2.0000      -6.029089      -164.0598
  23   2.0000      -6.025360      -163.9584
  24   2.0000      -1.005927       -27.3727
  25   2.0000      -0.980687       -26.6858
  26   2.0000      -0.917405       -24.9638
  27   2.0000      -0.915165       -24.9029
  28   2.0000      -0.869337       -23.6559
  29   2.0000      -0.854551       -23.2535
  30   2.0000      -0.843877       -22.9631
  31   2.0000      -0.811489       -22.0818
  32   2.0000      -0.787160       -21.4197
  33   2.0000      -0.777101       -21.1460
  34   2.0000      -0.710291       -19.3280
  35   2.0000      -0.700253       -19.0548
  36   2.0000      -0.692714       -18.8497
  37   2.0000      -0.657385       -17.8884
  38   2.0000      -0.641334       -17.4516
  39   2.0000      -0.623970       -16.9791
  40   2.0000      -0.600745       -16.3471
  41   2.0000      -0.577425       -15.7125
  42   2.0000      -0.571570       -15.5532
  43   2.0000      -0.559120       -15.2144
  44   2.0000      -0.531476       -14.4622
  45   2.0000      -0.520312       -14.1584
  46   2.0000      -0.515439       -14.0258
  47   2.0000      -0.511744       -13.9253
  48   2.0000      -0.509189       -13.8557
  49   2.0000      -0.497795       -13.5457
  50   2.0000      -0.493137       -13.4189
  51   2.0000      -0.484930       -13.1956
  52   2.0000      -0.471490       -12.8299
  53   2.0000      -0.467690       -12.7265
  54   2.0000      -0.459416       -12.5014
  55   2.0000      -0.449901       -12.2424
  56   2.0000      -0.448271       -12.1981
  57   2.0000      -0.443493       -12.0681
  58   2.0000      -0.432419       -11.7667
  59   2.0000      -0.427544       -11.6341
  60   2.0000      -0.416419       -11.3313
  61   2.0000      -0.414009       -11.2658
  62   2.0000      -0.411424       -11.1954
  63   2.0000      -0.351718        -9.5707
  64   2.0000      -0.331072        -9.0089
  65   2.0000      -0.328997        -8.9525
  66   2.0000      -0.287019        -7.8102
  67   0.0000       0.028561         0.7772
  68   0.0000       0.069818         1.8998
  69   0.0000       0.106965         2.9107
  70   0.0000       0.119442         3.2502
  71   0.0000       0.124587         3.3902

MULLIKEN ATOMIC CHARGES
-----------------------
   0 S :    0.096126
   1 C :   -0.148225
   2 C :   -0.049798
   3 C :    0.015242
   4 C :   -0.123414
   5 H :    0.005825
   6 C :    0.129699
   7 H :    0.005475
   8 H :    0.022041
   9 C :   -0.133988
  10 H :    0.042194
  11 H :    0.030726
  12 C :   -0.024027
  13 H :    0.022580
  14 H :    0.034208
  15 H :    0.016362
  16 S :    0.087786
  17 C :   -0.073876
  18 C :   -0.063850
  19 C :   -0.018525
  20 C :   -0.171614
  21 H :    0.014731
  22 C :    0.077107
  23 H :    0.042704
  24 H :    0.005665
  25 C :   -0.097310
  26 H :    0.041199
  27 H :    0.028157
  28 C :   -0.036542
  29 H :    0.034366
  30 H :    0.030424
  31 H :    0.031692
  32 H :    0.057927
  33 H :    0.068931
Sum of atomic charges:   -0.0000000

LOEWDIN ATOMIC CHARGES
----------------------
   0 S :    0.374436
   1 C :   -0.184217
   2 C :   -0.059427
   3 C :   -0.061525
   4 C :   -0.182960
   5 H :    0.024650
   6 C :   -0.028044
   7 H :    0.023923
   8 H :    0.031941
   9 C :   -0.039102
  10 H :    0.023910
  11 H :    0.024097
  12 C :   -0.063662
  13 H :    0.027955
  14 H :    0.023444
  15 H :    0.020151
  16 S :    0.403881
  17 C :   -0.205817
  18 C :   -0.080083
  19 C :   -0.050597
  20 C :   -0.175598
  21 H :    0.028839
  22 C :   -0.038830
  23 H :    0.040429
  24 H :    0.028806
  25 C :   -0.041759
  26 H :    0.031530
  27 H :    0.020528
  28 C :   -0.060662
  29 H :    0.026207
  30 H :    0.024889
  31 H :    0.025975
  32 H :    0.026389
  33 H :    0.040304

  Mayer bond orders larger than 0.100000
B(  0-S ,  1-C ) :   1.1320 B(  0-S ,  4-C ) :   1.1366 B(  1-C ,  2-C ) :   1.5974
B(  1-C , 32-H ) :   0.9684 B(  2-C ,  3-C ) :   1.2320 B(  2-C ,  6-C ) :   1.0443
B(  3-C ,  4-C ) :   1.5739 B(  3-C ,  5-H ) :   0.9906 B(  4-C , 20-C ) :   1.0516
B(  6-C ,  7-H ) :   0.9462 B(  6-C ,  8-H ) :   0.9273 B(  6-C ,  9-C ) :   1.0426
B(  9-C , 10-H ) :   0.9672 B(  9-C , 11-H ) :   0.9552 B(  9-C , 12-C ) :   1.0804
B( 12-C , 13-H ) :   0.9693 B( 12-C , 14-H ) :   0.9763 B( 12-C , 15-H ) :   0.9750
B( 16-S , 17-C ) :   1.1583 B( 16-S , 20-C ) :   1.1238 B( 17-C , 18-C ) :   1.6488
B( 17-C , 33-H ) :   0.9579 B( 18-C , 19-C ) :   1.1866 B( 18-C , 21-H ) :   0.9912
B( 19-C , 20-C ) :   1.6258 B( 19-C , 22-C ) :   1.0457 B( 22-C , 23-H ) :   0.9157
B( 22-C , 24-H ) :   0.9381 B( 22-C , 25-C ) :   1.0733 B( 25-C , 26-H ) :   0.9549
B( 25-C , 27-H ) :   0.9459 B( 25-C , 28-C ) :   1.0855 B( 28-C , 29-H ) :   0.9758
B( 28-C , 30-H ) :   0.9745 B( 28-C , 31-H ) :   0.9749

Dispersion correction           -0.013626464
FINAL SINGLE POINT ENERGY     -1339.877443984748

DIPOLE MOMENT
-------------
                                X             Y             Z
Electronic contribution:     16.79568       4.83398     -28.66775
Nuclear contribution   :    -17.16458      -4.68619      29.45310
                        -----------------------------------------
Total Dipole Moment    :     -0.36891       0.14779       0.78535
                        -----------------------------------------
Magnitude (a.u.)       :      0.88017
Magnitude (Debye)      :      2.23722

Rotational constants in cm-1:     0.016147     0.009389     0.006193
Rotational constants in MHz :   484.061080   281.483468   185.647639

                             ****ORCA TERMINATED NORMALLY****
TOTAL RUN TIME: 0 days 0 hours 0 minutes 29 seconds 598 msec
