                         Program Version 4.2.1 -  RELEASE  -
|  1> ! wB97X-D3 SP def2-SVP
|  2> %pal
|  3> nprocs 16
|  4> end
|  5>
|  6> * xyz 0 1
|  7> S 	 -52.5135 	 37.8389 	 86.5928
|  8> C 	 -54.2636 	 37.7098 	 86.566
|  9> C 	 -54.9162 	 38.3532 	 87.6138
| 10> C 	 -53.9463 	 38.9784 	 88.4645
| 11> C 	 -52.6501 	 38.8815 	 88.0256
| 12> H 	 -54.0651 	 39.5629 	 89.4239
| 13> C 	 -56.4519 	 38.5027 	 87.7998
| 14> H 	 -56.5797 	 39.1926 	 88.5789
| 15> H 	 -56.8839 	 37.5556 	 88.1902
| 16> C 	 -57.2743 	 38.9153 	 86.597
| 17> H 	 -56.7536 	 38.536 	 85.6852
| 18> H 	 -58.2 	 38.4414 	 86.5698
| 19> C 	 -57.4188 	 40.4513 	 86.3176
| 20> H 	 -56.4505 	 40.8525 	 86.0805
| 21> H 	 -58.1116 	 40.7214 	 85.4635
| 22> H 	 -57.7826 	 41.0045 	 87.1094
| 23> S 	 -50.4606 	 40.4874 	 87.8795
| 24> C 	 -49.4426 	 40.5711 	 89.3367
| 25> C 	 -49.7743 	 39.5511 	 90.1747
| 26> C 	 -50.9509 	 38.8419 	 89.8681
| 27> C 	 -51.5082 	 39.3937 	 88.7549
| 28> H 	 -49.2137 	 39.5465 	 91.1511
| 29> C 	 -51.5556 	 37.7935 	 90.7473
| 30> H 	 -52.5979 	 37.8388 	 90.9044
| 31> H 	 -51.1783 	 37.9571 	 91.7841
| 32> C 	 -51.1532 	 36.4125 	 90.3353
| 33> H 	 -50.1279 	 36.2075 	 90.7305
| 34> H 	 -51.0427 	 36.2955 	 89.2038
| 35> C 	 -52.1904 	 35.4314 	 90.7612
| 36> H 	 -52.2781 	 35.6128 	 91.8698
| 37> H 	 -51.7762 	 34.4533 	 90.6697
| 38> H 	 -53.0902 	 35.5757 	 90.1556
| 39> H 	 -54.7174 	 37.1469 	 85.7445
| 40> H 	 -48.6418 	 41.3216 	 89.4799
| 41> *
| 42>
| 43>                          ****END OF INPUT****

CARTESIAN COORDINATES (ANGSTROEM)
---------------------------------
  S    -52.513500   37.838900   86.592800
  C    -54.263600   37.709800   86.566000
  C    -54.916200   38.353200   87.613800
  C    -53.946300   38.978400   88.464500
  C    -52.650100   38.881500   88.025600
  H    -54.065100   39.562900   89.423900
  C    -56.451900   38.502700   87.799800
  H    -56.579700   39.192600   88.578900
  H    -56.883900   37.555600   88.190200
  C    -57.274300   38.915300   86.597000
  H    -56.753600   38.536000   85.685200
  H    -58.200000   38.441400   86.569800
  C    -57.418800   40.451300   86.317600
  H    -56.450500   40.852500   86.080500
  H    -58.111600   40.721400   85.463500
  H    -57.782600   41.004500   87.109400
  S    -50.460600   40.487400   87.879500
  C    -49.442600   40.571100   89.336700
  C    -49.774300   39.551100   90.174700
  C    -50.950900   38.841900   89.868100
  C    -51.508200   39.393700   88.754900
  H    -49.213700   39.546500   91.151100
  C    -51.555600   37.793500   90.747300
  H    -52.597900   37.838800   90.904400
  H    -51.178300   37.957100   91.784100
  C    -51.153200   36.412500   90.335300
  H    -50.127900   36.207500   90.730500
  H    -51.042700   36.295500   89.203800
  C    -52.190400   35.431400   90.761200
  H    -52.278100   35.612800   91.869800
  H    -51.776200   34.453300   90.669700
  H    -53.090200   35.575700   90.155600
  H    -54.717400   37.146900   85.744500
  H    -48.641800   41.321600   89.479900

 Total Charge           Charge          ....    0
 Multiplicity           Mult            ....    1
 Number of Electrons    NEL             ....  134
 Basis Dimension        Dim             ....  322

ORBITAL ENERGIES
----------------

  NO   OCC          E(Eh)            E(eV)
   0   2.0000     -88.967083     -2420.9174
   1   2.0000     -88.961678     -2420.7703
   2   2.0000     -10.322320      -280.8846
   3   2.0000     -10.318948      -280.7928
   4   2.0000     -10.317904      -280.7644
   5   2.0000     -10.316545      -280.7275
   6   2.0000     -10.307803      -280.4896
   7   2.0000     -10.299092      -280.2525
   8   2.0000     -10.296464      -280.1810
   9   2.0000     -10.294151      -280.1181
  10   2.0000     -10.293747      -280.1071
  11   2.0000     -10.285598      -279.8854
  12   2.0000     -10.284677      -279.8603
  13   2.0000     -10.281336      -279.7694
  14   2.0000     -10.273657      -279.5604
  15   2.0000     -10.273249      -279.5493
  16   2.0000      -8.081189      -219.9003
  17   2.0000      -8.076533      -219.7736
  18   2.0000      -6.039610      -164.3461
  19   2.0000      -6.035910      -164.2455
  20   2.0000      -6.034990      -164.2204
  21   2.0000      -6.031961      -164.1380
  22   2.0000      -6.031237      -164.1183
  23   2.0000      -6.027121      -164.0063
  24   2.0000      -1.008782       -27.4504
  25   2.0000      -0.982232       -26.7279
  26   2.0000      -0.919384       -25.0177
  27   2.0000      -0.907774       -24.7018
  28   2.0000      -0.867246       -23.5990
  29   2.0000      -0.854539       -23.2532
  30   2.0000      -0.845436       -23.0055
  31   2.0000      -0.810555       -22.0563
  32   2.0000      -0.784988       -21.3606
  33   2.0000      -0.772513       -21.0212
  34   2.0000      -0.709977       -19.3195
  35   2.0000      -0.695406       -18.9230
  36   2.0000      -0.685555       -18.6549
  37   2.0000      -0.657088       -17.8803
  38   2.0000      -0.642867       -17.4933
  39   2.0000      -0.612462       -16.6659
  40   2.0000      -0.598939       -16.2980
  41   2.0000      -0.570379       -15.5208
  42   2.0000      -0.567361       -15.4387
  43   2.0000      -0.551257       -15.0005
  44   2.0000      -0.530977       -14.4486
  45   2.0000      -0.524306       -14.2671
  46   2.0000      -0.515631       -14.0310
  47   2.0000      -0.513242       -13.9660
  48   2.0000      -0.508560       -13.8386
  49   2.0000      -0.491504       -13.3745
  50   2.0000      -0.488001       -13.2792
  51   2.0000      -0.477208       -12.9855
  52   2.0000      -0.470430       -12.8010
  53   2.0000      -0.464652       -12.6438
  54   2.0000      -0.457170       -12.4402
  55   2.0000      -0.444193       -12.0871
  56   2.0000      -0.438326       -11.9275
  57   2.0000      -0.437876       -11.9152
  58   2.0000      -0.433252       -11.7894
  59   2.0000      -0.427404       -11.6302
  60   2.0000      -0.423224       -11.5165
  61   2.0000      -0.417259       -11.3542
  62   2.0000      -0.403762       -10.9869
  63   2.0000      -0.339009        -9.2249
  64   2.0000      -0.331507        -9.0208
  65   2.0000      -0.329740        -8.9727
  66   2.0000      -0.298157        -8.1133
  67   0.0000       0.038752         1.0545
  68   0.0000       0.055414         1.5079
  69   0.0000       0.110038         2.9943
  70   0.0000       0.116093         3.1590
  71   0.0000       0.128718         3.5026

MULLIKEN ATOMIC CHARGES
-----------------------
   0 S :    0.115865
   1 C :   -0.155222
   2 C :   -0.069791
   3 C :   -0.007768
   4 C :   -0.146880
   5 H :    0.037662
   6 C :    0.111925
   7 H :    0.001034
   8 H :    0.041307
   9 C :   -0.059325
  10 H :    0.026177
  11 H :    0.013922
  12 C :   -0.045847
  13 H :    0.032011
  14 H :    0.038046
  15 H :    0.012709
  16 S :    0.091995
  17 C :   -0.107457
  18 C :   -0.044165
  19 C :    0.004798
  20 C :   -0.212566
  21 H :    0.035063
  22 C :    0.105713
  23 H :    0.010712
  24 H :    0.018380
  25 C :   -0.122930
  26 H :    0.028856
  27 H :    0.039294
  28 C :   -0.027945
  29 H :    0.027099
  30 H :    0.025025
  31 H :    0.056570
  32 H :    0.058653
  33 H :    0.067080
Sum of atomic charges:   -0.0000000

LOEWDIN ATOMIC CHARGES
----------------------
   0 S :    0.390141
   1 C :   -0.195031
   2 C :   -0.063346
   3 C :   -0.070279
   4 C :   -0.191941
   5 H :    0.043993
   6 C :   -0.025327
   7 H :    0.020611
   8 H :    0.041163
   9 C :   -0.037808
  10 H :    0.029830
  11 H :    0.014850
  12 C :   -0.062137
  13 H :    0.025253
  14 H :    0.034663
  15 H :    0.009507
  16 S :    0.383905
  17 C :   -0.174642
  18 C :   -0.077465
  19 C :   -0.049980
  20 C :   -0.197741
  21 H :    0.039679
  22 C :   -0.030845
  23 H :    0.023114
  24 H :    0.036266
  25 C :   -0.049089
  26 H :    0.024107
  27 H :    0.025575
  28 C :   -0.062286
  29 H :    0.028706
  30 H :    0.021571
  31 H :    0.033302
  32 H :    0.025803
  33 H :    0.035879

  Mayer bond orders larger than 0.100000
B(  0-S ,  1-C ) :   1.1420 B(  0-S ,  4-C ) :   1.1301 B(  1-C ,  2-C ) :   1.6178
B(  1-C , 32-H ) :   0.9640 B(  2-C ,  3-C ) :   1.2134 B(  2-C ,  6-C ) :   1.0123
B(  3-C ,  4-C ) :   1.6327 B(  3-C ,  5-H ) :   0.9800 B(  4-C , 20-C ) :   1.0266
B(  6-C ,  7-H ) :   0.9453 B(  6-C ,  8-H ) :   0.9331 B(  6-C ,  9-C ) :   1.0657
B(  9-C , 10-H ) :   0.9607 B(  9-C , 11-H ) :   0.9562 B(  9-C , 12-C ) :   1.0711
B( 12-C , 13-H ) :   0.9792 B( 12-C , 14-H ) :   0.9755 B( 12-C , 15-H ) :   0.9779
B( 16-S , 17-C ) :   1.1332 B( 16-S , 20-C ) :   1.1371 B( 17-C , 18-C ) :   1.6447
B( 17-C , 33-H ) :   0.9661 B( 18-C , 19-C ) :   1.2211 B( 18-C , 21-H ) :   0.9737
B( 19-C , 20-C ) :   1.6168 B( 19-C , 22-C ) :   1.0378 B( 22-C , 23-H ) :   0.9428
B( 22-C , 24-H ) :   0.9168 B( 22-C , 25-C ) :   1.0407 B( 25-C , 26-H ) :   0.9504
B( 25-C , 27-H ) :   0.9620 B( 25-C , 28-C ) :   1.0850 B( 28-C , 29-H ) :   0.9677
B( 28-C , 30-H ) :   0.9701 B( 28-C , 31-H ) :   0.9745

Dispersion correction           -0.014809301
FINAL SINGLE POINT ENERGY     -1339.864857448897

DIPOLE MOMENT
-------------
                                X             Y             Z
Electronic contribution:     18.58782       7.88882      -8.18205
Nuclear contribution   :    -18.88333      -8.03819       8.65631
                        -----------------------------------------
Total Dipole Moment    :     -0.29552      -0.14937       0.47426
                        -----------------------------------------
Magnitude (a.u.)       :      0.57841
Magnitude (Debye)      :      1.47021

Rotational constants in cm-1:     0.019915     0.008542     0.007096
Rotational constants in MHz :   597.027396   256.084332   212.732784

                             ****ORCA TERMINATED NORMALLY****
TOTAL RUN TIME: 0 days 0 hours 0 minutes 30 seconds 731 msec
