                         Program Version 4.2.1 -  RELEASE  -
|  1> ! wB97X-D3 SP def2-SVP
|  2> %pal
|  3> nprocs 16
|  4> end
|  5>
|  6> * xyz 0 1
|  7> S 	 -37.0631 	 70.3596 	 108.665
|  8> C 	 -37.0282 	 69.7592 	 107.079
|  9> C 	 -35.7067 	 69.4873 	 106.633
| 10> C 	 -34.7642 	 69.7589 	 107.654
| 11> C 	 -35.3041 	 70.2226 	 108.86
| 12> H 	 -33.7191 	 69.4313 	 107.621
| 13> C 	 -35.2913 	 68.9296 	 105.326
| 14> H 	 -34.2962 	 69.1089 	 105.283
| 15> H 	 -35.778 	 69.4332 	 104.472
| 16> C 	 -35.338 	 67.4139 	 105.192
| 17> H 	 -35.2462 	 66.8649 	 106.194
| 18> H 	 -36.3069 	 67.034 	 104.836
| 19> C 	 -34.4333 	 66.9099 	 104.036
| 20> H 	 -33.4206 	 66.8241 	 104.356
| 21> H 	 -34.7326 	 65.8677 	 103.864
| 22> H 	 -34.6053 	 67.475 	 103.196
| 23> S 	 -35.5931 	 70.6862 	 111.564
| 24> C 	 -34.1873 	 71.0883 	 112.453
| 25> C 	 -33.1437 	 71.4721 	 111.715
| 26> C 	 -33.4158 	 71.2164 	 110.338
| 27> C 	 -34.6299 	 70.6691 	 110.071
| 28> H 	 -32.123 	 71.7104 	 112.009
| 29> C 	 -32.2722 	 71.4877 	 109.415
| 30> H 	 -32.2623 	 70.7258 	 108.639
| 31> H 	 -31.286 	 71.4449 	 109.836
| 32> C 	 -32.3955 	 72.8325 	 108.68
| 33> H 	 -31.4799 	 73.0164 	 108.023
| 34> H 	 -32.3433 	 73.5928 	 109.386
| 35> C 	 -33.7147 	 72.9534 	 107.911
| 36> H 	 -34.7012 	 73.0032 	 108.486
| 37> H 	 -33.8132 	 72.0961 	 107.246
| 38> H 	 -33.6531 	 73.9196 	 107.32
| 39> H 	 -37.7654 	 69.6215 	 106.33
| 40> H 	 -34.0299 	 70.9274 	 113.58
| 41> *
| 42>
| 43>                          ****END OF INPUT****

CARTESIAN COORDINATES (ANGSTROEM)
---------------------------------
  S    -37.063100   70.359600  108.665000
  C    -37.028200   69.759200  107.079000
  C    -35.706700   69.487300  106.633000
  C    -34.764200   69.758900  107.654000
  C    -35.304100   70.222600  108.860000
  H    -33.719100   69.431300  107.621000
  C    -35.291300   68.929600  105.326000
  H    -34.296200   69.108900  105.283000
  H    -35.778000   69.433200  104.472000
  C    -35.338000   67.413900  105.192000
  H    -35.246200   66.864900  106.194000
  H    -36.306900   67.034000  104.836000
  C    -34.433300   66.909900  104.036000
  H    -33.420600   66.824100  104.356000
  H    -34.732600   65.867700  103.864000
  H    -34.605300   67.475000  103.196000
  S    -35.593100   70.686200  111.564000
  C    -34.187300   71.088300  112.453000
  C    -33.143700   71.472100  111.715000
  C    -33.415800   71.216400  110.338000
  C    -34.629900   70.669100  110.071000
  H    -32.123000   71.710400  112.009000
  C    -32.272200   71.487700  109.415000
  H    -32.262300   70.725800  108.639000
  H    -31.286000   71.444900  109.836000
  C    -32.395500   72.832500  108.680000
  H    -31.479900   73.016400  108.023000
  H    -32.343300   73.592800  109.386000
  C    -33.714700   72.953400  107.911000
  H    -34.701200   73.003200  108.486000
  H    -33.813200   72.096100  107.246000
  H    -33.653100   73.919600  107.320000
  H    -37.765400   69.621500  106.330000
  H    -34.029900   70.927400  113.580000

 Total Charge           Charge          ....    0
 Multiplicity           Mult            ....    1
 Number of Electrons    NEL             ....  134
 Basis Dimension        Dim             ....  322

ORBITAL ENERGIES
----------------

  NO   OCC          E(Eh)            E(eV)
   0   2.0000     -88.973045     -2421.0796
   1   2.0000     -88.964395     -2420.8443
   2   2.0000     -10.333913      -281.2001
   3   2.0000     -10.327795      -281.0336
   4   2.0000     -10.317724      -280.7595
   5   2.0000     -10.309892      -280.5464
   6   2.0000     -10.298167      -280.2274
   7   2.0000     -10.298031      -280.2237
   8   2.0000     -10.293768      -280.1077
   9   2.0000     -10.289981      -280.0046
  10   2.0000     -10.287971      -279.9499
  11   2.0000     -10.285111      -279.8721
  12   2.0000     -10.282998      -279.8146
  13   2.0000     -10.282323      -279.7962
  14   2.0000     -10.274676      -279.5882
  15   2.0000     -10.272577      -279.5310
  16   2.0000      -8.087456      -220.0709
  17   2.0000      -8.079967      -219.8671
  18   2.0000      -6.045974      -164.5193
  19   2.0000      -6.041868      -164.4076
  20   2.0000      -6.038634      -164.3196
  21   2.0000      -6.038373      -164.3125
  22   2.0000      -6.034602      -164.2099
  23   2.0000      -6.030271      -164.0920
  24   2.0000      -1.013322       -27.5739
  25   2.0000      -0.990479       -26.9523
  26   2.0000      -0.918296       -24.9881
  27   2.0000      -0.911782       -24.8109
  28   2.0000      -0.872814       -23.7505
  29   2.0000      -0.854992       -23.2655
  30   2.0000      -0.845630       -23.0108
  31   2.0000      -0.815755       -22.1978
  32   2.0000      -0.782768       -21.3002
  33   2.0000      -0.772976       -21.0338
  34   2.0000      -0.706110       -19.2142
  35   2.0000      -0.701457       -19.0876
  36   2.0000      -0.688930       -18.7467
  37   2.0000      -0.668441       -18.1892
  38   2.0000      -0.637566       -17.3490
  39   2.0000      -0.622145       -16.9294
  40   2.0000      -0.598812       -16.2945
  41   2.0000      -0.571786       -15.5591
  42   2.0000      -0.565558       -15.3896
  43   2.0000      -0.548226       -14.9180
  44   2.0000      -0.543531       -14.7902
  45   2.0000      -0.530666       -14.4401
  46   2.0000      -0.518010       -14.0958
  47   2.0000      -0.511011       -13.9053
  48   2.0000      -0.508982       -13.8501
  49   2.0000      -0.497652       -13.5418
  50   2.0000      -0.495908       -13.4943
  51   2.0000      -0.476700       -12.9717
  52   2.0000      -0.470859       -12.8127
  53   2.0000      -0.462559       -12.5869
  54   2.0000      -0.459079       -12.4922
  55   2.0000      -0.446117       -12.1395
  56   2.0000      -0.443469       -12.0674
  57   2.0000      -0.440232       -11.9793
  58   2.0000      -0.429568       -11.6891
  59   2.0000      -0.426048       -11.5934
  60   2.0000      -0.419365       -11.4115
  61   2.0000      -0.407931       -11.1004
  62   2.0000      -0.404165       -10.9979
  63   2.0000      -0.362907        -9.8752
  64   2.0000      -0.336439        -9.1550
  65   2.0000      -0.327701        -8.9172
  66   2.0000      -0.279091        -7.5945
  67   0.0000       0.020974         0.5707
  68   0.0000       0.072884         1.9833
  69   0.0000       0.099868         2.7175
  70   0.0000       0.117189         3.1889
  71   0.0000       0.141258         3.8438

MULLIKEN ATOMIC CHARGES
-----------------------
   0 S :    0.125997
   1 C :   -0.064110
   2 C :   -0.159686
   3 C :   -0.011441
   4 C :   -0.132849
   5 H :    0.031595
   6 C :    0.150909
   7 H :   -0.018235
   8 H :    0.034077
   9 C :   -0.124525
  10 H :    0.047163
  11 H :    0.017607
  12 C :   -0.018845
  13 H :    0.031341
  14 H :    0.028232
  15 H :    0.023960
  16 S :    0.094229
  17 C :   -0.087947
  18 C :   -0.011680
  19 C :   -0.083858
  20 C :   -0.120664
  21 H :    0.019004
  22 C :    0.066955
  23 H :    0.004764
  24 H :    0.012636
  25 C :   -0.044526
  26 H :    0.036738
  27 H :    0.002707
  28 C :   -0.086082
  29 H :    0.062432
  30 H :    0.032483
  31 H :    0.036365
  32 H :    0.023866
  33 H :    0.081389
Sum of atomic charges:   -0.0000000

LOEWDIN ATOMIC CHARGES
----------------------
   0 S :    0.428647
   1 C :   -0.217560
   2 C :   -0.061065
   3 C :   -0.072169
   4 C :   -0.183784
   5 H :    0.032293
   6 C :   -0.033400
   7 H :    0.017386
   8 H :    0.037494
   9 C :   -0.044539
  10 H :    0.034073
  11 H :    0.019534
  12 C :   -0.053199
  13 H :    0.020137
  14 H :    0.031198
  15 H :    0.015075
  16 S :    0.395522
  17 C :   -0.194134
  18 C :   -0.074351
  19 C :   -0.053554
  20 C :   -0.187313
  21 H :    0.035305
  22 C :   -0.032228
  23 H :    0.022661
  24 H :    0.025756
  25 C :   -0.035673
  26 H :    0.031548
  27 H :    0.009409
  28 C :   -0.076411
  29 H :    0.037413
  30 H :    0.021157
  31 H :    0.030210
  32 H :    0.025705
  33 H :    0.048858

  Mayer bond orders larger than 0.100000
B(  0-S ,  1-C ) :   1.1554 B(  0-S ,  4-C ) :   1.1546 B(  1-C ,  2-C ) :   1.5673
B(  1-C ,  4-C ) :   0.1089 B(  1-C , 32-H ) :   0.9681 B(  2-C ,  3-C ) :   1.2961
B(  2-C ,  6-C ) :   1.0453 B(  3-C ,  4-C ) :   1.5470 B(  3-C ,  5-H ) :   0.9785
B(  4-C , 20-C ) :   1.0763 B(  6-C ,  7-H ) :   0.9287 B(  6-C ,  8-H ) :   0.9231
B(  6-C ,  9-C ) :   1.0513 B(  9-C , 10-H ) :   0.9586 B(  9-C , 11-H ) :   0.9573
B(  9-C , 12-C ) :   1.0726 B( 12-C , 13-H ) :   0.9775 B( 12-C , 14-H ) :   0.9756
B( 12-C , 15-H ) :   0.9742 B( 16-S , 17-C ) :   1.1545 B( 16-S , 20-C ) :   1.0991
B( 17-C , 18-C ) :   1.6300 B( 17-C , 33-H ) :   0.9476 B( 18-C , 19-C ) :   1.2248
B( 18-C , 21-H ) :   0.9892 B( 19-C , 20-C ) :   1.6361 B( 19-C , 22-C ) :   1.0389
B( 22-C , 23-H ) :   0.9393 B( 22-C , 24-H ) :   0.9350 B( 22-C , 25-C ) :   1.0729
B( 25-C , 26-H ) :   0.9548 B( 25-C , 27-H ) :   0.9489 B( 25-C , 28-C ) :   1.0775
B( 28-C , 29-H ) :   0.9655 B( 28-C , 30-H ) :   0.9731 B( 28-C , 31-H ) :   0.9703

Dispersion correction           -0.015373397
FINAL SINGLE POINT ENERGY     -1339.852621491497

DIPOLE MOMENT
-------------
                                X             Y             Z
Electronic contribution:    -14.49490       3.68249      23.16182
Nuclear contribution   :     15.08844      -3.84902     -23.54556
                        -----------------------------------------
Total Dipole Moment    :      0.59354      -0.16653      -0.38373
                        -----------------------------------------
Magnitude (a.u.)       :      0.72614
Magnitude (Debye)      :      1.84569

Rotational constants in cm-1:     0.021859     0.008352     0.007128
Rotational constants in MHz :   655.303522   250.385145   213.685239

                             ****ORCA TERMINATED NORMALLY****
TOTAL RUN TIME: 0 days 0 hours 0 minutes 31 seconds 828 msec
