                         Program Version 4.2.1 -  RELEASE  -
|  1> ! wB97X-D3 SP def2-SVP
|  2> %pal
|  3> nprocs 16
|  4> end
|  5>
|  6> * xyz 0 1
|  7> S 	 -9.68188 	 48.3731 	 44.3034
|  8> C 	 -11.2241 	 48.3306 	 43.4955
|  9> C 	 -12.0113 	 49.4904 	 43.7814
| 10> C 	 -11.3433 	 50.306 	 44.7939
| 11> C 	 -10.1796 	 49.708 	 45.2472
| 12> H 	 -11.8264 	 51.172 	 45.181
| 13> C 	 -13.2946 	 49.9005 	 43.1186
| 14> H 	 -13.2549 	 49.6996 	 42.0093
| 15> H 	 -13.339 	 50.9784 	 43.1194
| 16> C 	 -14.618 	 49.3836 	 43.8875
| 17> H 	 -15.4203 	 49.3301 	 43.1843
| 18> H 	 -14.4156 	 48.3731 	 44.2657
| 19> C 	 -15.0637 	 50.3131 	 45.0446
| 20> H 	 -14.4801 	 50.1112 	 45.9562
| 21> H 	 -15.0727 	 51.3729 	 44.7363
| 22> H 	 -16.0557 	 50.0189 	 45.3611
| 23> S 	 -7.88909 	 51.0947 	 45.8156
| 24> C 	 -7.75803 	 51.8951 	 47.3511
| 25> C 	 -8.73533 	 51.5077 	 48.2447
| 26> C 	 -9.68573 	 50.5507 	 47.6401
| 27> C 	 -9.38902 	 50.2733 	 46.3089
| 28> H 	 -8.82104 	 51.9239 	 49.2452
| 29> C 	 -10.9071 	 50.0947 	 48.4103
| 30> H 	 -10.5837 	 49.8016 	 49.3991
| 31> H 	 -11.2161 	 49.1046 	 47.9407
| 32> C 	 -12.105 	 51.0714 	 48.6715
| 33> H 	 -12.4553 	 51.362 	 47.7428
| 34> H 	 -11.7736 	 51.9504 	 49.2425
| 35> C 	 -13.2401 	 50.4744 	 49.4142
| 36> H 	 -12.9997 	 50.474 	 50.5234
| 37> H 	 -13.492 	 49.4544 	 49.0814
| 38> H 	 -14.0557 	 51.0617 	 49.3125
| 39> H 	 -11.5922 	 47.5917 	 42.8043
| 40> H 	 -6.7756 	 52.3858 	 47.6623
| 41> *
| 42>
| 43>                          ****END OF INPUT****

CARTESIAN COORDINATES (ANGSTROEM)
---------------------------------
  S     -9.681880   48.373100   44.303400
  C    -11.224100   48.330600   43.495500
  C    -12.011300   49.490400   43.781400
  C    -11.343300   50.306000   44.793900
  C    -10.179600   49.708000   45.247200
  H    -11.826400   51.172000   45.181000
  C    -13.294600   49.900500   43.118600
  H    -13.254900   49.699600   42.009300
  H    -13.339000   50.978400   43.119400
  C    -14.618000   49.383600   43.887500
  H    -15.420300   49.330100   43.184300
  H    -14.415600   48.373100   44.265700
  C    -15.063700   50.313100   45.044600
  H    -14.480100   50.111200   45.956200
  H    -15.072700   51.372900   44.736300
  H    -16.055700   50.018900   45.361100
  S     -7.889090   51.094700   45.815600
  C     -7.758030   51.895100   47.351100
  C     -8.735330   51.507700   48.244700
  C     -9.685730   50.550700   47.640100
  C     -9.389020   50.273300   46.308900
  H     -8.821040   51.923900   49.245200
  C    -10.907100   50.094700   48.410300
  H    -10.583700   49.801600   49.399100
  H    -11.216100   49.104600   47.940700
  C    -12.105000   51.071400   48.671500
  H    -12.455300   51.362000   47.742800
  H    -11.773600   51.950400   49.242500
  C    -13.240100   50.474400   49.414200
  H    -12.999700   50.474000   50.523400
  H    -13.492000   49.454400   49.081400
  H    -14.055700   51.061700   49.312500
  H    -11.592200   47.591700   42.804300
  H     -6.775600   52.385800   47.662300

 Total Charge           Charge          ....    0
 Multiplicity           Mult            ....    1
 Number of Electrons    NEL             ....  134
 Basis Dimension        Dim             ....  322

ORBITAL ENERGIES
----------------

  NO   OCC          E(Eh)            E(eV)
   0   2.0000     -88.971180     -2421.0289
   1   2.0000     -88.959233     -2420.7038
   2   2.0000     -10.324714      -280.9498
   3   2.0000     -10.324050      -280.9317
   4   2.0000     -10.320471      -280.8343
   5   2.0000     -10.315911      -280.7102
   6   2.0000     -10.307622      -280.4847
   7   2.0000     -10.305443      -280.4254
   8   2.0000     -10.299007      -280.2502
   9   2.0000     -10.296992      -280.1954
  10   2.0000     -10.293994      -280.1138
  11   2.0000     -10.293540      -280.1015
  12   2.0000     -10.293283      -280.0945
  13   2.0000     -10.283989      -279.8416
  14   2.0000     -10.280978      -279.7596
  15   2.0000     -10.272985      -279.5421
  16   2.0000      -8.086403      -220.0422
  17   2.0000      -8.074319      -219.7134
  18   2.0000      -6.044816      -164.4878
  19   2.0000      -6.040893      -164.3811
  20   2.0000      -6.037188      -164.2802
  21   2.0000      -6.032904      -164.1637
  22   2.0000      -6.028758      -164.0508
  23   2.0000      -6.024992      -163.9484
  24   2.0000      -1.005057       -27.3490
  25   2.0000      -0.977651       -26.6032
  26   2.0000      -0.909557       -24.7503
  27   2.0000      -0.904393       -24.6098
  28   2.0000      -0.866649       -23.5827
  29   2.0000      -0.853957       -23.2374
  30   2.0000      -0.848015       -23.0757
  31   2.0000      -0.809702       -22.0331
  32   2.0000      -0.781191       -21.2573
  33   2.0000      -0.767977       -20.8977
  34   2.0000      -0.704839       -19.1796
  35   2.0000      -0.703569       -19.1451
  36   2.0000      -0.689061       -18.7503
  37   2.0000      -0.657488       -17.8912
  38   2.0000      -0.638983       -17.3876
  39   2.0000      -0.616023       -16.7628
  40   2.0000      -0.591993       -16.1090
  41   2.0000      -0.571230       -15.5440
  42   2.0000      -0.567394       -15.4396
  43   2.0000      -0.544356       -14.8127
  44   2.0000      -0.541305       -14.7297
  45   2.0000      -0.527764       -14.3612
  46   2.0000      -0.516313       -14.0496
  47   2.0000      -0.510963       -13.9040
  48   2.0000      -0.503512       -13.7013
  49   2.0000      -0.493535       -13.4298
  50   2.0000      -0.492447       -13.4002
  51   2.0000      -0.480355       -13.0711
  52   2.0000      -0.467133       -12.7113
  53   2.0000      -0.461104       -12.5473
  54   2.0000      -0.455455       -12.3936
  55   2.0000      -0.449807       -12.2399
  56   2.0000      -0.445342       -12.1184
  57   2.0000      -0.438531       -11.9330
  58   2.0000      -0.430654       -11.7187
  59   2.0000      -0.428277       -11.6540
  60   2.0000      -0.424155       -11.5418
  61   2.0000      -0.417943       -11.3728
  62   2.0000      -0.415261       -11.2998
  63   2.0000      -0.336525        -9.1573
  64   2.0000      -0.327347        -8.9076
  65   2.0000      -0.322964        -8.7883
  66   2.0000      -0.298133        -8.1126
  67   0.0000       0.036265         0.9868
  68   0.0000       0.060744         1.6529
  69   0.0000       0.107174         2.9164
  70   0.0000       0.117945         3.2094
  71   0.0000       0.125795         3.4230

MULLIKEN ATOMIC CHARGES
-----------------------
   0 S :    0.139338
   1 C :   -0.107188
   2 C :   -0.120945
   3 C :    0.065448
   4 C :   -0.167969
   5 H :    0.006655
   6 C :    0.028512
   7 H :    0.042364
   8 H :    0.016701
   9 C :   -0.056277
  10 H :    0.027688
  11 H :    0.036337
  12 C :   -0.065925
  13 H :    0.041208
  14 H :    0.042226
  15 H :    0.028387
  16 S :    0.090783
  17 C :   -0.113261
  18 C :   -0.039335
  19 C :   -0.032684
  20 C :   -0.149989
  21 H :    0.026826
  22 C :    0.030544
  23 H :    0.010987
  24 H :    0.036981
  25 C :   -0.025998
  26 H :    0.001215
  27 H :    0.026577
  28 C :   -0.022531
  29 H :    0.032789
  30 H :    0.031938
  31 H :    0.010459
  32 H :    0.041198
  33 H :    0.086940
Sum of atomic charges:   -0.0000000

LOEWDIN ATOMIC CHARGES
----------------------
   0 S :    0.436697
   1 C :   -0.206702
   2 C :   -0.058061
   3 C :   -0.047300
   4 C :   -0.219769
   5 H :    0.026384
   6 C :   -0.041276
   7 H :    0.038479
   8 H :    0.026857
   9 C :   -0.030559
  10 H :    0.018549
  11 H :    0.026444
  12 C :   -0.070039
  13 H :    0.028243
  14 H :    0.027516
  15 H :    0.026069
  16 S :    0.388517
  17 C :   -0.200065
  18 C :   -0.074514
  19 C :   -0.051458
  20 C :   -0.192467
  21 H :    0.032432
  22 C :   -0.038724
  23 H :    0.026305
  24 H :    0.038429
  25 C :   -0.031838
  26 H :    0.008893
  27 H :    0.028205
  28 C :   -0.056788
  29 H :    0.032192
  30 H :    0.027392
  31 H :    0.012333
  32 H :    0.025363
  33 H :    0.044260

  Mayer bond orders larger than 0.100000
B(  0-S ,  1-C ) :   1.1468 B(  0-S ,  4-C ) :   1.1668 B(  1-C ,  2-C ) :   1.5900
B(  1-C , 32-H ) :   0.9704 B(  2-C ,  3-C ) :   1.2569 B(  2-C ,  6-C ) :   1.0337
B(  3-C ,  4-C ) :   1.5442 B(  3-C ,  5-H ) :   0.9975 B(  4-C , 20-C ) :   1.0185
B(  6-C ,  7-H ) :   0.9469 B(  6-C ,  8-H ) :   0.9466 B(  6-C ,  9-C ) :   1.0375
B(  9-C , 10-H ) :   0.9612 B(  9-C , 11-H ) :   0.9621 B(  9-C , 12-C ) :   1.0790
B( 12-C , 13-H ) :   0.9752 B( 12-C , 14-H ) :   0.9756 B( 12-C , 15-H ) :   0.9718
B( 16-S , 17-C ) :   1.1551 B( 16-S , 20-C ) :   1.1253 B( 17-C , 18-C ) :   1.6290
B( 17-C , 33-H ) :   0.9520 B( 18-C , 19-C ) :   1.2084 B( 18-C , 21-H ) :   0.9893
B( 19-C , 20-C ) :   1.6324 B( 19-C , 22-C ) :   1.0598 B( 22-C , 23-H ) :   0.9298
B( 22-C , 24-H ) :   0.9337 B( 22-C , 25-C ) :   1.0597 B( 25-C , 26-H ) :   0.9524
B( 25-C , 27-H ) :   0.9486 B( 25-C , 28-C ) :   1.1024 B( 28-C , 29-H ) :   0.9725
B( 28-C , 30-H ) :   0.9713 B( 28-C , 31-H ) :   0.9694

Dispersion correction           -0.015101545
FINAL SINGLE POINT ENERGY     -1339.869602776080

DIPOLE MOMENT
-------------
                                X             Y             Z
Electronic contribution:     30.21855      -3.67409     -10.38412
Nuclear contribution   :    -30.97768       3.86609      10.60101
                        -----------------------------------------
Total Dipole Moment    :     -0.75913       0.19200       0.21689
                        -----------------------------------------
Magnitude (a.u.)       :      0.81251
Magnitude (Debye)      :      2.06524

Rotational constants in cm-1:     0.016099     0.010554     0.007160
Rotational constants in MHz :   482.642221   316.389104   214.659879

                             ****ORCA TERMINATED NORMALLY****
TOTAL RUN TIME: 0 days 0 hours 0 minutes 35 seconds 36 msec
