                         Program Version 4.2.1 -  RELEASE  -
|  1> ! wB97X-D3 SP def2-SVP
|  2> %pal
|  3> nprocs 16
|  4> end
|  5>
|  6> * xyz 0 1
|  7> S 	 -3.57078 	 77.1331 	 49.5759
|  8> C 	 -1.90068 	 77.8253 	 49.6788
|  9> C 	 -1.02516 	 76.8041 	 50.0621
| 10> C 	 -1.748 	 75.6395 	 50.4908
| 11> C 	 -3.12606 	 75.7048 	 50.3525
| 12> H 	 -1.34306 	 74.6994 	 50.7965
| 13> C 	 0.471501 	 77.0154 	 50.0862
| 14> H 	 0.702978 	 78.0833 	 50.1423
| 15> H 	 0.847541 	 76.8227 	 49.0606
| 16> C 	 1.31353 	 76.2196 	 51.0808
| 17> H 	 0.969028 	 76.1969 	 52.1303
| 18> H 	 1.10102 	 75.1524 	 50.9071
| 19> C 	 2.79033 	 76.6252 	 50.9397
| 20> H 	 3.02144 	 77.5521 	 51.4721
| 21> H 	 3.45267 	 75.7987 	 51.2602
| 22> H 	 3.03413 	 76.8217 	 49.8839
| 23> S 	 -4.54941 	 74.352 	 52.2238
| 24> C 	 -5.54678 	 73.0628 	 51.7202
| 25> C 	 -5.54135 	 72.7935 	 50.3543
| 26> C 	 -4.7694 	 73.788 	 49.6838
| 27> C 	 -4.095 	 74.6325 	 50.5538
| 28> H 	 -6.21476 	 72.0079 	 50.0379
| 29> C 	 -4.57742 	 73.8243 	 48.1661
| 30> H 	 -3.72318 	 74.4752 	 48.0189
| 31> H 	 -5.45995 	 74.3216 	 47.8316
| 32> C 	 -4.57744 	 72.4257 	 47.3585
| 33> H 	 -4.53812 	 72.6748 	 46.2565
| 34> H 	 -5.48294 	 71.8383 	 47.5139
| 35> C 	 -3.32377 	 71.5617 	 47.7
| 36> H 	 -3.31329 	 70.6759 	 47.0602
| 37> H 	 -3.36772 	 71.2192 	 48.7202
| 38> H 	 -2.40535 	 72.141 	 47.5488
| 39> H 	 -1.58741 	 78.8135 	 49.4631
| 40> H 	 -6.09652 	 72.3603 	 52.3821
| 41> *
| 42>
| 43>                          ****END OF INPUT****

CARTESIAN COORDINATES (ANGSTROEM)
---------------------------------
  S     -3.570780   77.133100   49.575900
  C     -1.900680   77.825300   49.678800
  C     -1.025160   76.804100   50.062100
  C     -1.748000   75.639500   50.490800
  C     -3.126060   75.704800   50.352500
  H     -1.343060   74.699400   50.796500
  C      0.471501   77.015400   50.086200
  H      0.702978   78.083300   50.142300
  H      0.847541   76.822700   49.060600
  C      1.313530   76.219600   51.080800
  H      0.969028   76.196900   52.130300
  H      1.101020   75.152400   50.907100
  C      2.790330   76.625200   50.939700
  H      3.021440   77.552100   51.472100
  H      3.452670   75.798700   51.260200
  H      3.034130   76.821700   49.883900
  S     -4.549410   74.352000   52.223800
  C     -5.546780   73.062800   51.720200
  C     -5.541350   72.793500   50.354300
  C     -4.769400   73.788000   49.683800
  C     -4.095000   74.632500   50.553800
  H     -6.214760   72.007900   50.037900
  C     -4.577420   73.824300   48.166100
  H     -3.723180   74.475200   48.018900
  H     -5.459950   74.321600   47.831600
  C     -4.577440   72.425700   47.358500
  H     -4.538120   72.674800   46.256500
  H     -5.482940   71.838300   47.513900
  C     -3.323770   71.561700   47.700000
  H     -3.313290   70.675900   47.060200
  H     -3.367720   71.219200   48.720200
  H     -2.405350   72.141000   47.548800
  H     -1.587410   78.813500   49.463100
  H     -6.096520   72.360300   52.382100

 Total Charge           Charge          ....    0
 Multiplicity           Mult            ....    1
 Number of Electrons    NEL             ....  134
 Basis Dimension        Dim             ....  322

ORBITAL ENERGIES
----------------

  NO   OCC          E(Eh)            E(eV)
   0   2.0000     -88.966676     -2420.9063
   1   2.0000     -88.964520     -2420.8477
   2   2.0000     -10.324473      -280.9432
   3   2.0000     -10.322110      -280.8789
   4   2.0000     -10.315166      -280.6899
   5   2.0000     -10.314969      -280.6846
   6   2.0000     -10.305798      -280.4350
   7   2.0000     -10.305792      -280.4349
   8   2.0000     -10.298376      -280.2331
   9   2.0000     -10.296164      -280.1729
  10   2.0000     -10.292717      -280.0791
  11   2.0000     -10.292392      -280.0702
  12   2.0000     -10.290722      -280.0248
  13   2.0000     -10.290408      -280.0162
  14   2.0000     -10.284420      -279.8533
  15   2.0000     -10.274837      -279.5925
  16   2.0000      -8.082068      -219.9243
  17   2.0000      -8.079226      -219.8469
  18   2.0000      -6.040328      -164.3657
  19   2.0000      -6.037690      -164.2939
  20   2.0000      -6.036539      -164.2626
  21   2.0000      -6.033637      -164.1836
  22   2.0000      -6.032995      -164.1661
  23   2.0000      -6.030114      -164.0877
  24   2.0000      -1.009047       -27.4576
  25   2.0000      -0.984565       -26.7914
  26   2.0000      -0.913781       -24.8653
  27   2.0000      -0.897335       -24.4177
  28   2.0000      -0.869437       -23.6586
  29   2.0000      -0.847636       -23.0653
  30   2.0000      -0.841376       -22.8950
  31   2.0000      -0.814320       -22.1588
  32   2.0000      -0.782663       -21.2973
  33   2.0000      -0.769861       -20.9490
  34   2.0000      -0.714356       -19.4386
  35   2.0000      -0.700302       -19.0562
  36   2.0000      -0.689042       -18.7498
  37   2.0000      -0.656342       -17.8600
  38   2.0000      -0.642556       -17.4848
  39   2.0000      -0.616288       -16.7701
  40   2.0000      -0.588886       -16.0244
  41   2.0000      -0.571496       -15.5512
  42   2.0000      -0.555869       -15.1260
  43   2.0000      -0.547417       -14.8960
  44   2.0000      -0.535464       -14.5707
  45   2.0000      -0.529499       -14.4084
  46   2.0000      -0.520616       -14.1667
  47   2.0000      -0.508124       -13.8268
  48   2.0000      -0.502922       -13.6852
  49   2.0000      -0.497193       -13.5293
  50   2.0000      -0.486691       -13.2435
  51   2.0000      -0.476708       -12.9719
  52   2.0000      -0.474877       -12.9221
  53   2.0000      -0.457353       -12.4452
  54   2.0000      -0.457284       -12.4433
  55   2.0000      -0.454334       -12.3630
  56   2.0000      -0.448145       -12.1947
  57   2.0000      -0.441558       -12.0154
  58   2.0000      -0.435981       -11.8636
  59   2.0000      -0.425080       -11.5670
  60   2.0000      -0.420638       -11.4461
  61   2.0000      -0.416606       -11.3364
  62   2.0000      -0.405157       -11.0249
  63   2.0000      -0.334488        -9.1019
  64   2.0000      -0.328320        -8.9341
  65   2.0000      -0.326586        -8.8869
  66   2.0000      -0.301064        -8.1924
  67   0.0000       0.042131         1.1464
  68   0.0000       0.059428         1.6171
  69   0.0000       0.111366         3.0304
  70   0.0000       0.125390         3.4120
  71   0.0000       0.128738         3.5031

MULLIKEN ATOMIC CHARGES
-----------------------
   0 S :    0.115176
   1 C :   -0.119747
   2 C :   -0.054219
   3 C :    0.044075
   4 C :   -0.180150
   5 H :   -0.002627
   6 C :    0.045456
   7 H :    0.016065
   8 H :    0.039919
   9 C :   -0.085020
  10 H :    0.033979
  11 H :    0.025946
  12 C :   -0.046635
  13 H :    0.044410
  14 H :    0.041608
  15 H :    0.025098
  16 S :    0.134846
  17 C :   -0.100178
  18 C :   -0.062938
  19 C :   -0.009792
  20 C :   -0.205375
  21 H :    0.023589
  22 C :    0.089028
  23 H :    0.033278
  24 H :    0.032859
  25 C :   -0.105387
  26 H :    0.043297
  27 H :    0.034285
  28 C :   -0.048138
  29 H :    0.033321
  30 H :    0.035733
  31 H :    0.035608
  32 H :    0.032703
  33 H :    0.059929
Sum of atomic charges:   -0.0000000

LOEWDIN ATOMIC CHARGES
----------------------
   0 S :    0.417759
   1 C :   -0.180582
   2 C :   -0.053902
   3 C :   -0.068218
   4 C :   -0.222461
   5 H :    0.025267
   6 C :   -0.038631
   7 H :    0.029571
   8 H :    0.039356
   9 C :   -0.052330
  10 H :    0.028683
  11 H :    0.024308
  12 C :   -0.064993
  13 H :    0.028961
  14 H :    0.031761
  15 H :    0.025450
  16 S :    0.431882
  17 C :   -0.199739
  18 C :   -0.082794
  19 C :   -0.048265
  20 C :   -0.214533
  21 H :    0.035063
  22 C :   -0.028874
  23 H :    0.028252
  24 H :    0.032716
  25 C :   -0.038529
  26 H :    0.032021
  27 H :    0.021508
  28 C :   -0.066911
  29 H :    0.024843
  30 H :    0.022816
  31 H :    0.026816
  32 H :    0.020331
  33 H :    0.033397

  Mayer bond orders larger than 0.100000
B(  0-S ,  1-C ) :   1.1319 B(  0-S ,  4-C ) :   1.1730 B(  1-C ,  2-C ) :   1.5917
B(  1-C ,  4-C ) :   0.1027 B(  1-C , 32-H ) :   0.9788 B(  2-C ,  3-C ) :   1.2420
B(  2-C ,  6-C ) :   1.0197 B(  3-C ,  4-C ) :   1.5681 B(  3-C ,  5-H ) :   0.9973
B(  4-C , 20-C ) :   0.9923 B(  6-C ,  7-H ) :   0.9460 B(  6-C ,  8-H ) :   0.9243
B(  6-C ,  9-C ) :   1.0612 B(  9-C , 10-H ) :   0.9597 B(  9-C , 11-H ) :   0.9467
B(  9-C , 12-C ) :   1.0714 B( 12-C , 13-H ) :   0.9759 B( 12-C , 14-H ) :   0.9737
B( 12-C , 15-H ) :   0.9748 B( 16-S , 17-C ) :   1.1787 B( 16-S , 20-C ) :   1.1471
B( 17-C , 18-C ) :   1.6257 B( 17-C , 33-H ) :   0.9554 B( 18-C , 19-C ) :   1.2191
B( 18-C , 21-H ) :   0.9921 B( 19-C , 20-C ) :   1.6069 B( 19-C , 22-C ) :   1.0257
B( 22-C , 23-H ) :   0.9402 B( 22-C , 24-H ) :   0.9252 B( 22-C , 25-C ) :   1.0688
B( 25-C , 26-H ) :   0.9585 B( 25-C , 27-H ) :   0.9530 B( 25-C , 28-C ) :   1.0735
B( 28-C , 29-H ) :   0.9756 B( 28-C , 30-H ) :   0.9765 B( 28-C , 31-H ) :   0.9772

Dispersion correction           -0.014130514
FINAL SINGLE POINT ENERGY     -1339.877886357962

DIPOLE MOMENT
-------------
                                X             Y             Z
Electronic contribution:    -19.69058       8.52457      10.50269
Nuclear contribution   :     20.04761      -8.82959     -10.78017
                        -----------------------------------------
Total Dipole Moment    :      0.35703      -0.30503      -0.27748
                        -----------------------------------------
Magnitude (a.u.)       :      0.54544
Magnitude (Debye)      :      1.38640

Rotational constants in cm-1:     0.019012     0.007462     0.006973
Rotational constants in MHz :   569.961871   223.718659   209.042207

                             ****ORCA TERMINATED NORMALLY****
TOTAL RUN TIME: 0 days 0 hours 0 minutes 32 seconds 323 msec
