                         Program Version 4.2.1 -  RELEASE  -
|  1> ! wB97X-D3 SP def2-SVP
|  2> %pal
|  3> nprocs 16
|  4> end
|  5>
|  6> * xyz 0 1
|  7> S 	 -66.0188 	 39.085 	 131.541
|  8> C 	 -66.5829 	 40.6131 	 132.089
|  9> C 	 -65.6659 	 41.1863 	 132.925
| 10> C 	 -64.5451 	 40.38 	 133.197
| 11> C 	 -64.5037 	 39.254 	 132.47
| 12> H 	 -63.719 	 40.6237 	 133.904
| 13> C 	 -65.9261 	 42.4437 	 133.757
| 14> H 	 -65.615 	 43.2541 	 133.148
| 15> H 	 -65.3793 	 42.3345 	 134.725
| 16> C 	 -67.4191 	 42.5893 	 134.066
| 17> H 	 -67.5861 	 43.6398 	 134.391
| 18> H 	 -67.9363 	 42.6651 	 133.091
| 19> C 	 -67.8386 	 41.5167 	 135.104
| 20> H 	 -67.5067 	 40.4398 	 134.868
| 21> H 	 -67.4413 	 41.8264 	 136.102
| 22> H 	 -68.8726 	 41.5462 	 135.214
| 23> S 	 -64.0181 	 36.631 	 132.85
| 24> C 	 -62.4297 	 35.9175 	 132.605
| 25> C 	 -61.5217 	 36.9502 	 132.409
| 26> C 	 -62.1017 	 38.2479 	 132.504
| 27> C 	 -63.4834 	 38.2308 	 132.545
| 28> H 	 -60.5069 	 36.7348 	 132.212
| 29> C 	 -61.2346 	 39.4129 	 132.525
| 30> H 	 -60.6018 	 39.3679 	 133.401
| 31> H 	 -61.7811 	 40.3644 	 132.475
| 32> C 	 -60.2693 	 39.6042 	 131.286
| 33> H 	 -59.448 	 38.9059 	 131.384
| 34> H 	 -59.8516 	 40.5862 	 131.366
| 35> C 	 -60.7945 	 39.145 	 129.935
| 36> H 	 -61.1235 	 38.0572 	 129.871
| 37> H 	 -60.0243 	 39.2735 	 129.139
| 38> H 	 -61.4903 	 39.8098 	 129.472
| 39> H 	 -67.5476 	 41.0393 	 131.789
| 40> H 	 -62.2045 	 34.8907 	 132.467
| 41> *
| 42>
| 43>                          ****END OF INPUT****

CARTESIAN COORDINATES (ANGSTROEM)
---------------------------------
  S    -66.018800   39.085000  131.541000
  C    -66.582900   40.613100  132.089000
  C    -65.665900   41.186300  132.925000
  C    -64.545100   40.380000  133.197000
  C    -64.503700   39.254000  132.470000
  H    -63.719000   40.623700  133.904000
  C    -65.926100   42.443700  133.757000
  H    -65.615000   43.254100  133.148000
  H    -65.379300   42.334500  134.725000
  C    -67.419100   42.589300  134.066000
  H    -67.586100   43.639800  134.391000
  H    -67.936300   42.665100  133.091000
  C    -67.838600   41.516700  135.104000
  H    -67.506700   40.439800  134.868000
  H    -67.441300   41.826400  136.102000
  H    -68.872600   41.546200  135.214000
  S    -64.018100   36.631000  132.850000
  C    -62.429700   35.917500  132.605000
  C    -61.521700   36.950200  132.409000
  C    -62.101700   38.247900  132.504000
  C    -63.483400   38.230800  132.545000
  H    -60.506900   36.734800  132.212000
  C    -61.234600   39.412900  132.525000
  H    -60.601800   39.367900  133.401000
  H    -61.781100   40.364400  132.475000
  C    -60.269300   39.604200  131.286000
  H    -59.448000   38.905900  131.384000
  H    -59.851600   40.586200  131.366000
  C    -60.794500   39.145000  129.935000
  H    -61.123500   38.057200  129.871000
  H    -60.024300   39.273500  129.139000
  H    -61.490300   39.809800  129.472000
  H    -67.547600   41.039300  131.789000
  H    -62.204500   34.890700  132.467000

 Total Charge           Charge          ....    0
 Multiplicity           Mult            ....    1
 Number of Electrons    NEL             ....  134
 Basis Dimension        Dim             ....  322

ORBITAL ENERGIES
----------------

  NO   OCC          E(Eh)            E(eV)
   0   2.0000     -88.964268     -2420.8408
   1   2.0000     -88.960089     -2420.7271
   2   2.0000     -10.325283      -280.9652
   3   2.0000     -10.321635      -280.8660
   4   2.0000     -10.314569      -280.6737
   5   2.0000     -10.311697      -280.5955
   6   2.0000     -10.296402      -280.1793
   7   2.0000     -10.293050      -280.0881
   8   2.0000     -10.290850      -280.0283
   9   2.0000     -10.289737      -279.9980
  10   2.0000     -10.289325      -279.9868
  11   2.0000     -10.288037      -279.9517
  12   2.0000     -10.285927      -279.8943
  13   2.0000     -10.283675      -279.8330
  14   2.0000     -10.282701      -279.8065
  15   2.0000     -10.276437      -279.6361
  16   2.0000      -8.079086      -219.8431
  17   2.0000      -8.075500      -219.7455
  18   2.0000      -6.037621      -164.2920
  19   2.0000      -6.034061      -164.1951
  20   2.0000      -6.033561      -164.1815
  21   2.0000      -6.029817      -164.0797
  22   2.0000      -6.029786      -164.0788
  23   2.0000      -6.026289      -163.9837
  24   2.0000      -1.012719       -27.5575
  25   2.0000      -0.990195       -26.9446
  26   2.0000      -0.912537       -24.8314
  27   2.0000      -0.908475       -24.7209
  28   2.0000      -0.872092       -23.7308
  29   2.0000      -0.849902       -23.1270
  30   2.0000      -0.843154       -22.9434
  31   2.0000      -0.815257       -22.1843
  32   2.0000      -0.781195       -21.2574
  33   2.0000      -0.772122       -21.0105
  34   2.0000      -0.710326       -19.3289
  35   2.0000      -0.702686       -19.1211
  36   2.0000      -0.691365       -18.8130
  37   2.0000      -0.665168       -18.1001
  38   2.0000      -0.639788       -17.4095
  39   2.0000      -0.612083       -16.6556
  40   2.0000      -0.596762       -16.2387
  41   2.0000      -0.573680       -15.6106
  42   2.0000      -0.565709       -15.3937
  43   2.0000      -0.554714       -15.0945
  44   2.0000      -0.541701       -14.7404
  45   2.0000      -0.532866       -14.5000
  46   2.0000      -0.520066       -14.1517
  47   2.0000      -0.509909       -13.8753
  48   2.0000      -0.504942       -13.7402
  49   2.0000      -0.495941       -13.4952
  50   2.0000      -0.487613       -13.2686
  51   2.0000      -0.479389       -13.0448
  52   2.0000      -0.473971       -12.8974
  53   2.0000      -0.461613       -12.5611
  54   2.0000      -0.459256       -12.4970
  55   2.0000      -0.447708       -12.1828
  56   2.0000      -0.440011       -11.9733
  57   2.0000      -0.434138       -11.8135
  58   2.0000      -0.430685       -11.7195
  59   2.0000      -0.425915       -11.5897
  60   2.0000      -0.420621       -11.4457
  61   2.0000      -0.408235       -11.1087
  62   2.0000      -0.397194       -10.8082
  63   2.0000      -0.352518        -9.5925
  64   2.0000      -0.329262        -8.9597
  65   2.0000      -0.324309        -8.8249
  66   2.0000      -0.291215        -7.9244
  67   0.0000       0.029562         0.8044
  68   0.0000       0.077719         2.1148
  69   0.0000       0.111004         3.0206
  70   0.0000       0.126700         3.4477
  71   0.0000       0.139686         3.8010

MULLIKEN ATOMIC CHARGES
-----------------------
   0 S :    0.115227
   1 C :   -0.137429
   2 C :   -0.098154
   3 C :   -0.002219
   4 C :   -0.131277
   5 H :    0.035501
   6 C :    0.093422
   7 H :    0.028137
   8 H :    0.031870
   9 C :   -0.107502
  10 H :    0.023152
  11 H :    0.019323
  12 C :   -0.042873
  13 H :    0.070450
  14 H :    0.035539
  15 H :    0.022629
  16 S :    0.097312
  17 C :   -0.077163
  18 C :   -0.037208
  19 C :   -0.033878
  20 C :   -0.159719
  21 H :    0.005658
  22 C :    0.077351
  23 H :    0.038188
  24 H :    0.025652
  25 C :   -0.088171
  26 H :    0.017479
  27 H :    0.029414
  28 C :   -0.058920
  29 H :    0.058917
  30 H :    0.021932
  31 H :    0.020187
  32 H :    0.058548
  33 H :    0.048622
Sum of atomic charges:    0.0000000

LOEWDIN ATOMIC CHARGES
----------------------
   0 S :    0.403135
   1 C :   -0.205766
   2 C :   -0.073062
   3 C :   -0.065742
   4 C :   -0.184393
   5 H :    0.041818
   6 C :   -0.026524
   7 H :    0.027479
   8 H :    0.032557
   9 C :   -0.048883
  10 H :    0.026062
  11 H :    0.019804
  12 C :   -0.066054
  13 H :    0.042196
  14 H :    0.032237
  15 H :    0.015443
  16 S :    0.414784
  17 C :   -0.179991
  18 C :   -0.062378
  19 C :   -0.064245
  20 C :   -0.203346
  21 H :    0.024299
  22 C :   -0.035135
  23 H :    0.035731
  24 H :    0.030848
  25 C :   -0.039747
  26 H :    0.018337
  27 H :    0.023538
  28 C :   -0.078441
  29 H :    0.039580
  30 H :    0.030301
  31 H :    0.018034
  32 H :    0.032634
  33 H :    0.024891

  Mayer bond orders larger than 0.100000
B(  0-S ,  1-C ) :   1.1396 B(  0-S ,  4-C ) :   1.1366 B(  1-C ,  2-C ) :   1.6069
B(  1-C , 32-H ) :   0.9643 B(  2-C ,  3-C ) :   1.2484 B(  2-C ,  6-C ) :   1.0004
B(  3-C ,  4-C ) :   1.5893 B(  3-C ,  5-H ) :   0.9878 B(  4-C , 20-C ) :   1.0384
B(  6-C ,  7-H ) :   0.9203 B(  6-C ,  8-H ) :   0.9542 B(  6-C ,  9-C ) :   1.1023
B(  9-C , 10-H ) :   0.9517 B(  9-C , 11-H ) :   0.9487 B(  9-C , 12-C ) :   1.0544
B( 12-C , 13-H ) :   0.9758 B( 12-C , 14-H ) :   0.9711 B( 12-C , 15-H ) :   0.9753
B( 16-S , 17-C ) :   1.1502 B( 16-S , 20-C ) :   1.1555 B( 17-C , 18-C ) :   1.5931
B( 17-C , 20-C ) :   0.1006 B( 17-C , 33-H ) :   0.9745 B( 18-C , 19-C ) :   1.2335
B( 18-C , 21-H ) :   0.9992 B( 19-C , 20-C ) :   1.5730 B( 19-C , 22-C ) :   1.0792
B( 22-C , 23-H ) :   0.9285 B( 22-C , 24-H ) :   0.9327 B( 22-C , 25-C ) :   1.0557
B( 25-C , 26-H ) :   0.9526 B( 25-C , 27-H ) :   0.9610 B( 25-C , 28-C ) :   1.0860
B( 28-C , 29-H ) :   0.9621 B( 28-C , 30-H ) :   0.9682 B( 28-C , 31-H ) :   0.9744

Dispersion correction           -0.014784226
FINAL SINGLE POINT ENERGY     -1339.866417609988

DIPOLE MOMENT
-------------
                                X             Y             Z
Electronic contribution:     -5.71885     -17.14311      -2.72723
Nuclear contribution   :      6.01679      17.65834       2.87705
                        -----------------------------------------
Total Dipole Moment    :      0.29794       0.51523       0.14982
                        -----------------------------------------
Magnitude (a.u.)       :      0.61374
Magnitude (Debye)      :      1.56001

Rotational constants in cm-1:     0.023543     0.007971     0.006981
Rotational constants in MHz :   705.802688   238.967205   209.276425

                             ****ORCA TERMINATED NORMALLY****
TOTAL RUN TIME: 0 days 0 hours 0 minutes 36 seconds 292 msec
