                         Program Version 4.2.1 -  RELEASE  -
|  1> ! wB97X-D3 SP def2-SVP
|  2> %pal
|  3> nprocs 16
|  4> end
|  5>
|  6> * xyz 0 1
|  7> S 	 -44.5035 	 18.4324 	 75.6754
|  8> C 	 -42.8817 	 18.7048 	 76.2168
|  9> C 	 -41.8982 	 18.2475 	 75.2897
| 10> C 	 -42.474 	 17.6836 	 74.1151
| 11> C 	 -43.8953 	 17.6803 	 74.1197
| 12> H 	 -41.9099 	 17.2767 	 73.2236
| 13> C 	 -40.4127 	 18.3593 	 75.5044
| 14> H 	 -40.1558 	 19.4098 	 75.7226
| 15> H 	 -39.905 	 18.3243 	 74.6072
| 16> C 	 -39.8679 	 17.4237 	 76.577
| 17> H 	 -40.3598 	 17.5735 	 77.5622
| 18> H 	 -40.2062 	 16.5241 	 76.1172
| 19> C 	 -38.3565 	 17.3903 	 76.6136
| 20> H 	 -38.0995 	 16.5593 	 77.2494
| 21> H 	 -37.979 	 17.0942 	 75.6506
| 22> H 	 -37.8673 	 18.2629 	 77.0447
| 23> S 	 -46.2812 	 16.2503 	 73.9506
| 24> C 	 -46.9175 	 15.8196 	 72.3269
| 25> C 	 -46.0878 	 16.2685 	 71.3407
| 26> C 	 -44.9203 	 16.9014 	 71.7913
| 27> C 	 -44.8467 	 17.0406 	 73.1633
| 28> H 	 -46.4311 	 16.2155 	 70.3624
| 29> C 	 -43.9351 	 17.4232 	 70.8078
| 30> H 	 -43.5746 	 18.4035 	 71.1826
| 31> H 	 -44.5105 	 17.6479 	 69.8844
| 32> C 	 -42.7599 	 16.4469 	 70.4098
| 33> H 	 -43.1868 	 15.4946 	 70.1127
| 34> H 	 -42.1038 	 16.3017 	 71.3088
| 35> C 	 -41.9027 	 17.0099 	 69.3194
| 36> H 	 -42.4761 	 17.5517 	 68.6163
| 37> H 	 -41.4474 	 16.1674 	 68.8047
| 38> H 	 -41.1606 	 17.7451 	 69.6824
| 39> H 	 -42.4661 	 19.1213 	 77.1643
| 40> H 	 -47.8805 	 15.3816 	 72.158
| 41> *
| 42>
| 43>                          ****END OF INPUT****

CARTESIAN COORDINATES (ANGSTROEM)
---------------------------------
  S    -44.503500   18.432400   75.675400
  C    -42.881700   18.704800   76.216800
  C    -41.898200   18.247500   75.289700
  C    -42.474000   17.683600   74.115100
  C    -43.895300   17.680300   74.119700
  H    -41.909900   17.276700   73.223600
  C    -40.412700   18.359300   75.504400
  H    -40.155800   19.409800   75.722600
  H    -39.905000   18.324300   74.607200
  C    -39.867900   17.423700   76.577000
  H    -40.359800   17.573500   77.562200
  H    -40.206200   16.524100   76.117200
  C    -38.356500   17.390300   76.613600
  H    -38.099500   16.559300   77.249400
  H    -37.979000   17.094200   75.650600
  H    -37.867300   18.262900   77.044700
  S    -46.281200   16.250300   73.950600
  C    -46.917500   15.819600   72.326900
  C    -46.087800   16.268500   71.340700
  C    -44.920300   16.901400   71.791300
  C    -44.846700   17.040600   73.163300
  H    -46.431100   16.215500   70.362400
  C    -43.935100   17.423200   70.807800
  H    -43.574600   18.403500   71.182600
  H    -44.510500   17.647900   69.884400
  C    -42.759900   16.446900   70.409800
  H    -43.186800   15.494600   70.112700
  H    -42.103800   16.301700   71.308800
  C    -41.902700   17.009900   69.319400
  H    -42.476100   17.551700   68.616300
  H    -41.447400   16.167400   68.804700
  H    -41.160600   17.745100   69.682400
  H    -42.466100   19.121300   77.164300
  H    -47.880500   15.381600   72.158000

 Total Charge           Charge          ....    0
 Multiplicity           Mult            ....    1
 Number of Electrons    NEL             ....  134
 Basis Dimension        Dim             ....  322

ORBITAL ENERGIES
----------------

  NO   OCC          E(Eh)            E(eV)
   0   2.0000     -88.975260     -2421.1399
   1   2.0000     -88.963250     -2420.8131
   2   2.0000     -10.343232      -281.4537
   3   2.0000     -10.335222      -281.2357
   4   2.0000     -10.320555      -280.8366
   5   2.0000     -10.317453      -280.7522
   6   2.0000     -10.306183      -280.4455
   7   2.0000     -10.303055      -280.3604
   8   2.0000     -10.299652      -280.2678
   9   2.0000     -10.294811      -280.1360
  10   2.0000     -10.292145      -280.0635
  11   2.0000     -10.286601      -279.9126
  12   2.0000     -10.284506      -279.8556
  13   2.0000     -10.282741      -279.8076
  14   2.0000     -10.275787      -279.6184
  15   2.0000     -10.275101      -279.5997
  16   2.0000      -8.088131      -220.0892
  17   2.0000      -8.076451      -219.7714
  18   2.0000      -6.046756      -164.5406
  19   2.0000      -6.042821      -164.4335
  20   2.0000      -6.038943      -164.3280
  21   2.0000      -6.035107      -164.2236
  22   2.0000      -6.031282      -164.1195
  23   2.0000      -6.027032      -164.0039
  24   2.0000      -0.995666       -27.0934
  25   2.0000      -0.976374       -26.5685
  26   2.0000      -0.916655       -24.9435
  27   2.0000      -0.908256       -24.7149
  28   2.0000      -0.864735       -23.5306
  29   2.0000      -0.856572       -23.3085
  30   2.0000      -0.849786       -23.1238
  31   2.0000      -0.814662       -22.1681
  32   2.0000      -0.780338       -21.2341
  33   2.0000      -0.767825       -20.8936
  34   2.0000      -0.706551       -19.2262
  35   2.0000      -0.703186       -19.1347
  36   2.0000      -0.693857       -18.8808
  37   2.0000      -0.668390       -18.1878
  38   2.0000      -0.634267       -17.2593
  39   2.0000      -0.614355       -16.7174
  40   2.0000      -0.593902       -16.1609
  41   2.0000      -0.575834       -15.6692
  42   2.0000      -0.568734       -15.4760
  43   2.0000      -0.561661       -15.2836
  44   2.0000      -0.531545       -14.4641
  45   2.0000      -0.523186       -14.2366
  46   2.0000      -0.521360       -14.1869
  47   2.0000      -0.515160       -14.0182
  48   2.0000      -0.504294       -13.7225
  49   2.0000      -0.496329       -13.5058
  50   2.0000      -0.493688       -13.4339
  51   2.0000      -0.473518       -12.8851
  52   2.0000      -0.471096       -12.8192
  53   2.0000      -0.463073       -12.6009
  54   2.0000      -0.459292       -12.4980
  55   2.0000      -0.447642       -12.1809
  56   2.0000      -0.446909       -12.1610
  57   2.0000      -0.436616       -11.8809
  58   2.0000      -0.431993       -11.7551
  59   2.0000      -0.427732       -11.6392
  60   2.0000      -0.423003       -11.5105
  61   2.0000      -0.418117       -11.3775
  62   2.0000      -0.410065       -11.1584
  63   2.0000      -0.353706        -9.6248
  64   2.0000      -0.333347        -9.0708
  65   2.0000      -0.329746        -8.9729
  66   2.0000      -0.281689        -7.6652
  67   0.0000       0.017707         0.4818
  68   0.0000       0.066269         1.8033
  69   0.0000       0.100335         2.7303
  70   0.0000       0.122188         3.3249
  71   0.0000       0.126976         3.4552

MULLIKEN ATOMIC CHARGES
-----------------------
   0 S :    0.122937
   1 C :   -0.106412
   2 C :   -0.125677
   3 C :    0.017865
   4 C :   -0.144410
   5 H :    0.028238
   6 C :    0.089591
   7 H :    0.015002
   8 H :   -0.016272
   9 C :   -0.075200
  10 H :    0.038608
  11 H :    0.020002
  12 C :   -0.008628
  13 H :    0.024567
  14 H :    0.020692
  15 H :    0.038388
  16 S :    0.070677
  17 C :   -0.084142
  18 C :   -0.006535
  19 C :   -0.017152
  20 C :   -0.139454
  21 H :   -0.005375
  22 C :    0.015783
  23 H :    0.035314
  24 H :    0.018933
  25 C :   -0.074081
  26 H :    0.028469
  27 H :    0.035372
  28 C :   -0.011478
  29 H :    0.011227
  30 H :    0.036729
  31 H :    0.035644
  32 H :    0.059050
  33 H :    0.051726
Sum of atomic charges:    0.0000000

LOEWDIN ATOMIC CHARGES
----------------------
   0 S :    0.398037
   1 C :   -0.213764
   2 C :   -0.064631
   3 C :   -0.067109
   4 C :   -0.174304
   5 H :    0.040492
   6 C :   -0.037925
   7 H :    0.029625
   8 H :    0.017504
   9 C :   -0.037126
  10 H :    0.027595
  11 H :    0.025233
  12 C :   -0.061348
  13 H :    0.027755
  14 H :    0.024658
  15 H :    0.025850
  16 S :    0.351655
  17 C :   -0.159555
  18 C :   -0.064375
  19 C :   -0.064464
  20 C :   -0.168147
  21 H :    0.023541
  22 C :   -0.035679
  23 H :    0.033110
  24 H :    0.030794
  25 C :   -0.036597
  26 H :    0.024024
  27 H :    0.025321
  28 C :   -0.064312
  29 H :    0.016705
  30 H :    0.030412
  31 H :    0.030222
  32 H :    0.040315
  33 H :    0.026486

  Mayer bond orders larger than 0.100000
B(  0-S ,  1-C ) :   1.1489 B(  0-S ,  4-C ) :   1.1413 B(  1-C ,  2-C ) :   1.5825
B(  1-C ,  4-C ) :   0.1077 B(  1-C , 32-H ) :   0.9568 B(  2-C ,  3-C ) :   1.2817
B(  2-C ,  6-C ) :   1.0322 B(  3-C ,  4-C ) :   1.5372 B(  3-C ,  5-H ) :   0.9746
B(  4-C , 20-C ) :   1.0577 B(  6-C ,  7-H ) :   0.9276 B(  6-C ,  8-H ) :   0.9351
B(  6-C ,  9-C ) :   1.0454 B(  9-C , 10-H ) :   0.9573 B(  9-C , 11-H ) :   0.9538
B(  9-C , 12-C ) :   1.0951 B( 12-C , 13-H ) :   0.9708 B( 12-C , 14-H ) :   0.9688
B( 12-C , 15-H ) :   0.9746 B( 16-S , 17-C ) :   1.1320 B( 16-S , 20-C ) :   1.1141
B( 17-C , 18-C ) :   1.6309 B( 17-C , 33-H ) :   0.9671 B( 18-C , 19-C ) :   1.2268
B( 18-C , 21-H ) :   0.9994 B( 19-C , 20-C ) :   1.6082 B( 19-C , 22-C ) :   1.0527
B( 22-C , 23-H ) :   0.9332 B( 22-C , 24-H ) :   0.9317 B( 22-C , 25-C ) :   1.0614
B( 25-C , 26-H ) :   0.9547 B( 25-C , 27-H ) :   0.9510 B( 25-C , 28-C ) :   1.0862
B( 28-C , 29-H ) :   0.9712 B( 28-C , 30-H ) :   0.9732 B( 28-C , 31-H ) :   0.9731

Dispersion correction           -0.013643856
FINAL SINGLE POINT ENERGY     -1339.868612612513

DIPOLE MOMENT
-------------
                                X             Y             Z
Electronic contribution:    -28.59602       0.61747       9.83800
Nuclear contribution   :     29.15979      -0.64191     -10.29803
                        -----------------------------------------
Total Dipole Moment    :      0.56377      -0.02443      -0.46003
                        -----------------------------------------
Magnitude (a.u.)       :      0.72805
Magnitude (Debye)      :      1.85055

Rotational constants in cm-1:     0.017494     0.008324     0.006108
Rotational constants in MHz :   524.450932   249.558207   183.117116

                             ****ORCA TERMINATED NORMALLY****
TOTAL RUN TIME: 0 days 0 hours 0 minutes 28 seconds 846 msec
