                         Program Version 4.2.1 -  RELEASE  -
|  1> ! wB97X-D3 SP def2-SVP
|  2> %pal
|  3> nprocs 16
|  4> end
|  5>
|  6> * xyz 0 1
|  7> S 	 -5.21292 	 13.0607 	 86.6635
|  8> C 	 -6.18847 	 12.2997 	 85.3593
|  9> C 	 -7.53171 	 12.2133 	 85.7156
| 10> C 	 -7.80978 	 12.9882 	 86.9057
| 11> C 	 -6.70417 	 13.6045 	 87.3919
| 12> H 	 -8.80941 	 13.1838 	 87.3363
| 13> C 	 -8.65881 	 11.5442 	 84.9746
| 14> H 	 -8.60726 	 11.8466 	 83.9285
| 15> H 	 -9.52616 	 11.989 	 85.5044
| 16> C 	 -8.88432 	 10.0159 	 85.04
| 17> H 	 -9.91111 	 9.84137 	 84.6725
| 18> H 	 -8.1603 	 9.5639 	 84.372
| 19> C 	 -8.82641 	 9.47996 	 86.4245
| 20> H 	 -9.62159 	 9.88818 	 87.1181
| 21> H 	 -8.89143 	 8.38026 	 86.5272
| 22> H 	 -7.83974 	 9.8048 	 86.8264
| 23> S 	 -7.23034 	 16.3217 	 87.8373
| 24> C 	 -7.05907 	 16.9739 	 89.3926
| 25> C 	 -6.65477 	 16.0025 	 90.2573
| 26> C 	 -6.5128 	 14.7185 	 89.6737
| 27> C 	 -6.64939 	 14.7196 	 88.3365
| 28> H 	 -6.53254 	 16.289 	 91.3087
| 29> C 	 -6.15559 	 13.4813 	 90.4592
| 30> H 	 -5.10811 	 13.5579 	 90.6781
| 31> H 	 -6.19851 	 12.5625 	 89.8956
| 32> C 	 -7.05994 	 13.2304 	 91.7265
| 33> H 	 -7.16613 	 14.1917 	 92.275
| 34> H 	 -6.57179 	 12.3355 	 92.3474
| 35> C 	 -8.46158 	 12.8204 	 91.4001
| 36> H 	 -8.99952 	 12.6304 	 92.2687
| 37> H 	 -8.47456 	 11.9432 	 90.7661
| 38> H 	 -8.93966 	 13.579 	 90.7701
| 39> H 	 -5.77031 	 11.9364 	 84.4644
| 40> H 	 -7.09492 	 18.0136 	 89.6882
| 41> *
| 42>
| 43>                          ****END OF INPUT****

CARTESIAN COORDINATES (ANGSTROEM)
---------------------------------
  S     -5.212920   13.060700   86.663500
  C     -6.188470   12.299700   85.359300
  C     -7.531710   12.213300   85.715600
  C     -7.809780   12.988200   86.905700
  C     -6.704170   13.604500   87.391900
  H     -8.809410   13.183800   87.336300
  C     -8.658810   11.544200   84.974600
  H     -8.607260   11.846600   83.928500
  H     -9.526160   11.989000   85.504400
  C     -8.884320   10.015900   85.040000
  H     -9.911110    9.841370   84.672500
  H     -8.160300    9.563900   84.372000
  C     -8.826410    9.479960   86.424500
  H     -9.621590    9.888180   87.118100
  H     -8.891430    8.380260   86.527200
  H     -7.839740    9.804800   86.826400
  S     -7.230340   16.321700   87.837300
  C     -7.059070   16.973900   89.392600
  C     -6.654770   16.002500   90.257300
  C     -6.512800   14.718500   89.673700
  C     -6.649390   14.719600   88.336500
  H     -6.532540   16.289000   91.308700
  C     -6.155590   13.481300   90.459200
  H     -5.108110   13.557900   90.678100
  H     -6.198510   12.562500   89.895600
  C     -7.059940   13.230400   91.726500
  H     -7.166130   14.191700   92.275000
  H     -6.571790   12.335500   92.347400
  C     -8.461580   12.820400   91.400100
  H     -8.999520   12.630400   92.268700
  H     -8.474560   11.943200   90.766100
  H     -8.939660   13.579000   90.770100
  H     -5.770310   11.936400   84.464400
  H     -7.094920   18.013600   89.688200

 Total Charge           Charge          ....    0
 Multiplicity           Mult            ....    1
 Number of Electrons    NEL             ....  134
 Basis Dimension        Dim             ....  322

ORBITAL ENERGIES
----------------

  NO   OCC          E(Eh)            E(eV)
   0   2.0000     -88.965474     -2420.8736
   1   2.0000     -88.960466     -2420.7373
   2   2.0000     -10.325746      -280.9778
   3   2.0000     -10.319121      -280.7976
   4   2.0000     -10.316186      -280.7177
   5   2.0000     -10.311697      -280.5955
   6   2.0000     -10.305238      -280.4198
   7   2.0000     -10.296858      -280.1917
   8   2.0000     -10.296561      -280.1837
   9   2.0000     -10.296481      -280.1815
  10   2.0000     -10.293010      -280.0870
  11   2.0000     -10.288817      -279.9729
  12   2.0000     -10.286784      -279.9176
  13   2.0000     -10.286176      -279.9011
  14   2.0000     -10.280370      -279.7431
  15   2.0000     -10.265957      -279.3509
  16   2.0000      -8.079825      -219.8632
  17   2.0000      -8.076040      -219.7602
  18   2.0000      -6.038358      -164.3121
  19   2.0000      -6.034620      -164.2103
  20   2.0000      -6.034562      -164.2088
  21   2.0000      -6.030373      -164.0948
  22   2.0000      -6.030355      -164.0943
  23   2.0000      -6.026772      -163.9968
  24   2.0000      -1.011496       -27.5242
  25   2.0000      -0.986609       -26.8470
  26   2.0000      -0.915552       -24.9134
  27   2.0000      -0.907882       -24.7047
  28   2.0000      -0.870827       -23.6964
  29   2.0000      -0.850171       -23.1343
  30   2.0000      -0.848142       -23.0791
  31   2.0000      -0.814313       -22.1586
  32   2.0000      -0.784443       -21.3458
  33   2.0000      -0.774739       -21.0817
  34   2.0000      -0.703833       -19.1523
  35   2.0000      -0.699791       -19.0423
  36   2.0000      -0.690463       -18.7885
  37   2.0000      -0.651279       -17.7222
  38   2.0000      -0.641053       -17.4439
  39   2.0000      -0.612432       -16.6651
  40   2.0000      -0.600829       -16.3494
  41   2.0000      -0.574434       -15.6311
  42   2.0000      -0.557780       -15.1780
  43   2.0000      -0.555710       -15.1216
  44   2.0000      -0.549068       -14.9409
  45   2.0000      -0.537042       -14.6137
  46   2.0000      -0.523450       -14.2438
  47   2.0000      -0.512038       -13.9333
  48   2.0000      -0.502984       -13.6869
  49   2.0000      -0.493945       -13.4409
  50   2.0000      -0.485548       -13.2124
  51   2.0000      -0.476037       -12.9536
  52   2.0000      -0.469409       -12.7733
  53   2.0000      -0.468798       -12.7566
  54   2.0000      -0.460895       -12.5416
  55   2.0000      -0.445628       -12.1261
  56   2.0000      -0.444223       -12.0879
  57   2.0000      -0.435808       -11.8589
  58   2.0000      -0.431707       -11.7473
  59   2.0000      -0.423295       -11.5184
  60   2.0000      -0.417218       -11.3531
  61   2.0000      -0.412917       -11.2360
  62   2.0000      -0.404177       -10.9982
  63   2.0000      -0.335029        -9.1166
  64   2.0000      -0.331071        -9.0089
  65   2.0000      -0.325448        -8.8559
  66   2.0000      -0.307308        -8.3623
  67   0.0000       0.039041         1.0624
  68   0.0000       0.057047         1.5523
  69   0.0000       0.099501         2.7076
  70   0.0000       0.116215         3.1624
  71   0.0000       0.133843         3.6420

MULLIKEN ATOMIC CHARGES
-----------------------
   0 S :    0.106323
   1 C :   -0.110786
   2 C :   -0.106387
   3 C :    0.036735
   4 C :   -0.192114
   5 H :    0.029644
   6 C :    0.052843
   7 H :    0.040304
   8 H :    0.016549
   9 C :   -0.027940
  10 H :    0.033142
  11 H :    0.029166
  12 C :   -0.096408
  13 H :    0.034462
  14 H :    0.041859
  15 H :    0.045180
  16 S :    0.109439
  17 C :   -0.081398
  18 C :   -0.054642
  19 C :   -0.024612
  20 C :   -0.153633
  21 H :    0.022751
  22 C :    0.102392
  23 H :    0.034202
  24 H :    0.016452
  25 C :   -0.141787
  26 H :    0.037339
  27 H :    0.048776
  28 C :   -0.009587
  29 H :    0.027473
  30 H :    0.015644
  31 H :    0.031821
  32 H :    0.029084
  33 H :    0.057713
Sum of atomic charges:    0.0000000

LOEWDIN ATOMIC CHARGES
----------------------
   0 S :    0.384040
   1 C :   -0.171079
   2 C :   -0.062296
   3 C :   -0.061526
   4 C :   -0.189368
   5 H :    0.039337
   6 C :   -0.034630
   7 H :    0.035403
   8 H :    0.032428
   9 C :   -0.040388
  10 H :    0.028685
  11 H :    0.022297
  12 C :   -0.077392
  13 H :    0.029360
  14 H :    0.028170
  15 H :    0.029805
  16 S :    0.413736
  17 C :   -0.196253
  18 C :   -0.083280
  19 C :   -0.059527
  20 C :   -0.200111
  21 H :    0.032585
  22 C :   -0.030810
  23 H :    0.032790
  24 H :    0.026525
  25 C :   -0.044938
  26 H :    0.023499
  27 H :    0.037171
  28 C :   -0.063443
  29 H :    0.018758
  30 H :    0.021613
  31 H :    0.027551
  32 H :    0.015995
  33 H :    0.035295

  Mayer bond orders larger than 0.100000
B(  0-S ,  1-C ) :   1.1213 B(  0-S ,  4-C ) :   1.1390 B(  1-C ,  2-C ) :   1.6260
B(  1-C , 32-H ) :   0.9821 B(  2-C ,  3-C ) :   1.1905 B(  2-C ,  6-C ) :   1.0137
B(  3-C ,  4-C ) :   1.6448 B(  3-C ,  5-H ) :   0.9868 B(  4-C , 20-C ) :   0.9837
B(  6-C ,  7-H ) :   0.9417 B(  6-C ,  8-H ) :   0.9371 B(  6-C ,  9-C ) :   1.0743
B(  9-C , 10-H ) :   0.9536 B(  9-C , 11-H ) :   0.9539 B(  9-C , 12-C ) :   1.0814
B( 12-C , 13-H ) :   0.9734 B( 12-C , 14-H ) :   0.9727 B( 12-C , 15-H ) :   0.9695
B( 16-S , 17-C ) :   1.1708 B( 16-S , 20-C ) :   1.1248 B( 17-C , 18-C ) :   1.6192
B( 17-C , 33-H ) :   0.9634 B( 18-C , 19-C ) :   1.2239 B( 18-C , 21-H ) :   0.9893
B( 19-C , 20-C ) :   1.6302 B( 19-C , 22-C ) :   1.0379 B( 22-C , 23-H ) :   0.9356
B( 22-C , 24-H ) :   0.9310 B( 22-C , 25-C ) :   1.0555 B( 25-C , 26-H ) :   0.9583
B( 25-C , 27-H ) :   0.9552 B( 25-C , 28-C ) :   1.0808 B( 28-C , 29-H ) :   0.9713
B( 28-C , 30-H ) :   0.9699 B( 28-C , 31-H ) :   0.9709

Dispersion correction           -0.015206479
FINAL SINGLE POINT ENERGY     -1339.872690555956

DIPOLE MOMENT
-------------
                                X             Y             Z
Electronic contribution:     13.03866      19.64039      -8.14616
Nuclear contribution   :    -13.35773     -19.92265       8.29337
                        -----------------------------------------
Total Dipole Moment    :     -0.31907      -0.28226       0.14721
                        -----------------------------------------
Magnitude (a.u.)       :      0.45072
Magnitude (Debye)      :      1.14563

Rotational constants in cm-1:     0.019736     0.008788     0.007403
Rotational constants in MHz :   591.673749   263.463104   221.928881

                             ****ORCA TERMINATED NORMALLY****
TOTAL RUN TIME: 0 days 0 hours 0 minutes 33 seconds 820 msec
