                         Program Version 4.2.1 -  RELEASE  -
|  1> ! wB97X-D3 SP def2-SVP
|  2> %pal
|  3> nprocs 16
|  4> end
|  5>
|  6> * xyz 0 1
|  7> S 	 52.1736 	 24.2535 	 93.7821
|  8> C 	 50.926 	 24.088 	 94.9809
|  9> C 	 51.0099 	 22.8825 	 95.61
| 10> C 	 52.2382 	 22.2136 	 95.4129
| 11> C 	 53.0564 	 22.8572 	 94.4763
| 12> H 	 52.5978 	 21.2228 	 95.798
| 13> C 	 49.9851 	 22.3437 	 96.6004
| 14> H 	 49.8773 	 21.2257 	 96.5053
| 15> H 	 49.0803 	 22.8637 	 96.2345
| 16> C 	 50.4398 	 22.6784 	 98.0347
| 17> H 	 49.535 	 22.3477 	 98.5732
| 18> H 	 51.2007 	 22.0366 	 98.4535
| 19> C 	 50.6549 	 24.1662 	 98.3963
| 20> H 	 49.8446 	 24.7176 	 98.0477
| 21> H 	 50.797 	 24.3877 	 99.4862
| 22> H 	 51.5995 	 24.5203 	 97.8933
| 23> S 	 55.6922 	 22.5027 	 95.3392
| 24> C 	 56.9855 	 22.3414 	 94.1117
| 25> C 	 56.4576 	 22.4705 	 92.8626
| 26> C 	 55.0517 	 22.4717 	 92.8164
| 27> C 	 54.4412 	 22.5892 	 94.0685
| 28> H 	 57.1533 	 22.5155 	 91.9972
| 29> C 	 54.2838 	 22.2589 	 91.5199
| 30> H 	 54.9299 	 22.168 	 90.6417
| 31> H 	 53.7775 	 23.1869 	 91.3053
| 32> C 	 53.2596 	 21.1703 	 91.4454
| 33> H 	 52.9516 	 21.0171 	 90.3956
| 34> H 	 52.4114 	 21.3473 	 92.0981
| 35> C 	 53.8744 	 19.796 	 91.9184
| 36> H 	 54.6506 	 19.4577 	 91.1973
| 37> H 	 53.1583 	 18.9566 	 91.8537
| 38> H 	 54.2515 	 19.8505 	 92.9228
| 39> H 	 50.1217 	 24.7536 	 95.0838
| 40> H 	 58.0045 	 22.4988 	 94.3328
| 41> *
| 42>
| 43>                          ****END OF INPUT****

CARTESIAN COORDINATES (ANGSTROEM)
---------------------------------
  S     52.173600   24.253500   93.782100
  C     50.926000   24.088000   94.980900
  C     51.009900   22.882500   95.610000
  C     52.238200   22.213600   95.412900
  C     53.056400   22.857200   94.476300
  H     52.597800   21.222800   95.798000
  C     49.985100   22.343700   96.600400
  H     49.877300   21.225700   96.505300
  H     49.080300   22.863700   96.234500
  C     50.439800   22.678400   98.034700
  H     49.535000   22.347700   98.573200
  H     51.200700   22.036600   98.453500
  C     50.654900   24.166200   98.396300
  H     49.844600   24.717600   98.047700
  H     50.797000   24.387700   99.486200
  H     51.599500   24.520300   97.893300
  S     55.692200   22.502700   95.339200
  C     56.985500   22.341400   94.111700
  C     56.457600   22.470500   92.862600
  C     55.051700   22.471700   92.816400
  C     54.441200   22.589200   94.068500
  H     57.153300   22.515500   91.997200
  C     54.283800   22.258900   91.519900
  H     54.929900   22.168000   90.641700
  H     53.777500   23.186900   91.305300
  C     53.259600   21.170300   91.445400
  H     52.951600   21.017100   90.395600
  H     52.411400   21.347300   92.098100
  C     53.874400   19.796000   91.918400
  H     54.650600   19.457700   91.197300
  H     53.158300   18.956600   91.853700
  H     54.251500   19.850500   92.922800
  H     50.121700   24.753600   95.083800
  H     58.004500   22.498800   94.332800

 Total Charge           Charge          ....    0
 Multiplicity           Mult            ....    1
 Number of Electrons    NEL             ....  134
 Basis Dimension        Dim             ....  322

ORBITAL ENERGIES
----------------

  NO   OCC          E(Eh)            E(eV)
   0   2.0000     -88.965694     -2420.8796
   1   2.0000     -88.964982     -2420.8602
   2   2.0000     -10.336473      -281.2697
   3   2.0000     -10.332235      -281.1544
   4   2.0000     -10.314877      -280.6821
   5   2.0000     -10.309727      -280.5419
   6   2.0000     -10.303559      -280.3741
   7   2.0000     -10.301150      -280.3085
   8   2.0000     -10.300515      -280.2913
   9   2.0000     -10.297067      -280.1974
  10   2.0000     -10.294879      -280.1379
  11   2.0000     -10.288418      -279.9621
  12   2.0000     -10.285452      -279.8814
  13   2.0000     -10.282345      -279.7968
  14   2.0000     -10.278879      -279.7025
  15   2.0000     -10.271211      -279.4939
  16   2.0000      -8.079928      -219.8660
  17   2.0000      -8.078566      -219.8290
  18   2.0000      -6.038487      -164.3156
  19   2.0000      -6.037195      -164.2804
  20   2.0000      -6.034586      -164.2094
  21   2.0000      -6.033199      -164.1717
  22   2.0000      -6.030583      -164.1005
  23   2.0000      -6.029299      -164.0656
  24   2.0000      -1.003420       -27.3045
  25   2.0000      -0.983882       -26.7728
  26   2.0000      -0.910364       -24.7723
  27   2.0000      -0.905780       -24.6475
  28   2.0000      -0.868451       -23.6318
  29   2.0000      -0.845582       -23.0095
  30   2.0000      -0.837851       -22.7991
  31   2.0000      -0.814427       -22.1617
  32   2.0000      -0.782431       -21.2910
  33   2.0000      -0.773633       -21.0516
  34   2.0000      -0.713863       -19.4252
  35   2.0000      -0.695646       -18.9295
  36   2.0000      -0.684474       -18.6255
  37   2.0000      -0.664563       -18.0837
  38   2.0000      -0.639445       -17.4002
  39   2.0000      -0.613154       -16.6848
  40   2.0000      -0.590405       -16.0657
  41   2.0000      -0.567183       -15.4338
  42   2.0000      -0.556776       -15.1506
  43   2.0000      -0.550665       -14.9844
  44   2.0000      -0.546930       -14.8827
  45   2.0000      -0.533598       -14.5199
  46   2.0000      -0.525029       -14.2868
  47   2.0000      -0.510906       -13.9025
  48   2.0000      -0.499907       -13.6032
  49   2.0000      -0.488091       -13.2816
  50   2.0000      -0.485390       -13.2081
  51   2.0000      -0.473706       -12.8902
  52   2.0000      -0.469149       -12.7662
  53   2.0000      -0.465740       -12.6734
  54   2.0000      -0.456409       -12.4195
  55   2.0000      -0.449050       -12.2193
  56   2.0000      -0.440491       -11.9864
  57   2.0000      -0.439578       -11.9615
  58   2.0000      -0.432382       -11.7657
  59   2.0000      -0.428277       -11.6540
  60   2.0000      -0.414715       -11.2850
  61   2.0000      -0.408531       -11.1167
  62   2.0000      -0.399751       -10.8778
  63   2.0000      -0.347403        -9.4533
  64   2.0000      -0.332517        -9.0483
  65   2.0000      -0.328208        -8.9310
  66   2.0000      -0.289626        -7.8811
  67   0.0000       0.023603         0.6423
  68   0.0000       0.059571         1.6210
  69   0.0000       0.100379         2.7314
  70   0.0000       0.114858         3.1254
  71   0.0000       0.135849         3.6966

MULLIKEN ATOMIC CHARGES
-----------------------
   0 S :    0.110272
   1 C :   -0.107999
   2 C :   -0.087957
   3 C :    0.014230
   4 C :   -0.173652
   5 H :    0.035408
   6 C :    0.056195
   7 H :    0.045472
   8 H :    0.026807
   9 C :   -0.079535
  10 H :    0.026252
  11 H :    0.035426
  12 C :   -0.052970
  13 H :    0.015499
  14 H :    0.045235
  15 H :    0.053321
  16 S :    0.091680
  17 C :   -0.079336
  18 C :   -0.047128
  19 C :   -0.046993
  20 C :   -0.148584
  21 H :    0.035292
  22 C :    0.095348
  23 H :    0.010004
  24 H :    0.022940
  25 C :   -0.064731
  26 H :    0.034498
  27 H :    0.039953
  28 C :   -0.079881
  29 H :    0.023559
  30 H :    0.026892
  31 H :    0.047056
  32 H :    0.027055
  33 H :    0.050373
Sum of atomic charges:    0.0000000

LOEWDIN ATOMIC CHARGES
----------------------
   0 S :    0.395461
   1 C :   -0.190920
   2 C :   -0.069983
   3 C :   -0.067079
   4 C :   -0.178586
   5 H :    0.042868
   6 C :   -0.029967
   7 H :    0.041537
   8 H :    0.031645
   9 C :   -0.045075
  10 H :    0.026360
  11 H :    0.024087
  12 C :   -0.066268
  13 H :    0.012742
  14 H :    0.034324
  15 H :    0.033626
  16 S :    0.378178
  17 C :   -0.169682
  18 C :   -0.068542
  19 C :   -0.060857
  20 C :   -0.189513
  21 H :    0.040331
  22 C :   -0.038403
  23 H :    0.030415
  24 H :    0.029452
  25 C :   -0.036985
  26 H :    0.030288
  27 H :    0.022040
  28 C :   -0.070433
  29 H :    0.023711
  30 H :    0.023361
  31 H :    0.021715
  32 H :    0.017323
  33 H :    0.022829

  Mayer bond orders larger than 0.100000
B(  0-S ,  1-C ) :   1.1362 B(  0-S ,  4-C ) :   1.1405 B(  1-C ,  2-C ) :   1.6157
B(  1-C , 32-H ) :   0.9736 B(  2-C ,  3-C ) :   1.2133 B(  2-C ,  6-C ) :   1.0206
B(  3-C ,  4-C ) :   1.5781 B(  3-C ,  5-H ) :   0.9887 B(  4-C , 20-C ) :   1.0576
B(  6-C ,  7-H ) :   0.9410 B(  6-C ,  8-H ) :   0.9411 B(  6-C ,  9-C ) :   1.0657
B(  9-C , 10-H ) :   0.9546 B(  9-C , 11-H ) :   0.9580 B(  9-C , 12-C ) :   1.0722
B( 12-C , 13-H ) :   0.9754 B( 12-C , 14-H ) :   0.9742 B( 12-C , 15-H ) :   0.9716
B( 16-S , 17-C ) :   1.1380 B( 16-S , 20-C ) :   1.1326 B( 17-C , 18-C ) :   1.6299
B( 17-C , 20-C ) :   0.1023 B( 17-C , 33-H ) :   0.9659 B( 18-C , 19-C ) :   1.2542
B( 18-C , 21-H ) :   0.9790 B( 19-C , 20-C ) :   1.5670 B( 19-C , 22-C ) :   1.0307
B( 22-C , 23-H ) :   0.9377 B( 22-C , 24-H ) :   0.9198 B( 22-C , 25-C ) :   1.0858
B( 25-C , 26-H ) :   0.9540 B( 25-C , 27-H ) :   0.9501 B( 25-C , 28-C ) :   1.0764
B( 28-C , 29-H ) :   0.9767 B( 28-C , 30-H ) :   0.9771 B( 28-C , 31-H ) :   0.9740

Dispersion correction           -0.015948236
FINAL SINGLE POINT ENERGY     -1339.873314899218

DIPOLE MOMENT
-------------
                                X             Y             Z
Electronic contribution:     11.38090       8.32212      -1.95825
Nuclear contribution   :    -11.62362      -8.45007       1.92117
                        -----------------------------------------
Total Dipole Moment    :     -0.24272      -0.12795      -0.03708
                        -----------------------------------------
Magnitude (a.u.)       :      0.27687
Magnitude (Debye)      :      0.70374

Rotational constants in cm-1:     0.022316     0.008622     0.007564
Rotational constants in MHz :   669.029848   258.472422   226.764241

                             ****ORCA TERMINATED NORMALLY****
TOTAL RUN TIME: 0 days 0 hours 0 minutes 32 seconds 940 msec
