                         Program Version 4.2.1 -  RELEASE  -
|  1> ! wB97X-D3 SP def2-SVP
|  2> %pal
|  3> nprocs 16
|  4> end
|  5>
|  6> * xyz 0 1
|  7> S 	 -41.7009 	 28.7219 	 77.7444
|  8> C 	 -40.3173 	 29.8405 	 77.9179
|  9> C 	 -39.0939 	 29.2438 	 77.9211
| 10> C 	 -39.2292 	 27.8662 	 77.734
| 11> C 	 -40.5119 	 27.4641 	 77.5563
| 12> H 	 -38.4149 	 27.1073 	 77.7685
| 13> C 	 -37.7119 	 29.8866 	 77.9857
| 14> H 	 -37.4706 	 30.2356 	 76.942
| 15> H 	 -37.0239 	 29.1456 	 78.2599
| 16> C 	 -37.5508 	 31.1895 	 78.8241
| 17> H 	 -38.125 	 31.8774 	 78.3458
| 18> H 	 -38.0407 	 31.0559 	 79.7667
| 19> C 	 -36.1839 	 31.769 	 78.7955
| 20> H 	 -35.9359 	 31.9372 	 77.7577
| 21> H 	 -36.2335 	 32.7288 	 79.265
| 22> H 	 -35.3991 	 31.1351 	 79.2391
| 23> S 	 -42.1843 	 25.2919 	 78.4233
| 24> C 	 -42.0404 	 23.8617 	 77.4794
| 25> C 	 -41.0412 	 23.8581 	 76.5399
| 26> C 	 -40.4251 	 25.1542 	 76.4661
| 27> C 	 -40.9406 	 26.0476 	 77.3826
| 28> H 	 -40.7465 	 22.9663 	 76.0567
| 29> C 	 -39.3959 	 25.5146 	 75.4153
| 30> H 	 -38.4998 	 25.2854 	 76.0908
| 31> H 	 -39.3289 	 26.5768 	 75.2177
| 32> C 	 -39.2114 	 24.6245 	 74.149
| 33> H 	 -39.2583 	 23.5847 	 74.5017
| 34> H 	 -38.2412 	 24.847 	 73.7142
| 35> C 	 -40.3455 	 24.6845 	 73.1094
| 36> H 	 -40.059 	 24.0146 	 72.2161
| 37> H 	 -40.5013 	 25.7003 	 72.8247
| 38> H 	 -41.2686 	 24.2928 	 73.5022
| 39> H 	 -40.495 	 30.8381 	 78.2954
| 40> H 	 -42.8207 	 23.1005 	 77.4692
| 41> *
| 42>
| 43>                          ****END OF INPUT****

CARTESIAN COORDINATES (ANGSTROEM)
---------------------------------
  S    -41.700900   28.721900   77.744400
  C    -40.317300   29.840500   77.917900
  C    -39.093900   29.243800   77.921100
  C    -39.229200   27.866200   77.734000
  C    -40.511900   27.464100   77.556300
  H    -38.414900   27.107300   77.768500
  C    -37.711900   29.886600   77.985700
  H    -37.470600   30.235600   76.942000
  H    -37.023900   29.145600   78.259900
  C    -37.550800   31.189500   78.824100
  H    -38.125000   31.877400   78.345800
  H    -38.040700   31.055900   79.766700
  C    -36.183900   31.769000   78.795500
  H    -35.935900   31.937200   77.757700
  H    -36.233500   32.728800   79.265000
  H    -35.399100   31.135100   79.239100
  S    -42.184300   25.291900   78.423300
  C    -42.040400   23.861700   77.479400
  C    -41.041200   23.858100   76.539900
  C    -40.425100   25.154200   76.466100
  C    -40.940600   26.047600   77.382600
  H    -40.746500   22.966300   76.056700
  C    -39.395900   25.514600   75.415300
  H    -38.499800   25.285400   76.090800
  H    -39.328900   26.576800   75.217700
  C    -39.211400   24.624500   74.149000
  H    -39.258300   23.584700   74.501700
  H    -38.241200   24.847000   73.714200
  C    -40.345500   24.684500   73.109400
  H    -40.059000   24.014600   72.216100
  H    -40.501300   25.700300   72.824700
  H    -41.268600   24.292800   73.502200
  H    -40.495000   30.838100   78.295400
  H    -42.820700   23.100500   77.469200

 Total Charge           Charge          ....    0
 Multiplicity           Mult            ....    1
 Number of Electrons    NEL             ....  134
 Basis Dimension        Dim             ....  322

ORBITAL ENERGIES
----------------

  NO   OCC          E(Eh)            E(eV)
   0   2.0000     -88.965774     -2420.8818
   1   2.0000     -88.964547     -2420.8484
   2   2.0000     -10.323941      -280.9287
   3   2.0000     -10.320583      -280.8373
   4   2.0000     -10.314021      -280.6588
   5   2.0000     -10.310158      -280.5537
   6   2.0000     -10.303183      -280.3639
   7   2.0000     -10.297884      -280.2197
   8   2.0000     -10.295353      -280.1508
   9   2.0000     -10.293665      -280.1049
  10   2.0000     -10.290788      -280.0266
  11   2.0000     -10.290350      -280.0146
  12   2.0000     -10.289073      -279.9799
  13   2.0000     -10.277881      -279.6754
  14   2.0000     -10.276551      -279.6392
  15   2.0000     -10.274927      -279.5950
  16   2.0000      -8.080355      -219.8776
  17   2.0000      -8.079340      -219.8500
  18   2.0000      -6.038724      -164.3220
  19   2.0000      -6.037781      -164.2964
  20   2.0000      -6.035172      -164.2254
  21   2.0000      -6.034025      -164.1942
  22   2.0000      -6.030998      -164.1118
  23   2.0000      -6.030001      -164.0847
  24   2.0000      -1.006022       -27.3753
  25   2.0000      -0.985296       -26.8113
  26   2.0000      -0.917099       -24.9555
  27   2.0000      -0.905573       -24.6419
  28   2.0000      -0.869918       -23.6717
  29   2.0000      -0.856274       -23.3004
  30   2.0000      -0.845564       -23.0090
  31   2.0000      -0.812880       -22.1196
  32   2.0000      -0.786372       -21.3983
  33   2.0000      -0.771573       -20.9956
  34   2.0000      -0.713789       -19.4232
  35   2.0000      -0.699550       -19.0357
  36   2.0000      -0.688193       -18.7267
  37   2.0000      -0.653643       -17.7865
  38   2.0000      -0.638863       -17.3844
  39   2.0000      -0.616966       -16.7885
  40   2.0000      -0.598084       -16.2747
  41   2.0000      -0.576623       -15.6907
  42   2.0000      -0.565282       -15.3821
  43   2.0000      -0.542980       -14.7752
  44   2.0000      -0.541930       -14.7467
  45   2.0000      -0.527686       -14.3591
  46   2.0000      -0.523620       -14.2484
  47   2.0000      -0.510385       -13.8883
  48   2.0000      -0.501653       -13.6507
  49   2.0000      -0.493744       -13.4355
  50   2.0000      -0.487721       -13.2716
  51   2.0000      -0.481717       -13.1082
  52   2.0000      -0.471314       -12.8251
  53   2.0000      -0.465952       -12.6792
  54   2.0000      -0.459274       -12.4975
  55   2.0000      -0.454532       -12.3684
  56   2.0000      -0.449700       -12.2370
  57   2.0000      -0.434804       -11.8316
  58   2.0000      -0.427805       -11.6412
  59   2.0000      -0.427132       -11.6229
  60   2.0000      -0.424831       -11.5603
  61   2.0000      -0.422914       -11.5081
  62   2.0000      -0.416356       -11.3296
  63   2.0000      -0.338604        -9.2139
  64   2.0000      -0.333179        -9.0663
  65   2.0000      -0.327572        -8.9137
  66   2.0000      -0.290783        -7.9126
  67   0.0000       0.030933         0.8417
  68   0.0000       0.073973         2.0129
  69   0.0000       0.103930         2.8281
  70   0.0000       0.122450         3.3320
  71   0.0000       0.132706         3.6111

MULLIKEN ATOMIC CHARGES
-----------------------
   0 S :    0.105783
   1 C :   -0.144441
   2 C :   -0.048283
   3 C :   -0.008556
   4 C :   -0.158926
   5 H :    0.025376
   6 C :    0.064302
   7 H :    0.043605
   8 H :    0.010394
   9 C :   -0.059430
  10 H :    0.002135
  11 H :    0.024011
  12 C :   -0.011741
  13 H :    0.017302
  14 H :    0.031228
  15 H :    0.037111
  16 S :    0.111221
  17 C :   -0.090487
  18 C :   -0.036419
  19 C :   -0.029867
  20 C :   -0.165685
  21 H :    0.009777
  22 C :    0.007514
  23 H :    0.048999
  24 H :    0.045214
  25 C :   -0.048739
  26 H :    0.020453
  27 H :    0.034630
  28 C :   -0.046480
  29 H :    0.045076
  30 H :    0.028722
  31 H :    0.029964
  32 H :    0.045654
  33 H :    0.060583
Sum of atomic charges:    0.0000000

LOEWDIN ATOMIC CHARGES
----------------------
   0 S :    0.390431
   1 C :   -0.187086
   2 C :   -0.061871
   3 C :   -0.066787
   4 C :   -0.187667
   5 H :    0.038942
   6 C :   -0.020903
   7 H :    0.042245
   8 H :    0.018298
   9 C :   -0.038718
  10 H :    0.012698
  11 H :    0.019850
  12 C :   -0.055044
  13 H :    0.025187
  14 H :    0.027976
  15 H :    0.026336
  16 S :    0.392311
  17 C :   -0.185258
  18 C :   -0.074267
  19 C :   -0.048668
  20 C :   -0.203582
  21 H :    0.026232
  22 C :   -0.040680
  23 H :    0.048462
  24 H :    0.029120
  25 C :   -0.040185
  26 H :    0.022968
  27 H :    0.026682
  28 C :   -0.064659
  29 H :    0.036513
  30 H :    0.018890
  31 H :    0.021779
  32 H :    0.020797
  33 H :    0.029659

  Mayer bond orders larger than 0.100000
B(  0-S ,  1-C ) :   1.1208 B(  0-S ,  4-C ) :   1.1519 B(  1-C ,  2-C ) :   1.6382
B(  1-C , 32-H ) :   0.9606 B(  2-C ,  3-C ) :   1.2340 B(  2-C ,  6-C ) :   1.0135
B(  3-C ,  4-C ) :   1.5944 B(  3-C ,  5-H ) :   0.9883 B(  4-C , 20-C ) :   1.0263
B(  6-C ,  7-H ) :   0.9334 B(  6-C ,  8-H ) :   0.9454 B(  6-C ,  9-C ) :   1.0642
B(  9-C , 10-H ) :   0.9412 B(  9-C , 11-H ) :   0.9620 B(  9-C , 12-C ) :   1.0961
B( 12-C , 13-H ) :   0.9674 B( 12-C , 14-H ) :   0.9695 B( 12-C , 15-H ) :   0.9764
B( 16-S , 17-C ) :   1.1649 B( 16-S , 20-C ) :   1.1128 B( 17-C , 18-C ) :   1.6292
B( 17-C , 33-H ) :   0.9567 B( 18-C , 19-C ) :   1.2236 B( 18-C , 21-H ) :   0.9922
B( 19-C , 20-C ) :   1.6298 B( 19-C , 22-C ) :   1.0175 B( 22-C , 23-H ) :   0.9230
B( 22-C , 24-H ) :   0.9405 B( 22-C , 25-C ) :   1.0770 B( 25-C , 26-H ) :   0.9484
B( 25-C , 27-H ) :   0.9532 B( 25-C , 28-C ) :   1.0789 B( 28-C , 29-H ) :   0.9740
B( 28-C , 30-H ) :   0.9765 B( 28-C , 31-H ) :   0.9742

Dispersion correction           -0.013787185
FINAL SINGLE POINT ENERGY     -1339.866939811314

DIPOLE MOMENT
-------------
                                X             Y             Z
Electronic contribution:    -22.28837      -6.59738      11.54196
Nuclear contribution   :     22.90836       6.62243     -11.77982
                        -----------------------------------------
Total Dipole Moment    :      0.61999       0.02505      -0.23786
                        -----------------------------------------
Magnitude (a.u.)       :      0.66453
Magnitude (Debye)      :      1.68909

Rotational constants in cm-1:     0.020901     0.007249     0.006027
Rotational constants in MHz :   626.600759   217.334446   180.674142

                             ****ORCA TERMINATED NORMALLY****
TOTAL RUN TIME: 0 days 0 hours 0 minutes 29 seconds 524 msec
