                         Program Version 4.2.1 -  RELEASE  -
|  1> ! wB97X-D3 SP def2-SVP
|  2> %pal
|  3> nprocs 16
|  4> end
|  5>
|  6> * xyz 0 1
|  7> S 	 -97.1315 	 51.188 	 123.542
|  8> C 	 -96.1238 	 51.0741 	 122.102
|  9> C 	 -96.8754 	 51.2556 	 120.916
| 10> C 	 -98.291 	 51.0768 	 121.216
| 11> C 	 -98.5104 	 50.9059 	 122.57
| 12> H 	 -99.0344 	 51.2706 	 120.484
| 13> C 	 -96.2751 	 51.5217 	 119.489
| 14> H 	 -95.9011 	 52.5083 	 119.459
| 15> H 	 -97.059 	 51.4055 	 118.77
| 16> C 	 -95.0378 	 50.6506 	 118.968
| 17> H 	 -94.2447 	 50.8205 	 119.741
| 18> H 	 -95.2646 	 49.6422 	 118.964
| 19> C 	 -94.5371 	 51.0387 	 117.623
| 20> H 	 -93.6392 	 50.4097 	 117.384
| 21> H 	 -95.3366 	 50.9952 	 116.832
| 22> H 	 -94.2979 	 52.1522 	 117.626
| 23> S 	 -100.22 	 52.087 	 124.434
| 24> C 	 -101.896 	 51.7175 	 124.273
| 25> C 	 -102.192 	 50.7879 	 123.308
| 26> C 	 -100.984 	 50.3141 	 122.657
| 27> C 	 -99.8575 	 50.9428 	 123.128
| 28> H 	 -103.249 	 50.5221 	 123.068
| 29> C 	 -101.12 	 49.2183 	 121.673
| 30> H 	 -100.194 	 48.9812 	 121.285
| 31> H 	 -101.717 	 49.3674 	 120.799
| 32> C 	 -101.638 	 47.8279 	 122.233
| 33> H 	 -101.301 	 47.1538 	 121.499
| 34> H 	 -102.711 	 47.8902 	 122.23
| 35> C 	 -101.082 	 47.3498 	 123.648
| 36> H 	 -100.963 	 46.219 	 123.631
| 37> H 	 -101.766 	 47.6676 	 124.44
| 38> H 	 -100.148 	 47.8766 	 123.87
| 39> H 	 -95.0109 	 51.187 	 122.248
| 40> H 	 -102.663 	 52.2304 	 124.817
| 41> *
| 42>
| 43>                          ****END OF INPUT****

CARTESIAN COORDINATES (ANGSTROEM)
---------------------------------
  S    -97.131500   51.188000  123.542000
  C    -96.123800   51.074100  122.102000
  C    -96.875400   51.255600  120.916000
  C    -98.291000   51.076800  121.216000
  C    -98.510400   50.905900  122.570000
  H    -99.034400   51.270600  120.484000
  C    -96.275100   51.521700  119.489000
  H    -95.901100   52.508300  119.459000
  H    -97.059000   51.405500  118.770000
  C    -95.037800   50.650600  118.968000
  H    -94.244700   50.820500  119.741000
  H    -95.264600   49.642200  118.964000
  C    -94.537100   51.038700  117.623000
  H    -93.639200   50.409700  117.384000
  H    -95.336600   50.995200  116.832000
  H    -94.297900   52.152200  117.626000
  S    -100.220000   52.087000  124.434000
  C    -101.896000   51.717500  124.273000
  C    -102.192000   50.787900  123.308000
  C    -100.984000   50.314100  122.657000
  C    -99.857500   50.942800  123.128000
  H    -103.249000   50.522100  123.068000
  C    -101.120000   49.218300  121.673000
  H    -100.194000   48.981200  121.285000
  H    -101.717000   49.367400  120.799000
  C    -101.638000   47.827900  122.233000
  H    -101.301000   47.153800  121.499000
  H    -102.711000   47.890200  122.230000
  C    -101.082000   47.349800  123.648000
  H    -100.963000   46.219000  123.631000
  H    -101.766000   47.667600  124.440000
  H    -100.148000   47.876600  123.870000
  H    -95.010900   51.187000  122.248000
  H    -102.663000   52.230400  124.817000

 Total Charge           Charge          ....    0
 Multiplicity           Mult            ....    1
 Number of Electrons    NEL             ....  134
 Basis Dimension        Dim             ....  322

ORBITAL ENERGIES
----------------

  NO   OCC          E(Eh)            E(eV)
   0   2.0000     -88.968951     -2420.9682
   1   2.0000     -88.965598     -2420.8770
   2   2.0000     -10.326665      -281.0028
   3   2.0000     -10.324954      -280.9563
   4   2.0000     -10.320779      -280.8427
   5   2.0000     -10.313861      -280.6544
   6   2.0000     -10.311908      -280.6013
   7   2.0000     -10.299303      -280.2583
   8   2.0000     -10.296760      -280.1891
   9   2.0000     -10.295356      -280.1509
  10   2.0000     -10.294173      -280.1187
  11   2.0000     -10.290693      -280.0240
  12   2.0000     -10.286482      -279.9094
  13   2.0000     -10.281797      -279.7819
  14   2.0000     -10.278940      -279.7042
  15   2.0000     -10.278519      -279.6927
  16   2.0000      -8.084315      -219.9854
  17   2.0000      -8.080670      -219.8862
  18   2.0000      -6.042712      -164.4305
  19   2.0000      -6.039231      -164.3358
  20   2.0000      -6.039051      -164.3309
  21   2.0000      -6.035309      -164.2291
  22   2.0000      -6.034857      -164.2168
  23   2.0000      -6.031201      -164.1173
  24   2.0000      -1.008683       -27.4476
  25   2.0000      -0.982730       -26.7414
  26   2.0000      -0.907877       -24.7046
  27   2.0000      -0.903880       -24.5958
  28   2.0000      -0.867481       -23.6053
  29   2.0000      -0.853400       -23.2222
  30   2.0000      -0.839160       -22.8347
  31   2.0000      -0.808835       -22.0095
  32   2.0000      -0.783576       -21.3222
  33   2.0000      -0.771193       -20.9852
  34   2.0000      -0.701945       -19.1009
  35   2.0000      -0.699253       -19.0276
  36   2.0000      -0.687552       -18.7092
  37   2.0000      -0.658757       -17.9257
  38   2.0000      -0.637369       -17.3437
  39   2.0000      -0.620911       -16.8959
  40   2.0000      -0.598590       -16.2885
  41   2.0000      -0.571354       -15.5473
  42   2.0000      -0.558157       -15.1882
  43   2.0000      -0.550512       -14.9802
  44   2.0000      -0.536263       -14.5925
  45   2.0000      -0.526160       -14.3175
  46   2.0000      -0.513809       -13.9815
  47   2.0000      -0.509176       -13.8554
  48   2.0000      -0.498711       -13.5706
  49   2.0000      -0.490753       -13.3541
  50   2.0000      -0.488582       -13.2950
  51   2.0000      -0.475943       -12.9511
  52   2.0000      -0.474508       -12.9120
  53   2.0000      -0.461820       -12.5668
  54   2.0000      -0.460308       -12.5256
  55   2.0000      -0.454194       -12.3593
  56   2.0000      -0.445819       -12.1313
  57   2.0000      -0.434288       -11.8176
  58   2.0000      -0.428433       -11.6583
  59   2.0000      -0.426369       -11.6021
  60   2.0000      -0.422222       -11.4892
  61   2.0000      -0.414210       -11.2712
  62   2.0000      -0.412653       -11.2289
  63   2.0000      -0.351639        -9.5686
  64   2.0000      -0.331402        -9.0179
  65   2.0000      -0.328107        -8.9282
  66   2.0000      -0.285395        -7.7660
  67   0.0000       0.026896         0.7319
  68   0.0000       0.069803         1.8994
  69   0.0000       0.097956         2.6655
  70   0.0000       0.121946         3.3183
  71   0.0000       0.127984         3.4826

MULLIKEN ATOMIC CHARGES
-----------------------
   0 S :    0.104354
   1 C :   -0.150212
   2 C :   -0.092701
   3 C :    0.020958
   4 C :   -0.125901
   5 H :    0.014232
   6 C :    0.076237
   7 H :    0.028982
   8 H :    0.013283
   9 C :   -0.069039
  10 H :    0.032173
  11 H :    0.022879
  12 C :   -0.082138
  13 H :    0.057296
  14 H :    0.037234
  15 H :    0.031474
  16 S :    0.101427
  17 C :   -0.082490
  18 C :   -0.042456
  19 C :   -0.063153
  20 C :   -0.125120
  21 H :    0.035994
  22 C :    0.106307
  23 H :   -0.010971
  24 H :    0.022457
  25 C :   -0.095001
  26 H :    0.023376
  27 H :    0.026780
  28 C :   -0.063543
  29 H :    0.050388
  30 H :    0.037071
  31 H :    0.040984
  32 H :    0.071330
  33 H :    0.047511
Sum of atomic charges:    0.0000000

LOEWDIN ATOMIC CHARGES
----------------------
   0 S :    0.415894
   1 C :   -0.207476
   2 C :   -0.050688
   3 C :   -0.057412
   4 C :   -0.202070
   5 H :    0.028478
   6 C :   -0.022673
   7 H :    0.027211
   8 H :    0.022015
   9 C :   -0.037981
  10 H :    0.026823
  11 H :    0.013372
  12 C :   -0.074812
  13 H :    0.037832
  14 H :    0.028190
  15 H :    0.029445
  16 S :    0.393112
  17 C :   -0.186721
  18 C :   -0.071551
  19 C :   -0.058355
  20 C :   -0.188387
  21 H :    0.040264
  22 C :   -0.030949
  23 H :    0.015410
  24 H :    0.031023
  25 C :   -0.028643
  26 H :    0.018548
  27 H :    0.014880
  28 C :   -0.072458
  29 H :    0.034883
  30 H :    0.027256
  31 H :    0.028688
  32 H :    0.032599
  33 H :    0.024253

  Mayer bond orders larger than 0.100000
B(  0-S ,  1-C ) :   1.1359 B(  0-S ,  4-C ) :   1.1673 B(  1-C ,  2-C ) :   1.5921
B(  1-C , 32-H ) :   0.9650 B(  2-C ,  3-C ) :   1.2587 B(  2-C ,  6-C ) :   1.0154
B(  3-C ,  4-C ) :   1.5353 B(  3-C ,  5-H ) :   0.9990 B(  4-C , 20-C ) :   1.0430
B(  6-C ,  7-H ) :   0.9373 B(  6-C ,  8-H ) :   0.9493 B(  6-C ,  9-C ) :   1.0570
B(  9-C , 10-H ) :   0.9516 B(  9-C , 11-H ) :   0.9589 B(  9-C , 12-C ) :   1.0920
B( 12-C , 13-H ) :   0.9693 B( 12-C , 14-H ) :   0.9726 B( 12-C , 15-H ) :   0.9714
B( 16-S , 17-C ) :   1.1456 B( 16-S , 20-C ) :   1.1128 B( 17-C , 18-C ) :   1.6451
B( 17-C , 33-H ) :   0.9657 B( 18-C , 19-C ) :   1.1923 B( 18-C , 21-H ) :   0.9872
B( 19-C , 20-C ) :   1.6400 B( 19-C , 22-C ) :   1.0743 B( 22-C , 23-H ) :   0.9185
B( 22-C , 24-H ) :   0.9339 B( 22-C , 25-C ) :   1.0642 B( 25-C , 26-H ) :   0.9644
B( 25-C , 27-H ) :   0.9624 B( 25-C , 28-C ) :   1.0646 B( 28-C , 29-H ) :   0.9786
B( 28-C , 30-H ) :   0.9754 B( 28-C , 31-H ) :   0.9774

Dispersion correction           -0.014077754
FINAL SINGLE POINT ENERGY     -1339.860016463917

DIPOLE MOMENT
-------------
                                X             Y             Z
Electronic contribution:     -3.90164      13.23461      21.04335
Nuclear contribution   :      3.83660     -13.21749     -21.70503
                        -----------------------------------------
Total Dipole Moment    :     -0.06504       0.01712      -0.66168
                        -----------------------------------------
Magnitude (a.u.)       :      0.66509
Magnitude (Debye)      :      1.69052

Rotational constants in cm-1:     0.021875     0.007243     0.006262
Rotational constants in MHz :   655.796280   217.137329   187.741186

                             ****ORCA TERMINATED NORMALLY****
TOTAL RUN TIME: 0 days 0 hours 0 minutes 31 seconds 689 msec
