                         Program Version 4.2.1 -  RELEASE  -
|  1> ! wB97X-D3 SP def2-SVP
|  2> %pal
|  3> nprocs 16
|  4> end
|  5>
|  6> * xyz 0 1
|  7> S 	 -48.5842 	 8.70212 	 84.6809
|  8> C 	 -48.5783 	 10.235 	 85.3981
|  9> C 	 -49.7549 	 10.4057 	 86.1492
| 10> C 	 -50.5729 	 9.3098 	 86.1978
| 11> C 	 -50.0546 	 8.26594 	 85.515
| 12> H 	 -51.5567 	 9.20603 	 86.6054
| 13> C 	 -50.0952 	 11.5728 	 87.0359
| 14> H 	 -51.2281 	 11.7761 	 86.9609
| 15> H 	 -49.5008 	 12.4116 	 86.6156
| 16> C 	 -49.8876 	 11.3502 	 88.5665
| 17> H 	 -50.1016 	 12.2909 	 89.1219
| 18> H 	 -50.6614 	 10.6251 	 88.8787
| 19> C 	 -48.4218 	 10.8832 	 89.0268
| 20> H 	 -47.7456 	 10.9804 	 88.2178
| 21> H 	 -48.0215 	 11.1968 	 90.0162
| 22> H 	 -48.2596 	 9.7825 	 89.163
| 23> S 	 -49.5305 	 5.68284 	 85.6345
| 24> C 	 -50.8256 	 4.49568 	 85.681
| 25> C 	 -52.0531 	 5.06249 	 85.3634
| 26> C 	 -52.016 	 6.49031 	 85.3523
| 27> C 	 -50.6882 	 6.96706 	 85.431
| 28> H 	 -52.9038 	 4.41877 	 85.1731
| 29> C 	 -53.2196 	 7.33166 	 85.0477
| 30> H 	 -53.7538 	 6.73169 	 84.3508
| 31> H 	 -53.0137 	 8.29725 	 84.5491
| 32> C 	 -54.1875 	 7.60819 	 86.1767
| 33> H 	 -53.8483 	 8.41648 	 86.8177
| 34> H 	 -54.3031 	 6.69706 	 86.7299
| 35> C 	 -55.5425 	 8.0327 	 85.7371
| 36> H 	 -55.5005 	 8.89883 	 85.144
| 37> H 	 -56.2432 	 8.31021 	 86.4865
| 38> H 	 -55.9674 	 7.27067 	 85.0465
| 39> H 	 -47.7534 	 10.8616 	 85.3808
| 40> H 	 -50.7339 	 3.40969 	 85.628
| 41> *
| 42>
| 43>                          ****END OF INPUT****

CARTESIAN COORDINATES (ANGSTROEM)
---------------------------------
  S    -48.584200    8.702120   84.680900
  C    -48.578300   10.235000   85.398100
  C    -49.754900   10.405700   86.149200
  C    -50.572900    9.309800   86.197800
  C    -50.054600    8.265940   85.515000
  H    -51.556700    9.206030   86.605400
  C    -50.095200   11.572800   87.035900
  H    -51.228100   11.776100   86.960900
  H    -49.500800   12.411600   86.615600
  C    -49.887600   11.350200   88.566500
  H    -50.101600   12.290900   89.121900
  H    -50.661400   10.625100   88.878700
  C    -48.421800   10.883200   89.026800
  H    -47.745600   10.980400   88.217800
  H    -48.021500   11.196800   90.016200
  H    -48.259600    9.782500   89.163000
  S    -49.530500    5.682840   85.634500
  C    -50.825600    4.495680   85.681000
  C    -52.053100    5.062490   85.363400
  C    -52.016000    6.490310   85.352300
  C    -50.688200    6.967060   85.431000
  H    -52.903800    4.418770   85.173100
  C    -53.219600    7.331660   85.047700
  H    -53.753800    6.731690   84.350800
  H    -53.013700    8.297250   84.549100
  C    -54.187500    7.608190   86.176700
  H    -53.848300    8.416480   86.817700
  H    -54.303100    6.697060   86.729900
  C    -55.542500    8.032700   85.737100
  H    -55.500500    8.898830   85.144000
  H    -56.243200    8.310210   86.486500
  H    -55.967400    7.270670   85.046500
  H    -47.753400   10.861600   85.380800
  H    -50.733900    3.409690   85.628000

 Total Charge           Charge          ....    0
 Multiplicity           Mult            ....    1
 Number of Electrons    NEL             ....  134
 Basis Dimension        Dim             ....  322

ORBITAL ENERGIES
----------------

  NO   OCC          E(Eh)            E(eV)
   0   2.0000     -88.969528     -2420.9839
   1   2.0000     -88.966954     -2420.9139
   2   2.0000     -10.327227      -281.0181
   3   2.0000     -10.323255      -280.9100
   4   2.0000     -10.316857      -280.7360
   5   2.0000     -10.308339      -280.5042
   6   2.0000     -10.308131      -280.4985
   7   2.0000     -10.299271      -280.2574
   8   2.0000     -10.298252      -280.2297
   9   2.0000     -10.297436      -280.2075
  10   2.0000     -10.295386      -280.1517
  11   2.0000     -10.289954      -280.0039
  12   2.0000     -10.281340      -279.7695
  13   2.0000     -10.280836      -279.7558
  14   2.0000     -10.278441      -279.6906
  15   2.0000     -10.270949      -279.4867
  16   2.0000      -8.085225      -220.0102
  17   2.0000      -8.081656      -219.9131
  18   2.0000      -6.043576      -164.4541
  19   2.0000      -6.040200      -164.3622
  20   2.0000      -6.039563      -164.3449
  21   2.0000      -6.036141      -164.2517
  22   2.0000      -6.036086      -164.2502
  23   2.0000      -6.032470      -164.1519
  24   2.0000      -1.017609       -27.6905
  25   2.0000      -0.989144       -26.9160
  26   2.0000      -0.921802       -25.0835
  27   2.0000      -0.903806       -24.5938
  28   2.0000      -0.874419       -23.7941
  29   2.0000      -0.859985       -23.4014
  30   2.0000      -0.846985       -23.0476
  31   2.0000      -0.814126       -22.1535
  32   2.0000      -0.782662       -21.2973
  33   2.0000      -0.771809       -21.0020
  34   2.0000      -0.710745       -19.3403
  35   2.0000      -0.701925       -19.1004
  36   2.0000      -0.696192       -18.9443
  37   2.0000      -0.666402       -18.1337
  38   2.0000      -0.646833       -17.6012
  39   2.0000      -0.623482       -16.9658
  40   2.0000      -0.597699       -16.2642
  41   2.0000      -0.578272       -15.7356
  42   2.0000      -0.559569       -15.2266
  43   2.0000      -0.543179       -14.7807
  44   2.0000      -0.541571       -14.7369
  45   2.0000      -0.525127       -14.2894
  46   2.0000      -0.522296       -14.2124
  47   2.0000      -0.519017       -14.1232
  48   2.0000      -0.509925       -13.8758
  49   2.0000      -0.500108       -13.6086
  50   2.0000      -0.493139       -13.4190
  51   2.0000      -0.481039       -13.0897
  52   2.0000      -0.468623       -12.7519
  53   2.0000      -0.462547       -12.5865
  54   2.0000      -0.458105       -12.4657
  55   2.0000      -0.447883       -12.1875
  56   2.0000      -0.446726       -12.1560
  57   2.0000      -0.441588       -12.0162
  58   2.0000      -0.434656       -11.8276
  59   2.0000      -0.426065       -11.5938
  60   2.0000      -0.419950       -11.4274
  61   2.0000      -0.417540       -11.3618
  62   2.0000      -0.406715       -11.0673
  63   2.0000      -0.354964        -9.6591
  64   2.0000      -0.335941        -9.1414
  65   2.0000      -0.329286        -8.9603
  66   2.0000      -0.286198        -7.7879
  67   0.0000       0.025378         0.6906
  68   0.0000       0.072026         1.9599
  69   0.0000       0.110848         3.0163
  70   0.0000       0.115431         3.1410
  71   0.0000       0.126066         3.4304

MULLIKEN ATOMIC CHARGES
-----------------------
   0 S :    0.129526
   1 C :   -0.100119
   2 C :   -0.058723
   3 C :    0.013170
   4 C :   -0.117606
   5 H :   -0.011031
   6 C :    0.023799
   7 H :    0.041446
   8 H :    0.029300
   9 C :   -0.073399
  10 H :    0.045110
  11 H :    0.037121
  12 C :   -0.062934
  13 H :    0.011850
  14 H :    0.043596
  15 H :    0.026133
  16 S :    0.102751
  17 C :   -0.084194
  18 C :   -0.054150
  19 C :   -0.001788
  20 C :   -0.162787
  21 H :    0.023621
  22 C :    0.036354
  23 H :    0.005946
  24 H :    0.036167
  25 C :   -0.048153
  26 H :    0.029917
  27 H :    0.021356
  28 C :   -0.026750
  29 H :    0.005416
  30 H :    0.030844
  31 H :    0.022811
  32 H :    0.027214
  33 H :    0.058185
Sum of atomic charges:   -0.0000000

LOEWDIN ATOMIC CHARGES
----------------------
   0 S :    0.435787
   1 C :   -0.210915
   2 C :   -0.066312
   3 C :   -0.062609
   4 C :   -0.195415
   5 H :    0.031837
   6 C :   -0.037978
   7 H :    0.042222
   8 H :    0.028898
   9 C :   -0.040713
  10 H :    0.030439
  11 H :    0.025237
  12 C :   -0.088109
  13 H :    0.017196
  14 H :    0.031582
  15 H :    0.034469
  16 S :    0.412771
  17 C :   -0.192700
  18 C :   -0.066839
  19 C :   -0.056374
  20 C :   -0.190269
  21 H :    0.033169
  22 C :   -0.033121
  23 H :    0.028233
  24 H :    0.034451
  25 C :   -0.039717
  26 H :    0.021235
  27 H :    0.021973
  28 C :   -0.062408
  29 H :    0.017068
  30 H :    0.025017
  31 H :    0.026711
  32 H :    0.013914
  33 H :    0.031270

  Mayer bond orders larger than 0.100000
B(  0-S ,  1-C ) :   1.1539 B(  0-S ,  4-C ) :   1.1669 B(  1-C ,  2-C ) :   1.5451
B(  1-C ,  4-C ) :   0.1011 B(  1-C , 32-H ) :   0.9806 B(  2-C ,  3-C ) :   1.2615
B(  2-C ,  6-C ) :   1.0368 B(  3-C ,  4-C ) :   1.5489 B(  3-C ,  5-H ) :   1.0095
B(  4-C , 20-C ) :   1.0331 B(  6-C ,  7-H ) :   0.9399 B(  6-C ,  8-H ) :   0.9416
B(  6-C ,  9-C ) :   1.0708 B(  9-C , 10-H ) :   0.9625 B(  9-C , 11-H ) :   0.9575
B(  9-C , 12-C ) :   1.0417 B( 12-C , 13-H ) :   0.9796 B( 12-C , 14-H ) :   0.9803
B( 12-C , 15-H ) :   0.9714 B( 16-S , 17-C ) :   1.1504 B( 16-S , 20-C ) :   1.1523
B( 17-C , 18-C ) :   1.6208 B( 17-C , 20-C ) :   0.1055 B( 17-C , 33-H ) :   0.9612
B( 18-C , 19-C ) :   1.2392 B( 18-C , 21-H ) :   0.9838 B( 19-C , 20-C ) :   1.5710
B( 19-C , 22-C ) :   1.0386 B( 22-C , 23-H ) :   0.9314 B( 22-C , 24-H ) :   0.9396
B( 22-C , 25-C ) :   1.0686 B( 25-C , 26-H ) :   0.9459 B( 25-C , 27-H ) :   0.9519
B( 25-C , 28-C ) :   1.0961 B( 28-C , 29-H ) :   0.9676 B( 28-C , 30-H ) :   0.9712
B( 28-C , 31-H ) :   0.9707

Dispersion correction           -0.014438116
FINAL SINGLE POINT ENERGY     -1339.861813334146

DIPOLE MOMENT
-------------
                                X             Y             Z
Electronic contribution:     17.82376     -13.86003     -12.62011
Nuclear contribution   :    -18.35134      13.97835      12.73263
                        -----------------------------------------
Total Dipole Moment    :     -0.52758       0.11832       0.11252
                        -----------------------------------------
Magnitude (a.u.)       :      0.55227
Magnitude (Debye)      :      1.40376

Rotational constants in cm-1:     0.016761     0.009608     0.007239
Rotational constants in MHz :   502.481822   288.030366   217.025159

                             ****ORCA TERMINATED NORMALLY****
TOTAL RUN TIME: 0 days 0 hours 0 minutes 29 seconds 197 msec
