                         Program Version 4.2.1 -  RELEASE  -
|  1> ! wB97X-D3 SP def2-SVP
|  2> %pal
|  3> nprocs 16
|  4> end
|  5>
|  6> * xyz 0 1
|  7> S 	 -43.7346 	 17.5734 	 79.9333
|  8> C 	 -43.0286 	 16.0703 	 79.5106
|  9> C 	 -42.6913 	 15.3055 	 80.6382
| 10> C 	 -42.8887 	 16.1151 	 81.8228
| 11> C 	 -43.3522 	 17.4011 	 81.6254
| 12> H 	 -42.6101 	 15.8891 	 82.8407
| 13> C 	 -42.1509 	 13.9439 	 80.6695
| 14> H 	 -41.3855 	 13.8 	 81.469
| 15> H 	 -41.4824 	 13.8328 	 79.7881
| 16> C 	 -43.172 	 12.8441 	 80.7936
| 17> H 	 -42.7195 	 11.8739 	 81.0235
| 18> H 	 -43.9134 	 13.0265 	 81.6626
| 19> C 	 -44.0163 	 12.6587 	 79.4676
| 20> H 	 -44.8832 	 12.0461 	 79.5247
| 21> H 	 -44.266 	 13.6129 	 79.0386
| 22> H 	 -43.4947 	 12.1586 	 78.6624
| 23> S 	 -45.4481 	 18.5101 	 83.0211
| 24> C 	 -45.0845 	 19.3368 	 84.482
| 25> C 	 -43.7362 	 19.5582 	 84.5874
| 26> C 	 -42.9438 	 18.8623 	 83.6543
| 27> C 	 -43.751 	 18.3304 	 82.6763
| 28> H 	 -43.4045 	 20.1997 	 85.3744
| 29> C 	 -41.3983 	 18.7511 	 83.709
| 30> H 	 -41.107 	 17.7527 	 83.3295
| 31> H 	 -41.179 	 18.8343 	 84.7236
| 32> C 	 -40.6271 	 19.9121 	 83.0134
| 33> H 	 -41.0449 	 20.8531 	 83.3413
| 34> H 	 -40.8209 	 19.784 	 81.9449
| 35> C 	 -39.0921 	 19.9282 	 83.1902
| 36> H 	 -38.7713 	 19.9965 	 84.2401
| 37> H 	 -38.677 	 20.8305 	 82.7902
| 38> H 	 -38.6327 	 19.0954 	 82.7275
| 39> H 	 -42.8617 	 15.7594 	 78.478
| 40> H 	 -45.8655 	 19.8464 	 85.0795
| 41> *
| 42>
| 43>                          ****END OF INPUT****

CARTESIAN COORDINATES (ANGSTROEM)
---------------------------------
  S    -43.734600   17.573400   79.933300
  C    -43.028600   16.070300   79.510600
  C    -42.691300   15.305500   80.638200
  C    -42.888700   16.115100   81.822800
  C    -43.352200   17.401100   81.625400
  H    -42.610100   15.889100   82.840700
  C    -42.150900   13.943900   80.669500
  H    -41.385500   13.800000   81.469000
  H    -41.482400   13.832800   79.788100
  C    -43.172000   12.844100   80.793600
  H    -42.719500   11.873900   81.023500
  H    -43.913400   13.026500   81.662600
  C    -44.016300   12.658700   79.467600
  H    -44.883200   12.046100   79.524700
  H    -44.266000   13.612900   79.038600
  H    -43.494700   12.158600   78.662400
  S    -45.448100   18.510100   83.021100
  C    -45.084500   19.336800   84.482000
  C    -43.736200   19.558200   84.587400
  C    -42.943800   18.862300   83.654300
  C    -43.751000   18.330400   82.676300
  H    -43.404500   20.199700   85.374400
  C    -41.398300   18.751100   83.709000
  H    -41.107000   17.752700   83.329500
  H    -41.179000   18.834300   84.723600
  C    -40.627100   19.912100   83.013400
  H    -41.044900   20.853100   83.341300
  H    -40.820900   19.784000   81.944900
  C    -39.092100   19.928200   83.190200
  H    -38.771300   19.996500   84.240100
  H    -38.677000   20.830500   82.790200
  H    -38.632700   19.095400   82.727500
  H    -42.861700   15.759400   78.478000
  H    -45.865500   19.846400   85.079500

 Total Charge           Charge          ....    0
 Multiplicity           Mult            ....    1
 Number of Electrons    NEL             ....  134
 Basis Dimension        Dim             ....  322

ORBITAL ENERGIES
----------------

  NO   OCC          E(Eh)            E(eV)
   0   2.0000     -88.964712     -2420.8529
   1   2.0000     -88.964079     -2420.8357
   2   2.0000     -10.323847      -280.9262
   3   2.0000     -10.321733      -280.8686
   4   2.0000     -10.316595      -280.7288
   5   2.0000     -10.314472      -280.6711
   6   2.0000     -10.303703      -280.3780
   7   2.0000     -10.301655      -280.3223
   8   2.0000     -10.296433      -280.1802
   9   2.0000     -10.294419      -280.1254
  10   2.0000     -10.292425      -280.0711
  11   2.0000     -10.291439      -280.0443
  12   2.0000     -10.289222      -279.9840
  13   2.0000     -10.285630      -279.8862
  14   2.0000     -10.273622      -279.5595
  15   2.0000     -10.269985      -279.4605
  16   2.0000      -8.080167      -219.8725
  17   2.0000      -8.079795      -219.8624
  18   2.0000      -6.038555      -164.3174
  19   2.0000      -6.038173      -164.3070
  20   2.0000      -6.034478      -164.2065
  21   2.0000      -6.034203      -164.1990
  22   2.0000      -6.031119      -164.1151
  23   2.0000      -6.030593      -164.1008
  24   2.0000      -1.011829       -27.5333
  25   2.0000      -0.989764       -26.9329
  26   2.0000      -0.914222       -24.8772
  27   2.0000      -0.904058       -24.6007
  28   2.0000      -0.868941       -23.6451
  29   2.0000      -0.852821       -23.2064
  30   2.0000      -0.843178       -22.9440
  31   2.0000      -0.811718       -22.0880
  32   2.0000      -0.786544       -21.4029
  33   2.0000      -0.776862       -21.1395
  34   2.0000      -0.707723       -19.2581
  35   2.0000      -0.698674       -19.0119
  36   2.0000      -0.691834       -18.8258
  37   2.0000      -0.661145       -17.9907
  38   2.0000      -0.645137       -17.5551
  39   2.0000      -0.616408       -16.7733
  40   2.0000      -0.594941       -16.1892
  41   2.0000      -0.574521       -15.6335
  42   2.0000      -0.566824       -15.4241
  43   2.0000      -0.548464       -14.9245
  44   2.0000      -0.531818       -14.4715
  45   2.0000      -0.524322       -14.2675
  46   2.0000      -0.516832       -14.0637
  47   2.0000      -0.513190       -13.9646
  48   2.0000      -0.499035       -13.5794
  49   2.0000      -0.496557       -13.5120
  50   2.0000      -0.487425       -13.2635
  51   2.0000      -0.483697       -13.1621
  52   2.0000      -0.474352       -12.9078
  53   2.0000      -0.468249       -12.7417
  54   2.0000      -0.459239       -12.4965
  55   2.0000      -0.450339       -12.2543
  56   2.0000      -0.447083       -12.1657
  57   2.0000      -0.435790       -11.8585
  58   2.0000      -0.429779       -11.6949
  59   2.0000      -0.426591       -11.6081
  60   2.0000      -0.417926       -11.3724
  61   2.0000      -0.416864       -11.3434
  62   2.0000      -0.412948       -11.2369
  63   2.0000      -0.343297        -9.3416
  64   2.0000      -0.331574        -9.0226
  65   2.0000      -0.326328        -8.8798
  66   2.0000      -0.298580        -8.1248
  67   0.0000       0.041734         1.1356
  68   0.0000       0.060416         1.6440
  69   0.0000       0.117809         3.2058
  70   0.0000       0.127253         3.4627
  71   0.0000       0.128441         3.4951

MULLIKEN ATOMIC CHARGES
-----------------------
   0 S :    0.113158
   1 C :   -0.116444
   2 C :   -0.080997
   3 C :    0.047233
   4 C :   -0.190539
   5 H :    0.009793
   6 C :    0.041291
   7 H :    0.029578
   8 H :    0.027876
   9 C :   -0.065093
  10 H :    0.032203
  11 H :    0.046679
  12 C :   -0.043985
  13 H :    0.025195
  14 H :    0.021340
  15 H :    0.013473
  16 S :    0.119948
  17 C :   -0.112807
  18 C :   -0.029616
  19 C :   -0.061621
  20 C :   -0.150613
  21 H :    0.007879
  22 C :    0.129048
  23 H :    0.025994
  24 H :   -0.002429
  25 C :   -0.078209
  26 H :    0.022682
  27 H :    0.034585
  28 C :   -0.021537
  29 H :    0.022466
  30 H :    0.026421
  31 H :    0.029328
  32 H :    0.057308
  33 H :    0.070410
Sum of atomic charges:   -0.0000000

LOEWDIN ATOMIC CHARGES
----------------------
   0 S :    0.422254
   1 C :   -0.205134
   2 C :   -0.064992
   3 C :   -0.055583
   4 C :   -0.208149
   5 H :    0.027559
   6 C :   -0.046497
   7 H :    0.037118
   8 H :    0.036552
   9 C :   -0.038191
  10 H :    0.024090
  11 H :    0.035972
  12 C :   -0.070669
  13 H :    0.021726
  14 H :    0.020220
  15 H :    0.021926
  16 S :    0.424076
  17 C :   -0.200351
  18 C :   -0.071797
  19 C :   -0.052730
  20 C :   -0.205168
  21 H :    0.027191
  22 C :   -0.020046
  23 H :    0.032219
  24 H :    0.018442
  25 C :   -0.034042
  26 H :    0.021308
  27 H :    0.027299
  28 C :   -0.062268
  29 H :    0.024570
  30 H :    0.026323
  31 H :    0.020562
  32 H :    0.030088
  33 H :    0.036120

  Mayer bond orders larger than 0.100000
B(  0-S ,  1-C ) :   1.1665 B(  0-S ,  4-C ) :   1.1472 B(  1-C ,  2-C ) :   1.5738
B(  1-C , 32-H ) :   0.9650 B(  2-C ,  3-C ) :   1.2491 B(  2-C ,  6-C ) :   1.0347
B(  3-C ,  4-C ) :   1.5840 B(  3-C ,  5-H ) :   0.9893 B(  4-C , 20-C ) :   1.0091
B(  6-C ,  7-H ) :   0.9387 B(  6-C ,  8-H ) :   0.9400 B(  6-C ,  9-C ) :   1.0663
B(  9-C , 10-H ) :   0.9573 B(  9-C , 11-H ) :   0.9575 B(  9-C , 12-C ) :   1.0615
B( 12-C , 13-H ) :   0.9758 B( 12-C , 14-H ) :   0.9777 B( 12-C , 15-H ) :   0.9737
B( 16-S , 17-C ) :   1.1646 B( 16-S , 20-C ) :   1.1612 B( 17-C , 18-C ) :   1.6107
B( 17-C , 33-H ) :   0.9605 B( 18-C , 19-C ) :   1.2459 B( 18-C , 21-H ) :   0.9924
B( 19-C , 20-C ) :   1.6010 B( 19-C , 22-C ) :   1.0364 B( 22-C , 23-H ) :   0.9295
B( 22-C , 24-H ) :   0.9240 B( 22-C , 25-C ) :   1.0703 B( 25-C , 26-H ) :   0.9568
B( 25-C , 27-H ) :   0.9570 B( 25-C , 28-C ) :   1.0866 B( 28-C , 29-H ) :   0.9739
B( 28-C , 30-H ) :   0.9724 B( 28-C , 31-H ) :   0.9760

Dispersion correction           -0.014260593
FINAL SINGLE POINT ENERGY     -1339.885064937976

DIPOLE MOMENT
-------------
                                X             Y             Z
Electronic contribution:    -17.88256      11.10794      -0.57740
Nuclear contribution   :     18.36020     -11.29696       0.83122
                        -----------------------------------------
Total Dipole Moment    :      0.47764      -0.18902       0.25382
                        -----------------------------------------
Magnitude (a.u.)       :      0.57296
Magnitude (Debye)      :      1.45636

Rotational constants in cm-1:     0.018810     0.008236     0.006828
Rotational constants in MHz :   563.915464   246.894183   204.704895

                             ****ORCA TERMINATED NORMALLY****
TOTAL RUN TIME: 0 days 0 hours 0 minutes 29 seconds 774 msec
