                         Program Version 4.2.1 -  RELEASE  -
|  1> ! wB97X-D3 SP def2-SVP
|  2> %pal
|  3> nprocs 16
|  4> end
|  5>
|  6> * xyz 0 1
|  7> S 	 -80.3752 	 44.6815 	 120.33
|  8> C 	 -80.803 	 43.0377 	 120.186
|  9> C 	 -80.0528 	 42.1801 	 121.029
| 10> C 	 -79.0589 	 42.939 	 121.7
| 11> C 	 -79.1444 	 44.2958 	 121.559
| 12> H 	 -78.3517 	 42.4987 	 122.401
| 13> C 	 -80.4157 	 40.7662 	 121.379
| 14> H 	 -81.0558 	 40.3343 	 120.574
| 15> H 	 -81.1836 	 40.7989 	 122.167
| 16> C 	 -79.4033 	 39.7131 	 121.742
| 17> H 	 -78.7637 	 40.0579 	 122.576
| 18> H 	 -79.8997 	 38.7781 	 122.109
| 19> C 	 -78.4874 	 39.4302 	 120.566
| 20> H 	 -77.9678 	 40.3546 	 120.35
| 21> H 	 -77.7905 	 38.5529 	 120.598
| 22> H 	 -79.0934 	 39.2319 	 119.676
| 23> S 	 -79.4049 	 46.4781 	 123.175
| 24> C 	 -77.9494 	 47.2804 	 123.697
| 25> C 	 -76.7698 	 46.5685 	 123.298
| 26> C 	 -77.0237 	 45.3197 	 122.692
| 27> C 	 -78.3914 	 45.2387 	 122.361
| 28> H 	 -75.8365 	 46.9693 	 123.654
| 29> C 	 -76.0052 	 44.2721 	 122.283
| 30> H 	 -76.0401 	 44.1428 	 121.133
| 31> H 	 -76.2412 	 43.3781 	 122.85
| 32> C 	 -74.6374 	 44.6247 	 122.558
| 33> H 	 -74.5012 	 44.7093 	 123.588
| 34> H 	 -74.4086 	 45.6228 	 122.131
| 35> C 	 -73.4868 	 43.6112 	 122.087
| 36> H 	 -72.6106 	 44.1299 	 122.375
| 37> H 	 -73.6084 	 43.4063 	 120.975
| 38> H 	 -73.5105 	 42.6091 	 122.616
| 39> H 	 -81.573 	 42.6334 	 119.53
| 40> H 	 -77.8261 	 48.2539 	 124.155
| 41> *
| 42>
| 43>                          ****END OF INPUT****

CARTESIAN COORDINATES (ANGSTROEM)
---------------------------------
  S    -80.375200   44.681500  120.330000
  C    -80.803000   43.037700  120.186000
  C    -80.052800   42.180100  121.029000
  C    -79.058900   42.939000  121.700000
  C    -79.144400   44.295800  121.559000
  H    -78.351700   42.498700  122.401000
  C    -80.415700   40.766200  121.379000
  H    -81.055800   40.334300  120.574000
  H    -81.183600   40.798900  122.167000
  C    -79.403300   39.713100  121.742000
  H    -78.763700   40.057900  122.576000
  H    -79.899700   38.778100  122.109000
  C    -78.487400   39.430200  120.566000
  H    -77.967800   40.354600  120.350000
  H    -77.790500   38.552900  120.598000
  H    -79.093400   39.231900  119.676000
  S    -79.404900   46.478100  123.175000
  C    -77.949400   47.280400  123.697000
  C    -76.769800   46.568500  123.298000
  C    -77.023700   45.319700  122.692000
  C    -78.391400   45.238700  122.361000
  H    -75.836500   46.969300  123.654000
  C    -76.005200   44.272100  122.283000
  H    -76.040100   44.142800  121.133000
  H    -76.241200   43.378100  122.850000
  C    -74.637400   44.624700  122.558000
  H    -74.501200   44.709300  123.588000
  H    -74.408600   45.622800  122.131000
  C    -73.486800   43.611200  122.087000
  H    -72.610600   44.129900  122.375000
  H    -73.608400   43.406300  120.975000
  H    -73.510500   42.609100  122.616000
  H    -81.573000   42.633400  119.530000
  H    -77.826100   48.253900  124.155000

 Total Charge           Charge          ....    0
 Multiplicity           Mult            ....    1
 Number of Electrons    NEL             ....  134
 Basis Dimension        Dim             ....  322

ORBITAL ENERGIES
----------------

  NO   OCC          E(Eh)            E(eV)
   0   2.0000     -88.970988     -2421.0237
   1   2.0000     -88.970484     -2421.0100
   2   2.0000     -10.328844      -281.0621
   3   2.0000     -10.326785      -281.0061
   4   2.0000     -10.317726      -280.7596
   5   2.0000     -10.314474      -280.6711
   6   2.0000     -10.306737      -280.4606
   7   2.0000     -10.303300      -280.3670
   8   2.0000     -10.295941      -280.1668
   9   2.0000     -10.295447      -280.1534
  10   2.0000     -10.294354      -280.1236
  11   2.0000     -10.291660      -280.0503
  12   2.0000     -10.290865      -280.0287
  13   2.0000     -10.289786      -279.9993
  14   2.0000     -10.280573      -279.7486
  15   2.0000     -10.276343      -279.6335
  16   2.0000      -8.085558      -220.0192
  17   2.0000      -8.084134      -219.9805
  18   2.0000      -6.043972      -164.4649
  19   2.0000      -6.042533      -164.4257
  20   2.0000      -6.040078      -164.3589
  21   2.0000      -6.038789      -164.3238
  22   2.0000      -6.036422      -164.2594
  23   2.0000      -6.035100      -164.2234
  24   2.0000      -1.004711       -27.3396
  25   2.0000      -0.980714       -26.6866
  26   2.0000      -0.920201       -25.0399
  27   2.0000      -0.916229       -24.9319
  28   2.0000      -0.867852       -23.6154
  29   2.0000      -0.852317       -23.1927
  30   2.0000      -0.846169       -23.0254
  31   2.0000      -0.809111       -22.0170
  32   2.0000      -0.785511       -21.3748
  33   2.0000      -0.770532       -20.9673
  34   2.0000      -0.707746       -19.2587
  35   2.0000      -0.697400       -18.9772
  36   2.0000      -0.691481       -18.8162
  37   2.0000      -0.647338       -17.6150
  38   2.0000      -0.638214       -17.3667
  39   2.0000      -0.626537       -17.0489
  40   2.0000      -0.597169       -16.2498
  41   2.0000      -0.584299       -15.8996
  42   2.0000      -0.565252       -15.3813
  43   2.0000      -0.554803       -15.0970
  44   2.0000      -0.541053       -14.7228
  45   2.0000      -0.528449       -14.3798
  46   2.0000      -0.512813       -13.9543
  47   2.0000      -0.507644       -13.8137
  48   2.0000      -0.496626       -13.5139
  49   2.0000      -0.492860       -13.4114
  50   2.0000      -0.490058       -13.3351
  51   2.0000      -0.480648       -13.0791
  52   2.0000      -0.473369       -12.8810
  53   2.0000      -0.463583       -12.6147
  54   2.0000      -0.456639       -12.4258
  55   2.0000      -0.450028       -12.2459
  56   2.0000      -0.446901       -12.1608
  57   2.0000      -0.435619       -11.8538
  58   2.0000      -0.433050       -11.7839
  59   2.0000      -0.426354       -11.6017
  60   2.0000      -0.424211       -11.5434
  61   2.0000      -0.416960       -11.3461
  62   2.0000      -0.412157       -11.2154
  63   2.0000      -0.348087        -9.4719
  64   2.0000      -0.336362        -9.1529
  65   2.0000      -0.324222        -8.8225
  66   2.0000      -0.280208        -7.6249
  67   0.0000       0.023428         0.6375
  68   0.0000       0.064829         1.7641
  69   0.0000       0.109361         2.9759
  70   0.0000       0.121395         3.3033
  71   0.0000       0.129253         3.5171

MULLIKEN ATOMIC CHARGES
-----------------------
   0 S :    0.138206
   1 C :   -0.124859
   2 C :   -0.078055
   3 C :    0.017934
   4 C :   -0.147089
   5 H :    0.008870
   6 C :    0.031456
   7 H :    0.014700
   8 H :    0.046093
   9 C :   -0.067742
  10 H :    0.031488
  11 H :    0.036480
  12 C :   -0.057311
  13 H :    0.033393
  14 H :    0.044233
  15 H :    0.016737
  16 S :    0.121336
  17 C :   -0.090039
  18 C :   -0.065167
  19 C :   -0.028236
  20 C :   -0.182353
  21 H :    0.015174
  22 C :    0.099679
  23 H :    0.055278
  24 H :    0.034950
  25 C :   -0.134926
  26 H :    0.013099
  27 H :    0.033235
  28 C :   -0.045081
  29 H :    0.035444
  30 H :    0.046029
  31 H :    0.041284
  32 H :    0.050544
  33 H :    0.055216
Sum of atomic charges:    0.0000000

LOEWDIN ATOMIC CHARGES
----------------------
   0 S :    0.420197
   1 C :   -0.213117
   2 C :   -0.067003
   3 C :   -0.058712
   4 C :   -0.198815
   5 H :    0.029330
   6 C :   -0.041583
   7 H :    0.033225
   8 H :    0.040288
   9 C :   -0.047866
  10 H :    0.023095
  11 H :    0.032044
  12 C :   -0.072134
  13 H :    0.025714
  14 H :    0.029913
  15 H :    0.022665
  16 S :    0.404000
  17 C :   -0.201264
  18 C :   -0.071773
  19 C :   -0.053541
  20 C :   -0.178246
  21 H :    0.027609
  22 C :   -0.038581
  23 H :    0.049021
  24 H :    0.032932
  25 C :   -0.048133
  26 H :    0.013572
  27 H :    0.026798
  28 C :   -0.062233
  29 H :    0.022392
  30 H :    0.031066
  31 H :    0.029859
  32 H :    0.029931
  33 H :    0.029350

  Mayer bond orders larger than 0.100000
B(  0-S ,  1-C ) :   1.1617 B(  0-S ,  4-C ) :   1.1375 B(  1-C ,  2-C ) :   1.5729
B(  1-C , 32-H ) :   0.9633 B(  2-C ,  3-C ) :   1.2669 B(  2-C ,  6-C ) :   1.0265
B(  3-C ,  4-C ) :   1.5552 B(  3-C ,  5-H ) :   0.9891 B(  4-C , 20-C ) :   1.0779
B(  6-C ,  7-H ) :   0.9333 B(  6-C ,  8-H ) :   0.9327 B(  6-C ,  9-C ) :   1.0831
B(  9-C , 10-H ) :   0.9506 B(  9-C , 11-H ) :   0.9495 B(  9-C , 12-C ) :   1.0696
B( 12-C , 13-H ) :   0.9734 B( 12-C , 14-H ) :   0.9760 B( 12-C , 15-H ) :   0.9732
B( 16-S , 17-C ) :   1.1567 B( 16-S , 20-C ) :   1.1536 B( 17-C , 18-C ) :   1.5896
B( 17-C , 20-C ) :   0.1183 B( 17-C , 33-H ) :   0.9613 B( 18-C , 19-C ) :   1.2702
B( 18-C , 21-H ) :   0.9818 B( 19-C , 20-C ) :   1.5557 B( 19-C , 22-C ) :   1.0292
B( 22-C , 23-H ) :   0.9244 B( 22-C , 24-H ) :   0.9174 B( 22-C , 25-C ) :   1.1200
B( 25-C , 26-H ) :   0.9419 B( 25-C , 27-H ) :   0.9436 B( 25-C , 28-C ) :   1.0753
B( 28-C , 29-H ) :   0.9745 B( 28-C , 30-H ) :   0.9758 B( 28-C , 31-H ) :   0.9748

Dispersion correction           -0.013874864
FINAL SINGLE POINT ENERGY     -1339.863363513250

DIPOLE MOMENT
-------------
                                X             Y             Z
Electronic contribution:    -19.58266      23.22948       0.62408
Nuclear contribution   :     19.91234     -23.70161      -0.43518
                        -----------------------------------------
Total Dipole Moment    :      0.32968      -0.47213       0.18890
                        -----------------------------------------
Magnitude (a.u.)       :      0.60603
Magnitude (Debye)      :      1.54041

Rotational constants in cm-1:     0.015645     0.009621     0.006609
Rotational constants in MHz :   469.031843   288.419472   198.130771

                             ****ORCA TERMINATED NORMALLY****
TOTAL RUN TIME: 0 days 0 hours 0 minutes 31 seconds 409 msec
