                         Program Version 4.2.1 -  RELEASE  -
|  1> ! wB97X-D3 SP def2-SVP
|  2> %pal
|  3> nprocs 16
|  4> end
|  5>
|  6> * xyz 0 1
|  7> S 	 -44.6272 	 51.4857 	 105.461
|  8> C 	 -44.3277 	 50.8564 	 103.87
|  9> C 	 -44.2561 	 51.9405 	 102.987
| 10> C 	 -44.431 	 53.2405 	 103.602
| 11> C 	 -44.7101 	 53.1324 	 104.992
| 12> H 	 -44.3477 	 54.1801 	 103.109
| 13> C 	 -43.8315 	 51.8565 	 101.527
| 14> H 	 -43.9905 	 50.8769 	 101.125
| 15> H 	 -42.7546 	 52.0041 	 101.452
| 16> C 	 -44.5192 	 52.8258 	 100.551
| 17> H 	 -44.2923 	 53.8843 	 100.806
| 18> H 	 -44.1654 	 52.6057 	 99.5225
| 19> C 	 -46.018 	 52.488 	 100.436
| 20> H 	 -46.5353 	 53.4081 	 100.154
| 21> H 	 -46.1991 	 51.7052 	 99.6577
| 22> H 	 -46.4819 	 52.2046 	 101.323
| 23> S 	 -43.6331 	 54.3672 	 107.144
| 24> C 	 -44.4002 	 55.8325 	 107.802
| 25> C 	 -45.4538 	 56.3042 	 106.987
| 26> C 	 -45.5746 	 55.4451 	 105.864
| 27> C 	 -44.8847 	 54.2463 	 105.963
| 28> H 	 -45.8234 	 57.3133 	 107.208
| 29> C 	 -46.7144 	 55.6637 	 104.807
| 30> H 	 -46.4287 	 55.1656 	 103.874
| 31> H 	 -46.7552 	 56.72 	 104.467
| 32> C 	 -48.074 	 55.2796 	 105.314
| 33> H 	 -48.1894 	 54.2224 	 105.484
| 34> H 	 -48.72 	 55.3473 	 104.485
| 35> C 	 -48.5328 	 56.1746 	 106.45
| 36> H 	 -49.573 	 55.9808 	 106.636
| 37> H 	 -48.4558 	 57.2223 	 106.225
| 38> H 	 -48.1331 	 56.0792 	 107.461
| 39> H 	 -44.2412 	 49.7824 	 103.543
| 40> H 	 -44.1688 	 56.3958 	 108.678
| 41> *
| 42>
| 43>                          ****END OF INPUT****

CARTESIAN COORDINATES (ANGSTROEM)
---------------------------------
  S    -44.627200   51.485700  105.461000
  C    -44.327700   50.856400  103.870000
  C    -44.256100   51.940500  102.987000
  C    -44.431000   53.240500  103.602000
  C    -44.710100   53.132400  104.992000
  H    -44.347700   54.180100  103.109000
  C    -43.831500   51.856500  101.527000
  H    -43.990500   50.876900  101.125000
  H    -42.754600   52.004100  101.452000
  C    -44.519200   52.825800  100.551000
  H    -44.292300   53.884300  100.806000
  H    -44.165400   52.605700   99.522500
  C    -46.018000   52.488000  100.436000
  H    -46.535300   53.408100  100.154000
  H    -46.199100   51.705200   99.657700
  H    -46.481900   52.204600  101.323000
  S    -43.633100   54.367200  107.144000
  C    -44.400200   55.832500  107.802000
  C    -45.453800   56.304200  106.987000
  C    -45.574600   55.445100  105.864000
  C    -44.884700   54.246300  105.963000
  H    -45.823400   57.313300  107.208000
  C    -46.714400   55.663700  104.807000
  H    -46.428700   55.165600  103.874000
  H    -46.755200   56.720000  104.467000
  C    -48.074000   55.279600  105.314000
  H    -48.189400   54.222400  105.484000
  H    -48.720000   55.347300  104.485000
  C    -48.532800   56.174600  106.450000
  H    -49.573000   55.980800  106.636000
  H    -48.455800   57.222300  106.225000
  H    -48.133100   56.079200  107.461000
  H    -44.241200   49.782400  103.543000
  H    -44.168800   56.395800  108.678000

 Total Charge           Charge          ....    0
 Multiplicity           Mult            ....    1
 Number of Electrons    NEL             ....  134
 Basis Dimension        Dim             ....  322

ORBITAL ENERGIES
----------------

  NO   OCC          E(Eh)            E(eV)
   0   2.0000     -88.969173     -2420.9743
   1   2.0000     -88.968025     -2420.9430
   2   2.0000     -10.334344      -281.2118
   3   2.0000     -10.326664      -281.0028
   4   2.0000     -10.320143      -280.8254
   5   2.0000     -10.318508      -280.7809
   6   2.0000     -10.305181      -280.4182
   7   2.0000     -10.305067      -280.4151
   8   2.0000     -10.298241      -280.2294
   9   2.0000     -10.296709      -280.1877
  10   2.0000     -10.290901      -280.0296
  11   2.0000     -10.289571      -279.9934
  12   2.0000     -10.287994      -279.9506
  13   2.0000     -10.276663      -279.6422
  14   2.0000     -10.272183      -279.5203
  15   2.0000     -10.270134      -279.4646
  16   2.0000      -8.084187      -219.9819
  17   2.0000      -8.082480      -219.9355
  18   2.0000      -6.042672      -164.4295
  19   2.0000      -6.040941      -164.3824
  20   2.0000      -6.038356      -164.3120
  21   2.0000      -6.037098      -164.2778
  22   2.0000      -6.035241      -164.2273
  23   2.0000      -6.033217      -164.1722
  24   2.0000      -1.006775       -27.3957
  25   2.0000      -0.983737       -26.7688
  26   2.0000      -0.911680       -24.8081
  27   2.0000      -0.908964       -24.7342
  28   2.0000      -0.866817       -23.5873
  29   2.0000      -0.844921       -22.9915
  30   2.0000      -0.841115       -22.8879
  31   2.0000      -0.812373       -22.1058
  32   2.0000      -0.783442       -21.3185
  33   2.0000      -0.774092       -21.0641
  34   2.0000      -0.709962       -19.3191
  35   2.0000      -0.697884       -18.9904
  36   2.0000      -0.687906       -18.7189
  37   2.0000      -0.659849       -17.9554
  38   2.0000      -0.636540       -17.3211
  39   2.0000      -0.623585       -16.9686
  40   2.0000      -0.588635       -16.0176
  41   2.0000      -0.570505       -15.5242
  42   2.0000      -0.553931       -15.0732
  43   2.0000      -0.551461       -15.0060
  44   2.0000      -0.542523       -14.7628
  45   2.0000      -0.535928       -14.5834
  46   2.0000      -0.515901       -14.0384
  47   2.0000      -0.509754       -13.8711
  48   2.0000      -0.501042       -13.6340
  49   2.0000      -0.496202       -13.5023
  50   2.0000      -0.489755       -13.3269
  51   2.0000      -0.481982       -13.1154
  52   2.0000      -0.471504       -12.8303
  53   2.0000      -0.463696       -12.6178
  54   2.0000      -0.457713       -12.4550
  55   2.0000      -0.446244       -12.1429
  56   2.0000      -0.439873       -11.9696
  57   2.0000      -0.436078       -11.8663
  58   2.0000      -0.432050       -11.7567
  59   2.0000      -0.424668       -11.5558
  60   2.0000      -0.419837       -11.4244
  61   2.0000      -0.412826       -11.2336
  62   2.0000      -0.405481       -11.0337
  63   2.0000      -0.343296        -9.3415
  64   2.0000      -0.330404        -8.9908
  65   2.0000      -0.327282        -8.9058
  66   2.0000      -0.293912        -7.9977
  67   0.0000       0.028772         0.7829
  68   0.0000       0.067635         1.8404
  69   0.0000       0.105086         2.8595
  70   0.0000       0.124249         3.3810
  71   0.0000       0.128556         3.4982

MULLIKEN ATOMIC CHARGES
-----------------------
   0 S :    0.122704
   1 C :   -0.133543
   2 C :   -0.110398
   3 C :    0.045900
   4 C :   -0.166804
   5 H :    0.010262
   6 C :    0.074113
   7 H :    0.002859
   8 H :    0.044424
   9 C :   -0.109582
  10 H :    0.041577
  11 H :    0.035093
  12 C :   -0.046016
  13 H :    0.026921
  14 H :    0.037776
  15 H :    0.025950
  16 S :    0.116960
  17 C :   -0.084275
  18 C :   -0.046045
  19 C :   -0.051277
  20 C :   -0.122509
  21 H :    0.037457
  22 C :    0.036572
  23 H :    0.006800
  24 H :    0.020767
  25 C :    0.005482
  26 H :    0.022567
  27 H :    0.007773
  28 C :   -0.042864
  29 H :    0.018943
  30 H :    0.014581
  31 H :    0.041395
  32 H :    0.073877
  33 H :    0.042560
Sum of atomic charges:   -0.0000000

LOEWDIN ATOMIC CHARGES
----------------------
   0 S :    0.439003
   1 C :   -0.223095
   2 C :   -0.063756
   3 C :   -0.063515
   4 C :   -0.209796
   5 H :    0.024654
   6 C :   -0.034719
   7 H :    0.023092
   8 H :    0.034615
   9 C :   -0.044592
  10 H :    0.022060
  11 H :    0.031359
  12 C :   -0.065233
  13 H :    0.028036
  14 H :    0.030924
  15 H :    0.013453
  16 S :    0.414546
  17 C :   -0.175648
  18 C :   -0.070031
  19 C :   -0.053470
  20 C :   -0.210501
  21 H :    0.040311
  22 C :   -0.033350
  23 H :    0.024098
  24 H :    0.029591
  25 C :   -0.036487
  26 H :    0.027724
  27 H :    0.022419
  28 C :   -0.067011
  29 H :    0.025707
  30 H :    0.020597
  31 H :    0.028770
  32 H :    0.047212
  33 H :    0.023035

  Mayer bond orders larger than 0.100000
B(  0-S ,  1-C ) :   1.1452 B(  0-S ,  4-C ) :   1.1941 B(  1-C ,  2-C ) :   1.5769
B(  1-C ,  4-C ) :   0.1015 B(  1-C , 32-H ) :   0.9645 B(  2-C ,  3-C ) :   1.2671
B(  2-C ,  6-C ) :   1.0249 B(  3-C ,  4-C ) :   1.5180 B(  3-C ,  5-H ) :   0.9937
B(  4-C , 20-C ) :   1.0037 B(  6-C ,  7-H ) :   0.9409 B(  6-C ,  8-H ) :   0.9380
B(  6-C ,  9-C ) :   1.0795 B(  9-C , 10-H ) :   0.9584 B(  9-C , 11-H ) :   0.9581
B(  9-C , 12-C ) :   1.0617 B( 12-C , 13-H ) :   0.9738 B( 12-C , 14-H ) :   0.9779
B( 12-C , 15-H ) :   0.9801 B( 16-S , 17-C ) :   1.1614 B( 16-S , 20-C ) :   1.1538
B( 17-C , 18-C ) :   1.6106 B( 17-C , 20-C ) :   0.1072 B( 17-C , 33-H ) :   0.9664
B( 18-C , 19-C ) :   1.2441 B( 18-C , 21-H ) :   0.9814 B( 19-C , 20-C ) :   1.5914
B( 19-C , 22-C ) :   1.0466 B( 22-C , 23-H ) :   0.9331 B( 22-C , 24-H ) :   0.9380
B( 22-C , 25-C ) :   1.0871 B( 25-C , 26-H ) :   0.9485 B( 25-C , 27-H ) :   0.9438
B( 25-C , 28-C ) :   1.0810 B( 28-C , 29-H ) :   0.9673 B( 28-C , 30-H ) :   0.9720
B( 28-C , 31-H ) :   0.9674

Dispersion correction           -0.014824267
FINAL SINGLE POINT ENERGY     -1339.864285481089

DIPOLE MOMENT
-------------
                                X             Y             Z
Electronic contribution:     15.73933      -7.64513      19.62121
Nuclear contribution   :    -15.93555       7.96121     -20.12392
                        -----------------------------------------
Total Dipole Moment    :     -0.19622       0.31609      -0.50271
                        -----------------------------------------
Magnitude (a.u.)       :      0.62540
Magnitude (Debye)      :      1.58964

Rotational constants in cm-1:     0.019362     0.009042     0.007204
Rotational constants in MHz :   580.465974   271.072781   215.964796

                             ****ORCA TERMINATED NORMALLY****
TOTAL RUN TIME: 0 days 0 hours 0 minutes 31 seconds 52 msec
