                         Program Version 4.2.1 -  RELEASE  -
|  1> ! wB97X-D3 SP def2-SVP
|  2> %pal
|  3> nprocs 16
|  4> end
|  5>
|  6> * xyz 0 1
|  7> S 	 -41.2673 	 49.1873 	 102.327
|  8> C 	 -39.9592 	 48.6996 	 103.371
|  9> C 	 -39.3402 	 49.7571 	 104.034
| 10> C 	 -39.7936 	 51.0413 	 103.506
| 11> C 	 -40.8017 	 50.8819 	 102.531
| 12> H 	 -39.3458 	 52.0628 	 103.764
| 13> C 	 -37.9917 	 49.6119 	 104.798
| 14> H 	 -37.2725 	 50.3986 	 104.477
| 15> H 	 -37.4843 	 48.65 	 104.613
| 16> C 	 -38.0799 	 49.7996 	 106.335
| 17> H 	 -37.0317 	 49.712 	 106.739
| 18> H 	 -38.2939 	 50.8155 	 106.561
| 19> C 	 -39.0034 	 48.8766 	 107.185
| 20> H 	 -38.8329 	 47.8382 	 107.212
| 21> H 	 -39.0034 	 49.119 	 108.221
| 22> H 	 -39.9632 	 49.1363 	 106.847
| 23> S 	 -43.3454 	 51.8256 	 102.181
| 24> C 	 -43.6134 	 53.4973 	 101.593
| 25> C 	 -42.3836 	 54.0966 	 101.318
| 26> C 	 -41.2589 	 53.2825 	 101.65
| 27> C 	 -41.5966 	 51.9793 	 102.048
| 28> H 	 -42.3044 	 55.1404 	 100.946
| 29> C 	 -39.8328 	 53.7939 	 101.575
| 30> H 	 -39.8415 	 54.4801 	 100.657
| 31> H 	 -39.1972 	 52.9216 	 101.338
| 32> C 	 -39.3165 	 54.7475 	 102.649
| 33> H 	 -39.334 	 54.267 	 103.637
| 34> H 	 -39.9125 	 55.5714 	 102.549
| 35> C 	 -37.9264 	 55.3369 	 102.411
| 36> H 	 -37.734 	 55.7692 	 101.403
| 37> H 	 -37.2154 	 54.5327 	 102.57
| 38> H 	 -37.8402 	 56.1818 	 103.077
| 39> H 	 -39.8302 	 47.7016 	 103.593
| 40> H 	 -44.6708 	 53.9352 	 101.564
| 41> *
| 42>
| 43>                          ****END OF INPUT****

CARTESIAN COORDINATES (ANGSTROEM)
---------------------------------
  S    -41.267300   49.187300  102.327000
  C    -39.959200   48.699600  103.371000
  C    -39.340200   49.757100  104.034000
  C    -39.793600   51.041300  103.506000
  C    -40.801700   50.881900  102.531000
  H    -39.345800   52.062800  103.764000
  C    -37.991700   49.611900  104.798000
  H    -37.272500   50.398600  104.477000
  H    -37.484300   48.650000  104.613000
  C    -38.079900   49.799600  106.335000
  H    -37.031700   49.712000  106.739000
  H    -38.293900   50.815500  106.561000
  C    -39.003400   48.876600  107.185000
  H    -38.832900   47.838200  107.212000
  H    -39.003400   49.119000  108.221000
  H    -39.963200   49.136300  106.847000
  S    -43.345400   51.825600  102.181000
  C    -43.613400   53.497300  101.593000
  C    -42.383600   54.096600  101.318000
  C    -41.258900   53.282500  101.650000
  C    -41.596600   51.979300  102.048000
  H    -42.304400   55.140400  100.946000
  C    -39.832800   53.793900  101.575000
  H    -39.841500   54.480100  100.657000
  H    -39.197200   52.921600  101.338000
  C    -39.316500   54.747500  102.649000
  H    -39.334000   54.267000  103.637000
  H    -39.912500   55.571400  102.549000
  C    -37.926400   55.336900  102.411000
  H    -37.734000   55.769200  101.403000
  H    -37.215400   54.532700  102.570000
  H    -37.840200   56.181800  103.077000
  H    -39.830200   47.701600  103.593000
  H    -44.670800   53.935200  101.564000

 Total Charge           Charge          ....    0
 Multiplicity           Mult            ....    1
 Number of Electrons    NEL             ....  134
 Basis Dimension        Dim             ....  322

ORBITAL ENERGIES
----------------

  NO   OCC          E(Eh)            E(eV)
   0   2.0000     -88.972740     -2421.0713
   1   2.0000     -88.963518     -2420.8204
   2   2.0000     -10.334725      -281.2222
   3   2.0000     -10.328584      -281.0551
   4   2.0000     -10.327462      -281.0245
   5   2.0000     -10.315064      -280.6872
   6   2.0000     -10.310969      -280.5757
   7   2.0000     -10.309622      -280.5391
   8   2.0000     -10.303225      -280.3650
   9   2.0000     -10.302681      -280.3502
  10   2.0000     -10.301315      -280.3130
  11   2.0000     -10.295604      -280.1576
  12   2.0000     -10.288115      -279.9538
  13   2.0000     -10.283162      -279.8191
  14   2.0000     -10.280912      -279.7578
  15   2.0000     -10.266211      -279.3578
  16   2.0000      -8.087165      -220.0629
  17   2.0000      -8.077619      -219.8032
  18   2.0000      -6.045674      -164.5111
  19   2.0000      -6.041762      -164.4047
  20   2.0000      -6.037908      -164.2998
  21   2.0000      -6.036187      -164.2530
  22   2.0000      -6.032206      -164.1447
  23   2.0000      -6.028351      -164.0398
  24   2.0000      -1.002886       -27.2899
  25   2.0000      -0.977328       -26.5945
  26   2.0000      -0.912333       -24.8258
  27   2.0000      -0.903280       -24.5795
  28   2.0000      -0.869427       -23.6583
  29   2.0000      -0.853506       -23.2251
  30   2.0000      -0.844969       -22.9928
  31   2.0000      -0.809953       -22.0399
  32   2.0000      -0.786236       -21.3946
  33   2.0000      -0.771866       -21.0036
  34   2.0000      -0.705762       -19.2048
  35   2.0000      -0.697723       -18.9860
  36   2.0000      -0.692542       -18.8450
  37   2.0000      -0.661775       -18.0078
  38   2.0000      -0.640392       -17.4260
  39   2.0000      -0.615340       -16.7443
  40   2.0000      -0.590867       -16.0783
  41   2.0000      -0.578829       -15.7507
  42   2.0000      -0.562737       -15.3128
  43   2.0000      -0.543169       -14.7804
  44   2.0000      -0.540408       -14.7052
  45   2.0000      -0.531400       -14.4601
  46   2.0000      -0.515181       -14.0188
  47   2.0000      -0.513861       -13.9829
  48   2.0000      -0.501630       -13.6500
  49   2.0000      -0.496816       -13.5190
  50   2.0000      -0.489033       -13.3073
  51   2.0000      -0.483116       -13.1462
  52   2.0000      -0.470638       -12.8067
  53   2.0000      -0.466357       -12.6902
  54   2.0000      -0.459934       -12.5154
  55   2.0000      -0.447771       -12.1845
  56   2.0000      -0.445794       -12.1307
  57   2.0000      -0.436549       -11.8791
  58   2.0000      -0.430355       -11.7106
  59   2.0000      -0.426539       -11.6067
  60   2.0000      -0.422802       -11.5050
  61   2.0000      -0.413526       -11.2526
  62   2.0000      -0.409525       -11.1437
  63   2.0000      -0.354209        -9.6385
  64   2.0000      -0.332664        -9.0523
  65   2.0000      -0.327743        -8.9183
  66   2.0000      -0.285105        -7.7581
  67   0.0000       0.022807         0.6206
  68   0.0000       0.065445         1.7808
  69   0.0000       0.102643         2.7930
  70   0.0000       0.108042         2.9400
  71   0.0000       0.121304         3.3009

MULLIKEN ATOMIC CHARGES
-----------------------
   0 S :    0.113510
   1 C :   -0.089468
   2 C :   -0.043205
   3 C :   -0.005034
   4 C :   -0.150557
   5 H :    0.037740
   6 C :    0.025764
   7 H :    0.040618
   8 H :    0.034982
   9 C :   -0.098851
  10 H :    0.023736
  11 H :    0.015520
  12 C :   -0.004262
  13 H :    0.022541
  14 H :    0.017562
  15 H :    0.024380
  16 S :    0.083961
  17 C :   -0.134777
  18 C :   -0.028042
  19 C :   -0.037291
  20 C :   -0.123643
  21 H :    0.034283
  22 C :   -0.008058
  23 H :    0.021442
  24 H :    0.039796
  25 C :   -0.021260
  26 H :    0.036871
  27 H :    0.001649
  28 C :   -0.050785
  29 H :    0.030679
  30 H :    0.032452
  31 H :    0.036897
  32 H :    0.028194
  33 H :    0.092656
Sum of atomic charges:   -0.0000000

LOEWDIN ATOMIC CHARGES
----------------------
   0 S :    0.406440
   1 C :   -0.176513
   2 C :   -0.064020
   3 C :   -0.058783
   4 C :   -0.194644
   5 H :    0.043790
   6 C :   -0.030186
   7 H :    0.038331
   8 H :    0.031908
   9 C :   -0.043335
  10 H :    0.024428
  11 H :    0.016546
  12 C :   -0.061252
  13 H :    0.018672
  14 H :    0.026082
  15 H :    0.021647
  16 S :    0.381236
  17 C :   -0.187682
  18 C :   -0.075106
  19 C :   -0.065260
  20 C :   -0.192589
  21 H :    0.038423
  22 C :   -0.042504
  23 H :    0.037006
  24 H :    0.030029
  25 C :   -0.035062
  26 H :    0.022566
  27 H :    0.013607
  28 C :   -0.060406
  29 H :    0.027765
  30 H :    0.023158
  31 H :    0.027343
  32 H :    0.011182
  33 H :    0.047181

  Mayer bond orders larger than 0.100000
B(  0-S ,  1-C ) :   1.1466 B(  0-S ,  4-C ) :   1.1397 B(  1-C ,  2-C ) :   1.6005
B(  1-C , 32-H ) :   0.9764 B(  2-C ,  3-C ) :   1.2395 B(  2-C ,  6-C ) :   1.0101
B(  3-C ,  4-C ) :   1.5603 B(  3-C ,  5-H ) :   0.9702 B(  4-C , 20-C ) :   1.0743
B(  6-C ,  7-H ) :   0.9505 B(  6-C ,  8-H ) :   0.9566 B(  6-C ,  9-C ) :   1.0639
B(  9-C , 10-H ) :   0.9571 B(  9-C , 11-H ) :   0.9594 B(  9-C , 12-C ) :   1.0720
B( 12-C , 13-H ) :   0.9784 B( 12-C , 14-H ) :   0.9709 B( 12-C , 15-H ) :   0.9739
B( 16-S , 17-C ) :   1.1479 B( 16-S , 20-C ) :   1.1350 B( 17-C , 18-C ) :   1.5855
B( 17-C , 20-C ) :   0.1019 B( 17-C , 33-H ) :   0.9598 B( 18-C , 19-C ) :   1.2569
B( 18-C , 21-H ) :   0.9825 B( 19-C , 20-C ) :   1.5783 B( 19-C , 22-C ) :   1.0525
B( 22-C , 23-H ) :   0.9325 B( 22-C , 24-H ) :   0.9357 B( 22-C , 25-C ) :   1.0630
B( 25-C , 26-H ) :   0.9487 B( 25-C , 27-H ) :   0.9472 B( 25-C , 28-C ) :   1.0877
B( 28-C , 29-H ) :   0.9724 B( 28-C , 30-H ) :   0.9770 B( 28-C , 31-H ) :   0.9754

Dispersion correction           -0.014025645
FINAL SINGLE POINT ENERGY     -1339.861655319854

DIPOLE MOMENT
-------------
                                X             Y             Z
Electronic contribution:    -23.27390     -10.16381     -14.24393
Nuclear contribution   :     23.75936      10.56356      14.55802
                        -----------------------------------------
Total Dipole Moment    :      0.48546       0.39975       0.31409
                        -----------------------------------------
Magnitude (a.u.)       :      0.70293
Magnitude (Debye)      :      1.78672

Rotational constants in cm-1:     0.016702     0.009115     0.006685
Rotational constants in MHz :   500.726654   273.275485   200.406725

                             ****ORCA TERMINATED NORMALLY****
TOTAL RUN TIME: 0 days 0 hours 0 minutes 29 seconds 316 msec
