                         Program Version 4.2.1 -  RELEASE  -
|  1> ! wB97X-D3 SP def2-SVP
|  2> %pal
|  3> nprocs 16
|  4> end
|  5>
|  6> * xyz 0 1
|  7> S 	 43.0052 	 16.9776 	 46.5467
|  8> C 	 42.8137 	 16.0397 	 45.0846
|  9> C 	 42.6998 	 16.8579 	 44.0018
| 10> C 	 43.2099 	 18.1371 	 44.2855
| 11> C 	 43.4223 	 18.3936 	 45.5862
| 12> H 	 43.2941 	 18.8471 	 43.4965
| 13> C 	 42.3321 	 16.4007 	 42.5924
| 14> H 	 42.0405 	 15.337 	 42.6288
| 15> H 	 43.1244 	 16.6328 	 41.8913
| 16> C 	 41.0816 	 17.1775 	 42.0527
| 17> H 	 41.225 	 18.246 	 42.1745
| 18> H 	 40.9231 	 16.9829 	 41.0159
| 19> C 	 39.7872 	 16.806 	 42.7757
| 20> H 	 38.9758 	 17.098 	 42.1889
| 21> H 	 39.669 	 15.767 	 43.1432
| 22> H 	 39.7835 	 17.3187 	 43.7567
| 23> S 	 45.5909 	 19.9396 	 46.2308
| 24> C 	 45.3394 	 21.5006 	 46.8752
| 25> C 	 44.0501 	 21.8298 	 47.0817
| 26> C 	 43.1894 	 20.6869 	 46.8171
| 27> C 	 43.8528 	 19.6547 	 46.1477
| 28> H 	 43.8416 	 22.7997 	 47.5521
| 29> C 	 41.7452 	 20.6166 	 47.3588
| 30> H 	 41.8903 	 20.4338 	 48.3671
| 31> H 	 41.1831 	 19.8328 	 46.889
| 32> C 	 40.9169 	 21.8931 	 47.0449
| 33> H 	 41.2837 	 22.6781 	 47.7157
| 34> H 	 39.8445 	 21.8281 	 47.2894
| 35> C 	 40.9499 	 22.541 	 45.6879
| 36> H 	 40.5479 	 21.8872 	 44.9339
| 37> H 	 42.015 	 22.8937 	 45.6097
| 38> H 	 40.4803 	 23.5778 	 45.7745
| 39> H 	 42.6306 	 14.9559 	 45.1582
| 40> H 	 46.1459 	 22.1371 	 47.1905
| 41> *
| 42>
| 43>                          ****END OF INPUT****

CARTESIAN COORDINATES (ANGSTROEM)
---------------------------------
  S     43.005200   16.977600   46.546700
  C     42.813700   16.039700   45.084600
  C     42.699800   16.857900   44.001800
  C     43.209900   18.137100   44.285500
  C     43.422300   18.393600   45.586200
  H     43.294100   18.847100   43.496500
  C     42.332100   16.400700   42.592400
  H     42.040500   15.337000   42.628800
  H     43.124400   16.632800   41.891300
  C     41.081600   17.177500   42.052700
  H     41.225000   18.246000   42.174500
  H     40.923100   16.982900   41.015900
  C     39.787200   16.806000   42.775700
  H     38.975800   17.098000   42.188900
  H     39.669000   15.767000   43.143200
  H     39.783500   17.318700   43.756700
  S     45.590900   19.939600   46.230800
  C     45.339400   21.500600   46.875200
  C     44.050100   21.829800   47.081700
  C     43.189400   20.686900   46.817100
  C     43.852800   19.654700   46.147700
  H     43.841600   22.799700   47.552100
  C     41.745200   20.616600   47.358800
  H     41.890300   20.433800   48.367100
  H     41.183100   19.832800   46.889000
  C     40.916900   21.893100   47.044900
  H     41.283700   22.678100   47.715700
  H     39.844500   21.828100   47.289400
  C     40.949900   22.541000   45.687900
  H     40.547900   21.887200   44.933900
  H     42.015000   22.893700   45.609700
  H     40.480300   23.577800   45.774500
  H     42.630600   14.955900   45.158200
  H     46.145900   22.137100   47.190500

 Total Charge           Charge          ....    0
 Multiplicity           Mult            ....    1
 Number of Electrons    NEL             ....  134
 Basis Dimension        Dim             ....  322

ORBITAL ENERGIES
----------------

  NO   OCC          E(Eh)            E(eV)
   0   2.0000     -88.961412     -2420.7631
   1   2.0000     -88.960616     -2420.7414
   2   2.0000     -10.323408      -280.9142
   3   2.0000     -10.322749      -280.8963
   4   2.0000     -10.314072      -280.6602
   5   2.0000     -10.309856      -280.5455
   6   2.0000     -10.309472      -280.5350
   7   2.0000     -10.296147      -280.1724
   8   2.0000     -10.295677      -280.1596
   9   2.0000     -10.292996      -280.0867
  10   2.0000     -10.287689      -279.9422
  11   2.0000     -10.286349      -279.9058
  12   2.0000     -10.284568      -279.8573
  13   2.0000     -10.282127      -279.7909
  14   2.0000     -10.279285      -279.7136
  15   2.0000     -10.271581      -279.5039
  16   2.0000      -8.076469      -219.7719
  17   2.0000      -8.076323      -219.7679
  18   2.0000      -6.034973      -164.2200
  19   2.0000      -6.034754      -164.2140
  20   2.0000      -6.031114      -164.1150
  21   2.0000      -6.030789      -164.1061
  22   2.0000      -6.027029      -164.0038
  23   2.0000      -6.027009      -164.0033
  24   2.0000      -1.010578       -27.4992
  25   2.0000      -0.989967       -26.9384
  26   2.0000      -0.909972       -24.7616
  27   2.0000      -0.907738       -24.7008
  28   2.0000      -0.872790       -23.7498
  29   2.0000      -0.848116       -23.0784
  30   2.0000      -0.845768       -23.0145
  31   2.0000      -0.818909       -22.2836
  32   2.0000      -0.786341       -21.3974
  33   2.0000      -0.773208       -21.0401
  34   2.0000      -0.708614       -19.2824
  35   2.0000      -0.692667       -18.8484
  36   2.0000      -0.683818       -18.6076
  37   2.0000      -0.653497       -17.7826
  38   2.0000      -0.642017       -17.4702
  39   2.0000      -0.627318       -17.0702
  40   2.0000      -0.597904       -16.2698
  41   2.0000      -0.569055       -15.4848
  42   2.0000      -0.564996       -15.3743
  43   2.0000      -0.554150       -15.0792
  44   2.0000      -0.544479       -14.8160
  45   2.0000      -0.539967       -14.6933
  46   2.0000      -0.524034       -14.2597
  47   2.0000      -0.512597       -13.9485
  48   2.0000      -0.503847       -13.7104
  49   2.0000      -0.492956       -13.4140
  50   2.0000      -0.486619       -13.2416
  51   2.0000      -0.482666       -13.1340
  52   2.0000      -0.470260       -12.7964
  53   2.0000      -0.469080       -12.7643
  54   2.0000      -0.456586       -12.4243
  55   2.0000      -0.446484       -12.1494
  56   2.0000      -0.444847       -12.1049
  57   2.0000      -0.438080       -11.9208
  58   2.0000      -0.432460       -11.7678
  59   2.0000      -0.421512       -11.4699
  60   2.0000      -0.414904       -11.2901
  61   2.0000      -0.410987       -11.1835
  62   2.0000      -0.402113       -10.9421
  63   2.0000      -0.334625        -9.1056
  64   2.0000      -0.332439        -9.0461
  65   2.0000      -0.321409        -8.7460
  66   2.0000      -0.306699        -8.3457
  67   0.0000       0.049598         1.3496
  68   0.0000       0.055055         1.4981
  69   0.0000       0.110280         3.0009
  70   0.0000       0.116846         3.1795
  71   0.0000       0.132372         3.6020

MULLIKEN ATOMIC CHARGES
-----------------------
   0 S :    0.105427
   1 C :   -0.153704
   2 C :   -0.070014
   3 C :    0.044007
   4 C :   -0.143671
   5 H :    0.000291
   6 C :    0.078138
   7 H :    0.026063
   8 H :    0.038264
   9 C :   -0.084848
  10 H :    0.029944
  11 H :    0.026717
  12 C :   -0.054246
  13 H :    0.028893
  14 H :    0.026353
  15 H :    0.034178
  16 S :    0.113706
  17 C :   -0.078528
  18 C :   -0.048193
  19 C :   -0.069619
  20 C :   -0.184127
  21 H :    0.030938
  22 C :    0.169204
  23 H :    0.034884
  24 H :    0.021172
  25 C :   -0.145134
  26 H :    0.014357
  27 H :    0.030757
  28 C :   -0.046242
  29 H :    0.047491
  30 H :    0.030190
  31 H :    0.037556
  32 H :    0.059697
  33 H :    0.050101
Sum of atomic charges:    0.0000000

LOEWDIN ATOMIC CHARGES
----------------------
   0 S :    0.390711
   1 C :   -0.189144
   2 C :   -0.070558
   3 C :   -0.050504
   4 C :   -0.196588
   5 H :    0.028378
   6 C :   -0.022074
   7 H :    0.031308
   8 H :    0.031471
   9 C :   -0.037638
  10 H :    0.023012
  11 H :    0.018663
  12 C :   -0.068087
  13 H :    0.017750
  14 H :    0.026029
  15 H :    0.030277
  16 S :    0.415032
  17 C :   -0.187086
  18 C :   -0.086928
  19 C :   -0.040154
  20 C :   -0.205668
  21 H :    0.037700
  22 C :   -0.016882
  23 H :    0.029423
  24 H :    0.027190
  25 C :   -0.055596
  26 H :    0.018557
  27 H :    0.023398
  28 C :   -0.071379
  29 H :    0.022532
  30 H :    0.031219
  31 H :    0.037882
  32 H :    0.030683
  33 H :    0.027073

  Mayer bond orders larger than 0.100000
B(  0-S ,  1-C ) :   1.1455 B(  0-S ,  4-C ) :   1.1246 B(  1-C ,  2-C ) :   1.6085
B(  1-C , 32-H ) :   0.9669 B(  2-C ,  3-C ) :   1.2249 B(  2-C ,  6-C ) :   1.0315
B(  3-C ,  4-C ) :   1.6113 B(  3-C ,  5-H ) :   0.9996 B(  4-C , 20-C ) :   1.0193
B(  6-C ,  7-H ) :   0.9458 B(  6-C ,  8-H ) :   0.9431 B(  6-C ,  9-C ) :   1.0666
B(  9-C , 10-H ) :   0.9576 B(  9-C , 11-H ) :   0.9628 B(  9-C , 12-C ) :   1.0674
B( 12-C , 13-H ) :   0.9767 B( 12-C , 14-H ) :   0.9770 B( 12-C , 15-H ) :   0.9739
B( 16-S , 17-C ) :   1.1670 B( 16-S , 20-C ) :   1.1349 B( 17-C , 18-C ) :   1.6450
B( 17-C , 33-H ) :   0.9612 B( 18-C , 19-C ) :   1.1982 B( 18-C , 21-H ) :   0.9855
B( 19-C , 20-C ) :   1.6309 B( 19-C , 22-C ) :   1.0249 B( 22-C , 23-H ) :   0.9392
B( 22-C , 24-H ) :   0.9322 B( 22-C , 25-C ) :   1.0533 B( 25-C , 26-H ) :   0.9519
B( 25-C , 27-H ) :   0.9609 B( 25-C , 28-C ) :   1.0968 B( 28-C , 29-H ) :   0.9758
B( 28-C , 30-H ) :   0.9641 B( 28-C , 31-H ) :   0.9667

Dispersion correction           -0.014839816
FINAL SINGLE POINT ENERGY     -1339.862882861407

DIPOLE MOMENT
-------------
                                X             Y             Z
Electronic contribution:     21.81090      -6.42091      11.45586
Nuclear contribution   :    -22.18272       6.63179     -11.60930
                        -----------------------------------------
Total Dipole Moment    :     -0.37182       0.21089      -0.15344
                        -----------------------------------------
Magnitude (a.u.)       :      0.45417
Magnitude (Debye)      :      1.15441

Rotational constants in cm-1:     0.018890     0.008972     0.007367
Rotational constants in MHz :   566.300164   268.981031   220.864024

                             ****ORCA TERMINATED NORMALLY****
TOTAL RUN TIME: 0 days 0 hours 0 minutes 35 seconds 502 msec
