                         Program Version 4.2.1 -  RELEASE  -
|  1> ! wB97X-D3 SP def2-SVP
|  2> %pal
|  3> nprocs 16
|  4> end
|  5>
|  6> * xyz 0 1
|  7> S 	 -71.5552 	 37.141 	 114.473
|  8> C 	 -71.5548 	 37.797 	 116.079
|  9> C 	 -70.8734 	 36.8581 	 116.921
| 10> C 	 -70.0818 	 35.8797 	 116.223
| 11> C 	 -70.3079 	 35.9745 	 114.855
| 12> H 	 -69.2721 	 35.2175 	 116.594
| 13> C 	 -70.7378 	 36.9871 	 118.441
| 14> H 	 -70.3093 	 38.0062 	 118.567
| 15> H 	 -69.8187 	 36.3366 	 118.757
| 16> C 	 -72.0141 	 36.6323 	 119.251
| 17> H 	 -72.9346 	 37.1331 	 118.845
| 18> H 	 -72.2665 	 35.542 	 119.203
| 19> C 	 -71.8864 	 37.0316 	 120.686
| 20> H 	 -70.8628 	 37.0502 	 120.986
| 21> H 	 -72.2685 	 38.0544 	 120.695
| 22> H 	 -72.4581 	 36.4109 	 121.408
| 23> S 	 -70.7245 	 34.2448 	 112.741
| 24> C 	 -69.3481 	 33.6055 	 111.839
| 25> C 	 -68.1968 	 33.9724 	 112.506
| 26> C 	 -68.4111 	 34.871 	 113.564
| 27> C 	 -69.7007 	 35.1419 	 113.822
| 28> H 	 -67.2573 	 33.6095 	 112.181
| 29> C 	 -67.2249 	 35.5576 	 114.285
| 30> H 	 -67.638 	 36.2281 	 115.015
| 31> H 	 -66.6232 	 36.2155 	 113.686
| 32> C 	 -66.1505 	 34.6283 	 114.879
| 33> H 	 -65.7649 	 33.9871 	 114.056
| 34> H 	 -66.5391 	 33.8033 	 115.486
| 35> C 	 -64.9372 	 35.2976 	 115.603
| 36> H 	 -64.163 	 34.5616 	 115.615
| 37> H 	 -65.1333 	 35.5515 	 116.576
| 38> H 	 -64.5074 	 36.1701 	 115.131
| 39> H 	 -72.225 	 38.4993 	 116.43
| 40> H 	 -69.4316 	 32.865 	 111.007
| 41> *
| 42>
| 43>                          ****END OF INPUT****

CARTESIAN COORDINATES (ANGSTROEM)
---------------------------------
  S    -71.555200   37.141000  114.473000
  C    -71.554800   37.797000  116.079000
  C    -70.873400   36.858100  116.921000
  C    -70.081800   35.879700  116.223000
  C    -70.307900   35.974500  114.855000
  H    -69.272100   35.217500  116.594000
  C    -70.737800   36.987100  118.441000
  H    -70.309300   38.006200  118.567000
  H    -69.818700   36.336600  118.757000
  C    -72.014100   36.632300  119.251000
  H    -72.934600   37.133100  118.845000
  H    -72.266500   35.542000  119.203000
  C    -71.886400   37.031600  120.686000
  H    -70.862800   37.050200  120.986000
  H    -72.268500   38.054400  120.695000
  H    -72.458100   36.410900  121.408000
  S    -70.724500   34.244800  112.741000
  C    -69.348100   33.605500  111.839000
  C    -68.196800   33.972400  112.506000
  C    -68.411100   34.871000  113.564000
  C    -69.700700   35.141900  113.822000
  H    -67.257300   33.609500  112.181000
  C    -67.224900   35.557600  114.285000
  H    -67.638000   36.228100  115.015000
  H    -66.623200   36.215500  113.686000
  C    -66.150500   34.628300  114.879000
  H    -65.764900   33.987100  114.056000
  H    -66.539100   33.803300  115.486000
  C    -64.937200   35.297600  115.603000
  H    -64.163000   34.561600  115.615000
  H    -65.133300   35.551500  116.576000
  H    -64.507400   36.170100  115.131000
  H    -72.225000   38.499300  116.430000
  H    -69.431600   32.865000  111.007000

 Total Charge           Charge          ....    0
 Multiplicity           Mult            ....    1
 Number of Electrons    NEL             ....  134
 Basis Dimension        Dim             ....  322

ORBITAL ENERGIES
----------------

  NO   OCC          E(Eh)            E(eV)
   0   2.0000     -88.968471     -2420.9552
   1   2.0000     -88.962482     -2420.7922
   2   2.0000     -10.330640      -281.1110
   3   2.0000     -10.322186      -280.8810
   4   2.0000     -10.322002      -280.8759
   5   2.0000     -10.313802      -280.6528
   6   2.0000     -10.309130      -280.5257
   7   2.0000     -10.303770      -280.3798
   8   2.0000     -10.300089      -280.2797
   9   2.0000     -10.297011      -280.1959
  10   2.0000     -10.291983      -280.0591
  11   2.0000     -10.290431      -280.0169
  12   2.0000     -10.289806      -279.9999
  13   2.0000     -10.287393      -279.9342
  14   2.0000     -10.273831      -279.5652
  15   2.0000     -10.272140      -279.5192
  16   2.0000      -8.083180      -219.9545
  17   2.0000      -8.077510      -219.8002
  18   2.0000      -6.041578      -164.3997
  19   2.0000      -6.037674      -164.2935
  20   2.0000      -6.036034      -164.2488
  21   2.0000      -6.034055      -164.1950
  22   2.0000      -6.031928      -164.1371
  23   2.0000      -6.028267      -164.0375
  24   2.0000      -1.010709       -27.5028
  25   2.0000      -0.985624       -26.8202
  26   2.0000      -0.908253       -24.7148
  27   2.0000      -0.902533       -24.5592
  28   2.0000      -0.871759       -23.7218
  29   2.0000      -0.854486       -23.2517
  30   2.0000      -0.847344       -23.0574
  31   2.0000      -0.816112       -22.2075
  32   2.0000      -0.784524       -21.3480
  33   2.0000      -0.767694       -20.8900
  34   2.0000      -0.705266       -19.1913
  35   2.0000      -0.702066       -19.1042
  36   2.0000      -0.695130       -18.9154
  37   2.0000      -0.663383       -18.0516
  38   2.0000      -0.644996       -17.5512
  39   2.0000      -0.612986       -16.6802
  40   2.0000      -0.598417       -16.2837
  41   2.0000      -0.568678       -15.4745
  42   2.0000      -0.560427       -15.2500
  43   2.0000      -0.553975       -15.0744
  44   2.0000      -0.530184       -14.4271
  45   2.0000      -0.526534       -14.3277
  46   2.0000      -0.519496       -14.1362
  47   2.0000      -0.512591       -13.9483
  48   2.0000      -0.506842       -13.7919
  49   2.0000      -0.501766       -13.6537
  50   2.0000      -0.496666       -13.5150
  51   2.0000      -0.482174       -13.1206
  52   2.0000      -0.473135       -12.8747
  53   2.0000      -0.465795       -12.6749
  54   2.0000      -0.463404       -12.6099
  55   2.0000      -0.445567       -12.1245
  56   2.0000      -0.442755       -12.0480
  57   2.0000      -0.440809       -11.9950
  58   2.0000      -0.437627       -11.9084
  59   2.0000      -0.419218       -11.4075
  60   2.0000      -0.415795       -11.3144
  61   2.0000      -0.409861       -11.1529
  62   2.0000      -0.404877       -11.0173
  63   2.0000      -0.348185        -9.4746
  64   2.0000      -0.331737        -9.0270
  65   2.0000      -0.329345        -8.9619
  66   2.0000      -0.293676        -7.9913
  67   0.0000       0.028850         0.7850
  68   0.0000       0.065397         1.7796
  69   0.0000       0.112152         3.0518
  70   0.0000       0.121208         3.2982
  71   0.0000       0.129907         3.5349

MULLIKEN ATOMIC CHARGES
-----------------------
   0 S :    0.121701
   1 C :   -0.068085
   2 C :   -0.111592
   3 C :    0.033880
   4 C :   -0.179392
   5 H :    0.040670
   6 C :   -0.015154
   7 H :    0.047210
   8 H :    0.036617
   9 C :   -0.082501
  10 H :    0.034488
  11 H :    0.038787
  12 C :   -0.032600
  13 H :    0.024062
  14 H :    0.030416
  15 H :    0.039952
  16 S :    0.095784
  17 C :   -0.113510
  18 C :   -0.020249
  19 C :   -0.010843
  20 C :   -0.146716
  21 H :    0.004727
  22 C :    0.113250
  23 H :    0.013256
  24 H :    0.019692
  25 C :   -0.134905
  26 H :    0.021164
  27 H :    0.020760
  28 C :    0.008737
  29 H :    0.021223
  30 H :    0.017032
  31 H :    0.024471
  32 H :    0.030414
  33 H :    0.077254
Sum of atomic charges:    0.0000000

LOEWDIN ATOMIC CHARGES
----------------------
   0 S :    0.423414
   1 C :   -0.200993
   2 C :   -0.055184
   3 C :   -0.065995
   4 C :   -0.191311
   5 H :    0.043573
   6 C :   -0.046639
   7 H :    0.036801
   8 H :    0.037888
   9 C :   -0.049543
  10 H :    0.026795
  11 H :    0.029850
  12 C :   -0.067415
  13 H :    0.019238
  14 H :    0.028607
  15 H :    0.029781
  16 S :    0.398754
  17 C :   -0.183188
  18 C :   -0.065128
  19 C :   -0.063564
  20 C :   -0.198621
  21 H :    0.024276
  22 C :   -0.027379
  23 H :    0.023408
  24 H :    0.029293
  25 C :   -0.046866
  26 H :    0.022524
  27 H :    0.021394
  28 C :   -0.053616
  29 H :    0.027525
  30 H :    0.013305
  31 H :    0.025340
  32 H :    0.012944
  33 H :    0.040732

  Mayer bond orders larger than 0.100000
B(  0-S ,  1-C ) :   1.1447 B(  0-S ,  4-C ) :   1.1750 B(  1-C ,  2-C ) :   1.5711
B(  1-C ,  4-C ) :   0.1105 B(  1-C , 32-H ) :   0.9795 B(  2-C ,  3-C ) :   1.2573
B(  2-C ,  6-C ) :   1.0128 B(  3-C ,  4-C ) :   1.5479 B(  3-C ,  5-H ) :   0.9845
B(  4-C , 20-C ) :   1.0216 B(  6-C ,  7-H ) :   0.9513 B(  6-C ,  8-H ) :   0.9460
B(  6-C ,  9-C ) :   1.0440 B(  9-C , 10-H ) :   0.9683 B(  9-C , 11-H ) :   0.9557
B(  9-C , 12-C ) :   1.0676 B( 12-C , 13-H ) :   0.9743 B( 12-C , 14-H ) :   0.9793
B( 12-C , 15-H ) :   0.9755 B( 16-S , 17-C ) :   1.1490 B( 16-S , 20-C ) :   1.1413
B( 17-C , 18-C ) :   1.6016 B( 17-C , 33-H ) :   0.9643 B( 18-C , 19-C ) :   1.2389
B( 18-C , 21-H ) :   0.9986 B( 19-C , 20-C ) :   1.6285 B( 19-C , 22-C ) :   1.0344
B( 22-C , 23-H ) :   0.9367 B( 22-C , 24-H ) :   0.9352 B( 22-C , 25-C ) :   1.0450
B( 25-C , 26-H ) :   0.9570 B( 25-C , 27-H ) :   0.9553 B( 25-C , 28-C ) :   1.0794
B( 28-C , 29-H ) :   0.9728 B( 28-C , 30-H ) :   0.9773 B( 28-C , 31-H ) :   0.9740

Dispersion correction           -0.013542770
FINAL SINGLE POINT ENERGY     -1339.864306097440

DIPOLE MOMENT
-------------
                                X             Y             Z
Electronic contribution:    -15.46054      -2.05396     -24.70086
Nuclear contribution   :     15.92355       1.97980      25.17587
                        -----------------------------------------
Total Dipole Moment    :      0.46301      -0.07416       0.47501
                        -----------------------------------------
Magnitude (a.u.)       :      0.66747
Magnitude (Debye)      :      1.69657

Rotational constants in cm-1:     0.017778     0.008003     0.006109
Rotational constants in MHz :   532.981350   239.912844   183.156404

                             ****ORCA TERMINATED NORMALLY****
TOTAL RUN TIME: 0 days 0 hours 0 minutes 26 seconds 864 msec
