                         Program Version 4.2.1 -  RELEASE  -
|  1> ! wB97X-D3 SP def2-SVP
|  2> %pal
|  3> nprocs 16
|  4> end
|  5>
|  6> * xyz 0 1
|  7> S 	 -43.7456 	 53.7407 	 104.443
|  8> C 	 -43.0435 	 55.1624 	 103.747
|  9> C 	 -41.8014 	 55.4086 	 104.236
| 10> C 	 -41.3268 	 54.4132 	 105.119
| 11> C 	 -42.298 	 53.5025 	 105.452
| 12> H 	 -40.3971 	 54.4419 	 105.637
| 13> C 	 -40.9242 	 56.564 	 103.762
| 14> H 	 -41.543 	 57.4966 	 103.611
| 15> H 	 -40.5178 	 56.3864 	 102.701
| 16> C 	 -39.5733 	 56.9539 	 104.426
| 17> H 	 -38.8703 	 56.1444 	 104.379
| 18> H 	 -39.1568 	 57.7616 	 103.805
| 19> C 	 -39.7509 	 57.6921 	 105.745
| 20> H 	 -38.9003 	 58.3052 	 105.848
| 21> H 	 -40.7001 	 58.2129 	 105.684
| 22> H 	 -39.7868 	 56.9615 	 106.607
| 23> S 	 -42.9966 	 50.9091 	 105.458
| 24> C 	 -42.7232 	 49.9064 	 106.809
| 25> C 	 -41.8734 	 50.4949 	 107.69
| 26> C 	 -41.6793 	 51.9078 	 107.493
| 27> C 	 -42.2124 	 52.2618 	 106.209
| 28> H 	 -41.4634 	 49.9765 	 108.605
| 29> C 	 -41.031 	 52.7765 	 108.56
| 30> H 	 -41.5174 	 52.8529 	 109.503
| 31> H 	 -41.2096 	 53.8039 	 108.145
| 32> C 	 -39.607 	 52.4036 	 108.845
| 33> H 	 -39.0927 	 52.6828 	 107.926
| 34> H 	 -39.4861 	 51.345 	 109.034
| 35> C 	 -38.8798 	 53.1563 	 110.064
| 36> H 	 -37.9448 	 52.7091 	 110.343
| 37> H 	 -39.4197 	 53.2293 	 111.03
| 38> H 	 -38.5102 	 54.1707 	 109.872
| 39> H 	 -43.5056 	 55.7573 	 102.974
| 40> H 	 -43.1611 	 48.9048 	 106.89
| 41> *
| 42>
| 43>                          ****END OF INPUT****

CARTESIAN COORDINATES (ANGSTROEM)
---------------------------------
  S    -43.745600   53.740700  104.443000
  C    -43.043500   55.162400  103.747000
  C    -41.801400   55.408600  104.236000
  C    -41.326800   54.413200  105.119000
  C    -42.298000   53.502500  105.452000
  H    -40.397100   54.441900  105.637000
  C    -40.924200   56.564000  103.762000
  H    -41.543000   57.496600  103.611000
  H    -40.517800   56.386400  102.701000
  C    -39.573300   56.953900  104.426000
  H    -38.870300   56.144400  104.379000
  H    -39.156800   57.761600  103.805000
  C    -39.750900   57.692100  105.745000
  H    -38.900300   58.305200  105.848000
  H    -40.700100   58.212900  105.684000
  H    -39.786800   56.961500  106.607000
  S    -42.996600   50.909100  105.458000
  C    -42.723200   49.906400  106.809000
  C    -41.873400   50.494900  107.690000
  C    -41.679300   51.907800  107.493000
  C    -42.212400   52.261800  106.209000
  H    -41.463400   49.976500  108.605000
  C    -41.031000   52.776500  108.560000
  H    -41.517400   52.852900  109.503000
  H    -41.209600   53.803900  108.145000
  C    -39.607000   52.403600  108.845000
  H    -39.092700   52.682800  107.926000
  H    -39.486100   51.345000  109.034000
  C    -38.879800   53.156300  110.064000
  H    -37.944800   52.709100  110.343000
  H    -39.419700   53.229300  111.030000
  H    -38.510200   54.170700  109.872000
  H    -43.505600   55.757300  102.974000
  H    -43.161100   48.904800  106.890000

 Total Charge           Charge          ....    0
 Multiplicity           Mult            ....    1
 Number of Electrons    NEL             ....  134
 Basis Dimension        Dim             ....  322

ORBITAL ENERGIES
----------------

  NO   OCC          E(Eh)            E(eV)
   0   2.0000     -88.965209     -2420.8664
   1   2.0000     -88.964767     -2420.8544
   2   2.0000     -10.330292      -281.1015
   3   2.0000     -10.329987      -281.0932
   4   2.0000     -10.312561      -280.6191
   5   2.0000     -10.309186      -280.5272
   6   2.0000     -10.309140      -280.5259
   7   2.0000     -10.300379      -280.2876
   8   2.0000     -10.298512      -280.2368
   9   2.0000     -10.294848      -280.1370
  10   2.0000     -10.292969      -280.0859
  11   2.0000     -10.292079      -280.0617
  12   2.0000     -10.291764      -280.0531
  13   2.0000     -10.287711      -279.9428
  14   2.0000     -10.283443      -279.8267
  15   2.0000     -10.275809      -279.6190
  16   2.0000      -8.080749      -219.8884
  17   2.0000      -8.079961      -219.8669
  18   2.0000      -6.039115      -164.3327
  19   2.0000      -6.038450      -164.3146
  20   2.0000      -6.035069      -164.2226
  21   2.0000      -6.034477      -164.2065
  22   2.0000      -6.031565      -164.1272
  23   2.0000      -6.030703      -164.1038
  24   2.0000      -1.011506       -27.5245
  25   2.0000      -0.988621       -26.9018
  26   2.0000      -0.911589       -24.8056
  27   2.0000      -0.908675       -24.7263
  28   2.0000      -0.873454       -23.7679
  29   2.0000      -0.851525       -23.1712
  30   2.0000      -0.842576       -22.9277
  31   2.0000      -0.816121       -22.2078
  32   2.0000      -0.785307       -21.3693
  33   2.0000      -0.771873       -21.0037
  34   2.0000      -0.711326       -19.3562
  35   2.0000      -0.700246       -19.0547
  36   2.0000      -0.690035       -18.7768
  37   2.0000      -0.656245       -17.8573
  38   2.0000      -0.638679       -17.3793
  39   2.0000      -0.627047       -17.0628
  40   2.0000      -0.603794       -16.4301
  41   2.0000      -0.565359       -15.3842
  42   2.0000      -0.561708       -15.2849
  43   2.0000      -0.547262       -14.8918
  44   2.0000      -0.542803       -14.7704
  45   2.0000      -0.521599       -14.1934
  46   2.0000      -0.516186       -14.0461
  47   2.0000      -0.513197       -13.9648
  48   2.0000      -0.502266       -13.6674
  49   2.0000      -0.499024       -13.5791
  50   2.0000      -0.493511       -13.4291
  51   2.0000      -0.489722       -13.3260
  52   2.0000      -0.469622       -12.7791
  53   2.0000      -0.463926       -12.6241
  54   2.0000      -0.456320       -12.4171
  55   2.0000      -0.452485       -12.3127
  56   2.0000      -0.444794       -12.1035
  57   2.0000      -0.440098       -11.9757
  58   2.0000      -0.432561       -11.7706
  59   2.0000      -0.425866       -11.5884
  60   2.0000      -0.418731       -11.3943
  61   2.0000      -0.413665       -11.2564
  62   2.0000      -0.408532       -11.1167
  63   2.0000      -0.352456        -9.5908
  64   2.0000      -0.329965        -8.9788
  65   2.0000      -0.329338        -8.9617
  66   2.0000      -0.286679        -7.8009
  67   0.0000       0.024067         0.6549
  68   0.0000       0.077998         2.1224
  69   0.0000       0.106608         2.9009
  70   0.0000       0.118770         3.2319
  71   0.0000       0.122726         3.3396

MULLIKEN ATOMIC CHARGES
-----------------------
   0 S :    0.098891
   1 C :   -0.120784
   2 C :   -0.021232
   3 C :    0.036062
   4 C :   -0.140316
   5 H :    0.006140
   6 C :   -0.036804
   7 H :    0.034980
   8 H :    0.048476
   9 C :   -0.091152
  10 H :    0.032290
  11 H :    0.025953
  12 C :   -0.024012
  13 H :    0.029347
  14 H :    0.033721
  15 H :    0.033401
  16 S :    0.110025
  17 C :   -0.102699
  18 C :   -0.040099
  19 C :   -0.056565
  20 C :   -0.153035
  21 H :    0.037111
  22 C :    0.089130
  23 H :    0.020900
  24 H :    0.026166
  25 C :   -0.077389
  26 H :    0.032158
  27 H :    0.039206
  28 C :   -0.062618
  29 H :    0.021027
  30 H :    0.033997
  31 H :    0.026840
  32 H :    0.043274
  33 H :    0.067608
Sum of atomic charges:   -0.0000000

LOEWDIN ATOMIC CHARGES
----------------------
   0 S :    0.397706
   1 C :   -0.194971
   2 C :   -0.070650
   3 C :   -0.057551
   4 C :   -0.180206
   5 H :    0.028652
   6 C :   -0.047761
   7 H :    0.032707
   8 H :    0.042725
   9 C :   -0.047105
  10 H :    0.018991
  11 H :    0.031692
  12 C :   -0.061990
  13 H :    0.019201
  14 H :    0.028007
  15 H :    0.026606
  16 S :    0.431101
  17 C :   -0.204710
  18 C :   -0.078027
  19 C :   -0.054345
  20 C :   -0.203741
  21 H :    0.037273
  22 C :   -0.037467
  23 H :    0.026255
  24 H :    0.036688
  25 C :   -0.033909
  26 H :    0.028303
  27 H :    0.025025
  28 C :   -0.078641
  29 H :    0.023974
  30 H :    0.027101
  31 H :    0.025579
  32 H :    0.028852
  33 H :    0.034636

  Mayer bond orders larger than 0.100000
B(  0-S ,  1-C ) :   1.1345 B(  0-S ,  4-C ) :   1.1445 B(  1-C ,  2-C ) :   1.6161
B(  1-C , 32-H ) :   0.9723 B(  2-C ,  3-C ) :   1.2519 B(  2-C ,  6-C ) :   1.0034
B(  3-C ,  4-C ) :   1.5732 B(  3-C ,  5-H ) :   0.9897 B(  4-C , 20-C ) :   1.0476
B(  6-C ,  7-H ) :   0.9446 B(  6-C ,  8-H ) :   0.9404 B(  6-C ,  9-C ) :   1.0977
B(  9-C , 10-H ) :   0.9493 B(  9-C , 11-H ) :   0.9539 B(  9-C , 12-C ) :   1.0656
B( 12-C , 13-H ) :   0.9804 B( 12-C , 14-H ) :   0.9738 B( 12-C , 15-H ) :   0.9756
B( 16-S , 17-C ) :   1.1581 B( 16-S , 20-C ) :   1.1641 B( 17-C , 18-C ) :   1.6009
B( 17-C , 33-H ) :   0.9672 B( 18-C , 19-C ) :   1.2550 B( 18-C , 21-H ) :   0.9747
B( 19-C , 20-C ) :   1.5561 B( 19-C , 22-C ) :   1.0424 B( 22-C , 23-H ) :   0.9360
B( 22-C , 24-H ) :   0.9332 B( 22-C , 25-C ) :   1.0505 B( 25-C , 26-H ) :   0.9556
B( 25-C , 27-H ) :   0.9623 B( 25-C , 28-C ) :   1.0659 B( 28-C , 29-H ) :   0.9758
B( 28-C , 30-H ) :   0.9766 B( 28-C , 31-H ) :   0.9778

Dispersion correction           -0.013689880
FINAL SINGLE POINT ENERGY     -1339.863662307800

DIPOLE MOMENT
-------------
                                X             Y             Z
Electronic contribution:    -23.19252     -17.73814     -13.73163
Nuclear contribution   :     23.71024      18.01472      13.93084
                        -----------------------------------------
Total Dipole Moment    :      0.51772       0.27658       0.19920
                        -----------------------------------------
Magnitude (a.u.)       :      0.61985
Magnitude (Debye)      :      1.57554

Rotational constants in cm-1:     0.015416     0.010123     0.006412
Rotational constants in MHz :   462.166244   303.476127   192.240513

                             ****ORCA TERMINATED NORMALLY****
TOTAL RUN TIME: 0 days 0 hours 0 minutes 29 seconds 700 msec
