                         Program Version 4.2.1 -  RELEASE  -
|  1> ! wB97X-D3 SP def2-SVP
|  2> %pal
|  3> nprocs 16
|  4> end
|  5>
|  6> * xyz 0 1
|  7> S 	 6.38977 	 19.5714 	 36.0892
|  8> C 	 8.04358 	 19.0372 	 35.918
|  9> C 	 8.93002 	 19.9396 	 36.4424
| 10> C 	 8.33006 	 21.115 	 36.9891
| 11> C 	 6.94627 	 21.17 	 36.7149
| 12> H 	 8.90015 	 21.8623 	 37.4603
| 13> C 	 10.4297 	 19.641 	 36.4489
| 14> H 	 10.8368 	 20.5606 	 36.7885
| 15> H 	 10.7152 	 19.5568 	 35.4599
| 16> C 	 10.9451 	 18.5155 	 37.3676
| 17> H 	 10.5164 	 18.5656 	 38.3764
| 18> H 	 10.5609 	 17.6024 	 36.955
| 19> C 	 12.4149 	 18.3143 	 37.567
| 20> H 	 12.543 	 17.4953 	 38.2499
| 21> H 	 12.89 	 18.0122 	 36.6204
| 22> H 	 13.1088 	 19.1056 	 37.8042
| 23> S 	 4.3119 	 21.6627 	 37.4605
| 24> C 	 3.83325 	 23.3473 	 37.7015
| 25> C 	 4.92386 	 24.1912 	 37.5785
| 26> C 	 6.05263 	 23.5359 	 37.0205
| 27> C 	 5.90483 	 22.1687 	 37.0118
| 28> H 	 4.81639 	 25.3023 	 37.7778
| 29> C 	 7.25046 	 24.3907 	 36.6922
| 30> H 	 6.84944 	 25.2415 	 36.1646
| 31> H 	 7.71453 	 23.9198 	 35.8536
| 32> C 	 8.26325 	 24.7591 	 37.7284
| 33> H 	 8.1628 	 24.1544 	 38.6779
| 34> H 	 7.90965 	 25.6956 	 38.2225
| 35> C 	 9.75809 	 24.9003 	 37.3612
| 36> H 	 10.0054 	 25.6174 	 36.5413
| 37> H 	 10.3007 	 23.9645 	 37.1345
| 38> H 	 10.3209 	 25.374 	 38.1866
| 39> H 	 8.32804 	 18.053 	 35.528
| 40> H 	 2.86997 	 23.5525 	 38.0066
| 41> *
| 42>
| 43>                          ****END OF INPUT****

CARTESIAN COORDINATES (ANGSTROEM)
---------------------------------
  S      6.389770   19.571400   36.089200
  C      8.043580   19.037200   35.918000
  C      8.930020   19.939600   36.442400
  C      8.330060   21.115000   36.989100
  C      6.946270   21.170000   36.714900
  H      8.900150   21.862300   37.460300
  C     10.429700   19.641000   36.448900
  H     10.836800   20.560600   36.788500
  H     10.715200   19.556800   35.459900
  C     10.945100   18.515500   37.367600
  H     10.516400   18.565600   38.376400
  H     10.560900   17.602400   36.955000
  C     12.414900   18.314300   37.567000
  H     12.543000   17.495300   38.249900
  H     12.890000   18.012200   36.620400
  H     13.108800   19.105600   37.804200
  S      4.311900   21.662700   37.460500
  C      3.833250   23.347300   37.701500
  C      4.923860   24.191200   37.578500
  C      6.052630   23.535900   37.020500
  C      5.904830   22.168700   37.011800
  H      4.816390   25.302300   37.777800
  C      7.250460   24.390700   36.692200
  H      6.849440   25.241500   36.164600
  H      7.714530   23.919800   35.853600
  C      8.263250   24.759100   37.728400
  H      8.162800   24.154400   38.677900
  H      7.909650   25.695600   38.222500
  C      9.758090   24.900300   37.361200
  H     10.005400   25.617400   36.541300
  H     10.300700   23.964500   37.134500
  H     10.320900   25.374000   38.186600
  H      8.328040   18.053000   35.528000
  H      2.869970   23.552500   38.006600

 Total Charge           Charge          ....    0
 Multiplicity           Mult            ....    1
 Number of Electrons    NEL             ....  134
 Basis Dimension        Dim             ....  322

ORBITAL ENERGIES
----------------

  NO   OCC          E(Eh)            E(eV)
   0   2.0000     -88.966445     -2420.9000
   1   2.0000     -88.963748     -2420.8266
   2   2.0000     -10.338440      -281.3232
   3   2.0000     -10.326838      -281.0075
   4   2.0000     -10.315027      -280.6862
   5   2.0000     -10.311097      -280.5792
   6   2.0000     -10.299377      -280.2603
   7   2.0000     -10.298895      -280.2472
   8   2.0000     -10.298112      -280.2259
   9   2.0000     -10.297199      -280.2010
  10   2.0000     -10.296103      -280.1712
  11   2.0000     -10.290270      -280.0125
  12   2.0000     -10.285277      -279.8766
  13   2.0000     -10.284758      -279.8625
  14   2.0000     -10.283121      -279.8179
  15   2.0000     -10.274926      -279.5950
  16   2.0000      -8.081458      -219.9077
  17   2.0000      -8.077887      -219.8105
  18   2.0000      -6.039926      -164.3547
  19   2.0000      -6.036439      -164.2599
  20   2.0000      -6.036031      -164.2488
  21   2.0000      -6.032552      -164.1541
  22   2.0000      -6.032150      -164.1431
  23   2.0000      -6.028581      -164.0460
  24   2.0000      -1.005994       -27.3745
  25   2.0000      -0.981609       -26.7109
  26   2.0000      -0.911901       -24.8141
  27   2.0000      -0.910020       -24.7629
  28   2.0000      -0.868461       -23.6320
  29   2.0000      -0.853683       -23.2299
  30   2.0000      -0.848093       -23.0778
  31   2.0000      -0.817333       -22.2408
  32   2.0000      -0.787910       -21.4401
  33   2.0000      -0.773984       -21.0612
  34   2.0000      -0.709771       -19.3138
  35   2.0000      -0.706946       -19.2370
  36   2.0000      -0.699672       -19.0390
  37   2.0000      -0.666222       -18.1288
  38   2.0000      -0.636166       -17.3110
  39   2.0000      -0.621860       -16.9217
  40   2.0000      -0.602569       -16.3967
  41   2.0000      -0.565143       -15.3783
  42   2.0000      -0.557771       -15.1777
  43   2.0000      -0.552726       -15.0404
  44   2.0000      -0.536502       -14.5990
  45   2.0000      -0.528527       -14.3820
  46   2.0000      -0.518382       -14.1059
  47   2.0000      -0.511667       -13.9232
  48   2.0000      -0.504702       -13.7336
  49   2.0000      -0.503337       -13.6965
  50   2.0000      -0.491782       -13.3821
  51   2.0000      -0.487400       -13.2628
  52   2.0000      -0.473403       -12.8820
  53   2.0000      -0.470699       -12.8084
  54   2.0000      -0.458617       -12.4796
  55   2.0000      -0.451255       -12.2793
  56   2.0000      -0.444585       -12.0978
  57   2.0000      -0.439902       -11.9704
  58   2.0000      -0.434683       -11.8283
  59   2.0000      -0.427069       -11.6211
  60   2.0000      -0.415202       -11.2982
  61   2.0000      -0.410495       -11.1701
  62   2.0000      -0.400476       -10.8975
  63   2.0000      -0.353903        -9.6302
  64   2.0000      -0.335895        -9.1402
  65   2.0000      -0.329526        -8.9669
  66   2.0000      -0.284113        -7.7311
  67   0.0000       0.020447         0.5564
  68   0.0000       0.079027         2.1504
  69   0.0000       0.093700         2.5497
  70   0.0000       0.125923         3.4265
  71   0.0000       0.129476         3.5232

MULLIKEN ATOMIC CHARGES
-----------------------
   0 S :    0.084107
   1 C :   -0.119290
   2 C :   -0.131165
   3 C :    0.065172
   4 C :   -0.140388
   5 H :   -0.018913
   6 C :    0.141972
   7 H :   -0.012217
   8 H :    0.017464
   9 C :   -0.055334
  10 H :    0.031486
  11 H :    0.013279
  12 C :   -0.036040
  13 H :    0.032435
  14 H :    0.011175
  15 H :    0.026426
  16 S :    0.101101
  17 C :   -0.073632
  18 C :   -0.038291
  19 C :   -0.095189
  20 C :   -0.107546
  21 H :    0.045849
  22 C :    0.119492
  23 H :    0.016781
  24 H :    0.009819
  25 C :   -0.073791
  26 H :    0.039371
  27 H :    0.020043
  28 C :   -0.069115
  29 H :    0.036933
  30 H :    0.039629
  31 H :    0.033812
  32 H :    0.053096
  33 H :    0.031469
Sum of atomic charges:   -0.0000000

LOEWDIN ATOMIC CHARGES
----------------------
   0 S :    0.378118
   1 C :   -0.196713
   2 C :   -0.063445
   3 C :   -0.054489
   4 C :   -0.159222
   5 H :    0.023703
   6 C :   -0.021798
   7 H :    0.021293
   8 H :    0.023361
   9 C :   -0.038894
  10 H :    0.029060
  11 H :    0.021300
  12 C :   -0.069516
  13 H :    0.028918
  14 H :    0.024329
  15 H :    0.023007
  16 S :    0.402800
  17 C :   -0.163675
  18 C :   -0.069389
  19 C :   -0.060865
  20 C :   -0.204136
  21 H :    0.043960
  22 C :   -0.039930
  23 H :    0.033574
  24 H :    0.030017
  25 C :   -0.057437
  26 H :    0.034244
  27 H :    0.030036
  28 C :   -0.075209
  29 H :    0.029816
  30 H :    0.023823
  31 H :    0.032717
  32 H :    0.030625
  33 H :    0.010017

  Mayer bond orders larger than 0.100000
B(  0-S ,  1-C ) :   1.1323 B(  0-S ,  4-C ) :   1.1488 B(  1-C ,  2-C ) :   1.6154
B(  1-C , 32-H ) :   0.9683 B(  2-C ,  3-C ) :   1.2612 B(  2-C ,  6-C ) :   1.0108
B(  3-C ,  4-C ) :   1.5364 B(  3-C ,  5-H ) :   0.9983 B(  4-C , 20-C ) :   1.0581
B(  6-C ,  7-H ) :   0.9311 B(  6-C ,  8-H ) :   0.9353 B(  6-C ,  9-C ) :   1.0619
B(  9-C , 10-H ) :   0.9587 B(  9-C , 11-H ) :   0.9489 B(  9-C , 12-C ) :   1.0919
B( 12-C , 13-H ) :   0.9722 B( 12-C , 14-H ) :   0.9684 B( 12-C , 15-H ) :   0.9758
B( 16-S , 17-C ) :   1.1483 B( 16-S , 20-C ) :   1.1411 B( 17-C , 18-C ) :   1.5978
B( 17-C , 33-H ) :   0.9825 B( 18-C , 19-C ) :   1.2420 B( 18-C , 21-H ) :   0.9802
B( 19-C , 20-C ) :   1.5940 B( 19-C , 22-C ) :   1.0553 B( 22-C , 23-H ) :   0.9199
B( 22-C , 24-H ) :   0.9277 B( 22-C , 25-C ) :   1.0366 B( 25-C , 26-H ) :   0.9583
B( 25-C , 27-H ) :   0.9448 B( 25-C , 28-C ) :   1.0812 B( 28-C , 29-H ) :   0.9742
B( 28-C , 30-H ) :   0.9751 B( 28-C , 31-H ) :   0.9703

Dispersion correction           -0.014143819
FINAL SINGLE POINT ENERGY     -1339.865803344166

DIPOLE MOMENT
-------------
                                X             Y             Z
Electronic contribution:    -31.27916      -5.99778      -3.70905
Nuclear contribution   :     31.87192       6.38232       3.86036
                        -----------------------------------------
Total Dipole Moment    :      0.59276       0.38454       0.15131
                        -----------------------------------------
Magnitude (a.u.)       :      0.72259
Magnitude (Debye)      :      1.83667

Rotational constants in cm-1:     0.019035     0.008435     0.006167
Rotational constants in MHz :   570.642308   252.871847   184.886004

                             ****ORCA TERMINATED NORMALLY****
TOTAL RUN TIME: 0 days 0 hours 0 minutes 34 seconds 441 msec
