                         Program Version 4.2.1 -  RELEASE  -
|  1> ! wB97X-D3 SP def2-SVP
|  2> %pal
|  3> nprocs 16
|  4> end
|  5>
|  6> * xyz 0 1
|  7> S 	 44.0262 	 10.4679 	 89.9164
|  8> C 	 44.1581 	 9.07701 	 90.8762
|  9> C 	 43.9642 	 9.4036 	 92.2144
| 10> C 	 44.1002 	 10.8222 	 92.4166
| 11> C 	 44.3032 	 11.5641 	 91.2547
| 12> H 	 44.1164 	 11.3087 	 93.3968
| 13> C 	 43.7929 	 8.39612 	 93.3879
| 14> H 	 42.9366 	 7.88318 	 93.1219
| 15> H 	 43.6453 	 9.05974 	 94.1862
| 16> C 	 44.9688 	 7.49662 	 93.603
| 17> H 	 44.6945 	 6.70385 	 94.322
| 18> H 	 45.2149 	 6.96903 	 92.695
| 19> C 	 46.0932 	 8.38092 	 94.0388
| 20> H 	 45.9369 	 8.90978 	 94.9698
| 21> H 	 46.9251 	 7.71225 	 94.22
| 22> H 	 46.4619 	 9.11509 	 93.3617
| 23> S 	 46.1996 	 13.4211 	 91.3393
| 24> C 	 45.773 	 15.1578 	 91.0547
| 25> C 	 44.4195 	 15.3313 	 90.9473
| 26> C 	 43.699 	 14.0862 	 90.8953
| 27> C 	 44.5517 	 12.9914 	 91.177
| 28> H 	 44.011 	 16.335 	 90.8759
| 29> C 	 42.1914 	 14.0084 	 90.7451
| 30> H 	 41.8674 	 13.1062 	 91.2814
| 31> H 	 42.0464 	 13.8497 	 89.7244
| 32> C 	 41.3346 	 15.0973 	 91.3114
| 33> H 	 41.6343 	 16.0453 	 90.8554
| 34> H 	 41.4295 	 15.1565 	 92.3978
| 35> C 	 39.7941 	 14.8079 	 91.172
| 36> H 	 39.4097 	 15.1097 	 90.1765
| 37> H 	 39.23 	 15.3766 	 91.9273
| 38> H 	 39.5357 	 13.8031 	 91.2227
| 39> H 	 44.1389 	 8.05748 	 90.4978
| 40> H 	 46.4756 	 15.993 	 91.1599
| 41> *
| 42>
| 43>                          ****END OF INPUT****

CARTESIAN COORDINATES (ANGSTROEM)
---------------------------------
  S     44.026200   10.467900   89.916400
  C     44.158100    9.077010   90.876200
  C     43.964200    9.403600   92.214400
  C     44.100200   10.822200   92.416600
  C     44.303200   11.564100   91.254700
  H     44.116400   11.308700   93.396800
  C     43.792900    8.396120   93.387900
  H     42.936600    7.883180   93.121900
  H     43.645300    9.059740   94.186200
  C     44.968800    7.496620   93.603000
  H     44.694500    6.703850   94.322000
  H     45.214900    6.969030   92.695000
  C     46.093200    8.380920   94.038800
  H     45.936900    8.909780   94.969800
  H     46.925100    7.712250   94.220000
  H     46.461900    9.115090   93.361700
  S     46.199600   13.421100   91.339300
  C     45.773000   15.157800   91.054700
  C     44.419500   15.331300   90.947300
  C     43.699000   14.086200   90.895300
  C     44.551700   12.991400   91.177000
  H     44.011000   16.335000   90.875900
  C     42.191400   14.008400   90.745100
  H     41.867400   13.106200   91.281400
  H     42.046400   13.849700   89.724400
  C     41.334600   15.097300   91.311400
  H     41.634300   16.045300   90.855400
  H     41.429500   15.156500   92.397800
  C     39.794100   14.807900   91.172000
  H     39.409700   15.109700   90.176500
  H     39.230000   15.376600   91.927300
  H     39.535700   13.803100   91.222700
  H     44.138900    8.057480   90.497800
  H     46.475600   15.993000   91.159900

 Total Charge           Charge          ....    0
 Multiplicity           Mult            ....    1
 Number of Electrons    NEL             ....  134
 Basis Dimension        Dim             ....  322

ORBITAL ENERGIES
----------------

  NO   OCC          E(Eh)            E(eV)
   0   2.0000     -88.965245     -2420.8674
   1   2.0000     -88.962031     -2420.7799
   2   2.0000     -10.325245      -280.9642
   3   2.0000     -10.323849      -280.9262
   4   2.0000     -10.318924      -280.7922
   5   2.0000     -10.309905      -280.5468
   6   2.0000     -10.305734      -280.4333
   7   2.0000     -10.298487      -280.2361
   8   2.0000     -10.294978      -280.1406
   9   2.0000     -10.294824      -280.1364
  10   2.0000     -10.288375      -279.9609
  11   2.0000     -10.283130      -279.8182
  12   2.0000     -10.282683      -279.8060
  13   2.0000     -10.278496      -279.6921
  14   2.0000     -10.277975      -279.6779
  15   2.0000     -10.265810      -279.3469
  16   2.0000      -8.079716      -219.8603
  17   2.0000      -8.077632      -219.8035
  18   2.0000      -6.038276      -164.3099
  19   2.0000      -6.036053      -164.2493
  20   2.0000      -6.034258      -164.2005
  21   2.0000      -6.032059      -164.1407
  22   2.0000      -6.030428      -164.0963
  23   2.0000      -6.028380      -164.0406
  24   2.0000      -1.006285       -27.3824
  25   2.0000      -0.983171       -26.7534
  26   2.0000      -0.920977       -25.0611
  27   2.0000      -0.910636       -24.7797
  28   2.0000      -0.871742       -23.7213
  29   2.0000      -0.845354       -23.0032
  30   2.0000      -0.843210       -22.9449
  31   2.0000      -0.814701       -22.1691
  32   2.0000      -0.783803       -21.3284
  33   2.0000      -0.769304       -20.9338
  34   2.0000      -0.708707       -19.2849
  35   2.0000      -0.705458       -19.1965
  36   2.0000      -0.694884       -18.9088
  37   2.0000      -0.653432       -17.7808
  38   2.0000      -0.641368       -17.4525
  39   2.0000      -0.609135       -16.5754
  40   2.0000      -0.592892       -16.1334
  41   2.0000      -0.575570       -15.6620
  42   2.0000      -0.572729       -15.5848
  43   2.0000      -0.562725       -15.3125
  44   2.0000      -0.541852       -14.7445
  45   2.0000      -0.528669       -14.3858
  46   2.0000      -0.516596       -14.0573
  47   2.0000      -0.513395       -13.9702
  48   2.0000      -0.505864       -13.7653
  49   2.0000      -0.493722       -13.4349
  50   2.0000      -0.487696       -13.2709
  51   2.0000      -0.476480       -12.9657
  52   2.0000      -0.472050       -12.8451
  53   2.0000      -0.462490       -12.5850
  54   2.0000      -0.461939       -12.5700
  55   2.0000      -0.452559       -12.3148
  56   2.0000      -0.443753       -12.0751
  57   2.0000      -0.436307       -11.8725
  58   2.0000      -0.433474       -11.7954
  59   2.0000      -0.422599       -11.4995
  60   2.0000      -0.421834       -11.4787
  61   2.0000      -0.413851       -11.2615
  62   2.0000      -0.408675       -11.1206
  63   2.0000      -0.339249        -9.2314
  64   2.0000      -0.330014        -8.9801
  65   2.0000      -0.314275        -8.5519
  66   2.0000      -0.302238        -8.2243
  67   0.0000       0.044474         1.2102
  68   0.0000       0.049915         1.3583
  69   0.0000       0.109772         2.9870
  70   0.0000       0.118023         3.2116
  71   0.0000       0.135085         3.6758

MULLIKEN ATOMIC CHARGES
-----------------------
   0 S :    0.128752
   1 C :   -0.126774
   2 C :   -0.154714
   3 C :    0.033396
   4 C :   -0.173853
   5 H :    0.017223
   6 C :    0.155990
   7 H :    0.011458
   8 H :   -0.002362
   9 C :   -0.043515
  10 H :    0.034083
  11 H :    0.021186
  12 C :   -0.045628
  13 H :    0.020924
  14 H :    0.019061
  15 H :    0.044081
  16 S :    0.115203
  17 C :   -0.098150
  18 C :   -0.045126
  19 C :   -0.024493
  20 C :   -0.198819
  21 H :    0.025099
  22 C :    0.106641
  23 H :    0.026580
  24 H :    0.023742
  25 C :   -0.096824
  26 H :    0.033381
  27 H :    0.034123
  28 C :   -0.036078
  29 H :    0.026802
  30 H :    0.038232
  31 H :    0.017674
  32 H :    0.052851
  33 H :    0.059856
Sum of atomic charges:    0.0000000

LOEWDIN ATOMIC CHARGES
----------------------
   0 S :    0.427533
   1 C :   -0.214992
   2 C :   -0.064142
   3 C :   -0.064158
   4 C :   -0.213250
   5 H :    0.031885
   6 C :   -0.016838
   7 H :    0.019448
   8 H :    0.021087
   9 C :   -0.036638
  10 H :    0.029474
  11 H :    0.022501
  12 C :   -0.062271
  13 H :    0.023770
  14 H :    0.024774
  15 H :    0.026908
  16 S :    0.409599
  17 C :   -0.173461
  18 C :   -0.070445
  19 C :   -0.049275
  20 C :   -0.216945
  21 H :    0.034346
  22 C :   -0.034655
  23 H :    0.035455
  24 H :    0.027010
  25 C :   -0.038212
  26 H :    0.020646
  27 H :    0.027838
  28 C :   -0.059106
  29 H :    0.026591
  30 H :    0.029593
  31 H :    0.015406
  32 H :    0.029523
  33 H :    0.031004

  Mayer bond orders larger than 0.100000
B(  0-S ,  1-C ) :   1.1715 B(  0-S ,  4-C ) :   1.1482 B(  1-C ,  2-C ) :   1.5714
B(  1-C ,  4-C ) :   0.1013 B(  1-C , 32-H ) :   0.9703 B(  2-C ,  3-C ) :   1.2643
B(  2-C ,  6-C ) :   0.9938 B(  3-C ,  4-C ) :   1.5586 B(  3-C ,  5-H ) :   0.9901
B(  4-C , 20-C ) :   1.0274 B(  6-C ,  7-H ) :   0.9265 B(  6-C ,  8-H ) :   0.9417
B(  6-C ,  9-C ) :   1.0925 B(  9-C , 10-H ) :   0.9518 B(  9-C , 11-H ) :   0.9509
B(  9-C , 12-C ) :   1.0749 B( 12-C , 13-H ) :   0.9745 B( 12-C , 14-H ) :   0.9690
B( 12-C , 15-H ) :   0.9739 B( 16-S , 17-C ) :   1.1364 B( 16-S , 20-C ) :   1.1663
B( 17-C , 18-C ) :   1.6361 B( 17-C , 20-C ) :   0.1015 B( 17-C , 33-H ) :   0.9620
B( 18-C , 19-C ) :   1.2267 B( 18-C , 21-H ) :   0.9850 B( 19-C , 20-C ) :   1.5947
B( 19-C , 22-C ) :   1.0282 B( 22-C , 23-H ) :   0.9320 B( 22-C , 24-H ) :   0.9199
B( 22-C , 25-C ) :   1.0825 B( 25-C , 26-H ) :   0.9496 B( 25-C , 27-H ) :   0.9618
B( 25-C , 28-C ) :   1.0737 B( 28-C , 29-H ) :   0.9753 B( 28-C , 30-H ) :   0.9794
B( 28-C , 31-H ) :   0.9759

Dispersion correction           -0.014256619
FINAL SINGLE POINT ENERGY     -1339.863485254980

DIPOLE MOMENT
-------------
                                X             Y             Z
Electronic contribution:     12.86728       3.40658     -11.79682
Nuclear contribution   :    -13.25222      -3.43684      12.16104
                        -----------------------------------------
Total Dipole Moment    :     -0.38494      -0.03026       0.36422
                        -----------------------------------------
Magnitude (a.u.)       :      0.53080
Magnitude (Debye)      :      1.34920

Rotational constants in cm-1:     0.019908     0.007863     0.006670
Rotational constants in MHz :   596.825322   235.741594   199.947280

                             ****ORCA TERMINATED NORMALLY****
TOTAL RUN TIME: 0 days 0 hours 0 minutes 29 seconds 933 msec
