                         Program Version 4.2.1 -  RELEASE  -
|  1> ! wB97X-D3 SP def2-SVP
|  2> %pal
|  3> nprocs 16
|  4> end
|  5>
|  6> * xyz 0 1
|  7> S 	 -34.1634 	 42.7871 	 96.9047
|  8> C 	 -32.4242 	 42.5491 	 96.722
|  9> C 	 -31.9083 	 41.4378 	 97.3404
| 10> C 	 -32.9096 	 40.665 	 98.0276
| 11> C 	 -34.1595 	 41.27 	 97.8865
| 12> H 	 -32.6405 	 39.786 	 98.6359
| 13> C 	 -30.4304 	 40.9246 	 97.3313
| 14> H 	 -30.129 	 40.8197 	 98.381
| 15> H 	 -29.7963 	 41.6597 	 96.8643
| 16> C 	 -30.358 	 39.6777 	 96.466
| 17> H 	 -31.2244 	 39.0576 	 96.7897
| 18> H 	 -30.5594 	 39.8675 	 95.368
| 19> C 	 -29.1344 	 38.8861 	 96.6385
| 20> H 	 -28.8636 	 38.7836 	 97.6737
| 21> H 	 -29.1517 	 37.8118 	 96.3057
| 22> H 	 -28.2388 	 39.3023 	 96.0496
| 23> S 	 -35.9292 	 42.3463 	 99.8305
| 24> C 	 -37.3405 	 41.3782 	 100.386
| 25> C 	 -37.2599 	 40.1192 	 99.8008
| 26> C 	 -36.2475 	 39.9179 	 98.8122
| 27> C 	 -35.3826 	 41.0501 	 98.6611
| 28> H 	 -38.01 	 39.4447 	 99.9697
| 29> C 	 -36.0672 	 38.5717 	 98.2466
| 30> H 	 -35.3786 	 38.6487 	 97.3745
| 31> H 	 -37.0313 	 38.2975 	 97.8651
| 32> C 	 -35.4415 	 37.5183 	 99.2218
| 33> H 	 -35.7187 	 37.7547 	 100.242
| 34> H 	 -34.3209 	 37.5552 	 99.1609
| 35> C 	 -36.0659 	 36.1608 	 98.936
| 36> H 	 -36.3286 	 35.9767 	 97.8687
| 37> H 	 -37.1045 	 36.1043 	 99.4476
| 38> H 	 -35.5324 	 35.2912 	 99.3284
| 39> H 	 -31.823 	 43.261 	 96.19
| 40> H 	 -38.0441 	 41.7917 	 101.13
| 41> *
| 42>
| 43>                          ****END OF INPUT****

CARTESIAN COORDINATES (ANGSTROEM)
---------------------------------
  S    -34.163400   42.787100   96.904700
  C    -32.424200   42.549100   96.722000
  C    -31.908300   41.437800   97.340400
  C    -32.909600   40.665000   98.027600
  C    -34.159500   41.270000   97.886500
  H    -32.640500   39.786000   98.635900
  C    -30.430400   40.924600   97.331300
  H    -30.129000   40.819700   98.381000
  H    -29.796300   41.659700   96.864300
  C    -30.358000   39.677700   96.466000
  H    -31.224400   39.057600   96.789700
  H    -30.559400   39.867500   95.368000
  C    -29.134400   38.886100   96.638500
  H    -28.863600   38.783600   97.673700
  H    -29.151700   37.811800   96.305700
  H    -28.238800   39.302300   96.049600
  S    -35.929200   42.346300   99.830500
  C    -37.340500   41.378200  100.386000
  C    -37.259900   40.119200   99.800800
  C    -36.247500   39.917900   98.812200
  C    -35.382600   41.050100   98.661100
  H    -38.010000   39.444700   99.969700
  C    -36.067200   38.571700   98.246600
  H    -35.378600   38.648700   97.374500
  H    -37.031300   38.297500   97.865100
  C    -35.441500   37.518300   99.221800
  H    -35.718700   37.754700  100.242000
  H    -34.320900   37.555200   99.160900
  C    -36.065900   36.160800   98.936000
  H    -36.328600   35.976700   97.868700
  H    -37.104500   36.104300   99.447600
  H    -35.532400   35.291200   99.328400
  H    -31.823000   43.261000   96.190000
  H    -38.044100   41.791700  101.130000

 Total Charge           Charge          ....    0
 Multiplicity           Mult            ....    1
 Number of Electrons    NEL             ....  134
 Basis Dimension        Dim             ....  322

ORBITAL ENERGIES
----------------

  NO   OCC          E(Eh)            E(eV)
   0   2.0000     -88.968963     -2420.9686
   1   2.0000     -88.960353     -2420.7343
   2   2.0000     -10.337782      -281.3054
   3   2.0000     -10.333304      -281.1835
   4   2.0000     -10.325587      -280.9735
   5   2.0000     -10.314751      -280.6786
   6   2.0000     -10.305679      -280.4318
   7   2.0000     -10.303785      -280.3803
   8   2.0000     -10.302992      -280.3587
   9   2.0000     -10.297732      -280.2155
  10   2.0000     -10.293599      -280.1031
  11   2.0000     -10.290255      -280.0121
  12   2.0000     -10.289226      -279.9841
  13   2.0000     -10.288451      -279.9630
  14   2.0000     -10.287187      -279.9286
  15   2.0000     -10.282461      -279.8000
  16   2.0000      -8.082762      -219.9431
  17   2.0000      -8.073280      -219.6851
  18   2.0000      -6.041207      -164.3896
  19   2.0000      -6.037668      -164.2933
  20   2.0000      -6.033341      -164.1755
  21   2.0000      -6.031948      -164.1376
  22   2.0000      -6.027986      -164.0298
  23   2.0000      -6.024018      -163.9219
  24   2.0000      -0.994330       -27.0571
  25   2.0000      -0.971144       -26.4262
  26   2.0000      -0.916607       -24.9421
  27   2.0000      -0.907009       -24.6810
  28   2.0000      -0.864872       -23.5344
  29   2.0000      -0.850528       -23.1440
  30   2.0000      -0.844801       -22.9882
  31   2.0000      -0.810506       -22.0550
  32   2.0000      -0.780382       -21.2353
  33   2.0000      -0.763297       -20.7704
  34   2.0000      -0.706209       -19.2169
  35   2.0000      -0.696556       -18.9543
  36   2.0000      -0.691965       -18.8293
  37   2.0000      -0.660957       -17.9856
  38   2.0000      -0.640180       -17.4202
  39   2.0000      -0.624824       -17.0023
  40   2.0000      -0.595818       -16.2130
  41   2.0000      -0.567729       -15.4487
  42   2.0000      -0.562514       -15.3068
  43   2.0000      -0.552170       -15.0253
  44   2.0000      -0.525140       -14.2898
  45   2.0000      -0.524671       -14.2770
  46   2.0000      -0.522719       -14.2239
  47   2.0000      -0.516445       -14.0532
  48   2.0000      -0.504813       -13.7367
  49   2.0000      -0.500864       -13.6292
  50   2.0000      -0.486782       -13.2460
  51   2.0000      -0.474488       -12.9115
  52   2.0000      -0.464389       -12.6367
  53   2.0000      -0.460932       -12.5426
  54   2.0000      -0.456173       -12.4131
  55   2.0000      -0.453456       -12.3392
  56   2.0000      -0.441977       -12.0268
  57   2.0000      -0.437386       -11.9019
  58   2.0000      -0.434678       -11.8282
  59   2.0000      -0.425084       -11.5671
  60   2.0000      -0.414623       -11.2825
  61   2.0000      -0.412111       -11.2141
  62   2.0000      -0.407563       -11.0904
  63   2.0000      -0.344190        -9.3659
  64   2.0000      -0.329217        -8.9584
  65   2.0000      -0.323634        -8.8065
  66   2.0000      -0.293309        -7.9813
  67   0.0000       0.026177         0.7123
  68   0.0000       0.059607         1.6220
  69   0.0000       0.102094         2.7781
  70   0.0000       0.116378         3.1668
  71   0.0000       0.123992         3.3740

MULLIKEN ATOMIC CHARGES
-----------------------
   0 S :    0.107914
   1 C :   -0.112947
   2 C :   -0.108092
   3 C :    0.038724
   4 C :   -0.165336
   5 H :    0.035850
   6 C :    0.085012
   7 H :    0.041526
   8 H :    0.015664
   9 C :   -0.093812
  10 H :    0.023533
  11 H :    0.045496
  12 C :   -0.053730
  13 H :    0.019968
  14 H :    0.037240
  15 H :    0.038724
  16 S :    0.075918
  17 C :   -0.111044
  18 C :    0.005310
  19 C :   -0.040766
  20 C :   -0.148056
  21 H :   -0.011958
  22 C :    0.054349
  23 H :    0.034073
  24 H :    0.023651
  25 C :   -0.046563
  26 H :    0.034647
  27 H :    0.042181
  28 C :   -0.099806
  29 H :    0.041290
  30 H :    0.035976
  31 H :    0.038481
  32 H :    0.037310
  33 H :    0.079270
Sum of atomic charges:    0.0000000

LOEWDIN ATOMIC CHARGES
----------------------
   0 S :    0.382469
   1 C :   -0.185926
   2 C :   -0.061871
   3 C :   -0.051132
   4 C :   -0.174225
   5 H :    0.039789
   6 C :   -0.022487
   7 H :    0.034066
   8 H :    0.026143
   9 C :   -0.054869
  10 H :    0.025078
  11 H :    0.036699
  12 C :   -0.078658
  13 H :    0.020216
  14 H :    0.032282
  15 H :    0.031934
  16 S :    0.350247
  17 C :   -0.167519
  18 C :   -0.065790
  19 C :   -0.056217
  20 C :   -0.186875
  21 H :    0.014733
  22 C :   -0.033695
  23 H :    0.036999
  24 H :    0.028441
  25 C :   -0.037713
  26 H :    0.023997
  27 H :    0.028235
  28 C :   -0.077182
  29 H :    0.025913
  30 H :    0.033820
  31 H :    0.023994
  32 H :    0.021130
  33 H :    0.037977

  Mayer bond orders larger than 0.100000
B(  0-S ,  1-C ) :   1.1233 B(  0-S ,  4-C ) :   1.1393 B(  1-C ,  2-C ) :   1.6674
B(  1-C , 32-H ) :   0.9641 B(  2-C ,  3-C ) :   1.2134 B(  2-C ,  6-C ) :   1.0164
B(  3-C ,  4-C ) :   1.5907 B(  3-C ,  5-H ) :   0.9819 B(  4-C , 20-C ) :   1.0384
B(  6-C ,  7-H ) :   0.9435 B(  6-C ,  8-H ) :   0.9397 B(  6-C ,  9-C ) :   1.0569
B(  9-C , 10-H ) :   0.9562 B(  9-C , 11-H ) :   0.9495 B(  9-C , 12-C ) :   1.0903
B( 12-C , 13-H ) :   0.9710 B( 12-C , 14-H ) :   0.9705 B( 12-C , 15-H ) :   0.9699
B( 16-S , 17-C ) :   1.1430 B( 16-S , 20-C ) :   1.1247 B( 17-C , 18-C ) :   1.5904
B( 17-C , 20-C ) :   0.1039 B( 17-C , 33-H ) :   0.9674 B( 18-C , 19-C ) :   1.2423
B( 18-C , 21-H ) :   0.9977 B( 19-C , 20-C ) :   1.5676 B( 19-C , 22-C ) :   1.0747
B( 22-C , 23-H ) :   0.9244 B( 22-C , 24-H ) :   0.9367 B( 22-C , 25-C ) :   1.0362
B( 25-C , 26-H ) :   0.9671 B( 25-C , 27-H ) :   0.9558 B( 25-C , 28-C ) :   1.0608
B( 28-C , 29-H ) :   0.9777 B( 28-C , 30-H ) :   0.9767 B( 28-C , 31-H ) :   0.9735

Dispersion correction           -0.013855665
FINAL SINGLE POINT ENERGY     -1339.866798675048

DIPOLE MOMENT
-------------
                                X             Y             Z
Electronic contribution:    -14.08798      27.05479       3.12296
Nuclear contribution   :     14.40251     -27.66312      -3.04334
                        -----------------------------------------
Total Dipole Moment    :      0.31453      -0.60833       0.07962
                        -----------------------------------------
Magnitude (a.u.)       :      0.68944
Magnitude (Debye)      :      1.75243

Rotational constants in cm-1:     0.016671     0.008878     0.006284
Rotational constants in MHz :   499.770443   266.150346   188.393769

                             ****ORCA TERMINATED NORMALLY****
TOTAL RUN TIME: 0 days 0 hours 0 minutes 29 seconds 852 msec
