                         Program Version 4.2.1 -  RELEASE  -
|  1> ! wB97X-D3 SP def2-SVP
|  2> %pal
|  3> nprocs 16
|  4> end
|  5>
|  6> * xyz 0 1
|  7> S 	 33.8948 	 15.9777 	 63.5049
|  8> C 	 33.7684 	 16.7525 	 65.0274
|  9> C 	 34.9491 	 16.8321 	 65.726
| 10> C 	 36.0276 	 16.2344 	 64.9471
| 11> C 	 35.5976 	 15.6476 	 63.6952
| 12> H 	 37.0997 	 16.2059 	 65.3074
| 13> C 	 35.153 	 17.3189 	 67.1468
| 14> H 	 36.2263 	 17.5024 	 67.4125
| 15> H 	 34.8219 	 16.4206 	 67.7333
| 16> C 	 34.3218 	 18.5803 	 67.4124
| 17> H 	 34.5708 	 19.2445 	 66.5833
| 18> H 	 33.2293 	 18.2932 	 67.3455
| 19> C 	 34.6111 	 19.3114 	 68.7495
| 20> H 	 35.6596 	 19.5901 	 68.662
| 21> H 	 34.0401 	 20.1888 	 68.9618
| 22> H 	 34.6373 	 18.6118 	 69.6543
| 23> S 	 36.092 	 15.5103 	 60.885
| 24> C 	 37.3078 	 14.3862 	 60.4202
| 25> C 	 37.7036 	 13.5358 	 61.4131
| 26> C 	 37.2068 	 13.9353 	 62.6757
| 27> C 	 36.3928 	 15.0171 	 62.6007
| 28> H 	 38.3616 	 12.7814 	 61.1917
| 29> C 	 37.4723 	 13.1994 	 63.9936
| 30> H 	 37.0677 	 13.8181 	 64.8547
| 31> H 	 38.5558 	 13.1721 	 64.1051
| 32> C 	 37.0525 	 11.6977 	 64.181
| 33> H 	 37.6573 	 11.1899 	 64.9821
| 34> H 	 37.3399 	 11.0168 	 63.3609
| 35> C 	 35.6132 	 11.3729 	 64.426
| 36> H 	 35.0692 	 11.5845 	 63.5093
| 37> H 	 35.3033 	 11.9567 	 65.3502
| 38> H 	 35.4058 	 10.3449 	 64.6905
| 39> H 	 32.7819 	 16.9615 	 65.4955
| 40> H 	 37.6128 	 14.2118 	 59.3592
| 41> *
| 42>
| 43>                          ****END OF INPUT****

CARTESIAN COORDINATES (ANGSTROEM)
---------------------------------
  S     33.894800   15.977700   63.504900
  C     33.768400   16.752500   65.027400
  C     34.949100   16.832100   65.726000
  C     36.027600   16.234400   64.947100
  C     35.597600   15.647600   63.695200
  H     37.099700   16.205900   65.307400
  C     35.153000   17.318900   67.146800
  H     36.226300   17.502400   67.412500
  H     34.821900   16.420600   67.733300
  C     34.321800   18.580300   67.412400
  H     34.570800   19.244500   66.583300
  H     33.229300   18.293200   67.345500
  C     34.611100   19.311400   68.749500
  H     35.659600   19.590100   68.662000
  H     34.040100   20.188800   68.961800
  H     34.637300   18.611800   69.654300
  S     36.092000   15.510300   60.885000
  C     37.307800   14.386200   60.420200
  C     37.703600   13.535800   61.413100
  C     37.206800   13.935300   62.675700
  C     36.392800   15.017100   62.600700
  H     38.361600   12.781400   61.191700
  C     37.472300   13.199400   63.993600
  H     37.067700   13.818100   64.854700
  H     38.555800   13.172100   64.105100
  C     37.052500   11.697700   64.181000
  H     37.657300   11.189900   64.982100
  H     37.339900   11.016800   63.360900
  C     35.613200   11.372900   64.426000
  H     35.069200   11.584500   63.509300
  H     35.303300   11.956700   65.350200
  H     35.405800   10.344900   64.690500
  H     32.781900   16.961500   65.495500
  H     37.612800   14.211800   59.359200

 Total Charge           Charge          ....    0
 Multiplicity           Mult            ....    1
 Number of Electrons    NEL             ....  134
 Basis Dimension        Dim             ....  322

ORBITAL ENERGIES
----------------

  NO   OCC          E(Eh)            E(eV)
   0   2.0000     -88.967085     -2420.9175
   1   2.0000     -88.966998     -2420.9151
   2   2.0000     -10.337402      -281.2950
   3   2.0000     -10.329312      -281.0749
   4   2.0000     -10.318187      -280.7721
   5   2.0000     -10.311397      -280.5874
   6   2.0000     -10.305922      -280.4384
   7   2.0000     -10.303382      -280.3693
   8   2.0000     -10.302406      -280.3427
   9   2.0000     -10.301632      -280.3217
  10   2.0000     -10.299135      -280.2537
  11   2.0000     -10.294053      -280.1154
  12   2.0000     -10.288743      -279.9709
  13   2.0000     -10.286395      -279.9070
  14   2.0000     -10.283982      -279.8414
  15   2.0000     -10.272600      -279.5316
  16   2.0000      -8.082298      -219.9305
  17   2.0000      -8.081624      -219.9122
  18   2.0000      -6.040783      -164.3781
  19   2.0000      -6.040156      -164.3610
  20   2.0000      -6.036586      -164.2639
  21   2.0000      -6.036417      -164.2593
  22   2.0000      -6.033212      -164.1720
  23   2.0000      -6.032096      -164.1417
  24   2.0000      -1.005104       -27.3503
  25   2.0000      -0.985817       -26.8254
  26   2.0000      -0.911600       -24.8059
  27   2.0000      -0.902416       -24.5560
  28   2.0000      -0.864903       -23.5352
  29   2.0000      -0.855528       -23.2801
  30   2.0000      -0.843850       -22.9623
  31   2.0000      -0.808857       -22.0101
  32   2.0000      -0.783788       -21.3280
  33   2.0000      -0.771718       -20.9995
  34   2.0000      -0.703901       -19.1541
  35   2.0000      -0.694254       -18.8916
  36   2.0000      -0.686532       -18.6815
  37   2.0000      -0.660444       -17.9716
  38   2.0000      -0.632531       -17.2120
  39   2.0000      -0.609536       -16.5863
  40   2.0000      -0.592902       -16.1337
  41   2.0000      -0.574756       -15.6399
  42   2.0000      -0.562070       -15.2947
  43   2.0000      -0.550360       -14.9760
  44   2.0000      -0.541631       -14.7385
  45   2.0000      -0.523397       -14.2424
  46   2.0000      -0.517723       -14.0879
  47   2.0000      -0.510249       -13.8846
  48   2.0000      -0.495276       -13.4771
  49   2.0000      -0.492468       -13.4007
  50   2.0000      -0.484984       -13.1971
  51   2.0000      -0.483188       -13.1482
  52   2.0000      -0.475550       -12.9404
  53   2.0000      -0.458538       -12.4775
  54   2.0000      -0.456240       -12.4149
  55   2.0000      -0.450455       -12.2575
  56   2.0000      -0.442607       -12.0440
  57   2.0000      -0.436418       -11.8755
  58   2.0000      -0.433517       -11.7966
  59   2.0000      -0.425603       -11.5813
  60   2.0000      -0.416599       -11.3362
  61   2.0000      -0.414754       -11.2860
  62   2.0000      -0.406022       -11.0484
  63   2.0000      -0.349012        -9.4971
  64   2.0000      -0.334402        -9.0995
  65   2.0000      -0.327698        -8.9171
  66   2.0000      -0.289390        -7.8747
  67   0.0000       0.031523         0.8578
  68   0.0000       0.065870         1.7924
  69   0.0000       0.107720         2.9312
  70   0.0000       0.123868         3.3706
  71   0.0000       0.135005         3.6737

MULLIKEN ATOMIC CHARGES
-----------------------
   0 S :    0.121455
   1 C :   -0.144898
   2 C :   -0.107204
   3 C :    0.011372
   4 C :   -0.182408
   5 H :    0.038140
   6 C :    0.050969
   7 H :    0.029915
   8 H :    0.055371
   9 C :   -0.124267
  10 H :    0.045728
  11 H :    0.040803
  12 C :   -0.033393
  13 H :    0.020212
  14 H :    0.043121
  15 H :    0.034923
  16 S :    0.106151
  17 C :   -0.097826
  18 C :   -0.002502
  19 C :   -0.013543
  20 C :   -0.151087
  21 H :   -0.015624
  22 C :    0.082979
  23 H :    0.035147
  24 H :    0.029108
  25 C :   -0.109335
  26 H :    0.024089
  27 H :    0.017695
  28 C :   -0.041741
  29 H :    0.042749
  30 H :    0.034027
  31 H :    0.026374
  32 H :    0.064335
  33 H :    0.069165
Sum of atomic charges:   -0.0000000

LOEWDIN ATOMIC CHARGES
----------------------
   0 S :    0.429262
   1 C :   -0.222983
   2 C :   -0.068247
   3 C :   -0.074525
   4 C :   -0.197108
   5 H :    0.037570
   6 C :   -0.036078
   7 H :    0.031977
   8 H :    0.042680
   9 C :   -0.046619
  10 H :    0.029266
  11 H :    0.025962
  12 C :   -0.070935
  13 H :    0.024257
  14 H :    0.024149
  15 H :    0.032118
  16 S :    0.385913
  17 C :   -0.185627
  18 C :   -0.063982
  19 C :   -0.053629
  20 C :   -0.183178
  21 H :    0.018871
  22 C :   -0.030429
  23 H :    0.038908
  24 H :    0.034272
  25 C :   -0.055959
  26 H :    0.027881
  27 H :    0.022236
  28 C :   -0.069697
  29 H :    0.027427
  30 H :    0.030575
  31 H :    0.023663
  32 H :    0.034212
  33 H :    0.037799

  Mayer bond orders larger than 0.100000
B(  0-S ,  1-C ) :   1.1506 B(  0-S ,  4-C ) :   1.1774 B(  1-C ,  2-C ) :   1.5968
B(  1-C , 32-H ) :   0.9592 B(  2-C ,  3-C ) :   1.2747 B(  2-C ,  6-C ) :   1.0118
B(  3-C ,  4-C ) :   1.5289 B(  3-C ,  5-H ) :   0.9775 B(  4-C , 20-C ) :   1.0374
B(  6-C ,  7-H ) :   0.9483 B(  6-C ,  8-H ) :   0.9291 B(  6-C ,  9-C ) :   1.0581
B(  9-C , 10-H ) :   0.9646 B(  9-C , 11-H ) :   0.9484 B(  9-C , 12-C ) :   1.0791
B( 12-C , 13-H ) :   0.9716 B( 12-C , 14-H ) :   0.9760 B( 12-C , 15-H ) :   0.9740
B( 16-S , 17-C ) :   1.1536 B( 16-S , 20-C ) :   1.1134 B( 17-C , 18-C ) :   1.6341
B( 17-C , 33-H ) :   0.9572 B( 18-C , 19-C ) :   1.2103 B( 18-C , 21-H ) :   1.0091
B( 19-C , 20-C ) :   1.6324 B( 19-C , 22-C ) :   1.0366 B( 22-C , 23-H ) :   0.9314
B( 22-C , 24-H ) :   0.9269 B( 22-C , 25-C ) :   1.0626 B( 25-C , 26-H ) :   0.9539
B( 25-C , 27-H ) :   0.9537 B( 25-C , 28-C ) :   1.0878 B( 28-C , 29-H ) :   0.9769
B( 28-C , 30-H ) :   0.9725 B( 28-C , 31-H ) :   0.9702

Dispersion correction           -0.013872360
FINAL SINGLE POINT ENERGY     -1339.874153160395

DIPOLE MOMENT
-------------
                                X             Y             Z
Electronic contribution:     -2.53961       3.34982     -25.35222
Nuclear contribution   :      2.83168      -3.63988      25.82297
                        -----------------------------------------
Total Dipole Moment    :      0.29207      -0.29006       0.47075
                        -----------------------------------------
Magnitude (a.u.)       :      0.62534
Magnitude (Debye)      :      1.58948

Rotational constants in cm-1:     0.021762     0.007299     0.006294
Rotational constants in MHz :   652.396878   218.826997   188.681683

                             ****ORCA TERMINATED NORMALLY****
TOTAL RUN TIME: 0 days 0 hours 0 minutes 29 seconds 447 msec
