                         Program Version 4.2.1 -  RELEASE  -
|  1> ! wB97X-D3 SP def2-SVP
|  2> %pal
|  3> nprocs 16
|  4> end
|  5>
|  6> * xyz 0 1
|  7> S 	 -2.06692 	 -17.0002 	 82.3933
|  8> C 	 -2.71973 	 -17.5262 	 83.9123
|  9> C 	 -4.11535 	 -17.6794 	 83.8073
| 10> C 	 -4.59561 	 -16.9785 	 82.6533
| 11> C 	 -3.64034 	 -16.4792 	 81.8712
| 12> H 	 -5.62715 	 -16.8344 	 82.4245
| 13> C 	 -5.02207 	 -18.3993 	 84.7297
| 14> H 	 -5.69409 	 -17.7807 	 85.2747
| 15> H 	 -4.46212 	 -18.8972 	 85.5342
| 16> C 	 -5.88666 	 -19.4981 	 84.1079
| 17> H 	 -5.30158 	 -20.0478 	 83.3744
| 18> H 	 -6.10494 	 -20.2559 	 84.8456
| 19> C 	 -7.2393 	 -19.0897 	 83.5443
| 20> H 	 -7.87228 	 -18.8595 	 84.3972
| 21> H 	 -7.11408 	 -18.2467 	 82.8445
| 22> H 	 -7.87222 	 -19.9137 	 83.0764
| 23> S 	 -4.77965 	 -14.2187 	 80.642
| 24> C 	 -4.07208 	 -13.7033 	 79.1278
| 25> C 	 -3.32164 	 -14.7297 	 78.6177
| 26> C 	 -3.23714 	 -15.8866 	 79.4425
| 27> C 	 -3.87917 	 -15.7211 	 80.6537
| 28> H 	 -2.83941 	 -14.4556 	 77.6343
| 29> C 	 -2.55581 	 -17.1386 	 78.9253
| 30> H 	 -3.17571 	 -17.984 	 79.2673
| 31> H 	 -1.62435 	 -17.3894 	 79.3331
| 32> C 	 -2.50257 	 -17.3255 	 77.393
| 33> H 	 -1.82507 	 -16.6687 	 76.9448
| 34> H 	 -3.486 	 -17.1881 	 76.9766
| 35> C 	 -2.11116 	 -18.7613 	 77.0171
| 36> H 	 -2.00153 	 -18.913 	 75.9398
| 37> H 	 -2.86068 	 -19.487 	 77.333
| 38> H 	 -1.13617 	 -19.0543 	 77.4651
| 39> H 	 -2.18646 	 -17.7678 	 84.778
| 40> H 	 -4.2098 	 -12.7543 	 78.6382
| 41> *
| 42>
| 43>                          ****END OF INPUT****

CARTESIAN COORDINATES (ANGSTROEM)
---------------------------------
  S     -2.066920  -17.000200   82.393300
  C     -2.719730  -17.526200   83.912300
  C     -4.115350  -17.679400   83.807300
  C     -4.595610  -16.978500   82.653300
  C     -3.640340  -16.479200   81.871200
  H     -5.627150  -16.834400   82.424500
  C     -5.022070  -18.399300   84.729700
  H     -5.694090  -17.780700   85.274700
  H     -4.462120  -18.897200   85.534200
  C     -5.886660  -19.498100   84.107900
  H     -5.301580  -20.047800   83.374400
  H     -6.104940  -20.255900   84.845600
  C     -7.239300  -19.089700   83.544300
  H     -7.872280  -18.859500   84.397200
  H     -7.114080  -18.246700   82.844500
  H     -7.872220  -19.913700   83.076400
  S     -4.779650  -14.218700   80.642000
  C     -4.072080  -13.703300   79.127800
  C     -3.321640  -14.729700   78.617700
  C     -3.237140  -15.886600   79.442500
  C     -3.879170  -15.721100   80.653700
  H     -2.839410  -14.455600   77.634300
  C     -2.555810  -17.138600   78.925300
  H     -3.175710  -17.984000   79.267300
  H     -1.624350  -17.389400   79.333100
  C     -2.502570  -17.325500   77.393000
  H     -1.825070  -16.668700   76.944800
  H     -3.486000  -17.188100   76.976600
  C     -2.111160  -18.761300   77.017100
  H     -2.001530  -18.913000   75.939800
  H     -2.860680  -19.487000   77.333000
  H     -1.136170  -19.054300   77.465100
  H     -2.186460  -17.767800   84.778000
  H     -4.209800  -12.754300   78.638200

 Total Charge           Charge          ....    0
 Multiplicity           Mult            ....    1
 Number of Electrons    NEL             ....  134
 Basis Dimension        Dim             ....  322

ORBITAL ENERGIES
----------------

  NO   OCC          E(Eh)            E(eV)
   0   2.0000     -88.966231     -2420.8942
   1   2.0000     -88.962969     -2420.8055
   2   2.0000     -10.323019      -280.9036
   3   2.0000     -10.322285      -280.8837
   4   2.0000     -10.313414      -280.6423
   5   2.0000     -10.313336      -280.6401
   6   2.0000     -10.302470      -280.3445
   7   2.0000     -10.300908      -280.3020
   8   2.0000     -10.293098      -280.0894
   9   2.0000     -10.288917      -279.9757
  10   2.0000     -10.285615      -279.8858
  11   2.0000     -10.285461      -279.8816
  12   2.0000     -10.283323      -279.8235
  13   2.0000     -10.283151      -279.8188
  14   2.0000     -10.280037      -279.7340
  15   2.0000     -10.278440      -279.6906
  16   2.0000      -8.081290      -219.9031
  17   2.0000      -8.077753      -219.8068
  18   2.0000      -6.039826      -164.3520
  19   2.0000      -6.036315      -164.2565
  20   2.0000      -6.035980      -164.2474
  21   2.0000      -6.032235      -164.1455
  22   2.0000      -6.031774      -164.1329
  23   2.0000      -6.028468      -164.0430
  24   2.0000      -1.012128       -27.5414
  25   2.0000      -0.988148       -26.8889
  26   2.0000      -0.916669       -24.9438
  27   2.0000      -0.908836       -24.7307
  28   2.0000      -0.873116       -23.7587
  29   2.0000      -0.851798       -23.1786
  30   2.0000      -0.844842       -22.9893
  31   2.0000      -0.819440       -22.2981
  32   2.0000      -0.784319       -21.3424
  33   2.0000      -0.771268       -20.9873
  34   2.0000      -0.706090       -19.2137
  35   2.0000      -0.703299       -19.1377
  36   2.0000      -0.697840       -18.9892
  37   2.0000      -0.658882       -17.9291
  38   2.0000      -0.637991       -17.3606
  39   2.0000      -0.624648       -16.9975
  40   2.0000      -0.601538       -16.3687
  41   2.0000      -0.576767       -15.6946
  42   2.0000      -0.572850       -15.5880
  43   2.0000      -0.549123       -14.9424
  44   2.0000      -0.547232       -14.8909
  45   2.0000      -0.525851       -14.3091
  46   2.0000      -0.511500       -13.9186
  47   2.0000      -0.511014       -13.9054
  48   2.0000      -0.507928       -13.8214
  49   2.0000      -0.501529       -13.6473
  50   2.0000      -0.490565       -13.3489
  51   2.0000      -0.488133       -13.2828
  52   2.0000      -0.471773       -12.8376
  53   2.0000      -0.462195       -12.5770
  54   2.0000      -0.457224       -12.4417
  55   2.0000      -0.446954       -12.1622
  56   2.0000      -0.443970       -12.0810
  57   2.0000      -0.432083       -11.7576
  58   2.0000      -0.428262       -11.6536
  59   2.0000      -0.424553       -11.5527
  60   2.0000      -0.422381       -11.4936
  61   2.0000      -0.416720       -11.3395
  62   2.0000      -0.415826       -11.3152
  63   2.0000      -0.350838        -9.5468
  64   2.0000      -0.328899        -8.9498
  65   2.0000      -0.326469        -8.8837
  66   2.0000      -0.288481        -7.8500
  67   0.0000       0.031083         0.8458
  68   0.0000       0.060985         1.6595
  69   0.0000       0.101421         2.7598
  70   0.0000       0.127977         3.4824
  71   0.0000       0.140993         3.8366

MULLIKEN ATOMIC CHARGES
-----------------------
   0 S :    0.121236
   1 C :   -0.099239
   2 C :   -0.065268
   3 C :    0.002123
   4 C :   -0.105576
   5 H :    0.000486
   6 C :    0.093660
   7 H :    0.018826
   8 H :    0.012832
   9 C :   -0.079303
  10 H :    0.026492
  11 H :    0.020611
  12 C :   -0.070012
  13 H :    0.026536
  14 H :    0.038962
  15 H :    0.042969
  16 S :    0.100976
  17 C :   -0.098637
  18 C :   -0.065115
  19 C :   -0.041579
  20 C :   -0.142337
  21 H :    0.040477
  22 C :    0.073062
  23 H :    0.024417
  24 H :    0.015158
  25 C :   -0.053645
  26 H :    0.023337
  27 H :    0.029147
  28 C :   -0.066576
  29 H :    0.032452
  30 H :    0.032859
  31 H :    0.029808
  32 H :    0.026959
  33 H :    0.053900
Sum of atomic charges:    0.0000000

LOEWDIN ATOMIC CHARGES
----------------------
   0 S :    0.417682
   1 C :   -0.186989
   2 C :   -0.053094
   3 C :   -0.060711
   4 C :   -0.188907
   5 H :    0.025795
   6 C :   -0.034114
   7 H :    0.027121
   8 H :    0.034914
   9 C :   -0.042456
  10 H :    0.022500
  11 H :    0.024760
  12 C :   -0.073692
  13 H :    0.023508
  14 H :    0.022676
  15 H :    0.036460
  16 S :    0.401563
  17 C :   -0.187192
  18 C :   -0.080505
  19 C :   -0.064344
  20 C :   -0.196278
  21 H :    0.043184
  22 C :   -0.034135
  23 H :    0.037042
  24 H :    0.018481
  25 C :   -0.031858
  26 H :    0.013558
  27 H :    0.025473
  28 C :   -0.065173
  29 H :    0.026492
  30 H :    0.024204
  31 H :    0.025316
  32 H :    0.017664
  33 H :    0.031051

  Mayer bond orders larger than 0.100000
B(  0-S ,  1-C ) :   1.1436 B(  0-S ,  4-C ) :   1.1281 B(  1-C ,  2-C ) :   1.5971
B(  1-C , 32-H ) :   0.9781 B(  2-C ,  3-C ) :   1.2085 B(  2-C ,  6-C ) :   1.0542
B(  3-C ,  4-C ) :   1.5909 B(  3-C ,  5-H ) :   1.0032 B(  4-C , 20-C ) :   1.0529
B(  6-C ,  7-H ) :   0.9340 B(  6-C ,  8-H ) :   0.9322 B(  6-C ,  9-C ) :   1.0608
B(  9-C , 10-H ) :   0.9566 B(  9-C , 11-H ) :   0.9562 B(  9-C , 12-C ) :   1.0773
B( 12-C , 13-H ) :   0.9719 B( 12-C , 14-H ) :   0.9765 B( 12-C , 15-H ) :   0.9693
B( 16-S , 17-C ) :   1.1482 B( 16-S , 20-C ) :   1.1349 B( 17-C , 18-C ) :   1.6218
B( 17-C , 33-H ) :   0.9662 B( 18-C , 19-C ) :   1.2331 B( 18-C , 21-H ) :   0.9810
B( 19-C , 20-C ) :   1.5848 B( 19-C , 22-C ) :   1.0189 B( 22-C , 23-H ) :   0.9393
B( 22-C , 24-H ) :   0.9252 B( 22-C , 25-C ) :   1.0820 B( 25-C , 26-H ) :   0.9461
B( 25-C , 27-H ) :   0.9558 B( 25-C , 28-C ) :   1.0905 B( 28-C , 29-H ) :   0.9733
B( 28-C , 30-H ) :   0.9756 B( 28-C , 31-H ) :   0.9739

Dispersion correction           -0.013985185
FINAL SINGLE POINT ENERGY     -1339.866314196103

DIPOLE MOMENT
-------------
                                X             Y             Z
Electronic contribution:      6.26093      19.30308       5.34799
Nuclear contribution   :     -6.36151     -19.69334      -5.38582
                        -----------------------------------------
Total Dipole Moment    :     -0.10059      -0.39025      -0.03784
                        -----------------------------------------
Magnitude (a.u.)       :      0.40478
Magnitude (Debye)      :      1.02887

Rotational constants in cm-1:     0.017919     0.008171     0.007252
Rotational constants in MHz :   537.207191   244.949477   217.398847

                             ****ORCA TERMINATED NORMALLY****
TOTAL RUN TIME: 0 days 0 hours 0 minutes 33 seconds 106 msec
