                         Program Version 4.2.1 -  RELEASE  -
|  1> ! wB97X-D3 SP def2-SVP
|  2> %pal
|  3> nprocs 16
|  4> end
|  5>
|  6> * xyz 0 1
|  7> S 	 11.5519 	 25.651 	 46.7435
|  8> C 	 12.1309 	 25.2337 	 48.3518
|  9> C 	 11.1452 	 25.5235 	 49.3315
| 10> C 	 9.92707 	 25.8535 	 48.6494
| 11> C 	 9.92862 	 25.8613 	 47.2523
| 12> H 	 9.09929 	 26.1431 	 49.22
| 13> C 	 11.4483 	 25.4731 	 50.8292
| 14> H 	 12.4049 	 26.0248 	 50.8917
| 15> H 	 11.6389 	 24.4567 	 51.0471
| 16> C 	 10.3993 	 25.9726 	 51.7701
| 17> H 	 10.3595 	 27.0788 	 51.7294
| 18> H 	 9.42521 	 25.5196 	 51.534
| 19> C 	 10.5493 	 25.5596 	 53.1761
| 20> H 	 11.3901 	 26.0325 	 53.6195
| 21> H 	 9.674 	 25.888 	 53.7742
| 22> H 	 10.7275 	 24.4861 	 53.3664
| 23> S 	 8.76028 	 27.9029 	 45.7362
| 24> C 	 7.30464 	 27.593 	 44.8029
| 25> C 	 6.91908 	 26.2957 	 44.9449
| 26> C 	 7.71566 	 25.482 	 45.8716
| 27> C 	 8.83085 	 26.1779 	 46.3138
| 28> H 	 6.07499 	 25.9354 	 44.3838
| 29> C 	 7.53457 	 23.9849 	 46.1877
| 30> H 	 6.427 	 23.7738 	 46.3809
| 31> H 	 8.02157 	 23.7437 	 47.136
| 32> C 	 8.15406 	 23.0631 	 45.0975
| 33> H 	 7.97348 	 22.0277 	 45.3027
| 34> H 	 9.26275 	 23.2692 	 44.9507
| 35> C 	 7.43338 	 23.3214 	 43.749
| 36> H 	 7.72969 	 24.2678 	 43.2383
| 37> H 	 6.31829 	 23.366 	 43.769
| 38> H 	 7.61685 	 22.4962 	 43.1929
| 39> H 	 13.1606 	 25.0068 	 48.6881
| 40> H 	 6.73673 	 28.2873 	 44.1591
| 41> *
| 42>
| 43>                          ****END OF INPUT****

CARTESIAN COORDINATES (ANGSTROEM)
---------------------------------
  S     11.551900   25.651000   46.743500
  C     12.130900   25.233700   48.351800
  C     11.145200   25.523500   49.331500
  C      9.927070   25.853500   48.649400
  C      9.928620   25.861300   47.252300
  H      9.099290   26.143100   49.220000
  C     11.448300   25.473100   50.829200
  H     12.404900   26.024800   50.891700
  H     11.638900   24.456700   51.047100
  C     10.399300   25.972600   51.770100
  H     10.359500   27.078800   51.729400
  H      9.425210   25.519600   51.534000
  C     10.549300   25.559600   53.176100
  H     11.390100   26.032500   53.619500
  H      9.674000   25.888000   53.774200
  H     10.727500   24.486100   53.366400
  S      8.760280   27.902900   45.736200
  C      7.304640   27.593000   44.802900
  C      6.919080   26.295700   44.944900
  C      7.715660   25.482000   45.871600
  C      8.830850   26.177900   46.313800
  H      6.074990   25.935400   44.383800
  C      7.534570   23.984900   46.187700
  H      6.427000   23.773800   46.380900
  H      8.021570   23.743700   47.136000
  C      8.154060   23.063100   45.097500
  H      7.973480   22.027700   45.302700
  H      9.262750   23.269200   44.950700
  C      7.433380   23.321400   43.749000
  H      7.729690   24.267800   43.238300
  H      6.318290   23.366000   43.769000
  H      7.616850   22.496200   43.192900
  H     13.160600   25.006800   48.688100
  H      6.736730   28.287300   44.159100

 Total Charge           Charge          ....    0
 Multiplicity           Mult            ....    1
 Number of Electrons    NEL             ....  134
 Basis Dimension        Dim             ....  322

ORBITAL ENERGIES
----------------

  NO   OCC          E(Eh)            E(eV)
   0   2.0000     -88.968480     -2420.9554
   1   2.0000     -88.960692     -2420.7435
   2   2.0000     -10.333030      -281.1760
   3   2.0000     -10.329761      -281.0871
   4   2.0000     -10.319162      -280.7987
   5   2.0000     -10.317338      -280.7490
   6   2.0000     -10.311069      -280.5785
   7   2.0000     -10.304552      -280.4011
   8   2.0000     -10.297723      -280.2153
   9   2.0000     -10.293962      -280.1130
  10   2.0000     -10.293826      -280.1093
  11   2.0000     -10.291334      -280.0414
  12   2.0000     -10.290009      -280.0054
  13   2.0000     -10.287184      -279.9285
  14   2.0000     -10.276368      -279.6342
  15   2.0000     -10.268592      -279.4226
  16   2.0000      -8.083055      -219.9511
  17   2.0000      -8.074518      -219.7188
  18   2.0000      -6.041500      -164.3976
  19   2.0000      -6.037460      -164.2877
  20   2.0000      -6.034006      -164.1936
  21   2.0000      -6.033200      -164.1717
  22   2.0000      -6.029199      -164.0628
  23   2.0000      -6.025091      -163.9511
  24   2.0000      -1.000588       -27.2274
  25   2.0000      -0.977472       -26.5984
  26   2.0000      -0.923797       -25.1378
  27   2.0000      -0.901027       -24.5182
  28   2.0000      -0.870671       -23.6921
  29   2.0000      -0.848097       -23.0779
  30   2.0000      -0.837030       -22.7767
  31   2.0000      -0.814455       -22.1624
  32   2.0000      -0.785666       -21.3791
  33   2.0000      -0.771379       -20.9903
  34   2.0000      -0.711890       -19.3715
  35   2.0000      -0.692604       -18.8467
  36   2.0000      -0.682924       -18.5833
  37   2.0000      -0.653384       -17.7795
  38   2.0000      -0.636430       -17.3181
  39   2.0000      -0.620188       -16.8762
  40   2.0000      -0.588552       -16.0153
  41   2.0000      -0.585137       -15.9224
  42   2.0000      -0.569404       -15.4943
  43   2.0000      -0.551247       -15.0002
  44   2.0000      -0.540612       -14.7108
  45   2.0000      -0.529440       -14.4068
  46   2.0000      -0.514200       -13.9921
  47   2.0000      -0.509961       -13.8767
  48   2.0000      -0.505615       -13.7585
  49   2.0000      -0.495808       -13.4916
  50   2.0000      -0.484851       -13.1935
  51   2.0000      -0.475974       -12.9519
  52   2.0000      -0.472479       -12.8568
  53   2.0000      -0.464972       -12.6525
  54   2.0000      -0.456537       -12.4230
  55   2.0000      -0.450400       -12.2560
  56   2.0000      -0.439033       -11.9467
  57   2.0000      -0.433603       -11.7989
  58   2.0000      -0.431036       -11.7291
  59   2.0000      -0.425773       -11.5859
  60   2.0000      -0.415096       -11.2953
  61   2.0000      -0.413751       -11.2587
  62   2.0000      -0.411791       -11.2054
  63   2.0000      -0.332099        -9.0369
  64   2.0000      -0.326834        -8.8936
  65   2.0000      -0.324423        -8.8280
  66   2.0000      -0.305634        -8.3167
  67   0.0000       0.039659         1.0792
  68   0.0000       0.053036         1.4432
  69   0.0000       0.114065         3.1039
  70   0.0000       0.122210         3.3255
  71   0.0000       0.129615         3.5270

MULLIKEN ATOMIC CHARGES
-----------------------
   0 S :    0.130079
   1 C :   -0.134521
   2 C :   -0.135823
   3 C :    0.064550
   4 C :   -0.165494
   5 H :   -0.014277
   6 C :    0.099224
   7 H :    0.039108
   8 H :    0.025022
   9 C :   -0.088728
  10 H :    0.041890
  11 H :    0.035960
  12 C :   -0.044613
  13 H :    0.011953
  14 H :    0.039161
  15 H :    0.030902
  16 S :    0.088173
  17 C :   -0.084237
  18 C :   -0.041837
  19 C :   -0.019266
  20 C :   -0.169172
  21 H :    0.013909
  22 C :    0.043901
  23 H :    0.040441
  24 H :    0.031178
  25 C :   -0.059325
  26 H :    0.029663
  27 H :    0.053921
  28 C :   -0.064104
  29 H :    0.054199
  30 H :    0.021001
  31 H :    0.008403
  32 H :    0.052091
  33 H :    0.066666
Sum of atomic charges:    0.0000000

LOEWDIN ATOMIC CHARGES
----------------------
   0 S :    0.433485
   1 C :   -0.209551
   2 C :   -0.059127
   3 C :   -0.058318
   4 C :   -0.221515
   5 H :    0.018481
   6 C :   -0.031304
   7 H :    0.039370
   8 H :    0.030133
   9 C :   -0.049870
  10 H :    0.032664
  11 H :    0.029924
  12 C :   -0.065526
  13 H :    0.016255
  14 H :    0.033172
  15 H :    0.026543
  16 S :    0.365868
  17 C :   -0.184323
  18 C :   -0.075844
  19 C :   -0.045831
  20 C :   -0.178324
  21 H :    0.027827
  22 C :   -0.035873
  23 H :    0.036775
  24 H :    0.029561
  25 C :   -0.032477
  26 H :    0.021419
  27 H :    0.037924
  28 C :   -0.069807
  29 H :    0.031169
  30 H :    0.024156
  31 H :    0.009157
  32 H :    0.033010
  33 H :    0.040797

  Mayer bond orders larger than 0.100000
B(  0-S ,  1-C ) :   1.1674 B(  0-S ,  4-C ) :   1.1724 B(  1-C ,  2-C ) :   1.5665
B(  1-C ,  4-C ) :   0.1135 B(  1-C , 32-H ) :   0.9664 B(  2-C ,  3-C ) :   1.3063
B(  2-C ,  6-C ) :   0.9915 B(  3-C ,  4-C ) :   1.5210 B(  3-C ,  5-H ) :   1.0035
B(  4-C , 20-C ) :   1.0031 B(  6-C ,  7-H ) :   0.9339 B(  6-C ,  8-H ) :   0.9338
B(  6-C ,  9-C ) :   1.0949 B(  9-C , 10-H ) :   0.9471 B(  9-C , 11-H ) :   0.9472
B(  9-C , 12-C ) :   1.1000 B( 12-C , 13-H ) :   0.9693 B( 12-C , 14-H ) :   0.9716
B( 12-C , 15-H ) :   0.9714 B( 16-S , 17-C ) :   1.1308 B( 16-S , 20-C ) :   1.1224
B( 17-C , 18-C ) :   1.6603 B( 17-C , 33-H ) :   0.9606 B( 18-C , 19-C ) :   1.1918
B( 18-C , 21-H ) :   0.9872 B( 19-C , 20-C ) :   1.6482 B( 19-C , 22-C ) :   1.0432
B( 22-C , 23-H ) :   0.9407 B( 22-C , 24-H ) :   0.9332 B( 22-C , 25-C ) :   1.0719
B( 25-C , 26-H ) :   0.9594 B( 25-C , 27-H ) :   0.9521 B( 25-C , 28-C ) :   1.0734
B( 28-C , 29-H ) :   0.9706 B( 28-C , 30-H ) :   0.9734 B( 28-C , 31-H ) :   0.9727

Dispersion correction           -0.014231820
FINAL SINGLE POINT ENERGY     -1339.867001910537

DIPOLE MOMENT
-------------
                                X             Y             Z
Electronic contribution:      5.82618      13.69755     -13.86852
Nuclear contribution   :     -6.03322     -14.02703      14.34021
                        -----------------------------------------
Total Dipole Moment    :     -0.20704      -0.32948       0.47169
                        -----------------------------------------
Magnitude (a.u.)       :      0.61148
Magnitude (Debye)      :      1.55427

Rotational constants in cm-1:     0.021256     0.007110     0.006773
Rotational constants in MHz :   637.236401   213.166096   203.059827

                             ****ORCA TERMINATED NORMALLY****
TOTAL RUN TIME: 0 days 0 hours 0 minutes 34 seconds 93 msec
