                         Program Version 4.2.1 -  RELEASE  -
|  1> ! wB97X-D3 SP def2-SVP
|  2> %pal
|  3> nprocs 16
|  4> end
|  5>
|  6> * xyz 0 1
|  7> S 	 -34.6912 	 35.6575 	 43.6056
|  8> C 	 -34.6079 	 35.0094 	 45.2668
|  9> C 	 -33.5744 	 34.0761 	 45.3968
| 10> C 	 -32.9222 	 33.8503 	 44.1457
| 11> C 	 -33.4092 	 34.6372 	 43.1507
| 12> H 	 -32.1598 	 33.2209 	 44.0387
| 13> C 	 -33.1156 	 33.4063 	 46.687
| 14> H 	 -33.9699 	 33.3307 	 47.3492
| 15> H 	 -32.365 	 34.11 	 47.0442
| 16> C 	 -32.4378 	 31.9604 	 46.5916
| 17> H 	 -31.6053 	 31.8619 	 45.8185
| 18> H 	 -31.8818 	 31.6465 	 47.5906
| 19> C 	 -33.3296 	 30.8145 	 46.3472
| 20> H 	 -32.7189 	 30.0166 	 45.8925
| 21> H 	 -33.7633 	 30.5092 	 47.3096
| 22> H 	 -34.1488 	 31.0824 	 45.6209
| 23> S 	 -32.029 	 36.4506 	 41.7364
| 24> C 	 -31.3744 	 36.1802 	 40.2367
| 25> C 	 -31.5535 	 34.8779 	 39.8445
| 26> C 	 -32.4278 	 34.1459 	 40.7464
| 27> C 	 -32.7692 	 34.914 	 41.8702
| 28> H 	 -31.2438 	 34.5634 	 38.8159
| 29> C 	 -32.6672 	 32.6751 	 40.5874
| 30> H 	 -33.3155 	 32.5739 	 39.7203
| 31> H 	 -33.1897 	 32.3736 	 41.5248
| 32> C 	 -31.3227 	 31.874 	 40.3949
| 33> H 	 -30.5992 	 32.653 	 40.0055
| 34> H 	 -31.537 	 31.1496 	 39.6188
| 35> C 	 -30.7394 	 31.2742 	 41.6744
| 36> H 	 -30.8909 	 31.9228 	 42.5653
| 37> H 	 -29.6406 	 30.95 	 41.5248
| 38> H 	 -31.1854 	 30.283 	 41.9381
| 39> H 	 -35.2833 	 35.157 	 46.057
| 40> H 	 -30.8034 	 36.8527 	 39.5882
| 41> *
| 42>
| 43>                          ****END OF INPUT****

CARTESIAN COORDINATES (ANGSTROEM)
---------------------------------
  S    -34.691200   35.657500   43.605600
  C    -34.607900   35.009400   45.266800
  C    -33.574400   34.076100   45.396800
  C    -32.922200   33.850300   44.145700
  C    -33.409200   34.637200   43.150700
  H    -32.159800   33.220900   44.038700
  C    -33.115600   33.406300   46.687000
  H    -33.969900   33.330700   47.349200
  H    -32.365000   34.110000   47.044200
  C    -32.437800   31.960400   46.591600
  H    -31.605300   31.861900   45.818500
  H    -31.881800   31.646500   47.590600
  C    -33.329600   30.814500   46.347200
  H    -32.718900   30.016600   45.892500
  H    -33.763300   30.509200   47.309600
  H    -34.148800   31.082400   45.620900
  S    -32.029000   36.450600   41.736400
  C    -31.374400   36.180200   40.236700
  C    -31.553500   34.877900   39.844500
  C    -32.427800   34.145900   40.746400
  C    -32.769200   34.914000   41.870200
  H    -31.243800   34.563400   38.815900
  C    -32.667200   32.675100   40.587400
  H    -33.315500   32.573900   39.720300
  H    -33.189700   32.373600   41.524800
  C    -31.322700   31.874000   40.394900
  H    -30.599200   32.653000   40.005500
  H    -31.537000   31.149600   39.618800
  C    -30.739400   31.274200   41.674400
  H    -30.890900   31.922800   42.565300
  H    -29.640600   30.950000   41.524800
  H    -31.185400   30.283000   41.938100
  H    -35.283300   35.157000   46.057000
  H    -30.803400   36.852700   39.588200

 Total Charge           Charge          ....    0
 Multiplicity           Mult            ....    1
 Number of Electrons    NEL             ....  134
 Basis Dimension        Dim             ....  322

ORBITAL ENERGIES
----------------

  NO   OCC          E(Eh)            E(eV)
   0   2.0000     -88.969426     -2420.9812
   1   2.0000     -88.960933     -2420.7501
   2   2.0000     -10.324544      -280.9451
   3   2.0000     -10.319781      -280.8155
   4   2.0000     -10.312593      -280.6199
   5   2.0000     -10.308777      -280.5161
   6   2.0000     -10.304494      -280.3995
   7   2.0000     -10.303631      -280.3761
   8   2.0000     -10.302315      -280.3402
   9   2.0000     -10.301140      -280.3083
  10   2.0000     -10.292005      -280.0597
  11   2.0000     -10.291441      -280.0443
  12   2.0000     -10.291069      -280.0342
  13   2.0000     -10.289927      -280.0032
  14   2.0000     -10.283134      -279.8183
  15   2.0000     -10.279906      -279.7305
  16   2.0000      -8.084347      -219.9863
  17   2.0000      -8.078145      -219.8175
  18   2.0000      -6.042863      -164.4346
  19   2.0000      -6.038802      -164.3242
  20   2.0000      -6.036470      -164.2607
  21   2.0000      -6.035099      -164.2234
  22   2.0000      -6.032098      -164.1417
  23   2.0000      -6.029116      -164.0606
  24   2.0000      -1.017278       -27.6815
  25   2.0000      -0.990769       -26.9602
  26   2.0000      -0.911521       -24.8037
  27   2.0000      -0.906796       -24.6752
  28   2.0000      -0.873394       -23.7663
  29   2.0000      -0.853416       -23.2226
  30   2.0000      -0.843945       -22.9649
  31   2.0000      -0.819835       -22.3088
  32   2.0000      -0.783770       -21.3275
  33   2.0000      -0.770124       -20.9561
  34   2.0000      -0.706136       -19.2149
  35   2.0000      -0.695753       -18.9324
  36   2.0000      -0.684043       -18.6138
  37   2.0000      -0.649782       -17.6815
  38   2.0000      -0.642275       -17.4772
  39   2.0000      -0.631505       -17.1841
  40   2.0000      -0.593668       -16.1545
  41   2.0000      -0.568855       -15.4793
  42   2.0000      -0.559846       -15.2342
  43   2.0000      -0.557283       -15.1644
  44   2.0000      -0.543530       -14.7902
  45   2.0000      -0.526785       -14.3345
  46   2.0000      -0.520357       -14.1596
  47   2.0000      -0.512096       -13.9348
  48   2.0000      -0.508975       -13.8499
  49   2.0000      -0.498976       -13.5778
  50   2.0000      -0.491441       -13.3728
  51   2.0000      -0.478964       -13.0333
  52   2.0000      -0.475049       -12.9267
  53   2.0000      -0.461423       -12.5560
  54   2.0000      -0.454829       -12.3765
  55   2.0000      -0.448051       -12.1921
  56   2.0000      -0.445732       -12.1290
  57   2.0000      -0.442098       -12.0301
  58   2.0000      -0.436793       -11.8858
  59   2.0000      -0.420810       -11.4508
  60   2.0000      -0.415599       -11.3090
  61   2.0000      -0.410045       -11.1579
  62   2.0000      -0.408088       -11.1046
  63   2.0000      -0.342822        -9.3287
  64   2.0000      -0.331255        -9.0139
  65   2.0000      -0.322514        -8.7761
  66   2.0000      -0.299707        -8.1555
  67   0.0000       0.041085         1.1180
  68   0.0000       0.070061         1.9065
  69   0.0000       0.113182         3.0798
  70   0.0000       0.119949         3.2640
  71   0.0000       0.124539         3.3889

MULLIKEN ATOMIC CHARGES
-----------------------
   0 S :    0.126126
   1 C :   -0.106895
   2 C :   -0.118148
   3 C :    0.136568
   4 C :   -0.143002
   5 H :   -0.098012
   6 C :    0.101457
   7 H :    0.027725
   8 H :    0.057861
   9 C :   -0.165262
  10 H :    0.040567
  11 H :    0.043463
  12 C :   -0.050511
  13 H :    0.038902
  14 H :    0.037112
  15 H :    0.042957
  16 S :    0.131745
  17 C :   -0.082488
  18 C :   -0.077529
  19 C :   -0.068709
  20 C :   -0.166045
  21 H :    0.040099
  22 C :    0.056872
  23 H :    0.034923
  24 H :    0.032826
  25 C :   -0.076073
  26 H :    0.046635
  27 H :    0.031378
  28 C :   -0.083047
  29 H :    0.046499
  30 H :    0.046893
  31 H :    0.032836
  32 H :    0.023464
  33 H :    0.058816
Sum of atomic charges:   -0.0000000

LOEWDIN ATOMIC CHARGES
----------------------
   0 S :    0.425305
   1 C :   -0.191980
   2 C :   -0.052007
   3 C :   -0.047381
   4 C :   -0.205232
   5 H :    0.001764
   6 C :   -0.027832
   7 H :    0.030341
   8 H :    0.043422
   9 C :   -0.061455
  10 H :    0.025132
  11 H :    0.037964
  12 C :   -0.075864
  13 H :    0.031817
  14 H :    0.025243
  15 H :    0.030136
  16 S :    0.462319
  17 C :   -0.220584
  18 C :   -0.091658
  19 C :   -0.060716
  20 C :   -0.226124
  21 H :    0.036839
  22 C :   -0.034661
  23 H :    0.033407
  24 H :    0.032378
  25 C :   -0.043121
  26 H :    0.033046
  27 H :    0.023628
  28 C :   -0.078693
  29 H :    0.026377
  30 H :    0.037721
  31 H :    0.026449
  32 H :    0.016543
  33 H :    0.037477

  Mayer bond orders larger than 0.100000
B(  0-S ,  1-C ) :   1.1267 B(  0-S ,  4-C ) :   1.1745 B(  1-C ,  2-C ) :   1.6186
B(  1-C , 32-H ) :   0.9731 B(  2-C ,  3-C ) :   1.2462 B(  2-C ,  6-C ) :   1.0040
B(  3-C ,  4-C ) :   1.5586 B(  3-C ,  5-H ) :   1.0182 B(  4-C , 20-C ) :   0.9853
B(  6-C ,  7-H ) :   0.9460 B(  6-C ,  8-H ) :   0.9329 B(  6-C ,  9-C ) :   1.0587
B(  9-C , 10-H ) :   0.9605 B(  9-C , 11-H ) :   0.9574 B(  9-C , 12-C ) :   1.0740
B( 12-C , 13-H ) :   0.9735 B( 12-C , 14-H ) :   0.9762 B( 12-C , 15-H ) :   0.9743
B( 16-S , 17-C ) :   1.1857 B( 16-S , 20-C ) :   1.1683 B( 17-C , 18-C ) :   1.5988
B( 17-C , 33-H ) :   0.9628 B( 18-C , 19-C ) :   1.2564 B( 18-C , 21-H ) :   0.9721
B( 19-C , 20-C ) :   1.5814 B( 19-C , 22-C ) :   1.0575 B( 22-C , 23-H ) :   0.9269
B( 22-C , 24-H ) :   0.9445 B( 22-C , 25-C ) :   1.0441 B( 25-C , 26-H ) :   0.9603
B( 25-C , 27-H ) :   0.9555 B( 25-C , 28-C ) :   1.0730 B( 28-C , 29-H ) :   0.9759
B( 28-C , 30-H ) :   0.9704 B( 28-C , 31-H ) :   0.9730

Dispersion correction           -0.014925355
FINAL SINGLE POINT ENERGY     -1339.858668684079

DIPOLE MOMENT
-------------
                                X             Y             Z
Electronic contribution:     -8.55840      27.51105      -7.54284
Nuclear contribution   :      8.85548     -28.02948       7.66116
                        -----------------------------------------
Total Dipole Moment    :      0.29708      -0.51843       0.11832
                        -----------------------------------------
Magnitude (a.u.)       :      0.60912
Magnitude (Debye)      :      1.54827

Rotational constants in cm-1:     0.017720     0.010180     0.007246
Rotational constants in MHz :   531.235098   305.192587   217.216395

                             ****ORCA TERMINATED NORMALLY****
TOTAL RUN TIME: 0 days 0 hours 0 minutes 35 seconds 187 msec
