                         Program Version 4.2.1 -  RELEASE  -
|  1> ! wB97X-D3 SP def2-SVP
|  2> %pal
|  3> nprocs 16
|  4> end
|  5>
|  6> * xyz 0 1
|  7> S 	 8.73702 	 -22.3613 	 81.7485
|  8> C 	 9.07834 	 -20.72 	 82.2754
|  9> C 	 10.1239 	 -20.2196 	 81.581
| 10> C 	 10.7401 	 -21.1474 	 80.7162
| 11> C 	 10.2056 	 -22.4334 	 80.7553
| 12> H 	 11.5398 	 -21.0022 	 80.1344
| 13> C 	 10.6102 	 -18.7536 	 81.5595
| 14> H 	 11.3042 	 -18.723 	 80.6957
| 15> H 	 11.2192 	 -18.5364 	 82.4317
| 16> C 	 9.54897 	 -17.7147 	 81.4212
| 17> H 	 9.21224 	 -17.5588 	 80.4102
| 18> H 	 8.66985 	 -17.952 	 81.9917
| 19> C 	 10.1196 	 -16.3875 	 81.9657
| 20> H 	 9.60139 	 -15.5315 	 81.7742
| 21> H 	 10.2393 	 -16.368 	 82.9877
| 22> H 	 11.1214 	 -16.2891 	 81.4397
| 23> S 	 9.26239 	 -24.4452 	 79.0864
| 24> C 	 10.5027 	 -25.2749 	 78.2101
| 25> C 	 11.7747 	 -25.069 	 78.6321
| 26> C 	 11.8295 	 -24.0586 	 79.6494
| 27> C 	 10.5535 	 -23.5596 	 79.9249
| 28> H 	 12.5026 	 -25.6937 	 78.1683
| 29> C 	 13.1038 	 -23.7825 	 80.4324
| 30> H 	 13.0356 	 -22.7036 	 80.5573
| 31> H 	 14.0126 	 -23.7905 	 79.8289
| 32> C 	 13.3349 	 -24.6662 	 81.6712
| 33> H 	 13.233 	 -25.7552 	 81.3801
| 34> H 	 12.6168 	 -24.3383 	 82.4981
| 35> C 	 14.698 	 -24.6084 	 82.3303
| 36> H 	 15.045 	 -23.6158 	 82.5107
| 37> H 	 15.406 	 -25.0376 	 81.5865
| 38> H 	 14.6905 	 -25.09 	 83.307
| 39> H 	 8.35738 	 -20.1821 	 82.8827
| 40> H 	 10.2156 	 -25.8222 	 77.3363
| 41> *
| 42>
| 43>                          ****END OF INPUT****

CARTESIAN COORDINATES (ANGSTROEM)
---------------------------------
  S      8.737020  -22.361300   81.748500
  C      9.078340  -20.720000   82.275400
  C     10.123900  -20.219600   81.581000
  C     10.740100  -21.147400   80.716200
  C     10.205600  -22.433400   80.755300
  H     11.539800  -21.002200   80.134400
  C     10.610200  -18.753600   81.559500
  H     11.304200  -18.723000   80.695700
  H     11.219200  -18.536400   82.431700
  C      9.548970  -17.714700   81.421200
  H      9.212240  -17.558800   80.410200
  H      8.669850  -17.952000   81.991700
  C     10.119600  -16.387500   81.965700
  H      9.601390  -15.531500   81.774200
  H     10.239300  -16.368000   82.987700
  H     11.121400  -16.289100   81.439700
  S      9.262390  -24.445200   79.086400
  C     10.502700  -25.274900   78.210100
  C     11.774700  -25.069000   78.632100
  C     11.829500  -24.058600   79.649400
  C     10.553500  -23.559600   79.924900
  H     12.502600  -25.693700   78.168300
  C     13.103800  -23.782500   80.432400
  H     13.035600  -22.703600   80.557300
  H     14.012600  -23.790500   79.828900
  C     13.334900  -24.666200   81.671200
  H     13.233000  -25.755200   81.380100
  H     12.616800  -24.338300   82.498100
  C     14.698000  -24.608400   82.330300
  H     15.045000  -23.615800   82.510700
  H     15.406000  -25.037600   81.586500
  H     14.690500  -25.090000   83.307000
  H      8.357380  -20.182100   82.882700
  H     10.215600  -25.822200   77.336300

 Total Charge           Charge          ....    0
 Multiplicity           Mult            ....    1
 Number of Electrons    NEL             ....  134
 Basis Dimension        Dim             ....  322

ORBITAL ENERGIES
----------------

  NO   OCC          E(Eh)            E(eV)
   0   2.0000     -88.966851     -2420.9111
   1   2.0000     -88.961041     -2420.7530
   2   2.0000     -10.329503      -281.0801
   3   2.0000     -10.328955      -281.0652
   4   2.0000     -10.311720      -280.5962
   5   2.0000     -10.310794      -280.5710
   6   2.0000     -10.308471      -280.5078
   7   2.0000     -10.295961      -280.1673
   8   2.0000     -10.293424      -280.0983
   9   2.0000     -10.292467      -280.0723
  10   2.0000     -10.290941      -280.0307
  11   2.0000     -10.290354      -280.0148
  12   2.0000     -10.282490      -279.8008
  13   2.0000     -10.280774      -279.7541
  14   2.0000     -10.275301      -279.6052
  15   2.0000     -10.267798      -279.4010
  16   2.0000      -8.082035      -219.9233
  17   2.0000      -8.075603      -219.7483
  18   2.0000      -6.040344      -164.3661
  19   2.0000      -6.036788      -164.2693
  20   2.0000      -6.034185      -164.1985
  21   2.0000      -6.032665      -164.1572
  22   2.0000      -6.030123      -164.0880
  23   2.0000      -6.026324      -163.9846
  24   2.0000      -1.006922       -27.3997
  25   2.0000      -0.985443       -26.8153
  26   2.0000      -0.915935       -24.9238
  27   2.0000      -0.907285       -24.6885
  28   2.0000      -0.873054       -23.7570
  29   2.0000      -0.856709       -23.3122
  30   2.0000      -0.847036       -23.0490
  31   2.0000      -0.815957       -22.2033
  32   2.0000      -0.785516       -21.3750
  33   2.0000      -0.772576       -21.0229
  34   2.0000      -0.711131       -19.3509
  35   2.0000      -0.702455       -19.1148
  36   2.0000      -0.689266       -18.7559
  37   2.0000      -0.664383       -18.0788
  38   2.0000      -0.646086       -17.5809
  39   2.0000      -0.619788       -16.8653
  40   2.0000      -0.597090       -16.2477
  41   2.0000      -0.576715       -15.6932
  42   2.0000      -0.568667       -15.4742
  43   2.0000      -0.558459       -15.1964
  44   2.0000      -0.529568       -14.4103
  45   2.0000      -0.525154       -14.2902
  46   2.0000      -0.520265       -14.1571
  47   2.0000      -0.517112       -14.0713
  48   2.0000      -0.512800       -13.9540
  49   2.0000      -0.498381       -13.5616
  50   2.0000      -0.492772       -13.4090
  51   2.0000      -0.482240       -13.1224
  52   2.0000      -0.476209       -12.9583
  53   2.0000      -0.461034       -12.5454
  54   2.0000      -0.456167       -12.4129
  55   2.0000      -0.450600       -12.2615
  56   2.0000      -0.441527       -12.0146
  57   2.0000      -0.436257       -11.8711
  58   2.0000      -0.430614       -11.7176
  59   2.0000      -0.424791       -11.5591
  60   2.0000      -0.420900       -11.4533
  61   2.0000      -0.412216       -11.2170
  62   2.0000      -0.406549       -11.0628
  63   2.0000      -0.354170        -9.6374
  64   2.0000      -0.335718        -9.1353
  65   2.0000      -0.329254        -8.9595
  66   2.0000      -0.284640        -7.7454
  67   0.0000       0.023989         0.6528
  68   0.0000       0.068896         1.8748
  69   0.0000       0.105252         2.8641
  70   0.0000       0.126163         3.4331
  71   0.0000       0.136883         3.7248

MULLIKEN ATOMIC CHARGES
-----------------------
   0 S :    0.078371
   1 C :   -0.139241
   2 C :   -0.051539
   3 C :    0.060074
   4 C :   -0.147288
   5 H :   -0.038977
   6 C :    0.069504
   7 H :    0.023778
   8 H :    0.037717
   9 C :   -0.054196
  10 H :    0.030717
  11 H :    0.020135
  12 C :   -0.026270
  13 H :    0.004844
  14 H :    0.018353
  15 H :    0.029236
  16 S :    0.112313
  17 C :   -0.095870
  18 C :   -0.010707
  19 C :   -0.053453
  20 C :   -0.146540
  21 H :    0.010940
  22 C :    0.105009
  23 H :    0.000834
  24 H :    0.006376
  25 C :   -0.092949
  26 H :    0.043957
  27 H :    0.049898
  28 C :   -0.039648
  29 H :    0.017517
  30 H :    0.029925
  31 H :    0.044229
  32 H :    0.052564
  33 H :    0.050385
Sum of atomic charges:    0.0000000

LOEWDIN ATOMIC CHARGES
----------------------
   0 S :    0.382105
   1 C :   -0.192019
   2 C :   -0.064445
   3 C :   -0.053725
   4 C :   -0.176078
   5 H :    0.006154
   6 C :   -0.027954
   7 H :    0.033225
   8 H :    0.032590
   9 C :   -0.034900
  10 H :    0.025827
  11 H :    0.017877
  12 C :   -0.053500
  13 H :    0.010407
  14 H :    0.014260
  15 H :    0.033065
  16 S :    0.398578
  17 C :   -0.176747
  18 C :   -0.068849
  19 C :   -0.047667
  20 C :   -0.187747
  21 H :    0.032575
  22 C :   -0.041360
  23 H :    0.030016
  24 H :    0.027546
  25 C :   -0.045401
  26 H :    0.033696
  27 H :    0.035761
  28 C :   -0.068026
  29 H :    0.017206
  30 H :    0.026229
  31 H :    0.031501
  32 H :    0.027899
  33 H :    0.021903

  Mayer bond orders larger than 0.100000
B(  0-S ,  1-C ) :   1.1283 B(  0-S ,  4-C ) :   1.1432 B(  1-C ,  2-C ) :   1.6103
B(  1-C , 32-H ) :   0.9719 B(  2-C ,  3-C ) :   1.2599 B(  2-C ,  6-C ) :   0.9924
B(  3-C ,  4-C ) :   1.5570 B(  3-C ,  5-H ) :   1.0062 B(  4-C , 20-C ) :   1.0783
B(  6-C ,  7-H ) :   0.9386 B(  6-C ,  8-H ) :   0.9442 B(  6-C ,  9-C ) :   1.0625
B(  9-C , 10-H ) :   0.9555 B(  9-C , 11-H ) :   0.9614 B(  9-C , 12-C ) :   1.0781
B( 12-C , 13-H ) :   0.9717 B( 12-C , 14-H ) :   0.9768 B( 12-C , 15-H ) :   0.9737
B( 16-S , 17-C ) :   1.1501 B( 16-S , 20-C ) :   1.1302 B( 17-C , 18-C ) :   1.6376
B( 17-C , 33-H ) :   0.9662 B( 18-C , 19-C ) :   1.1977 B( 18-C , 21-H ) :   1.0018
B( 19-C , 20-C ) :   1.5989 B( 19-C , 22-C ) :   1.0474 B( 22-C , 23-H ) :   0.9138
B( 22-C , 24-H ) :   0.9321 B( 22-C , 25-C ) :   1.0550 B( 25-C , 26-H ) :   0.9586
B( 25-C , 27-H ) :   0.9538 B( 25-C , 28-C ) :   1.0858 B( 28-C , 29-H ) :   0.9737
B( 28-C , 30-H ) :   0.9738 B( 28-C , 31-H ) :   0.9727

Dispersion correction           -0.013429903
FINAL SINGLE POINT ENERGY     -1339.857532698826

DIPOLE MOMENT
-------------
                                X             Y             Z
Electronic contribution:    -18.66346     -16.58955      -8.40944
Nuclear contribution   :     19.14600      16.90116       8.27811
                        -----------------------------------------
Total Dipole Moment    :      0.48254       0.31161      -0.13133
                        -----------------------------------------
Magnitude (a.u.)       :      0.58923
Magnitude (Debye)      :      1.49771

Rotational constants in cm-1:     0.019136     0.007600     0.006278
Rotational constants in MHz :   573.673629   227.843357   188.222396

                             ****ORCA TERMINATED NORMALLY****
TOTAL RUN TIME: 0 days 0 hours 0 minutes 32 seconds 382 msec
