                         Program Version 4.2.1 -  RELEASE  -
|  1> ! wB97X-D3 SP def2-SVP
|  2> %pal
|  3> nprocs 16
|  4> end
|  5>
|  6> * xyz 0 1
|  7> S 	 56.9062 	 14.6723 	 60.4137
|  8> C 	 58.4733 	 14.6253 	 61.2355
|  9> C 	 59.0132 	 13.3312 	 61.1679
| 10> C 	 58.2293 	 12.4062 	 60.463
| 11> C 	 57.0996 	 13.0143 	 59.8892
| 12> H 	 58.4499 	 11.3702 	 60.2703
| 13> C 	 60.3241 	 12.8937 	 61.8147
| 14> H 	 60.9807 	 13.7233 	 61.8692
| 15> H 	 60.9352 	 12.2691 	 61.1526
| 16> C 	 60.1206 	 12.3181 	 63.1978
| 17> H 	 61.0966 	 12.1123 	 63.6572
| 18> H 	 59.6447 	 12.9908 	 63.8417
| 19> C 	 59.2547 	 11.0227 	 63.3059
| 20> H 	 58.2468 	 11.0386 	 62.8643
| 21> H 	 59.8119 	 10.0938 	 63.0758
| 22> H 	 58.9384 	 10.8555 	 64.3496
| 23> S 	 54.5381 	 11.8953 	 59.7579
| 24> C 	 54.0733 	 11.0749 	 58.2354
| 25> C 	 55.118 	 11.0408 	 57.3737
| 26> C 	 56.3002 	 11.5939 	 57.8771
| 27> C 	 56.1278 	 12.3288 	 59.0499
| 28> H 	 55.0705 	 10.5209 	 56.4802
| 29> C 	 57.6001 	 11.4242 	 57.1736
| 30> H 	 57.5863 	 10.4489 	 56.6295
| 31> H 	 58.3389 	 11.3827 	 57.9413
| 32> C 	 58.0156 	 12.4863 	 56.1518
| 33> H 	 57.3656 	 12.4463 	 55.2725
| 34> H 	 58.9986 	 12.3282 	 55.7293
| 35> C 	 58.046 	 13.9152 	 56.6782
| 36> H 	 57.8606 	 14.6038 	 55.8171
| 37> H 	 58.9437 	 14.1833 	 57.1854
| 38> H 	 57.1506 	 14.1447 	 57.3391
| 39> H 	 58.8294 	 15.4602 	 61.7969
| 40> H 	 53.1299 	 10.6063 	 58.1123
| 41> *
| 42>
| 43>                          ****END OF INPUT****

CARTESIAN COORDINATES (ANGSTROEM)
---------------------------------
  S     56.906200   14.672300   60.413700
  C     58.473300   14.625300   61.235500
  C     59.013200   13.331200   61.167900
  C     58.229300   12.406200   60.463000
  C     57.099600   13.014300   59.889200
  H     58.449900   11.370200   60.270300
  C     60.324100   12.893700   61.814700
  H     60.980700   13.723300   61.869200
  H     60.935200   12.269100   61.152600
  C     60.120600   12.318100   63.197800
  H     61.096600   12.112300   63.657200
  H     59.644700   12.990800   63.841700
  C     59.254700   11.022700   63.305900
  H     58.246800   11.038600   62.864300
  H     59.811900   10.093800   63.075800
  H     58.938400   10.855500   64.349600
  S     54.538100   11.895300   59.757900
  C     54.073300   11.074900   58.235400
  C     55.118000   11.040800   57.373700
  C     56.300200   11.593900   57.877100
  C     56.127800   12.328800   59.049900
  H     55.070500   10.520900   56.480200
  C     57.600100   11.424200   57.173600
  H     57.586300   10.448900   56.629500
  H     58.338900   11.382700   57.941300
  C     58.015600   12.486300   56.151800
  H     57.365600   12.446300   55.272500
  H     58.998600   12.328200   55.729300
  C     58.046000   13.915200   56.678200
  H     57.860600   14.603800   55.817100
  H     58.943700   14.183300   57.185400
  H     57.150600   14.144700   57.339100
  H     58.829400   15.460200   61.796900
  H     53.129900   10.606300   58.112300

 Total Charge           Charge          ....    0
 Multiplicity           Mult            ....    1
 Number of Electrons    NEL             ....  134
 Basis Dimension        Dim             ....  322

ORBITAL ENERGIES
----------------

  NO   OCC          E(Eh)            E(eV)
   0   2.0000     -88.969962     -2420.9957
   1   2.0000     -88.961779     -2420.7731
   2   2.0000     -10.330352      -281.1032
   3   2.0000     -10.326506      -280.9985
   4   2.0000     -10.317776      -280.7610
   5   2.0000     -10.316729      -280.7325
   6   2.0000     -10.303424      -280.3704
   7   2.0000     -10.298765      -280.2437
   8   2.0000     -10.294079      -280.1161
   9   2.0000     -10.288931      -279.9760
  10   2.0000     -10.286826      -279.9188
  11   2.0000     -10.285020      -279.8696
  12   2.0000     -10.284604      -279.8583
  13   2.0000     -10.280394      -279.7438
  14   2.0000     -10.278483      -279.6917
  15   2.0000     -10.268816      -279.4287
  16   2.0000      -8.083945      -219.9753
  17   2.0000      -8.075518      -219.7460
  18   2.0000      -6.042335      -164.4203
  19   2.0000      -6.038508      -164.3162
  20   2.0000      -6.034925      -164.2187
  21   2.0000      -6.034064      -164.1952
  22   2.0000      -6.030301      -164.0928
  23   2.0000      -6.026161      -163.9802
  24   2.0000      -1.003291       -27.3009
  25   2.0000      -0.982133       -26.7252
  26   2.0000      -0.911460       -24.8021
  27   2.0000      -0.906671       -24.6718
  28   2.0000      -0.867806       -23.6142
  29   2.0000      -0.847700       -23.0671
  30   2.0000      -0.843199       -22.9446
  31   2.0000      -0.813458       -22.1353
  32   2.0000      -0.785983       -21.3877
  33   2.0000      -0.770457       -20.9652
  34   2.0000      -0.704760       -19.1775
  35   2.0000      -0.702597       -19.1186
  36   2.0000      -0.692452       -18.8426
  37   2.0000      -0.663367       -18.0511
  38   2.0000      -0.647497       -17.6193
  39   2.0000      -0.618427       -16.8282
  40   2.0000      -0.596341       -16.2273
  41   2.0000      -0.574404       -15.6303
  42   2.0000      -0.553285       -15.0557
  43   2.0000      -0.546312       -14.8659
  44   2.0000      -0.540237       -14.7006
  45   2.0000      -0.538659       -14.6577
  46   2.0000      -0.519895       -14.1471
  47   2.0000      -0.512711       -13.9516
  48   2.0000      -0.500750       -13.6261
  49   2.0000      -0.496239       -13.5034
  50   2.0000      -0.488619       -13.2960
  51   2.0000      -0.481968       -13.1150
  52   2.0000      -0.467921       -12.7328
  53   2.0000      -0.463388       -12.6094
  54   2.0000      -0.457758       -12.4562
  55   2.0000      -0.443170       -12.0593
  56   2.0000      -0.438635       -11.9359
  57   2.0000      -0.434212       -11.8155
  58   2.0000      -0.425045       -11.5661
  59   2.0000      -0.421230       -11.4623
  60   2.0000      -0.418037       -11.3754
  61   2.0000      -0.416212       -11.3257
  62   2.0000      -0.410060       -11.1583
  63   2.0000      -0.341093        -9.2816
  64   2.0000      -0.332565        -9.0496
  65   2.0000      -0.325098        -8.8464
  66   2.0000      -0.295983        -8.0541
  67   0.0000       0.029507         0.8029
  68   0.0000       0.056719         1.5434
  69   0.0000       0.108909         2.9636
  70   0.0000       0.117774         3.2048
  71   0.0000       0.125229         3.4076

MULLIKEN ATOMIC CHARGES
-----------------------
   0 S :    0.121614
   1 C :   -0.119688
   2 C :   -0.094903
   3 C :    0.051779
   4 C :   -0.192936
   5 H :    0.026428
   6 C :    0.103429
   7 H :    0.001976
   8 H :    0.022605
   9 C :   -0.028885
  10 H :    0.029545
  11 H :    0.014519
  12 C :   -0.095502
  13 H :    0.048918
  14 H :    0.035307
  15 H :    0.021402
  16 S :    0.084300
  17 C :   -0.076801
  18 C :    0.017887
  19 C :   -0.062041
  20 C :   -0.145841
  21 H :   -0.011296
  22 C :    0.102753
  23 H :    0.026007
  24 H :    0.001650
  25 C :   -0.045196
  26 H :    0.016368
  27 H :    0.022926
  28 C :   -0.073373
  29 H :    0.029472
  30 H :    0.035905
  31 H :    0.038444
  32 H :    0.044854
  33 H :    0.048372
Sum of atomic charges:   -0.0000000

LOEWDIN ATOMIC CHARGES
----------------------
   0 S :    0.413081
   1 C :   -0.191231
   2 C :   -0.057451
   3 C :   -0.055861
   4 C :   -0.197097
   5 H :    0.033084
   6 C :   -0.032093
   7 H :    0.025631
   8 H :    0.031334
   9 C :   -0.033021
  10 H :    0.028148
  11 H :    0.018719
  12 C :   -0.080667
  13 H :    0.030257
  14 H :    0.025111
  15 H :    0.028601
  16 S :    0.367814
  17 C :   -0.155068
  18 C :   -0.063016
  19 C :   -0.051195
  20 C :   -0.192946
  21 H :    0.022275
  22 C :   -0.031572
  23 H :    0.037129
  24 H :    0.023486
  25 C :   -0.040373
  26 H :    0.020938
  27 H :    0.024327
  28 C :   -0.073472
  29 H :    0.030426
  30 H :    0.019674
  31 H :    0.028397
  32 H :    0.023410
  33 H :    0.023220

  Mayer bond orders larger than 0.100000
B(  0-S ,  1-C ) :   1.1420 B(  0-S ,  4-C ) :   1.1722 B(  1-C ,  2-C ) :   1.5783
B(  1-C ,  4-C ) :   0.1100 B(  1-C , 32-H ) :   0.9765 B(  2-C ,  3-C ) :   1.2682
B(  2-C ,  6-C ) :   1.0182 B(  3-C ,  4-C ) :   1.5355 B(  3-C ,  5-H ) :   0.9889
B(  4-C , 20-C ) :   1.0358 B(  6-C ,  7-H ) :   0.9308 B(  6-C ,  8-H ) :   0.9435
B(  6-C ,  9-C ) :   1.0751 B(  9-C , 10-H ) :   0.9533 B(  9-C , 11-H ) :   0.9545
B(  9-C , 12-C ) :   1.0819 B( 12-C , 13-H ) :   0.9680 B( 12-C , 14-H ) :   0.9776
B( 12-C , 15-H ) :   0.9715 B( 16-S , 17-C ) :   1.1453 B( 16-S , 20-C ) :   1.1305
B( 17-C , 18-C ) :   1.6025 B( 17-C , 20-C ) :   0.1045 B( 17-C , 33-H ) :   0.9728
B( 18-C , 19-C ) :   1.2457 B( 18-C , 21-H ) :   1.0006 B( 19-C , 20-C ) :   1.5844
B( 19-C , 22-C ) :   1.0531 B( 22-C , 23-H ) :   0.9291 B( 22-C , 24-H ) :   0.9209
B( 22-C , 25-C ) :   1.0797 B( 25-C , 26-H ) :   0.9570 B( 25-C , 27-H ) :   0.9525
B( 25-C , 28-C ) :   1.0824 B( 28-C , 29-H ) :   0.9722 B( 28-C , 30-H ) :   0.9775
B( 28-C , 31-H ) :   0.9674

Dispersion correction           -0.015978347
FINAL SINGLE POINT ENERGY     -1339.878760472355

DIPOLE MOMENT
-------------
                                X             Y             Z
Electronic contribution:    -19.23844       5.67206       0.91996
Nuclear contribution   :     19.76346      -6.04069      -0.97823
                        -----------------------------------------
Total Dipole Moment    :      0.52502      -0.36863      -0.05827
                        -----------------------------------------
Magnitude (a.u.)       :      0.64415
Magnitude (Debye)      :      1.63730

Rotational constants in cm-1:     0.019392     0.009219     0.008330
Rotational constants in MHz :   581.362023   276.373897   249.724497

                             ****ORCA TERMINATED NORMALLY****
TOTAL RUN TIME: 0 days 0 hours 0 minutes 32 seconds 213 msec
