                         Program Version 4.2.1 -  RELEASE  -
|  1> ! wB97X-D3 SP def2-SVP
|  2> %pal
|  3> nprocs 16
|  4> end
|  5>
|  6> * xyz 0 1
|  7> S 	 -37.6792 	 71.7891 	 166.248
|  8> C 	 -36.7391 	 72.7819 	 165.12
|  9> C 	 -36.459 	 73.9878 	 165.674
| 10> C 	 -37.0715 	 74.1551 	 166.995
| 11> C 	 -37.7096 	 73.0806 	 167.511
| 12> H 	 -36.9776 	 75.0013 	 167.648
| 13> C 	 -35.7981 	 75.1222 	 164.918
| 14> H 	 -34.7852 	 74.812 	 164.579
| 15> H 	 -35.7498 	 75.9803 	 165.602
| 16> C 	 -36.5036 	 75.4874 	 163.609
| 17> H 	 -36.2289 	 74.8494 	 162.713
| 18> H 	 -37.6018 	 75.4847 	 163.76
| 19> C 	 -36.1674 	 76.9641 	 163.132
| 20> H 	 -36.3876 	 77.1106 	 162.09
| 21> H 	 -36.7676 	 77.7192 	 163.687
| 22> H 	 -35.1232 	 77.3389 	 163.352
| 23> S 	 -37.6782 	 71.5942 	 169.89
| 24> C 	 -38.5291 	 72.1985 	 171.238
| 25> C 	 -39.2356 	 73.2874 	 170.955
| 26> C 	 -38.9683 	 73.8094 	 169.615
| 27> C 	 -38.2466 	 72.9885 	 168.875
| 28> H 	 -39.9595 	 73.6254 	 171.724
| 29> C 	 -39.5321 	 75.0687 	 169.105
| 30> H 	 -39.5234 	 75.0053 	 168.03
| 31> H 	 -38.8691 	 75.8728 	 169.522
| 32> C 	 -41.0166 	 75.4309 	 169.509
| 33> H 	 -41.5464 	 76.2857 	 169.125
| 34> H 	 -41.0098 	 75.6175 	 170.597
| 35> C 	 -41.9871 	 74.1948 	 169.329
| 36> H 	 -41.8264 	 73.4619 	 170.079
| 37> H 	 -41.8888 	 73.7363 	 168.348
| 38> H 	 -43.0157 	 74.5184 	 169.423
| 39> H 	 -36.3549 	 72.5147 	 164.118
| 40> H 	 -38.867 	 71.6585 	 172.076
| 41> *
| 42>
| 43>                          ****END OF INPUT****

CARTESIAN COORDINATES (ANGSTROEM)
---------------------------------
  S    -37.679200   71.789100  166.248000
  C    -36.739100   72.781900  165.120000
  C    -36.459000   73.987800  165.674000
  C    -37.071500   74.155100  166.995000
  C    -37.709600   73.080600  167.511000
  H    -36.977600   75.001300  167.648000
  C    -35.798100   75.122200  164.918000
  H    -34.785200   74.812000  164.579000
  H    -35.749800   75.980300  165.602000
  C    -36.503600   75.487400  163.609000
  H    -36.228900   74.849400  162.713000
  H    -37.601800   75.484700  163.760000
  C    -36.167400   76.964100  163.132000
  H    -36.387600   77.110600  162.090000
  H    -36.767600   77.719200  163.687000
  H    -35.123200   77.338900  163.352000
  S    -37.678200   71.594200  169.890000
  C    -38.529100   72.198500  171.238000
  C    -39.235600   73.287400  170.955000
  C    -38.968300   73.809400  169.615000
  C    -38.246600   72.988500  168.875000
  H    -39.959500   73.625400  171.724000
  C    -39.532100   75.068700  169.105000
  H    -39.523400   75.005300  168.030000
  H    -38.869100   75.872800  169.522000
  C    -41.016600   75.430900  169.509000
  H    -41.546400   76.285700  169.125000
  H    -41.009800   75.617500  170.597000
  C    -41.987100   74.194800  169.329000
  H    -41.826400   73.461900  170.079000
  H    -41.888800   73.736300  168.348000
  H    -43.015700   74.518400  169.423000
  H    -36.354900   72.514700  164.118000
  H    -38.867000   71.658500  172.076000

 Total Charge           Charge          ....    0
 Multiplicity           Mult            ....    1
 Number of Electrons    NEL             ....  134
 Basis Dimension        Dim             ....  322

ORBITAL ENERGIES
----------------

  NO   OCC          E(Eh)            E(eV)
   0   2.0000     -88.965429     -2420.8724
   1   2.0000     -88.958322     -2420.6790
   2   2.0000     -10.333768      -281.1961
   3   2.0000     -10.328083      -281.0414
   4   2.0000     -10.318748      -280.7874
   5   2.0000     -10.305250      -280.4201
   6   2.0000     -10.302139      -280.3355
   7   2.0000     -10.301746      -280.3248
   8   2.0000     -10.299121      -280.2533
   9   2.0000     -10.298466      -280.2355
  10   2.0000     -10.295718      -280.1607
  11   2.0000     -10.295312      -280.1497
  12   2.0000     -10.292735      -280.0796
  13   2.0000     -10.292204      -280.0651
  14   2.0000     -10.285628      -279.8862
  15   2.0000     -10.271499      -279.5017
  16   2.0000      -8.078912      -219.8384
  17   2.0000      -8.073655      -219.6953
  18   2.0000      -6.037812      -164.2972
  19   2.0000      -6.033532      -164.1808
  20   2.0000      -6.032401      -164.1500
  21   2.0000      -6.029363      -164.0673
  22   2.0000      -6.028244      -164.0369
  23   2.0000      -6.023934      -163.9196
  24   2.0000      -1.010109       -27.4865
  25   2.0000      -0.986065       -26.8322
  26   2.0000      -0.911797       -24.8113
  27   2.0000      -0.907150       -24.6848
  28   2.0000      -0.875091       -23.8124
  29   2.0000      -0.845113       -22.9967
  30   2.0000      -0.838354       -22.8128
  31   2.0000      -0.822915       -22.3926
  32   2.0000      -0.783029       -21.3073
  33   2.0000      -0.772498       -21.0207
  34   2.0000      -0.711289       -19.3551
  35   2.0000      -0.703604       -19.1460
  36   2.0000      -0.696091       -18.9416
  37   2.0000      -0.658266       -17.9123
  38   2.0000      -0.640846       -17.4383
  39   2.0000      -0.615520       -16.7492
  40   2.0000      -0.592559       -16.1243
  41   2.0000      -0.570810       -15.5325
  42   2.0000      -0.564334       -15.3563
  43   2.0000      -0.558083       -15.1862
  44   2.0000      -0.542536       -14.7631
  45   2.0000      -0.523820       -14.2539
  46   2.0000      -0.518403       -14.1065
  47   2.0000      -0.512979       -13.9589
  48   2.0000      -0.509225       -13.8567
  49   2.0000      -0.494692       -13.4612
  50   2.0000      -0.489069       -13.3082
  51   2.0000      -0.479031       -13.0351
  52   2.0000      -0.470768       -12.8102
  53   2.0000      -0.469307       -12.7705
  54   2.0000      -0.455944       -12.4069
  55   2.0000      -0.447810       -12.1855
  56   2.0000      -0.443005       -12.0548
  57   2.0000      -0.438233       -11.9249
  58   2.0000      -0.430709       -11.7202
  59   2.0000      -0.419378       -11.4119
  60   2.0000      -0.419240       -11.4081
  61   2.0000      -0.413964       -11.2645
  62   2.0000      -0.410645       -11.1742
  63   2.0000      -0.355670        -9.6783
  64   2.0000      -0.329226        -8.9587
  65   2.0000      -0.325861        -8.8671
  66   2.0000      -0.305017        -8.2999
  67   0.0000       0.032300         0.8789
  68   0.0000       0.073880         2.0104
  69   0.0000       0.114540         3.1168
  70   0.0000       0.122398         3.3306
  71   0.0000       0.128995         3.5101

MULLIKEN ATOMIC CHARGES
-----------------------
   0 S :    0.097856
   1 C :   -0.121713
   2 C :   -0.084269
   3 C :    0.024437
   4 C :   -0.137370
   5 H :    0.008946
   6 C :    0.079582
   7 H :    0.041563
   8 H :    0.027886
   9 C :   -0.110983
  10 H :    0.045945
  11 H :    0.047240
  12 C :   -0.088256
  13 H :    0.036010
  14 H :    0.031806
  15 H :    0.035720
  16 S :    0.083916
  17 C :   -0.037408
  18 C :   -0.075465
  19 C :   -0.053870
  20 C :   -0.148843
  21 H :    0.034949
  22 C :    0.060680
  23 H :    0.039984
  24 H :    0.055804
  25 C :   -0.089512
  26 H :    0.035202
  27 H :    0.020495
  28 C :   -0.048204
  29 H :    0.022322
  30 H :    0.036011
  31 H :    0.027019
  32 H :    0.059525
  33 H :    0.042994
Sum of atomic charges:    0.0000000

LOEWDIN ATOMIC CHARGES
----------------------
   0 S :    0.366854
   1 C :   -0.183900
   2 C :   -0.069673
   3 C :   -0.057440
   4 C :   -0.177101
   5 H :    0.028589
   6 C :   -0.035452
   7 H :    0.039808
   8 H :    0.031748
   9 C :   -0.045558
  10 H :    0.029985
  11 H :    0.028806
  12 C :   -0.077715
  13 H :    0.022041
  14 H :    0.025572
  15 H :    0.028001
  16 S :    0.378591
  17 C :   -0.188917
  18 C :   -0.075491
  19 C :   -0.057944
  20 C :   -0.166687
  21 H :    0.038680
  22 C :   -0.031964
  23 H :    0.029891
  24 H :    0.042879
  25 C :   -0.040707
  26 H :    0.025160
  27 H :    0.020584
  28 C :   -0.063809
  29 H :    0.017142
  30 H :    0.025517
  31 H :    0.023958
  32 H :    0.040675
  33 H :    0.027879

  Mayer bond orders larger than 0.100000
B(  0-S ,  1-C ) :   1.1180 B(  0-S ,  4-C ) :   1.1093 B(  1-C ,  2-C ) :   1.6515
B(  1-C , 32-H ) :   0.9646 B(  2-C ,  3-C ) :   1.1971 B(  2-C ,  6-C ) :   1.0333
B(  3-C ,  4-C ) :   1.6251 B(  3-C ,  5-H ) :   0.9928 B(  4-C , 20-C ) :   1.0324
B(  6-C ,  7-H ) :   0.9276 B(  6-C ,  8-H ) :   0.9499 B(  6-C ,  9-C ) :   1.0593
B(  9-C , 10-H ) :   0.9560 B(  9-C , 11-H ) :   0.9630 B(  9-C , 12-C ) :   1.0670
B( 12-C , 13-H ) :   0.9784 B( 12-C , 14-H ) :   0.9779 B( 12-C , 15-H ) :   0.9769
B( 16-S , 17-C ) :   1.1389 B( 16-S , 20-C ) :   1.0884 B( 17-C , 18-C ) :   1.7083
B( 17-C , 33-H ) :   0.9504 B( 18-C , 19-C ) :   1.1469 B( 18-C , 21-H ) :   0.9802
B( 19-C , 20-C ) :   1.7095 B( 19-C , 22-C ) :   1.0454 B( 22-C , 23-H ) :   0.9386
B( 22-C , 24-H ) :   0.9258 B( 22-C , 25-C ) :   1.0560 B( 25-C , 26-H ) :   0.9679
B( 25-C , 27-H ) :   0.9515 B( 25-C , 28-C ) :   1.0771 B( 28-C , 29-H ) :   0.9726
B( 28-C , 30-H ) :   0.9785 B( 28-C , 31-H ) :   0.9758

Dispersion correction           -0.014197073
FINAL SINGLE POINT ENERGY     -1339.863869407298

DIPOLE MOMENT
-------------
                                X             Y             Z
Electronic contribution:      7.01032     -23.46808      10.28943
Nuclear contribution   :     -7.20168      24.20037     -10.37926
                        -----------------------------------------
Total Dipole Moment    :     -0.19136       0.73229      -0.08983
                        -----------------------------------------
Magnitude (a.u.)       :      0.76219
Magnitude (Debye)      :      1.93734

Rotational constants in cm-1:     0.020740     0.007663     0.006319
Rotational constants in MHz :   621.767602   229.740165   189.441444

                             ****ORCA TERMINATED NORMALLY****
TOTAL RUN TIME: 0 days 0 hours 0 minutes 33 seconds 804 msec
