                         Program Version 4.2.1 -  RELEASE  -
|  1> ! wB97X-D3 SP def2-SVP
|  2> %pal
|  3> nprocs 16
|  4> end
|  5>
|  6> * xyz 0 1
|  7> S 	 32.3773 	 25.8388 	 55.0154
|  8> C 	 31.3452 	 27.2354 	 54.781
|  9> C 	 30.3031 	 27.263 	 55.6636
| 10> C 	 30.395 	 26.1633 	 56.6395
| 11> C 	 31.5494 	 25.4287 	 56.5109
| 12> H 	 29.835 	 25.9066 	 57.4907
| 13> C 	 29.2677 	 28.2599 	 55.8135
| 14> H 	 28.4344 	 27.9191 	 56.4679
| 15> H 	 28.7971 	 28.3146 	 54.79
| 16> C 	 29.6193 	 29.6983 	 56.2505
| 17> H 	 29.9294 	 29.6973 	 57.275
| 18> H 	 30.5953 	 29.9381 	 55.676
| 19> C 	 28.4749 	 30.7196 	 56.0265
| 20> H 	 27.7552 	 30.5643 	 56.749
| 21> H 	 28.7941 	 31.7427 	 55.9872
| 22> H 	 28.0139 	 30.4927 	 55.0806
| 23> S 	 32.274 	 24.4825 	 59.0441
| 24> C 	 32.7897 	 22.8173 	 59.1642
| 25> C 	 32.4709 	 22.1908 	 58.0246
| 26> C 	 31.9367 	 22.9906 	 56.9783
| 27> C 	 31.9286 	 24.311 	 57.3046
| 28> H 	 32.6591 	 21.1596 	 57.8903
| 29> C 	 31.6934 	 22.4042 	 55.6074
| 30> H 	 31.0593 	 23.0723 	 55.1164
| 31> H 	 31.0605 	 21.5295 	 55.7399
| 32> C 	 32.9914 	 22.1288 	 54.9296
| 33> H 	 33.6165 	 21.4557 	 55.5067
| 34> H 	 33.5176 	 23.1076 	 54.8525
| 35> C 	 32.7464 	 21.3171 	 53.6127
| 36> H 	 31.9868 	 21.8239 	 53.0005
| 37> H 	 32.3576 	 20.2998 	 53.7907
| 38> H 	 33.7121 	 21.1712 	 53.0517
| 39> H 	 31.4574 	 27.9711 	 53.9833
| 40> H 	 33.0043 	 22.2369 	 60.0598
| 41> *
| 42>
| 43>                          ****END OF INPUT****

CARTESIAN COORDINATES (ANGSTROEM)
---------------------------------
  S     32.377300   25.838800   55.015400
  C     31.345200   27.235400   54.781000
  C     30.303100   27.263000   55.663600
  C     30.395000   26.163300   56.639500
  C     31.549400   25.428700   56.510900
  H     29.835000   25.906600   57.490700
  C     29.267700   28.259900   55.813500
  H     28.434400   27.919100   56.467900
  H     28.797100   28.314600   54.790000
  C     29.619300   29.698300   56.250500
  H     29.929400   29.697300   57.275000
  H     30.595300   29.938100   55.676000
  C     28.474900   30.719600   56.026500
  H     27.755200   30.564300   56.749000
  H     28.794100   31.742700   55.987200
  H     28.013900   30.492700   55.080600
  S     32.274000   24.482500   59.044100
  C     32.789700   22.817300   59.164200
  C     32.470900   22.190800   58.024600
  C     31.936700   22.990600   56.978300
  C     31.928600   24.311000   57.304600
  H     32.659100   21.159600   57.890300
  C     31.693400   22.404200   55.607400
  H     31.059300   23.072300   55.116400
  H     31.060500   21.529500   55.739900
  C     32.991400   22.128800   54.929600
  H     33.616500   21.455700   55.506700
  H     33.517600   23.107600   54.852500
  C     32.746400   21.317100   53.612700
  H     31.986800   21.823900   53.000500
  H     32.357600   20.299800   53.790700
  H     33.712100   21.171200   53.051700
  H     31.457400   27.971100   53.983300
  H     33.004300   22.236900   60.059800

 Total Charge           Charge          ....    0
 Multiplicity           Mult            ....    1
 Number of Electrons    NEL             ....  134
 Basis Dimension        Dim             ....  322

ORBITAL ENERGIES
----------------

  NO   OCC          E(Eh)            E(eV)
   0   2.0000     -88.967044     -2420.9163
   1   2.0000     -88.961272     -2420.7593
   2   2.0000     -10.324530      -280.9447
   3   2.0000     -10.320895      -280.8458
   4   2.0000     -10.315440      -280.6974
   5   2.0000     -10.311962      -280.6027
   6   2.0000     -10.302800      -280.3534
   7   2.0000     -10.293668      -280.1050
   8   2.0000     -10.292588      -280.0756
   9   2.0000     -10.292376      -280.0698
  10   2.0000     -10.292224      -280.0657
  11   2.0000     -10.286624      -279.9133
  12   2.0000     -10.283345      -279.8240
  13   2.0000     -10.282085      -279.7898
  14   2.0000     -10.280318      -279.7417
  15   2.0000     -10.273176      -279.5473
  16   2.0000      -8.081245      -219.9018
  17   2.0000      -8.075760      -219.7526
  18   2.0000      -6.039882      -164.3535
  19   2.0000      -6.035880      -164.2447
  20   2.0000      -6.034469      -164.2062
  21   2.0000      -6.031870      -164.1355
  22   2.0000      -6.030412      -164.0959
  23   2.0000      -6.026203      -163.9813
  24   2.0000      -1.010165       -27.4880
  25   2.0000      -0.986847       -26.8535
  26   2.0000      -0.916327       -24.9345
  27   2.0000      -0.913317       -24.8526
  28   2.0000      -0.876468       -23.8499
  29   2.0000      -0.851618       -23.1737
  30   2.0000      -0.843044       -22.9404
  31   2.0000      -0.817753       -22.2522
  32   2.0000      -0.782887       -21.3034
  33   2.0000      -0.771756       -21.0006
  34   2.0000      -0.707841       -19.2613
  35   2.0000      -0.707049       -19.2398
  36   2.0000      -0.700161       -19.0524
  37   2.0000      -0.663133       -18.0448
  38   2.0000      -0.645731       -17.5712
  39   2.0000      -0.610619       -16.6158
  40   2.0000      -0.597712       -16.2646
  41   2.0000      -0.576828       -15.6963
  42   2.0000      -0.564287       -15.3550
  43   2.0000      -0.557933       -15.1821
  44   2.0000      -0.530150       -14.4261
  45   2.0000      -0.523540       -14.2462
  46   2.0000      -0.519006       -14.1229
  47   2.0000      -0.516409       -14.0522
  48   2.0000      -0.509629       -13.8677
  49   2.0000      -0.503363       -13.6972
  50   2.0000      -0.494077       -13.4445
  51   2.0000      -0.483751       -13.1635
  52   2.0000      -0.472225       -12.8499
  53   2.0000      -0.460375       -12.5274
  54   2.0000      -0.458919       -12.4878
  55   2.0000      -0.447158       -12.1678
  56   2.0000      -0.443648       -12.0723
  57   2.0000      -0.442500       -12.0410
  58   2.0000      -0.437837       -11.9142
  59   2.0000      -0.426400       -11.6029
  60   2.0000      -0.419590       -11.4176
  61   2.0000      -0.411140       -11.1877
  62   2.0000      -0.407332       -11.0841
  63   2.0000      -0.343476        -9.3465
  64   2.0000      -0.328803        -8.9472
  65   2.0000      -0.324263        -8.8236
  66   2.0000      -0.302947        -8.2436
  67   0.0000       0.036794         1.0012
  68   0.0000       0.062835         1.7098
  69   0.0000       0.099535         2.7085
  70   0.0000       0.118507         3.2247
  71   0.0000       0.133732         3.6390

MULLIKEN ATOMIC CHARGES
-----------------------
   0 S :    0.100017
   1 C :   -0.118338
   2 C :   -0.046764
   3 C :    0.053185
   4 C :   -0.182017
   5 H :   -0.004694
   6 C :    0.016330
   7 H :    0.027235
   8 H :    0.031771
   9 C :   -0.085024
  10 H :    0.027443
  11 H :    0.028200
  12 C :    0.008700
  13 H :    0.019093
  14 H :    0.038876
  15 H :    0.015256
  16 S :    0.093532
  17 C :   -0.069195
  18 C :   -0.031253
  19 C :   -0.042310
  20 C :   -0.178594
  21 H :   -0.000357
  22 C :    0.112128
  23 H :    0.008569
  24 H :    0.013971
  25 C :   -0.061226
  26 H :    0.025220
  27 H :    0.037138
  28 C :   -0.061319
  29 H :    0.033872
  30 H :    0.033263
  31 H :    0.045290
  32 H :    0.050487
  33 H :    0.061517
Sum of atomic charges:   -0.0000000

LOEWDIN ATOMIC CHARGES
----------------------
   0 S :    0.402788
   1 C :   -0.193512
   2 C :   -0.063039
   3 C :   -0.048781
   4 C :   -0.187260
   5 H :    0.024547
   6 C :   -0.048929
   7 H :    0.032753
   8 H :    0.037634
   9 C :   -0.037622
  10 H :    0.019678
  11 H :    0.027512
  12 C :   -0.052902
  13 H :    0.017320
  14 H :    0.028913
  15 H :    0.023526
  16 S :    0.383604
  17 C :   -0.184953
  18 C :   -0.069093
  19 C :   -0.051305
  20 C :   -0.193813
  21 H :    0.022299
  22 C :   -0.030553
  23 H :    0.018721
  24 H :    0.030987
  25 C :   -0.037104
  26 H :    0.023013
  27 H :    0.025065
  28 C :   -0.070655
  29 H :    0.023852
  30 H :    0.026035
  31 H :    0.031340
  32 H :    0.031735
  33 H :    0.038197

  Mayer bond orders larger than 0.100000
B(  0-S ,  1-C ) :   1.1232 B(  0-S ,  4-C ) :   1.1272 B(  1-C ,  2-C ) :   1.6373
B(  1-C , 32-H ) :   0.9675 B(  2-C ,  3-C ) :   1.1795 B(  2-C ,  6-C ) :   1.0465
B(  3-C ,  4-C ) :   1.6320 B(  3-C ,  5-H ) :   0.9976 B(  4-C , 20-C ) :   1.0389
B(  6-C ,  7-H ) :   0.9407 B(  6-C ,  8-H ) :   0.9253 B(  6-C ,  9-C ) :   1.0589
B(  9-C , 10-H ) :   0.9565 B(  9-C , 11-H ) :   0.9586 B(  9-C , 12-C ) :   1.0651
B( 12-C , 13-H ) :   0.9756 B( 12-C , 14-H ) :   0.9749 B( 12-C , 15-H ) :   0.9757
B( 16-S , 17-C ) :   1.1305 B( 16-S , 20-C ) :   1.1171 B( 17-C , 18-C ) :   1.6403
B( 17-C , 33-H ) :   0.9616 B( 18-C , 19-C ) :   1.2256 B( 18-C , 21-H ) :   0.9901
B( 19-C , 20-C ) :   1.6122 B( 19-C , 22-C ) :   1.0548 B( 22-C , 23-H ) :   0.9165
B( 22-C , 24-H ) :   0.9230 B( 22-C , 25-C ) :   1.0674 B( 25-C , 26-H ) :   0.9578
B( 25-C , 27-H ) :   0.9477 B( 25-C , 28-C ) :   1.0690 B( 28-C , 29-H ) :   0.9759
B( 28-C , 30-H ) :   0.9748 B( 28-C , 31-H ) :   0.9749

Dispersion correction           -0.014258911
FINAL SINGLE POINT ENERGY     -1339.871515735389

DIPOLE MOMENT
-------------
                                X             Y             Z
Electronic contribution:      9.42380      -4.36119      11.78880
Nuclear contribution   :     -9.85497       4.24922     -11.94655
                        -----------------------------------------
Total Dipole Moment    :     -0.43117      -0.11197      -0.15775
                        -----------------------------------------
Magnitude (a.u.)       :      0.47258
Magnitude (Debye)      :      1.20120

Rotational constants in cm-1:     0.022606     0.007524     0.006061
Rotational constants in MHz :   677.699964   225.564812   181.718643

                             ****ORCA TERMINATED NORMALLY****
TOTAL RUN TIME: 0 days 0 hours 0 minutes 32 seconds 485 msec
