                         Program Version 4.2.1 -  RELEASE  -
|  1> ! wB97X-D3 SP def2-SVP
|  2> %pal
|  3> nprocs 16
|  4> end
|  5>
|  6> * xyz 0 1
|  7> S 	 -24.8867 	 50.2516 	 64.9644
|  8> C 	 -23.9372 	 51.0231 	 63.7075
|  9> C 	 -22.9603 	 51.8084 	 64.2423
| 10> C 	 -22.88 	 51.7395 	 65.6347
| 11> C 	 -23.8098 	 50.9097 	 66.1348
| 12> H 	 -22.2169 	 52.3272 	 66.2309
| 13> C 	 -21.968 	 52.5489 	 63.378
| 14> H 	 -22.2317 	 53.5987 	 63.3459
| 15> H 	 -22.0759 	 52.2332 	 62.3512
| 16> C 	 -20.5477 	 52.3491 	 63.8431
| 17> H 	 -19.9478 	 53.0081 	 63.1903
| 18> H 	 -20.2975 	 52.7543 	 64.8115
| 19> C 	 -20.1182 	 50.7539 	 63.7874
| 20> H 	 -20.7062 	 50.1806 	 64.5426
| 21> H 	 -20.1078 	 50.3687 	 62.7539
| 22> H 	 -19.1229 	 50.5975 	 64.1725
| 23> S 	 -25.4631 	 51.1179 	 68.2613
| 24> C 	 -25.0233 	 50.5662 	 69.8791
| 25> C 	 -23.7391 	 50.0128 	 69.8072
| 26> C 	 -23.0823 	 50.1635 	 68.54
| 27> C 	 -23.9016 	 50.6975 	 67.5679
| 28> H 	 -23.314 	 49.5407 	 70.735
| 29> C 	 -21.709 	 49.6257 	 68.2827
| 30> H 	 -20.9732 	 50.2767 	 68.6548
| 31> H 	 -21.546 	 49.5677 	 67.182
| 32> C 	 -21.4534 	 48.2306 	 68.916
| 33> H 	 -22.2688 	 47.5184 	 68.5645
| 34> H 	 -21.5403 	 48.1746 	 70.0163
| 35> C 	 -20.0233 	 47.7539 	 68.4465
| 36> H 	 -19.2463 	 48.3413 	 68.8294
| 37> H 	 -19.9479 	 47.6604 	 67.4017
| 38> H 	 -19.7432 	 46.7339 	 68.7829
| 39> H 	 -24.1335 	 51.082 	 62.6365
| 40> H 	 -25.6952 	 50.5 	 70.8192
| 41> *
| 42>
| 43>                          ****END OF INPUT****

CARTESIAN COORDINATES (ANGSTROEM)
---------------------------------
  S    -24.886700   50.251600   64.964400
  C    -23.937200   51.023100   63.707500
  C    -22.960300   51.808400   64.242300
  C    -22.880000   51.739500   65.634700
  C    -23.809800   50.909700   66.134800
  H    -22.216900   52.327200   66.230900
  C    -21.968000   52.548900   63.378000
  H    -22.231700   53.598700   63.345900
  H    -22.075900   52.233200   62.351200
  C    -20.547700   52.349100   63.843100
  H    -19.947800   53.008100   63.190300
  H    -20.297500   52.754300   64.811500
  C    -20.118200   50.753900   63.787400
  H    -20.706200   50.180600   64.542600
  H    -20.107800   50.368700   62.753900
  H    -19.122900   50.597500   64.172500
  S    -25.463100   51.117900   68.261300
  C    -25.023300   50.566200   69.879100
  C    -23.739100   50.012800   69.807200
  C    -23.082300   50.163500   68.540000
  C    -23.901600   50.697500   67.567900
  H    -23.314000   49.540700   70.735000
  C    -21.709000   49.625700   68.282700
  H    -20.973200   50.276700   68.654800
  H    -21.546000   49.567700   67.182000
  C    -21.453400   48.230600   68.916000
  H    -22.268800   47.518400   68.564500
  H    -21.540300   48.174600   70.016300
  C    -20.023300   47.753900   68.446500
  H    -19.246300   48.341300   68.829400
  H    -19.947900   47.660400   67.401700
  H    -19.743200   46.733900   68.782900
  H    -24.133500   51.082000   62.636500
  H    -25.695200   50.500000   70.819200

 Total Charge           Charge          ....    0
 Multiplicity           Mult            ....    1
 Number of Electrons    NEL             ....  134
 Basis Dimension        Dim             ....  322

ORBITAL ENERGIES
----------------

  NO   OCC          E(Eh)            E(eV)
   0   2.0000     -88.970108     -2420.9997
   1   2.0000     -88.960079     -2420.7268
   2   2.0000     -10.325237      -280.9640
   3   2.0000     -10.323612      -280.9198
   4   2.0000     -10.322800      -280.8977
   5   2.0000     -10.308630      -280.5121
   6   2.0000     -10.301643      -280.3220
   7   2.0000     -10.298147      -280.2268
   8   2.0000     -10.296799      -280.1901
   9   2.0000     -10.294784      -280.1353
  10   2.0000     -10.290185      -280.0102
  11   2.0000     -10.288713      -279.9701
  12   2.0000     -10.288169      -279.9553
  13   2.0000     -10.286847      -279.9193
  14   2.0000     -10.284171      -279.8465
  15   2.0000     -10.273902      -279.5671
  16   2.0000      -8.085030      -220.0048
  17   2.0000      -8.074581      -219.7205
  18   2.0000      -6.043596      -164.4546
  19   2.0000      -6.039603      -164.3460
  20   2.0000      -6.035628      -164.2378
  21   2.0000      -6.033240      -164.1728
  22   2.0000      -6.028927      -164.0554
  23   2.0000      -6.025392      -163.9593
  24   2.0000      -1.014492       -27.6057
  25   2.0000      -0.984585       -26.7919
  26   2.0000      -0.912545       -24.8316
  27   2.0000      -0.904154       -24.6033
  28   2.0000      -0.868193       -23.6247
  29   2.0000      -0.846346       -23.0303
  30   2.0000      -0.840837       -22.8803
  31   2.0000      -0.812462       -22.1082
  32   2.0000      -0.781853       -21.2753
  33   2.0000      -0.771783       -21.0013
  34   2.0000      -0.713071       -19.4036
  35   2.0000      -0.702769       -19.1233
  36   2.0000      -0.694202       -18.8902
  37   2.0000      -0.651507       -17.7284
  38   2.0000      -0.638626       -17.3779
  39   2.0000      -0.628568       -17.1042
  40   2.0000      -0.593538       -16.1510
  41   2.0000      -0.563998       -15.3472
  42   2.0000      -0.562612       -15.3095
  43   2.0000      -0.554689       -15.0939
  44   2.0000      -0.534204       -14.5364
  45   2.0000      -0.517894       -14.0926
  46   2.0000      -0.513831       -13.9821
  47   2.0000      -0.509523       -13.8648
  48   2.0000      -0.500397       -13.6165
  49   2.0000      -0.497091       -13.5265
  50   2.0000      -0.491086       -13.3631
  51   2.0000      -0.476503       -12.9663
  52   2.0000      -0.466734       -12.7005
  53   2.0000      -0.463619       -12.6157
  54   2.0000      -0.460748       -12.5376
  55   2.0000      -0.451891       -12.2966
  56   2.0000      -0.444434       -12.0937
  57   2.0000      -0.442930       -12.0527
  58   2.0000      -0.432794       -11.7769
  59   2.0000      -0.424559       -11.5528
  60   2.0000      -0.422246       -11.4899
  61   2.0000      -0.415156       -11.2970
  62   2.0000      -0.411801       -11.2057
  63   2.0000      -0.343382        -9.3439
  64   2.0000      -0.332973        -9.0607
  65   2.0000      -0.325704        -8.8629
  66   2.0000      -0.297763        -8.1025
  67   0.0000       0.036538         0.9943
  68   0.0000       0.069955         1.9036
  69   0.0000       0.118788         3.2324
  70   0.0000       0.126967         3.4550
  71   0.0000       0.131634         3.5819

MULLIKEN ATOMIC CHARGES
-----------------------
   0 S :    0.133926
   1 C :   -0.127994
   2 C :   -0.089398
   3 C :    0.014866
   4 C :   -0.123776
   5 H :    0.005562
   6 C :    0.118922
   7 H :    0.032817
   8 H :    0.007654
   9 C :   -0.093556
  10 H :    0.026680
  11 H :    0.026138
  12 C :   -0.076812
  13 H :    0.056685
  14 H :    0.047649
  15 H :    0.024410
  16 S :    0.087994
  17 C :   -0.124910
  18 C :   -0.072184
  19 C :   -0.002775
  20 C :   -0.185447
  21 H :    0.037907
  22 C :    0.085429
  23 H :    0.019749
  24 H :    0.035073
  25 C :   -0.136367
  26 H :    0.046336
  27 H :    0.040005
  28 C :   -0.016753
  29 H :    0.020725
  30 H :    0.021881
  31 H :    0.023549
  32 H :    0.043655
  33 H :    0.092361
Sum of atomic charges:    0.0000000

LOEWDIN ATOMIC CHARGES
----------------------
   0 S :    0.419430
   1 C :   -0.202335
   2 C :   -0.063233
   3 C :   -0.057093
   4 C :   -0.202905
   5 H :    0.031419
   6 C :   -0.030908
   7 H :    0.032771
   8 H :    0.027648
   9 C :   -0.038742
  10 H :    0.026326
  11 H :    0.018625
  12 C :   -0.069856
  13 H :    0.032459
  14 H :    0.029458
  15 H :    0.021595
  16 S :    0.391026
  17 C :   -0.203368
  18 C :   -0.082101
  19 C :   -0.062916
  20 C :   -0.188512
  21 H :    0.038302
  22 C :   -0.030869
  23 H :    0.024632
  24 H :    0.035836
  25 C :   -0.040256
  26 H :    0.032377
  27 H :    0.022396
  28 C :   -0.062294
  29 H :    0.017611
  30 H :    0.019256
  31 H :    0.029062
  32 H :    0.031543
  33 H :    0.053615

  Mayer bond orders larger than 0.100000
B(  0-S ,  1-C ) :   1.1164 B(  0-S ,  4-C ) :   1.1576 B(  1-C ,  2-C ) :   1.6397
B(  1-C , 32-H ) :   0.9613 B(  2-C ,  3-C ) :   1.2353 B(  2-C ,  6-C ) :   1.0190
B(  3-C ,  4-C ) :   1.5583 B(  3-C ,  5-H ) :   1.0102 B(  4-C , 20-C ) :   1.0224
B(  6-C ,  7-H ) :   0.9257 B(  6-C ,  8-H ) :   0.9389 B(  6-C ,  9-C ) :   1.0822
B(  9-C , 10-H ) :   0.9558 B(  9-C , 11-H ) :   0.9542 B(  9-C , 12-C ) :   1.0539
B( 12-C , 13-H ) :   0.9730 B( 12-C , 14-H ) :   0.9783 B( 12-C , 15-H ) :   0.9768
B( 16-S , 17-C ) :   1.1483 B( 16-S , 20-C ) :   1.1397 B( 17-C , 18-C ) :   1.6130
B( 17-C , 20-C ) :   0.1028 B( 17-C , 33-H ) :   0.9551 B( 18-C , 19-C ) :   1.2300
B( 18-C , 21-H ) :   0.9795 B( 19-C , 20-C ) :   1.6080 B( 19-C , 22-C ) :   1.0444
B( 22-C , 23-H ) :   0.9200 B( 22-C , 24-H ) :   0.9409 B( 22-C , 25-C ) :   1.0575
B( 25-C , 26-H ) :   0.9600 B( 25-C , 27-H ) :   0.9526 B( 25-C , 28-C ) :   1.0770
B( 28-C , 29-H ) :   0.9756 B( 28-C , 30-H ) :   0.9770 B( 28-C , 31-H ) :   0.9729

Dispersion correction           -0.014918002
FINAL SINGLE POINT ENERGY     -1339.874739574183

DIPOLE MOMENT
-------------
                                X             Y             Z
Electronic contribution:    -28.43270       5.76180       3.11490
Nuclear contribution   :     29.11362      -5.70986      -3.15748
                        -----------------------------------------
Total Dipole Moment    :      0.68092       0.05195      -0.04259
                        -----------------------------------------
Magnitude (a.u.)       :      0.68423
Magnitude (Debye)      :      1.73917

Rotational constants in cm-1:     0.016667     0.010289     0.007288
Rotational constants in MHz :   499.678267   308.460632   218.480280

                             ****ORCA TERMINATED NORMALLY****
TOTAL RUN TIME: 0 days 0 hours 0 minutes 32 seconds 596 msec
