                         Program Version 4.2.1 -  RELEASE  -
|  1> ! wB97X-D3 SP def2-SVP
|  2> %pal
|  3> nprocs 16
|  4> end
|  5>
|  6> * xyz 0 1
|  7> S 	 -22.8692 	 -8.48798 	 86.2755
|  8> C 	 -23.2097 	 -9.83386 	 85.1496
|  9> C 	 -22.1058 	 -10.1056 	 84.3454
| 10> C 	 -21.0741 	 -9.15128 	 84.5299
| 11> C 	 -21.2711 	 -8.24751 	 85.5493
| 12> H 	 -20.0944 	 -9.18303 	 84.013
| 13> C 	 -21.9265 	 -11.4002 	 83.5364
| 14> H 	 -20.962 	 -11.3243 	 82.8831
| 15> H 	 -22.6474 	 -11.4723 	 82.6351
| 16> C 	 -21.8576 	 -12.6758 	 84.3476
| 17> H 	 -22.7401 	 -12.7585 	 85.0206
| 18> H 	 -21.7432 	 -13.4677 	 83.6601
| 19> C 	 -20.6406 	 -12.6977 	 85.3826
| 20> H 	 -19.6455 	 -12.3945 	 85.0145
| 21> H 	 -20.8672 	 -12.2164 	 86.3354
| 22> H 	 -20.5929 	 -13.6687 	 85.7549
| 23> S 	 -20.3396 	 -6.63486 	 87.5701
| 24> C 	 -19.2082 	 -5.37268 	 87.2564
| 25> C 	 -18.786 	 -5.35231 	 85.9461
| 26> C 	 -19.4234 	 -6.40051 	 85.2166
| 27> C 	 -20.3652 	 -7.14332 	 85.9383
| 28> H 	 -18.1304 	 -4.66185 	 85.5003
| 29> C 	 -19.114 	 -6.63648 	 83.7469
| 30> H 	 -19.1487 	 -5.648 	 83.2922
| 31> H 	 -19.9021 	 -7.11434 	 83.1721
| 32> C 	 -17.7651 	 -7.40254 	 83.5573
| 33> H 	 -17.9086 	 -8.44912 	 83.9983
| 34> H 	 -16.875 	 -6.89354 	 84.112
| 35> C 	 -17.4738 	 -7.71351 	 82.0922
| 36> H 	 -18.3846 	 -7.88777 	 81.5036
| 37> H 	 -16.7476 	 -8.55195 	 81.8884
| 38> H 	 -16.8726 	 -6.9077 	 81.6077
| 39> H 	 -24.0352 	 -10.493 	 85.4069
| 40> H 	 -18.8564 	 -4.73339 	 88.049
| 41> *
| 42>
| 43>                          ****END OF INPUT****

CARTESIAN COORDINATES (ANGSTROEM)
---------------------------------
  S    -22.869200   -8.487980   86.275500
  C    -23.209700   -9.833860   85.149600
  C    -22.105800  -10.105600   84.345400
  C    -21.074100   -9.151280   84.529900
  C    -21.271100   -8.247510   85.549300
  H    -20.094400   -9.183030   84.013000
  C    -21.926500  -11.400200   83.536400
  H    -20.962000  -11.324300   82.883100
  H    -22.647400  -11.472300   82.635100
  C    -21.857600  -12.675800   84.347600
  H    -22.740100  -12.758500   85.020600
  H    -21.743200  -13.467700   83.660100
  C    -20.640600  -12.697700   85.382600
  H    -19.645500  -12.394500   85.014500
  H    -20.867200  -12.216400   86.335400
  H    -20.592900  -13.668700   85.754900
  S    -20.339600   -6.634860   87.570100
  C    -19.208200   -5.372680   87.256400
  C    -18.786000   -5.352310   85.946100
  C    -19.423400   -6.400510   85.216600
  C    -20.365200   -7.143320   85.938300
  H    -18.130400   -4.661850   85.500300
  C    -19.114000   -6.636480   83.746900
  H    -19.148700   -5.648000   83.292200
  H    -19.902100   -7.114340   83.172100
  C    -17.765100   -7.402540   83.557300
  H    -17.908600   -8.449120   83.998300
  H    -16.875000   -6.893540   84.112000
  C    -17.473800   -7.713510   82.092200
  H    -18.384600   -7.887770   81.503600
  H    -16.747600   -8.551950   81.888400
  H    -16.872600   -6.907700   81.607700
  H    -24.035200  -10.493000   85.406900
  H    -18.856400   -4.733390   88.049000

 Total Charge           Charge          ....    0
 Multiplicity           Mult            ....    1
 Number of Electrons    NEL             ....  134
 Basis Dimension        Dim             ....  322

ORBITAL ENERGIES
----------------

  NO   OCC          E(Eh)            E(eV)
   0   2.0000     -88.966526     -2420.9023
   1   2.0000     -88.965476     -2420.8737
   2   2.0000     -10.334372      -281.2126
   3   2.0000     -10.325947      -280.9833
   4   2.0000     -10.317931      -280.7652
   5   2.0000     -10.317578      -280.7556
   6   2.0000     -10.306887      -280.4647
   7   2.0000     -10.306668      -280.4587
   8   2.0000     -10.304070      -280.3880
   9   2.0000     -10.302912      -280.3565
  10   2.0000     -10.294343      -280.1233
  11   2.0000     -10.293959      -280.1129
  12   2.0000     -10.292829      -280.0821
  13   2.0000     -10.291935      -280.0578
  14   2.0000     -10.285484      -279.8823
  15   2.0000     -10.274067      -279.5716
  16   2.0000      -8.081543      -219.9100
  17   2.0000      -8.080397      -219.8788
  18   2.0000      -6.039863      -164.3530
  19   2.0000      -6.039014      -164.3299
  20   2.0000      -6.035790      -164.2422
  21   2.0000      -6.035046      -164.2219
  22   2.0000      -6.032504      -164.1528
  23   2.0000      -6.031080      -164.1140
  24   2.0000      -1.009586       -27.4722
  25   2.0000      -0.984193       -26.7812
  26   2.0000      -0.906683       -24.6721
  27   2.0000      -0.905668       -24.6445
  28   2.0000      -0.867041       -23.5934
  29   2.0000      -0.851744       -23.1771
  30   2.0000      -0.841851       -22.9079
  31   2.0000      -0.813643       -22.1404
  32   2.0000      -0.782687       -21.2980
  33   2.0000      -0.770776       -20.9739
  34   2.0000      -0.702859       -19.1258
  35   2.0000      -0.697646       -18.9839
  36   2.0000      -0.691130       -18.8066
  37   2.0000      -0.669172       -18.2091
  38   2.0000      -0.637759       -17.3543
  39   2.0000      -0.617016       -16.7899
  40   2.0000      -0.600118       -16.3300
  41   2.0000      -0.578585       -15.7441
  42   2.0000      -0.556398       -15.1404
  43   2.0000      -0.542840       -14.7714
  44   2.0000      -0.539783       -14.6882
  45   2.0000      -0.524330       -14.2677
  46   2.0000      -0.517744       -14.0885
  47   2.0000      -0.510687       -13.8965
  48   2.0000      -0.500522       -13.6199
  49   2.0000      -0.494828       -13.4649
  50   2.0000      -0.487930       -13.2772
  51   2.0000      -0.471887       -12.8407
  52   2.0000      -0.471239       -12.8231
  53   2.0000      -0.468040       -12.7360
  54   2.0000      -0.460159       -12.5216
  55   2.0000      -0.451389       -12.2829
  56   2.0000      -0.446660       -12.1542
  57   2.0000      -0.438239       -11.9251
  58   2.0000      -0.435811       -11.8590
  59   2.0000      -0.423339       -11.5196
  60   2.0000      -0.418059       -11.3760
  61   2.0000      -0.406036       -11.0488
  62   2.0000      -0.403683       -10.9848
  63   2.0000      -0.356649        -9.7049
  64   2.0000      -0.334862        -9.1121
  65   2.0000      -0.330729        -8.9996
  66   2.0000      -0.286906        -7.8071
  67   0.0000       0.023450         0.6381
  68   0.0000       0.075739         2.0610
  69   0.0000       0.106758         2.9050
  70   0.0000       0.122888         3.3439
  71   0.0000       0.128345         3.4925

MULLIKEN ATOMIC CHARGES
-----------------------
   0 S :    0.090537
   1 C :   -0.140514
   2 C :   -0.038012
   3 C :   -0.015957
   4 C :   -0.101170
   5 H :    0.013131
   6 C :   -0.015750
   7 H :    0.027731
   8 H :    0.049727
   9 C :   -0.037453
  10 H :    0.036256
  11 H :    0.029230
  12 C :   -0.051928
  13 H :    0.038242
  14 H :    0.034781
  15 H :    0.010748
  16 S :    0.106472
  17 C :   -0.085131
  18 C :    0.011935
  19 C :   -0.073958
  20 C :   -0.128624
  21 H :    0.001849
  22 C :    0.042449
  23 H :    0.022919
  24 H :    0.022629
  25 C :   -0.112640
  26 H :    0.045883
  27 H :    0.053620
  28 C :   -0.065197
  29 H :    0.038329
  30 H :    0.037934
  31 H :    0.031045
  32 H :    0.062497
  33 H :    0.058392
Sum of atomic charges:   -0.0000000

LOEWDIN ATOMIC CHARGES
----------------------
   0 S :    0.378510
   1 C :   -0.186694
   2 C :   -0.060781
   3 C :   -0.073251
   4 C :   -0.177614
   5 H :    0.035278
   6 C :   -0.049172
   7 H :    0.034514
   8 H :    0.039187
   9 C :   -0.031268
  10 H :    0.029724
  11 H :    0.020259
  12 C :   -0.068832
  13 H :    0.025618
  14 H :    0.030716
  15 H :    0.018117
  16 S :    0.433998
  17 C :   -0.184569
  18 C :   -0.062793
  19 C :   -0.054298
  20 C :   -0.213892
  21 H :    0.027126
  22 C :   -0.039255
  23 H :    0.030008
  24 H :    0.027864
  25 C :   -0.050769
  26 H :    0.030312
  27 H :    0.036593
  28 C :   -0.083345
  29 H :    0.026497
  30 H :    0.031284
  31 H :    0.027066
  32 H :    0.026635
  33 H :    0.027227

  Mayer bond orders larger than 0.100000
B(  0-S ,  1-C ) :   1.1303 B(  0-S ,  4-C ) :   1.1450 B(  1-C ,  2-C ) :   1.5966
B(  1-C ,  4-C ) :   0.1063 B(  1-C , 32-H ) :   0.9675 B(  2-C ,  3-C ) :   1.2555
B(  2-C ,  6-C ) :   1.0057 B(  3-C ,  4-C ) :   1.5783 B(  3-C ,  5-H ) :   0.9840
B(  4-C , 20-C ) :   1.0401 B(  6-C ,  7-H ) :   0.9453 B(  6-C ,  8-H ) :   0.9421
B(  6-C ,  9-C ) :   1.0753 B(  9-C , 10-H ) :   0.9558 B(  9-C , 11-H ) :   0.9569
B(  9-C , 12-C ) :   1.0677 B( 12-C , 13-H ) :   0.9789 B( 12-C , 14-H ) :   0.9731
B( 12-C , 15-H ) :   0.9714 B( 16-S , 17-C ) :   1.1814 B( 16-S , 20-C ) :   1.1494
B( 17-C , 18-C ) :   1.5518 B( 17-C , 33-H ) :   0.9709 B( 18-C , 19-C ) :   1.2818
B( 18-C , 21-H ) :   1.0028 B( 19-C , 20-C ) :   1.5692 B( 19-C , 22-C ) :   1.0412
B( 22-C , 23-H ) :   0.9333 B( 22-C , 24-H ) :   0.9371 B( 22-C , 25-C ) :   1.0482
B( 25-C , 26-H ) :   0.9540 B( 25-C , 27-H ) :   0.9560 B( 25-C , 28-C ) :   1.0680
B( 28-C , 29-H ) :   0.9715 B( 28-C , 30-H ) :   0.9760 B( 28-C , 31-H ) :   0.9739

Dispersion correction           -0.014744373
FINAL SINGLE POINT ENERGY     -1339.875258828407

DIPOLE MOMENT
-------------
                                X             Y             Z
Electronic contribution:    -13.30997      15.81705      19.32503
Nuclear contribution   :     13.76155     -16.08918     -19.70812
                        -----------------------------------------
Total Dipole Moment    :      0.45159      -0.27213      -0.38309
                        -----------------------------------------
Magnitude (a.u.)       :      0.65172
Magnitude (Debye)      :      1.65654

Rotational constants in cm-1:     0.017359     0.009650     0.007076
Rotational constants in MHz :   520.399088   289.297881   212.139900

                             ****ORCA TERMINATED NORMALLY****
TOTAL RUN TIME: 0 days 0 hours 0 minutes 34 seconds 214 msec
