                         Program Version 4.2.1 -  RELEASE  -
|  1> ! wB97X-D3 SP def2-SVP
|  2> %pal
|  3> nprocs 16
|  4> end
|  5>
|  6> * xyz 0 1
|  7> S 	 -80.0054 	 44.0605 	 128.068
|  8> C 	 -81.0555 	 42.6642 	 127.528
|  9> C 	 -82.166 	 42.6096 	 128.322
| 10> C 	 -82.2308 	 43.594 	 129.336
| 11> C 	 -81.1177 	 44.4671 	 129.253
| 12> H 	 -82.8682 	 43.7164 	 130.141
| 13> C 	 -83.2747 	 41.5672 	 128.121
| 14> H 	 -83.5952 	 41.4774 	 129.107
| 15> H 	 -82.9014 	 40.5884 	 127.94
| 16> C 	 -84.5816 	 42.031 	 127.371
| 17> H 	 -85.1523 	 42.7771 	 127.883
| 18> H 	 -84.2597 	 42.4833 	 126.473
| 19> C 	 -85.4319 	 40.851 	 126.856
| 20> H 	 -84.8711 	 40.3852 	 126.005
| 21> H 	 -85.5758 	 40.0839 	 127.63
| 22> H 	 -86.4036 	 41.2371 	 126.564
| 23> S 	 -80.6066 	 47.165 	 129.389
| 24> C 	 -80.7623 	 47.9883 	 130.889
| 25> C 	 -80.7512 	 47.1013 	 131.91
| 26> C 	 -80.916 	 45.7095 	 131.557
| 27> C 	 -80.8731 	 45.6332 	 130.147
| 28> H 	 -80.7339 	 47.4967 	 132.934
| 29> C 	 -80.914 	 44.6064 	 132.568
| 30> H 	 -81.5288 	 43.7806 	 132.212
| 31> H 	 -81.3504 	 44.931 	 133.471
| 32> C 	 -79.4624 	 43.979 	 132.889
| 33> H 	 -78.9949 	 44.5999 	 133.649
| 34> H 	 -78.7988 	 43.9517 	 132.027
| 35> C 	 -79.6832 	 42.6018 	 133.6
| 36> H 	 -80.3142 	 42.6429 	 134.548
| 37> H 	 -78.7546 	 42.1575 	 134.001
| 38> H 	 -80.0166 	 41.8979 	 132.832
| 39> H 	 -80.8403 	 41.9865 	 126.675
| 40> H 	 -80.5377 	 49.0538 	 130.992
| 41> *
| 42>
| 43>                          ****END OF INPUT****

CARTESIAN COORDINATES (ANGSTROEM)
---------------------------------
  S    -80.005400   44.060500  128.068000
  C    -81.055500   42.664200  127.528000
  C    -82.166000   42.609600  128.322000
  C    -82.230800   43.594000  129.336000
  C    -81.117700   44.467100  129.253000
  H    -82.868200   43.716400  130.141000
  C    -83.274700   41.567200  128.121000
  H    -83.595200   41.477400  129.107000
  H    -82.901400   40.588400  127.940000
  C    -84.581600   42.031000  127.371000
  H    -85.152300   42.777100  127.883000
  H    -84.259700   42.483300  126.473000
  C    -85.431900   40.851000  126.856000
  H    -84.871100   40.385200  126.005000
  H    -85.575800   40.083900  127.630000
  H    -86.403600   41.237100  126.564000
  S    -80.606600   47.165000  129.389000
  C    -80.762300   47.988300  130.889000
  C    -80.751200   47.101300  131.910000
  C    -80.916000   45.709500  131.557000
  C    -80.873100   45.633200  130.147000
  H    -80.733900   47.496700  132.934000
  C    -80.914000   44.606400  132.568000
  H    -81.528800   43.780600  132.212000
  H    -81.350400   44.931000  133.471000
  C    -79.462400   43.979000  132.889000
  H    -78.994900   44.599900  133.649000
  H    -78.798800   43.951700  132.027000
  C    -79.683200   42.601800  133.600000
  H    -80.314200   42.642900  134.548000
  H    -78.754600   42.157500  134.001000
  H    -80.016600   41.897900  132.832000
  H    -80.840300   41.986500  126.675000
  H    -80.537700   49.053800  130.992000

 Total Charge           Charge          ....    0
 Multiplicity           Mult            ....    1
 Number of Electrons    NEL             ....  134
 Basis Dimension        Dim             ....  322

ORBITAL ENERGIES
----------------

  NO   OCC          E(Eh)            E(eV)
   0   2.0000     -88.966721     -2420.9075
   1   2.0000     -88.964033     -2420.8344
   2   2.0000     -10.328646      -281.0567
   3   2.0000     -10.328162      -281.0436
   4   2.0000     -10.315555      -280.7005
   5   2.0000     -10.310776      -280.5705
   6   2.0000     -10.306316      -280.4491
   7   2.0000     -10.300884      -280.3013
   8   2.0000     -10.293231      -280.0931
   9   2.0000     -10.292728      -280.0794
  10   2.0000     -10.291859      -280.0557
  11   2.0000     -10.288514      -279.9647
  12   2.0000     -10.286039      -279.8974
  13   2.0000     -10.284918      -279.8668
  14   2.0000     -10.282667      -279.8056
  15   2.0000     -10.282202      -279.7929
  16   2.0000      -8.081709      -219.9145
  17   2.0000      -8.079917      -219.8657
  18   2.0000      -6.040122      -164.3601
  19   2.0000      -6.038329      -164.3113
  20   2.0000      -6.036113      -164.2510
  21   2.0000      -6.034309      -164.2019
  22   2.0000      -6.032627      -164.1561
  23   2.0000      -6.030666      -164.1028
  24   2.0000      -1.009084       -27.4586
  25   2.0000      -0.985679       -26.8217
  26   2.0000      -0.908965       -24.7342
  27   2.0000      -0.902282       -24.5524
  28   2.0000      -0.867426       -23.6039
  29   2.0000      -0.848886       -23.0994
  30   2.0000      -0.844458       -22.9789
  31   2.0000      -0.811427       -22.0800
  32   2.0000      -0.783426       -21.3181
  33   2.0000      -0.770981       -20.9794
  34   2.0000      -0.705000       -19.1840
  35   2.0000      -0.701871       -19.0989
  36   2.0000      -0.692308       -18.8387
  37   2.0000      -0.658507       -17.9189
  38   2.0000      -0.639861       -17.4115
  39   2.0000      -0.616906       -16.7869
  40   2.0000      -0.597491       -16.2586
  41   2.0000      -0.567001       -15.4289
  42   2.0000      -0.564537       -15.3618
  43   2.0000      -0.556020       -15.1301
  44   2.0000      -0.526339       -14.3224
  45   2.0000      -0.515541       -14.0286
  46   2.0000      -0.514653       -14.0044
  47   2.0000      -0.512297       -13.9403
  48   2.0000      -0.509002       -13.8506
  49   2.0000      -0.495912       -13.4945
  50   2.0000      -0.489529       -13.3207
  51   2.0000      -0.479893       -13.0586
  52   2.0000      -0.472772       -12.8648
  53   2.0000      -0.460443       -12.5293
  54   2.0000      -0.453936       -12.3522
  55   2.0000      -0.451558       -12.2875
  56   2.0000      -0.446512       -12.1502
  57   2.0000      -0.442992       -12.0544
  58   2.0000      -0.434139       -11.8135
  59   2.0000      -0.424417       -11.5490
  60   2.0000      -0.423732       -11.5303
  61   2.0000      -0.420254       -11.4357
  62   2.0000      -0.406979       -11.0744
  63   2.0000      -0.344237        -9.3672
  64   2.0000      -0.333146        -9.0654
  65   2.0000      -0.325922        -8.8688
  66   2.0000      -0.292247        -7.9524
  67   0.0000       0.032830         0.8933
  68   0.0000       0.071857         1.9553
  69   0.0000       0.104849         2.8531
  70   0.0000       0.126533         3.4431
  71   0.0000       0.131397         3.5755

MULLIKEN ATOMIC CHARGES
-----------------------
   0 S :    0.103721
   1 C :   -0.149734
   2 C :   -0.081728
   3 C :    0.058187
   4 C :   -0.154002
   5 H :   -0.014297
   6 C :    0.104542
   7 H :   -0.003888
   8 H :    0.016228
   9 C :   -0.039386
  10 H :    0.027891
  11 H :    0.018144
  12 C :   -0.067776
  13 H :    0.042475
  14 H :    0.030202
  15 H :    0.037833
  16 S :    0.113971
  17 C :   -0.095829
  18 C :   -0.044560
  19 C :   -0.038593
  20 C :   -0.171389
  21 H :    0.021113
  22 C :    0.094970
  23 H :    0.015095
  24 H :    0.011572
  25 C :   -0.060747
  26 H :    0.027657
  27 H :    0.046781
  28 C :   -0.097492
  29 H :    0.045413
  30 H :    0.031494
  31 H :    0.047594
  32 H :    0.058577
  33 H :    0.065962
Sum of atomic charges:   -0.0000000

LOEWDIN ATOMIC CHARGES
----------------------
   0 S :    0.408763
   1 C :   -0.192331
   2 C :   -0.056370
   3 C :   -0.066153
   4 C :   -0.205586
   5 H :    0.018761
   6 C :   -0.028002
   7 H :    0.024790
   8 H :    0.026595
   9 C :   -0.030688
  10 H :    0.021193
  11 H :    0.018427
  12 C :   -0.063090
  13 H :    0.031435
  14 H :    0.020829
  15 H :    0.026319
  16 S :    0.425880
  17 C :   -0.203670
  18 C :   -0.071650
  19 C :   -0.057940
  20 C :   -0.206168
  21 H :    0.032004
  22 C :   -0.026335
  23 H :    0.029075
  24 H :    0.024758
  25 C :   -0.028063
  26 H :    0.021583
  27 H :    0.027406
  28 C :   -0.078782
  29 H :    0.033949
  30 H :    0.025587
  31 H :    0.026705
  32 H :    0.036683
  33 H :    0.034084

  Mayer bond orders larger than 0.100000
B(  0-S ,  1-C ) :   1.1030 B(  0-S ,  4-C ) :   1.2016 B(  1-C ,  2-C ) :   1.6166
B(  1-C , 32-H ) :   0.9718 B(  2-C ,  3-C ) :   1.2353 B(  2-C ,  6-C ) :   1.0125
B(  3-C ,  4-C ) :   1.5448 B(  3-C ,  5-H ) :   1.0062 B(  4-C , 20-C ) :   0.9952
B(  6-C ,  7-H ) :   0.9227 B(  6-C ,  8-H ) :   0.9499 B(  6-C ,  9-C ) :   1.0413
B(  9-C , 10-H ) :   0.9600 B(  9-C , 11-H ) :   0.9632 B(  9-C , 12-C ) :   1.0744
B( 12-C , 13-H ) :   0.9808 B( 12-C , 14-H ) :   0.9782 B( 12-C , 15-H ) :   0.9743
B( 16-S , 17-C ) :   1.1501 B( 16-S , 20-C ) :   1.1728 B( 17-C , 18-C ) :   1.6235
B( 17-C , 33-H ) :   0.9627 B( 18-C , 19-C ) :   1.2392 B( 18-C , 21-H ) :   0.9832
B( 19-C , 20-C ) :   1.5609 B( 19-C , 22-C ) :   1.0682 B( 22-C , 23-H ) :   0.9352
B( 22-C , 24-H ) :   0.9250 B( 22-C , 25-C ) :   1.0410 B( 25-C , 26-H ) :   0.9580
B( 25-C , 27-H ) :   0.9647 B( 25-C , 28-C ) :   1.0737 B( 28-C , 29-H ) :   0.9731
B( 28-C , 30-H ) :   0.9740 B( 28-C , 31-H ) :   0.9776

Dispersion correction           -0.013753966
FINAL SINGLE POINT ENERGY     -1339.864385565025

DIPOLE MOMENT
-------------
                                X             Y             Z
Electronic contribution:     12.35741      20.84471      -9.23959
Nuclear contribution   :    -12.55936     -21.14370       9.69791
                        -----------------------------------------
Total Dipole Moment    :     -0.20195      -0.29899       0.45832
                        -----------------------------------------
Magnitude (a.u.)       :      0.58330
Magnitude (Debye)      :      1.48263

Rotational constants in cm-1:     0.018239     0.007789     0.006646
Rotational constants in MHz :   546.806270   233.504166   199.238594

                             ****ORCA TERMINATED NORMALLY****
TOTAL RUN TIME: 0 days 0 hours 0 minutes 32 seconds 111 msec
