                         Program Version 4.2.1 -  RELEASE  -
|  1> ! wB97X-D3 SP def2-SVP
|  2> %pal
|  3> nprocs 16
|  4> end
|  5>
|  6> * xyz 0 1
|  7> S 	 0.2044 	 -13.4563 	 86.5795
|  8> C 	 -0.797498 	 -14.7686 	 87.0376
|  9> C 	 -1.02998 	 -15.6123 	 86.0064
| 10> C 	 -0.300222 	 -15.3432 	 84.7831
| 11> C 	 0.547622 	 -14.3083 	 85.0295
| 12> H 	 -0.265528 	 -15.8306 	 83.8577
| 13> C 	 -2.10828 	 -16.6565 	 86.02
| 14> H 	 -2.52371 	 -16.8128 	 87.0206
| 15> H 	 -1.60152 	 -17.5856 	 85.7587
| 16> C 	 -3.27476 	 -16.3699 	 85.0511
| 17> H 	 -3.89445 	 -15.6027 	 85.5082
| 18> H 	 -2.96627 	 -15.9732 	 84.0721
| 19> C 	 -4.19534 	 -17.6065 	 84.7827
| 20> H 	 -3.70286 	 -18.5126 	 84.332
| 21> H 	 -4.46386 	 -18.1096 	 85.6965
| 22> H 	 -4.98768 	 -17.2695 	 84.1427
| 23> S 	 1.86556 	 -11.9511 	 84.1379
| 24> C 	 3.07126 	 -12.0445 	 82.8615
| 25> C 	 3.37824 	 -13.4139 	 82.6853
| 26> C 	 2.66226 	 -14.3289 	 83.5299
| 27> C 	 1.55793 	 -13.7169 	 84.1423
| 28> H 	 4.14734 	 -13.7841 	 82.0674
| 29> C 	 2.89404 	 -15.7669 	 83.5039
| 30> H 	 2.17969 	 -16.2754 	 84.1945
| 31> H 	 3.86933 	 -16.0259 	 83.9592
| 32> C 	 2.95889 	 -16.3452 	 82.0802
| 33> H 	 3.74876 	 -15.9 	 81.443
| 34> H 	 2.03266 	 -16.0591 	 81.7121
| 35> C 	 3.08651 	 -17.89 	 81.9632
| 36> H 	 3.03503 	 -18.3002 	 81.0307
| 37> H 	 2.26075 	 -18.4733 	 82.4138
| 38> H 	 3.96445 	 -18.2458 	 82.5974
| 39> H 	 -1.34888 	 -14.8341 	 87.963
| 40> H 	 3.4864 	 -11.2015 	 82.2582
| 41> *
| 42>
| 43>                          ****END OF INPUT****

CARTESIAN COORDINATES (ANGSTROEM)
---------------------------------
  S      0.204400  -13.456300   86.579500
  C     -0.797498  -14.768600   87.037600
  C     -1.029980  -15.612300   86.006400
  C     -0.300222  -15.343200   84.783100
  C      0.547622  -14.308300   85.029500
  H     -0.265528  -15.830600   83.857700
  C     -2.108280  -16.656500   86.020000
  H     -2.523710  -16.812800   87.020600
  H     -1.601520  -17.585600   85.758700
  C     -3.274760  -16.369900   85.051100
  H     -3.894450  -15.602700   85.508200
  H     -2.966270  -15.973200   84.072100
  C     -4.195340  -17.606500   84.782700
  H     -3.702860  -18.512600   84.332000
  H     -4.463860  -18.109600   85.696500
  H     -4.987680  -17.269500   84.142700
  S      1.865560  -11.951100   84.137900
  C      3.071260  -12.044500   82.861500
  C      3.378240  -13.413900   82.685300
  C      2.662260  -14.328900   83.529900
  C      1.557930  -13.716900   84.142300
  H      4.147340  -13.784100   82.067400
  C      2.894040  -15.766900   83.503900
  H      2.179690  -16.275400   84.194500
  H      3.869330  -16.025900   83.959200
  C      2.958890  -16.345200   82.080200
  H      3.748760  -15.900000   81.443000
  H      2.032660  -16.059100   81.712100
  C      3.086510  -17.890000   81.963200
  H      3.035030  -18.300200   81.030700
  H      2.260750  -18.473300   82.413800
  H      3.964450  -18.245800   82.597400
  H     -1.348880  -14.834100   87.963000
  H      3.486400  -11.201500   82.258200

 Total Charge           Charge          ....    0
 Multiplicity           Mult            ....    1
 Number of Electrons    NEL             ....  134
 Basis Dimension        Dim             ....  322

ORBITAL ENERGIES
----------------

  NO   OCC          E(Eh)            E(eV)
   0   2.0000     -88.964589     -2420.8495
   1   2.0000     -88.963061     -2420.8079
   2   2.0000     -10.334227      -281.2086
   3   2.0000     -10.330838      -281.1164
   4   2.0000     -10.328835      -281.0619
   5   2.0000     -10.306692      -280.4594
   6   2.0000     -10.302845      -280.3547
   7   2.0000     -10.298265      -280.2300
   8   2.0000     -10.295312      -280.1497
   9   2.0000     -10.295290      -280.1491
  10   2.0000     -10.291620      -280.0492
  11   2.0000     -10.290242      -280.0117
  12   2.0000     -10.289912      -280.0027
  13   2.0000     -10.288070      -279.9526
  14   2.0000     -10.280325      -279.7419
  15   2.0000     -10.280102      -279.7358
  16   2.0000      -8.078499      -219.8271
  17   2.0000      -8.078158      -219.8179
  18   2.0000      -6.037201      -164.2806
  19   2.0000      -6.036748      -164.2683
  20   2.0000      -6.033155      -164.1705
  21   2.0000      -6.032943      -164.1647
  22   2.0000      -6.029066      -164.0592
  23   2.0000      -6.028483      -164.0434
  24   2.0000      -1.006592       -27.3908
  25   2.0000      -0.983665       -26.7669
  26   2.0000      -0.913363       -24.8539
  27   2.0000      -0.907554       -24.6958
  28   2.0000      -0.870628       -23.6910
  29   2.0000      -0.851868       -23.1805
  30   2.0000      -0.846537       -23.0355
  31   2.0000      -0.817003       -22.2318
  32   2.0000      -0.781861       -21.2755
  33   2.0000      -0.768415       -20.9096
  34   2.0000      -0.712201       -19.3800
  35   2.0000      -0.703886       -19.1537
  36   2.0000      -0.696891       -18.9634
  37   2.0000      -0.661529       -18.0011
  38   2.0000      -0.648114       -17.6361
  39   2.0000      -0.622102       -16.9283
  40   2.0000      -0.600044       -16.3280
  41   2.0000      -0.566841       -15.4245
  42   2.0000      -0.562190       -15.2980
  43   2.0000      -0.554569       -15.0906
  44   2.0000      -0.536028       -14.5861
  45   2.0000      -0.530831       -14.4446
  46   2.0000      -0.516592       -14.0572
  47   2.0000      -0.515402       -14.0248
  48   2.0000      -0.511005       -13.9051
  49   2.0000      -0.503977       -13.7139
  50   2.0000      -0.488820       -13.3015
  51   2.0000      -0.478499       -13.0206
  52   2.0000      -0.473728       -12.8908
  53   2.0000      -0.460334       -12.5263
  54   2.0000      -0.459448       -12.5022
  55   2.0000      -0.452480       -12.3126
  56   2.0000      -0.444556       -12.0970
  57   2.0000      -0.438873       -11.9423
  58   2.0000      -0.433977       -11.8091
  59   2.0000      -0.422949       -11.5090
  60   2.0000      -0.418123       -11.3777
  61   2.0000      -0.414704       -11.2847
  62   2.0000      -0.411829       -11.2064
  63   2.0000      -0.355981        -9.6867
  64   2.0000      -0.329694        -8.9714
  65   2.0000      -0.322741        -8.7822
  66   2.0000      -0.286719        -7.8020
  67   0.0000       0.022863         0.6221
  68   0.0000       0.066384         1.8064
  69   0.0000       0.098600         2.6830
  70   0.0000       0.115982         3.1560
  71   0.0000       0.129746         3.5306

MULLIKEN ATOMIC CHARGES
-----------------------
   0 S :    0.095448
   1 C :   -0.095759
   2 C :   -0.091056
   3 C :    0.033673
   4 C :   -0.136163
   5 H :    0.005534
   6 C :    0.076285
   7 H :    0.015288
   8 H :    0.021643
   9 C :   -0.083842
  10 H :    0.031834
  11 H :    0.035258
  12 C :   -0.051489
  13 H :    0.025805
  14 H :    0.020357
  15 H :    0.044770
  16 S :    0.083936
  17 C :   -0.094602
  18 C :   -0.011761
  19 C :   -0.043776
  20 C :   -0.140647
  21 H :    0.001920
  22 C :    0.046837
  23 H :    0.035085
  24 H :    0.027888
  25 C :   -0.072595
  26 H :    0.044413
  27 H :    0.011806
  28 C :   -0.031740
  29 H :    0.019285
  30 H :    0.015584
  31 H :    0.034811
  32 H :    0.040905
  33 H :    0.085064
Sum of atomic charges:   -0.0000000

LOEWDIN ATOMIC CHARGES
----------------------
   0 S :    0.383964
   1 C :   -0.206253
   2 C :   -0.063206
   3 C :   -0.052782
   4 C :   -0.155455
   5 H :    0.028846
   6 C :   -0.033363
   7 H :    0.027952
   8 H :    0.027188
   9 C :   -0.036471
  10 H :    0.026389
  11 H :    0.023939
  12 C :   -0.071045
  13 H :    0.028496
  14 H :    0.021549
  15 H :    0.026693
  16 S :    0.379380
  17 C :   -0.186519
  18 C :   -0.065653
  19 C :   -0.054544
  20 C :   -0.187784
  21 H :    0.019928
  22 C :   -0.041083
  23 H :    0.036999
  24 H :    0.034665
  25 C :   -0.034139
  26 H :    0.029289
  27 H :    0.013315
  28 C :   -0.069529
  29 H :    0.013694
  30 H :    0.027254
  31 H :    0.032999
  32 H :    0.029207
  33 H :    0.046082

  Mayer bond orders larger than 0.100000
B(  0-S ,  1-C ) :   1.1121 B(  0-S ,  4-C ) :   1.1279 B(  1-C ,  2-C ) :   1.6733
B(  1-C , 32-H ) :   0.9645 B(  2-C ,  3-C ) :   1.1598 B(  2-C ,  6-C ) :   1.0382
B(  3-C ,  4-C ) :   1.6140 B(  3-C ,  5-H ) :   1.0086 B(  4-C , 20-C ) :   1.0601
B(  6-C ,  7-H ) :   0.9405 B(  6-C ,  8-H ) :   0.9370 B(  6-C ,  9-C ) :   1.0541
B(  9-C , 10-H ) :   0.9548 B(  9-C , 11-H ) :   0.9612 B(  9-C , 12-C ) :   1.0753
B( 12-C , 13-H ) :   0.9746 B( 12-C , 14-H ) :   0.9728 B( 12-C , 15-H ) :   0.9756
B( 16-S , 17-C ) :   1.1528 B( 16-S , 20-C ) :   1.1231 B( 17-C , 18-C ) :   1.5784
B( 17-C , 20-C ) :   0.1065 B( 17-C , 33-H ) :   0.9656 B( 18-C , 19-C ) :   1.2464
B( 18-C , 21-H ) :   0.9920 B( 19-C , 20-C ) :   1.5480 B( 19-C , 22-C ) :   1.0872
B( 22-C , 23-H ) :   0.9364 B( 22-C , 24-H ) :   0.9086 B( 22-C , 25-C ) :   1.0475
B( 25-C , 26-H ) :   0.9507 B( 25-C , 27-H ) :   0.9588 B( 25-C , 28-C ) :   1.0836
B( 28-C , 29-H ) :   0.9748 B( 28-C , 30-H ) :   0.9708 B( 28-C , 31-H ) :   0.9739

Dispersion correction           -0.013765412
FINAL SINGLE POINT ENERGY     -1339.854149904784

DIPOLE MOMENT
-------------
                                X             Y             Z
Electronic contribution:      8.67311      27.61354      10.11961
Nuclear contribution   :     -8.75629     -28.24408     -10.45658
                        -----------------------------------------
Total Dipole Moment    :     -0.08318      -0.63054      -0.33697
                        -----------------------------------------
Magnitude (a.u.)       :      0.71976
Magnitude (Debye)      :      1.82948

Rotational constants in cm-1:     0.016905     0.008738     0.006407
Rotational constants in MHz :   506.806986   261.958589   192.070703

                             ****ORCA TERMINATED NORMALLY****
TOTAL RUN TIME: 0 days 0 hours 0 minutes 31 seconds 649 msec
