                         Program Version 4.2.1 -  RELEASE  -
|  1> ! wB97X-D3 SP def2-SVP
|  2> %pal
|  3> nprocs 16
|  4> end
|  5>
|  6> * xyz 0 1
|  7> S 	 -74.9599 	 50.8675 	 138.763
|  8> C 	 -75.6087 	 49.5363 	 139.745
|  9> C 	 -76.3973 	 48.7099 	 138.963
| 10> C 	 -76.7238 	 49.3361 	 137.694
| 11> C 	 -76.1212 	 50.5018 	 137.493
| 12> H 	 -77.411 	 48.8673 	 136.961
| 13> C 	 -77.1463 	 47.4023 	 139.402
| 14> H 	 -76.5326 	 46.8626 	 140.067
| 15> H 	 -77.1863 	 46.7312 	 138.454
| 16> C 	 -78.6265 	 47.5713 	 139.771
| 17> H 	 -79.3077 	 47.7885 	 138.969
| 18> H 	 -79.017 	 46.5795 	 139.99
| 19> C 	 -78.8871 	 48.4884 	 140.986
| 20> H 	 -78.6076 	 49.4727 	 140.755
| 21> H 	 -79.8766 	 48.5478 	 141.322
| 22> H 	 -78.213 	 48.267 	 141.836
| 23> S 	 -76.1594 	 51.3559 	 134.714
| 24> C 	 -76.9373 	 52.8401 	 134.377
| 25> C 	 -77.4608 	 53.3762 	 135.499
| 26> C 	 -77.2191 	 52.6569 	 136.724
| 27> C 	 -76.5112 	 51.4936 	 136.488
| 28> H 	 -77.8509 	 54.3942 	 135.338
| 29> C 	 -77.743 	 53.1416 	 138.004
| 30> H 	 -78.2084 	 54.1045 	 137.786
| 31> H 	 -76.9438 	 53.3718 	 138.783
| 32> C 	 -78.863 	 52.2497 	 138.604
| 33> H 	 -78.3406 	 51.3663 	 139.013
| 34> H 	 -79.5232 	 51.9387 	 137.803
| 35> C 	 -79.6316 	 52.8296 	 139.758
| 36> H 	 -80.4048 	 52.1248 	 139.978
| 37> H 	 -80.1457 	 53.774 	 139.594
| 38> H 	 -78.9393 	 53.0323 	 140.652
| 39> H 	 -75.3838 	 49.4353 	 140.87
| 40> H 	 -77.0298 	 53.1777 	 133.362
| 41> *
| 42>
| 43>                          ****END OF INPUT****

CARTESIAN COORDINATES (ANGSTROEM)
---------------------------------
  S    -74.959900   50.867500  138.763000
  C    -75.608700   49.536300  139.745000
  C    -76.397300   48.709900  138.963000
  C    -76.723800   49.336100  137.694000
  C    -76.121200   50.501800  137.493000
  H    -77.411000   48.867300  136.961000
  C    -77.146300   47.402300  139.402000
  H    -76.532600   46.862600  140.067000
  H    -77.186300   46.731200  138.454000
  C    -78.626500   47.571300  139.771000
  H    -79.307700   47.788500  138.969000
  H    -79.017000   46.579500  139.990000
  C    -78.887100   48.488400  140.986000
  H    -78.607600   49.472700  140.755000
  H    -79.876600   48.547800  141.322000
  H    -78.213000   48.267000  141.836000
  S    -76.159400   51.355900  134.714000
  C    -76.937300   52.840100  134.377000
  C    -77.460800   53.376200  135.499000
  C    -77.219100   52.656900  136.724000
  C    -76.511200   51.493600  136.488000
  H    -77.850900   54.394200  135.338000
  C    -77.743000   53.141600  138.004000
  H    -78.208400   54.104500  137.786000
  H    -76.943800   53.371800  138.783000
  C    -78.863000   52.249700  138.604000
  H    -78.340600   51.366300  139.013000
  H    -79.523200   51.938700  137.803000
  C    -79.631600   52.829600  139.758000
  H    -80.404800   52.124800  139.978000
  H    -80.145700   53.774000  139.594000
  H    -78.939300   53.032300  140.652000
  H    -75.383800   49.435300  140.870000
  H    -77.029800   53.177700  133.362000

 Total Charge           Charge          ....    0
 Multiplicity           Mult            ....    1
 Number of Electrons    NEL             ....  134
 Basis Dimension        Dim             ....  322

ORBITAL ENERGIES
----------------

  NO   OCC          E(Eh)            E(eV)
   0   2.0000     -88.964140     -2420.8373
   1   2.0000     -88.960375     -2420.7349
   2   2.0000     -10.326624      -281.0017
   3   2.0000     -10.325925      -280.9827
   4   2.0000     -10.324500      -280.9439
   5   2.0000     -10.311236      -280.5830
   6   2.0000     -10.307748      -280.4881
   7   2.0000     -10.303765      -280.3797
   8   2.0000     -10.301523      -280.3187
   9   2.0000     -10.293966      -280.1130
  10   2.0000     -10.289572      -279.9935
  11   2.0000     -10.289551      -279.9929
  12   2.0000     -10.287896      -279.9479
  13   2.0000     -10.280766      -279.7539
  14   2.0000     -10.276616      -279.6409
  15   2.0000     -10.269785      -279.4551
  16   2.0000      -8.078492      -219.8269
  17   2.0000      -8.075266      -219.7392
  18   2.0000      -6.037183      -164.2801
  19   2.0000      -6.033761      -164.1870
  20   2.0000      -6.033189      -164.1714
  21   2.0000      -6.029713      -164.0768
  22   2.0000      -6.028918      -164.0552
  23   2.0000      -6.026082      -163.9780
  24   2.0000      -1.005484       -27.3606
  25   2.0000      -0.984408       -26.7871
  26   2.0000      -0.910566       -24.7777
  27   2.0000      -0.906209       -24.6592
  28   2.0000      -0.868265       -23.6267
  29   2.0000      -0.851048       -23.1582
  30   2.0000      -0.843508       -22.9530
  31   2.0000      -0.813091       -22.1253
  32   2.0000      -0.785945       -21.3866
  33   2.0000      -0.773664       -21.0525
  34   2.0000      -0.711014       -19.3477
  35   2.0000      -0.700600       -19.0643
  36   2.0000      -0.684719       -18.6321
  37   2.0000      -0.657410       -17.8890
  38   2.0000      -0.635199       -17.2846
  39   2.0000      -0.620403       -16.8820
  40   2.0000      -0.595761       -16.2115
  41   2.0000      -0.561403       -15.2765
  42   2.0000      -0.561202       -15.2711
  43   2.0000      -0.549336       -14.9482
  44   2.0000      -0.537853       -14.6357
  45   2.0000      -0.525881       -14.3099
  46   2.0000      -0.521693       -14.1960
  47   2.0000      -0.515582       -14.0297
  48   2.0000      -0.504739       -13.7347
  49   2.0000      -0.493165       -13.4197
  50   2.0000      -0.488287       -13.2870
  51   2.0000      -0.475473       -12.9383
  52   2.0000      -0.470216       -12.7952
  53   2.0000      -0.465808       -12.6753
  54   2.0000      -0.456708       -12.4277
  55   2.0000      -0.452996       -12.3267
  56   2.0000      -0.445681       -12.1276
  57   2.0000      -0.440211       -11.9788
  58   2.0000      -0.429742       -11.6939
  59   2.0000      -0.421541       -11.4707
  60   2.0000      -0.417887       -11.3713
  61   2.0000      -0.408971       -11.1287
  62   2.0000      -0.405838       -11.0434
  63   2.0000      -0.337459        -9.1827
  64   2.0000      -0.327570        -8.9136
  65   2.0000      -0.323787        -8.8107
  66   2.0000      -0.308668        -8.3993
  67   0.0000       0.035985         0.9792
  68   0.0000       0.064872         1.7653
  69   0.0000       0.100363         2.7310
  70   0.0000       0.125335         3.4105
  71   0.0000       0.129694         3.5292

MULLIKEN ATOMIC CHARGES
-----------------------
   0 S :    0.107966
   1 C :   -0.190697
   2 C :   -0.061398
   3 C :    0.024163
   4 C :   -0.166576
   5 H :    0.029147
   6 C :    0.043781
   7 H :    0.023586
   8 H :    0.038797
   9 C :   -0.043683
  10 H :    0.021530
  11 H :    0.018869
  12 C :   -0.014276
  13 H :    0.012389
  14 H :    0.024176
  15 H :    0.019392
  16 S :    0.093070
  17 C :   -0.094727
  18 C :   -0.040622
  19 C :   -0.017442
  20 C :   -0.163026
  21 H :    0.028419
  22 C :    0.076402
  23 H :    0.004323
  24 H :    0.044880
  25 C :   -0.099308
  26 H :    0.054449
  27 H :    0.029753
  28 C :   -0.037900
  29 H :    0.031116
  30 H :    0.023066
  31 H :    0.037339
  32 H :    0.085600
  33 H :    0.057443
Sum of atomic charges:   -0.0000000

LOEWDIN ATOMIC CHARGES
----------------------
   0 S :    0.382744
   1 C :   -0.200785
   2 C :   -0.065422
   3 C :   -0.056368
   4 C :   -0.189794
   5 H :    0.040151
   6 C :   -0.027152
   7 H :    0.022355
   8 H :    0.044858
   9 C :   -0.041867
  10 H :    0.023932
  11 H :    0.025486
  12 C :   -0.061389
  13 H :    0.016566
  14 H :    0.019709
  15 H :    0.027513
  16 S :    0.386299
  17 C :   -0.187257
  18 C :   -0.084653
  19 C :   -0.050356
  20 C :   -0.185133
  21 H :    0.036927
  22 C :   -0.041362
  23 H :    0.026430
  24 H :    0.037855
  25 C :   -0.039777
  26 H :    0.030366
  27 H :    0.023989
  28 C :   -0.068840
  29 H :    0.025352
  30 H :    0.019486
  31 H :    0.033911
  32 H :    0.046930
  33 H :    0.029297

  Mayer bond orders larger than 0.100000
B(  0-S ,  1-C ) :   1.1271 B(  0-S ,  4-C ) :   1.1184 B(  1-C ,  2-C ) :   1.6302
B(  1-C , 32-H ) :   0.9601 B(  2-C ,  3-C ) :   1.1932 B(  2-C ,  6-C ) :   1.0225
B(  3-C ,  4-C ) :   1.6495 B(  3-C ,  5-H ) :   0.9900 B(  4-C , 20-C ) :   1.0195
B(  6-C ,  7-H ) :   0.9491 B(  6-C ,  8-H ) :   0.9399 B(  6-C ,  9-C ) :   1.0712
B(  9-C , 10-H ) :   0.9539 B(  9-C , 11-H ) :   0.9495 B(  9-C , 12-C ) :   1.0703
B( 12-C , 13-H ) :   0.9737 B( 12-C , 14-H ) :   0.9725 B( 12-C , 15-H ) :   0.9714
B( 16-S , 17-C ) :   1.1633 B( 16-S , 20-C ) :   1.1224 B( 17-C , 18-C ) :   1.6281
B( 17-C , 33-H ) :   0.9660 B( 18-C , 19-C ) :   1.2287 B( 18-C , 21-H ) :   0.9832
B( 19-C , 20-C ) :   1.5948 B( 19-C , 22-C ) :   1.0661 B( 22-C , 23-H ) :   0.9255
B( 22-C , 24-H ) :   0.9188 B( 22-C , 25-C ) :   1.0636 B( 25-C , 26-H ) :   0.9461
B( 25-C , 27-H ) :   0.9540 B( 25-C , 28-C ) :   1.0999 B( 28-C , 29-H ) :   0.9712
B( 28-C , 30-H ) :   0.9726 B( 28-C , 31-H ) :   0.9697

Dispersion correction           -0.016614467
FINAL SINGLE POINT ENERGY     -1339.872426120737

DIPOLE MOMENT
-------------
                                X             Y             Z
Electronic contribution:     20.87011       4.37501     -19.27835
Nuclear contribution   :    -21.49847      -4.47307      19.55312
                        -----------------------------------------
Total Dipole Moment    :     -0.62836      -0.09806       0.27477
                        -----------------------------------------
Magnitude (a.u.)       :      0.69278
Magnitude (Debye)      :      1.76091

Rotational constants in cm-1:     0.019277     0.009679     0.008104
Rotational constants in MHz :   577.910850   290.170822   242.952568

                             ****ORCA TERMINATED NORMALLY****
TOTAL RUN TIME: 0 days 0 hours 0 minutes 38 seconds 16 msec
