                         Program Version 4.2.1 -  RELEASE  -
|  1> ! wB97X-D3 SP def2-SVP
|  2> %pal
|  3> nprocs 16
|  4> end
|  5>
|  6> * xyz 0 1
|  7> S 	 11.8859 	 -8.60122 	 89.1388
|  8> C 	 12.3497 	 -8.50369 	 90.8353
|  9> C 	 11.2187 	 -8.2522 	 91.6585
| 10> C 	 10.0661 	 -8.06277 	 90.8607
| 11> C 	 10.3182 	 -8.11744 	 89.5023
| 12> H 	 9.01418 	 -7.8126 	 91.2457
| 13> C 	 11.2225 	 -8.09685 	 93.1596
| 14> H 	 10.2474 	 -8.30685 	 93.5855
| 15> H 	 11.3618 	 -7.05104 	 93.3087
| 16> C 	 12.3101 	 -8.73733 	 93.9915
| 17> H 	 12.1439 	 -9.8453 	 94.0182
| 18> H 	 13.1917 	 -8.46291 	 93.4855
| 19> C 	 12.1834 	 -8.38965 	 95.4971
| 20> H 	 12.2252 	 -9.23871 	 96.2136
| 21> H 	 13.0507 	 -7.75753 	 95.8502
| 22> H 	 11.299 	 -7.7969 	 95.7413
| 23> S 	 8.99973 	 -9.71965 	 87.7274
| 24> C 	 7.82073 	 -9.0705 	 86.6688
| 25> C 	 7.8209 	 -7.7322 	 86.7474
| 26> C 	 8.63905 	 -7.17992 	 87.7748
| 27> C 	 9.38669 	 -8.13501 	 88.4041
| 28> H 	 7.12999 	 -7.17158 	 86.0759
| 29> C 	 8.73398 	 -5.67728 	 87.9532
| 30> H 	 8.225 	 -5.21274 	 87.1258
| 31> H 	 9.8049 	 -5.47701 	 87.9907
| 32> C 	 8.11146 	 -5.1362 	 89.2251
| 33> H 	 8.61754 	 -5.50806 	 90.1225
| 34> H 	 7.09177 	 -5.58552 	 89.3172
| 35> C 	 7.983 	 -3.6191 	 89.1472
| 36> H 	 7.30163 	 -3.25111 	 88.4905
| 37> H 	 8.96692 	 -3.21027 	 88.8365
| 38> H 	 7.77334 	 -3.38976 	 90.1924
| 39> H 	 13.4025 	 -8.73231 	 91.0699
| 40> H 	 7.30374 	 -9.53348 	 85.8407
| 41> *
| 42>
| 43>                          ****END OF INPUT****

CARTESIAN COORDINATES (ANGSTROEM)
---------------------------------
  S     11.885900   -8.601220   89.138800
  C     12.349700   -8.503690   90.835300
  C     11.218700   -8.252200   91.658500
  C     10.066100   -8.062770   90.860700
  C     10.318200   -8.117440   89.502300
  H      9.014180   -7.812600   91.245700
  C     11.222500   -8.096850   93.159600
  H     10.247400   -8.306850   93.585500
  H     11.361800   -7.051040   93.308700
  C     12.310100   -8.737330   93.991500
  H     12.143900   -9.845300   94.018200
  H     13.191700   -8.462910   93.485500
  C     12.183400   -8.389650   95.497100
  H     12.225200   -9.238710   96.213600
  H     13.050700   -7.757530   95.850200
  H     11.299000   -7.796900   95.741300
  S      8.999730   -9.719650   87.727400
  C      7.820730   -9.070500   86.668800
  C      7.820900   -7.732200   86.747400
  C      8.639050   -7.179920   87.774800
  C      9.386690   -8.135010   88.404100
  H      7.129990   -7.171580   86.075900
  C      8.733980   -5.677280   87.953200
  H      8.225000   -5.212740   87.125800
  H      9.804900   -5.477010   87.990700
  C      8.111460   -5.136200   89.225100
  H      8.617540   -5.508060   90.122500
  H      7.091770   -5.585520   89.317200
  C      7.983000   -3.619100   89.147200
  H      7.301630   -3.251110   88.490500
  H      8.966920   -3.210270   88.836500
  H      7.773340   -3.389760   90.192400
  H     13.402500   -8.732310   91.069900
  H      7.303740   -9.533480   85.840700

 Total Charge           Charge          ....    0
 Multiplicity           Mult            ....    1
 Number of Electrons    NEL             ....  134
 Basis Dimension        Dim             ....  322

ORBITAL ENERGIES
----------------

  NO   OCC          E(Eh)            E(eV)
   0   2.0000     -88.966305     -2420.8962
   1   2.0000     -88.959056     -2420.6990
   2   2.0000     -10.322035      -280.8769
   3   2.0000     -10.319874      -280.8180
   4   2.0000     -10.319126      -280.7977
   5   2.0000     -10.309625      -280.5392
   6   2.0000     -10.306136      -280.4442
   7   2.0000     -10.300325      -280.2861
   8   2.0000     -10.295802      -280.1630
   9   2.0000     -10.288757      -279.9713
  10   2.0000     -10.288535      -279.9653
  11   2.0000     -10.287467      -279.9362
  12   2.0000     -10.285937      -279.8946
  13   2.0000     -10.284069      -279.8438
  14   2.0000     -10.282098      -279.7901
  15   2.0000     -10.270543      -279.4757
  16   2.0000      -8.082307      -219.9307
  17   2.0000      -8.074486      -219.7179
  18   2.0000      -6.040514      -164.3707
  19   2.0000      -6.036532      -164.2624
  20   2.0000      -6.033407      -164.1773
  21   2.0000      -6.033040      -164.1674
  22   2.0000      -6.028850      -164.0533
  23   2.0000      -6.025187      -163.9537
  24   2.0000      -1.015146       -27.6235
  25   2.0000      -0.989712       -26.9314
  26   2.0000      -0.919435       -25.0191
  27   2.0000      -0.912618       -24.8336
  28   2.0000      -0.871293       -23.7091
  29   2.0000      -0.853011       -23.2116
  30   2.0000      -0.848372       -23.0854
  31   2.0000      -0.811921       -22.0935
  32   2.0000      -0.784564       -21.3491
  33   2.0000      -0.772112       -21.0102
  34   2.0000      -0.711335       -19.3564
  35   2.0000      -0.702010       -19.1027
  36   2.0000      -0.688484       -18.7346
  37   2.0000      -0.657219       -17.8838
  38   2.0000      -0.645034       -17.5523
  39   2.0000      -0.613549       -16.6955
  40   2.0000      -0.593670       -16.1546
  41   2.0000      -0.579505       -15.7691
  42   2.0000      -0.569764       -15.5041
  43   2.0000      -0.563153       -15.3242
  44   2.0000      -0.527688       -14.3591
  45   2.0000      -0.519999       -14.1499
  46   2.0000      -0.517398       -14.0791
  47   2.0000      -0.514098       -13.9893
  48   2.0000      -0.506633       -13.7862
  49   2.0000      -0.505341       -13.7510
  50   2.0000      -0.492533       -13.4025
  51   2.0000      -0.481876       -13.1125
  52   2.0000      -0.467680       -12.7262
  53   2.0000      -0.466805       -12.7024
  54   2.0000      -0.459841       -12.5129
  55   2.0000      -0.457211       -12.4414
  56   2.0000      -0.445915       -12.1340
  57   2.0000      -0.435345       -11.8463
  58   2.0000      -0.430558       -11.7161
  59   2.0000      -0.429315       -11.6823
  60   2.0000      -0.418629       -11.3915
  61   2.0000      -0.412134       -11.2147
  62   2.0000      -0.406234       -11.0542
  63   2.0000      -0.338609        -9.2140
  64   2.0000      -0.329340        -8.9618
  65   2.0000      -0.324471        -8.8293
  66   2.0000      -0.302946        -8.2436
  67   0.0000       0.040752         1.1089
  68   0.0000       0.062417         1.6985
  69   0.0000       0.115428         3.1409
  70   0.0000       0.124988         3.4011
  71   0.0000       0.132315         3.6005

MULLIKEN ATOMIC CHARGES
-----------------------
   0 S :    0.122278
   1 C :   -0.167487
   2 C :   -0.060847
   3 C :    0.023155
   4 C :   -0.183745
   5 H :    0.044680
   6 C :    0.054798
   7 H :    0.019912
   8 H :    0.033629
   9 C :   -0.059898
  10 H :    0.043697
  11 H :    0.027876
  12 C :   -0.081428
  13 H :    0.041911
  14 H :    0.036262
  15 H :    0.033315
  16 S :    0.108339
  17 C :   -0.068441
  18 C :   -0.076065
  19 C :   -0.019615
  20 C :   -0.181129
  21 H :    0.025191
  22 C :    0.106563
  23 H :    0.007304
  24 H :    0.034767
  25 C :   -0.123305
  26 H :    0.027687
  27 H :    0.023294
  28 C :    0.014346
  29 H :    0.017581
  30 H :    0.023342
  31 H :    0.033577
  32 H :    0.067006
  33 H :    0.051449
Sum of atomic charges:   -0.0000000

LOEWDIN ATOMIC CHARGES
----------------------
   0 S :    0.445821
   1 C :   -0.209874
   2 C :   -0.055221
   3 C :   -0.068605
   4 C :   -0.224942
   5 H :    0.046177
   6 C :   -0.034625
   7 H :    0.027543
   8 H :    0.034250
   9 C :   -0.039880
  10 H :    0.033769
  11 H :    0.017745
  12 C :   -0.075337
  13 H :    0.030626
  14 H :    0.032969
  15 H :    0.024956
  16 S :    0.408756
  17 C :   -0.199363
  18 C :   -0.083865
  19 C :   -0.056024
  20 C :   -0.204747
  21 H :    0.034810
  22 C :   -0.027212
  23 H :    0.026980
  24 H :    0.034631
  25 C :   -0.043741
  26 H :    0.020909
  27 H :    0.024227
  28 C :   -0.053024
  29 H :    0.009803
  30 H :    0.027917
  31 H :    0.032023
  32 H :    0.027864
  33 H :    0.034682

  Mayer bond orders larger than 0.100000
B(  0-S ,  1-C ) :   1.1573 B(  0-S ,  4-C ) :   1.2004 B(  1-C ,  2-C ) :   1.5460
B(  1-C ,  4-C ) :   0.1093 B(  1-C , 32-H ) :   0.9697 B(  2-C ,  3-C ) :   1.2832
B(  2-C ,  6-C ) :   1.0180 B(  3-C ,  4-C ) :   1.5497 B(  3-C ,  5-H ) :   0.9801
B(  4-C , 20-C ) :   0.9969 B(  6-C ,  7-H ) :   0.9400 B(  6-C ,  8-H ) :   0.9295
B(  6-C ,  9-C ) :   1.0743 B(  9-C , 10-H ) :   0.9654 B(  9-C , 11-H ) :   0.9558
B(  9-C , 12-C ) :   1.0553 B( 12-C , 13-H ) :   0.9804 B( 12-C , 14-H ) :   0.9744
B( 12-C , 15-H ) :   0.9780 B( 16-S , 17-C ) :   1.1508 B( 16-S , 20-C ) :   1.1349
B( 17-C , 18-C ) :   1.6457 B( 17-C , 33-H ) :   0.9582 B( 18-C , 19-C ) :   1.2353
B( 18-C , 21-H ) :   0.9793 B( 19-C , 20-C ) :   1.6285 B( 19-C , 22-C ) :   1.0419
B( 22-C , 23-H ) :   0.9354 B( 22-C , 24-H ) :   0.9228 B( 22-C , 25-C ) :   1.0744
B( 25-C , 26-H ) :   0.9530 B( 25-C , 27-H ) :   0.9521 B( 25-C , 28-C ) :   1.0795
B( 28-C , 29-H ) :   0.9760 B( 28-C , 30-H ) :   0.9702 B( 28-C , 31-H ) :   0.9736

Dispersion correction           -0.013621375
FINAL SINGLE POINT ENERGY     -1339.868711394916

DIPOLE MOMENT
-------------
                                X             Y             Z
Electronic contribution:      1.93246     -16.77363     -21.44154
Nuclear contribution   :     -2.06145      17.16331      21.80445
                        -----------------------------------------
Total Dipole Moment    :     -0.12899       0.38969       0.36291
                        -----------------------------------------
Magnitude (a.u.)       :      0.54790
Magnitude (Debye)      :      1.39265

Rotational constants in cm-1:     0.019664     0.007734     0.006220
Rotational constants in MHz :   589.503573   231.861369   186.457586

                             ****ORCA TERMINATED NORMALLY****
TOTAL RUN TIME: 0 days 0 hours 0 minutes 33 seconds 780 msec
