                         Program Version 4.2.1 -  RELEASE  -
|  1> ! wB97X-D3 SP def2-SVP
|  2> %pal
|  3> nprocs 16
|  4> end
|  5>
|  6> * xyz 0 1
|  7> S 	 8.49717 	 25.0398 	 67.1932
|  8> C 	 7.70452 	 24.3014 	 65.8286
|  9> C 	 6.90027 	 25.1992 	 65.1923
| 10> C 	 6.79099 	 26.4388 	 65.9914
| 11> C 	 7.54845 	 26.5486 	 67.1167
| 12> H 	 6.16627 	 27.2613 	 65.7786
| 13> C 	 6.22102 	 25.0063 	 63.863
| 14> H 	 5.1104 	 25.02 	 63.8761
| 15> H 	 6.25555 	 23.9356 	 63.7016
| 16> C 	 6.66976 	 25.957 	 62.7899
| 17> H 	 6.26639 	 25.68 	 61.8119
| 18> H 	 6.0592 	 26.8606 	 63.0444
| 19> C 	 8.17353 	 26.2084 	 62.7038
| 20> H 	 8.3559 	 27.0134 	 62.0314
| 21> H 	 8.72775 	 26.5571 	 63.5573
| 22> H 	 8.69851 	 25.3695 	 62.2002
| 23> S 	 8.17759 	 27.3004 	 69.7241
| 24> C 	 8.29875 	 29.0024 	 70.0867
| 25> C 	 7.98926 	 29.7812 	 68.9826
| 26> C 	 7.57662 	 29.0811 	 67.8051
| 27> C 	 7.68047 	 27.7289 	 68.0777
| 28> H 	 8.0986 	 30.8067 	 69.1696
| 29> C 	 7.33792 	 29.7403 	 66.4792
| 30> H 	 7.14668 	 30.755 	 66.7514
| 31> H 	 6.46722 	 29.3116 	 66.0566
| 32> C 	 8.54964 	 29.7265 	 65.4905
| 33> H 	 8.15646 	 30.0868 	 64.5596
| 34> H 	 8.73256 	 28.7647 	 65.0597
| 35> C 	 9.7504 	 30.5757 	 65.9753
| 36> H 	 9.29558 	 31.5444 	 66.2895
| 37> H 	 10.5852 	 30.6721 	 65.2984
| 38> H 	 10.1557 	 30.1886 	 66.9124
| 39> H 	 7.86494 	 23.3267 	 65.3958
| 40> H 	 8.43441 	 29.4652 	 71.0688
| 41> *
| 42>
| 43>                          ****END OF INPUT****

CARTESIAN COORDINATES (ANGSTROEM)
---------------------------------
  S      8.497170   25.039800   67.193200
  C      7.704520   24.301400   65.828600
  C      6.900270   25.199200   65.192300
  C      6.790990   26.438800   65.991400
  C      7.548450   26.548600   67.116700
  H      6.166270   27.261300   65.778600
  C      6.221020   25.006300   63.863000
  H      5.110400   25.020000   63.876100
  H      6.255550   23.935600   63.701600
  C      6.669760   25.957000   62.789900
  H      6.266390   25.680000   61.811900
  H      6.059200   26.860600   63.044400
  C      8.173530   26.208400   62.703800
  H      8.355900   27.013400   62.031400
  H      8.727750   26.557100   63.557300
  H      8.698510   25.369500   62.200200
  S      8.177590   27.300400   69.724100
  C      8.298750   29.002400   70.086700
  C      7.989260   29.781200   68.982600
  C      7.576620   29.081100   67.805100
  C      7.680470   27.728900   68.077700
  H      8.098600   30.806700   69.169600
  C      7.337920   29.740300   66.479200
  H      7.146680   30.755000   66.751400
  H      6.467220   29.311600   66.056600
  C      8.549640   29.726500   65.490500
  H      8.156460   30.086800   64.559600
  H      8.732560   28.764700   65.059700
  C      9.750400   30.575700   65.975300
  H      9.295580   31.544400   66.289500
  H     10.585200   30.672100   65.298400
  H     10.155700   30.188600   66.912400
  H      7.864940   23.326700   65.395800
  H      8.434410   29.465200   71.068800

 Total Charge           Charge          ....    0
 Multiplicity           Mult            ....    1
 Number of Electrons    NEL             ....  134
 Basis Dimension        Dim             ....  322

ORBITAL ENERGIES
----------------

  NO   OCC          E(Eh)            E(eV)
   0   2.0000     -88.970535     -2421.0113
   1   2.0000     -88.960561     -2420.7399
   2   2.0000     -10.336460      -281.2694
   3   2.0000     -10.333390      -281.1858
   4   2.0000     -10.317700      -280.7589
   5   2.0000     -10.311793      -280.5981
   6   2.0000     -10.306733      -280.4605
   7   2.0000     -10.300981      -280.3039
   8   2.0000     -10.294231      -280.1203
   9   2.0000     -10.292860      -280.0830
  10   2.0000     -10.292130      -280.0631
  11   2.0000     -10.290321      -280.0139
  12   2.0000     -10.288101      -279.9535
  13   2.0000     -10.286966      -279.9226
  14   2.0000     -10.282468      -279.8002
  15   2.0000     -10.274192      -279.5750
  16   2.0000      -8.084761      -219.9975
  17   2.0000      -8.074931      -219.7300
  18   2.0000      -6.043234      -164.4447
  19   2.0000      -6.039407      -164.3406
  20   2.0000      -6.035526      -164.2350
  21   2.0000      -6.033752      -164.1867
  22   2.0000      -6.029485      -164.0706
  23   2.0000      -6.025351      -163.9581
  24   2.0000      -1.002769       -27.2867
  25   2.0000      -0.983518       -26.7629
  26   2.0000      -0.914133       -24.8748
  27   2.0000      -0.912275       -24.8243
  28   2.0000      -0.865585       -23.5538
  29   2.0000      -0.852237       -23.1906
  30   2.0000      -0.836517       -22.7628
  31   2.0000      -0.818616       -22.2757
  32   2.0000      -0.789228       -21.4760
  33   2.0000      -0.781072       -21.2540
  34   2.0000      -0.719739       -19.5851
  35   2.0000      -0.703872       -19.1533
  36   2.0000      -0.689734       -18.7686
  37   2.0000      -0.662877       -18.0378
  38   2.0000      -0.639512       -17.4020
  39   2.0000      -0.620472       -16.8839
  40   2.0000      -0.589653       -16.0453
  41   2.0000      -0.572029       -15.5657
  42   2.0000      -0.564798       -15.3689
  43   2.0000      -0.551105       -14.9963
  44   2.0000      -0.545183       -14.8352
  45   2.0000      -0.541394       -14.7321
  46   2.0000      -0.516143       -14.0450
  47   2.0000      -0.501864       -13.6564
  48   2.0000      -0.499413       -13.5897
  49   2.0000      -0.493597       -13.4315
  50   2.0000      -0.487812       -13.2740
  51   2.0000      -0.482254       -13.1228
  52   2.0000      -0.472266       -12.8510
  53   2.0000      -0.464778       -12.6473
  54   2.0000      -0.458485       -12.4760
  55   2.0000      -0.452402       -12.3105
  56   2.0000      -0.446070       -12.1382
  57   2.0000      -0.441114       -12.0033
  58   2.0000      -0.439619       -11.9626
  59   2.0000      -0.432947       -11.7811
  60   2.0000      -0.412214       -11.2169
  61   2.0000      -0.409380       -11.1398
  62   2.0000      -0.402658       -10.9569
  63   2.0000      -0.356313        -9.6958
  64   2.0000      -0.336403        -9.1540
  65   2.0000      -0.322179        -8.7669
  66   2.0000      -0.291620        -7.9354
  67   0.0000       0.026638         0.7249
  68   0.0000       0.082610         2.2479
  69   0.0000       0.105664         2.8753
  70   0.0000       0.117751         3.2042
  71   0.0000       0.127939         3.4814

MULLIKEN ATOMIC CHARGES
-----------------------
   0 S :    0.081494
   1 C :   -0.098622
   2 C :   -0.104984
   3 C :   -0.002251
   4 C :   -0.085280
   5 H :   -0.026123
   6 C :    0.082226
   7 H :    0.027891
   8 H :   -0.002960
   9 C :   -0.069625
  10 H :    0.029051
  11 H :    0.029909
  12 C :   -0.032675
  13 H :    0.011852
  14 H :    0.051678
  15 H :    0.034292
  16 S :    0.117754
  17 C :   -0.097524
  18 C :   -0.045023
  19 C :   -0.032754
  20 C :   -0.160142
  21 H :   -0.003329
  22 C :    0.094197
  23 H :    0.010237
  24 H :    0.020462
  25 C :   -0.016733
  26 H :    0.006114
  27 H :    0.009369
  28 C :   -0.040485
  29 H :    0.023433
  30 H :    0.043562
  31 H :    0.041556
  32 H :    0.042893
  33 H :    0.060542
Sum of atomic charges:   -0.0000000

LOEWDIN ATOMIC CHARGES
----------------------
   0 S :    0.376526
   1 C :   -0.192480
   2 C :   -0.060931
   3 C :   -0.072602
   4 C :   -0.175918
   5 H :    0.015849
   6 C :   -0.045986
   7 H :    0.036365
   8 H :    0.023967
   9 C :   -0.042439
  10 H :    0.029143
  11 H :    0.029051
  12 C :   -0.070688
  13 H :    0.023467
  14 H :    0.027237
  15 H :    0.032606
  16 S :    0.403712
  17 C :   -0.192473
  18 C :   -0.067524
  19 C :   -0.054604
  20 C :   -0.176988
  21 H :    0.022016
  22 C :   -0.018460
  23 H :    0.028666
  24 H :    0.026273
  25 C :   -0.037006
  26 H :    0.023081
  27 H :    0.021638
  28 C :   -0.062202
  29 H :    0.028473
  30 H :    0.027152
  31 H :    0.028273
  32 H :    0.031972
  33 H :    0.034834

  Mayer bond orders larger than 0.100000
B(  0-S ,  1-C ) :   1.1247 B(  0-S ,  4-C ) :   1.1164 B(  1-C ,  2-C ) :   1.6508
B(  1-C , 32-H ) :   0.9600 B(  2-C ,  3-C ) :   1.1868 B(  2-C ,  6-C ) :   1.0345
B(  3-C ,  4-C ) :   1.6315 B(  3-C ,  5-H ) :   1.0060 B(  4-C , 20-C ) :   1.0228
B(  6-C ,  7-H ) :   0.9391 B(  6-C ,  8-H ) :   0.9319 B(  6-C ,  9-C ) :   1.0550
B(  9-C , 10-H ) :   0.9521 B(  9-C , 11-H ) :   0.9540 B(  9-C , 12-C ) :   1.0835
B( 12-C , 13-H ) :   0.9682 B( 12-C , 14-H ) :   0.9670 B( 12-C , 15-H ) :   0.9718
B( 16-S , 17-C ) :   1.1389 B( 16-S , 20-C ) :   1.1525 B( 17-C , 18-C ) :   1.6390
B( 17-C , 33-H ) :   0.9629 B( 18-C , 19-C ) :   1.2176 B( 18-C , 21-H ) :   0.9938
B( 19-C , 20-C ) :   1.5905 B( 19-C , 22-C ) :   1.0400 B( 22-C , 23-H ) :   0.9266
B( 22-C , 24-H ) :   0.9253 B( 22-C , 25-C ) :   1.0811 B( 25-C , 26-H ) :   0.9445
B( 25-C , 27-H ) :   0.9492 B( 25-C , 28-C ) :   1.0562 B( 28-C , 29-H ) :   0.9732
B( 28-C , 30-H ) :   0.9752 B( 28-C , 31-H ) :   0.9771

Dispersion correction           -0.016049597
FINAL SINGLE POINT ENERGY     -1339.862936974489

DIPOLE MOMENT
-------------
                                X             Y             Z
Electronic contribution:      0.39731     -11.68148      25.47250
Nuclear contribution   :     -0.57126      12.20109     -26.09710
                        -----------------------------------------
Total Dipole Moment    :     -0.17394       0.51961      -0.62460
                        -----------------------------------------
Magnitude (a.u.)       :      0.83089
Magnitude (Debye)      :      2.11196

Rotational constants in cm-1:     0.019800     0.010027     0.007493
Rotational constants in MHz :   593.582961   300.587660   224.639741

                             ****ORCA TERMINATED NORMALLY****
TOTAL RUN TIME: 0 days 0 hours 0 minutes 36 seconds 961 msec
