                         Program Version 4.2.1 -  RELEASE  -
|  1> ! wB97X-D3 SP def2-SVP
|  2> %pal
|  3> nprocs 16
|  4> end
|  5>
|  6> * xyz 0 1
|  7> S 	 4.90107 	 74.8651 	 48.2611
|  8> C 	 4.39971 	 74.1006 	 49.7015
|  9> C 	 3.79526 	 74.952 	 50.5962
| 10> C 	 3.78609 	 76.2789 	 50.1329
| 11> C 	 4.2406 	 76.4175 	 48.8216
| 12> H 	 3.19464 	 77.0708 	 50.622
| 13> C 	 3.2524 	 74.5939 	 51.9229
| 14> H 	 3.54234 	 75.3825 	 52.6708
| 15> H 	 3.77685 	 73.6749 	 52.282
| 16> C 	 1.7363 	 74.6417 	 52.0074
| 17> H 	 1.41322 	 74.155 	 52.9268
| 18> H 	 1.4474 	 75.6522 	 51.8795
| 19> C 	 1.06267 	 73.6746 	 50.9522
| 20> H 	 1.11519 	 74.142 	 49.9117
| 21> H 	 1.4228 	 72.7023 	 50.8602
| 22> H 	 -0.00563138 	 73.5893 	 51.1314
| 23> S 	 5.47001 	 77.6164 	 46.8207
| 24> C 	 5.06306 	 79.2644 	 46.2955
| 25> C 	 3.93448 	 79.694 	 46.9065
| 26> C 	 3.42642 	 78.7474 	 47.9337
| 27> C 	 4.24159 	 77.6127 	 48.0205
| 28> H 	 3.50004 	 80.7394 	 46.7386
| 29> C 	 2.23092 	 79.0581 	 48.7921
| 30> H 	 1.72638 	 78.0585 	 49.0315
| 31> H 	 1.56661 	 79.4066 	 47.9313
| 32> C 	 2.29124 	 80.0549 	 49.9318
| 33> H 	 1.78453 	 79.5675 	 50.7818
| 34> H 	 1.68316 	 80.871 	 49.6723
| 35> C 	 3.74381 	 80.6341 	 50.2617
| 36> H 	 3.99013 	 81.4442 	 49.6473
| 37> H 	 4.55328 	 79.8884 	 50.3044
| 38> H 	 3.75386 	 81.1288 	 51.2386
| 39> H 	 4.58216 	 73.1341 	 49.9471
| 40> H 	 5.63015 	 79.9832 	 45.6534
| 41> *
| 42>
| 43>                          ****END OF INPUT****

CARTESIAN COORDINATES (ANGSTROEM)
---------------------------------
  S      4.901070   74.865100   48.261100
  C      4.399710   74.100600   49.701500
  C      3.795260   74.952000   50.596200
  C      3.786090   76.278900   50.132900
  C      4.240600   76.417500   48.821600
  H      3.194640   77.070800   50.622000
  C      3.252400   74.593900   51.922900
  H      3.542340   75.382500   52.670800
  H      3.776850   73.674900   52.282000
  C      1.736300   74.641700   52.007400
  H      1.413220   74.155000   52.926800
  H      1.447400   75.652200   51.879500
  C      1.062670   73.674600   50.952200
  H      1.115190   74.142000   49.911700
  H      1.422800   72.702300   50.860200
  H     -0.005631   73.589300   51.131400
  S      5.470010   77.616400   46.820700
  C      5.063060   79.264400   46.295500
  C      3.934480   79.694000   46.906500
  C      3.426420   78.747400   47.933700
  C      4.241590   77.612700   48.020500
  H      3.500040   80.739400   46.738600
  C      2.230920   79.058100   48.792100
  H      1.726380   78.058500   49.031500
  H      1.566610   79.406600   47.931300
  C      2.291240   80.054900   49.931800
  H      1.784530   79.567500   50.781800
  H      1.683160   80.871000   49.672300
  C      3.743810   80.634100   50.261700
  H      3.990130   81.444200   49.647300
  H      4.553280   79.888400   50.304400
  H      3.753860   81.128800   51.238600
  H      4.582160   73.134100   49.947100
  H      5.630150   79.983200   45.653400

 Total Charge           Charge          ....    0
 Multiplicity           Mult            ....    1
 Number of Electrons    NEL             ....  134
 Basis Dimension        Dim             ....  322

ORBITAL ENERGIES
----------------

  NO   OCC          E(Eh)            E(eV)
   0   2.0000     -88.968962     -2420.9685
   1   2.0000     -88.961961     -2420.7780
   2   2.0000     -10.332167      -281.1526
   3   2.0000     -10.325207      -280.9632
   4   2.0000     -10.320046      -280.8227
   5   2.0000     -10.308148      -280.4990
   6   2.0000     -10.302239      -280.3382
   7   2.0000     -10.301852      -280.3276
   8   2.0000     -10.298840      -280.2457
   9   2.0000     -10.292625      -280.0766
  10   2.0000     -10.292400      -280.0704
  11   2.0000     -10.292348      -280.0690
  12   2.0000     -10.291999      -280.0595
  13   2.0000     -10.289197      -279.9833
  14   2.0000     -10.278956      -279.7046
  15   2.0000     -10.273895      -279.5669
  16   2.0000      -8.083833      -219.9723
  17   2.0000      -8.077243      -219.7930
  18   2.0000      -6.042442      -164.4232
  19   2.0000      -6.038277      -164.3099
  20   2.0000      -6.036006      -164.2481
  21   2.0000      -6.034537      -164.2081
  22   2.0000      -6.031663      -164.1299
  23   2.0000      -6.027715      -164.0225
  24   2.0000      -1.010523       -27.4977
  25   2.0000      -0.985589       -26.8192
  26   2.0000      -0.915625       -24.9154
  27   2.0000      -0.906001       -24.6536
  28   2.0000      -0.873595       -23.7717
  29   2.0000      -0.850059       -23.1313
  30   2.0000      -0.838654       -22.8209
  31   2.0000      -0.816129       -22.2080
  32   2.0000      -0.782288       -21.2872
  33   2.0000      -0.776509       -21.1299
  34   2.0000      -0.719213       -19.5708
  35   2.0000      -0.701246       -19.0819
  36   2.0000      -0.693528       -18.8719
  37   2.0000      -0.659378       -17.9426
  38   2.0000      -0.635979       -17.3059
  39   2.0000      -0.623950       -16.9785
  40   2.0000      -0.578852       -15.7514
  41   2.0000      -0.566599       -15.4179
  42   2.0000      -0.560046       -15.2396
  43   2.0000      -0.550843       -14.9892
  44   2.0000      -0.543417       -14.7871
  45   2.0000      -0.538065       -14.6415
  46   2.0000      -0.518072       -14.0974
  47   2.0000      -0.508149       -13.8274
  48   2.0000      -0.502119       -13.6633
  49   2.0000      -0.494540       -13.4571
  50   2.0000      -0.489527       -13.3207
  51   2.0000      -0.486796       -13.2464
  52   2.0000      -0.472877       -12.8676
  53   2.0000      -0.462882       -12.5957
  54   2.0000      -0.457215       -12.4414
  55   2.0000      -0.447258       -12.1705
  56   2.0000      -0.445988       -12.1359
  57   2.0000      -0.441081       -12.0024
  58   2.0000      -0.436547       -11.8790
  59   2.0000      -0.423382       -11.5208
  60   2.0000      -0.417967       -11.3735
  61   2.0000      -0.408884       -11.1263
  62   2.0000      -0.401634       -10.9290
  63   2.0000      -0.362956        -9.8765
  64   2.0000      -0.335630        -9.1329
  65   2.0000      -0.322445        -8.7742
  66   2.0000      -0.282374        -7.6838
  67   0.0000       0.023044         0.6271
  68   0.0000       0.079591         2.1658
  69   0.0000       0.101383         2.7588
  70   0.0000       0.114179         3.1070
  71   0.0000       0.121430         3.3043

MULLIKEN ATOMIC CHARGES
-----------------------
   0 S :    0.119137
   1 C :   -0.061287
   2 C :   -0.088067
   3 C :   -0.002571
   4 C :   -0.130704
   5 H :    0.016874
   6 C :    0.040189
   7 H :    0.034538
   8 H :    0.027168
   9 C :   -0.039486
  10 H :    0.036991
  11 H :    0.027700
  12 C :   -0.077648
  13 H :    0.043616
  14 H :    0.021667
  15 H :    0.028153
  16 S :    0.078603
  17 C :   -0.089996
  18 C :   -0.051298
  19 C :   -0.096931
  20 C :   -0.112044
  21 H :    0.045297
  22 C :   -0.021261
  23 H :    0.044475
  24 H :    0.041267
  25 C :   -0.022833
  26 H :    0.033739
  27 H :    0.019395
  28 C :   -0.026532
  29 H :    0.018067
  30 H :    0.051460
  31 H :    0.025699
  32 H :   -0.004474
  33 H :    0.071097
Sum of atomic charges:    0.0000000

LOEWDIN ATOMIC CHARGES
----------------------
   0 S :    0.412999
   1 C :   -0.192574
   2 C :   -0.066794
   3 C :   -0.066752
   4 C :   -0.182186
   5 H :    0.033167
   6 C :   -0.040441
   7 H :    0.038044
   8 H :    0.032034
   9 C :   -0.029159
  10 H :    0.029494
  11 H :    0.019944
  12 C :   -0.071070
  13 H :    0.032898
  14 H :    0.013975
  15 H :    0.022764
  16 S :    0.395490
  17 C :   -0.189050
  18 C :   -0.078304
  19 C :   -0.062280
  20 C :   -0.200651
  21 H :    0.043440
  22 C :   -0.057572
  23 H :    0.038018
  24 H :    0.044516
  25 C :   -0.039614
  26 H :    0.029668
  27 H :    0.022913
  28 C :   -0.062622
  29 H :    0.018118
  30 H :    0.031786
  31 H :    0.028842
  32 H :    0.006256
  33 H :    0.044706

  Mayer bond orders larger than 0.100000
B(  0-S ,  1-C ) :   1.1405 B(  0-S ,  4-C ) :   1.1440 B(  1-C ,  2-C ) :   1.5972
B(  1-C , 32-H ) :   0.9744 B(  2-C ,  3-C ) :   1.2633 B(  2-C ,  6-C ) :   1.0301
B(  3-C ,  4-C ) :   1.5549 B(  3-C ,  5-H ) :   0.9837 B(  4-C , 20-C ) :   1.0881
B(  6-C ,  7-H ) :   0.9414 B(  6-C ,  8-H ) :   0.9427 B(  6-C ,  9-C ) :   1.0652
B(  9-C , 10-H ) :   0.9585 B(  9-C , 11-H ) :   0.9574 B(  9-C , 12-C ) :   1.0690
B( 12-C , 13-H ) :   0.9721 B( 12-C , 14-H ) :   0.9797 B( 12-C , 15-H ) :   0.9780
B( 16-S , 17-C ) :   1.1226 B( 16-S , 20-C ) :   1.1227 B( 17-C , 18-C ) :   1.6704
B( 17-C , 33-H ) :   0.9592 B( 18-C , 19-C ) :   1.1992 B( 18-C , 21-H ) :   0.9715
B( 19-C , 20-C ) :   1.5953 B( 19-C , 22-C ) :   1.0535 B( 22-C , 23-H ) :   0.9399
B( 22-C , 24-H ) :   0.9331 B( 22-C , 25-C ) :   1.0285 B( 25-C , 26-H ) :   0.9606
B( 25-C , 27-H ) :   0.9506 B( 25-C , 28-C ) :   1.0992 B( 28-C , 29-H ) :   0.9705
B( 28-C , 30-H ) :   0.9734 B( 28-C , 31-H ) :   0.9733

Dispersion correction           -0.015515258
FINAL SINGLE POINT ENERGY     -1339.856178496068

DIPOLE MOMENT
-------------
                                X             Y             Z
Electronic contribution:     17.91178      -5.52654     -19.30190
Nuclear contribution   :    -18.37872       5.91934      19.78554
                        -----------------------------------------
Total Dipole Moment    :     -0.46693       0.39281       0.48364
                        -----------------------------------------
Magnitude (a.u.)       :      0.77861
Magnitude (Debye)      :      1.97908

Rotational constants in cm-1:     0.019653     0.009749     0.007230
Rotational constants in MHz :   589.187996   292.259788   216.763777

                             ****ORCA TERMINATED NORMALLY****
TOTAL RUN TIME: 0 days 0 hours 0 minutes 35 seconds 942 msec
