                         Program Version 4.2.1 -  RELEASE  -
|  1> ! wB97X-D3 SP def2-SVP
|  2> %pal
|  3> nprocs 16
|  4> end
|  5>
|  6> * xyz 0 1
|  7> S 	 -95.031 	 39.2359 	 124.499
|  8> C 	 -93.5274 	 38.8989 	 123.66
|  9> C 	 -93.7581 	 38.6525 	 122.345
| 10> C 	 -95.1058 	 38.9498 	 121.961
| 11> C 	 -95.9335 	 39.3948 	 122.995
| 12> H 	 -95.5808 	 38.7845 	 120.973
| 13> C 	 -92.5978 	 38.3895 	 121.401
| 14> H 	 -92.0009 	 37.5875 	 121.82
| 15> H 	 -92.1218 	 39.4187 	 121.33
| 16> C 	 -92.9098 	 37.8883 	 119.976
| 17> H 	 -93.3266 	 36.8643 	 119.872
| 18> H 	 -93.6972 	 38.5726 	 119.513
| 19> C 	 -91.643 	 37.9081 	 119.055
| 20> H 	 -91.7889 	 37.4659 	 118.055
| 21> H 	 -91.1815 	 38.8612 	 118.813
| 22> H 	 -90.9334 	 37.2689 	 119.544
| 23> S 	 -98.2785 	 39.5832 	 124.379
| 24> C 	 -99.6239 	 40.4853 	 123.781
| 25> C 	 -99.3128 	 40.9792 	 122.55
| 26> C 	 -98.0335 	 40.5686 	 122.029
| 27> C 	 -97.261 	 39.9389 	 122.98
| 28> H 	 -100.002 	 41.6168 	 122.008
| 29> C 	 -97.5928 	 41.0125 	 120.675
| 30> H 	 -96.4858 	 40.8942 	 120.675
| 31> H 	 -97.8076 	 42.0864 	 120.724
| 32> C 	 -98.3429 	 40.2986 	 119.475
| 33> H 	 -99.4571 	 40.4723 	 119.528
| 34> H 	 -98.199 	 39.2102 	 119.497
| 35> C 	 -97.8061 	 40.8001 	 118.126
| 36> H 	 -96.8029 	 40.5613 	 117.848
| 37> H 	 -97.7433 	 41.8834 	 118.296
| 38> H 	 -98.5254 	 40.559 	 117.442
| 39> H 	 -92.6063 	 38.8362 	 124.182
| 40> H 	 -100.537 	 40.7965 	 124.359
| 41> *
| 42>
| 43>                          ****END OF INPUT****

CARTESIAN COORDINATES (ANGSTROEM)
---------------------------------
  S    -95.031000   39.235900  124.499000
  C    -93.527400   38.898900  123.660000
  C    -93.758100   38.652500  122.345000
  C    -95.105800   38.949800  121.961000
  C    -95.933500   39.394800  122.995000
  H    -95.580800   38.784500  120.973000
  C    -92.597800   38.389500  121.401000
  H    -92.000900   37.587500  121.820000
  H    -92.121800   39.418700  121.330000
  C    -92.909800   37.888300  119.976000
  H    -93.326600   36.864300  119.872000
  H    -93.697200   38.572600  119.513000
  C    -91.643000   37.908100  119.055000
  H    -91.788900   37.465900  118.055000
  H    -91.181500   38.861200  118.813000
  H    -90.933400   37.268900  119.544000
  S    -98.278500   39.583200  124.379000
  C    -99.623900   40.485300  123.781000
  C    -99.312800   40.979200  122.550000
  C    -98.033500   40.568600  122.029000
  C    -97.261000   39.938900  122.980000
  H    -100.002000   41.616800  122.008000
  C    -97.592800   41.012500  120.675000
  H    -96.485800   40.894200  120.675000
  H    -97.807600   42.086400  120.724000
  C    -98.342900   40.298600  119.475000
  H    -99.457100   40.472300  119.528000
  H    -98.199000   39.210200  119.497000
  C    -97.806100   40.800100  118.126000
  H    -96.802900   40.561300  117.848000
  H    -97.743300   41.883400  118.296000
  H    -98.525400   40.559000  117.442000
  H    -92.606300   38.836200  124.182000
  H    -100.537000   40.796500  124.359000

 Total Charge           Charge          ....    0
 Multiplicity           Mult            ....    1
 Number of Electrons    NEL             ....  134
 Basis Dimension        Dim             ....  322

ORBITAL ENERGIES
----------------

  NO   OCC          E(Eh)            E(eV)
   0   2.0000     -88.962009     -2420.7793
   1   2.0000     -88.960213     -2420.7305
   2   2.0000     -10.332477      -281.1610
   3   2.0000     -10.326446      -280.9969
   4   2.0000     -10.318585      -280.7830
   5   2.0000     -10.309543      -280.5369
   6   2.0000     -10.301646      -280.3220
   7   2.0000     -10.300968      -280.3036
   8   2.0000     -10.300847      -280.3003
   9   2.0000     -10.299335      -280.2592
  10   2.0000     -10.299294      -280.2580
  11   2.0000     -10.297810      -280.2177
  12   2.0000     -10.295638      -280.1586
  13   2.0000     -10.291232      -280.0387
  14   2.0000     -10.280852      -279.7562
  15   2.0000     -10.270744      -279.4812
  16   2.0000      -8.076838      -219.7819
  17   2.0000      -8.075490      -219.7453
  18   2.0000      -6.035419      -164.2321
  19   2.0000      -6.034165      -164.1980
  20   2.0000      -6.031374      -164.1220
  21   2.0000      -6.029917      -164.0824
  22   2.0000      -6.027463      -164.0156
  23   2.0000      -6.026035      -163.9767
  24   2.0000      -1.009401       -27.4672
  25   2.0000      -0.986797       -26.8521
  26   2.0000      -0.909885       -24.7592
  27   2.0000      -0.907752       -24.7012
  28   2.0000      -0.874515       -23.7968
  29   2.0000      -0.856431       -23.3047
  30   2.0000      -0.841098       -22.8874
  31   2.0000      -0.817896       -22.2561
  32   2.0000      -0.780770       -21.2458
  33   2.0000      -0.771634       -20.9972
  34   2.0000      -0.713446       -19.4138
  35   2.0000      -0.700082       -19.0502
  36   2.0000      -0.690840       -18.7987
  37   2.0000      -0.661107       -17.9896
  38   2.0000      -0.640994       -17.4423
  39   2.0000      -0.617996       -16.8165
  40   2.0000      -0.591797       -16.1036
  41   2.0000      -0.573631       -15.6093
  42   2.0000      -0.564662       -15.3652
  43   2.0000      -0.560708       -15.2577
  44   2.0000      -0.540678       -14.7126
  45   2.0000      -0.525622       -14.3029
  46   2.0000      -0.519702       -14.1418
  47   2.0000      -0.514023       -13.9873
  48   2.0000      -0.507241       -13.8027
  49   2.0000      -0.504444       -13.7266
  50   2.0000      -0.495091       -13.4721
  51   2.0000      -0.481285       -13.0964
  52   2.0000      -0.472574       -12.8594
  53   2.0000      -0.464073       -12.6281
  54   2.0000      -0.458259       -12.4699
  55   2.0000      -0.447484       -12.1767
  56   2.0000      -0.444977       -12.1084
  57   2.0000      -0.435124       -11.8403
  58   2.0000      -0.433969       -11.8089
  59   2.0000      -0.424632       -11.5548
  60   2.0000      -0.419096       -11.4042
  61   2.0000      -0.414463       -11.2781
  62   2.0000      -0.406597       -11.0641
  63   2.0000      -0.360553        -9.8111
  64   2.0000      -0.330427        -8.9914
  65   2.0000      -0.324471        -8.8293
  66   2.0000      -0.285252        -7.7621
  67   0.0000       0.020025         0.5449
  68   0.0000       0.079260         2.1568
  69   0.0000       0.109261         2.9732
  70   0.0000       0.121643         3.3101
  71   0.0000       0.124747         3.3946

MULLIKEN ATOMIC CHARGES
-----------------------
   0 S :    0.097572
   1 C :   -0.125201
   2 C :   -0.047338
   3 C :   -0.020968
   4 C :   -0.134259
   5 H :    0.033105
   6 C :    0.036978
   7 H :    0.038238
   8 H :    0.067899
   9 C :   -0.122590
  10 H :    0.045429
  11 H :    0.034965
  12 C :   -0.048543
  13 H :    0.031692
  14 H :    0.033304
  15 H :    0.022134
  16 S :    0.082005
  17 C :   -0.090728
  18 C :   -0.034239
  19 C :   -0.065224
  20 C :   -0.105704
  21 H :    0.013420
  22 C :    0.020682
  23 H :    0.030079
  24 H :    0.036785
  25 C :   -0.110294
  26 H :    0.041798
  27 H :    0.036936
  28 C :    0.013902
  29 H :    0.029520
  30 H :    0.016157
  31 H :    0.022804
  32 H :    0.038814
  33 H :    0.080871
Sum of atomic charges:   -0.0000000

LOEWDIN ATOMIC CHARGES
----------------------
   0 S :    0.394265
   1 C :   -0.183449
   2 C :   -0.069592
   3 C :   -0.076050
   4 C :   -0.184182
   5 H :    0.035544
   6 C :   -0.036190
   7 H :    0.033165
   8 H :    0.051514
   9 C :   -0.049769
  10 H :    0.029920
  11 H :    0.023477
  12 C :   -0.069055
  13 H :    0.028965
  14 H :    0.023121
  15 H :    0.020660
  16 S :    0.396398
  17 C :   -0.197660
  18 C :   -0.075421
  19 C :   -0.059653
  20 C :   -0.191641
  21 H :    0.028259
  22 C :   -0.039330
  23 H :    0.033104
  24 H :    0.035464
  25 C :   -0.035596
  26 H :    0.031406
  27 H :    0.023468
  28 C :   -0.057572
  29 H :    0.022624
  30 H :    0.027936
  31 H :    0.015464
  32 H :    0.023207
  33 H :    0.047201

  Mayer bond orders larger than 0.100000
B(  0-S ,  1-C ) :   1.1346 B(  0-S ,  4-C ) :   1.1456 B(  1-C ,  2-C ) :   1.6099
B(  1-C ,  4-C ) :   0.1031 B(  1-C , 32-H ) :   0.9834 B(  2-C ,  3-C ) :   1.2350
B(  2-C ,  6-C ) :   1.0090 B(  3-C ,  4-C ) :   1.5627 B(  3-C ,  5-H ) :   0.9825
B(  4-C , 20-C ) :   1.0744 B(  6-C ,  7-H ) :   0.9401 B(  6-C ,  8-H ) :   0.9452
B(  6-C ,  9-C ) :   1.0713 B(  9-C , 10-H ) :   0.9589 B(  9-C , 11-H ) :   0.9494
B(  9-C , 12-C ) :   1.0764 B( 12-C , 13-H ) :   0.9745 B( 12-C , 14-H ) :   0.9781
B( 12-C , 15-H ) :   0.9748 B( 16-S , 17-C ) :   1.1472 B( 16-S , 20-C ) :   1.1189
B( 17-C , 18-C ) :   1.6221 B( 17-C , 33-H ) :   0.9588 B( 18-C , 19-C ) :   1.2252
B( 18-C , 21-H ) :   0.9877 B( 19-C , 20-C ) :   1.6009 B( 19-C , 22-C ) :   1.0469
B( 22-C , 23-H ) :   0.9408 B( 22-C , 24-H ) :   0.9315 B( 22-C , 25-C ) :   1.0487
B( 25-C , 26-H ) :   0.9568 B( 25-C , 27-H ) :   0.9572 B( 25-C , 28-C ) :   1.0777
B( 28-C , 29-H ) :   0.9756 B( 28-C , 30-H ) :   0.9716 B( 28-C , 31-H ) :   0.9738

Dispersion correction           -0.013540774
FINAL SINGLE POINT ENERGY     -1339.872281377191

DIPOLE MOMENT
-------------
                                X             Y             Z
Electronic contribution:    -10.28317       0.05452      31.70492
Nuclear contribution   :     10.42426       0.09857     -32.44512
                        -----------------------------------------
Total Dipole Moment    :      0.14108       0.15309      -0.74020
                        -----------------------------------------
Magnitude (a.u.)       :      0.76892
Magnitude (Debye)      :      1.95445

Rotational constants in cm-1:     0.016630     0.009270     0.006148
Rotational constants in MHz :   498.562250   277.898496   184.305230

                             ****ORCA TERMINATED NORMALLY****
TOTAL RUN TIME: 0 days 0 hours 0 minutes 34 seconds 451 msec
