                         Program Version 4.2.1 -  RELEASE  -
|  1> ! wB97X-D3 SP def2-SVP
|  2> %pal
|  3> nprocs 16
|  4> end
|  5>
|  6> * xyz 0 1
|  7> S 	 -26.5937 	 49.0236 	 66.4465
|  8> C 	 -25.764 	 49.6256 	 65.0226
|  9> C 	 -24.4625 	 49.916 	 65.298
| 10> C 	 -24.1146 	 49.7223 	 66.6573
| 11> C 	 -25.1346 	 49.2194 	 67.4103
| 12> H 	 -23.2277 	 50.0178 	 67.2358
| 13> C 	 -23.5624 	 50.5169 	 64.2504
| 14> H 	 -23.6371 	 51.6121 	 64.2506
| 15> H 	 -23.9554 	 50.212 	 63.2829
| 16> C 	 -22.0784 	 50.0527 	 64.3521
| 17> H 	 -21.4105 	 50.518 	 63.6399
| 18> H 	 -21.6804 	 50.3638 	 65.3865
| 19> C 	 -21.8577 	 48.5411 	 64.266
| 20> H 	 -22.4713 	 48.022 	 64.983
| 21> H 	 -21.971 	 48.1718 	 63.2327
| 22> H 	 -20.8846 	 48.3345 	 64.551
| 23> S 	 -26.2857 	 49.7058 	 69.8267
| 24> C 	 -25.4036 	 49.2063 	 71.236
| 25> C 	 -24.2144 	 48.5653 	 70.9415
| 26> C 	 -23.9924 	 48.3599 	 69.5698
| 27> C 	 -25.0238 	 48.9189 	 68.8312
| 28> H 	 -23.4819 	 48.3851 	 71.6703
| 29> C 	 -22.648 	 47.781 	 69.0543
| 30> H 	 -22.7274 	 47.5997 	 67.9897
| 31> H 	 -22.4997 	 46.8391 	 69.4778
| 32> C 	 -21.3604 	 48.6041 	 69.2691
| 33> H 	 -21.3205 	 48.7396 	 70.3172
| 34> H 	 -21.5475 	 49.6478 	 68.9168
| 35> C 	 -20.0603 	 48.0631 	 68.7242
| 36> H 	 -19.7808 	 47.1913 	 69.2371
| 37> H 	 -19.273 	 48.8267 	 68.7132
| 38> H 	 -20.1266 	 47.821 	 67.7289
| 39> H 	 -26.1863 	 49.6035 	 64.0508
| 40> H 	 -25.67 	 49.5305 	 72.1967
| 41> *
| 42>
| 43>                          ****END OF INPUT****

CARTESIAN COORDINATES (ANGSTROEM)
---------------------------------
  S    -26.593700   49.023600   66.446500
  C    -25.764000   49.625600   65.022600
  C    -24.462500   49.916000   65.298000
  C    -24.114600   49.722300   66.657300
  C    -25.134600   49.219400   67.410300
  H    -23.227700   50.017800   67.235800
  C    -23.562400   50.516900   64.250400
  H    -23.637100   51.612100   64.250600
  H    -23.955400   50.212000   63.282900
  C    -22.078400   50.052700   64.352100
  H    -21.410500   50.518000   63.639900
  H    -21.680400   50.363800   65.386500
  C    -21.857700   48.541100   64.266000
  H    -22.471300   48.022000   64.983000
  H    -21.971000   48.171800   63.232700
  H    -20.884600   48.334500   64.551000
  S    -26.285700   49.705800   69.826700
  C    -25.403600   49.206300   71.236000
  C    -24.214400   48.565300   70.941500
  C    -23.992400   48.359900   69.569800
  C    -25.023800   48.918900   68.831200
  H    -23.481900   48.385100   71.670300
  C    -22.648000   47.781000   69.054300
  H    -22.727400   47.599700   67.989700
  H    -22.499700   46.839100   69.477800
  C    -21.360400   48.604100   69.269100
  H    -21.320500   48.739600   70.317200
  H    -21.547500   49.647800   68.916800
  C    -20.060300   48.063100   68.724200
  H    -19.780800   47.191300   69.237100
  H    -19.273000   48.826700   68.713200
  H    -20.126600   47.821000   67.728900
  H    -26.186300   49.603500   64.050800
  H    -25.670000   49.530500   72.196700

 Total Charge           Charge          ....    0
 Multiplicity           Mult            ....    1
 Number of Electrons    NEL             ....  134
 Basis Dimension        Dim             ....  322

ORBITAL ENERGIES
----------------

  NO   OCC          E(Eh)            E(eV)
   0   2.0000     -88.968319     -2420.9510
   1   2.0000     -88.963965     -2420.8326
   2   2.0000     -10.329075      -281.0684
   3   2.0000     -10.325109      -280.9605
   4   2.0000     -10.313672      -280.6493
   5   2.0000     -10.307787      -280.4892
   6   2.0000     -10.306670      -280.4587
   7   2.0000     -10.297160      -280.2000
   8   2.0000     -10.292568      -280.0750
   9   2.0000     -10.291722      -280.0520
  10   2.0000     -10.290717      -280.0246
  11   2.0000     -10.289906      -280.0026
  12   2.0000     -10.289101      -279.9807
  13   2.0000     -10.287565      -279.9389
  14   2.0000     -10.273269      -279.5498
  15   2.0000     -10.269020      -279.4342
  16   2.0000      -8.082849      -219.9455
  17   2.0000      -8.078614      -219.8303
  18   2.0000      -6.041218      -164.3899
  19   2.0000      -6.037518      -164.2892
  20   2.0000      -6.037099      -164.2778
  21   2.0000      -6.033637      -164.1836
  22   2.0000      -6.033211      -164.1720
  23   2.0000      -6.029333      -164.0665
  24   2.0000      -1.008037       -27.4301
  25   2.0000      -0.985908       -26.8279
  26   2.0000      -0.912984       -24.8436
  27   2.0000      -0.908623       -24.7249
  28   2.0000      -0.870902       -23.6984
  29   2.0000      -0.860316       -23.4104
  30   2.0000      -0.844533       -22.9809
  31   2.0000      -0.816826       -22.2270
  32   2.0000      -0.792817       -21.5737
  33   2.0000      -0.775463       -21.1014
  34   2.0000      -0.711666       -19.3654
  35   2.0000      -0.703047       -19.1309
  36   2.0000      -0.691536       -18.8176
  37   2.0000      -0.665555       -18.1107
  38   2.0000      -0.643356       -17.5066
  39   2.0000      -0.619816       -16.8660
  40   2.0000      -0.602733       -16.4012
  41   2.0000      -0.572460       -15.5774
  42   2.0000      -0.561622       -15.2825
  43   2.0000      -0.552662       -15.0387
  44   2.0000      -0.540804       -14.7160
  45   2.0000      -0.527761       -14.3611
  46   2.0000      -0.520170       -14.1545
  47   2.0000      -0.516678       -14.0595
  48   2.0000      -0.508004       -13.8235
  49   2.0000      -0.494946       -13.4682
  50   2.0000      -0.492374       -13.3982
  51   2.0000      -0.488999       -13.3064
  52   2.0000      -0.474633       -12.9154
  53   2.0000      -0.469206       -12.7677
  54   2.0000      -0.457323       -12.4444
  55   2.0000      -0.456247       -12.4151
  56   2.0000      -0.444552       -12.0969
  57   2.0000      -0.438345       -11.9280
  58   2.0000      -0.435575       -11.8526
  59   2.0000      -0.430309       -11.7093
  60   2.0000      -0.419953       -11.4275
  61   2.0000      -0.417934       -11.3726
  62   2.0000      -0.413309       -11.2467
  63   2.0000      -0.348425        -9.4811
  64   2.0000      -0.338141        -9.2013
  65   2.0000      -0.330628        -8.9969
  66   2.0000      -0.290102        -7.8941
  67   0.0000       0.029670         0.8074
  68   0.0000       0.070107         1.9077
  69   0.0000       0.104614         2.8467
  70   0.0000       0.117086         3.1861
  71   0.0000       0.126439         3.4406

MULLIKEN ATOMIC CHARGES
-----------------------
   0 S :    0.103554
   1 C :   -0.113645
   2 C :   -0.078680
   3 C :    0.002922
   4 C :   -0.145377
   5 H :    0.016774
   6 C :    0.103862
   7 H :    0.049832
   8 H :    0.007767
   9 C :   -0.121837
  10 H :    0.029106
  11 H :    0.027950
  12 C :   -0.019580
  13 H :    0.038944
  14 H :    0.033600
  15 H :    0.010072
  16 S :    0.106469
  17 C :   -0.058133
  18 C :   -0.032894
  19 C :   -0.023373
  20 C :   -0.167984
  21 H :    0.002216
  22 C :    0.097089
  23 H :    0.015078
  24 H :    0.009537
  25 C :   -0.087674
  26 H :    0.008407
  27 H :    0.024363
  28 C :    0.027125
  29 H :    0.022987
  30 H :    0.034331
  31 H :    0.003968
  32 H :    0.036787
  33 H :    0.036437
Sum of atomic charges:    0.0000000

LOEWDIN ATOMIC CHARGES
----------------------
   0 S :    0.391331
   1 C :   -0.187270
   2 C :   -0.065412
   3 C :   -0.071851
   4 C :   -0.189603
   5 H :    0.036814
   6 C :   -0.029326
   7 H :    0.036956
   8 H :    0.026314
   9 C :   -0.044094
  10 H :    0.021884
  11 H :    0.025550
  12 C :   -0.060211
  13 H :    0.024094
  14 H :    0.027634
  15 H :    0.015774
  16 S :    0.401145
  17 C :   -0.174715
  18 C :   -0.064164
  19 C :   -0.050158
  20 C :   -0.178345
  21 H :    0.023084
  22 C :   -0.023738
  23 H :    0.026229
  24 H :    0.022460
  25 C :   -0.039886
  26 H :    0.014864
  27 H :    0.023766
  28 C :   -0.051205
  29 H :    0.022185
  30 H :    0.035679
  31 H :    0.015702
  32 H :    0.022551
  33 H :    0.015962

  Mayer bond orders larger than 0.100000
B(  0-S ,  1-C ) :   1.1226 B(  0-S ,  4-C ) :   1.1497 B(  1-C ,  2-C ) :   1.6324
B(  1-C , 32-H ) :   0.9728 B(  2-C ,  3-C ) :   1.2052 B(  2-C ,  6-C ) :   1.0172
B(  3-C ,  4-C ) :   1.5979 B(  3-C ,  5-H ) :   0.9906 B(  4-C , 20-C ) :   1.0245
B(  6-C ,  7-H ) :   0.9398 B(  6-C ,  8-H ) :   0.9380 B(  6-C ,  9-C ) :   1.0652
B(  9-C , 10-H ) :   0.9588 B(  9-C , 11-H ) :   0.9530 B(  9-C , 12-C ) :   1.0839
B( 12-C , 13-H ) :   0.9711 B( 12-C , 14-H ) :   0.9731 B( 12-C , 15-H ) :   0.9696
B( 16-S , 17-C ) :   1.1557 B( 16-S , 20-C ) :   1.1477 B( 17-C , 18-C ) :   1.6055
B( 17-C , 20-C ) :   0.1011 B( 17-C , 33-H ) :   0.9740 B( 18-C , 19-C ) :   1.2361
B( 18-C , 21-H ) :   0.9969 B( 19-C , 20-C ) :   1.6105 B( 19-C , 22-C ) :   1.0444
B( 22-C , 23-H ) :   0.9319 B( 22-C , 24-H ) :   0.9246 B( 22-C , 25-C ) :   1.0612
B( 25-C , 26-H ) :   0.9497 B( 25-C , 27-H ) :   0.9500 B( 25-C , 28-C ) :   1.0894
B( 28-C , 29-H ) :   0.9711 B( 28-C , 30-H ) :   0.9695 B( 28-C , 31-H ) :   0.9706

Dispersion correction           -0.015402206
FINAL SINGLE POINT ENERGY     -1339.881618870975

DIPOLE MOMENT
-------------
                                X             Y             Z
Electronic contribution:    -30.96814       3.07367       9.71021
Nuclear contribution   :     31.79262      -2.96528      -9.77002
                        -----------------------------------------
Total Dipole Moment    :      0.82448       0.10840      -0.05981
                        -----------------------------------------
Magnitude (a.u.)       :      0.83372
Magnitude (Debye)      :      2.11916

Rotational constants in cm-1:     0.016028     0.011367     0.007135
Rotational constants in MHz :   480.510225   340.786958   213.909976

                             ****ORCA TERMINATED NORMALLY****
TOTAL RUN TIME: 0 days 0 hours 0 minutes 33 seconds 936 msec
