                         Program Version 4.2.1 -  RELEASE  -
|  1> ! wB97X-D3 SP def2-SVP
|  2> %pal
|  3> nprocs 16
|  4> end
|  5>
|  6> * xyz 0 1
|  7> S 	 -13.0047 	 -7.82961 	 84.3988
|  8> C 	 -13.8202 	 -7.75388 	 85.9292
|  9> C 	 -13.1039 	 -8.42137 	 86.867
| 10> C 	 -11.8127 	 -8.82067 	 86.4202
| 11> C 	 -11.6095 	 -8.62356 	 85.1104
| 12> H 	 -11.1171 	 -9.36793 	 87.0323
| 13> C 	 -13.5378 	 -8.85147 	 88.3103
| 14> H 	 -13.0786 	 -9.84419 	 88.5648
| 15> H 	 -14.5664 	 -8.99299 	 88.17
| 16> C 	 -13.264 	 -7.81387 	 89.3035
| 17> H 	 -12.1753 	 -7.67537 	 89.3449
| 18> H 	 -13.7171 	 -6.81565 	 89.0547
| 19> C 	 -13.6932 	 -8.29434 	 90.7526
| 20> H 	 -13.1515 	 -7.66318 	 91.4683
| 21> H 	 -14.7634 	 -8.24726 	 90.9152
| 22> H 	 -13.4093 	 -9.409 	 91.008
| 23> S 	 -11.0221 	 -10.3273 	 83.1018
| 24> C 	 -9.37722 	 -10.6037 	 82.6219
| 25> C 	 -8.42657 	 -9.91544 	 83.3951
| 26> C 	 -9.09607 	 -8.99949 	 84.2154
| 27> C 	 -10.5208 	 -9.11084 	 84.2618
| 28> H 	 -7.39209 	 -10.1789 	 83.2195
| 29> C 	 -8.30044 	 -8.01333 	 85.0749
| 30> H 	 -8.88119 	 -7.67209 	 85.9424
| 31> H 	 -8.08657 	 -7.19967 	 84.4352
| 32> C 	 -6.95838 	 -8.64063 	 85.6443
| 33> H 	 -6.42174 	 -7.79087 	 86.0924
| 34> H 	 -6.34047 	 -9.01587 	 84.8368
| 35> C 	 -7.19242 	 -9.86185 	 86.6398
| 36> H 	 -6.36152 	 -10.0696 	 87.2121
| 37> H 	 -7.53021 	 -10.8384 	 86.1233
| 38> H 	 -8.0312 	 -9.59086 	 87.2474
| 39> H 	 -14.849 	 -7.49913 	 86.0163
| 40> H 	 -9.14963 	 -11.3254 	 81.9088
| 41> *
| 42>
| 43>                          ****END OF INPUT****

CARTESIAN COORDINATES (ANGSTROEM)
---------------------------------
  S    -13.004700   -7.829610   84.398800
  C    -13.820200   -7.753880   85.929200
  C    -13.103900   -8.421370   86.867000
  C    -11.812700   -8.820670   86.420200
  C    -11.609500   -8.623560   85.110400
  H    -11.117100   -9.367930   87.032300
  C    -13.537800   -8.851470   88.310300
  H    -13.078600   -9.844190   88.564800
  H    -14.566400   -8.992990   88.170000
  C    -13.264000   -7.813870   89.303500
  H    -12.175300   -7.675370   89.344900
  H    -13.717100   -6.815650   89.054700
  C    -13.693200   -8.294340   90.752600
  H    -13.151500   -7.663180   91.468300
  H    -14.763400   -8.247260   90.915200
  H    -13.409300   -9.409000   91.008000
  S    -11.022100  -10.327300   83.101800
  C     -9.377220  -10.603700   82.621900
  C     -8.426570   -9.915440   83.395100
  C     -9.096070   -8.999490   84.215400
  C    -10.520800   -9.110840   84.261800
  H     -7.392090  -10.178900   83.219500
  C     -8.300440   -8.013330   85.074900
  H     -8.881190   -7.672090   85.942400
  H     -8.086570   -7.199670   84.435200
  C     -6.958380   -8.640630   85.644300
  H     -6.421740   -7.790870   86.092400
  H     -6.340470   -9.015870   84.836800
  C     -7.192420   -9.861850   86.639800
  H     -6.361520  -10.069600   87.212100
  H     -7.530210  -10.838400   86.123300
  H     -8.031200   -9.590860   87.247400
  H    -14.849000   -7.499130   86.016300
  H     -9.149630  -11.325400   81.908800

 Total Charge           Charge          ....    0
 Multiplicity           Mult            ....    1
 Number of Electrons    NEL             ....  134
 Basis Dimension        Dim             ....  322

ORBITAL ENERGIES
----------------

  NO   OCC          E(Eh)            E(eV)
   0   2.0000     -88.965237     -2420.8672
   1   2.0000     -88.960736     -2420.7447
   2   2.0000     -10.327254      -281.0189
   3   2.0000     -10.326203      -280.9903
   4   2.0000     -10.313624      -280.6480
   5   2.0000     -10.308463      -280.5075
   6   2.0000     -10.308227      -280.5011
   7   2.0000     -10.296366      -280.1784
   8   2.0000     -10.295738      -280.1613
   9   2.0000     -10.293197      -280.0921
  10   2.0000     -10.290656      -280.0230
  11   2.0000     -10.289519      -279.9920
  12   2.0000     -10.289019      -279.9784
  13   2.0000     -10.288926      -279.9759
  14   2.0000     -10.286000      -279.8963
  15   2.0000     -10.279117      -279.7090
  16   2.0000      -8.080184      -219.8730
  17   2.0000      -8.076086      -219.7615
  18   2.0000      -6.038362      -164.3122
  19   2.0000      -6.034649      -164.2112
  20   2.0000      -6.034595      -164.2097
  21   2.0000      -6.031341      -164.1211
  22   2.0000      -6.030555      -164.0997
  23   2.0000      -6.026683      -163.9944
  24   2.0000      -1.009091       -27.4588
  25   2.0000      -0.986178       -26.8353
  26   2.0000      -0.914276       -24.8787
  27   2.0000      -0.900035       -24.4912
  28   2.0000      -0.870323       -23.6827
  29   2.0000      -0.845533       -23.0081
  30   2.0000      -0.840452       -22.8698
  31   2.0000      -0.815050       -22.1786
  32   2.0000      -0.781132       -21.2557
  33   2.0000      -0.770680       -20.9713
  34   2.0000      -0.707400       -19.2493
  35   2.0000      -0.696960       -18.9653
  36   2.0000      -0.695605       -18.9284
  37   2.0000      -0.656294       -17.8587
  38   2.0000      -0.646370       -17.5886
  39   2.0000      -0.624694       -16.9988
  40   2.0000      -0.597149       -16.2493
  41   2.0000      -0.572551       -15.5799
  42   2.0000      -0.562731       -15.3127
  43   2.0000      -0.556140       -15.1334
  44   2.0000      -0.528488       -14.3809
  45   2.0000      -0.526009       -14.3134
  46   2.0000      -0.519865       -14.1462
  47   2.0000      -0.509835       -13.8733
  48   2.0000      -0.499631       -13.5957
  49   2.0000      -0.498677       -13.5697
  50   2.0000      -0.492326       -13.3969
  51   2.0000      -0.475711       -12.9447
  52   2.0000      -0.471142       -12.8204
  53   2.0000      -0.464765       -12.6469
  54   2.0000      -0.455469       -12.3939
  55   2.0000      -0.448710       -12.2100
  56   2.0000      -0.444315       -12.0904
  57   2.0000      -0.441660       -12.0182
  58   2.0000      -0.436700       -11.8832
  59   2.0000      -0.422862       -11.5067
  60   2.0000      -0.422529       -11.4976
  61   2.0000      -0.413671       -11.2565
  62   2.0000      -0.403543       -10.9810
  63   2.0000      -0.344100        -9.3634
  64   2.0000      -0.331604        -9.0234
  65   2.0000      -0.327259        -8.9052
  66   2.0000      -0.295419        -8.0388
  67   0.0000       0.035671         0.9706
  68   0.0000       0.064386         1.7520
  69   0.0000       0.115289         3.1372
  70   0.0000       0.126203         3.4342
  71   0.0000       0.135057         3.6751

MULLIKEN ATOMIC CHARGES
-----------------------
   0 S :    0.097968
   1 C :   -0.109817
   2 C :   -0.121043
   3 C :    0.053743
   4 C :   -0.143026
   5 H :    0.002074
   6 C :    0.090979
   7 H :    0.034781
   8 H :    0.005581
   9 C :   -0.073686
  10 H :    0.024560
  11 H :    0.043883
  12 C :   -0.077624
  13 H :    0.040326
  14 H :    0.038145
  15 H :    0.038562
  16 S :    0.113092
  17 C :   -0.078623
  18 C :   -0.051920
  19 C :   -0.032307
  20 C :   -0.161347
  21 H :    0.029332
  22 C :    0.088371
  23 H :    0.030114
  24 H :    0.035783
  25 C :   -0.118009
  26 H :    0.038103
  27 H :    0.030792
  28 C :   -0.039508
  29 H :    0.028954
  30 H :    0.047507
  31 H :    0.020996
  32 H :    0.040169
  33 H :    0.033093
Sum of atomic charges:    0.0000000

LOEWDIN ATOMIC CHARGES
----------------------
   0 S :    0.400808
   1 C :   -0.199263
   2 C :   -0.059488
   3 C :   -0.063413
   4 C :   -0.193560
   5 H :    0.029512
   6 C :   -0.027582
   7 H :    0.036347
   8 H :    0.020105
   9 C :   -0.044400
  10 H :    0.024509
  11 H :    0.033567
  12 C :   -0.074372
  13 H :    0.025820
  14 H :    0.020835
  15 H :    0.034337
  16 S :    0.423436
  17 C :   -0.172652
  18 C :   -0.074643
  19 C :   -0.050770
  20 C :   -0.210948
  21 H :    0.038023
  22 C :   -0.024683
  23 H :    0.029575
  24 H :    0.029991
  25 C :   -0.038603
  26 H :    0.027018
  27 H :    0.016448
  28 C :   -0.063085
  29 H :    0.014067
  30 H :    0.038477
  31 H :    0.019757
  32 H :    0.023689
  33 H :    0.011141

  Mayer bond orders larger than 0.100000
B(  0-S ,  1-C ) :   1.1278 B(  0-S ,  4-C ) :   1.1489 B(  1-C ,  2-C ) :   1.6494
B(  1-C , 32-H ) :   0.9697 B(  2-C ,  3-C ) :   1.2281 B(  2-C ,  6-C ) :   0.9960
B(  3-C ,  4-C ) :   1.6054 B(  3-C ,  5-H ) :   1.0011 B(  4-C , 20-C ) :   1.0077
B(  6-C ,  7-H ) :   0.9439 B(  6-C ,  8-H ) :   0.9350 B(  6-C ,  9-C ) :   1.0821
B(  9-C , 10-H ) :   0.9555 B(  9-C , 11-H ) :   0.9512 B(  9-C , 12-C ) :   1.0658
B( 12-C , 13-H ) :   0.9777 B( 12-C , 14-H ) :   0.9780 B( 12-C , 15-H ) :   0.9743
B( 16-S , 17-C ) :   1.1977 B( 16-S , 20-C ) :   1.1582 B( 17-C , 18-C ) :   1.5637
B( 17-C , 20-C ) :   0.1159 B( 17-C , 33-H ) :   0.9718 B( 18-C , 19-C ) :   1.2634
B( 18-C , 21-H ) :   0.9978 B( 19-C , 20-C ) :   1.5574 B( 19-C , 22-C ) :   1.0240
B( 22-C , 23-H ) :   0.9435 B( 22-C , 24-H ) :   0.9325 B( 22-C , 25-C ) :   1.0778
B( 25-C , 26-H ) :   0.9591 B( 25-C , 27-H ) :   0.9540 B( 25-C , 28-C ) :   1.0591
B( 28-C , 29-H ) :   0.9776 B( 28-C , 30-H ) :   0.9730 B( 28-C , 31-H ) :   0.9790

Dispersion correction           -0.014130643
FINAL SINGLE POINT ENERGY     -1339.865181115772

DIPOLE MOMENT
-------------
                                X             Y             Z
Electronic contribution:     -9.28673      -1.14914     -26.80772
Nuclear contribution   :      9.58697       0.94618      27.30786
                        -----------------------------------------
Total Dipole Moment    :      0.30024      -0.20296       0.50015
                        -----------------------------------------
Magnitude (a.u.)       :      0.61764
Magnitude (Debye)      :      1.56993

Rotational constants in cm-1:     0.018925     0.008222     0.006391
Rotational constants in MHz :   567.356817   246.482696   191.610676

                             ****ORCA TERMINATED NORMALLY****
TOTAL RUN TIME: 0 days 0 hours 0 minutes 32 seconds 973 msec
