                         Program Version 4.2.1 -  RELEASE  -
|  1> ! wB97X-D3 SP def2-SVP
|  2> %pal
|  3> nprocs 16
|  4> end
|  5>
|  6> * xyz 0 1
|  7> S 	 12.1979 	 19.1862 	 39.5659
|  8> C 	 12.9403 	 20.4011 	 38.5948
|  9> C 	 12.3573 	 20.4047 	 37.3216
| 10> C 	 11.1157 	 19.6018 	 37.2209
| 11> C 	 10.8252 	 19.0605 	 38.4498
| 12> H 	 10.5273 	 19.487 	 36.3809
| 13> C 	 12.88 	 21.3033 	 36.2065
| 14> H 	 13.5126 	 20.7502 	 35.5478
| 15> H 	 13.5414 	 21.9703 	 36.6742
| 16> C 	 11.9226 	 22.1458 	 35.3408
| 17> H 	 12.4667 	 22.7014 	 34.5738
| 18> H 	 11.3896 	 21.3939 	 34.7229
| 19> C 	 10.9917 	 23.076 	 36.1833
| 20> H 	 10.0887 	 23.181 	 35.5719
| 21> H 	 10.7768 	 22.7182 	 37.1778
| 22> H 	 11.4165 	 24.1118 	 36.1759
| 23> S 	 9.82794 	 17.0642 	 39.9913
| 24> C 	 8.15696 	 16.5768 	 39.879
| 25> C 	 7.50838 	 17.6948 	 39.3731
| 26> C 	 8.36967 	 18.6557 	 38.7691
| 27> C 	 9.6564 	 18.3285 	 38.824
| 28> H 	 6.4264 	 17.6684 	 39.3721
| 29> C 	 7.7698 	 19.9837 	 38.2813
| 30> H 	 8.49307 	 20.5499 	 37.7316
| 31> H 	 7.48038 	 20.538 	 39.1628
| 32> C 	 6.47271 	 19.8394 	 37.4023
| 33> H 	 5.67332 	 19.4609 	 38.0352
| 34> H 	 6.58842 	 19.1545 	 36.7091
| 35> C 	 5.89699 	 21.1659 	 36.7786
| 36> H 	 5.45555 	 20.7552 	 35.8899
| 37> H 	 6.76769 	 21.8557 	 36.5423
| 38> H 	 5.20387 	 21.6338 	 37.5169
| 39> H 	 13.8325 	 20.9781 	 38.8585
| 40> H 	 7.71976 	 15.6789 	 40.3456
| 41> *
| 42>
| 43>                          ****END OF INPUT****

CARTESIAN COORDINATES (ANGSTROEM)
---------------------------------
  S     12.197900   19.186200   39.565900
  C     12.940300   20.401100   38.594800
  C     12.357300   20.404700   37.321600
  C     11.115700   19.601800   37.220900
  C     10.825200   19.060500   38.449800
  H     10.527300   19.487000   36.380900
  C     12.880000   21.303300   36.206500
  H     13.512600   20.750200   35.547800
  H     13.541400   21.970300   36.674200
  C     11.922600   22.145800   35.340800
  H     12.466700   22.701400   34.573800
  H     11.389600   21.393900   34.722900
  C     10.991700   23.076000   36.183300
  H     10.088700   23.181000   35.571900
  H     10.776800   22.718200   37.177800
  H     11.416500   24.111800   36.175900
  S      9.827940   17.064200   39.991300
  C      8.156960   16.576800   39.879000
  C      7.508380   17.694800   39.373100
  C      8.369670   18.655700   38.769100
  C      9.656400   18.328500   38.824000
  H      6.426400   17.668400   39.372100
  C      7.769800   19.983700   38.281300
  H      8.493070   20.549900   37.731600
  H      7.480380   20.538000   39.162800
  C      6.472710   19.839400   37.402300
  H      5.673320   19.460900   38.035200
  H      6.588420   19.154500   36.709100
  C      5.896990   21.165900   36.778600
  H      5.455550   20.755200   35.889900
  H      6.767690   21.855700   36.542300
  H      5.203870   21.633800   37.516900
  H     13.832500   20.978100   38.858500
  H      7.719760   15.678900   40.345600

 Total Charge           Charge          ....    0
 Multiplicity           Mult            ....    1
 Number of Electrons    NEL             ....  134
 Basis Dimension        Dim             ....  322

ORBITAL ENERGIES
----------------

  NO   OCC          E(Eh)            E(eV)
   0   2.0000     -88.963822     -2420.8287
   1   2.0000     -88.956567     -2420.6313
   2   2.0000     -10.330501      -281.1072
   3   2.0000     -10.321938      -280.8742
   4   2.0000     -10.317843      -280.7628
   5   2.0000     -10.314699      -280.6772
   6   2.0000     -10.307415      -280.4790
   7   2.0000     -10.299041      -280.2512
   8   2.0000     -10.295122      -280.1445
   9   2.0000     -10.293701      -280.1058
  10   2.0000     -10.290644      -280.0227
  11   2.0000     -10.289963      -280.0041
  12   2.0000     -10.286431      -279.9080
  13   2.0000     -10.282420      -279.7989
  14   2.0000     -10.280644      -279.7505
  15   2.0000     -10.275612      -279.6136
  16   2.0000      -8.078887      -219.8377
  17   2.0000      -8.072686      -219.6690
  18   2.0000      -6.037535      -164.2897
  19   2.0000      -6.033551      -164.1813
  20   2.0000      -6.031290      -164.1197
  21   2.0000      -6.029273      -164.0649
  22   2.0000      -6.027292      -164.0110
  23   2.0000      -6.022945      -163.8927
  24   2.0000      -1.017164       -27.6784
  25   2.0000      -0.986065       -26.8322
  26   2.0000      -0.907347       -24.6902
  27   2.0000      -0.903690       -24.5907
  28   2.0000      -0.875625       -23.8270
  29   2.0000      -0.849647       -23.1201
  30   2.0000      -0.840038       -22.8586
  31   2.0000      -0.819506       -22.2999
  32   2.0000      -0.779323       -21.2064
  33   2.0000      -0.773227       -21.0406
  34   2.0000      -0.711228       -19.3535
  35   2.0000      -0.703099       -19.1323
  36   2.0000      -0.692428       -18.8419
  37   2.0000      -0.661510       -18.0006
  38   2.0000      -0.642481       -17.4828
  39   2.0000      -0.622782       -16.9468
  40   2.0000      -0.596001       -16.2180
  41   2.0000      -0.569994       -15.5103
  42   2.0000      -0.559932       -15.2365
  43   2.0000      -0.551746       -15.0138
  44   2.0000      -0.544301       -14.8112
  45   2.0000      -0.531583       -14.4651
  46   2.0000      -0.521593       -14.1933
  47   2.0000      -0.513501       -13.9731
  48   2.0000      -0.506824       -13.7914
  49   2.0000      -0.502001       -13.6601
  50   2.0000      -0.495820       -13.4919
  51   2.0000      -0.481425       -13.1003
  52   2.0000      -0.473339       -12.8802
  53   2.0000      -0.464205       -12.6317
  54   2.0000      -0.455139       -12.3849
  55   2.0000      -0.454378       -12.3642
  56   2.0000      -0.442826       -12.0499
  57   2.0000      -0.435471       -11.8498
  58   2.0000      -0.430596       -11.7171
  59   2.0000      -0.424772       -11.5586
  60   2.0000      -0.421058       -11.4576
  61   2.0000      -0.408015       -11.1026
  62   2.0000      -0.405164       -11.0251
  63   2.0000      -0.359897        -9.7933
  64   2.0000      -0.328457        -8.9378
  65   2.0000      -0.318736        -8.6732
  66   2.0000      -0.286884        -7.8065
  67   0.0000       0.025071         0.6822
  68   0.0000       0.064222         1.7476
  69   0.0000       0.101094         2.7509
  70   0.0000       0.113796         3.0966
  71   0.0000       0.126550         3.4436

MULLIKEN ATOMIC CHARGES
-----------------------
   0 S :    0.103369
   1 C :   -0.115045
   2 C :   -0.122341
   3 C :    0.053527
   4 C :   -0.135722
   5 H :   -0.007955
   6 C :    0.101830
   7 H :    0.025738
   8 H :   -0.006717
   9 C :   -0.095247
  10 H :    0.027319
  11 H :    0.023292
  12 C :   -0.060229
  13 H :    0.031388
  14 H :    0.058029
  15 H :    0.040038
  16 S :    0.064683
  17 C :   -0.097982
  18 C :   -0.039290
  19 C :   -0.042472
  20 C :   -0.121243
  21 H :    0.020711
  22 C :    0.104935
  23 H :    0.009235
  24 H :    0.037324
  25 C :   -0.080257
  26 H :    0.022963
  27 H :   -0.007187
  28 C :   -0.060757
  29 H :    0.040395
  30 H :    0.042604
  31 H :    0.051757
  32 H :    0.058779
  33 H :    0.074529
Sum of atomic charges:    0.0000000

LOEWDIN ATOMIC CHARGES
----------------------
   0 S :    0.394885
   1 C :   -0.210730
   2 C :   -0.053104
   3 C :   -0.052828
   4 C :   -0.166858
   5 H :    0.020105
   6 C :   -0.035513
   7 H :    0.029728
   8 H :    0.019818
   9 C :   -0.044285
  10 H :    0.026655
  11 H :    0.019172
  12 C :   -0.069585
  13 H :    0.028540
  14 H :    0.026012
  15 H :    0.033106
  16 S :    0.395375
  17 C :   -0.178484
  18 C :   -0.071704
  19 C :   -0.061473
  20 C :   -0.200142
  21 H :    0.027840
  22 C :   -0.019572
  23 H :    0.020055
  24 H :    0.035064
  25 C :   -0.030425
  26 H :    0.022053
  27 H :   -0.002869
  28 C :   -0.065210
  29 H :    0.028379
  30 H :    0.030626
  31 H :    0.031514
  32 H :    0.034540
  33 H :    0.039312

  Mayer bond orders larger than 0.100000
B(  0-S ,  1-C ) :   1.1212 B(  0-S ,  4-C ) :   1.1326 B(  1-C ,  2-C ) :   1.6311
B(  1-C , 32-H ) :   0.9663 B(  2-C ,  3-C ) :   1.1840 B(  2-C ,  6-C ) :   1.0295
B(  3-C ,  4-C ) :   1.5863 B(  3-C ,  5-H ) :   1.0150 B(  4-C , 20-C ) :   1.0807
B(  6-C ,  7-H ) :   0.9283 B(  6-C ,  8-H ) :   0.9377 B(  6-C ,  9-C ) :   1.0793
B(  9-C , 10-H ) :   0.9546 B(  9-C , 11-H ) :   0.9598 B(  9-C , 12-C ) :   1.0564
B( 12-C , 13-H ) :   0.9763 B( 12-C , 14-H ) :   0.9789 B( 12-C , 15-H ) :   0.9761
B( 16-S , 17-C ) :   1.1529 B( 16-S , 20-C ) :   1.1127 B( 17-C , 18-C ) :   1.5955
B( 17-C , 20-C ) :   0.1004 B( 17-C , 33-H ) :   0.9725 B( 18-C , 19-C ) :   1.2198
B( 18-C , 21-H ) :   0.9942 B( 19-C , 20-C ) :   1.6135 B( 19-C , 22-C ) :   1.0397
B( 22-C , 23-H ) :   0.9325 B( 22-C , 24-H ) :   0.9347 B( 22-C , 25-C ) :   1.0578
B( 25-C , 26-H ) :   0.9504 B( 25-C , 27-H ) :   0.9706 B( 25-C , 28-C ) :   1.0685
B( 28-C , 29-H ) :   0.9786 B( 28-C , 30-H ) :   0.9785 B( 28-C , 31-H ) :   0.9798

Dispersion correction           -0.014353553
FINAL SINGLE POINT ENERGY     -1339.838707479938

DIPOLE MOMENT
-------------
                                X             Y             Z
Electronic contribution:     12.49077     -21.91480      19.43264
Nuclear contribution   :    -12.89369      22.30685     -19.84984
                        -----------------------------------------
Total Dipole Moment    :     -0.40292       0.39205      -0.41720
                        -----------------------------------------
Magnitude (a.u.)       :      0.70007
Magnitude (Debye)      :      1.77945

Rotational constants in cm-1:     0.016088     0.010614     0.006754
Rotational constants in MHz :   482.294202   318.196768   202.481677

                             ****ORCA TERMINATED NORMALLY****
TOTAL RUN TIME: 0 days 0 hours 0 minutes 35 seconds 474 msec
