                         Program Version 4.2.1 -  RELEASE  -
|  1> ! wB97X-D3 SP def2-SVP
|  2> %pal
|  3> nprocs 16
|  4> end
|  5>
|  6> * xyz 0 1
|  7> S 	 -40.0784 	 19.4428 	 83.5352
|  8> C 	 -39.9046 	 18.2206 	 82.272
|  9> C 	 -39.7377 	 18.803 	 81.0636
| 10> C 	 -39.9884 	 20.2124 	 81.1361
| 11> C 	 -40.226 	 20.7829 	 82.3651
| 12> H 	 -40.0225 	 20.8128 	 80.3135
| 13> C 	 -39.6199 	 17.9949 	 79.808
| 14> H 	 -38.6458 	 17.4566 	 80.0156
| 15> H 	 -39.3882 	 18.5752 	 78.9062
| 16> C 	 -40.7096 	 16.9326 	 79.578
| 17> H 	 -40.4332 	 16.2131 	 78.7801
| 18> H 	 -40.7452 	 16.2341 	 80.4304
| 19> C 	 -42.0939 	 17.5315 	 79.3119
| 20> H 	 -42.3696 	 18.0985 	 80.2497
| 21> H 	 -42.0503 	 18.2448 	 78.4824
| 22> H 	 -42.817 	 16.8611 	 78.874
| 23> S 	 -39.2121 	 23.3206 	 82.1999
| 24> C 	 -40.1398 	 24.6615 	 82.7589
| 25> C 	 -41.3823 	 24.2405 	 83.2291
| 26> C 	 -41.5983 	 22.8705 	 83.109
| 27> C 	 -40.5147 	 22.1666 	 82.6006
| 28> H 	 -42.1687 	 24.9985 	 83.5432
| 29> C 	 -42.9051 	 22.2257 	 83.5593
| 30> H 	 -43.348 	 22.9404 	 84.2648
| 31> H 	 -42.6786 	 21.309 	 84.141
| 32> C 	 -43.8239 	 21.8906 	 82.3714
| 33> H 	 -43.213 	 21.3028 	 81.7982
| 34> H 	 -44.0468 	 22.7364 	 81.6927
| 35> C 	 -45.1029 	 21.232 	 82.9723
| 36> H 	 -45.793 	 20.9608 	 82.1765
| 37> H 	 -45.6167 	 21.8355 	 83.7153
| 38> H 	 -44.9195 	 20.356 	 83.5111
| 39> H 	 -39.7605 	 17.1255 	 82.438
| 40> H 	 -39.7971 	 25.6997 	 82.941
| 41> *
| 42>
| 43>                          ****END OF INPUT****

CARTESIAN COORDINATES (ANGSTROEM)
---------------------------------
  S    -40.078400   19.442800   83.535200
  C    -39.904600   18.220600   82.272000
  C    -39.737700   18.803000   81.063600
  C    -39.988400   20.212400   81.136100
  C    -40.226000   20.782900   82.365100
  H    -40.022500   20.812800   80.313500
  C    -39.619900   17.994900   79.808000
  H    -38.645800   17.456600   80.015600
  H    -39.388200   18.575200   78.906200
  C    -40.709600   16.932600   79.578000
  H    -40.433200   16.213100   78.780100
  H    -40.745200   16.234100   80.430400
  C    -42.093900   17.531500   79.311900
  H    -42.369600   18.098500   80.249700
  H    -42.050300   18.244800   78.482400
  H    -42.817000   16.861100   78.874000
  S    -39.212100   23.320600   82.199900
  C    -40.139800   24.661500   82.758900
  C    -41.382300   24.240500   83.229100
  C    -41.598300   22.870500   83.109000
  C    -40.514700   22.166600   82.600600
  H    -42.168700   24.998500   83.543200
  C    -42.905100   22.225700   83.559300
  H    -43.348000   22.940400   84.264800
  H    -42.678600   21.309000   84.141000
  C    -43.823900   21.890600   82.371400
  H    -43.213000   21.302800   81.798200
  H    -44.046800   22.736400   81.692700
  C    -45.102900   21.232000   82.972300
  H    -45.793000   20.960800   82.176500
  H    -45.616700   21.835500   83.715300
  H    -44.919500   20.356000   83.511100
  H    -39.760500   17.125500   82.438000
  H    -39.797100   25.699700   82.941000

 Total Charge           Charge          ....    0
 Multiplicity           Mult            ....    1
 Number of Electrons    NEL             ....  134
 Basis Dimension        Dim             ....  322

ORBITAL ENERGIES
----------------

  NO   OCC          E(Eh)            E(eV)
   0   2.0000     -88.968109     -2420.9453
   1   2.0000     -88.964811     -2420.8556
   2   2.0000     -10.330685      -281.1122
   3   2.0000     -10.326957      -281.0108
   4   2.0000     -10.320754      -280.8420
   5   2.0000     -10.316245      -280.7193
   6   2.0000     -10.300793      -280.2988
   7   2.0000     -10.298024      -280.2235
   8   2.0000     -10.297884      -280.2197
   9   2.0000     -10.295579      -280.1570
  10   2.0000     -10.292834      -280.0823
  11   2.0000     -10.290477      -280.0181
  12   2.0000     -10.286628      -279.9134
  13   2.0000     -10.281076      -279.7623
  14   2.0000     -10.279141      -279.7096
  15   2.0000     -10.271695      -279.5070
  16   2.0000      -8.082544      -219.9372
  17   2.0000      -8.078506      -219.8273
  18   2.0000      -6.040965      -164.3830
  19   2.0000      -6.037250      -164.2819
  20   2.0000      -6.036967      -164.2742
  21   2.0000      -6.033513      -164.1802
  22   2.0000      -6.033069      -164.1681
  23   2.0000      -6.029148      -164.0615
  24   2.0000      -1.006987       -27.4015
  25   2.0000      -0.986669       -26.8486
  26   2.0000      -0.913058       -24.8456
  27   2.0000      -0.908051       -24.7093
  28   2.0000      -0.871836       -23.7239
  29   2.0000      -0.850327       -23.1386
  30   2.0000      -0.843184       -22.9442
  31   2.0000      -0.812856       -22.1189
  32   2.0000      -0.781605       -21.2685
  33   2.0000      -0.770745       -20.9730
  34   2.0000      -0.714734       -19.4489
  35   2.0000      -0.704111       -19.1598
  36   2.0000      -0.698609       -19.0101
  37   2.0000      -0.661893       -18.0110
  38   2.0000      -0.640338       -17.4245
  39   2.0000      -0.610917       -16.6239
  40   2.0000      -0.592381       -16.1195
  41   2.0000      -0.577522       -15.7152
  42   2.0000      -0.559225       -15.2173
  43   2.0000      -0.557355       -15.1664
  44   2.0000      -0.534964       -14.5571
  45   2.0000      -0.521088       -14.1795
  46   2.0000      -0.512661       -13.9502
  47   2.0000      -0.508957       -13.8494
  48   2.0000      -0.508216       -13.8292
  49   2.0000      -0.498707       -13.5705
  50   2.0000      -0.489160       -13.3107
  51   2.0000      -0.478957       -13.0331
  52   2.0000      -0.472582       -12.8596
  53   2.0000      -0.466679       -12.6990
  54   2.0000      -0.460415       -12.5285
  55   2.0000      -0.452227       -12.3057
  56   2.0000      -0.442862       -12.0509
  57   2.0000      -0.438836       -11.9413
  58   2.0000      -0.427541       -11.6340
  59   2.0000      -0.424194       -11.5429
  60   2.0000      -0.418680       -11.3929
  61   2.0000      -0.412824       -11.2335
  62   2.0000      -0.411420       -11.1953
  63   2.0000      -0.339475        -9.2376
  64   2.0000      -0.335322        -9.1246
  65   2.0000      -0.327138        -8.9019
  66   2.0000      -0.298429        -8.1207
  67   0.0000       0.029779         0.8103
  68   0.0000       0.057474         1.5639
  69   0.0000       0.110552         3.0083
  70   0.0000       0.125384         3.4119
  71   0.0000       0.126452         3.4409

MULLIKEN ATOMIC CHARGES
-----------------------
   0 S :    0.106493
   1 C :   -0.157799
   2 C :   -0.061135
   3 C :    0.053480
   4 C :   -0.131879
   5 H :   -0.035368
   6 C :    0.042400
   7 H :    0.040168
   8 H :    0.029060
   9 C :   -0.068707
  10 H :    0.026758
  11 H :    0.019672
  12 C :   -0.051548
  13 H :    0.062551
  14 H :    0.016687
  15 H :    0.033501
  16 S :    0.121186
  17 C :   -0.096903
  18 C :   -0.081767
  19 C :   -0.011137
  20 C :   -0.200477
  21 H :    0.043444
  22 C :    0.041129
  23 H :    0.015811
  24 H :    0.032632
  25 C :   -0.027438
  26 H :    0.006936
  27 H :    0.030282
  28 C :   -0.006445
  29 H :    0.032396
  30 H :    0.023034
  31 H :    0.012586
  32 H :    0.068310
  33 H :    0.072086
Sum of atomic charges:    0.0000000

LOEWDIN ATOMIC CHARGES
----------------------
   0 S :    0.381701
   1 C :   -0.190561
   2 C :   -0.074120
   3 C :   -0.050250
   4 C :   -0.192277
   5 H :    0.010796
   6 C :   -0.037606
   7 H :    0.044320
   8 H :    0.030688
   9 C :   -0.045314
  10 H :    0.026327
  11 H :    0.021089
  12 C :   -0.074353
  13 H :    0.038654
  14 H :    0.023587
  15 H :    0.026444
  16 S :    0.418415
  17 C :   -0.199639
  18 C :   -0.086917
  19 C :   -0.053768
  20 C :   -0.196586
  21 H :    0.043650
  22 C :   -0.026878
  23 H :    0.025052
  24 H :    0.032034
  25 C :   -0.027843
  26 H :    0.013469
  27 H :    0.029050
  28 C :   -0.060282
  29 H :    0.026114
  30 H :    0.026101
  31 H :    0.018559
  32 H :    0.039710
  33 H :    0.040632

  Mayer bond orders larger than 0.100000
B(  0-S ,  1-C ) :   1.1395 B(  0-S ,  4-C ) :   1.1084 B(  1-C ,  2-C ) :   1.6092
B(  1-C , 32-H ) :   0.9601 B(  2-C ,  3-C ) :   1.2257 B(  2-C ,  6-C ) :   1.0184
B(  3-C ,  4-C ) :   1.5774 B(  3-C ,  5-H ) :   1.0126 B(  4-C , 20-C ) :   1.0748
B(  6-C ,  7-H ) :   0.9278 B(  6-C ,  8-H ) :   0.9504 B(  6-C ,  9-C ) :   1.0825
B(  9-C , 10-H ) :   0.9521 B(  9-C , 11-H ) :   0.9510 B(  9-C , 12-C ) :   1.0698
B( 12-C , 13-H ) :   0.9732 B( 12-C , 14-H ) :   0.9723 B( 12-C , 15-H ) :   0.9726
B( 16-S , 17-C ) :   1.1814 B( 16-S , 20-C ) :   1.1380 B( 17-C , 18-C ) :   1.5749
B( 17-C , 20-C ) :   0.1106 B( 17-C , 33-H ) :   0.9593 B( 18-C , 19-C ) :   1.2971
B( 18-C , 21-H ) :   0.9740 B( 19-C , 20-C ) :   1.5541 B( 19-C , 22-C ) :   1.0331
B( 22-C , 23-H ) :   0.9377 B( 22-C , 24-H ) :   0.9368 B( 22-C , 25-C ) :   1.0516
B( 25-C , 26-H ) :   0.9564 B( 25-C , 27-H ) :   0.9557 B( 25-C , 28-C ) :   1.0739
B( 28-C , 29-H ) :   0.9746 B( 28-C , 30-H ) :   0.9743 B( 28-C , 31-H ) :   0.9722

Dispersion correction           -0.014870692
FINAL SINGLE POINT ENERGY     -1339.871238322758

DIPOLE MOMENT
-------------
                                X             Y             Z
Electronic contribution:     19.83157      12.26064      10.41381
Nuclear contribution   :    -20.13816     -12.38383     -10.74957
                        -----------------------------------------
Total Dipole Moment    :     -0.30659      -0.12319      -0.33576
                        -----------------------------------------
Magnitude (a.u.)       :      0.47107
Magnitude (Debye)      :      1.19737

Rotational constants in cm-1:     0.018314     0.009039     0.007347
Rotational constants in MHz :   549.027366   270.995374   220.247976

                             ****ORCA TERMINATED NORMALLY****
TOTAL RUN TIME: 0 days 0 hours 0 minutes 30 seconds 802 msec
