                         Program Version 4.2.1 -  RELEASE  -
|  1> ! wB97X-D3 SP def2-SVP
|  2> %pal
|  3> nprocs 16
|  4> end
|  5>
|  6> * xyz 0 1
|  7> S 	 -34.6992 	 58.0508 	 103.527
|  8> C 	 -35.7167 	 56.5845 	 103.45
|  9> C 	 -34.9525 	 55.471 	 103.126
| 10> C 	 -33.554 	 55.7833 	 103.143
| 11> C 	 -33.2464 	 57.1875 	 103.282
| 12> H 	 -32.7019 	 55.1315 	 103.07
| 13> C 	 -35.4388 	 54.0208 	 102.93
| 14> H 	 -36.4724 	 54.0446 	 102.638
| 15> H 	 -35.4258 	 53.638 	 103.925
| 16> C 	 -34.6763 	 53.0539 	 102.076
| 17> H 	 -33.6561 	 53.2471 	 102.301
| 18> H 	 -35.018 	 52.039 	 102.53
| 19> C 	 -34.9952 	 53.2216 	 100.568
| 20> H 	 -34.7923 	 54.2257 	 100.203
| 21> H 	 -34.4475 	 52.5076 	 100.074
| 22> H 	 -36.0527 	 52.9481 	 100.361
| 23> S 	 -31.4031 	 57.9144 	 105.274
| 24> C 	 -30.107 	 58.9085 	 104.866
| 25> C 	 -29.9613 	 59.1959 	 103.537
| 26> C 	 -31.0908 	 58.6125 	 102.82
| 27> C 	 -31.9656 	 57.8561 	 103.619
| 28> H 	 -29.0832 	 59.797 	 103.292
| 29> C 	 -31.1481 	 58.8323 	 101.287
| 30> H 	 -31.6245 	 57.8878 	 100.851
| 31> H 	 -30.1549 	 58.8871 	 100.941
| 32> C 	 -31.8691 	 60.1305 	 100.972
| 33> H 	 -31.1561 	 60.9743 	 101.121
| 34> H 	 -32.7332 	 60.2601 	 101.564
| 35> C 	 -32.5247 	 60.2502 	 99.603
| 36> H 	 -33.4464 	 59.7005 	 99.6471
| 37> H 	 -31.8843 	 59.8533 	 98.8064
| 38> H 	 -32.6108 	 61.3047 	 99.2465
| 39> H 	 -36.8102 	 56.5753 	 103.549
| 40> H 	 -29.4229 	 59.3675 	 105.588
| 41> *
| 42>
| 43>                          ****END OF INPUT****

CARTESIAN COORDINATES (ANGSTROEM)
---------------------------------
  S    -34.699200   58.050800  103.527000
  C    -35.716700   56.584500  103.450000
  C    -34.952500   55.471000  103.126000
  C    -33.554000   55.783300  103.143000
  C    -33.246400   57.187500  103.282000
  H    -32.701900   55.131500  103.070000
  C    -35.438800   54.020800  102.930000
  H    -36.472400   54.044600  102.638000
  H    -35.425800   53.638000  103.925000
  C    -34.676300   53.053900  102.076000
  H    -33.656100   53.247100  102.301000
  H    -35.018000   52.039000  102.530000
  C    -34.995200   53.221600  100.568000
  H    -34.792300   54.225700  100.203000
  H    -34.447500   52.507600  100.074000
  H    -36.052700   52.948100  100.361000
  S    -31.403100   57.914400  105.274000
  C    -30.107000   58.908500  104.866000
  C    -29.961300   59.195900  103.537000
  C    -31.090800   58.612500  102.820000
  C    -31.965600   57.856100  103.619000
  H    -29.083200   59.797000  103.292000
  C    -31.148100   58.832300  101.287000
  H    -31.624500   57.887800  100.851000
  H    -30.154900   58.887100  100.941000
  C    -31.869100   60.130500  100.972000
  H    -31.156100   60.974300  101.121000
  H    -32.733200   60.260100  101.564000
  C    -32.524700   60.250200   99.603000
  H    -33.446400   59.700500   99.647100
  H    -31.884300   59.853300   98.806400
  H    -32.610800   61.304700   99.246500
  H    -36.810200   56.575300  103.549000
  H    -29.422900   59.367500  105.588000

 Total Charge           Charge          ....    0
 Multiplicity           Mult            ....    1
 Number of Electrons    NEL             ....  134
 Basis Dimension        Dim             ....  322

ORBITAL ENERGIES
----------------

  NO   OCC          E(Eh)            E(eV)
   0   2.0000     -88.967142     -2420.9190
   1   2.0000     -88.964336     -2420.8426
   2   2.0000     -10.332163      -281.1524
   3   2.0000     -10.327000      -281.0120
   4   2.0000     -10.319258      -280.8013
   5   2.0000     -10.310387      -280.5599
   6   2.0000     -10.309573      -280.5377
   7   2.0000     -10.307131      -280.4713
   8   2.0000     -10.299631      -280.2672
   9   2.0000     -10.292268      -280.0669
  10   2.0000     -10.292107      -280.0625
  11   2.0000     -10.289653      -279.9957
  12   2.0000     -10.286021      -279.8969
  13   2.0000     -10.277016      -279.6518
  14   2.0000     -10.275125      -279.6004
  15   2.0000     -10.272023      -279.5159
  16   2.0000      -8.081613      -219.9119
  17   2.0000      -8.080336      -219.8771
  18   2.0000      -6.040077      -164.3589
  19   2.0000      -6.038658      -164.3202
  20   2.0000      -6.035922      -164.2458
  21   2.0000      -6.034656      -164.2113
  22   2.0000      -6.032657      -164.1569
  23   2.0000      -6.031215      -164.1177
  24   2.0000      -1.004748       -27.3406
  25   2.0000      -0.983269       -26.7561
  26   2.0000      -0.916649       -24.9433
  27   2.0000      -0.907158       -24.6850
  28   2.0000      -0.867398       -23.6031
  29   2.0000      -0.847783       -23.0693
  30   2.0000      -0.840760       -22.8782
  31   2.0000      -0.810474       -22.0541
  32   2.0000      -0.790035       -21.4979
  33   2.0000      -0.772424       -21.0187
  34   2.0000      -0.707690       -19.2572
  35   2.0000      -0.690491       -18.7892
  36   2.0000      -0.683778       -18.6066
  37   2.0000      -0.654002       -17.7963
  38   2.0000      -0.638625       -17.3779
  39   2.0000      -0.619514       -16.8578
  40   2.0000      -0.589233       -16.0338
  41   2.0000      -0.576098       -15.6764
  42   2.0000      -0.566646       -15.4192
  43   2.0000      -0.558679       -15.2024
  44   2.0000      -0.536429       -14.5970
  45   2.0000      -0.521086       -14.1795
  46   2.0000      -0.516722       -14.0607
  47   2.0000      -0.511770       -13.9260
  48   2.0000      -0.498492       -13.5647
  49   2.0000      -0.498241       -13.5578
  50   2.0000      -0.490382       -13.3440
  51   2.0000      -0.481290       -13.0966
  52   2.0000      -0.472804       -12.8656
  53   2.0000      -0.465924       -12.6784
  54   2.0000      -0.462499       -12.5852
  55   2.0000      -0.445800       -12.1308
  56   2.0000      -0.441629       -12.0173
  57   2.0000      -0.432579       -11.7711
  58   2.0000      -0.427821       -11.6416
  59   2.0000      -0.421781       -11.4772
  60   2.0000      -0.418467       -11.3871
  61   2.0000      -0.414495       -11.2790
  62   2.0000      -0.408300       -11.1104
  63   2.0000      -0.335949        -9.1416
  64   2.0000      -0.325441        -8.8557
  65   2.0000      -0.316754        -8.6193
  66   2.0000      -0.311943        -8.4884
  67   0.0000       0.041367         1.1257
  68   0.0000       0.056163         1.5283
  69   0.0000       0.110633         3.0105
  70   0.0000       0.124757         3.3948
  71   0.0000       0.133610         3.6357

MULLIKEN ATOMIC CHARGES
-----------------------
   0 S :    0.119569
   1 C :   -0.147765
   2 C :   -0.072444
   3 C :    0.011319
   4 C :   -0.177310
   5 H :    0.014962
   6 C :    0.079086
   7 H :    0.007790
   8 H :    0.035953
   9 C :   -0.092466
  10 H :    0.023018
  11 H :    0.043793
  12 C :   -0.010369
  13 H :    0.046127
  14 H :    0.017616
  15 H :    0.027769
  16 S :    0.137364
  17 C :   -0.102527
  18 C :   -0.042245
  19 C :   -0.056015
  20 C :   -0.171990
  21 H :    0.027970
  22 C :    0.088454
  23 H :    0.041087
  24 H :    0.012886
  25 C :   -0.061494
  26 H :    0.029481
  27 H :    0.022219
  28 C :   -0.058232
  29 H :    0.041350
  30 H :    0.016182
  31 H :    0.036065
  32 H :    0.055324
  33 H :    0.057471
Sum of atomic charges:    0.0000000

LOEWDIN ATOMIC CHARGES
----------------------
   0 S :    0.424470
   1 C :   -0.196437
   2 C :   -0.062012
   3 C :   -0.064337
   4 C :   -0.217997
   5 H :    0.026794
   6 C :   -0.033478
   7 H :    0.024026
   8 H :    0.034297
   9 C :   -0.039187
  10 H :    0.017148
  11 H :    0.040150
  12 C :   -0.055644
  13 H :    0.030679
  14 H :    0.014362
  15 H :    0.029927
  16 S :    0.437062
  17 C :   -0.202290
  18 C :   -0.086908
  19 C :   -0.037566
  20 C :   -0.229557
  21 H :    0.039280
  22 C :   -0.028772
  23 H :    0.037474
  24 H :    0.023035
  25 C :   -0.043547
  26 H :    0.026952
  27 H :    0.019524
  28 C :   -0.067661
  29 H :    0.024869
  30 H :    0.019234
  31 H :    0.031883
  32 H :    0.032037
  33 H :    0.032190

  Mayer bond orders larger than 0.100000
B(  0-S ,  1-C ) :   1.1513 B(  0-S ,  4-C ) :   1.1892 B(  1-C ,  2-C ) :   1.5885
B(  1-C ,  4-C ) :   0.1078 B(  1-C , 32-H ) :   0.9679 B(  2-C ,  3-C ) :   1.2475
B(  2-C ,  6-C ) :   1.0052 B(  3-C ,  4-C ) :   1.5541 B(  3-C ,  5-H ) :   0.9925
B(  4-C , 20-C ) :   1.0045 B(  6-C ,  7-H ) :   0.9387 B(  6-C ,  8-H ) :   0.9352
B(  6-C ,  9-C ) :   1.0771 B(  9-C , 10-H ) :   0.9514 B(  9-C , 11-H ) :   0.9532
B(  9-C , 12-C ) :   1.0770 B( 12-C , 13-H ) :   0.9763 B( 12-C , 14-H ) :   0.9745
B( 12-C , 15-H ) :   0.9724 B( 16-S , 17-C ) :   1.1899 B( 16-S , 20-C ) :   1.1342
B( 17-C , 18-C ) :   1.6247 B( 17-C , 33-H ) :   0.9562 B( 18-C , 19-C ) :   1.2231
B( 18-C , 21-H ) :   0.9919 B( 19-C , 20-C ) :   1.6108 B( 19-C , 22-C ) :   1.0359
B( 22-C , 23-H ) :   0.9421 B( 22-C , 24-H ) :   0.9320 B( 22-C , 25-C ) :   1.0599
B( 25-C , 26-H ) :   0.9531 B( 25-C , 27-H ) :   0.9654 B( 25-C , 28-C ) :   1.0802
B( 28-C , 29-H ) :   0.9818 B( 28-C , 30-H ) :   0.9725 B( 28-C , 31-H ) :   0.9732

Dispersion correction           -0.014023498
FINAL SINGLE POINT ENERGY     -1339.860371771058

DIPOLE MOMENT
-------------
                                X             Y             Z
Electronic contribution:      3.51384       8.06825      21.61413
Nuclear contribution   :     -3.42545      -8.32890     -21.83550
                        -----------------------------------------
Total Dipole Moment    :      0.08839      -0.26065      -0.22137
                        -----------------------------------------
Magnitude (a.u.)       :      0.35321
Magnitude (Debye)      :      0.89778

Rotational constants in cm-1:     0.018157     0.008257     0.007057
Rotational constants in MHz :   544.330305   247.550075   211.575361

                             ****ORCA TERMINATED NORMALLY****
TOTAL RUN TIME: 0 days 0 hours 0 minutes 28 seconds 947 msec
