                         Program Version 4.2.1 -  RELEASE  -
|  1> ! wB97X-D3 SP def2-SVP
|  2> %pal
|  3> nprocs 16
|  4> end
|  5>
|  6> * xyz 0 1
|  7> S 	 -7.62636 	 39.595 	 34.3743
|  8> C 	 -8.42584 	 38.0808 	 34.2394
|  9> C 	 -7.81315 	 37.1595 	 35.1087
| 10> C 	 -7.03418 	 37.8276 	 36.078
| 11> C 	 -6.78784 	 39.1933 	 35.8495
| 12> H 	 -6.51018 	 37.3629 	 36.9483
| 13> C 	 -7.91941 	 35.6423 	 34.9726
| 14> H 	 -8.73348 	 35.2816 	 35.5521
| 15> H 	 -7.13634 	 35.1522 	 35.6219
| 16> C 	 -7.86656 	 35.0173 	 33.6153
| 17> H 	 -8.21524 	 35.6999 	 32.8419
| 18> H 	 -6.77867 	 34.8467 	 33.3584
| 19> C 	 -8.80461 	 33.7978 	 33.4417
| 20> H 	 -8.84185 	 33.1224 	 34.3129
| 21> H 	 -9.80248 	 34.1528 	 33.4059
| 22> H 	 -8.67526 	 33.2712 	 32.4984
| 23> S 	 -6.54879 	 41.3569 	 37.6679
| 24> C 	 -4.99056 	 41.9655 	 38.0804
| 25> C 	 -4.0456 	 41.3921 	 37.2038
| 26> C 	 -4.55123 	 40.3187 	 36.423
| 27> C 	 -5.90023 	 40.1281 	 36.5655
| 28> H 	 -3.02936 	 41.7921 	 37.1738
| 29> C 	 -3.59017 	 39.6925 	 35.4852
| 30> H 	 -3.70696 	 40.2272 	 34.5314
| 31> H 	 -3.98798 	 38.644 	 35.4001
| 32> C 	 -2.11188 	 39.6459 	 35.9357
| 33> H 	 -2.04875 	 39.382 	 36.9932
| 34> H 	 -1.77769 	 40.6683 	 35.7444
| 35> C 	 -1.23741 	 38.6439 	 35.1751
| 36> H 	 -1.23823 	 38.8044 	 34.0318
| 37> H 	 -1.67561 	 37.6485 	 35.3106
| 38> H 	 -0.214641 	 38.5185 	 35.5574
| 39> H 	 -9.00355 	 37.7205 	 33.3861
| 40> H 	 -4.93822 	 42.768 	 38.7385
| 41> *
| 42>
| 43>                          ****END OF INPUT****

CARTESIAN COORDINATES (ANGSTROEM)
---------------------------------
  S     -7.626360   39.595000   34.374300
  C     -8.425840   38.080800   34.239400
  C     -7.813150   37.159500   35.108700
  C     -7.034180   37.827600   36.078000
  C     -6.787840   39.193300   35.849500
  H     -6.510180   37.362900   36.948300
  C     -7.919410   35.642300   34.972600
  H     -8.733480   35.281600   35.552100
  H     -7.136340   35.152200   35.621900
  C     -7.866560   35.017300   33.615300
  H     -8.215240   35.699900   32.841900
  H     -6.778670   34.846700   33.358400
  C     -8.804610   33.797800   33.441700
  H     -8.841850   33.122400   34.312900
  H     -9.802480   34.152800   33.405900
  H     -8.675260   33.271200   32.498400
  S     -6.548790   41.356900   37.667900
  C     -4.990560   41.965500   38.080400
  C     -4.045600   41.392100   37.203800
  C     -4.551230   40.318700   36.423000
  C     -5.900230   40.128100   36.565500
  H     -3.029360   41.792100   37.173800
  C     -3.590170   39.692500   35.485200
  H     -3.706960   40.227200   34.531400
  H     -3.987980   38.644000   35.400100
  C     -2.111880   39.645900   35.935700
  H     -2.048750   39.382000   36.993200
  H     -1.777690   40.668300   35.744400
  C     -1.237410   38.643900   35.175100
  H     -1.238230   38.804400   34.031800
  H     -1.675610   37.648500   35.310600
  H     -0.214641   38.518500   35.557400
  H     -9.003550   37.720500   33.386100
  H     -4.938220   42.768000   38.738500

 Total Charge           Charge          ....    0
 Multiplicity           Mult            ....    1
 Number of Electrons    NEL             ....  134
 Basis Dimension        Dim             ....  322

ORBITAL ENERGIES
----------------

  NO   OCC          E(Eh)            E(eV)
   0   2.0000     -88.965469     -2420.8735
   1   2.0000     -88.962173     -2420.7838
   2   2.0000     -10.330417      -281.1049
   3   2.0000     -10.326715      -281.0042
   4   2.0000     -10.317550      -280.7548
   5   2.0000     -10.313835      -280.6537
   6   2.0000     -10.303623      -280.3758
   7   2.0000     -10.300145      -280.2812
   8   2.0000     -10.297588      -280.2116
   9   2.0000     -10.294007      -280.1142
  10   2.0000     -10.292366      -280.0695
  11   2.0000     -10.292068      -280.0614
  12   2.0000     -10.291468      -280.0451
  13   2.0000     -10.290844      -280.0281
  14   2.0000     -10.286955      -279.9223
  15   2.0000     -10.280144      -279.7369
  16   2.0000      -8.080467      -219.8807
  17   2.0000      -8.077261      -219.7935
  18   2.0000      -6.038855      -164.3256
  19   2.0000      -6.035644      -164.2382
  20   2.0000      -6.034802      -164.2153
  21   2.0000      -6.031616      -164.1286
  22   2.0000      -6.031454      -164.1242
  23   2.0000      -6.028240      -164.0367
  24   2.0000      -1.006333       -27.3837
  25   2.0000      -0.987864       -26.8811
  26   2.0000      -0.913783       -24.8653
  27   2.0000      -0.912340       -24.8260
  28   2.0000      -0.867713       -23.6117
  29   2.0000      -0.851045       -23.1581
  30   2.0000      -0.846361       -23.0307
  31   2.0000      -0.810150       -22.0453
  32   2.0000      -0.782856       -21.3026
  33   2.0000      -0.773664       -21.0525
  34   2.0000      -0.708287       -19.2735
  35   2.0000      -0.705735       -19.2040
  36   2.0000      -0.696744       -18.9594
  37   2.0000      -0.654138       -17.8000
  38   2.0000      -0.640356       -17.4250
  39   2.0000      -0.610916       -16.6239
  40   2.0000      -0.599253       -16.3065
  41   2.0000      -0.577213       -15.7068
  42   2.0000      -0.575405       -15.6576
  43   2.0000      -0.551974       -15.0200
  44   2.0000      -0.530374       -14.4322
  45   2.0000      -0.525255       -14.2929
  46   2.0000      -0.523442       -14.2436
  47   2.0000      -0.512084       -13.9345
  48   2.0000      -0.507718       -13.8157
  49   2.0000      -0.497081       -13.5263
  50   2.0000      -0.493388       -13.4258
  51   2.0000      -0.475613       -12.9421
  52   2.0000      -0.469831       -12.7847
  53   2.0000      -0.466492       -12.6939
  54   2.0000      -0.460065       -12.5190
  55   2.0000      -0.448436       -12.2026
  56   2.0000      -0.445920       -12.1341
  57   2.0000      -0.434521       -11.8239
  58   2.0000      -0.433642       -11.8000
  59   2.0000      -0.427452       -11.6316
  60   2.0000      -0.420914       -11.4536
  61   2.0000      -0.411866       -11.2075
  62   2.0000      -0.406765       -11.0686
  63   2.0000      -0.331092        -9.0095
  64   2.0000      -0.327361        -8.9079
  65   2.0000      -0.319229        -8.6867
  66   2.0000      -0.309652        -8.4261
  67   0.0000       0.042135         1.1465
  68   0.0000       0.047797         1.3006
  69   0.0000       0.112052         3.0491
  70   0.0000       0.118204         3.2165
  71   0.0000       0.136208         3.7064

MULLIKEN ATOMIC CHARGES
-----------------------
   0 S :    0.123276
   1 C :   -0.113608
   2 C :   -0.109036
   3 C :    0.032637
   4 C :   -0.191525
   5 H :    0.024117
   6 C :    0.070352
   7 H :    0.022696
   8 H :    0.023759
   9 C :   -0.078767
  10 H :    0.023837
  11 H :    0.044568
  12 C :   -0.054730
  13 H :    0.034163
  14 H :    0.019425
  15 H :    0.039110
  16 S :    0.104615
  17 C :   -0.069431
  18 C :   -0.054438
  19 C :   -0.027482
  20 C :   -0.177862
  21 H :    0.030050
  22 C :    0.062763
  23 H :    0.052927
  24 H :    0.030168
  25 C :   -0.096417
  26 H :    0.042176
  27 H :    0.037622
  28 C :   -0.053374
  29 H :    0.042288
  30 H :    0.023524
  31 H :    0.042091
  32 H :    0.058281
  33 H :    0.042224
Sum of atomic charges:   -0.0000000

LOEWDIN ATOMIC CHARGES
----------------------
   0 S :    0.432059
   1 C :   -0.213931
   2 C :   -0.064988
   3 C :   -0.066163
   4 C :   -0.207826
   5 H :    0.037355
   6 C :   -0.042542
   7 H :    0.028587
   8 H :    0.040329
   9 C :   -0.045400
  10 H :    0.021574
  11 H :    0.031896
  12 C :   -0.064079
  13 H :    0.024881
  14 H :    0.021631
  15 H :    0.028873
  16 S :    0.414426
  17 C :   -0.173210
  18 C :   -0.076914
  19 C :   -0.055569
  20 C :   -0.211256
  21 H :    0.032390
  22 C :   -0.035091
  23 H :    0.041179
  24 H :    0.035592
  25 C :   -0.044384
  26 H :    0.029388
  27 H :    0.022895
  28 C :   -0.073506
  29 H :    0.033777
  30 H :    0.023960
  31 H :    0.028735
  32 H :    0.030333
  33 H :    0.014997

  Mayer bond orders larger than 0.100000
B(  0-S ,  1-C ) :   1.1734 B(  0-S ,  4-C ) :   1.1734 B(  1-C ,  2-C ) :   1.5559
B(  1-C ,  4-C ) :   0.1109 B(  1-C , 32-H ) :   0.9630 B(  2-C ,  3-C ) :   1.2931
B(  2-C ,  6-C ) :   1.0089 B(  3-C ,  4-C ) :   1.5511 B(  3-C ,  5-H ) :   0.9860
B(  4-C , 20-C ) :   1.0243 B(  6-C ,  7-H ) :   0.9399 B(  6-C ,  8-H ) :   0.9371
B(  6-C ,  9-C ) :   1.0413 B(  9-C , 10-H ) :   0.9665 B(  9-C , 11-H ) :   0.9586
B(  9-C , 12-C ) :   1.0658 B( 12-C , 13-H ) :   0.9790 B( 12-C , 14-H ) :   0.9749
B( 12-C , 15-H ) :   0.9741 B( 16-S , 17-C ) :   1.1945 B( 16-S , 20-C ) :   1.1393
B( 17-C , 18-C ) :   1.5433 B( 17-C , 20-C ) :   0.1039 B( 17-C , 33-H ) :   0.9803
B( 18-C , 19-C ) :   1.2646 B( 18-C , 21-H ) :   0.9870 B( 19-C , 20-C ) :   1.5899
B( 19-C , 22-C ) :   1.0422 B( 22-C , 23-H ) :   0.9247 B( 22-C , 24-H ) :   0.9274
B( 22-C , 25-C ) :   1.0645 B( 25-C , 26-H ) :   0.9608 B( 25-C , 27-H ) :   0.9427
B( 25-C , 28-C ) :   1.0861 B( 28-C , 29-H ) :   0.9725 B( 28-C , 30-H ) :   0.9719
B( 28-C , 31-H ) :   0.9739

Dispersion correction           -0.013455300
FINAL SINGLE POINT ENERGY     -1339.865867338759

DIPOLE MOMENT
-------------
                                X             Y             Z
Electronic contribution:    -12.10111      23.42007       9.66047
Nuclear contribution   :     12.56289     -23.84259      -9.83236
                        -----------------------------------------
Total Dipole Moment    :      0.46178      -0.42252      -0.17190
                        -----------------------------------------
Magnitude (a.u.)       :      0.64909
Magnitude (Debye)      :      1.64984

Rotational constants in cm-1:     0.019370     0.007388     0.005892
Rotational constants in MHz :   580.703057   221.498322   176.626101

                             ****ORCA TERMINATED NORMALLY****
TOTAL RUN TIME: 0 days 0 hours 0 minutes 32 seconds 875 msec
