                         Program Version 4.2.1 -  RELEASE  -
|  1> ! wB97X-D3 SP def2-SVP
|  2> %pal
|  3> nprocs 16
|  4> end
|  5>
|  6> * xyz 0 1
|  7> S 	 6.44905 	 -19.5489 	 81.8226
|  8> C 	 6.05859 	 -20.9398 	 82.7494
|  9> C 	 6.13559 	 -20.6717 	 84.1222
| 10> C 	 6.55744 	 -19.3072 	 84.3803
| 11> C 	 6.78253 	 -18.5931 	 83.2267
| 12> H 	 6.58173 	 -18.7323 	 85.2854
| 13> C 	 6.00967 	 -21.7365 	 85.2245
| 14> H 	 7.01832 	 -22.2427 	 85.1705
| 15> H 	 5.19177 	 -22.4213 	 84.9613
| 16> C 	 5.79516 	 -21.2427 	 86.6357
| 17> H 	 6.50275 	 -20.5312 	 87.0323
| 18> H 	 4.8652 	 -20.6645 	 86.5486
| 19> C 	 5.4205 	 -22.384 	 87.7051
| 20> H 	 4.50465 	 -22.8537 	 87.4003
| 21> H 	 6.26407 	 -22.946 	 87.856
| 22> H 	 5.21236 	 -21.8624 	 88.6009
| 23> S 	 5.56172 	 -16.0145 	 83.2543
| 24> C 	 6.69495 	 -14.6612 	 83.1254
| 25> C 	 7.97694 	 -15.0225 	 83.1619
| 26> C 	 8.1069 	 -16.4413 	 83.1459
| 27> C 	 6.90859 	 -17.1314 	 83.172
| 28> H 	 8.75301 	 -14.3126 	 83.2661
| 29> C 	 9.4431 	 -17.1244 	 83.3055
| 30> H 	 10.2683 	 -16.5601 	 82.7934
| 31> H 	 9.3807 	 -18.1859 	 82.8855
| 32> C 	 9.80433 	 -17.2302 	 84.7565
| 33> H 	 8.9338 	 -17.654 	 85.214
| 34> H 	 10.0711 	 -16.2664 	 85.2384
| 35> C 	 10.9584 	 -18.1826 	 85.0251
| 36> H 	 11.9148 	 -17.7833 	 84.6412
| 37> H 	 10.7671 	 -19.1755 	 84.6736
| 38> H 	 11.0789 	 -18.3001 	 86.0673
| 39> H 	 5.85387 	 -21.9588 	 82.4263
| 40> H 	 6.35964 	 -13.6263 	 83.2388
| 41> *
| 42>
| 43>                          ****END OF INPUT****

CARTESIAN COORDINATES (ANGSTROEM)
---------------------------------
  S      6.449050  -19.548900   81.822600
  C      6.058590  -20.939800   82.749400
  C      6.135590  -20.671700   84.122200
  C      6.557440  -19.307200   84.380300
  C      6.782530  -18.593100   83.226700
  H      6.581730  -18.732300   85.285400
  C      6.009670  -21.736500   85.224500
  H      7.018320  -22.242700   85.170500
  H      5.191770  -22.421300   84.961300
  C      5.795160  -21.242700   86.635700
  H      6.502750  -20.531200   87.032300
  H      4.865200  -20.664500   86.548600
  C      5.420500  -22.384000   87.705100
  H      4.504650  -22.853700   87.400300
  H      6.264070  -22.946000   87.856000
  H      5.212360  -21.862400   88.600900
  S      5.561720  -16.014500   83.254300
  C      6.694950  -14.661200   83.125400
  C      7.976940  -15.022500   83.161900
  C      8.106900  -16.441300   83.145900
  C      6.908590  -17.131400   83.172000
  H      8.753010  -14.312600   83.266100
  C      9.443100  -17.124400   83.305500
  H     10.268300  -16.560100   82.793400
  H      9.380700  -18.185900   82.885500
  C      9.804330  -17.230200   84.756500
  H      8.933800  -17.654000   85.214000
  H     10.071100  -16.266400   85.238400
  C     10.958400  -18.182600   85.025100
  H     11.914800  -17.783300   84.641200
  H     10.767100  -19.175500   84.673600
  H     11.078900  -18.300100   86.067300
  H      5.853870  -21.958800   82.426300
  H      6.359640  -13.626300   83.238800

 Total Charge           Charge          ....    0
 Multiplicity           Mult            ....    1
 Number of Electrons    NEL             ....  134
 Basis Dimension        Dim             ....  322

ORBITAL ENERGIES
----------------

  NO   OCC          E(Eh)            E(eV)
   0   2.0000     -88.967817     -2420.9374
   1   2.0000     -88.964462     -2420.8461
   2   2.0000     -10.324183      -280.9353
   3   2.0000     -10.321302      -280.8569
   4   2.0000     -10.314542      -280.6729
   5   2.0000     -10.313412      -280.6422
   6   2.0000     -10.305697      -280.4323
   7   2.0000     -10.298018      -280.2233
   8   2.0000     -10.297507      -280.2094
   9   2.0000     -10.293786      -280.1082
  10   2.0000     -10.290027      -280.0059
  11   2.0000     -10.287691      -279.9423
  12   2.0000     -10.286388      -279.9068
  13   2.0000     -10.277909      -279.6761
  14   2.0000     -10.274116      -279.5729
  15   2.0000     -10.268139      -279.4103
  16   2.0000      -8.082898      -219.9468
  17   2.0000      -8.078949      -219.8394
  18   2.0000      -6.041369      -164.3940
  19   2.0000      -6.037536      -164.2897
  20   2.0000      -6.037189      -164.2803
  21   2.0000      -6.033834      -164.1890
  22   2.0000      -6.033613      -164.1830
  23   2.0000      -6.029534      -164.0720
  24   2.0000      -1.008399       -27.4399
  25   2.0000      -0.987106       -26.8605
  26   2.0000      -0.912486       -24.8300
  27   2.0000      -0.908684       -24.7266
  28   2.0000      -0.872389       -23.7389
  29   2.0000      -0.848703       -23.0944
  30   2.0000      -0.846636       -23.0381
  31   2.0000      -0.819945       -22.3118
  32   2.0000      -0.784111       -21.3367
  33   2.0000      -0.769105       -20.9284
  34   2.0000      -0.709508       -19.3067
  35   2.0000      -0.691672       -18.8214
  36   2.0000      -0.684623       -18.6295
  37   2.0000      -0.659822       -17.9547
  38   2.0000      -0.643335       -17.5060
  39   2.0000      -0.614225       -16.7139
  40   2.0000      -0.596964       -16.2442
  41   2.0000      -0.575870       -15.6702
  42   2.0000      -0.574749       -15.6397
  43   2.0000      -0.566829       -15.4242
  44   2.0000      -0.525408       -14.2971
  45   2.0000      -0.522897       -14.2288
  46   2.0000      -0.515480       -14.0269
  47   2.0000      -0.513712       -13.9788
  48   2.0000      -0.504365       -13.7245
  49   2.0000      -0.497933       -13.5494
  50   2.0000      -0.491615       -13.3775
  51   2.0000      -0.480260       -13.0685
  52   2.0000      -0.472440       -12.8558
  53   2.0000      -0.462757       -12.5923
  54   2.0000      -0.461406       -12.5555
  55   2.0000      -0.450444       -12.2572
  56   2.0000      -0.447079       -12.1656
  57   2.0000      -0.439630       -11.9630
  58   2.0000      -0.429893       -11.6980
  59   2.0000      -0.424956       -11.5637
  60   2.0000      -0.418390       -11.3850
  61   2.0000      -0.416319       -11.3286
  62   2.0000      -0.408192       -11.1075
  63   2.0000      -0.340693        -9.2707
  64   2.0000      -0.330722        -8.9994
  65   2.0000      -0.315359        -8.5813
  66   2.0000      -0.312988        -8.5168
  67   0.0000       0.049395         1.3441
  68   0.0000       0.053744         1.4625
  69   0.0000       0.114460         3.1146
  70   0.0000       0.123457         3.3594
  71   0.0000       0.134389         3.6569

MULLIKEN ATOMIC CHARGES
-----------------------
   0 S :    0.138166
   1 C :   -0.110814
   2 C :   -0.109648
   3 C :    0.025782
   4 C :   -0.190846
   5 H :    0.023197
   6 C :    0.067833
   7 H :    0.052127
   8 H :    0.030776
   9 C :   -0.152593
  10 H :    0.036142
  11 H :    0.025013
  12 C :    0.022939
  13 H :    0.033345
  14 H :    0.024902
  15 H :    0.019264
  16 S :    0.111555
  17 C :   -0.093670
  18 C :    0.006493
  19 C :   -0.034890
  20 C :   -0.169157
  21 H :    0.004355
  22 C :    0.049243
  23 H :    0.026097
  24 H :    0.040963
  25 C :   -0.073887
  26 H :    0.006697
  27 H :    0.029538
  28 C :   -0.008587
  29 H :    0.027069
  30 H :    0.022460
  31 H :    0.016093
  32 H :    0.045692
  33 H :    0.058351
Sum of atomic charges:    0.0000000

LOEWDIN ATOMIC CHARGES
----------------------
   0 S :    0.437560
   1 C :   -0.214936
   2 C :   -0.063113
   3 C :   -0.064251
   4 C :   -0.205966
   5 H :    0.029952
   6 C :   -0.038991
   7 H :    0.040400
   8 H :    0.032751
   9 C :   -0.047045
  10 H :    0.019697
  11 H :    0.024779
  12 C :   -0.042064
  13 H :    0.025961
  14 H :    0.013188
  15 H :    0.024301
  16 S :    0.390745
  17 C :   -0.168213
  18 C :   -0.067160
  19 C :   -0.048857
  20 C :   -0.212163
  21 H :    0.029365
  22 C :   -0.038591
  23 H :    0.030091
  24 H :    0.038562
  25 C :   -0.041373
  26 H :    0.018428
  27 H :    0.025704
  28 C :   -0.058963
  29 H :    0.025396
  30 H :    0.021209
  31 H :    0.020131
  32 H :    0.032545
  33 H :    0.030922

  Mayer bond orders larger than 0.100000
B(  0-S ,  1-C ) :   1.1519 B(  0-S ,  4-C ) :   1.1609 B(  1-C ,  2-C ) :   1.6074
B(  1-C , 32-H ) :   0.9692 B(  2-C ,  3-C ) :   1.2344 B(  2-C ,  6-C ) :   1.0117
B(  3-C ,  4-C ) :   1.5824 B(  3-C ,  5-H ) :   0.9861 B(  4-C , 20-C ) :   1.0132
B(  6-C ,  7-H ) :   0.9354 B(  6-C ,  8-H ) :   0.9419 B(  6-C ,  9-C ) :   1.0760
B(  9-C , 10-H ) :   0.9509 B(  9-C , 11-H ) :   0.9601 B(  9-C , 12-C ) :   1.0781
B( 12-C , 13-H ) :   0.9765 B( 12-C , 14-H ) :   0.9795 B( 12-C , 15-H ) :   0.9729
B( 16-S , 17-C ) :   1.1482 B( 16-S , 20-C ) :   1.1204 B( 17-C , 18-C ) :   1.6370
B( 17-C , 33-H ) :   0.9595 B( 18-C , 19-C ) :   1.2247 B( 18-C , 21-H ) :   0.9993
B( 19-C , 20-C ) :   1.6215 B( 19-C , 22-C ) :   1.0656 B( 22-C , 23-H ) :   0.9300
B( 22-C , 24-H ) :   0.9196 B( 22-C , 25-C ) :   1.0758 B( 25-C , 26-H ) :   0.9474
B( 25-C , 27-H ) :   0.9508 B( 25-C , 28-C ) :   1.1023 B( 28-C , 29-H ) :   0.9717
B( 28-C , 30-H ) :   0.9715 B( 28-C , 31-H ) :   0.9707

Dispersion correction           -0.014582775
FINAL SINGLE POINT ENERGY     -1339.877929079525

DIPOLE MOMENT
-------------
                                X             Y             Z
Electronic contribution:    -12.10467      13.04702     -21.27936
Nuclear contribution   :     12.35799     -13.17273      21.90700
                        -----------------------------------------
Total Dipole Moment    :      0.25332      -0.12571       0.62764
                        -----------------------------------------
Magnitude (a.u.)       :      0.68841
Magnitude (Debye)      :      1.74979

Rotational constants in cm-1:     0.017505     0.008475     0.007437
Rotational constants in MHz :   524.800937   254.086363   222.942366

                             ****ORCA TERMINATED NORMALLY****
TOTAL RUN TIME: 0 days 0 hours 0 minutes 33 seconds 150 msec
