                         Program Version 4.2.1 -  RELEASE  -
|  1> ! wB97X-D3 SP def2-SVP
|  2> %pal
|  3> nprocs 16
|  4> end
|  5>
|  6> * xyz 0 1
|  7> S 	 -101.634 	 51.8923 	 122.944
|  8> C 	 -101.311 	 52.1758 	 121.217
|  9> C 	 -101.688 	 53.4529 	 120.898
| 10> C 	 -102.375 	 54.1382 	 121.934
| 11> C 	 -102.564 	 53.3889 	 123.076
| 12> H 	 -102.704 	 55.1717 	 121.944
| 13> C 	 -101.518 	 54.1026 	 119.548
| 14> H 	 -102.414 	 54.7208 	 119.319
| 15> H 	 -101.558 	 53.1888 	 118.945
| 16> C 	 -100.316 	 54.9667 	 119.429
| 17> H 	 -100.276 	 55.6943 	 120.228
| 18> H 	 -99.4476 	 54.3348 	 119.624
| 19> C 	 -100.203 	 55.5811 	 117.989
| 20> H 	 -99.2695 	 56.1266 	 117.829
| 21> H 	 -100.14 	 54.7523 	 117.35
| 22> H 	 -101.133 	 56.0926 	 117.692
| 23> S 	 -102.36 	 54.1448 	 125.679
| 24> C 	 -103.727 	 54.6387 	 126.605
| 25> C 	 -104.876 	 54.5059 	 125.877
| 26> C 	 -104.636 	 54.1751 	 124.481
| 27> C 	 -103.272 	 53.9231 	 124.234
| 28> H 	 -105.795 	 54.8095 	 126.278
| 29> C 	 -105.802 	 54.2143 	 123.506
| 30> H 	 -105.908 	 55.2354 	 123.118
| 31> H 	 -106.716 	 54.0411 	 124.198
| 32> C 	 -105.913 	 53.1474 	 122.37
| 33> H 	 -104.942 	 53.2849 	 121.833
| 34> H 	 -106.802 	 53.2797 	 121.764
| 35> C 	 -106.078 	 51.7614 	 122.879
| 36> H 	 -106.168 	 51.0207 	 122.053
| 37> H 	 -107.02 	 51.6717 	 123.336
| 38> H 	 -105.202 	 51.4969 	 123.548
| 39> H 	 -100.945 	 51.4733 	 120.489
| 40> H 	 -103.755 	 54.6623 	 127.641
| 41> *
| 42>
| 43>                          ****END OF INPUT****

CARTESIAN COORDINATES (ANGSTROEM)
---------------------------------
  S    -101.634000   51.892300  122.944000
  C    -101.311000   52.175800  121.217000
  C    -101.688000   53.452900  120.898000
  C    -102.375000   54.138200  121.934000
  C    -102.564000   53.388900  123.076000
  H    -102.704000   55.171700  121.944000
  C    -101.518000   54.102600  119.548000
  H    -102.414000   54.720800  119.319000
  H    -101.558000   53.188800  118.945000
  C    -100.316000   54.966700  119.429000
  H    -100.276000   55.694300  120.228000
  H    -99.447600   54.334800  119.624000
  C    -100.203000   55.581100  117.989000
  H    -99.269500   56.126600  117.829000
  H    -100.140000   54.752300  117.350000
  H    -101.133000   56.092600  117.692000
  S    -102.360000   54.144800  125.679000
  C    -103.727000   54.638700  126.605000
  C    -104.876000   54.505900  125.877000
  C    -104.636000   54.175100  124.481000
  C    -103.272000   53.923100  124.234000
  H    -105.795000   54.809500  126.278000
  C    -105.802000   54.214300  123.506000
  H    -105.908000   55.235400  123.118000
  H    -106.716000   54.041100  124.198000
  C    -105.913000   53.147400  122.370000
  H    -104.942000   53.284900  121.833000
  H    -106.802000   53.279700  121.764000
  C    -106.078000   51.761400  122.879000
  H    -106.168000   51.020700  122.053000
  H    -107.020000   51.671700  123.336000
  H    -105.202000   51.496900  123.548000
  H    -100.945000   51.473300  120.489000
  H    -103.755000   54.662300  127.641000

 Total Charge           Charge          ....    0
 Multiplicity           Mult            ....    1
 Number of Electrons    NEL             ....  134
 Basis Dimension        Dim             ....  322

ORBITAL ENERGIES
----------------

  NO   OCC          E(Eh)            E(eV)
   0   2.0000     -88.969939     -2420.9951
   1   2.0000     -88.963592     -2420.8224
   2   2.0000     -10.331846      -281.1438
   3   2.0000     -10.327701      -281.0310
   4   2.0000     -10.318226      -280.7732
   5   2.0000     -10.309384      -280.5326
   6   2.0000     -10.308764      -280.5157
   7   2.0000     -10.298661      -280.2408
   8   2.0000     -10.297886      -280.2197
   9   2.0000     -10.291661      -280.0503
  10   2.0000     -10.290541      -280.0199
  11   2.0000     -10.290192      -280.0104
  12   2.0000     -10.285997      -279.8962
  13   2.0000     -10.279835      -279.7285
  14   2.0000     -10.278861      -279.7020
  15   2.0000     -10.268339      -279.4157
  16   2.0000      -8.083609      -219.9662
  17   2.0000      -8.079444      -219.8528
  18   2.0000      -6.042331      -164.4202
  19   2.0000      -6.038284      -164.3100
  20   2.0000      -6.037923      -164.3002
  21   2.0000      -6.034144      -164.1974
  22   2.0000      -6.033617      -164.1831
  23   2.0000      -6.030348      -164.0941
  24   2.0000      -1.008981       -27.4558
  25   2.0000      -0.987626       -26.8747
  26   2.0000      -0.918071       -24.9820
  27   2.0000      -0.905667       -24.6445
  28   2.0000      -0.874238       -23.7892
  29   2.0000      -0.850259       -23.1367
  30   2.0000      -0.846822       -23.0432
  31   2.0000      -0.818840       -22.2818
  32   2.0000      -0.780259       -21.2319
  33   2.0000      -0.770236       -20.9592
  34   2.0000      -0.711951       -19.3732
  35   2.0000      -0.704453       -19.1692
  36   2.0000      -0.682070       -18.5601
  37   2.0000      -0.665861       -18.1190
  38   2.0000      -0.642768       -17.4906
  39   2.0000      -0.617969       -16.8158
  40   2.0000      -0.586919       -15.9709
  41   2.0000      -0.578478       -15.7412
  42   2.0000      -0.560647       -15.2560
  43   2.0000      -0.559318       -15.2198
  44   2.0000      -0.546374       -14.8676
  45   2.0000      -0.527114       -14.3435
  46   2.0000      -0.519452       -14.1350
  47   2.0000      -0.509347       -13.8600
  48   2.0000      -0.507562       -13.8115
  49   2.0000      -0.503524       -13.7016
  50   2.0000      -0.484312       -13.1788
  51   2.0000      -0.479020       -13.0348
  52   2.0000      -0.474206       -12.9038
  53   2.0000      -0.465957       -12.6793
  54   2.0000      -0.458485       -12.4760
  55   2.0000      -0.448117       -12.1939
  56   2.0000      -0.445528       -12.1234
  57   2.0000      -0.443086       -12.0570
  58   2.0000      -0.430836       -11.7237
  59   2.0000      -0.420582       -11.4446
  60   2.0000      -0.416112       -11.3230
  61   2.0000      -0.413423       -11.2498
  62   2.0000      -0.399479       -10.8704
  63   2.0000      -0.341647        -9.2967
  64   2.0000      -0.331053        -9.0084
  65   2.0000      -0.327102        -8.9009
  66   2.0000      -0.301465        -8.2033
  67   0.0000       0.032194         0.8760
  68   0.0000       0.058225         1.5844
  69   0.0000       0.116180         3.1614
  70   0.0000       0.120591         3.2815
  71   0.0000       0.127272         3.4632

MULLIKEN ATOMIC CHARGES
-----------------------
   0 S :    0.115795
   1 C :   -0.123022
   2 C :   -0.079946
   3 C :    0.025419
   4 C :   -0.148446
   5 H :    0.021385
   6 C :    0.044432
   7 H :    0.026725
   8 H :    0.019602
   9 C :   -0.053605
  10 H :    0.024965
  11 H :    0.018815
  12 C :   -0.011659
  13 H :    0.042920
  14 H :    0.009034
  15 H :    0.034293
  16 S :    0.106739
  17 C :   -0.053735
  18 C :   -0.029426
  19 C :   -0.036773
  20 C :   -0.188306
  21 H :    0.004170
  22 C :    0.012112
  23 H :    0.050567
  24 H :    0.022041
  25 C :   -0.058750
  26 H :    0.050349
  27 H :    0.025838
  28 C :   -0.049391
  29 H :    0.031350
  30 H :    0.010842
  31 H :    0.048271
  32 H :    0.046457
  33 H :    0.040943
Sum of atomic charges:   -0.0000000

LOEWDIN ATOMIC CHARGES
----------------------
   0 S :    0.389447
   1 C :   -0.188226
   2 C :   -0.063321
   3 C :   -0.059974
   4 C :   -0.193415
   5 H :    0.034245
   6 C :   -0.035246
   7 H :    0.031265
   8 H :    0.031066
   9 C :   -0.038451
  10 H :    0.021711
  11 H :    0.025047
  12 C :   -0.061279
  13 H :    0.029700
  14 H :    0.018399
  15 H :    0.027953
  16 S :    0.430494
  17 C :   -0.186284
  18 C :   -0.061674
  19 C :   -0.054914
  20 C :   -0.213348
  21 H :    0.022576
  22 C :   -0.039017
  23 H :    0.034730
  24 H :    0.034247
  25 C :   -0.049885
  26 H :    0.029935
  27 H :    0.025577
  28 C :   -0.067051
  29 H :    0.029353
  30 H :    0.014692
  31 H :    0.031811
  32 H :    0.030999
  33 H :    0.018837

  Mayer bond orders larger than 0.100000
B(  0-S ,  1-C ) :   1.1193 B(  0-S ,  4-C ) :   1.1345 B(  1-C ,  2-C ) :   1.6244
B(  1-C , 32-H ) :   0.9690 B(  2-C ,  3-C ) :   1.2270 B(  2-C ,  6-C ) :   1.0100
B(  3-C ,  4-C ) :   1.5747 B(  3-C ,  5-H ) :   0.9952 B(  4-C , 20-C ) :   1.0449
B(  6-C ,  7-H ) :   0.9427 B(  6-C ,  8-H ) :   0.9381 B(  6-C ,  9-C ) :   1.0688
B(  9-C , 10-H ) :   0.9553 B(  9-C , 11-H ) :   0.9499 B(  9-C , 12-C ) :   1.0723
B( 12-C , 13-H ) :   0.9750 B( 12-C , 14-H ) :   0.9719 B( 12-C , 15-H ) :   0.9751
B( 16-S , 17-C ) :   1.1627 B( 16-S , 20-C ) :   1.1594 B( 17-C , 18-C ) :   1.6156
B( 17-C , 33-H ) :   0.9666 B( 18-C , 19-C ) :   1.2641 B( 18-C , 21-H ) :   0.9899
B( 19-C , 20-C ) :   1.5672 B( 19-C , 22-C ) :   1.0160 B( 22-C , 23-H ) :   0.9397
B( 22-C , 24-H ) :   0.9381 B( 22-C , 25-C ) :   1.0685 B( 25-C , 26-H ) :   0.9466
B( 25-C , 27-H ) :   0.9521 B( 25-C , 28-C ) :   1.0903 B( 28-C , 29-H ) :   0.9713
B( 28-C , 30-H ) :   0.9707 B( 28-C , 31-H ) :   0.9713

Dispersion correction           -0.014975059
FINAL SINGLE POINT ENERGY     -1339.867995187884

DIPOLE MOMENT
-------------
                                X             Y             Z
Electronic contribution:      7.65262      -4.71680      22.18647
Nuclear contribution   :     -7.93299       4.94106     -22.64175
                        -----------------------------------------
Total Dipole Moment    :     -0.28037       0.22426      -0.45528
                        -----------------------------------------
Magnitude (a.u.)       :      0.57981
Magnitude (Debye)      :      1.47377

Rotational constants in cm-1:     0.020418     0.008046     0.007343
Rotational constants in MHz :   612.108850   241.225877   220.145077

                             ****ORCA TERMINATED NORMALLY****
TOTAL RUN TIME: 0 days 0 hours 0 minutes 35 seconds 730 msec
