                         Program Version 4.2.1 -  RELEASE  -
|  1> ! wB97X-D3 SP def2-SVP
|  2> %pal
|  3> nprocs 16
|  4> end
|  5>
|  6> * xyz 0 1
|  7> S 	 -1.53562 	 -17.7489 	 90.1725
|  8> C 	 -1.41211 	 -16.5919 	 88.892
|  9> C 	 -0.0771406 	 -16.4002 	 88.5661
| 10> C 	 0.85054 	 -17.2061 	 89.2095
| 11> C 	 0.209446 	 -18.0743 	 90.0909
| 12> H 	 1.91003 	 -17.2624 	 88.9666
| 13> C 	 0.334466 	 -15.5513 	 87.4594
| 14> H 	 1.34263 	 -15.378 	 87.5907
| 15> H 	 -0.0432204 	 -14.5836 	 87.5205
| 16> C 	 0.0856844 	 -15.9853 	 86.091
| 17> H 	 0.639519 	 -16.8763 	 85.9997
| 18> H 	 -0.967493 	 -16.1602 	 86.0267
| 19> C 	 0.654486 	 -15.0932 	 84.9509
| 20> H 	 1.71091 	 -15.216 	 84.8208
| 21> H 	 0.192317 	 -15.2624 	 84.0355
| 22> H 	 0.41974 	 -14.0309 	 85.2352
| 23> S 	 0.230212 	 -19.383 	 92.5119
| 24> C 	 1.13078 	 -20.8209 	 92.7831
| 25> C 	 1.8865 	 -21.0833 	 91.6674
| 26> C 	 1.69894 	 -20.2439 	 90.5712
| 27> C 	 0.733181 	 -19.2546 	 90.8198
| 28> H 	 2.60842 	 -21.9467 	 91.7123
| 29> C 	 2.42059 	 -20.3798 	 89.3238
| 30> H 	 3.45753 	 -20.8752 	 89.5583
| 31> H 	 2.61739 	 -19.3304 	 88.9963
| 32> C 	 1.64104 	 -21.1233 	 88.184
| 33> H 	 1.07641 	 -20.2481 	 87.8049
| 34> H 	 0.9646 	 -21.8102 	 88.7025
| 35> C 	 2.44449 	 -21.7234 	 87.0508
| 36> H 	 3.16288 	 -20.9151 	 86.69
| 37> H 	 1.93909 	 -22.2409 	 86.1963
| 38> H 	 3.0852 	 -22.4731 	 87.4283
| 39> H 	 -2.2656 	 -16.1012 	 88.4964
| 40> H 	 1.15372 	 -21.4241 	 93.6264
| 41> *
| 42>
| 43>                          ****END OF INPUT****

CARTESIAN COORDINATES (ANGSTROEM)
---------------------------------
  S     -1.535620  -17.748900   90.172500
  C     -1.412110  -16.591900   88.892000
  C     -0.077141  -16.400200   88.566100
  C      0.850540  -17.206100   89.209500
  C      0.209446  -18.074300   90.090900
  H      1.910030  -17.262400   88.966600
  C      0.334466  -15.551300   87.459400
  H      1.342630  -15.378000   87.590700
  H     -0.043220  -14.583600   87.520500
  C      0.085684  -15.985300   86.091000
  H      0.639519  -16.876300   85.999700
  H     -0.967493  -16.160200   86.026700
  C      0.654486  -15.093200   84.950900
  H      1.710910  -15.216000   84.820800
  H      0.192317  -15.262400   84.035500
  H      0.419740  -14.030900   85.235200
  S      0.230212  -19.383000   92.511900
  C      1.130780  -20.820900   92.783100
  C      1.886500  -21.083300   91.667400
  C      1.698940  -20.243900   90.571200
  C      0.733181  -19.254600   90.819800
  H      2.608420  -21.946700   91.712300
  C      2.420590  -20.379800   89.323800
  H      3.457530  -20.875200   89.558300
  H      2.617390  -19.330400   88.996300
  C      1.641040  -21.123300   88.184000
  H      1.076410  -20.248100   87.804900
  H      0.964600  -21.810200   88.702500
  C      2.444490  -21.723400   87.050800
  H      3.162880  -20.915100   86.690000
  H      1.939090  -22.240900   86.196300
  H      3.085200  -22.473100   87.428300
  H     -2.265600  -16.101200   88.496400
  H      1.153720  -21.424100   93.626400

 Total Charge           Charge          ....    0
 Multiplicity           Mult            ....    1
 Number of Electrons    NEL             ....  134
 Basis Dimension        Dim             ....  322

ORBITAL ENERGIES
----------------

  NO   OCC          E(Eh)            E(eV)
   0   2.0000     -88.968792     -2420.9639
   1   2.0000     -88.964119     -2420.8368
   2   2.0000     -10.337623      -281.3010
   3   2.0000     -10.330220      -281.0996
   4   2.0000     -10.312086      -280.6061
   5   2.0000     -10.309752      -280.5426
   6   2.0000     -10.299031      -280.2509
   7   2.0000     -10.297735      -280.2156
   8   2.0000     -10.297569      -280.2111
   9   2.0000     -10.294358      -280.1237
  10   2.0000     -10.291832      -280.0550
  11   2.0000     -10.288025      -279.9514
  12   2.0000     -10.282699      -279.8065
  13   2.0000     -10.277496      -279.6649
  14   2.0000     -10.274210      -279.5755
  15   2.0000     -10.265078      -279.3270
  16   2.0000      -8.083429      -219.9613
  17   2.0000      -8.079062      -219.8425
  18   2.0000      -6.041804      -164.4058
  19   2.0000      -6.037824      -164.2975
  20   2.0000      -6.037483      -164.2883
  21   2.0000      -6.034453      -164.2058
  22   2.0000      -6.033416      -164.1776
  23   2.0000      -6.030023      -164.0853
  24   2.0000      -1.010745       -27.5038
  25   2.0000      -0.992422       -27.0052
  26   2.0000      -0.927994       -25.2520
  27   2.0000      -0.911738       -24.8096
  28   2.0000      -0.868513       -23.6334
  29   2.0000      -0.859047       -23.3759
  30   2.0000      -0.852669       -23.2023
  31   2.0000      -0.818989       -22.2858
  32   2.0000      -0.784655       -21.3515
  33   2.0000      -0.771785       -21.0013
  34   2.0000      -0.710621       -19.3370
  35   2.0000      -0.707838       -19.2612
  36   2.0000      -0.693092       -18.8600
  37   2.0000      -0.664440       -18.0803
  38   2.0000      -0.648096       -17.6356
  39   2.0000      -0.629732       -17.1359
  40   2.0000      -0.597546       -16.2601
  41   2.0000      -0.581402       -15.8207
  42   2.0000      -0.567581       -15.4447
  43   2.0000      -0.555223       -15.1084
  44   2.0000      -0.533021       -14.5042
  45   2.0000      -0.523876       -14.2554
  46   2.0000      -0.522410       -14.2155
  47   2.0000      -0.516225       -14.0472
  48   2.0000      -0.511298       -13.9131
  49   2.0000      -0.505676       -13.7601
  50   2.0000      -0.491950       -13.3866
  51   2.0000      -0.485093       -13.2001
  52   2.0000      -0.478306       -13.0154
  53   2.0000      -0.465147       -12.6573
  54   2.0000      -0.463853       -12.6221
  55   2.0000      -0.455844       -12.4041
  56   2.0000      -0.447953       -12.1894
  57   2.0000      -0.440016       -11.9734
  58   2.0000      -0.426095       -11.5946
  59   2.0000      -0.422999       -11.5104
  60   2.0000      -0.416744       -11.3402
  61   2.0000      -0.414270       -11.2729
  62   2.0000      -0.405583       -11.0365
  63   2.0000      -0.350171        -9.5286
  64   2.0000      -0.336948        -9.1688
  65   2.0000      -0.330079        -8.9819
  66   2.0000      -0.286245        -7.7891
  67   0.0000       0.021406         0.5825
  68   0.0000       0.068329         1.8593
  69   0.0000       0.107583         2.9275
  70   0.0000       0.117325         3.1926
  71   0.0000       0.135480         3.6866

MULLIKEN ATOMIC CHARGES
-----------------------
   0 S :    0.118162
   1 C :   -0.114504
   2 C :   -0.087048
   3 C :    0.019466
   4 C :   -0.136623
   5 H :    0.030223
   6 C :    0.125200
   7 H :   -0.025182
   8 H :   -0.008447
   9 C :   -0.032989
  10 H :    0.003887
  11 H :    0.015605
  12 C :   -0.024224
  13 H :    0.032719
  14 H :    0.023706
  15 H :    0.024175
  16 S :    0.098881
  17 C :   -0.052521
  18 C :   -0.073841
  19 C :   -0.018938
  20 C :   -0.148541
  21 H :    0.029743
  22 C :   -0.000011
  23 H :    0.034305
  24 H :    0.017451
  25 C :   -0.055434
  26 H :    0.039411
  27 H :    0.040509
  28 C :   -0.046328
  29 H :    0.032657
  30 H :    0.052309
  31 H :    0.016198
  32 H :    0.040681
  33 H :    0.029340
Sum of atomic charges:   -0.0000000

LOEWDIN ATOMIC CHARGES
----------------------
   0 S :    0.416100
   1 C :   -0.193867
   2 C :   -0.060928
   3 C :   -0.063233
   4 C :   -0.179698
   5 H :    0.036929
   6 C :   -0.036470
   7 H :    0.017912
   8 H :    0.020860
   9 C :   -0.029577
  10 H :    0.017724
  11 H :    0.019311
  12 C :   -0.053940
  13 H :    0.024086
  14 H :    0.019135
  15 H :    0.027474
  16 S :    0.415209
  17 C :   -0.187054
  18 C :   -0.078446
  19 C :   -0.070166
  20 C :   -0.192895
  21 H :    0.038530
  22 C :   -0.041172
  23 H :    0.036383
  24 H :    0.029337
  25 C :   -0.041735
  26 H :    0.031358
  27 H :    0.024619
  28 C :   -0.074704
  29 H :    0.034181
  30 H :    0.036078
  31 H :    0.016390
  32 H :    0.022670
  33 H :    0.019598

  Mayer bond orders larger than 0.100000
B(  0-S ,  1-C ) :   1.1456 B(  0-S ,  4-C ) :   1.1819 B(  1-C ,  2-C ) :   1.5570
B(  1-C ,  4-C ) :   0.1105 B(  1-C , 32-H ) :   0.9816 B(  2-C ,  3-C ) :   1.2778
B(  2-C ,  6-C ) :   1.0476 B(  3-C ,  4-C ) :   1.5262 B(  3-C ,  5-H ) :   0.9911
B(  4-C , 20-C ) :   1.0183 B(  6-C ,  7-H ) :   0.9194 B(  6-C ,  8-H ) :   0.9084
B(  6-C ,  9-C ) :   1.0783 B(  9-C , 10-H ) :   0.9494 B(  9-C , 11-H ) :   0.9530
B(  9-C , 12-C ) :   1.0796 B( 12-C , 13-H ) :   0.9763 B( 12-C , 14-H ) :   0.9739
B( 12-C , 15-H ) :   0.9760 B( 16-S , 17-C ) :   1.1648 B( 16-S , 20-C ) :   1.1585
B( 17-C , 18-C ) :   1.5783 B( 17-C , 20-C ) :   0.1109 B( 17-C , 33-H ) :   0.9771
B( 18-C , 19-C ) :   1.2789 B( 18-C , 21-H ) :   0.9821 B( 19-C , 20-C ) :   1.5404
B( 19-C , 22-C ) :   1.0643 B( 22-C , 23-H ) :   0.9332 B( 22-C , 24-H ) :   0.9313
B( 22-C , 25-C ) :   1.0287 B( 25-C , 26-H ) :   0.9537 B( 25-C , 27-H ) :   0.9643
B( 25-C , 28-C ) :   1.0805 B( 28-C , 29-H ) :   0.9698 B( 28-C , 30-H ) :   0.9736
B( 28-C , 31-H ) :   0.9741

Dispersion correction           -0.014022651
FINAL SINGLE POINT ENERGY     -1339.855611442554

DIPOLE MOMENT
-------------
                                X             Y             Z
Electronic contribution:    -12.32897      -1.52696      29.08219
Nuclear contribution   :     12.70254       1.47013     -29.61938
                        -----------------------------------------
Total Dipole Moment    :      0.37356      -0.05683      -0.53720
                        -----------------------------------------
Magnitude (a.u.)       :      0.65678
Magnitude (Debye)      :      1.66940

Rotational constants in cm-1:     0.018577     0.008864     0.006517
Rotational constants in MHz :   556.929738   265.724742   195.386232

                             ****ORCA TERMINATED NORMALLY****
TOTAL RUN TIME: 0 days 0 hours 0 minutes 34 seconds 264 msec
