                         Program Version 4.2.1 -  RELEASE  -
|  1> ! wB97X-D3 SP def2-SVP
|  2> %pal
|  3> nprocs 16
|  4> end
|  5>
|  6> * xyz 0 1
|  7> S 	 -70.9106 	 39.2254 	 140.67
|  8> C 	 -71.941 	 38.0018 	 140.077
|  9> C 	 -71.3851 	 36.7841 	 140.101
| 10> C 	 -70.0638 	 36.7879 	 140.636
| 11> C 	 -69.7072 	 38.0826 	 141.036
| 12> H 	 -69.2807 	 36.0057 	 140.767
| 13> C 	 -72.0345 	 35.4866 	 139.694
| 14> H 	 -71.3042 	 34.884 	 139.222
| 15> H 	 -72.6726 	 35.6972 	 138.874
| 16> C 	 -72.7927 	 34.7165 	 140.813
| 17> H 	 -72.3032 	 34.6436 	 141.788
| 18> H 	 -73.7062 	 35.2372 	 141.067
| 19> C 	 -73.1584 	 33.2995 	 140.355
| 20> H 	 -73.6895 	 32.6057 	 140.983
| 21> H 	 -73.7796 	 33.4445 	 139.445
| 22> H 	 -72.2508 	 32.7841 	 140.099
| 23> S 	 -67.7552 	 37.4747 	 142.95
| 24> C 	 -66.2283 	 38.3138 	 142.845
| 25> C 	 -66.2576 	 39.2536 	 141.906
| 26> C 	 -67.4226 	 39.3497 	 141.137
| 27> C 	 -68.4043 	 38.4487 	 141.57
| 28> H 	 -65.4602 	 39.9763 	 141.689
| 29> C 	 -67.5267 	 40.2402 	 139.908
| 30> H 	 -68.519 	 40.642 	 139.904
| 31> H 	 -67.424 	 39.6909 	 139.01
| 32> C 	 -66.5787 	 41.486 	 139.901
| 33> H 	 -66.7863 	 41.9648 	 138.935
| 34> H 	 -65.5196 	 41.1939 	 139.8
| 35> C 	 -66.9432 	 42.503 	 140.992
| 36> H 	 -66.6114 	 42.1917 	 142.008
| 37> H 	 -67.9891 	 42.7408 	 141.114
| 38> H 	 -66.4472 	 43.4915 	 140.814
| 39> H 	 -72.9406 	 38.0492 	 139.706
| 40> H 	 -65.4518 	 38.3184 	 143.61
| 41> *
| 42>
| 43>                          ****END OF INPUT****

CARTESIAN COORDINATES (ANGSTROEM)
---------------------------------
  S    -70.910600   39.225400  140.670000
  C    -71.941000   38.001800  140.077000
  C    -71.385100   36.784100  140.101000
  C    -70.063800   36.787900  140.636000
  C    -69.707200   38.082600  141.036000
  H    -69.280700   36.005700  140.767000
  C    -72.034500   35.486600  139.694000
  H    -71.304200   34.884000  139.222000
  H    -72.672600   35.697200  138.874000
  C    -72.792700   34.716500  140.813000
  H    -72.303200   34.643600  141.788000
  H    -73.706200   35.237200  141.067000
  C    -73.158400   33.299500  140.355000
  H    -73.689500   32.605700  140.983000
  H    -73.779600   33.444500  139.445000
  H    -72.250800   32.784100  140.099000
  S    -67.755200   37.474700  142.950000
  C    -66.228300   38.313800  142.845000
  C    -66.257600   39.253600  141.906000
  C    -67.422600   39.349700  141.137000
  C    -68.404300   38.448700  141.570000
  H    -65.460200   39.976300  141.689000
  C    -67.526700   40.240200  139.908000
  H    -68.519000   40.642000  139.904000
  H    -67.424000   39.690900  139.010000
  C    -66.578700   41.486000  139.901000
  H    -66.786300   41.964800  138.935000
  H    -65.519600   41.193900  139.800000
  C    -66.943200   42.503000  140.992000
  H    -66.611400   42.191700  142.008000
  H    -67.989100   42.740800  141.114000
  H    -66.447200   43.491500  140.814000
  H    -72.940600   38.049200  139.706000
  H    -65.451800   38.318400  143.610000

 Total Charge           Charge          ....    0
 Multiplicity           Mult            ....    1
 Number of Electrons    NEL             ....  134
 Basis Dimension        Dim             ....  322

ORBITAL ENERGIES
----------------

  NO   OCC          E(Eh)            E(eV)
   0   2.0000     -88.969661     -2420.9875
   1   2.0000     -88.963889     -2420.8305
   2   2.0000     -10.328437      -281.0511
   3   2.0000     -10.324172      -280.9350
   4   2.0000     -10.311021      -280.5771
   5   2.0000     -10.302466      -280.3444
   6   2.0000     -10.297942      -280.2213
   7   2.0000     -10.293795      -280.1084
   8   2.0000     -10.293677      -280.1052
   9   2.0000     -10.293338      -280.0960
  10   2.0000     -10.287048      -279.9248
  11   2.0000     -10.286726      -279.9161
  12   2.0000     -10.286505      -279.9100
  13   2.0000     -10.283431      -279.8264
  14   2.0000     -10.282557      -279.8026
  15   2.0000     -10.275528      -279.6113
  16   2.0000      -8.085540      -220.0187
  17   2.0000      -8.077808      -219.8083
  18   2.0000      -6.043968      -164.4647
  19   2.0000      -6.039874      -164.3533
  20   2.0000      -6.036411      -164.2591
  21   2.0000      -6.036344      -164.2573
  22   2.0000      -6.032469      -164.1518
  23   2.0000      -6.028479      -164.0432
  24   2.0000      -1.013739       -27.5852
  25   2.0000      -0.989161       -26.9164
  26   2.0000      -0.912985       -24.8436
  27   2.0000      -0.906790       -24.6750
  28   2.0000      -0.872926       -23.7535
  29   2.0000      -0.853372       -23.2214
  30   2.0000      -0.843463       -22.9518
  31   2.0000      -0.813178       -22.1277
  32   2.0000      -0.785509       -21.3748
  33   2.0000      -0.774686       -21.0803
  34   2.0000      -0.709526       -19.3072
  35   2.0000      -0.706853       -19.2344
  36   2.0000      -0.699004       -19.0209
  37   2.0000      -0.659165       -17.9368
  38   2.0000      -0.639076       -17.3902
  39   2.0000      -0.610562       -16.6142
  40   2.0000      -0.600833       -16.3495
  41   2.0000      -0.573148       -15.5962
  42   2.0000      -0.557337       -15.1659
  43   2.0000      -0.556510       -15.1434
  44   2.0000      -0.528184       -14.3726
  45   2.0000      -0.525697       -14.3049
  46   2.0000      -0.520435       -14.1618
  47   2.0000      -0.509824       -13.8730
  48   2.0000      -0.505320       -13.7505
  49   2.0000      -0.501488       -13.6462
  50   2.0000      -0.489617       -13.3232
  51   2.0000      -0.475886       -12.9495
  52   2.0000      -0.473629       -12.8881
  53   2.0000      -0.466742       -12.7007
  54   2.0000      -0.459697       -12.5090
  55   2.0000      -0.453992       -12.3537
  56   2.0000      -0.442228       -12.0336
  57   2.0000      -0.437222       -11.8974
  58   2.0000      -0.435765       -11.8578
  59   2.0000      -0.429183       -11.6787
  60   2.0000      -0.420884       -11.4528
  61   2.0000      -0.416679       -11.3384
  62   2.0000      -0.410463       -11.1693
  63   2.0000      -0.348212        -9.4753
  64   2.0000      -0.334060        -9.0902
  65   2.0000      -0.332399        -9.0450
  66   2.0000      -0.290946        -7.9170
  67   0.0000       0.032057         0.8723
  68   0.0000       0.075461         2.0534
  69   0.0000       0.111792         3.0420
  70   0.0000       0.123271         3.3544
  71   0.0000       0.141205         3.8424

MULLIKEN ATOMIC CHARGES
-----------------------
   0 S :    0.136199
   1 C :   -0.094626
   2 C :   -0.094114
   3 C :    0.003187
   4 C :   -0.169578
   5 H :    0.031272
   6 C :    0.110347
   7 H :    0.006109
   8 H :    0.002179
   9 C :   -0.046754
  10 H :    0.032463
  11 H :    0.019643
  12 C :   -0.052488
  13 H :    0.034154
  14 H :    0.026490
  15 H :    0.024381
  16 S :    0.093408
  17 C :   -0.067741
  18 C :   -0.039909
  19 C :   -0.052596
  20 C :   -0.177593
  21 H :    0.018699
  22 C :    0.121753
  23 H :    0.005768
  24 H :    0.036579
  25 C :   -0.102120
  26 H :    0.028360
  27 H :    0.041311
  28 C :   -0.061719
  29 H :    0.034562
  30 H :    0.033927
  31 H :    0.038392
  32 H :    0.022116
  33 H :    0.057939
Sum of atomic charges:   -0.0000000

LOEWDIN ATOMIC CHARGES
----------------------
   0 S :    0.453430
   1 C :   -0.212852
   2 C :   -0.064854
   3 C :   -0.066474
   4 C :   -0.212968
   5 H :    0.038334
   6 C :   -0.023484
   7 H :    0.025927
   8 H :    0.025436
   9 C :   -0.036029
  10 H :    0.025494
  11 H :    0.021499
  12 C :   -0.067863
  13 H :    0.023522
  14 H :    0.027418
  15 H :    0.020977
  16 S :    0.383971
  17 C :   -0.188392
  18 C :   -0.078543
  19 C :   -0.059907
  20 C :   -0.177772
  21 H :    0.033754
  22 C :   -0.024355
  23 H :    0.020022
  24 H :    0.030772
  25 C :   -0.046570
  26 H :    0.029508
  27 H :    0.024958
  28 C :   -0.072308
  29 H :    0.026617
  30 H :    0.026490
  31 H :    0.031538
  32 H :    0.027601
  33 H :    0.035104

  Mayer bond orders larger than 0.100000
B(  0-S ,  1-C ) :   1.1326 B(  0-S ,  4-C ) :   1.1762 B(  1-C ,  2-C ) :   1.6434
B(  1-C , 32-H ) :   0.9623 B(  2-C ,  3-C ) :   1.2319 B(  2-C ,  6-C ) :   1.0270
B(  3-C ,  4-C ) :   1.5588 B(  3-C ,  5-H ) :   0.9893 B(  4-C , 20-C ) :   1.0345
B(  6-C ,  7-H ) :   0.9392 B(  6-C ,  8-H ) :   0.9270 B(  6-C ,  9-C ) :   1.0474
B(  9-C , 10-H ) :   0.9624 B(  9-C , 11-H ) :   0.9546 B(  9-C , 12-C ) :   1.0726
B( 12-C , 13-H ) :   0.9761 B( 12-C , 14-H ) :   0.9751 B( 12-C , 15-H ) :   0.9773
B( 16-S , 17-C ) :   1.1365 B( 16-S , 20-C ) :   1.1382 B( 17-C , 18-C ) :   1.6163
B( 17-C , 33-H ) :   0.9559 B( 18-C , 19-C ) :   1.2814 B( 18-C , 21-H ) :   0.9733
B( 19-C , 20-C ) :   1.5843 B( 19-C , 22-C ) :   1.0192 B( 22-C , 23-H ) :   0.9258
B( 22-C , 24-H ) :   0.9282 B( 22-C , 25-C ) :   1.0898 B( 25-C , 26-H ) :   0.9513
B( 25-C , 27-H ) :   0.9503 B( 25-C , 28-C ) :   1.0667 B( 28-C , 29-H ) :   0.9745
B( 28-C , 30-H ) :   0.9740 B( 28-C , 31-H ) :   0.9753

Dispersion correction           -0.014015224
FINAL SINGLE POINT ENERGY     -1339.882429138260

DIPOLE MOMENT
-------------
                                X             Y             Z
Electronic contribution:      3.81199       2.56195       8.69412
Nuclear contribution   :     -3.78166      -2.51900      -9.06985
                        -----------------------------------------
Total Dipole Moment    :      0.03033       0.04295      -0.37574
                        -----------------------------------------
Magnitude (a.u.)       :      0.37940
Magnitude (Debye)      :      0.96435

Rotational constants in cm-1:     0.026216     0.007043     0.005943
Rotational constants in MHz :   785.943829   211.149158   178.156363

                             ****ORCA TERMINATED NORMALLY****
TOTAL RUN TIME: 0 days 0 hours 0 minutes 33 seconds 555 msec
