                         Program Version 4.2.1 -  RELEASE  -
|  1> ! wB97X-D3 SP def2-SVP
|  2> %pal
|  3> nprocs 16
|  4> end
|  5>
|  6> * xyz 0 1
|  7> S 	 10.0853 	 -14.3514 	 87.9748
|  8> C 	 11.0359 	 -14.1699 	 86.5209
|  9> C 	 12.3629 	 -14.2824 	 86.9393
| 10> C 	 12.5872 	 -14.0608 	 88.3568
| 11> C 	 11.3755 	 -14.0021 	 89.0367
| 12> H 	 13.5036 	 -14.0338 	 88.8612
| 13> C 	 13.4555 	 -14.5385 	 85.8909
| 14> H 	 13.6031 	 -13.5829 	 85.3111
| 15> H 	 12.9231 	 -15.1147 	 85.1098
| 16> C 	 14.8668 	 -15.1083 	 86.31
| 17> H 	 15.5676 	 -15.098 	 85.4821
| 18> H 	 15.2014 	 -14.4464 	 87.0912
| 19> C 	 14.8514 	 -16.453 	 86.97
| 20> H 	 14.5971 	 -17.2339 	 86.2064
| 21> H 	 15.8024 	 -16.5662 	 87.4262
| 22> H 	 14.053 	 -16.5198 	 87.7188
| 23> S 	 10.1989 	 -15.2928 	 91.162
| 24> C 	 10.4145 	 -14.5264 	 92.7192
| 25> C 	 11.3634 	 -13.5083 	 92.6862
| 26> C 	 11.756 	 -13.1769 	 91.3594
| 27> C 	 11.1552 	 -13.9882 	 90.4146
| 28> H 	 11.6456 	 -13.0088 	 93.6405
| 29> C 	 12.7514 	 -12.0883 	 91.0715
| 30> H 	 12.1625 	 -11.2012 	 91.3727
| 31> H 	 12.9264 	 -12.0015 	 89.979
| 32> C 	 14.0575 	 -12.1793 	 91.7963
| 33> H 	 14.5648 	 -13.043 	 91.3048
| 34> H 	 13.9388 	 -12.5307 	 92.7879
| 35> C 	 14.8913 	 -10.8335 	 91.6522
| 36> H 	 15.7854 	 -10.9847 	 92.2726
| 37> H 	 14.4158 	 -9.96358 	 92.0842
| 38> H 	 15.2317 	 -10.6093 	 90.6124
| 39> H 	 10.7063 	 -14.5434 	 85.5483
| 40> H 	 10.0283 	 -14.7761 	 93.6992
| 41> *
| 42>
| 43>                          ****END OF INPUT****

CARTESIAN COORDINATES (ANGSTROEM)
---------------------------------
  S     10.085300  -14.351400   87.974800
  C     11.035900  -14.169900   86.520900
  C     12.362900  -14.282400   86.939300
  C     12.587200  -14.060800   88.356800
  C     11.375500  -14.002100   89.036700
  H     13.503600  -14.033800   88.861200
  C     13.455500  -14.538500   85.890900
  H     13.603100  -13.582900   85.311100
  H     12.923100  -15.114700   85.109800
  C     14.866800  -15.108300   86.310000
  H     15.567600  -15.098000   85.482100
  H     15.201400  -14.446400   87.091200
  C     14.851400  -16.453000   86.970000
  H     14.597100  -17.233900   86.206400
  H     15.802400  -16.566200   87.426200
  H     14.053000  -16.519800   87.718800
  S     10.198900  -15.292800   91.162000
  C     10.414500  -14.526400   92.719200
  C     11.363400  -13.508300   92.686200
  C     11.756000  -13.176900   91.359400
  C     11.155200  -13.988200   90.414600
  H     11.645600  -13.008800   93.640500
  C     12.751400  -12.088300   91.071500
  H     12.162500  -11.201200   91.372700
  H     12.926400  -12.001500   89.979000
  C     14.057500  -12.179300   91.796300
  H     14.564800  -13.043000   91.304800
  H     13.938800  -12.530700   92.787900
  C     14.891300  -10.833500   91.652200
  H     15.785400  -10.984700   92.272600
  H     14.415800   -9.963580   92.084200
  H     15.231700  -10.609300   90.612400
  H     10.706300  -14.543400   85.548300
  H     10.028300  -14.776100   93.699200

 Total Charge           Charge          ....    0
 Multiplicity           Mult            ....    1
 Number of Electrons    NEL             ....  134
 Basis Dimension        Dim             ....  322

ORBITAL ENERGIES
----------------

  NO   OCC          E(Eh)            E(eV)
   0   2.0000     -88.970447     -2421.0090
   1   2.0000     -88.961230     -2420.7581
   2   2.0000     -10.324372      -280.9404
   3   2.0000     -10.321127      -280.8521
   4   2.0000     -10.318760      -280.7877
   5   2.0000     -10.310886      -280.5735
   6   2.0000     -10.309112      -280.5252
   7   2.0000     -10.301183      -280.3094
   8   2.0000     -10.297997      -280.2227
   9   2.0000     -10.296874      -280.1922
  10   2.0000     -10.294794      -280.1356
  11   2.0000     -10.291410      -280.0435
  12   2.0000     -10.288755      -279.9712
  13   2.0000     -10.288498      -279.9643
  14   2.0000     -10.287972      -279.9500
  15   2.0000     -10.274738      -279.5898
  16   2.0000      -8.084410      -219.9880
  17   2.0000      -8.077042      -219.7875
  18   2.0000      -6.043052      -164.4398
  19   2.0000      -6.039208      -164.3352
  20   2.0000      -6.035488      -164.2340
  21   2.0000      -6.034886      -164.2176
  22   2.0000      -6.031458      -164.1243
  23   2.0000      -6.027705      -164.0222
  24   2.0000      -1.013623       -27.5821
  25   2.0000      -0.984469       -26.7888
  26   2.0000      -0.912958       -24.8429
  27   2.0000      -0.909031       -24.7360
  28   2.0000      -0.878120       -23.8948
  29   2.0000      -0.851403       -23.1679
  30   2.0000      -0.842473       -22.9249
  31   2.0000      -0.817522       -22.2459
  32   2.0000      -0.784356       -21.3434
  33   2.0000      -0.769500       -20.9392
  34   2.0000      -0.714902       -19.4535
  35   2.0000      -0.703371       -19.1397
  36   2.0000      -0.691486       -18.8163
  37   2.0000      -0.655684       -17.8421
  38   2.0000      -0.640924       -17.4404
  39   2.0000      -0.622511       -16.9394
  40   2.0000      -0.595861       -16.2142
  41   2.0000      -0.564842       -15.3701
  42   2.0000      -0.559799       -15.2329
  43   2.0000      -0.549490       -14.9524
  44   2.0000      -0.544496       -14.8165
  45   2.0000      -0.525006       -14.2861
  46   2.0000      -0.517267       -14.0755
  47   2.0000      -0.513875       -13.9832
  48   2.0000      -0.508775       -13.8445
  49   2.0000      -0.502129       -13.6636
  50   2.0000      -0.494743       -13.4627
  51   2.0000      -0.481749       -13.1091
  52   2.0000      -0.471160       -12.8209
  53   2.0000      -0.468603       -12.7513
  54   2.0000      -0.458568       -12.4783
  55   2.0000      -0.451141       -12.2762
  56   2.0000      -0.442815       -12.0496
  57   2.0000      -0.439240       -11.9523
  58   2.0000      -0.434208       -11.8154
  59   2.0000      -0.425515       -11.5789
  60   2.0000      -0.419041       -11.4027
  61   2.0000      -0.416667       -11.3381
  62   2.0000      -0.412781       -11.2323
  63   2.0000      -0.349341        -9.5061
  64   2.0000      -0.332222        -9.0402
  65   2.0000      -0.321580        -8.7506
  66   2.0000      -0.287037        -7.8107
  67   0.0000       0.020663         0.5623
  68   0.0000       0.066601         1.8123
  69   0.0000       0.104167         2.8345
  70   0.0000       0.112862         3.0711
  71   0.0000       0.129448         3.5225

MULLIKEN ATOMIC CHARGES
-----------------------
   0 S :    0.100036
   1 C :   -0.100772
   2 C :   -0.135583
   3 C :    0.055354
   4 C :   -0.175221
   5 H :   -0.007948
   6 C :    0.022063
   7 H :    0.048854
   8 H :    0.013085
   9 C :   -0.053510
  10 H :    0.034304
  11 H :    0.022975
  12 C :   -0.046401
  13 H :    0.034868
  14 H :    0.033152
  15 H :    0.036142
  16 S :    0.121974
  17 C :   -0.075648
  18 C :   -0.076975
  19 C :   -0.027998
  20 C :   -0.132928
  21 H :    0.035680
  22 C :    0.059041
  23 H :    0.033791
  24 H :    0.029144
  25 C :   -0.071633
  26 H :    0.026404
  27 H :    0.019062
  28 C :   -0.049078
  29 H :    0.033115
  30 H :    0.036209
  31 H :    0.045889
  32 H :    0.063183
  33 H :    0.049372
Sum of atomic charges:    0.0000000

LOEWDIN ATOMIC CHARGES
----------------------
   0 S :    0.428608
   1 C :   -0.219986
   2 C :   -0.050767
   3 C :   -0.066426
   4 C :   -0.198304
   5 H :    0.020206
   6 C :   -0.046399
   7 H :    0.041815
   8 H :    0.026749
   9 C :   -0.039971
  10 H :    0.027345
  11 H :    0.021701
  12 C :   -0.063896
  13 H :    0.029203
  14 H :    0.023072
  15 H :    0.026463
  16 S :    0.394895
  17 C :   -0.184808
  18 C :   -0.076240
  19 C :   -0.051485
  20 C :   -0.198522
  21 H :    0.038068
  22 C :   -0.039726
  23 H :    0.035480
  24 H :    0.031805
  25 C :   -0.037963
  26 H :    0.029186
  27 H :    0.016527
  28 C :   -0.064452
  29 H :    0.028514
  30 H :    0.024495
  31 H :    0.032192
  32 H :    0.031461
  33 H :    0.031162

  Mayer bond orders larger than 0.100000
B(  0-S ,  1-C ) :   1.1253 B(  0-S ,  4-C ) :   1.1849 B(  1-C ,  2-C ) :   1.5876
B(  1-C ,  4-C ) :   0.1042 B(  1-C , 32-H ) :   0.9640 B(  2-C ,  3-C ) :   1.2506
B(  2-C ,  6-C ) :   1.0098 B(  3-C ,  4-C ) :   1.5019 B(  3-C ,  5-H ) :   1.0021
B(  4-C , 20-C ) :   1.0969 B(  6-C ,  7-H ) :   0.9412 B(  6-C ,  8-H ) :   0.9415
B(  6-C ,  9-C ) :   1.0648 B(  9-C , 10-H ) :   0.9545 B(  9-C , 11-H ) :   0.9519
B(  9-C , 12-C ) :   1.0851 B( 12-C , 13-H ) :   0.9740 B( 12-C , 14-H ) :   0.9742
B( 12-C , 15-H ) :   0.9738 B( 16-S , 17-C ) :   1.1425 B( 16-S , 20-C ) :   1.1132
B( 17-C , 18-C ) :   1.6376 B( 17-C , 33-H ) :   0.9634 B( 18-C , 19-C ) :   1.2238
B( 18-C , 21-H ) :   0.9802 B( 19-C , 20-C ) :   1.6013 B( 19-C , 22-C ) :   1.0418
B( 22-C , 23-H ) :   0.9272 B( 22-C , 24-H ) :   0.9316 B( 22-C , 25-C ) :   1.0607
B( 25-C , 26-H ) :   0.9496 B( 25-C , 27-H ) :   0.9577 B( 25-C , 28-C ) :   1.0708
B( 28-C , 29-H ) :   0.9756 B( 28-C , 30-H ) :   0.9780 B( 28-C , 31-H ) :   0.9760

Dispersion correction           -0.014273490
FINAL SINGLE POINT ENERGY     -1339.862321556589

DIPOLE MOMENT
-------------
                                X             Y             Z
Electronic contribution:    -26.85850      -6.88537       3.32927
Nuclear contribution   :     27.59456       6.96918      -3.17837
                        -----------------------------------------
Total Dipole Moment    :      0.73606       0.08381       0.15090
                        -----------------------------------------
Magnitude (a.u.)       :      0.75603
Magnitude (Debye)      :      1.92168

Rotational constants in cm-1:     0.016007     0.009786     0.007272
Rotational constants in MHz :   479.870830   293.391462   218.003321

                             ****ORCA TERMINATED NORMALLY****
TOTAL RUN TIME: 0 days 0 hours 0 minutes 34 seconds 662 msec
