                         Program Version 4.2.1 -  RELEASE  -
|  1> ! wB97X-D3 SP def2-SVP
|  2> %pal
|  3> nprocs 16
|  4> end
|  5>
|  6> * xyz 0 1
|  7> S 	 -27.0932 	 -1.24919 	 103.343
|  8> C 	 -27.6383 	 -1.97444 	 104.802
|  9> C 	 -28.9314 	 -2.44822 	 104.675
| 10> C 	 -29.436 	 -2.25152 	 103.336
| 11> C 	 -28.641 	 -1.46257 	 102.538
| 12> H 	 -30.3859 	 -2.63844 	 102.96
| 13> C 	 -29.7285 	 -3.10767 	 105.834
| 14> H 	 -30.7056 	 -2.74359 	 105.814
| 15> H 	 -29.222 	 -2.8665 	 106.745
| 16> C 	 -29.8368 	 -4.65047 	 105.914
| 17> H 	 -28.8241 	 -5.0751 	 105.745
| 18> H 	 -30.1956 	 -4.9962 	 106.901
| 19> C 	 -30.6935 	 -5.23959 	 104.764
| 20> H 	 -30.4183 	 -4.97853 	 103.709
| 21> H 	 -30.7016 	 -6.35976 	 104.687
| 22> H 	 -31.7091 	 -4.88883 	 104.965
| 23> S 	 -27.5656 	 -0.977451 	 100.095
| 24> C 	 -28.5632 	 -0.675655 	 98.7009
| 25> C 	 -29.8989 	 -0.476893 	 99.0863
| 26> C 	 -30.1192 	 -0.75413 	 100.46
| 27> C 	 -28.8946 	 -1.09206 	 101.179
| 28> H 	 -30.5792 	 -0.154705 	 98.336
| 29> C 	 -31.4219 	 -0.607531 	 101.198
| 30> H 	 -31.8267 	 0.324345 	 100.797
| 31> H 	 -31.1754 	 -0.314254 	 102.265
| 32> C 	 -32.3543 	 -1.74273 	 100.991
| 33> H 	 -31.9112 	 -2.73851 	 101.171
| 34> H 	 -32.6412 	 -1.84691 	 99.9617
| 35> C 	 -33.7531 	 -1.6345 	 101.697
| 36> H 	 -34.2885 	 -2.55392 	 101.683
| 37> H 	 -34.3753 	 -0.85786 	 101.219
| 38> H 	 -33.7559 	 -1.3083 	 102.725
| 39> H 	 -26.991 	 -1.85149 	 105.683
| 40> H 	 -28.2366 	 -0.481854 	 97.6909
| 41> *
| 42>
| 43>                          ****END OF INPUT****

CARTESIAN COORDINATES (ANGSTROEM)
---------------------------------
  S    -27.093200   -1.249190  103.343000
  C    -27.638300   -1.974440  104.802000
  C    -28.931400   -2.448220  104.675000
  C    -29.436000   -2.251520  103.336000
  C    -28.641000   -1.462570  102.538000
  H    -30.385900   -2.638440  102.960000
  C    -29.728500   -3.107670  105.834000
  H    -30.705600   -2.743590  105.814000
  H    -29.222000   -2.866500  106.745000
  C    -29.836800   -4.650470  105.914000
  H    -28.824100   -5.075100  105.745000
  H    -30.195600   -4.996200  106.901000
  C    -30.693500   -5.239590  104.764000
  H    -30.418300   -4.978530  103.709000
  H    -30.701600   -6.359760  104.687000
  H    -31.709100   -4.888830  104.965000
  S    -27.565600   -0.977451  100.095000
  C    -28.563200   -0.675655   98.700900
  C    -29.898900   -0.476893   99.086300
  C    -30.119200   -0.754130  100.460000
  C    -28.894600   -1.092060  101.179000
  H    -30.579200   -0.154705   98.336000
  C    -31.421900   -0.607531  101.198000
  H    -31.826700    0.324345  100.797000
  H    -31.175400   -0.314254  102.265000
  C    -32.354300   -1.742730  100.991000
  H    -31.911200   -2.738510  101.171000
  H    -32.641200   -1.846910   99.961700
  C    -33.753100   -1.634500  101.697000
  H    -34.288500   -2.553920  101.683000
  H    -34.375300   -0.857860  101.219000
  H    -33.755900   -1.308300  102.725000
  H    -26.991000   -1.851490  105.683000
  H    -28.236600   -0.481854   97.690900

 Total Charge           Charge          ....    0
 Multiplicity           Mult            ....    1
 Number of Electrons    NEL             ....  134
 Basis Dimension        Dim             ....  322

ORBITAL ENERGIES
----------------

  NO   OCC          E(Eh)            E(eV)
   0   2.0000     -88.968678     -2420.9608
   1   2.0000     -88.963851     -2420.8295
   2   2.0000     -10.329953      -281.0923
   3   2.0000     -10.329442      -281.0784
   4   2.0000     -10.318461      -280.7796
   5   2.0000     -10.316951      -280.7385
   6   2.0000     -10.308946      -280.5207
   7   2.0000     -10.307522      -280.4819
   8   2.0000     -10.296374      -280.1786
   9   2.0000     -10.295804      -280.1631
  10   2.0000     -10.292597      -280.0758
  11   2.0000     -10.292197      -280.0649
  12   2.0000     -10.289820      -280.0002
  13   2.0000     -10.288061      -279.9524
  14   2.0000     -10.282862      -279.8109
  15   2.0000     -10.276895      -279.6485
  16   2.0000      -8.083714      -219.9690
  17   2.0000      -8.079447      -219.8529
  18   2.0000      -6.042115      -164.4143
  19   2.0000      -6.038012      -164.3027
  20   2.0000      -6.037977      -164.3017
  21   2.0000      -6.034787      -164.2149
  22   2.0000      -6.033828      -164.1888
  23   2.0000      -6.030110      -164.0876
  24   2.0000      -1.010079       -27.4856
  25   2.0000      -0.985468       -26.8159
  26   2.0000      -0.913138       -24.8477
  27   2.0000      -0.906996       -24.6806
  28   2.0000      -0.874369       -23.7928
  29   2.0000      -0.851343       -23.1662
  30   2.0000      -0.841386       -22.8953
  31   2.0000      -0.816806       -22.2264
  32   2.0000      -0.783996       -21.3336
  33   2.0000      -0.769987       -20.9524
  34   2.0000      -0.709642       -19.3103
  35   2.0000      -0.698608       -19.0101
  36   2.0000      -0.696443       -18.9512
  37   2.0000      -0.665081       -18.0978
  38   2.0000      -0.641042       -17.4436
  39   2.0000      -0.619667       -16.8620
  40   2.0000      -0.592324       -16.1180
  41   2.0000      -0.574571       -15.6349
  42   2.0000      -0.562074       -15.2948
  43   2.0000      -0.545573       -14.8458
  44   2.0000      -0.536809       -14.6073
  45   2.0000      -0.534472       -14.5437
  46   2.0000      -0.519989       -14.1496
  47   2.0000      -0.512527       -13.9466
  48   2.0000      -0.507190       -13.8013
  49   2.0000      -0.501789       -13.6544
  50   2.0000      -0.492214       -13.3938
  51   2.0000      -0.480594       -13.0776
  52   2.0000      -0.475217       -12.9313
  53   2.0000      -0.466975       -12.7070
  54   2.0000      -0.457976       -12.4621
  55   2.0000      -0.452988       -12.3264
  56   2.0000      -0.445801       -12.1309
  57   2.0000      -0.434909       -11.8345
  58   2.0000      -0.428194       -11.6517
  59   2.0000      -0.425530       -11.5792
  60   2.0000      -0.418267       -11.3816
  61   2.0000      -0.413373       -11.2484
  62   2.0000      -0.406956       -11.0738
  63   2.0000      -0.361449        -9.8355
  64   2.0000      -0.334712        -9.1080
  65   2.0000      -0.326774        -8.8920
  66   2.0000      -0.280501        -7.6328
  67   0.0000       0.019180         0.5219
  68   0.0000       0.078424         2.1340
  69   0.0000       0.108413         2.9501
  70   0.0000       0.116967         3.1828
  71   0.0000       0.130425         3.5490

MULLIKEN ATOMIC CHARGES
-----------------------
   0 S :    0.095129
   1 C :   -0.138414
   2 C :   -0.084182
   3 C :   -0.001007
   4 C :   -0.117299
   5 H :    0.007090
   6 C :    0.121308
   7 H :    0.012177
   8 H :    0.014078
   9 C :   -0.069452
  10 H :    0.030603
  11 H :    0.041501
  12 C :   -0.104913
  13 H :    0.045731
  14 H :    0.040159
  15 H :    0.025989
  16 S :    0.113850
  17 C :   -0.094462
  18 C :   -0.032288
  19 C :   -0.041695
  20 C :   -0.146356
  21 H :    0.011434
  22 C :    0.054737
  23 H :    0.018733
  24 H :    0.046571
  25 C :   -0.064241
  26 H :    0.030931
  27 H :    0.019839
  28 C :   -0.036226
  29 H :    0.030902
  30 H :    0.026508
  31 H :    0.019999
  32 H :    0.067460
  33 H :    0.055805
Sum of atomic charges:   -0.0000000

LOEWDIN ATOMIC CHARGES
----------------------
   0 S :    0.405268
   1 C :   -0.203096
   2 C :   -0.060373
   3 C :   -0.064295
   4 C :   -0.192400
   5 H :    0.030546
   6 C :   -0.019972
   7 H :    0.020062
   8 H :    0.029580
   9 C :   -0.039493
  10 H :    0.025831
  11 H :    0.028346
  12 C :   -0.081914
  13 H :    0.029851
  14 H :    0.029819
  15 H :    0.019971
  16 S :    0.433851
  17 C :   -0.194295
  18 C :   -0.068546
  19 C :   -0.051408
  20 C :   -0.210765
  21 H :    0.029465
  22 C :   -0.042922
  23 H :    0.033053
  24 H :    0.039670
  25 C :   -0.044202
  26 H :    0.024066
  27 H :    0.026594
  28 C :   -0.065828
  29 H :    0.023198
  30 H :    0.026680
  31 H :    0.020060
  32 H :    0.033968
  33 H :    0.029631

  Mayer bond orders larger than 0.100000
B(  0-S ,  1-C ) :   1.1487 B(  0-S ,  4-C ) :   1.1401 B(  1-C ,  2-C ) :   1.5974
B(  1-C , 32-H ) :   0.9666 B(  2-C ,  3-C ) :   1.2392 B(  2-C ,  6-C ) :   1.0246
B(  3-C ,  4-C ) :   1.5536 B(  3-C ,  5-H ) :   0.9893 B(  4-C , 20-C ) :   1.1048
B(  6-C ,  7-H ) :   0.9409 B(  6-C ,  8-H ) :   0.9372 B(  6-C ,  9-C ) :   1.0676
B(  9-C , 10-H ) :   0.9551 B(  9-C , 11-H ) :   0.9578 B(  9-C , 12-C ) :   1.0686
B( 12-C , 13-H ) :   0.9727 B( 12-C , 14-H ) :   0.9744 B( 12-C , 15-H ) :   0.9778
B( 16-S , 17-C ) :   1.1782 B( 16-S , 20-C ) :   1.1651 B( 17-C , 18-C ) :   1.5552
B( 17-C , 20-C ) :   0.1121 B( 17-C , 33-H ) :   0.9686 B( 18-C , 19-C ) :   1.2973
B( 18-C , 21-H ) :   0.9976 B( 19-C , 20-C ) :   1.4890 B( 19-C , 22-C ) :   1.0402
B( 22-C , 23-H ) :   0.9279 B( 22-C , 24-H ) :   0.9363 B( 22-C , 25-C ) :   1.0596
B( 25-C , 26-H ) :   0.9542 B( 25-C , 27-H ) :   0.9487 B( 25-C , 28-C ) :   1.0734
B( 28-C , 29-H ) :   0.9760 B( 28-C , 30-H ) :   0.9759 B( 28-C , 31-H ) :   0.9767

Dispersion correction           -0.014458721
FINAL SINGLE POINT ENERGY     -1339.880210630832

DIPOLE MOMENT
-------------
                                X             Y             Z
Electronic contribution:     26.76384      12.68932     -10.18206
Nuclear contribution   :    -27.35314     -12.76889      10.28287
                        -----------------------------------------
Total Dipole Moment    :     -0.58930      -0.07958       0.10080
                        -----------------------------------------
Magnitude (a.u.)       :      0.60313
Magnitude (Debye)      :      1.53304

Rotational constants in cm-1:     0.016582     0.010100     0.006924
Rotational constants in MHz :   497.111765   302.801006   207.586143

                             ****ORCA TERMINATED NORMALLY****
TOTAL RUN TIME: 0 days 0 hours 0 minutes 30 seconds 721 msec
