                         Program Version 4.2.1 -  RELEASE  -
|  1> ! wB97X-D3 SP def2-SVP
|  2> %pal
|  3> nprocs 16
|  4> end
|  5>
|  6> * xyz 0 1
|  7> S 	 5.43081 	 -7.16214 	 90.0842
|  8> C 	 6.58924 	 -6.34502 	 91.2101
|  9> C 	 6.0506 	 -6.16475 	 92.4701
| 10> C 	 4.66606 	 -6.54711 	 92.4808
| 11> C 	 4.15242 	 -7.06365 	 91.3095
| 12> H 	 4.08224 	 -6.64302 	 93.3411
| 13> C 	 6.77846 	 -5.68853 	 93.7411
| 14> H 	 6.68959 	 -4.59284 	 93.7527
| 15> H 	 7.8601 	 -5.86593 	 93.724
| 16> C 	 6.13301 	 -6.1159 	 95.0751
| 17> H 	 6.56892 	 -5.51146 	 95.8608
| 18> H 	 5.09367 	 -5.79274 	 95.1215
| 19> C 	 6.32057 	 -7.54168 	 95.4492
| 20> H 	 5.83418 	 -8.26219 	 94.7555
| 21> H 	 7.41302 	 -7.773 	 95.4877
| 22> H 	 5.93487 	 -7.72796 	 96.4273
| 23> S 	 2.37172 	 -7.17568 	 89.2292
| 24> C 	 0.655447 	 -7.53781 	 89.5532
| 25> C 	 0.446782 	 -7.67153 	 90.9105
| 26> C 	 1.58887 	 -7.55583 	 91.7619
| 27> C 	 2.71128 	 -7.29177 	 90.9657
| 28> H 	 -0.594485 	 -7.89591 	 91.1493
| 29> C 	 1.52811 	 -7.5396 	 93.2589
| 30> H 	 0.53019 	 -7.69122 	 93.4014
| 31> H 	 1.83398 	 -6.5005 	 93.6101
| 32> C 	 2.25918 	 -8.65964 	 94.0979
| 33> H 	 3.32882 	 -8.58222 	 93.98
| 34> H 	 1.95967 	 -9.6143 	 93.6513
| 35> C 	 1.9125 	 -8.65356 	 95.559
| 36> H 	 2.1261 	 -9.62479 	 96.0301
| 37> H 	 0.836895 	 -8.65358 	 95.7463
| 38> H 	 2.43259 	 -7.86568 	 96.1002
| 39> H 	 7.57972 	 -6.06127 	 91.034
| 40> H 	 -0.110421 	 -7.79002 	 88.7905
| 41> *
| 42>
| 43>                          ****END OF INPUT****

CARTESIAN COORDINATES (ANGSTROEM)
---------------------------------
  S      5.430810   -7.162140   90.084200
  C      6.589240   -6.345020   91.210100
  C      6.050600   -6.164750   92.470100
  C      4.666060   -6.547110   92.480800
  C      4.152420   -7.063650   91.309500
  H      4.082240   -6.643020   93.341100
  C      6.778460   -5.688530   93.741100
  H      6.689590   -4.592840   93.752700
  H      7.860100   -5.865930   93.724000
  C      6.133010   -6.115900   95.075100
  H      6.568920   -5.511460   95.860800
  H      5.093670   -5.792740   95.121500
  C      6.320570   -7.541680   95.449200
  H      5.834180   -8.262190   94.755500
  H      7.413020   -7.773000   95.487700
  H      5.934870   -7.727960   96.427300
  S      2.371720   -7.175680   89.229200
  C      0.655447   -7.537810   89.553200
  C      0.446782   -7.671530   90.910500
  C      1.588870   -7.555830   91.761900
  C      2.711280   -7.291770   90.965700
  H     -0.594485   -7.895910   91.149300
  C      1.528110   -7.539600   93.258900
  H      0.530190   -7.691220   93.401400
  H      1.833980   -6.500500   93.610100
  C      2.259180   -8.659640   94.097900
  H      3.328820   -8.582220   93.980000
  H      1.959670   -9.614300   93.651300
  C      1.912500   -8.653560   95.559000
  H      2.126100   -9.624790   96.030100
  H      0.836895   -8.653580   95.746300
  H      2.432590   -7.865680   96.100200
  H      7.579720   -6.061270   91.034000
  H     -0.110421   -7.790020   88.790500

 Total Charge           Charge          ....    0
 Multiplicity           Mult            ....    1
 Number of Electrons    NEL             ....  134
 Basis Dimension        Dim             ....  322

ORBITAL ENERGIES
----------------

  NO   OCC          E(Eh)            E(eV)
   0   2.0000     -88.968203     -2420.9479
   1   2.0000     -88.966865     -2420.9115
   2   2.0000     -10.334870      -281.2261
   3   2.0000     -10.334479      -281.2155
   4   2.0000     -10.319501      -280.8079
   5   2.0000     -10.313446      -280.6431
   6   2.0000     -10.307164      -280.4722
   7   2.0000     -10.305010      -280.4136
   8   2.0000     -10.299749      -280.2704
   9   2.0000     -10.296713      -280.1878
  10   2.0000     -10.294733      -280.1339
  11   2.0000     -10.289195      -279.9832
  12   2.0000     -10.288126      -279.9541
  13   2.0000     -10.287656      -279.9414
  14   2.0000     -10.280330      -279.7420
  15   2.0000     -10.278389      -279.6892
  16   2.0000      -8.081348      -219.9047
  17   2.0000      -8.080630      -219.8851
  18   2.0000      -6.040170      -164.3614
  19   2.0000      -6.039226      -164.3357
  20   2.0000      -6.036119      -164.2511
  21   2.0000      -6.035331      -164.2297
  22   2.0000      -6.031836      -164.1346
  23   2.0000      -6.031288      -164.1197
  24   2.0000      -0.999323       -27.1930
  25   2.0000      -0.976382       -26.5687
  26   2.0000      -0.914876       -24.8950
  27   2.0000      -0.910135       -24.7660
  28   2.0000      -0.867584       -23.6082
  29   2.0000      -0.857334       -23.3293
  30   2.0000      -0.840794       -22.8792
  31   2.0000      -0.816910       -22.2292
  32   2.0000      -0.785992       -21.3879
  33   2.0000      -0.776653       -21.1338
  34   2.0000      -0.711640       -19.3647
  35   2.0000      -0.700870       -19.0716
  36   2.0000      -0.691245       -18.8097
  37   2.0000      -0.660036       -17.9605
  38   2.0000      -0.637874       -17.3574
  39   2.0000      -0.626085       -17.0366
  40   2.0000      -0.589905       -16.0521
  41   2.0000      -0.573921       -15.6172
  42   2.0000      -0.563526       -15.3343
  43   2.0000      -0.555604       -15.1188
  44   2.0000      -0.537175       -14.6173
  45   2.0000      -0.526562       -14.3285
  46   2.0000      -0.520130       -14.1534
  47   2.0000      -0.510526       -13.8921
  48   2.0000      -0.506572       -13.7845
  49   2.0000      -0.496041       -13.4980
  50   2.0000      -0.491271       -13.3682
  51   2.0000      -0.484237       -13.1768
  52   2.0000      -0.470090       -12.7918
  53   2.0000      -0.466255       -12.6875
  54   2.0000      -0.461811       -12.5665
  55   2.0000      -0.447072       -12.1655
  56   2.0000      -0.443630       -12.0718
  57   2.0000      -0.439277       -11.9533
  58   2.0000      -0.433258       -11.7895
  59   2.0000      -0.429430       -11.6854
  60   2.0000      -0.423204       -11.5160
  61   2.0000      -0.420590       -11.4448
  62   2.0000      -0.413619       -11.2551
  63   2.0000      -0.352738        -9.5985
  64   2.0000      -0.333905        -9.0860
  65   2.0000      -0.328373        -8.9355
  66   2.0000      -0.282843        -7.6966
  67   0.0000       0.017197         0.4680
  68   0.0000       0.079464         2.1623
  69   0.0000       0.092303         2.5117
  70   0.0000       0.115437         3.1412
  71   0.0000       0.123561         3.3623

MULLIKEN ATOMIC CHARGES
-----------------------
   0 S :    0.095227
   1 C :   -0.109692
   2 C :   -0.068101
   3 C :    0.017410
   4 C :   -0.098974
   5 H :   -0.033730
   6 C :    0.068200
   7 H :    0.042693
   8 H :    0.028893
   9 C :   -0.088804
  10 H :    0.019817
  11 H :    0.026455
  12 C :   -0.036718
  13 H :    0.047574
  14 H :    0.030072
  15 H :    0.026575
  16 S :    0.092177
  17 C :   -0.113896
  18 C :   -0.046629
  19 C :   -0.040087
  20 C :   -0.128409
  21 H :    0.020524
  22 C :    0.072404
  23 H :   -0.016601
  24 H :    0.055260
  25 C :   -0.059248
  26 H :    0.027920
  27 H :    0.026546
  28 C :   -0.038693
  29 H :    0.031690
  30 H :    0.022986
  31 H :    0.036833
  32 H :    0.018390
  33 H :    0.071933
Sum of atomic charges:   -0.0000000

LOEWDIN ATOMIC CHARGES
----------------------
   0 S :    0.368392
   1 C :   -0.173297
   2 C :   -0.054962
   3 C :   -0.066422
   4 C :   -0.175181
   5 H :    0.013640
   6 C :   -0.029872
   7 H :    0.040087
   8 H :    0.031012
   9 C :   -0.047721
  10 H :    0.027612
  11 H :    0.022363
  12 C :   -0.066459
  13 H :    0.027876
  14 H :    0.030897
  15 H :    0.022437
  16 S :    0.381331
  17 C :   -0.189435
  18 C :   -0.071995
  19 C :   -0.063317
  20 C :   -0.171309
  21 H :    0.033839
  22 C :   -0.029332
  23 H :    0.017560
  24 H :    0.040345
  25 C :   -0.037066
  26 H :    0.019190
  27 H :    0.028497
  28 C :   -0.068654
  29 H :    0.032509
  30 H :    0.025625
  31 H :    0.025105
  32 H :    0.017009
  33 H :    0.039695

  Mayer bond orders larger than 0.100000
B(  0-S ,  1-C ) :   1.1155 B(  0-S ,  4-C ) :   1.1275 B(  1-C ,  2-C ) :   1.6392
B(  1-C , 32-H ) :   0.9714 B(  2-C ,  3-C ) :   1.2368 B(  2-C ,  6-C ) :   1.0034
B(  3-C ,  4-C ) :   1.5913 B(  3-C ,  5-H ) :   0.9820 B(  4-C , 20-C ) :   1.0541
B(  6-C ,  7-H ) :   0.9290 B(  6-C ,  8-H ) :   0.9474 B(  6-C ,  9-C ) :   1.0950
B(  9-C , 10-H ) :   0.9450 B(  9-C , 11-H ) :   0.9415 B(  9-C , 12-C ) :   1.0886
B( 12-C , 13-H ) :   0.9713 B( 12-C , 14-H ) :   0.9691 B( 12-C , 15-H ) :   0.9707
B( 16-S , 17-C ) :   1.1262 B( 16-S , 20-C ) :   1.1471 B( 17-C , 18-C ) :   1.6433
B( 17-C , 33-H ) :   0.9599 B( 18-C , 19-C ) :   1.2324 B( 18-C , 21-H ) :   0.9819
B( 19-C , 20-C ) :   1.5709 B( 19-C , 22-C ) :   1.0393 B( 22-C , 23-H ) :   0.9154
B( 22-C , 24-H ) :   0.9298 B( 22-C , 25-C ) :   1.0585 B( 25-C , 26-H ) :   0.9531
B( 25-C , 27-H ) :   0.9482 B( 25-C , 28-C ) :   1.0967 B( 28-C , 29-H ) :   0.9705
B( 28-C , 30-H ) :   0.9700 B( 28-C , 31-H ) :   0.9732

Dispersion correction           -0.015303687
FINAL SINGLE POINT ENERGY     -1339.872981642971

DIPOLE MOMENT
-------------
                                X             Y             Z
Electronic contribution:     -1.68525       2.95416     -32.73695
Nuclear contribution   :      1.56400      -2.95726      33.59223
                        -----------------------------------------
Total Dipole Moment    :     -0.12125      -0.00310       0.85528
                        -----------------------------------------
Magnitude (a.u.)       :      0.86384
Magnitude (Debye)      :      2.19570

Rotational constants in cm-1:     0.017100     0.010874     0.007036
Rotational constants in MHz :   512.654699   325.983925   210.941149

                             ****ORCA TERMINATED NORMALLY****
TOTAL RUN TIME: 0 days 0 hours 0 minutes 34 seconds 255 msec
