                         Program Version 4.2.1 -  RELEASE  -
|  1> ! wB97X-D3 SP def2-SVP
|  2> %pal
|  3> nprocs 16
|  4> end
|  5>
|  6> * xyz 0 1
|  7> S 	 -73.3828 	 39.8918 	 120.788
|  8> C 	 -73.4793 	 40.0153 	 122.518
|  9> C 	 -73.1192 	 38.8613 	 123.157
| 10> C 	 -72.5389 	 37.9468 	 122.175
| 11> C 	 -72.4976 	 38.3313 	 120.871
| 12> H 	 -72.1375 	 37.0235 	 122.514
| 13> C 	 -73.3078 	 38.5112 	 124.653
| 14> H 	 -72.5863 	 39.102 	 125.222
| 15> H 	 -73.2452 	 37.4475 	 124.819
| 16> C 	 -74.6387 	 38.9982 	 125.256
| 17> H 	 -74.6216 	 40.1227 	 125.396
| 18> H 	 -75.4806 	 38.7489 	 124.567
| 19> C 	 -74.8844 	 38.437 	 126.669
| 20> H 	 -73.9585 	 38.2938 	 127.195
| 21> H 	 -75.4739 	 39.0687 	 127.295
| 22> H 	 -75.3718 	 37.4283 	 126.698
| 23> S 	 -71.0237 	 38.4101 	 118.499
| 24> C 	 -70.6591 	 36.9781 	 117.658
| 25> C 	 -71.1774 	 35.8821 	 118.337
| 26> C 	 -71.9813 	 36.2428 	 119.43
| 27> C 	 -72.0895 	 37.6266 	 119.677
| 28> H 	 -71.0059 	 34.8269 	 118.004
| 29> C 	 -72.7051 	 35.1233 	 120.182
| 30> H 	 -72.3072 	 35.0671 	 121.172
| 31> H 	 -72.4603 	 34.2613 	 119.677
| 32> C 	 -74.2488 	 35.2307 	 120.295
| 33> H 	 -74.5739 	 35.7016 	 119.378
| 34> H 	 -74.5202 	 35.9351 	 121.049
| 35> C 	 -74.8286 	 33.8323 	 120.706
| 36> H 	 -74.8096 	 33.0418 	 119.898
| 37> H 	 -75.9022 	 34.0112 	 121.058
| 38> H 	 -74.3032 	 33.4272 	 121.538
| 39> H 	 -73.9 	 40.7928 	 123.106
| 40> H 	 -70.351 	 36.8199 	 116.604
| 41> *
| 42>
| 43>                          ****END OF INPUT****

CARTESIAN COORDINATES (ANGSTROEM)
---------------------------------
  S    -73.382800   39.891800  120.788000
  C    -73.479300   40.015300  122.518000
  C    -73.119200   38.861300  123.157000
  C    -72.538900   37.946800  122.175000
  C    -72.497600   38.331300  120.871000
  H    -72.137500   37.023500  122.514000
  C    -73.307800   38.511200  124.653000
  H    -72.586300   39.102000  125.222000
  H    -73.245200   37.447500  124.819000
  C    -74.638700   38.998200  125.256000
  H    -74.621600   40.122700  125.396000
  H    -75.480600   38.748900  124.567000
  C    -74.884400   38.437000  126.669000
  H    -73.958500   38.293800  127.195000
  H    -75.473900   39.068700  127.295000
  H    -75.371800   37.428300  126.698000
  S    -71.023700   38.410100  118.499000
  C    -70.659100   36.978100  117.658000
  C    -71.177400   35.882100  118.337000
  C    -71.981300   36.242800  119.430000
  C    -72.089500   37.626600  119.677000
  H    -71.005900   34.826900  118.004000
  C    -72.705100   35.123300  120.182000
  H    -72.307200   35.067100  121.172000
  H    -72.460300   34.261300  119.677000
  C    -74.248800   35.230700  120.295000
  H    -74.573900   35.701600  119.378000
  H    -74.520200   35.935100  121.049000
  C    -74.828600   33.832300  120.706000
  H    -74.809600   33.041800  119.898000
  H    -75.902200   34.011200  121.058000
  H    -74.303200   33.427200  121.538000
  H    -73.900000   40.792800  123.106000
  H    -70.351000   36.819900  116.604000

 Total Charge           Charge          ....    0
 Multiplicity           Mult            ....    1
 Number of Electrons    NEL             ....  134
 Basis Dimension        Dim             ....  322

ORBITAL ENERGIES
----------------

  NO   OCC          E(Eh)            E(eV)
   0   2.0000     -88.966844     -2420.9109
   1   2.0000     -88.962789     -2420.8006
   2   2.0000     -10.332438      -281.1599
   3   2.0000     -10.329342      -281.0757
   4   2.0000     -10.318955      -280.7930
   5   2.0000     -10.311027      -280.5773
   6   2.0000     -10.303758      -280.3795
   7   2.0000     -10.303150      -280.3630
   8   2.0000     -10.300076      -280.2793
   9   2.0000     -10.297502      -280.2093
  10   2.0000     -10.295162      -280.1456
  11   2.0000     -10.294319      -280.1227
  12   2.0000     -10.287981      -279.9502
  13   2.0000     -10.282757      -279.8080
  14   2.0000     -10.281209      -279.7659
  15   2.0000     -10.280605      -279.7495
  16   2.0000      -8.081855      -219.9185
  17   2.0000      -8.077268      -219.7936
  18   2.0000      -6.040354      -164.3664
  19   2.0000      -6.036026      -164.2486
  20   2.0000      -6.035956      -164.2467
  21   2.0000      -6.032883      -164.1631
  22   2.0000      -6.031919      -164.1369
  23   2.0000      -6.027723      -164.0227
  24   2.0000      -1.007256       -27.4088
  25   2.0000      -0.986201       -26.8359
  26   2.0000      -0.912068       -24.8186
  27   2.0000      -0.906976       -24.6801
  28   2.0000      -0.872454       -23.7407
  29   2.0000      -0.849094       -23.1050
  30   2.0000      -0.843136       -22.9429
  31   2.0000      -0.814898       -22.1745
  32   2.0000      -0.782546       -21.2942
  33   2.0000      -0.771723       -20.9997
  34   2.0000      -0.713642       -19.4192
  35   2.0000      -0.702544       -19.1172
  36   2.0000      -0.693262       -18.8646
  37   2.0000      -0.660085       -17.9618
  38   2.0000      -0.637384       -17.3441
  39   2.0000      -0.621326       -16.9072
  40   2.0000      -0.592491       -16.1225
  41   2.0000      -0.575470       -15.6593
  42   2.0000      -0.569981       -15.5100
  43   2.0000      -0.563709       -15.3393
  44   2.0000      -0.525991       -14.3129
  45   2.0000      -0.518787       -14.1169
  46   2.0000      -0.516492       -14.0545
  47   2.0000      -0.511617       -13.9218
  48   2.0000      -0.507719       -13.8157
  49   2.0000      -0.500628       -13.6228
  50   2.0000      -0.488869       -13.3028
  51   2.0000      -0.483796       -13.1648
  52   2.0000      -0.477652       -12.9976
  53   2.0000      -0.466372       -12.6906
  54   2.0000      -0.458469       -12.4756
  55   2.0000      -0.450234       -12.2515
  56   2.0000      -0.449416       -12.2292
  57   2.0000      -0.431160       -11.7324
  58   2.0000      -0.425763       -11.5856
  59   2.0000      -0.423099       -11.5131
  60   2.0000      -0.422848       -11.5063
  61   2.0000      -0.419712       -11.4209
  62   2.0000      -0.413557       -11.2535
  63   2.0000      -0.350792        -9.5455
  64   2.0000      -0.331612        -9.0236
  65   2.0000      -0.326784        -8.8923
  66   2.0000      -0.293376        -7.9832
  67   0.0000       0.019058         0.5186
  68   0.0000       0.075135         2.0445
  69   0.0000       0.109348         2.9755
  70   0.0000       0.119242         3.2447
  71   0.0000       0.133454         3.6315

MULLIKEN ATOMIC CHARGES
-----------------------
   0 S :    0.096100
   1 C :   -0.085960
   2 C :   -0.118309
   3 C :    0.012406
   4 C :   -0.111168
   5 H :   -0.012704
   6 C :    0.099734
   7 H :    0.042987
   8 H :    0.029665
   9 C :   -0.144468
  10 H :    0.039583
  11 H :    0.047225
  12 C :   -0.039590
  13 H :    0.018889
  14 H :    0.027933
  15 H :    0.038941
  16 S :    0.115102
  17 C :   -0.091035
  18 C :   -0.071687
  19 C :   -0.093429
  20 C :   -0.110563
  21 H :    0.036589
  22 C :    0.113441
  23 H :    0.019237
  24 H :   -0.015626
  25 C :   -0.047744
  26 H :    0.031965
  27 H :    0.028025
  28 C :   -0.081728
  29 H :    0.046932
  30 H :    0.045253
  31 H :    0.026354
  32 H :    0.029380
  33 H :    0.078269
Sum of atomic charges:    0.0000000

LOEWDIN ATOMIC CHARGES
----------------------
   0 S :    0.385286
   1 C :   -0.188258
   2 C :   -0.065105
   3 C :   -0.055152
   4 C :   -0.181506
   5 H :    0.020579
   6 C :   -0.028265
   7 H :    0.038931
   8 H :    0.029136
   9 C :   -0.048440
  10 H :    0.027297
  11 H :    0.027332
  12 C :   -0.069397
  13 H :    0.021971
  14 H :    0.022888
  15 H :    0.031162
  16 S :    0.432638
  17 C :   -0.210384
  18 C :   -0.084290
  19 C :   -0.049644
  20 C :   -0.210193
  21 H :    0.039008
  22 C :   -0.022129
  23 H :    0.024792
  24 H :    0.014775
  25 C :   -0.033096
  26 H :    0.024369
  27 H :    0.021572
  28 C :   -0.069355
  29 H :    0.029849
  30 H :    0.035203
  31 H :    0.018974
  32 H :    0.023386
  33 H :    0.046066

  Mayer bond orders larger than 0.100000
B(  0-S ,  1-C ) :   1.1375 B(  0-S ,  4-C ) :   1.1130 B(  1-C ,  2-C ) :   1.6425
B(  1-C , 32-H ) :   0.9642 B(  2-C ,  3-C ) :   1.2379 B(  2-C ,  6-C ) :   1.0125
B(  3-C ,  4-C ) :   1.5982 B(  3-C ,  5-H ) :   1.0018 B(  4-C , 20-C ) :   1.0537
B(  6-C ,  7-H ) :   0.9262 B(  6-C ,  8-H ) :   0.9532 B(  6-C ,  9-C ) :   1.0645
B(  9-C , 10-H ) :   0.9535 B(  9-C , 11-H ) :   0.9640 B(  9-C , 12-C ) :   1.0766
B( 12-C , 13-H ) :   0.9717 B( 12-C , 14-H ) :   0.9765 B( 12-C , 15-H ) :   0.9741
B( 16-S , 17-C ) :   1.2025 B( 16-S , 20-C ) :   1.1334 B( 17-C , 18-C ) :   1.5368
B( 17-C , 20-C ) :   0.1122 B( 17-C , 33-H ) :   0.9542 B( 18-C , 19-C ) :   1.3322
B( 18-C , 21-H ) :   0.9789 B( 19-C , 20-C ) :   1.5184 B( 19-C , 22-C ) :   1.0397
B( 22-C , 23-H ) :   0.9192 B( 22-C , 24-H ) :   0.9351 B( 22-C , 25-C ) :   1.0641
B( 25-C , 26-H ) :   0.9620 B( 25-C , 27-H ) :   0.9499 B( 25-C , 28-C ) :   1.0719
B( 28-C , 29-H ) :   0.9777 B( 28-C , 30-H ) :   0.9762 B( 28-C , 31-H ) :   0.9740

Dispersion correction           -0.013989883
FINAL SINGLE POINT ENERGY     -1339.868329889265

DIPOLE MOMENT
-------------
                                X             Y             Z
Electronic contribution:     14.49882      16.27435     -22.91508
Nuclear contribution   :    -14.67717     -16.88331      23.46925
                        -----------------------------------------
Total Dipole Moment    :     -0.17835      -0.60895       0.55417
                        -----------------------------------------
Magnitude (a.u.)       :      0.84246
Magnitude (Debye)      :      2.14136

Rotational constants in cm-1:     0.019528     0.008096     0.006250
Rotational constants in MHz :   585.434155   242.707532   187.365096

                             ****ORCA TERMINATED NORMALLY****
TOTAL RUN TIME: 0 days 0 hours 0 minutes 33 seconds 542 msec
