                         Program Version 4.2.1 -  RELEASE  -
|  1> ! wB97X-D3 SP def2-SVP
|  2> %pal
|  3> nprocs 16
|  4> end
|  5>
|  6> * xyz 0 1
|  7> S 	 56.2044 	 11.179 	 53.2189
|  8> C 	 56.4495 	 12.8942 	 52.767
|  9> C 	 55.3126 	 13.4118 	 52.1554
| 10> C 	 54.3091 	 12.4634 	 52.0199
| 11> C 	 54.6072 	 11.1786 	 52.4924
| 12> H 	 53.3685 	 12.654 	 51.6976
| 13> C 	 55.0802 	 14.8243 	 51.7627
| 14> H 	 55.868 	 15.4447 	 52.1212
| 15> H 	 54.1587 	 15.2061 	 52.1533
| 16> C 	 55.0273 	 15.0858 	 50.1968
| 17> H 	 54.3095 	 14.3647 	 49.8772
| 18> H 	 54.6114 	 16.0814 	 50.0116
| 19> C 	 56.3706 	 14.7758 	 49.4993
| 20> H 	 57.115 	 15.425 	 49.9139
| 21> H 	 56.6596 	 13.742 	 49.5913
| 22> H 	 56.1934 	 14.9599 	 48.5062
| 23> S 	 54.6775 	 8.4616 	 51.8796
| 24> C 	 53.1839 	 7.60512 	 51.9078
| 25> C 	 52.0799 	 8.42265 	 52.0672
| 26> C 	 52.4318 	 9.74072 	 52.467
| 27> C 	 53.8101 	 9.96474 	 52.3508
| 28> H 	 51.0879 	 8.01154 	 52.2063
| 29> C 	 51.4397 	 10.7265 	 52.9704
| 30> H 	 52.0888 	 11.576 	 53.4497
| 31> H 	 51.05 	 10.3289 	 53.8743
| 32> C 	 50.3561 	 11.2654 	 52.0746
| 33> H 	 49.5752 	 10.5326 	 51.8789
| 34> H 	 50.8942 	 11.4579 	 51.1081
| 35> C 	 49.6468 	 12.6309 	 52.5613
| 36> H 	 50.3038 	 13.4836 	 52.4322
| 37> H 	 49.0978 	 12.675 	 53.4679
| 38> H 	 48.8832 	 12.8016 	 51.7968
| 39> H 	 57.3885 	 13.3331 	 52.7794
| 40> H 	 53.0746 	 6.54056 	 51.7741
| 41> *
| 42>
| 43>                          ****END OF INPUT****

CARTESIAN COORDINATES (ANGSTROEM)
---------------------------------
  S     56.204400   11.179000   53.218900
  C     56.449500   12.894200   52.767000
  C     55.312600   13.411800   52.155400
  C     54.309100   12.463400   52.019900
  C     54.607200   11.178600   52.492400
  H     53.368500   12.654000   51.697600
  C     55.080200   14.824300   51.762700
  H     55.868000   15.444700   52.121200
  H     54.158700   15.206100   52.153300
  C     55.027300   15.085800   50.196800
  H     54.309500   14.364700   49.877200
  H     54.611400   16.081400   50.011600
  C     56.370600   14.775800   49.499300
  H     57.115000   15.425000   49.913900
  H     56.659600   13.742000   49.591300
  H     56.193400   14.959900   48.506200
  S     54.677500    8.461600   51.879600
  C     53.183900    7.605120   51.907800
  C     52.079900    8.422650   52.067200
  C     52.431800    9.740720   52.467000
  C     53.810100    9.964740   52.350800
  H     51.087900    8.011540   52.206300
  C     51.439700   10.726500   52.970400
  H     52.088800   11.576000   53.449700
  H     51.050000   10.328900   53.874300
  C     50.356100   11.265400   52.074600
  H     49.575200   10.532600   51.878900
  H     50.894200   11.457900   51.108100
  C     49.646800   12.630900   52.561300
  H     50.303800   13.483600   52.432200
  H     49.097800   12.675000   53.467900
  H     48.883200   12.801600   51.796800
  H     57.388500   13.333100   52.779400
  H     53.074600    6.540560   51.774100

 Total Charge           Charge          ....    0
 Multiplicity           Mult            ....    1
 Number of Electrons    NEL             ....  134
 Basis Dimension        Dim             ....  322

ORBITAL ENERGIES
----------------

  NO   OCC          E(Eh)            E(eV)
   0   2.0000     -88.968095     -2420.9449
   1   2.0000     -88.966536     -2420.9025
   2   2.0000     -10.331276      -281.1283
   3   2.0000     -10.329980      -281.0930
   4   2.0000     -10.317433      -280.7516
   5   2.0000     -10.312063      -280.6055
   6   2.0000     -10.303717      -280.3784
   7   2.0000     -10.299044      -280.2512
   8   2.0000     -10.297123      -280.1990
   9   2.0000     -10.291817      -280.0546
  10   2.0000     -10.290566      -280.0205
  11   2.0000     -10.285258      -279.8761
  12   2.0000     -10.285117      -279.8723
  13   2.0000     -10.283733      -279.8346
  14   2.0000     -10.282724      -279.8072
  15   2.0000     -10.266715      -279.3715
  16   2.0000      -8.082625      -219.9394
  17   2.0000      -8.080517      -219.8820
  18   2.0000      -6.041072      -164.3859
  19   2.0000      -6.038976      -164.3289
  20   2.0000      -6.037263      -164.2823
  21   2.0000      -6.035101      -164.2235
  22   2.0000      -6.033352      -164.1759
  23   2.0000      -6.031409      -164.1230
  24   2.0000      -1.003881       -27.3170
  25   2.0000      -0.983044       -26.7500
  26   2.0000      -0.910648       -24.7800
  27   2.0000      -0.908720       -24.7275
  28   2.0000      -0.865910       -23.5626
  29   2.0000      -0.852567       -23.1995
  30   2.0000      -0.846182       -23.0258
  31   2.0000      -0.813066       -22.1247
  32   2.0000      -0.788508       -21.4564
  33   2.0000      -0.776751       -21.1365
  34   2.0000      -0.712636       -19.3918
  35   2.0000      -0.701111       -19.0782
  36   2.0000      -0.697556       -18.9815
  37   2.0000      -0.660149       -17.9636
  38   2.0000      -0.645716       -17.5708
  39   2.0000      -0.626403       -17.0453
  40   2.0000      -0.597271       -16.2526
  41   2.0000      -0.568409       -15.4672
  42   2.0000      -0.563874       -15.3438
  43   2.0000      -0.550142       -14.9701
  44   2.0000      -0.541873       -14.7451
  45   2.0000      -0.527447       -14.3526
  46   2.0000      -0.523838       -14.2544
  47   2.0000      -0.507421       -13.8076
  48   2.0000      -0.505788       -13.7632
  49   2.0000      -0.499328       -13.5874
  50   2.0000      -0.493513       -13.4292
  51   2.0000      -0.479880       -13.0582
  52   2.0000      -0.471412       -12.8278
  53   2.0000      -0.464313       -12.6346
  54   2.0000      -0.462204       -12.5772
  55   2.0000      -0.452279       -12.3071
  56   2.0000      -0.448383       -12.2011
  57   2.0000      -0.436407       -11.8752
  58   2.0000      -0.429300       -11.6818
  59   2.0000      -0.427547       -11.6342
  60   2.0000      -0.424547       -11.5525
  61   2.0000      -0.417185       -11.3522
  62   2.0000      -0.412386       -11.2216
  63   2.0000      -0.344857        -9.3840
  64   2.0000      -0.334245        -9.0953
  65   2.0000      -0.331923        -9.0321
  66   2.0000      -0.284844        -7.7510
  67   0.0000       0.019655         0.5348
  68   0.0000       0.074204         2.0192
  69   0.0000       0.103505         2.8165
  70   0.0000       0.119251         3.2450
  71   0.0000       0.125218         3.4074

MULLIKEN ATOMIC CHARGES
-----------------------
   0 S :    0.098291
   1 C :   -0.110232
   2 C :   -0.062106
   3 C :    0.070740
   4 C :   -0.156466
   5 H :   -0.048347
   6 C :    0.084337
   7 H :    0.004978
   8 H :    0.025487
   9 C :   -0.099787
  10 H :    0.015628
  11 H :    0.033945
  12 C :   -0.002734
  13 H :    0.024131
  14 H :    0.041337
  15 H :    0.018851
  16 S :    0.112987
  17 C :   -0.087289
  18 C :   -0.019370
  19 C :   -0.048786
  20 C :   -0.141175
  21 H :    0.019465
  22 C :    0.040617
  23 H :    0.035114
  24 H :    0.019426
  25 C :   -0.082288
  26 H :    0.036064
  27 H :    0.040149
  28 C :   -0.045072
  29 H :    0.032683
  30 H :    0.039124
  31 H :    0.025437
  32 H :    0.027682
  33 H :    0.057178
Sum of atomic charges:    0.0000000

LOEWDIN ATOMIC CHARGES
----------------------
   0 S :    0.390407
   1 C :   -0.175466
   2 C :   -0.059389
   3 C :   -0.052088
   4 C :   -0.186810
   5 H :    0.009769
   6 C :   -0.025790
   7 H :    0.021387
   8 H :    0.029297
   9 C :   -0.030665
  10 H :    0.015373
  11 H :    0.023381
  12 C :   -0.052234
  13 H :    0.021491
  14 H :    0.029310
  15 H :    0.017126
  16 S :    0.399939
  17 C :   -0.183450
  18 C :   -0.074281
  19 C :   -0.053058
  20 C :   -0.187510
  21 H :    0.031094
  22 C :   -0.050722
  23 H :    0.044152
  24 H :    0.026942
  25 C :   -0.037837
  26 H :    0.023614
  27 H :    0.031806
  28 C :   -0.063942
  29 H :    0.024686
  30 H :    0.021920
  31 H :    0.029972
  32 H :    0.012933
  33 H :    0.028642

  Mayer bond orders larger than 0.100000
B(  0-S ,  1-C ) :   1.1362 B(  0-S ,  4-C ) :   1.1594 B(  1-C ,  2-C ) :   1.5662
B(  1-C ,  4-C ) :   0.1058 B(  1-C , 32-H ) :   0.9762 B(  2-C ,  3-C ) :   1.2710
B(  2-C ,  6-C ) :   1.0377 B(  3-C ,  4-C ) :   1.5245 B(  3-C ,  5-H ) :   1.0091
B(  4-C , 20-C ) :   1.0625 B(  6-C ,  7-H ) :   0.9405 B(  6-C ,  8-H ) :   0.9410
B(  6-C ,  9-C ) :   1.0628 B(  9-C , 10-H ) :   0.9589 B(  9-C , 11-H ) :   0.9603
B(  9-C , 12-C ) :   1.0714 B( 12-C , 13-H ) :   0.9780 B( 12-C , 14-H ) :   0.9733
B( 12-C , 15-H ) :   0.9722 B( 16-S , 17-C ) :   1.1633 B( 16-S , 20-C ) :   1.1245
B( 17-C , 18-C ) :   1.6110 B( 17-C , 33-H ) :   0.9653 B( 18-C , 19-C ) :   1.2485
B( 18-C , 21-H ) :   0.9826 B( 19-C , 20-C ) :   1.5827 B( 19-C , 22-C ) :   1.0551
B( 22-C , 23-H ) :   0.9331 B( 22-C , 24-H ) :   0.9191 B( 22-C , 25-C ) :   1.0488
B( 25-C , 26-H ) :   0.9540 B( 25-C , 27-H ) :   0.9581 B( 25-C , 28-C ) :   1.0768
B( 28-C , 29-H ) :   0.9772 B( 28-C , 30-H ) :   0.9792 B( 28-C , 31-H ) :   0.9745

Dispersion correction           -0.014429030
FINAL SINGLE POINT ENERGY     -1339.866293299405

DIPOLE MOMENT
-------------
                                X             Y             Z
Electronic contribution:     15.09761     -22.58242       8.08105
Nuclear contribution   :    -15.69776      22.93227      -8.23400
                        -----------------------------------------
Total Dipole Moment    :     -0.60014       0.34985      -0.15295
                        -----------------------------------------
Magnitude (a.u.)       :      0.71131
Magnitude (Debye)      :      1.80800

Rotational constants in cm-1:     0.016420     0.009505     0.006949
Rotational constants in MHz :   492.246438   284.965379   208.321877

                             ****ORCA TERMINATED NORMALLY****
TOTAL RUN TIME: 0 days 0 hours 0 minutes 30 seconds 854 msec
