                         Program Version 4.2.1 -  RELEASE  -
|  1> ! wB97X-D3 SP def2-SVP
|  2> %pal
|  3> nprocs 16
|  4> end
|  5>
|  6> * xyz 0 1
|  7> S 	 -35.9668 	 26.8301 	 85.5509
|  8> C 	 -37.1204 	 25.6741 	 84.8215
|  9> C 	 -36.5232 	 24.5851 	 84.2982
| 10> C 	 -35.1208 	 24.5308 	 84.6004
| 11> C 	 -34.6167 	 25.7419 	 85.1408
| 12> H 	 -34.5605 	 23.6995 	 84.1957
| 13> C 	 -37.1419 	 23.5791 	 83.3643
| 14> H 	 -36.4778 	 23.4662 	 82.4475
| 15> H 	 -37.9703 	 24.1312 	 82.9778
| 16> C 	 -37.5475 	 22.2365 	 84.0345
| 17> H 	 -38.0846 	 21.7602 	 83.2827
| 18> H 	 -36.7096 	 21.5271 	 84.1917
| 19> C 	 -38.3126 	 22.4616 	 85.4124
| 20> H 	 -37.8381 	 23.1751 	 86.0933
| 21> H 	 -39.2379 	 22.9189 	 85.1205
| 22> H 	 -38.5463 	 21.5825 	 86.0601
| 23> S 	 -32.477 	 25.1295 	 86.813
| 24> C 	 -31.0009 	 26.0279 	 86.6896
| 25> C 	 -31.1455 	 27.1021 	 85.7622
| 26> C 	 -32.4027 	 27.0867 	 85.0758
| 27> C 	 -33.2781 	 26.1043 	 85.529
| 28> H 	 -30.3192 	 27.8624 	 85.6805
| 29> C 	 -32.6377 	 28.1588 	 84.0228
| 30> H 	 -31.7279 	 28.8006 	 83.8547
| 31> H 	 -33.3756 	 28.7471 	 84.4405
| 32> C 	 -33.2205 	 27.7331 	 82.699
| 33> H 	 -33.575 	 26.6991 	 82.8542
| 34> H 	 -32.4709 	 27.671 	 81.8518
| 35> C 	 -34.5486 	 28.469 	 82.2847
| 36> H 	 -35.0433 	 27.8391 	 81.5425
| 37> H 	 -34.4836 	 29.5363 	 82.1689
| 38> H 	 -35.4312 	 28.3908 	 83.0979
| 39> H 	 -38.1311 	 25.9919 	 84.6147
| 40> H 	 -30.1253 	 25.8313 	 87.2878
| 41> *
| 42>
| 43>                          ****END OF INPUT****

CARTESIAN COORDINATES (ANGSTROEM)
---------------------------------
  S    -35.966800   26.830100   85.550900
  C    -37.120400   25.674100   84.821500
  C    -36.523200   24.585100   84.298200
  C    -35.120800   24.530800   84.600400
  C    -34.616700   25.741900   85.140800
  H    -34.560500   23.699500   84.195700
  C    -37.141900   23.579100   83.364300
  H    -36.477800   23.466200   82.447500
  H    -37.970300   24.131200   82.977800
  C    -37.547500   22.236500   84.034500
  H    -38.084600   21.760200   83.282700
  H    -36.709600   21.527100   84.191700
  C    -38.312600   22.461600   85.412400
  H    -37.838100   23.175100   86.093300
  H    -39.237900   22.918900   85.120500
  H    -38.546300   21.582500   86.060100
  S    -32.477000   25.129500   86.813000
  C    -31.000900   26.027900   86.689600
  C    -31.145500   27.102100   85.762200
  C    -32.402700   27.086700   85.075800
  C    -33.278100   26.104300   85.529000
  H    -30.319200   27.862400   85.680500
  C    -32.637700   28.158800   84.022800
  H    -31.727900   28.800600   83.854700
  H    -33.375600   28.747100   84.440500
  C    -33.220500   27.733100   82.699000
  H    -33.575000   26.699100   82.854200
  H    -32.470900   27.671000   81.851800
  C    -34.548600   28.469000   82.284700
  H    -35.043300   27.839100   81.542500
  H    -34.483600   29.536300   82.168900
  H    -35.431200   28.390800   83.097900
  H    -38.131100   25.991900   84.614700
  H    -30.125300   25.831300   87.287800

 Total Charge           Charge          ....    0
 Multiplicity           Mult            ....    1
 Number of Electrons    NEL             ....  134
 Basis Dimension        Dim             ....  322

ORBITAL ENERGIES
----------------

  NO   OCC          E(Eh)            E(eV)
   0   2.0000     -88.967283     -2420.9229
   1   2.0000     -88.966263     -2420.8951
   2   2.0000     -10.338199      -281.3167
   3   2.0000     -10.327843      -281.0349
   4   2.0000     -10.321896      -280.8731
   5   2.0000     -10.313758      -280.6516
   6   2.0000     -10.307686      -280.4864
   7   2.0000     -10.301059      -280.3061
   8   2.0000     -10.299739      -280.2701
   9   2.0000     -10.299478      -280.2630
  10   2.0000     -10.297344      -280.2050
  11   2.0000     -10.293580      -280.1025
  12   2.0000     -10.286156      -279.9005
  13   2.0000     -10.284667      -279.8600
  14   2.0000     -10.282493      -279.8009
  15   2.0000     -10.281229      -279.7665
  16   2.0000      -8.080698      -219.8870
  17   2.0000      -8.080353      -219.8776
  18   2.0000      -6.039381      -164.3399
  19   2.0000      -6.038831      -164.3250
  20   2.0000      -6.035372      -164.2308
  21   2.0000      -6.034832      -164.2161
  22   2.0000      -6.031355      -164.1215
  23   2.0000      -6.031291      -164.1198
  24   2.0000      -0.999664       -27.2022
  25   2.0000      -0.978443       -26.6248
  26   2.0000      -0.910168       -24.7669
  27   2.0000      -0.906059       -24.6551
  28   2.0000      -0.863857       -23.5067
  29   2.0000      -0.843465       -22.9518
  30   2.0000      -0.840705       -22.8767
  31   2.0000      -0.805045       -21.9064
  32   2.0000      -0.782963       -21.3055
  33   2.0000      -0.772360       -21.0170
  34   2.0000      -0.715364       -19.4660
  35   2.0000      -0.703665       -19.1477
  36   2.0000      -0.686111       -18.6700
  37   2.0000      -0.662554       -18.0290
  38   2.0000      -0.636463       -17.3190
  39   2.0000      -0.618906       -16.8413
  40   2.0000      -0.593469       -16.1491
  41   2.0000      -0.561576       -15.2813
  42   2.0000      -0.555857       -15.1256
  43   2.0000      -0.548265       -14.9190
  44   2.0000      -0.538254       -14.6466
  45   2.0000      -0.522679       -14.2228
  46   2.0000      -0.518046       -14.0968
  47   2.0000      -0.511477       -13.9180
  48   2.0000      -0.501525       -13.6472
  49   2.0000      -0.494401       -13.4533
  50   2.0000      -0.487091       -13.2544
  51   2.0000      -0.479574       -13.0499
  52   2.0000      -0.465638       -12.6707
  53   2.0000      -0.463081       -12.6011
  54   2.0000      -0.455253       -12.3881
  55   2.0000      -0.451499       -12.2859
  56   2.0000      -0.445456       -12.1215
  57   2.0000      -0.432561       -11.7706
  58   2.0000      -0.427174       -11.6240
  59   2.0000      -0.421290       -11.4639
  60   2.0000      -0.417966       -11.3734
  61   2.0000      -0.412322       -11.2199
  62   2.0000      -0.400729       -10.9044
  63   2.0000      -0.333446        -9.0735
  64   2.0000      -0.332021        -9.0347
  65   2.0000      -0.326624        -8.8879
  66   2.0000      -0.299295        -8.1442
  67   0.0000       0.026463         0.7201
  68   0.0000       0.059636         1.6228
  69   0.0000       0.100621         2.7380
  70   0.0000       0.110689         3.0120
  71   0.0000       0.130281         3.5451

MULLIKEN ATOMIC CHARGES
-----------------------
   0 S :    0.096536
   1 C :   -0.121576
   2 C :   -0.119854
   3 C :    0.062197
   4 C :   -0.175792
   5 H :    0.014753
   6 C :    0.038350
   7 H :    0.049461
   8 H :    0.011750
   9 C :   -0.026207
  10 H :    0.019086
  11 H :    0.033744
  12 C :   -0.078639
  13 H :    0.055821
  14 H :    0.021377
  15 H :    0.046089
  16 S :    0.119779
  17 C :   -0.103183
  18 C :   -0.073063
  19 C :   -0.026783
  20 C :   -0.166992
  21 H :    0.042614
  22 C :    0.147566
  23 H :    0.031954
  24 H :    0.005963
  25 C :   -0.107187
  26 H :    0.038304
  27 H :    0.044887
  28 C :   -0.096737
  29 H :    0.036708
  30 H :    0.043679
  31 H :    0.028168
  32 H :    0.044629
  33 H :    0.062598
Sum of atomic charges:    0.0000000

LOEWDIN ATOMIC CHARGES
----------------------
   0 S :    0.385480
   1 C :   -0.183242
   2 C :   -0.067720
   3 C :   -0.051424
   4 C :   -0.183919
   5 H :    0.031585
   6 C :   -0.031342
   7 H :    0.042941
   8 H :    0.026088
   9 C :   -0.032531
  10 H :    0.017014
  11 H :    0.026085
  12 C :   -0.071148
  13 H :    0.030406
  14 H :    0.020497
  15 H :    0.032155
  16 S :    0.406017
  17 C :   -0.188954
  18 C :   -0.081861
  19 C :   -0.045179
  20 C :   -0.207232
  21 H :    0.040143
  22 C :   -0.032507
  23 H :    0.037819
  24 H :    0.025889
  25 C :   -0.050261
  26 H :    0.030632
  27 H :    0.030157
  28 C :   -0.082264
  29 H :    0.028447
  30 H :    0.017470
  31 H :    0.028905
  32 H :    0.022956
  33 H :    0.028900

  Mayer bond orders larger than 0.100000
B(  0-S ,  1-C ) :   1.1198 B(  0-S ,  4-C ) :   1.1423 B(  1-C ,  2-C ) :   1.6463
B(  1-C , 32-H ) :   0.9599 B(  2-C ,  3-C ) :   1.2293 B(  2-C ,  6-C ) :   1.0147
B(  3-C ,  4-C ) :   1.5669 B(  3-C ,  5-H ) :   0.9918 B(  4-C , 20-C ) :   1.0541
B(  6-C ,  7-H ) :   0.9452 B(  6-C ,  8-H ) :   0.9395 B(  6-C ,  9-C ) :   1.0510
B(  9-C , 10-H ) :   0.9605 B(  9-C , 11-H ) :   0.9596 B(  9-C , 12-C ) :   1.0532
B( 12-C , 13-H ) :   0.9729 B( 12-C , 14-H ) :   0.9788 B( 12-C , 15-H ) :   0.9784
B( 16-S , 17-C ) :   1.1822 B( 16-S , 20-C ) :   1.1268 B( 17-C , 18-C ) :   1.5735
B( 17-C , 20-C ) :   0.1071 B( 17-C , 33-H ) :   0.9689 B( 18-C , 19-C ) :   1.2653
B( 18-C , 21-H ) :   0.9817 B( 19-C , 20-C ) :   1.5691 B( 19-C , 22-C ) :   1.0391
B( 22-C , 23-H ) :   0.9349 B( 22-C , 24-H ) :   0.9218 B( 22-C , 25-C ) :   1.0462
B( 25-C , 26-H ) :   0.9619 B( 25-C , 27-H ) :   0.9553 B( 25-C , 28-C ) :   1.0709
B( 28-C , 29-H ) :   0.9736 B( 28-C , 30-H ) :   0.9781 B( 28-C , 31-H ) :   0.9639

Dispersion correction           -0.015801603
FINAL SINGLE POINT ENERGY     -1339.853189531623

DIPOLE MOMENT
-------------
                                X             Y             Z
Electronic contribution:     11.24349       3.42998      15.55720
Nuclear contribution   :    -11.31899      -3.55741     -15.97901
                        -----------------------------------------
Total Dipole Moment    :     -0.07549      -0.12743      -0.42181
                        -----------------------------------------
Magnitude (a.u.)       :      0.44706
Magnitude (Debye)      :      1.13634

Rotational constants in cm-1:     0.020297     0.009034     0.007247
Rotational constants in MHz :   608.480774   270.844929   217.274304

                             ****ORCA TERMINATED NORMALLY****
TOTAL RUN TIME: 0 days 0 hours 0 minutes 31 seconds 181 msec
