                         Program Version 4.2.1 -  RELEASE  -
|  1> ! wB97X-D3 SP def2-SVP
|  2> %pal
|  3> nprocs 16
|  4> end
|  5>
|  6> * xyz 0 1
|  7> S 	 32.0595 	 3.47008 	 65.1757
|  8> C 	 32.5436 	 4.80116 	 66.1978
|  9> C 	 31.4697 	 5.678 	 66.5395
| 10> C 	 30.2841 	 5.16862 	 65.8855
| 11> C 	 30.4042 	 3.97673 	 65.1567
| 12> H 	 29.3016 	 5.63484 	 65.9798
| 13> C 	 31.4393 	 6.76067 	 67.6591
| 14> H 	 32.5324 	 6.7394 	 68.0205
| 15> H 	 30.867 	 6.45636 	 68.4949
| 16> C 	 31.0302 	 8.15633 	 67.2066
| 17> H 	 29.9464 	 8.09085 	 67.1602
| 18> H 	 31.2868 	 8.94809 	 67.8944
| 19> C 	 31.5868 	 8.69388 	 65.8647
| 20> H 	 32.6678 	 8.76679 	 65.7626
| 21> H 	 31.2568 	 8.07666 	 65.0175
| 22> H 	 31.0948 	 9.66805 	 65.7339
| 23> S 	 29.5378 	 3.41402 	 62.6022
| 24> C 	 28.0164 	 2.62479 	 62.2784
| 25> C 	 27.3758 	 2.32534 	 63.4773
| 26> C 	 28.1451 	 2.67281 	 64.6033
| 27> C 	 29.3245 	 3.33193 	 64.3531
| 28> H 	 26.3268 	 1.96366 	 63.4788
| 29> C 	 27.7005 	 2.41779 	 66.0174
| 30> H 	 28.552 	 2.46952 	 66.6926
| 31> H 	 27.1715 	 1.4456 	 66.1058
| 32> C 	 26.6904 	 3.49019 	 66.5142
| 33> H 	 25.8855 	 3.4888 	 65.8102
| 34> H 	 27.1459 	 4.40437 	 66.3686
| 35> C 	 26.2304 	 3.41055 	 67.8846
| 36> H 	 25.6929 	 2.42596 	 67.9805
| 37> H 	 25.6167 	 4.32797 	 68.003
| 38> H 	 27.0698 	 3.42038 	 68.62
| 39> H 	 33.5368 	 4.93837 	 66.5096
| 40> H 	 27.5755 	 2.286 	 61.3425
| 41> *
| 42>
| 43>                          ****END OF INPUT****

CARTESIAN COORDINATES (ANGSTROEM)
---------------------------------
  S     32.059500    3.470080   65.175700
  C     32.543600    4.801160   66.197800
  C     31.469700    5.678000   66.539500
  C     30.284100    5.168620   65.885500
  C     30.404200    3.976730   65.156700
  H     29.301600    5.634840   65.979800
  C     31.439300    6.760670   67.659100
  H     32.532400    6.739400   68.020500
  H     30.867000    6.456360   68.494900
  C     31.030200    8.156330   67.206600
  H     29.946400    8.090850   67.160200
  H     31.286800    8.948090   67.894400
  C     31.586800    8.693880   65.864700
  H     32.667800    8.766790   65.762600
  H     31.256800    8.076660   65.017500
  H     31.094800    9.668050   65.733900
  S     29.537800    3.414020   62.602200
  C     28.016400    2.624790   62.278400
  C     27.375800    2.325340   63.477300
  C     28.145100    2.672810   64.603300
  C     29.324500    3.331930   64.353100
  H     26.326800    1.963660   63.478800
  C     27.700500    2.417790   66.017400
  H     28.552000    2.469520   66.692600
  H     27.171500    1.445600   66.105800
  C     26.690400    3.490190   66.514200
  H     25.885500    3.488800   65.810200
  H     27.145900    4.404370   66.368600
  C     26.230400    3.410550   67.884600
  H     25.692900    2.425960   67.980500
  H     25.616700    4.327970   68.003000
  H     27.069800    3.420380   68.620000
  H     33.536800    4.938370   66.509600
  H     27.575500    2.286000   61.342500

 Total Charge           Charge          ....    0
 Multiplicity           Mult            ....    1
 Number of Electrons    NEL             ....  134
 Basis Dimension        Dim             ....  322

ORBITAL ENERGIES
----------------

  NO   OCC          E(Eh)            E(eV)
   0   2.0000     -88.972614     -2421.0679
   1   2.0000     -88.963523     -2420.8205
   2   2.0000     -10.334493      -281.2159
   3   2.0000     -10.328380      -281.0495
   4   2.0000     -10.320549      -280.8364
   5   2.0000     -10.319620      -280.8111
   6   2.0000     -10.312887      -280.6279
   7   2.0000     -10.302756      -280.3523
   8   2.0000     -10.300119      -280.2805
   9   2.0000     -10.299266      -280.2573
  10   2.0000     -10.294805      -280.1359
  11   2.0000     -10.288203      -279.9562
  12   2.0000     -10.286301      -279.9045
  13   2.0000     -10.280697      -279.7520
  14   2.0000     -10.277486      -279.6646
  15   2.0000     -10.267987      -279.4061
  16   2.0000      -8.087240      -220.0650
  17   2.0000      -8.078093      -219.8161
  18   2.0000      -6.045663      -164.5108
  19   2.0000      -6.041613      -164.4006
  20   2.0000      -6.038240      -164.3089
  21   2.0000      -6.036606      -164.2644
  22   2.0000      -6.032475      -164.1520
  23   2.0000      -6.028980      -164.0569
  24   2.0000      -1.005013       -27.3478
  25   2.0000      -0.984111       -26.7790
  26   2.0000      -0.916113       -24.9287
  27   2.0000      -0.909560       -24.7504
  28   2.0000      -0.865543       -23.5526
  29   2.0000      -0.855918       -23.2907
  30   2.0000      -0.844581       -22.9822
  31   2.0000      -0.813212       -22.1286
  32   2.0000      -0.785180       -21.3658
  33   2.0000      -0.770411       -20.9639
  34   2.0000      -0.703086       -19.1320
  35   2.0000      -0.695550       -18.9269
  36   2.0000      -0.690658       -18.7938
  37   2.0000      -0.661302       -17.9950
  38   2.0000      -0.642686       -17.4884
  39   2.0000      -0.617835       -16.8121
  40   2.0000      -0.593042       -16.1375
  41   2.0000      -0.573307       -15.6005
  42   2.0000      -0.566586       -15.4176
  43   2.0000      -0.556719       -15.1491
  44   2.0000      -0.547033       -14.8855
  45   2.0000      -0.528391       -14.3783
  46   2.0000      -0.518858       -14.1189
  47   2.0000      -0.511850       -13.9282
  48   2.0000      -0.508681       -13.8419
  49   2.0000      -0.496725       -13.5166
  50   2.0000      -0.486091       -13.2272
  51   2.0000      -0.477793       -13.0014
  52   2.0000      -0.475397       -12.9362
  53   2.0000      -0.465605       -12.6697
  54   2.0000      -0.457813       -12.4577
  55   2.0000      -0.445858       -12.1324
  56   2.0000      -0.441525       -12.0145
  57   2.0000      -0.440423       -11.9845
  58   2.0000      -0.426220       -11.5980
  59   2.0000      -0.422706       -11.5024
  60   2.0000      -0.421792       -11.4775
  61   2.0000      -0.413787       -11.2597
  62   2.0000      -0.410241       -11.1632
  63   2.0000      -0.338778        -9.2186
  64   2.0000      -0.329403        -8.9635
  65   2.0000      -0.327490        -8.9115
  66   2.0000      -0.304591        -8.2883
  67   0.0000       0.036412         0.9908
  68   0.0000       0.058441         1.5903
  69   0.0000       0.111008         3.0207
  70   0.0000       0.123884         3.3711
  71   0.0000       0.129955         3.5363

MULLIKEN ATOMIC CHARGES
-----------------------
   0 S :    0.136979
   1 C :   -0.113286
   2 C :   -0.099806
   3 C :    0.030902
   4 C :   -0.166583
   5 H :    0.018898
   6 C :    0.079821
   7 H :    0.023014
   8 H :    0.041156
   9 C :   -0.091538
  10 H :    0.028644
  11 H :    0.035616
  12 C :   -0.057563
  13 H :    0.037822
  14 H :    0.038377
  15 H :    0.034473
  16 S :    0.103848
  17 C :   -0.084354
  18 C :   -0.067502
  19 C :   -0.021831
  20 C :   -0.171212
  21 H :    0.035806
  22 C :    0.062374
  23 H :    0.023608
  24 H :    0.021450
  25 C :   -0.050609
  26 H :    0.005442
  27 H :   -0.015965
  28 C :   -0.025292
  29 H :    0.034684
  30 H :    0.045103
  31 H :    0.032919
  32 H :    0.035514
  33 H :    0.059090
Sum of atomic charges:    0.0000000

LOEWDIN ATOMIC CHARGES
----------------------
   0 S :    0.430432
   1 C :   -0.187936
   2 C :   -0.061499
   3 C :   -0.059477
   4 C :   -0.218049
   5 H :    0.027790
   6 C :   -0.027792
   7 H :    0.035546
   8 H :    0.029056
   9 C :   -0.046509
  10 H :    0.024269
  11 H :    0.026844
  12 C :   -0.067014
  13 H :    0.024706
  14 H :    0.026724
  15 H :    0.030213
  16 S :    0.406406
  17 C :   -0.186693
  18 C :   -0.082433
  19 C :   -0.058943
  20 C :   -0.196768
  21 H :    0.039065
  22 C :   -0.026443
  23 H :    0.027581
  24 H :    0.029120
  25 C :   -0.044485
  26 H :    0.017992
  27 H :    0.008273
  28 C :   -0.064945
  29 H :    0.030025
  30 H :    0.036422
  31 H :    0.027363
  32 H :    0.015900
  33 H :    0.035258

  Mayer bond orders larger than 0.100000
B(  0-S ,  1-C ) :   1.1753 B(  0-S ,  4-C ) :   1.1556 B(  1-C ,  2-C ) :   1.5759
B(  1-C ,  4-C ) :   0.1016 B(  1-C , 32-H ) :   0.9683 B(  2-C ,  3-C ) :   1.2567
B(  2-C ,  6-C ) :   1.0105 B(  3-C ,  4-C ) :   1.5734 B(  3-C ,  5-H ) :   0.9858
B(  4-C , 20-C ) :   1.0033 B(  6-C ,  7-H ) :   0.9385 B(  6-C ,  8-H ) :   0.9540
B(  6-C ,  9-C ) :   1.0589 B(  9-C , 10-H ) :   0.9552 B(  9-C , 11-H ) :   0.9594
B(  9-C , 12-C ) :   1.0852 B( 12-C , 13-H ) :   0.9778 B( 12-C , 14-H ) :   0.9683
B( 12-C , 15-H ) :   0.9735 B( 16-S , 17-C ) :   1.1710 B( 16-S , 20-C ) :   1.1344
B( 17-C , 18-C ) :   1.5946 B( 17-C , 20-C ) :   0.1039 B( 17-C , 33-H ) :   0.9644
B( 18-C , 19-C ) :   1.2552 B( 18-C , 21-H ) :   0.9830 B( 19-C , 20-C ) :   1.6124
B( 19-C , 22-C ) :   1.0605 B( 22-C , 23-H ) :   0.9287 B( 22-C , 24-H ) :   0.9324
B( 22-C , 25-C ) :   1.0671 B( 25-C , 26-H ) :   0.9465 B( 25-C , 27-H ) :   0.9437
B( 25-C , 28-C ) :   1.1000 B( 28-C , 29-H ) :   0.9699 B( 28-C , 30-H ) :   0.9687
B( 28-C , 31-H ) :   0.9691

Dispersion correction           -0.014428305
FINAL SINGLE POINT ENERGY     -1339.874830153149

DIPOLE MOMENT
-------------
                                X             Y             Z
Electronic contribution:     11.20963     -14.82636     -18.37629
Nuclear contribution   :    -11.56338      15.13485      18.81155
                        -----------------------------------------
Total Dipole Moment    :     -0.35375       0.30848       0.43526
                        -----------------------------------------
Magnitude (a.u.)       :      0.64012
Magnitude (Debye)      :      1.62706

Rotational constants in cm-1:     0.017098     0.008960     0.007233
Rotational constants in MHz :   512.598552   268.613242   216.850432

                             ****ORCA TERMINATED NORMALLY****
TOTAL RUN TIME: 0 days 0 hours 0 minutes 30 seconds 202 msec
