                         Program Version 4.2.1 -  RELEASE  -
|  1> ! wB97X-D3 SP def2-SVP
|  2> %pal
|  3> nprocs 16
|  4> end
|  5>
|  6> * xyz 0 1
|  7> S 	 5.1383 	 -13.2108 	 57.6862
|  8> C 	 4.7282 	 -12.2564 	 59.0421
|  9> C 	 3.59131 	 -12.6276 	 59.6964
| 10> C 	 2.97965 	 -13.7838 	 59.0435
| 11> C 	 3.63327 	 -14.1426 	 57.8696
| 12> H 	 2.06299 	 -14.2489 	 59.3312
| 13> C 	 3.19408 	 -12.1635 	 61.0865
| 14> H 	 2.16032 	 -11.8152 	 61.0742
| 15> H 	 3.83396 	 -11.3081 	 61.4774
| 16> C 	 3.09616 	 -13.1634 	 62.2057
| 17> H 	 2.74561 	 -12.5721 	 63.0691
| 18> H 	 2.253 	 -13.8145 	 62.0327
| 19> C 	 4.40699 	 -14.0205 	 62.611
| 20> H 	 5.37058 	 -13.5957 	 62.4141
| 21> H 	 4.32647 	 -14.3902 	 63.6046
| 22> H 	 4.2925 	 -14.9212 	 62.0125
| 23> S 	 1.60644 	 -14.9658 	 56.2604
| 24> C 	 1.91479 	 -16.2026 	 55.039
| 25> C 	 3.10334 	 -16.8562 	 55.2621
| 26> C 	 3.87587 	 -16.267 	 56.2857
| 27> C 	 3.23644 	 -15.203 	 56.8827
| 28> H 	 3.29179 	 -17.8079 	 54.815
| 29> C 	 5.23023 	 -16.8859 	 56.7042
| 30> H 	 4.96095 	 -17.9668 	 56.7447
| 31> H 	 5.4798 	 -16.5509 	 57.6921
| 32> C 	 6.29581 	 -16.8242 	 55.6021
| 33> H 	 6.71259 	 -15.8019 	 55.5027
| 34> H 	 5.94571 	 -17.2182 	 54.6369
| 35> C 	 7.58784 	 -17.6459 	 55.916
| 36> H 	 7.46629 	 -18.7104 	 55.9106
| 37> H 	 7.85214 	 -17.3581 	 56.8911
| 38> H 	 8.4146 	 -17.4379 	 55.2524
| 39> H 	 5.44165 	 -11.5575 	 59.4758
| 40> H 	 1.15636 	 -16.6082 	 54.3805
| 41> *
| 42>
| 43>                          ****END OF INPUT****

CARTESIAN COORDINATES (ANGSTROEM)
---------------------------------
  S      5.138300  -13.210800   57.686200
  C      4.728200  -12.256400   59.042100
  C      3.591310  -12.627600   59.696400
  C      2.979650  -13.783800   59.043500
  C      3.633270  -14.142600   57.869600
  H      2.062990  -14.248900   59.331200
  C      3.194080  -12.163500   61.086500
  H      2.160320  -11.815200   61.074200
  H      3.833960  -11.308100   61.477400
  C      3.096160  -13.163400   62.205700
  H      2.745610  -12.572100   63.069100
  H      2.253000  -13.814500   62.032700
  C      4.406990  -14.020500   62.611000
  H      5.370580  -13.595700   62.414100
  H      4.326470  -14.390200   63.604600
  H      4.292500  -14.921200   62.012500
  S      1.606440  -14.965800   56.260400
  C      1.914790  -16.202600   55.039000
  C      3.103340  -16.856200   55.262100
  C      3.875870  -16.267000   56.285700
  C      3.236440  -15.203000   56.882700
  H      3.291790  -17.807900   54.815000
  C      5.230230  -16.885900   56.704200
  H      4.960950  -17.966800   56.744700
  H      5.479800  -16.550900   57.692100
  C      6.295810  -16.824200   55.602100
  H      6.712590  -15.801900   55.502700
  H      5.945710  -17.218200   54.636900
  C      7.587840  -17.645900   55.916000
  H      7.466290  -18.710400   55.910600
  H      7.852140  -17.358100   56.891100
  H      8.414600  -17.437900   55.252400
  H      5.441650  -11.557500   59.475800
  H      1.156360  -16.608200   54.380500

 Total Charge           Charge          ....    0
 Multiplicity           Mult            ....    1
 Number of Electrons    NEL             ....  134
 Basis Dimension        Dim             ....  322

ORBITAL ENERGIES
----------------

  NO   OCC          E(Eh)            E(eV)
   0   2.0000     -88.966580     -2420.9037
   1   2.0000     -88.965136     -2420.8644
   2   2.0000     -10.335875      -281.2535
   3   2.0000     -10.328685      -281.0578
   4   2.0000     -10.317602      -280.7562
   5   2.0000     -10.309316      -280.5308
   6   2.0000     -10.303357      -280.3686
   7   2.0000     -10.301338      -280.3137
   8   2.0000     -10.297739      -280.2157
   9   2.0000     -10.296959      -280.1945
  10   2.0000     -10.295867      -280.1648
  11   2.0000     -10.291235      -280.0387
  12   2.0000     -10.290673      -280.0234
  13   2.0000     -10.290219      -280.0111
  14   2.0000     -10.274673      -279.5881
  15   2.0000     -10.269362      -279.4436
  16   2.0000      -8.081533      -219.9097
  17   2.0000      -8.079590      -219.8568
  18   2.0000      -6.039986      -164.3564
  19   2.0000      -6.038122      -164.3056
  20   2.0000      -6.036133      -164.2515
  21   2.0000      -6.034246      -164.2002
  22   2.0000      -6.032232      -164.1454
  23   2.0000      -6.030229      -164.0909
  24   2.0000      -1.004200       -27.3257
  25   2.0000      -0.985313       -26.8117
  26   2.0000      -0.907598       -24.6970
  27   2.0000      -0.905744       -24.6466
  28   2.0000      -0.866857       -23.5884
  29   2.0000      -0.850070       -23.1316
  30   2.0000      -0.841786       -22.9062
  31   2.0000      -0.813674       -22.1412
  32   2.0000      -0.787191       -21.4205
  33   2.0000      -0.775616       -21.1056
  34   2.0000      -0.704654       -19.1746
  35   2.0000      -0.696202       -18.9446
  36   2.0000      -0.686975       -18.6935
  37   2.0000      -0.666403       -18.1337
  38   2.0000      -0.640881       -17.4393
  39   2.0000      -0.615823       -16.7574
  40   2.0000      -0.594673       -16.1819
  41   2.0000      -0.566810       -15.4237
  42   2.0000      -0.564298       -15.3553
  43   2.0000      -0.548533       -14.9263
  44   2.0000      -0.536818       -14.6076
  45   2.0000      -0.527866       -14.3640
  46   2.0000      -0.517377       -14.0785
  47   2.0000      -0.511845       -13.9280
  48   2.0000      -0.504083       -13.7168
  49   2.0000      -0.493104       -13.4181
  50   2.0000      -0.484739       -13.1904
  51   2.0000      -0.479072       -13.0362
  52   2.0000      -0.471102       -12.8193
  53   2.0000      -0.467075       -12.7098
  54   2.0000      -0.457930       -12.4609
  55   2.0000      -0.453561       -12.3420
  56   2.0000      -0.448423       -12.2022
  57   2.0000      -0.438803       -11.9404
  58   2.0000      -0.433120       -11.7858
  59   2.0000      -0.426598       -11.6083
  60   2.0000      -0.421447       -11.4681
  61   2.0000      -0.410179       -11.1615
  62   2.0000      -0.408811       -11.1243
  63   2.0000      -0.347463        -9.4549
  64   2.0000      -0.331702        -9.0261
  65   2.0000      -0.327288        -8.9060
  66   2.0000      -0.295984        -8.0541
  67   0.0000       0.033757         0.9186
  68   0.0000       0.070559         1.9200
  69   0.0000       0.095469         2.5978
  70   0.0000       0.119171         3.2428
  71   0.0000       0.133814         3.6413

MULLIKEN ATOMIC CHARGES
-----------------------
   0 S :    0.117344
   1 C :   -0.126068
   2 C :   -0.051900
   3 C :    0.023506
   4 C :   -0.146249
   5 H :    0.007904
   6 C :    0.049926
   7 H :    0.027450
   8 H :    0.033803
   9 C :   -0.106401
  10 H :    0.029173
  11 H :    0.020724
  12 C :   -0.029065
  13 H :    0.036167
  14 H :    0.026859
  15 H :    0.029989
  16 S :    0.101419
  17 C :   -0.088103
  18 C :   -0.031680
  19 C :   -0.028598
  20 C :   -0.176181
  21 H :    0.016850
  22 C :    0.078146
  23 H :    0.028596
  24 H :    0.026699
  25 C :   -0.090552
  26 H :    0.038241
  27 H :    0.035945
  28 C :   -0.030078
  29 H :    0.021682
  30 H :    0.013000
  31 H :    0.033440
  32 H :    0.050404
  33 H :    0.057610
Sum of atomic charges:   -0.0000000

LOEWDIN ATOMIC CHARGES
----------------------
   0 S :    0.407805
   1 C :   -0.206248
   2 C :   -0.068412
   3 C :   -0.059723
   4 C :   -0.184384
   5 H :    0.025548
   6 C :   -0.038304
   7 H :    0.035909
   8 H :    0.035730
   9 C :   -0.041309
  10 H :    0.026748
  11 H :    0.018480
  12 C :   -0.066217
  13 H :    0.022720
  14 H :    0.022734
  15 H :    0.029680
  16 S :    0.398599
  17 C :   -0.175989
  18 C :   -0.067955
  19 C :   -0.058507
  20 C :   -0.195245
  21 H :    0.029807
  22 C :   -0.026619
  23 H :    0.038834
  24 H :    0.025763
  25 C :   -0.038341
  26 H :    0.028207
  27 H :    0.024848
  28 C :   -0.061397
  29 H :    0.017516
  30 H :    0.016780
  31 H :    0.026230
  32 H :    0.028469
  33 H :    0.028241

  Mayer bond orders larger than 0.100000
B(  0-S ,  1-C ) :   1.1426 B(  0-S ,  4-C ) :   1.1392 B(  1-C ,  2-C ) :   1.6420
B(  1-C , 32-H ) :   0.9586 B(  2-C ,  3-C ) :   1.2076 B(  2-C ,  6-C ) :   1.0323
B(  3-C ,  4-C ) :   1.5997 B(  3-C ,  5-H ) :   0.9941 B(  4-C , 20-C ) :   1.0058
B(  6-C ,  7-H ) :   0.9249 B(  6-C ,  8-H ) :   0.9502 B(  6-C ,  9-C ) :   1.0909
B(  9-C , 10-H ) :   0.9567 B(  9-C , 11-H ) :   0.9552 B(  9-C , 12-C ) :   1.0483
B( 12-C , 13-H ) :   0.9831 B( 12-C , 14-H ) :   0.9774 B( 12-C , 15-H ) :   0.9767
B( 16-S , 17-C ) :   1.1497 B( 16-S , 20-C ) :   1.1377 B( 17-C , 18-C ) :   1.6249
B( 17-C , 33-H ) :   0.9637 B( 18-C , 19-C ) :   1.2352 B( 18-C , 21-H ) :   0.9853
B( 19-C , 20-C ) :   1.6222 B( 19-C , 22-C ) :   1.0269 B( 22-C , 23-H ) :   0.9371
B( 22-C , 24-H ) :   0.9402 B( 22-C , 25-C ) :   1.0598 B( 25-C , 26-H ) :   0.9560
B( 25-C , 27-H ) :   0.9589 B( 25-C , 28-C ) :   1.0774 B( 28-C , 29-H ) :   0.9770
B( 28-C , 30-H ) :   0.9743 B( 28-C , 31-H ) :   0.9768

Dispersion correction           -0.014174532
FINAL SINGLE POINT ENERGY     -1339.874884609498

DIPOLE MOMENT
-------------
                                X             Y             Z
Electronic contribution:    -12.20269       8.35377     -13.84255
Nuclear contribution   :     12.27810      -8.76788      14.19907
                        -----------------------------------------
Total Dipole Moment    :      0.07541      -0.41411       0.35652
                        -----------------------------------------
Magnitude (a.u.)       :      0.55161
Magnitude (Debye)      :      1.40209

Rotational constants in cm-1:     0.018661     0.008199     0.006747
Rotational constants in MHz :   559.452644   245.812903   202.262432

                             ****ORCA TERMINATED NORMALLY****
TOTAL RUN TIME: 0 days 0 hours 0 minutes 29 seconds 243 msec
