                         Program Version 4.2.1 -  RELEASE  -
|  1> ! wB97X-D3 SP def2-SVP
|  2> %pal
|  3> nprocs 16
|  4> end
|  5>
|  6> * xyz 0 1
|  7> S 	 50.8754 	 19.8246 	 91.3325
|  8> C 	 49.8731 	 20.5611 	 90.1285
|  9> C 	 50.5818 	 21.0562 	 89.0851
| 10> C 	 51.9836 	 21.0007 	 89.3216
| 11> C 	 52.3319 	 20.3505 	 90.4802
| 12> H 	 52.7009 	 21.3216 	 88.6674
| 13> C 	 49.9732 	 21.5221 	 87.8145
| 14> H 	 50.7128 	 22.2076 	 87.2397
| 15> H 	 49.2087 	 22.2681 	 87.9896
| 16> C 	 49.4612 	 20.4698 	 86.9013
| 17> H 	 50.2545 	 19.724 	 86.7116
| 18> H 	 48.5919 	 19.9256 	 87.3316
| 19> C 	 49.1382 	 21.0576 	 85.4924
| 20> H 	 49.9367 	 21.7798 	 85.2419
| 21> H 	 48.9757 	 20.3736 	 84.6816
| 22> H 	 48.1935 	 21.6423 	 85.5934
| 23> S 	 55.0611 	 20.8985 	 90.087
| 24> C 	 56.243 	 20.1646 	 91.0797
| 25> C 	 55.6177 	 19.3067 	 91.9595
| 26> C 	 54.241 	 19.2074 	 91.9047
| 27> C 	 53.6958 	 20.0625 	 90.9291
| 28> H 	 56.2277 	 18.6771 	 92.621
| 29> C 	 53.6092 	 18.2752 	 92.9863
| 30> H 	 53.0585 	 17.42 	 92.5237
| 31> H 	 52.8359 	 18.876 	 93.4656
| 32> C 	 54.4838 	 17.7376 	 94.1506
| 33> H 	 54.982 	 18.6041 	 94.6021
| 34> H 	 55.2339 	 16.9856 	 93.743
| 35> C 	 53.6035 	 17.1834 	 95.3098
| 36> H 	 53.2421 	 16.1999 	 95.0411
| 37> H 	 52.6983 	 17.8581 	 95.4317
| 38> H 	 54.1505 	 16.8709 	 96.2283
| 39> H 	 48.7609 	 20.617 	 90.2379
| 40> H 	 57.2831 	 20.2022 	 91.0792
| 41> *
| 42>
| 43>                          ****END OF INPUT****

CARTESIAN COORDINATES (ANGSTROEM)
---------------------------------
  S     50.875400   19.824600   91.332500
  C     49.873100   20.561100   90.128500
  C     50.581800   21.056200   89.085100
  C     51.983600   21.000700   89.321600
  C     52.331900   20.350500   90.480200
  H     52.700900   21.321600   88.667400
  C     49.973200   21.522100   87.814500
  H     50.712800   22.207600   87.239700
  H     49.208700   22.268100   87.989600
  C     49.461200   20.469800   86.901300
  H     50.254500   19.724000   86.711600
  H     48.591900   19.925600   87.331600
  C     49.138200   21.057600   85.492400
  H     49.936700   21.779800   85.241900
  H     48.975700   20.373600   84.681600
  H     48.193500   21.642300   85.593400
  S     55.061100   20.898500   90.087000
  C     56.243000   20.164600   91.079700
  C     55.617700   19.306700   91.959500
  C     54.241000   19.207400   91.904700
  C     53.695800   20.062500   90.929100
  H     56.227700   18.677100   92.621000
  C     53.609200   18.275200   92.986300
  H     53.058500   17.420000   92.523700
  H     52.835900   18.876000   93.465600
  C     54.483800   17.737600   94.150600
  H     54.982000   18.604100   94.602100
  H     55.233900   16.985600   93.743000
  C     53.603500   17.183400   95.309800
  H     53.242100   16.199900   95.041100
  H     52.698300   17.858100   95.431700
  H     54.150500   16.870900   96.228300
  H     48.760900   20.617000   90.237900
  H     57.283100   20.202200   91.079200

 Total Charge           Charge          ....    0
 Multiplicity           Mult            ....    1
 Number of Electrons    NEL             ....  134
 Basis Dimension        Dim             ....  322

ORBITAL ENERGIES
----------------

  NO   OCC          E(Eh)            E(eV)
   0   2.0000     -88.969681     -2420.9881
   1   2.0000     -88.967703     -2420.9343
   2   2.0000     -10.337005      -281.2842
   3   2.0000     -10.332616      -281.1648
   4   2.0000     -10.312301      -280.6120
   5   2.0000     -10.310075      -280.5514
   6   2.0000     -10.305214      -280.4191
   7   2.0000     -10.300645      -280.2948
   8   2.0000     -10.299192      -280.2553
   9   2.0000     -10.295684      -280.1598
  10   2.0000     -10.292363      -280.0694
  11   2.0000     -10.288492      -279.9641
  12   2.0000     -10.288377      -279.9610
  13   2.0000     -10.285027      -279.8698
  14   2.0000     -10.283837      -279.8374
  15   2.0000     -10.281196      -279.7656
  16   2.0000      -8.083626      -219.9666
  17   2.0000      -8.082141      -219.9262
  18   2.0000      -6.042314      -164.4197
  19   2.0000      -6.040783      -164.3781
  20   2.0000      -6.038153      -164.3065
  21   2.0000      -6.036693      -164.2668
  22   2.0000      -6.034369      -164.2035
  23   2.0000      -6.032801      -164.1609
  24   2.0000      -1.008124       -27.4324
  25   2.0000      -0.989199       -26.9175
  26   2.0000      -0.916878       -24.9495
  27   2.0000      -0.906520       -24.6677
  28   2.0000      -0.870702       -23.6930
  29   2.0000      -0.854776       -23.2596
  30   2.0000      -0.846925       -23.0460
  31   2.0000      -0.811585       -22.0843
  32   2.0000      -0.780970       -21.2513
  33   2.0000      -0.770688       -20.9715
  34   2.0000      -0.707192       -19.2437
  35   2.0000      -0.702506       -19.1162
  36   2.0000      -0.697314       -18.9749
  37   2.0000      -0.660671       -17.9778
  38   2.0000      -0.641234       -17.4489
  39   2.0000      -0.615169       -16.7396
  40   2.0000      -0.601881       -16.3780
  41   2.0000      -0.574760       -15.6400
  42   2.0000      -0.571017       -15.5382
  43   2.0000      -0.560316       -15.2470
  44   2.0000      -0.527301       -14.3486
  45   2.0000      -0.523359       -14.2413
  46   2.0000      -0.519812       -14.1448
  47   2.0000      -0.508210       -13.8291
  48   2.0000      -0.505612       -13.7584
  49   2.0000      -0.501439       -13.6448
  50   2.0000      -0.487316       -13.2606
  51   2.0000      -0.473691       -12.8898
  52   2.0000      -0.469703       -12.7813
  53   2.0000      -0.462196       -12.5770
  54   2.0000      -0.456564       -12.4237
  55   2.0000      -0.454683       -12.3726
  56   2.0000      -0.449253       -12.2248
  57   2.0000      -0.443989       -12.0816
  58   2.0000      -0.431092       -11.7306
  59   2.0000      -0.423612       -11.5271
  60   2.0000      -0.416565       -11.3353
  61   2.0000      -0.412703       -11.2302
  62   2.0000      -0.409481       -11.1425
  63   2.0000      -0.365094        -9.9347
  64   2.0000      -0.336648        -9.1607
  65   2.0000      -0.332423        -9.0457
  66   2.0000      -0.277915        -7.5625
  67   0.0000       0.018136         0.4935
  68   0.0000       0.088059         2.3962
  69   0.0000       0.110788         3.0147
  70   0.0000       0.114904         3.1267
  71   0.0000       0.134737         3.6664

MULLIKEN ATOMIC CHARGES
-----------------------
   0 S :    0.101939
   1 C :   -0.146429
   2 C :   -0.028392
   3 C :    0.006279
   4 C :   -0.092575
   5 H :   -0.023691
   6 C :    0.021929
   7 H :    0.021107
   8 H :    0.021164
   9 C :   -0.062956
  10 H :    0.033578
  11 H :    0.037637
  12 C :   -0.059303
  13 H :    0.031063
  14 H :    0.039377
  15 H :    0.028657
  16 S :    0.095056
  17 C :   -0.025056
  18 C :   -0.085087
  19 C :   -0.019522
  20 C :   -0.148196
  21 H :    0.020628
  22 C :    0.019935
  23 H :    0.046820
  24 H :    0.029225
  25 C :   -0.119426
  26 H :    0.044764
  27 H :    0.057050
  28 C :   -0.047605
  29 H :    0.017405
  30 H :    0.050455
  31 H :    0.043862
  32 H :    0.063632
  33 H :    0.026677
Sum of atomic charges:   -0.0000000

LOEWDIN ATOMIC CHARGES
----------------------
   0 S :    0.405149
   1 C :   -0.203557
   2 C :   -0.064537
   3 C :   -0.060045
   4 C :   -0.175887
   5 H :    0.010728
   6 C :   -0.043067
   7 H :    0.035778
   8 H :    0.029089
   9 C :   -0.042737
  10 H :    0.027345
  11 H :    0.027038
  12 C :   -0.067088
  13 H :    0.026303
  14 H :    0.022691
  15 H :    0.026753
  16 S :    0.411722
  17 C :   -0.192126
  18 C :   -0.080235
  19 C :   -0.061714
  20 C :   -0.175164
  21 H :    0.031563
  22 C :   -0.037376
  23 H :    0.035967
  24 H :    0.025936
  25 C :   -0.050164
  26 H :    0.027161
  27 H :    0.031100
  28 C :   -0.073354
  29 H :    0.020808
  30 H :    0.036557
  31 H :    0.034232
  32 H :    0.037840
  33 H :    0.023289

  Mayer bond orders larger than 0.100000
B(  0-S ,  1-C ) :   1.1316 B(  0-S ,  4-C ) :   1.1349 B(  1-C ,  2-C ) :   1.6129
B(  1-C , 32-H ) :   0.9617 B(  2-C ,  3-C ) :   1.2556 B(  2-C ,  6-C ) :   1.0257
B(  3-C ,  4-C ) :   1.5452 B(  3-C ,  5-H ) :   1.0069 B(  4-C , 20-C ) :   1.1074
B(  6-C ,  7-H ) :   0.9402 B(  6-C ,  8-H ) :   0.9319 B(  6-C ,  9-C ) :   1.0643
B(  9-C , 10-H ) :   0.9553 B(  9-C , 11-H ) :   0.9528 B(  9-C , 12-C ) :   1.0713
B( 12-C , 13-H ) :   0.9747 B( 12-C , 14-H ) :   0.9776 B( 12-C , 15-H ) :   0.9757
B( 16-S , 17-C ) :   1.1577 B( 16-S , 20-C ) :   1.1434 B( 17-C , 18-C ) :   1.5776
B( 17-C , 20-C ) :   0.1036 B( 17-C , 33-H ) :   0.9667 B( 18-C , 19-C ) :   1.3234
B( 18-C , 21-H ) :   0.9693 B( 19-C , 20-C ) :   1.5388 B( 19-C , 22-C ) :   0.9974
B( 22-C , 23-H ) :   0.9321 B( 22-C , 24-H ) :   0.9367 B( 22-C , 25-C ) :   1.0874
B( 25-C , 26-H ) :   0.9509 B( 25-C , 27-H ) :   0.9453 B( 25-C , 28-C ) :   1.0713
B( 28-C , 29-H ) :   0.9723 B( 28-C , 30-H ) :   0.9719 B( 28-C , 31-H ) :   0.9720

Dispersion correction           -0.013076285
FINAL SINGLE POINT ENERGY     -1339.873203659753

DIPOLE MOMENT
-------------
                                X             Y             Z
Electronic contribution:      8.76860       7.03060       1.86074
Nuclear contribution   :     -8.83535      -7.28064      -1.85034
                        -----------------------------------------
Total Dipole Moment    :     -0.06675      -0.25004       0.01040
                        -----------------------------------------
Magnitude (a.u.)       :      0.25901
Magnitude (Debye)      :      0.65834

Rotational constants in cm-1:     0.023790     0.006809     0.005538
Rotational constants in MHz :   713.192940   204.117839   166.039551

                             ****ORCA TERMINATED NORMALLY****
TOTAL RUN TIME: 0 days 0 hours 0 minutes 28 seconds 641 msec
