                         Program Version 4.2.1 -  RELEASE  -
|  1> ! wB97X-D3 SP def2-SVP
|  2> %pal
|  3> nprocs 16
|  4> end
|  5>
|  6> * xyz 0 1
|  7> S 	 -4.03486 	 -14.4534 	 81.538
|  8> C 	 -4.02854 	 -14.9137 	 83.1791
|  9> C 	 -5.33003 	 -15.0582 	 83.6347
| 10> C 	 -6.32845 	 -14.7589 	 82.6378
| 11> C 	 -5.7484 	 -14.3486 	 81.4742
| 12> H 	 -7.40102 	 -14.6411 	 82.8318
| 13> C 	 -5.69461 	 -15.4232 	 85.0794
| 14> H 	 -6.03463 	 -14.3816 	 85.3775
| 15> H 	 -4.7166 	 -15.6014 	 85.525
| 16> C 	 -6.88803 	 -16.4172 	 85.2892
| 17> H 	 -7.74619 	 -15.8781 	 84.9964
| 18> H 	 -6.82479 	 -17.4202 	 84.7709
| 19> C 	 -7.03745 	 -16.6958 	 86.7694
| 20> H 	 -6.11403 	 -17.1592 	 87.1516
| 21> H 	 -7.18909 	 -15.7824 	 87.2726
| 22> H 	 -7.9746 	 -17.2315 	 87.1256
| 23> S 	 -5.57873 	 -12.737 	 79.1601
| 24> C 	 -7.05385 	 -12.3959 	 78.345
| 25> C 	 -8.14627 	 -13.1625 	 78.7807
| 26> C 	 -7.78326 	 -13.9803 	 79.914
| 27> C 	 -6.48418 	 -13.8536 	 80.3183
| 28> H 	 -9.10849 	 -13.1899 	 78.2838
| 29> C 	 -8.66535 	 -15.1103 	 80.2397
| 30> H 	 -8.0876 	 -15.8598 	 80.7436
| 31> H 	 -8.8975 	 -15.62 	 79.3169
| 32> C 	 -10.0023 	 -14.8284 	 80.9553
| 33> H 	 -10.658 	 -14.2052 	 80.3688
| 34> H 	 -9.83659 	 -14.2643 	 81.8397
| 35> C 	 -10.7081 	 -16.1303 	 81.2929
| 36> H 	 -10.8229 	 -16.6701 	 80.3632
| 37> H 	 -11.7263 	 -16.0941 	 81.6927
| 38> H 	 -10.1632 	 -16.7353 	 82.0033
| 39> H 	 -3.1552 	 -14.9429 	 83.8516
| 40> H 	 -6.98523 	 -11.8006 	 77.4018
| 41> *
| 42>
| 43>                          ****END OF INPUT****

CARTESIAN COORDINATES (ANGSTROEM)
---------------------------------
  S     -4.034860  -14.453400   81.538000
  C     -4.028540  -14.913700   83.179100
  C     -5.330030  -15.058200   83.634700
  C     -6.328450  -14.758900   82.637800
  C     -5.748400  -14.348600   81.474200
  H     -7.401020  -14.641100   82.831800
  C     -5.694610  -15.423200   85.079400
  H     -6.034630  -14.381600   85.377500
  H     -4.716600  -15.601400   85.525000
  C     -6.888030  -16.417200   85.289200
  H     -7.746190  -15.878100   84.996400
  H     -6.824790  -17.420200   84.770900
  C     -7.037450  -16.695800   86.769400
  H     -6.114030  -17.159200   87.151600
  H     -7.189090  -15.782400   87.272600
  H     -7.974600  -17.231500   87.125600
  S     -5.578730  -12.737000   79.160100
  C     -7.053850  -12.395900   78.345000
  C     -8.146270  -13.162500   78.780700
  C     -7.783260  -13.980300   79.914000
  C     -6.484180  -13.853600   80.318300
  H     -9.108490  -13.189900   78.283800
  C     -8.665350  -15.110300   80.239700
  H     -8.087600  -15.859800   80.743600
  H     -8.897500  -15.620000   79.316900
  C    -10.002300  -14.828400   80.955300
  H    -10.658000  -14.205200   80.368800
  H     -9.836590  -14.264300   81.839700
  C    -10.708100  -16.130300   81.292900
  H    -10.822900  -16.670100   80.363200
  H    -11.726300  -16.094100   81.692700
  H    -10.163200  -16.735300   82.003300
  H     -3.155200  -14.942900   83.851600
  H     -6.985230  -11.800600   77.401800

 Total Charge           Charge          ....    0
 Multiplicity           Mult            ....    1
 Number of Electrons    NEL             ....  134
 Basis Dimension        Dim             ....  322

ORBITAL ENERGIES
----------------

  NO   OCC          E(Eh)            E(eV)
   0   2.0000     -88.965103     -2420.8635
   1   2.0000     -88.963428     -2420.8179
   2   2.0000     -10.331480      -281.1339
   3   2.0000     -10.327029      -281.0127
   4   2.0000     -10.323816      -280.9253
   5   2.0000     -10.309653      -280.5399
   6   2.0000     -10.301021      -280.3050
   7   2.0000     -10.300994      -280.3043
   8   2.0000     -10.300752      -280.2977
   9   2.0000     -10.298084      -280.2251
  10   2.0000     -10.294103      -280.1168
  11   2.0000     -10.291489      -280.0457
  12   2.0000     -10.285946      -279.8948
  13   2.0000     -10.284623      -279.8588
  14   2.0000     -10.278446      -279.6907
  15   2.0000     -10.276586      -279.6401
  16   2.0000      -8.081145      -219.8991
  17   2.0000      -8.077815      -219.8085
  18   2.0000      -6.039682      -164.3481
  19   2.0000      -6.036355      -164.2576
  20   2.0000      -6.035504      -164.2344
  21   2.0000      -6.032505      -164.1528
  22   2.0000      -6.031782      -164.1331
  23   2.0000      -6.028448      -164.0424
  24   2.0000      -1.010927       -27.5087
  25   2.0000      -0.984161       -26.7804
  26   2.0000      -0.915617       -24.9152
  27   2.0000      -0.911251       -24.7964
  28   2.0000      -0.872659       -23.7462
  29   2.0000      -0.859064       -23.3763
  30   2.0000      -0.849208       -23.1081
  31   2.0000      -0.812086       -22.0980
  32   2.0000      -0.782365       -21.2892
  33   2.0000      -0.767422       -20.8826
  34   2.0000      -0.714072       -19.4309
  35   2.0000      -0.704959       -19.1829
  36   2.0000      -0.690542       -18.7906
  37   2.0000      -0.664075       -18.0704
  38   2.0000      -0.637108       -17.3366
  39   2.0000      -0.619677       -16.8623
  40   2.0000      -0.599293       -16.3076
  41   2.0000      -0.574532       -15.6338
  42   2.0000      -0.569061       -15.4849
  43   2.0000      -0.559768       -15.2321
  44   2.0000      -0.528680       -14.3861
  45   2.0000      -0.527860       -14.3638
  46   2.0000      -0.515264       -14.0210
  47   2.0000      -0.510532       -13.8923
  48   2.0000      -0.506121       -13.7723
  49   2.0000      -0.501490       -13.6462
  50   2.0000      -0.491486       -13.3740
  51   2.0000      -0.480556       -13.0766
  52   2.0000      -0.468090       -12.7374
  53   2.0000      -0.467112       -12.7108
  54   2.0000      -0.460374       -12.5274
  55   2.0000      -0.456348       -12.4179
  56   2.0000      -0.444082       -12.0841
  57   2.0000      -0.436027       -11.8649
  58   2.0000      -0.434207       -11.8154
  59   2.0000      -0.428709       -11.6658
  60   2.0000      -0.423894       -11.5347
  61   2.0000      -0.419052       -11.4030
  62   2.0000      -0.413830       -11.2609
  63   2.0000      -0.361532        -9.8378
  64   2.0000      -0.329771        -8.9735
  65   2.0000      -0.325421        -8.8552
  66   2.0000      -0.282629        -7.6907
  67   0.0000       0.021736         0.5915
  68   0.0000       0.078463         2.1351
  69   0.0000       0.104251         2.8368
  70   0.0000       0.113727         3.0947
  71   0.0000       0.132708         3.6112

MULLIKEN ATOMIC CHARGES
-----------------------
   0 S :    0.112211
   1 C :   -0.130129
   2 C :   -0.106870
   3 C :   -0.028352
   4 C :   -0.088720
   5 H :    0.021505
   6 C :    0.028698
   7 H :    0.050840
   8 H :    0.016905
   9 C :   -0.043693
  10 H :    0.019445
  11 H :    0.054891
  12 C :   -0.050862
  13 H :    0.037302
  14 H :    0.007606
  15 H :    0.040844
  16 S :    0.081274
  17 C :   -0.100811
  18 C :   -0.021899
  19 C :   -0.022267
  20 C :   -0.126769
  21 H :    0.024429
  22 C :    0.001372
  23 H :    0.017606
  24 H :    0.025619
  25 C :   -0.028924
  26 H :    0.020035
  27 H :    0.015588
  28 C :   -0.045110
  29 H :    0.019981
  30 H :    0.032832
  31 H :    0.028643
  32 H :    0.057595
  33 H :    0.079184
Sum of atomic charges:   -0.0000000

LOEWDIN ATOMIC CHARGES
----------------------
   0 S :    0.429579
   1 C :   -0.231536
   2 C :   -0.059930
   3 C :   -0.076260
   4 C :   -0.194485
   5 H :    0.034805
   6 C :   -0.033619
   7 H :    0.046358
   8 H :    0.026099
   9 C :   -0.037913
  10 H :    0.019214
  11 H :    0.034707
  12 C :   -0.071670
  13 H :    0.027028
  14 H :    0.016071
  15 H :    0.033254
  16 S :    0.367991
  17 C :   -0.188616
  18 C :   -0.069945
  19 C :   -0.058521
  20 C :   -0.160531
  21 H :    0.032857
  22 C :   -0.031257
  23 H :    0.027872
  24 H :    0.034095
  25 C :   -0.033631
  26 H :    0.021484
  27 H :    0.015463
  28 C :   -0.065236
  29 H :    0.023601
  30 H :    0.027378
  31 H :    0.023040
  32 H :    0.036249
  33 H :    0.036005

  Mayer bond orders larger than 0.100000
B(  0-S ,  1-C ) :   1.1252 B(  0-S ,  4-C ) :   1.1594 B(  1-C ,  2-C ) :   1.6206
B(  1-C , 32-H ) :   0.9631 B(  2-C ,  3-C ) :   1.2382 B(  2-C ,  6-C ) :   1.0073
B(  3-C ,  4-C ) :   1.5722 B(  3-C ,  5-H ) :   0.9883 B(  4-C , 20-C ) :   1.0711
B(  6-C ,  7-H ) :   0.9357 B(  6-C ,  8-H ) :   0.9500 B(  6-C ,  9-C ) :   1.0519
B(  9-C , 10-H ) :   0.9423 B(  9-C , 11-H ) :   0.9632 B(  9-C , 12-C ) :   1.0925
B( 12-C , 13-H ) :   0.9762 B( 12-C , 14-H ) :   0.9688 B( 12-C , 15-H ) :   0.9724
B( 16-S , 17-C ) :   1.1709 B( 16-S , 20-C ) :   1.0908 B( 17-C , 18-C ) :   1.5996
B( 17-C , 33-H ) :   0.9591 B( 18-C , 19-C ) :   1.2130 B( 18-C , 21-H ) :   0.9917
B( 19-C , 20-C ) :   1.6276 B( 19-C , 22-C ) :   1.0440 B( 22-C , 23-H ) :   0.9476
B( 22-C , 24-H ) :   0.9357 B( 22-C , 25-C ) :   1.0441 B( 25-C , 26-H ) :   0.9530
B( 25-C , 27-H ) :   0.9548 B( 25-C , 28-C ) :   1.0845 B( 28-C , 29-H ) :   0.9722
B( 28-C , 30-H ) :   0.9736 B( 28-C , 31-H ) :   0.9759

Dispersion correction           -0.013797073
FINAL SINGLE POINT ENERGY     -1339.873009134150

DIPOLE MOMENT
-------------
                                X             Y             Z
Electronic contribution:     22.61799      14.80989     -19.96595
Nuclear contribution   :    -23.22723     -15.00321      20.26679
                        -----------------------------------------
Total Dipole Moment    :     -0.60924      -0.19333       0.30083
                        -----------------------------------------
Magnitude (a.u.)       :      0.70644
Magnitude (Debye)      :      1.79562

Rotational constants in cm-1:     0.016707     0.009538     0.006295
Rotational constants in MHz :   500.852781   285.955220   188.714500

                             ****ORCA TERMINATED NORMALLY****
TOTAL RUN TIME: 0 days 0 hours 0 minutes 31 seconds 680 msec
