                         Program Version 4.2.1 -  RELEASE  -
|  1> ! wB97X-D3 SP def2-SVP
|  2> %pal
|  3> nprocs 16
|  4> end
|  5>
|  6> * xyz 0 1
|  7> S 	 53.1076 	 6.82024 	 94.4973
|  8> C 	 53.7004 	 8.47522 	 94.2068
|  9> C 	 52.6957 	 9.3527 	 93.8088
| 10> C 	 51.4669 	 8.58405 	 93.6211
| 11> C 	 51.5803 	 7.18839 	 93.7557
| 12> H 	 50.4391 	 8.92451 	 93.4792
| 13> C 	 52.744 	 10.8869 	 93.6628
| 14> H 	 52.6675 	 11.1798 	 92.6026
| 15> H 	 53.7996 	 11.1668 	 93.9518
| 16> C 	 51.8532 	 11.7214 	 94.5206
| 17> H 	 52.3068 	 12.7259 	 94.3749
| 18> H 	 50.818 	 11.6842 	 94.0661
| 19> C 	 51.847 	 11.2477 	 95.9923
| 20> H 	 52.8274 	 10.9221 	 96.4607
| 21> H 	 51.5634 	 12.0635 	 96.6756
| 22> H 	 51.1327 	 10.4567 	 96.2436
| 23> S 	 50.7398 	 4.80806 	 92.5394
| 24> C 	 49.2658 	 4.0344 	 93.0555
| 25> C 	 48.643 	 4.831 	 94.0306
| 26> C 	 49.3896 	 6.04594 	 94.3401
| 27> C 	 50.524 	 6.19725 	 93.6468
| 28> H 	 47.7324 	 4.43166 	 94.4037
| 29> C 	 48.763 	 7.04853 	 95.2718
| 30> H 	 47.7658 	 7.30568 	 94.9573
| 31> H 	 49.33 	 7.97772 	 95.2549
| 32> C 	 48.847 	 6.59432 	 96.7663
| 33> H 	 48.2885 	 5.68038 	 96.9264
| 34> H 	 48.4832 	 7.44289 	 97.2665
| 35> C 	 50.3408 	 6.41819 	 97.2815
| 36> H 	 50.7699 	 5.46341 	 97.0248
| 37> H 	 50.311 	 6.29134 	 98.3451
| 38> H 	 50.9875 	 7.27956 	 97.0544
| 39> H 	 54.8189 	 8.66121 	 94.2821
| 40> H 	 48.8152 	 3.14239 	 92.538
| 41> *
| 42>
| 43>                          ****END OF INPUT****

CARTESIAN COORDINATES (ANGSTROEM)
---------------------------------
  S     53.107600    6.820240   94.497300
  C     53.700400    8.475220   94.206800
  C     52.695700    9.352700   93.808800
  C     51.466900    8.584050   93.621100
  C     51.580300    7.188390   93.755700
  H     50.439100    8.924510   93.479200
  C     52.744000   10.886900   93.662800
  H     52.667500   11.179800   92.602600
  H     53.799600   11.166800   93.951800
  C     51.853200   11.721400   94.520600
  H     52.306800   12.725900   94.374900
  H     50.818000   11.684200   94.066100
  C     51.847000   11.247700   95.992300
  H     52.827400   10.922100   96.460700
  H     51.563400   12.063500   96.675600
  H     51.132700   10.456700   96.243600
  S     50.739800    4.808060   92.539400
  C     49.265800    4.034400   93.055500
  C     48.643000    4.831000   94.030600
  C     49.389600    6.045940   94.340100
  C     50.524000    6.197250   93.646800
  H     47.732400    4.431660   94.403700
  C     48.763000    7.048530   95.271800
  H     47.765800    7.305680   94.957300
  H     49.330000    7.977720   95.254900
  C     48.847000    6.594320   96.766300
  H     48.288500    5.680380   96.926400
  H     48.483200    7.442890   97.266500
  C     50.340800    6.418190   97.281500
  H     50.769900    5.463410   97.024800
  H     50.311000    6.291340   98.345100
  H     50.987500    7.279560   97.054400
  H     54.818900    8.661210   94.282100
  H     48.815200    3.142390   92.538000

 Total Charge           Charge          ....    0
 Multiplicity           Mult            ....    1
 Number of Electrons    NEL             ....  134
 Basis Dimension        Dim             ....  322

ORBITAL ENERGIES
----------------

  NO   OCC          E(Eh)            E(eV)
   0   2.0000     -88.964319     -2420.8422
   1   2.0000     -88.959535     -2420.7120
   2   2.0000     -10.328735      -281.0592
   3   2.0000     -10.325035      -280.9585
   4   2.0000     -10.324113      -280.9334
   5   2.0000     -10.323117      -280.9063
   6   2.0000     -10.310976      -280.5759
   7   2.0000     -10.302303      -280.3399
   8   2.0000     -10.298804      -280.2447
   9   2.0000     -10.298678      -280.2413
  10   2.0000     -10.298628      -280.2399
  11   2.0000     -10.295880      -280.1651
  12   2.0000     -10.288223      -279.9568
  13   2.0000     -10.285431      -279.8808
  14   2.0000     -10.285268      -279.8764
  15   2.0000     -10.272669      -279.5335
  16   2.0000      -8.078692      -219.8324
  17   2.0000      -8.074209      -219.7104
  18   2.0000      -6.037262      -164.2822
  19   2.0000      -6.033313      -164.1748
  20   2.0000      -6.032865      -164.1626
  21   2.0000      -6.029337      -164.0666
  22   2.0000      -6.028587      -164.0462
  23   2.0000      -6.024933      -163.9468
  24   2.0000      -1.002449       -27.2780
  25   2.0000      -0.978076       -26.6148
  26   2.0000      -0.914687       -24.8899
  27   2.0000      -0.903944       -24.5976
  28   2.0000      -0.866804       -23.5869
  29   2.0000      -0.842225       -22.9181
  30   2.0000      -0.835011       -22.7218
  31   2.0000      -0.807743       -21.9798
  32   2.0000      -0.785598       -21.3772
  33   2.0000      -0.776954       -21.1420
  34   2.0000      -0.707412       -19.2497
  35   2.0000      -0.695728       -18.9317
  36   2.0000      -0.687755       -18.7148
  37   2.0000      -0.658057       -17.9066
  38   2.0000      -0.637653       -17.3514
  39   2.0000      -0.616098       -16.7649
  40   2.0000      -0.596691       -16.2368
  41   2.0000      -0.564237       -15.3537
  42   2.0000      -0.558371       -15.1940
  43   2.0000      -0.553252       -15.0547
  44   2.0000      -0.540084       -14.6964
  45   2.0000      -0.533757       -14.5243
  46   2.0000      -0.518375       -14.1057
  47   2.0000      -0.503924       -13.7125
  48   2.0000      -0.499245       -13.5852
  49   2.0000      -0.497671       -13.5423
  50   2.0000      -0.485916       -13.2224
  51   2.0000      -0.472731       -12.8637
  52   2.0000      -0.467385       -12.7182
  53   2.0000      -0.458528       -12.4772
  54   2.0000      -0.457460       -12.4481
  55   2.0000      -0.446500       -12.1499
  56   2.0000      -0.438001       -11.9186
  57   2.0000      -0.433562       -11.7978
  58   2.0000      -0.430185       -11.7059
  59   2.0000      -0.427065       -11.6210
  60   2.0000      -0.421825       -11.4784
  61   2.0000      -0.413958       -11.2644
  62   2.0000      -0.407380       -11.0854
  63   2.0000      -0.336909        -9.1678
  64   2.0000      -0.328736        -8.9454
  65   2.0000      -0.322842        -8.7850
  66   2.0000      -0.302664        -8.2359
  67   0.0000       0.034119         0.9284
  68   0.0000       0.063056         1.7158
  69   0.0000       0.103429         2.8144
  70   0.0000       0.116844         3.1795
  71   0.0000       0.130649         3.5551

MULLIKEN ATOMIC CHARGES
-----------------------
   0 S :    0.110542
   1 C :   -0.166076
   2 C :   -0.060577
   3 C :    0.013443
   4 C :   -0.156807
   5 H :    0.019101
   6 C :    0.044259
   7 H :    0.046069
   8 H :    0.017749
   9 C :   -0.068668
  10 H :    0.045827
  11 H :    0.045658
  12 C :   -0.074937
  13 H :    0.038284
  14 H :    0.031128
  15 H :    0.039917
  16 S :    0.092884
  17 C :   -0.119263
  18 C :   -0.037051
  19 C :    0.002948
  20 C :   -0.184310
  21 H :    0.010526
  22 C :    0.073397
  23 H :    0.032762
  24 H :   -0.000134
  25 C :   -0.057670
  26 H :    0.035498
  27 H :    0.021356
  28 C :   -0.057999
  29 H :    0.032085
  30 H :    0.019817
  31 H :    0.046262
  32 H :    0.077749
  33 H :    0.086233
Sum of atomic charges:    0.0000000

LOEWDIN ATOMIC CHARGES
----------------------
   0 S :    0.402516
   1 C :   -0.195349
   2 C :   -0.063887
   3 C :   -0.064147
   4 C :   -0.198504
   5 H :    0.028191
   6 C :   -0.038391
   7 H :    0.034772
   8 H :    0.031049
   9 C :   -0.046122
  10 H :    0.036238
  11 H :    0.031564
  12 C :   -0.079966
  13 H :    0.033695
  14 H :    0.027661
  15 H :    0.028005
  16 S :    0.384894
  17 C :   -0.188427
  18 C :   -0.073170
  19 C :   -0.049767
  20 C :   -0.197758
  21 H :    0.025344
  22 C :   -0.029214
  23 H :    0.029329
  24 H :    0.024715
  25 C :   -0.024290
  26 H :    0.021169
  27 H :    0.017724
  28 C :   -0.067400
  29 H :    0.024023
  30 H :    0.023386
  31 H :    0.027404
  32 H :    0.039794
  33 H :    0.044921

  Mayer bond orders larger than 0.100000
B(  0-S ,  1-C ) :   1.1421 B(  0-S ,  4-C ) :   1.1534 B(  1-C ,  2-C ) :   1.6131
B(  1-C , 32-H ) :   0.9572 B(  2-C ,  3-C ) :   1.2123 B(  2-C ,  6-C ) :   1.0127
B(  3-C ,  4-C ) :   1.5934 B(  3-C ,  5-H ) :   0.9894 B(  4-C , 20-C ) :   1.0279
B(  6-C ,  7-H ) :   0.9413 B(  6-C ,  8-H ) :   0.9429 B(  6-C ,  9-C ) :   1.0783
B(  9-C , 10-H ) :   0.9565 B(  9-C , 11-H ) :   0.9504 B(  9-C , 12-C ) :   1.0673
B( 12-C , 13-H ) :   0.9770 B( 12-C , 14-H ) :   0.9734 B( 12-C , 15-H ) :   0.9706
B( 16-S , 17-C ) :   1.1615 B( 16-S , 20-C ) :   1.1105 B( 17-C , 18-C ) :   1.6203
B( 17-C , 33-H ) :   0.9595 B( 18-C , 19-C ) :   1.1838 B( 18-C , 21-H ) :   1.0004
B( 19-C , 20-C ) :   1.6489 B( 19-C , 22-C ) :   1.0461 B( 22-C , 23-H ) :   0.9398
B( 22-C , 24-H ) :   0.9282 B( 22-C , 25-C ) :   1.0723 B( 25-C , 26-H ) :   0.9613
B( 25-C , 27-H ) :   0.9582 B( 25-C , 28-C ) :   1.0753 B( 28-C , 29-H ) :   0.9733
B( 28-C , 30-H ) :   0.9726 B( 28-C , 31-H ) :   0.9746

Dispersion correction           -0.016344432
FINAL SINGLE POINT ENERGY     -1339.869264368636

DIPOLE MOMENT
-------------
                                X             Y             Z
Electronic contribution:      6.21483     -19.42803     -16.15590
Nuclear contribution   :     -6.62231      19.92884      16.48763
                        -----------------------------------------
Total Dipole Moment    :     -0.40749       0.50082       0.33173
                        -----------------------------------------
Magnitude (a.u.)       :      0.72588
Magnitude (Debye)      :      1.84505

Rotational constants in cm-1:     0.020946     0.009316     0.007868
Rotational constants in MHz :   627.933702   279.293251   235.872441

                             ****ORCA TERMINATED NORMALLY****
TOTAL RUN TIME: 0 days 0 hours 0 minutes 31 seconds 989 msec
