                         Program Version 4.2.1 -  RELEASE  -
|  1> ! wB97X-D3 SP def2-SVP
|  2> %pal
|  3> nprocs 16
|  4> end
|  5>
|  6> * xyz 0 1
|  7> S 	 -61.677 	 51.1405 	 123.587
|  8> C 	 -62.0678 	 49.6247 	 122.879
|  9> C 	 -61.04 	 49.1048 	 122.094
| 10> C 	 -59.911 	 49.9925 	 122.277
| 11> C 	 -60.1246 	 51.1147 	 123.082
| 12> H 	 -58.9501 	 49.9492 	 121.715
| 13> C 	 -61.1528 	 47.8851 	 121.159
| 14> H 	 -60.9847 	 46.9157 	 121.759
| 15> H 	 -60.2721 	 47.9565 	 120.51
| 16> C 	 -62.4523 	 47.7545 	 120.336
| 17> H 	 -63.2987 	 47.3317 	 120.921
| 18> H 	 -62.7046 	 48.6948 	 119.916
| 19> C 	 -62.3415 	 46.587 	 119.293
| 20> H 	 -63.2433 	 46.5103 	 118.657
| 21> H 	 -61.4302 	 46.6453 	 118.688
| 22> H 	 -62.3122 	 45.6309 	 119.804
| 23> S 	 -59.5006 	 53.8271 	 122.888
| 24> C 	 -58.0544 	 54.3407 	 123.602
| 25> C 	 -57.3339 	 53.4049 	 124.244
| 26> C 	 -57.8619 	 52.093 	 124.035
| 27> C 	 -59.1306 	 52.1431 	 123.459
| 28> H 	 -56.3425 	 53.7003 	 124.695
| 29> C 	 -57.1256 	 50.8876 	 124.58
| 30> H 	 -57.4827 	 49.9528 	 124.234
| 31> H 	 -57.2666 	 50.7855 	 125.681
| 32> C 	 -55.5977 	 50.9404 	 124.381
| 33> H 	 -55.1667 	 50.0024 	 124.804
| 34> H 	 -54.9894 	 51.6695 	 124.883
| 35> C 	 -55.2729 	 50.9954 	 122.868
| 36> H 	 -56.177 	 51.237 	 122.294
| 37> H 	 -54.8846 	 50.0377 	 122.598
| 38> H 	 -54.4941 	 51.6841 	 122.588
| 39> H 	 -63.0796 	 49.2921 	 122.791
| 40> H 	 -57.7779 	 55.3741 	 123.656
| 41> *
| 42>
| 43>                          ****END OF INPUT****

CARTESIAN COORDINATES (ANGSTROEM)
---------------------------------
  S    -61.677000   51.140500  123.587000
  C    -62.067800   49.624700  122.879000
  C    -61.040000   49.104800  122.094000
  C    -59.911000   49.992500  122.277000
  C    -60.124600   51.114700  123.082000
  H    -58.950100   49.949200  121.715000
  C    -61.152800   47.885100  121.159000
  H    -60.984700   46.915700  121.759000
  H    -60.272100   47.956500  120.510000
  C    -62.452300   47.754500  120.336000
  H    -63.298700   47.331700  120.921000
  H    -62.704600   48.694800  119.916000
  C    -62.341500   46.587000  119.293000
  H    -63.243300   46.510300  118.657000
  H    -61.430200   46.645300  118.688000
  H    -62.312200   45.630900  119.804000
  S    -59.500600   53.827100  122.888000
  C    -58.054400   54.340700  123.602000
  C    -57.333900   53.404900  124.244000
  C    -57.861900   52.093000  124.035000
  C    -59.130600   52.143100  123.459000
  H    -56.342500   53.700300  124.695000
  C    -57.125600   50.887600  124.580000
  H    -57.482700   49.952800  124.234000
  H    -57.266600   50.785500  125.681000
  C    -55.597700   50.940400  124.381000
  H    -55.166700   50.002400  124.804000
  H    -54.989400   51.669500  124.883000
  C    -55.272900   50.995400  122.868000
  H    -56.177000   51.237000  122.294000
  H    -54.884600   50.037700  122.598000
  H    -54.494100   51.684100  122.588000
  H    -63.079600   49.292100  122.791000
  H    -57.777900   55.374100  123.656000

 Total Charge           Charge          ....    0
 Multiplicity           Mult            ....    1
 Number of Electrons    NEL             ....  134
 Basis Dimension        Dim             ....  322

ORBITAL ENERGIES
----------------

  NO   OCC          E(Eh)            E(eV)
   0   2.0000     -88.964302     -2420.8417
   1   2.0000     -88.963848     -2420.8294
   2   2.0000     -10.331881      -281.1448
   3   2.0000     -10.320016      -280.8219
   4   2.0000     -10.308683      -280.5135
   5   2.0000     -10.308189      -280.5001
   6   2.0000     -10.306264      -280.4477
   7   2.0000     -10.305795      -280.4349
   8   2.0000     -10.305666      -280.4314
   9   2.0000     -10.294523      -280.1282
  10   2.0000     -10.293283      -280.0945
  11   2.0000     -10.292077      -280.0616
  12   2.0000     -10.291521      -280.0465
  13   2.0000     -10.286480      -279.9093
  14   2.0000     -10.283686      -279.8333
  15   2.0000     -10.268321      -279.4152
  16   2.0000      -8.081836      -219.9179
  17   2.0000      -8.079132      -219.8444
  18   2.0000      -6.039940      -164.3551
  19   2.0000      -6.037489      -164.2884
  20   2.0000      -6.035831      -164.2433
  21   2.0000      -6.033753      -164.1868
  22   2.0000      -6.032957      -164.1651
  23   2.0000      -6.029841      -164.0803
  24   2.0000      -1.014967       -27.6187
  25   2.0000      -0.991446       -26.9786
  26   2.0000      -0.910282       -24.7700
  27   2.0000      -0.909313       -24.7437
  28   2.0000      -0.867557       -23.6074
  29   2.0000      -0.849319       -23.1112
  30   2.0000      -0.843763       -22.9600
  31   2.0000      -0.809326       -22.0229
  32   2.0000      -0.785133       -21.3645
  33   2.0000      -0.775174       -21.0936
  34   2.0000      -0.706559       -19.2265
  35   2.0000      -0.703838       -19.1524
  36   2.0000      -0.690405       -18.7869
  37   2.0000      -0.652267       -17.7491
  38   2.0000      -0.640142       -17.4191
  39   2.0000      -0.613544       -16.6954
  40   2.0000      -0.600961       -16.3530
  41   2.0000      -0.568969       -15.4824
  42   2.0000      -0.568479       -15.4691
  43   2.0000      -0.556135       -15.1332
  44   2.0000      -0.533540       -14.5184
  45   2.0000      -0.522100       -14.2071
  46   2.0000      -0.515626       -14.0309
  47   2.0000      -0.510418       -13.8892
  48   2.0000      -0.501650       -13.6506
  49   2.0000      -0.494075       -13.4445
  50   2.0000      -0.486177       -13.2295
  51   2.0000      -0.478982       -13.0338
  52   2.0000      -0.468689       -12.7537
  53   2.0000      -0.462731       -12.5915
  54   2.0000      -0.458459       -12.4753
  55   2.0000      -0.450115       -12.2483
  56   2.0000      -0.445008       -12.1093
  57   2.0000      -0.439566       -11.9612
  58   2.0000      -0.433825       -11.8050
  59   2.0000      -0.430938       -11.7264
  60   2.0000      -0.426795       -11.6137
  61   2.0000      -0.415612       -11.3094
  62   2.0000      -0.408989       -11.1292
  63   2.0000      -0.339411        -9.2358
  64   2.0000      -0.333200        -9.0668
  65   2.0000      -0.327618        -8.9150
  66   2.0000      -0.297118        -8.0850
  67   0.0000       0.040370         1.0985
  68   0.0000       0.069480         1.8906
  69   0.0000       0.115174         3.1341
  70   0.0000       0.120865         3.2889
  71   0.0000       0.124501         3.3878

MULLIKEN ATOMIC CHARGES
-----------------------
   0 S :    0.136064
   1 C :   -0.124422
   2 C :   -0.094511
   3 C :    0.004837
   4 C :   -0.168949
   5 H :    0.019727
   6 C :    0.055100
   7 H :    0.053982
   8 H :    0.022816
   9 C :   -0.083083
  10 H :    0.041586
  11 H :    0.037877
  12 C :   -0.065051
  13 H :    0.041346
  14 H :    0.032450
  15 H :    0.025995
  16 S :    0.101853
  17 C :   -0.066923
  18 C :   -0.048711
  19 C :   -0.034358
  20 C :   -0.164415
  21 H :    0.040644
  22 C :    0.102648
  23 H :    0.012611
  24 H :    0.042788
  25 C :   -0.113243
  26 H :    0.028027
  27 H :    0.025646
  28 C :   -0.044752
  29 H :    0.047545
  30 H :    0.021006
  31 H :    0.024749
  32 H :    0.042995
  33 H :    0.046123
Sum of atomic charges:    0.0000000

LOEWDIN ATOMIC CHARGES
----------------------
   0 S :    0.478844
   1 C :   -0.212878
   2 C :   -0.062436
   3 C :   -0.078393
   4 C :   -0.249761
   5 H :    0.031599
   6 C :   -0.035726
   7 H :    0.044799
   8 H :    0.030277
   9 C :   -0.039724
  10 H :    0.032281
  11 H :    0.019778
  12 C :   -0.066082
  13 H :    0.030132
  14 H :    0.021427
  15 H :    0.023424
  16 S :    0.395962
  17 C :   -0.189741
  18 C :   -0.081579
  19 C :   -0.048408
  20 C :   -0.180212
  21 H :    0.044561
  22 C :   -0.027405
  23 H :    0.025398
  24 H :    0.041974
  25 C :   -0.045704
  26 H :    0.028870
  27 H :    0.016943
  28 C :   -0.067207
  29 H :    0.028769
  30 H :    0.022239
  31 H :    0.022970
  32 H :    0.020026
  33 H :    0.024982

  Mayer bond orders larger than 0.100000
B(  0-S ,  1-C ) :   1.1771 B(  0-S ,  4-C ) :   1.2112 B(  1-C ,  2-C ) :   1.5644
B(  1-C , 32-H ) :   0.9689 B(  2-C ,  3-C ) :   1.2879 B(  2-C ,  6-C ) :   1.0117
B(  3-C ,  4-C ) :   1.5342 B(  3-C ,  5-H ) :   0.9897 B(  4-C , 20-C ) :   0.9948
B(  6-C ,  7-H ) :   0.9343 B(  6-C ,  8-H ) :   0.9452 B(  6-C ,  9-C ) :   1.0628
B(  9-C , 10-H ) :   0.9513 B(  9-C , 11-H ) :   0.9654 B(  9-C , 12-C ) :   1.0720
B( 12-C , 13-H ) :   0.9763 B( 12-C , 14-H ) :   0.9778 B( 12-C , 15-H ) :   0.9767
B( 16-S , 17-C ) :   1.1608 B( 16-S , 20-C ) :   1.1308 B( 17-C , 18-C ) :   1.6565
B( 17-C , 33-H ) :   0.9584 B( 18-C , 19-C ) :   1.2020 B( 18-C , 21-H ) :   0.9780
B( 19-C , 20-C ) :   1.6280 B( 19-C , 22-C ) :   1.0473 B( 22-C , 23-H ) :   0.9380
B( 22-C , 24-H ) :   0.9300 B( 22-C , 25-C ) :   1.0709 B( 25-C , 26-H ) :   0.9620
B( 25-C , 27-H ) :   0.9612 B( 25-C , 28-C ) :   1.0506 B( 28-C , 29-H ) :   0.9809
B( 28-C , 30-H ) :   0.9786 B( 28-C , 31-H ) :   0.9774

Dispersion correction           -0.013979624
FINAL SINGLE POINT ENERGY     -1339.871046521241

DIPOLE MOMENT
-------------
                                X             Y             Z
Electronic contribution:    -10.39653      21.76350       9.89629
Nuclear contribution   :     10.73185     -22.16213     -10.05889
                        -----------------------------------------
Total Dipole Moment    :      0.33532      -0.39863      -0.16259
                        -----------------------------------------
Magnitude (a.u.)       :      0.54569
Magnitude (Debye)      :      1.38704

Rotational constants in cm-1:     0.021796     0.007195     0.006040
Rotational constants in MHz :   653.442057   215.703903   181.064125

                             ****ORCA TERMINATED NORMALLY****
TOTAL RUN TIME: 0 days 0 hours 0 minutes 32 seconds 359 msec
