                         Program Version 4.2.1 -  RELEASE  -
|  1> ! wB97X-D3 SP def2-SVP
|  2> %pal
|  3> nprocs 16
|  4> end
|  5>
|  6> * xyz 0 1
|  7> S 	 -114.785 	 52.4248 	 133.523
|  8> C 	 -113.946 	 53.8396 	 133.993
|  9> C 	 -112.943 	 53.517 	 134.85
| 10> C 	 -112.993 	 52.148 	 135.307
| 11> C 	 -114.08 	 51.4478 	 134.813
| 12> H 	 -112.238 	 51.7309 	 135.955
| 13> C 	 -111.857 	 54.4952 	 135.256
| 14> H 	 -111.534 	 55.0933 	 134.435
| 15> H 	 -110.948 	 53.918 	 135.522
| 16> C 	 -112.152 	 55.3877 	 136.438
| 17> H 	 -113.159 	 55.8338 	 136.353
| 18> H 	 -112.193 	 54.8754 	 137.415
| 19> C 	 -111.198 	 56.6096 	 136.547
| 20> H 	 -111.352 	 57.3862 	 135.789
| 21> H 	 -111.429 	 57.0932 	 137.524
| 22> H 	 -110.159 	 56.2539 	 136.502
| 23> S 	 -115.113 	 49.2404 	 133.66
| 24> C 	 -115.248 	 47.8358 	 134.718
| 25> C 	 -114.821 	 48.0088 	 135.965
| 26> C 	 -114.3 	 49.3111 	 136.163
| 27> C 	 -114.376 	 50.0762 	 135.046
| 28> H 	 -114.912 	 47.3169 	 136.677
| 29> C 	 -113.758 	 49.6856 	 137.492
| 30> H 	 -112.924 	 50.4816 	 137.449
| 31> H 	 -113.135 	 48.8061 	 137.725
| 32> C 	 -114.798 	 49.8221 	 138.692
| 33> H 	 -115.382 	 48.8963 	 138.814
| 34> H 	 -115.663 	 50.4684 	 138.461
| 35> C 	 -114.182 	 50.1709 	 140
| 36> H 	 -113.818 	 51.2084 	 139.985
| 37> H 	 -113.351 	 49.5261 	 140.298
| 38> H 	 -114.96 	 50.0983 	 140.842
| 39> H 	 -113.904 	 54.7904 	 133.515
| 40> H 	 -115.798 	 46.8878 	 134.418
| 41> *
| 42>
| 43>                          ****END OF INPUT****

CARTESIAN COORDINATES (ANGSTROEM)
---------------------------------
  S    -114.785000   52.424800  133.523000
  C    -113.946000   53.839600  133.993000
  C    -112.943000   53.517000  134.850000
  C    -112.993000   52.148000  135.307000
  C    -114.080000   51.447800  134.813000
  H    -112.238000   51.730900  135.955000
  C    -111.857000   54.495200  135.256000
  H    -111.534000   55.093300  134.435000
  H    -110.948000   53.918000  135.522000
  C    -112.152000   55.387700  136.438000
  H    -113.159000   55.833800  136.353000
  H    -112.193000   54.875400  137.415000
  C    -111.198000   56.609600  136.547000
  H    -111.352000   57.386200  135.789000
  H    -111.429000   57.093200  137.524000
  H    -110.159000   56.253900  136.502000
  S    -115.113000   49.240400  133.660000
  C    -115.248000   47.835800  134.718000
  C    -114.821000   48.008800  135.965000
  C    -114.300000   49.311100  136.163000
  C    -114.376000   50.076200  135.046000
  H    -114.912000   47.316900  136.677000
  C    -113.758000   49.685600  137.492000
  H    -112.924000   50.481600  137.449000
  H    -113.135000   48.806100  137.725000
  C    -114.798000   49.822100  138.692000
  H    -115.382000   48.896300  138.814000
  H    -115.663000   50.468400  138.461000
  C    -114.182000   50.170900  140.000000
  H    -113.818000   51.208400  139.985000
  H    -113.351000   49.526100  140.298000
  H    -114.960000   50.098300  140.842000
  H    -113.904000   54.790400  133.515000
  H    -115.798000   46.887800  134.418000

 Total Charge           Charge          ....    0
 Multiplicity           Mult            ....    1
 Number of Electrons    NEL             ....  134
 Basis Dimension        Dim             ....  322

ORBITAL ENERGIES
----------------

  NO   OCC          E(Eh)            E(eV)
   0   2.0000     -88.964411     -2420.8447
   1   2.0000     -88.964107     -2420.8364
   2   2.0000     -10.327028      -281.0127
   3   2.0000     -10.322659      -280.8938
   4   2.0000     -10.317545      -280.7547
   5   2.0000     -10.304442      -280.3981
   6   2.0000     -10.302814      -280.3538
   7   2.0000     -10.298305      -280.2311
   8   2.0000     -10.295066      -280.1430
   9   2.0000     -10.293324      -280.0956
  10   2.0000     -10.291798      -280.0540
  11   2.0000     -10.288709      -279.9700
  12   2.0000     -10.286361      -279.9061
  13   2.0000     -10.284909      -279.8666
  14   2.0000     -10.282758      -279.8081
  15   2.0000     -10.280240      -279.7395
  16   2.0000      -8.079206      -219.8464
  17   2.0000      -8.079119      -219.8440
  18   2.0000      -6.037912      -164.3000
  19   2.0000      -6.037737      -164.2952
  20   2.0000      -6.033967      -164.1926
  21   2.0000      -6.033787      -164.1877
  22   2.0000      -6.029600      -164.0738
  23   2.0000      -6.029443      -164.0695
  24   2.0000      -1.013166       -27.5696
  25   2.0000      -0.989894       -26.9364
  26   2.0000      -0.912152       -24.8209
  27   2.0000      -0.907099       -24.6834
  28   2.0000      -0.878440       -23.9036
  29   2.0000      -0.860407       -23.4129
  30   2.0000      -0.843583       -22.9551
  31   2.0000      -0.819226       -22.2923
  32   2.0000      -0.780748       -21.2452
  33   2.0000      -0.770529       -20.9672
  34   2.0000      -0.710239       -19.3266
  35   2.0000      -0.697605       -18.9828
  36   2.0000      -0.695942       -18.9375
  37   2.0000      -0.673303       -18.3215
  38   2.0000      -0.637901       -17.3582
  39   2.0000      -0.623044       -16.9539
  40   2.0000      -0.598100       -16.2751
  41   2.0000      -0.574005       -15.6195
  42   2.0000      -0.559303       -15.2194
  43   2.0000      -0.550822       -14.9886
  44   2.0000      -0.531097       -14.4519
  45   2.0000      -0.526625       -14.3302
  46   2.0000      -0.519589       -14.1387
  47   2.0000      -0.511020       -13.9056
  48   2.0000      -0.509115       -13.8537
  49   2.0000      -0.502536       -13.6747
  50   2.0000      -0.492800       -13.4098
  51   2.0000      -0.476314       -12.9612
  52   2.0000      -0.471825       -12.8390
  53   2.0000      -0.467099       -12.7104
  54   2.0000      -0.464300       -12.6342
  55   2.0000      -0.451327       -12.2812
  56   2.0000      -0.442505       -12.0412
  57   2.0000      -0.442461       -12.0400
  58   2.0000      -0.434145       -11.8137
  59   2.0000      -0.423833       -11.5331
  60   2.0000      -0.422864       -11.5067
  61   2.0000      -0.408297       -11.1103
  62   2.0000      -0.406328       -11.0567
  63   2.0000      -0.364103        -9.9078
  64   2.0000      -0.336056        -9.1445
  65   2.0000      -0.323481        -8.8024
  66   2.0000      -0.283948        -7.7266
  67   0.0000       0.023258         0.6329
  68   0.0000       0.076019         2.0686
  69   0.0000       0.100544         2.7359
  70   0.0000       0.124563         3.3895
  71   0.0000       0.129835         3.5330

MULLIKEN ATOMIC CHARGES
-----------------------
   0 S :    0.098904
   1 C :   -0.078148
   2 C :   -0.104912
   3 C :    0.001192
   4 C :   -0.097712
   5 H :    0.010124
   6 C :    0.072748
   7 H :    0.013799
   8 H :    0.019897
   9 C :   -0.081735
  10 H :    0.023874
  11 H :    0.031010
  12 C :   -0.070013
  13 H :    0.037612
  14 H :    0.039682
  15 H :    0.033843
  16 S :    0.088417
  17 C :   -0.088913
  18 C :    0.031393
  19 C :   -0.028277
  20 C :   -0.144544
  21 H :   -0.040006
  22 C :    0.026241
  23 H :    0.030349
  24 H :    0.025842
  25 C :   -0.064803
  26 H :    0.018297
  27 H :    0.037268
  28 C :   -0.060147
  29 H :    0.038338
  30 H :    0.031761
  31 H :    0.043077
  32 H :    0.035664
  33 H :    0.069876
Sum of atomic charges:    0.0000000

LOEWDIN ATOMIC CHARGES
----------------------
   0 S :    0.407186
   1 C :   -0.206413
   2 C :   -0.063287
   3 C :   -0.062698
   4 C :   -0.184666
   5 H :    0.025654
   6 C :   -0.036391
   7 H :    0.025364
   8 H :    0.033417
   9 C :   -0.045799
  10 H :    0.023527
  11 H :    0.025296
  12 C :   -0.069050
  13 H :    0.023759
  14 H :    0.031777
  15 H :    0.022919
  16 S :    0.372372
  17 C :   -0.171866
  18 C :   -0.054733
  19 C :   -0.057538
  20 C :   -0.176653
  21 H :    0.012186
  22 C :   -0.039684
  23 H :    0.036177
  24 H :    0.036644
  25 C :   -0.047342
  26 H :    0.024472
  27 H :    0.030378
  28 C :   -0.071776
  29 H :    0.026982
  30 H :    0.023952
  31 H :    0.036706
  32 H :    0.028549
  33 H :    0.040580

  Mayer bond orders larger than 0.100000
B(  0-S ,  1-C ) :   1.1307 B(  0-S ,  4-C ) :   1.1378 B(  1-C ,  2-C ) :   1.6191
B(  1-C , 32-H ) :   0.9674 B(  2-C ,  3-C ) :   1.2582 B(  2-C ,  6-C ) :   1.0307
B(  3-C ,  4-C ) :   1.5350 B(  3-C ,  5-H ) :   0.9939 B(  4-C , 20-C ) :   1.1123
B(  6-C ,  7-H ) :   0.9424 B(  6-C ,  8-H ) :   0.9328 B(  6-C ,  9-C ) :   1.0638
B(  9-C , 10-H ) :   0.9568 B(  9-C , 11-H ) :   0.9567 B(  9-C , 12-C ) :   1.0759
B( 12-C , 13-H ) :   0.9770 B( 12-C , 14-H ) :   0.9747 B( 12-C , 15-H ) :   0.9761
B( 16-S , 17-C ) :   1.1256 B( 16-S , 20-C ) :   1.0977 B( 17-C , 18-C ) :   1.6634
B( 17-C , 33-H ) :   0.9527 B( 18-C , 19-C ) :   1.1966 B( 18-C , 21-H ) :   1.0118
B( 19-C , 20-C ) :   1.6507 B( 19-C , 22-C ) :   1.0418 B( 22-C , 23-H ) :   0.9427
B( 22-C , 24-H ) :   0.9245 B( 22-C , 25-C ) :   1.0391 B( 25-C , 26-H ) :   0.9502
B( 25-C , 27-H ) :   0.9545 B( 25-C , 28-C ) :   1.0938 B( 28-C , 29-H ) :   0.9735
B( 28-C , 30-H ) :   0.9728 B( 28-C , 31-H ) :   0.9709

Dispersion correction           -0.013356339
FINAL SINGLE POINT ENERGY     -1339.867914702004

DIPOLE MOMENT
-------------
                                X             Y             Z
Electronic contribution:    -12.67562     -13.72748     -25.98374
Nuclear contribution   :     13.00670      13.71499      26.61414
                        -----------------------------------------
Total Dipole Moment    :      0.33108      -0.01249       0.63040
                        -----------------------------------------
Magnitude (a.u.)       :      0.71217
Magnitude (Debye)      :      1.81018

Rotational constants in cm-1:     0.017699     0.008627     0.006122
Rotational constants in MHz :   530.609577   258.622498   183.528725

                             ****ORCA TERMINATED NORMALLY****
TOTAL RUN TIME: 0 days 0 hours 0 minutes 33 seconds 640 msec
