                         Program Version 4.2.1 -  RELEASE  -
|  1> ! wB97X-D3 SP def2-SVP
|  2> %pal
|  3> nprocs 16
|  4> end
|  5>
|  6> * xyz 0 1
|  7> S 	 2.73021 	 14.729 	 86.23
|  8> C 	 1.61184 	 14.8354 	 84.9062
|  9> C 	 0.269623 	 14.6307 	 85.2334
| 10> C 	 0.192841 	 14.4779 	 86.6398
| 11> C 	 1.36814 	 14.5739 	 87.3252
| 12> H 	 -0.719783 	 14.3567 	 87.3109
| 13> C 	 -0.869333 	 14.7082 	 84.223
| 14> H 	 -1.45482 	 13.8154 	 84.4874
| 15> H 	 -0.369082 	 14.5159 	 83.2688
| 16> C 	 -1.73257 	 15.9491 	 84.0533
| 17> H 	 -1.02793 	 16.7841 	 84.0131
| 18> H 	 -2.15965 	 15.852 	 82.9997
| 19> C 	 -2.76727 	 16.2533 	 85.2235
| 20> H 	 -3.63653 	 15.5368 	 85.2917
| 21> H 	 -2.26984 	 16.258 	 86.2356
| 22> H 	 -3.19928 	 17.252 	 85.1204
| 23> S 	 1.04349 	 16.0692 	 89.6431
| 24> C 	 1.49021 	 15.4251 	 91.1679
| 25> C 	 1.98779 	 14.1336 	 90.9796
| 26> C 	 1.95848 	 13.665 	 89.623
| 27> C 	 1.54197 	 14.6182 	 88.7556
| 28> H 	 2.3792 	 13.6607 	 91.9002
| 29> C 	 2.26971 	 12.1934 	 89.199
| 30> H 	 3.34043 	 12.0686 	 89.3246
| 31> H 	 2.15545 	 12.1225 	 88.1046
| 32> C 	 1.34929 	 11.133 	 89.8744
| 33> H 	 1.48015 	 11.2437 	 90.9392
| 34> H 	 1.66068 	 10.1639 	 89.5351
| 35> C 	 -0.111002 	 11.2741 	 89.5608
| 36> H 	 -0.475492 	 12.1841 	 90.0651
| 37> H 	 -0.648161 	 10.4235 	 89.8798
| 38> H 	 -0.301343 	 11.3084 	 88.4842
| 39> H 	 1.95131 	 15.1007 	 83.9379
| 40> H 	 1.45905 	 15.8791 	 92.1926
| 41> *
| 42>
| 43>                          ****END OF INPUT****

CARTESIAN COORDINATES (ANGSTROEM)
---------------------------------
  S      2.730210   14.729000   86.230000
  C      1.611840   14.835400   84.906200
  C      0.269623   14.630700   85.233400
  C      0.192841   14.477900   86.639800
  C      1.368140   14.573900   87.325200
  H     -0.719783   14.356700   87.310900
  C     -0.869333   14.708200   84.223000
  H     -1.454820   13.815400   84.487400
  H     -0.369082   14.515900   83.268800
  C     -1.732570   15.949100   84.053300
  H     -1.027930   16.784100   84.013100
  H     -2.159650   15.852000   82.999700
  C     -2.767270   16.253300   85.223500
  H     -3.636530   15.536800   85.291700
  H     -2.269840   16.258000   86.235600
  H     -3.199280   17.252000   85.120400
  S      1.043490   16.069200   89.643100
  C      1.490210   15.425100   91.167900
  C      1.987790   14.133600   90.979600
  C      1.958480   13.665000   89.623000
  C      1.541970   14.618200   88.755600
  H      2.379200   13.660700   91.900200
  C      2.269710   12.193400   89.199000
  H      3.340430   12.068600   89.324600
  H      2.155450   12.122500   88.104600
  C      1.349290   11.133000   89.874400
  H      1.480150   11.243700   90.939200
  H      1.660680   10.163900   89.535100
  C     -0.111002   11.274100   89.560800
  H     -0.475492   12.184100   90.065100
  H     -0.648161   10.423500   89.879800
  H     -0.301343   11.308400   88.484200
  H      1.951310   15.100700   83.937900
  H      1.459050   15.879100   92.192600

 Total Charge           Charge          ....    0
 Multiplicity           Mult            ....    1
 Number of Electrons    NEL             ....  134
 Basis Dimension        Dim             ....  322

ORBITAL ENERGIES
----------------

  NO   OCC          E(Eh)            E(eV)
   0   2.0000     -88.966500     -2420.9015
   1   2.0000     -88.962281     -2420.7867
   2   2.0000     -10.321935      -280.8741
   3   2.0000     -10.319902      -280.8188
   4   2.0000     -10.319581      -280.8101
   5   2.0000     -10.312250      -280.6106
   6   2.0000     -10.302821      -280.3540
   7   2.0000     -10.301627      -280.3215
   8   2.0000     -10.299563      -280.2653
   9   2.0000     -10.296761      -280.1891
  10   2.0000     -10.295400      -280.1521
  11   2.0000     -10.294433      -280.1258
  12   2.0000     -10.291762      -280.0531
  13   2.0000     -10.290761      -280.0258
  14   2.0000     -10.281085      -279.7625
  15   2.0000     -10.268424      -279.4180
  16   2.0000      -8.081448      -219.9074
  17   2.0000      -8.077270      -219.7937
  18   2.0000      -6.039745      -164.3498
  19   2.0000      -6.035999      -164.2479
  20   2.0000      -6.035814      -164.2428
  21   2.0000      -6.032358      -164.1488
  22   2.0000      -6.031609      -164.1284
  23   2.0000      -6.028099      -164.0329
  24   2.0000      -1.008319       -27.4377
  25   2.0000      -0.985652       -26.8209
  26   2.0000      -0.908191       -24.7131
  27   2.0000      -0.904842       -24.6220
  28   2.0000      -0.868505       -23.6332
  29   2.0000      -0.846902       -23.0454
  30   2.0000      -0.844297       -22.9745
  31   2.0000      -0.811449       -22.0806
  32   2.0000      -0.783650       -21.3242
  33   2.0000      -0.773220       -21.0404
  34   2.0000      -0.704842       -19.1797
  35   2.0000      -0.699541       -19.0355
  36   2.0000      -0.692050       -18.8316
  37   2.0000      -0.653142       -17.7729
  38   2.0000      -0.639684       -17.4067
  39   2.0000      -0.611944       -16.6519
  40   2.0000      -0.592124       -16.1125
  41   2.0000      -0.568417       -15.4674
  42   2.0000      -0.552627       -15.0377
  43   2.0000      -0.545090       -14.8327
  44   2.0000      -0.541344       -14.7307
  45   2.0000      -0.535166       -14.5626
  46   2.0000      -0.517979       -14.0949
  47   2.0000      -0.510792       -13.8994
  48   2.0000      -0.500680       -13.6242
  49   2.0000      -0.489988       -13.3332
  50   2.0000      -0.485044       -13.1987
  51   2.0000      -0.476105       -12.9555
  52   2.0000      -0.469153       -12.7663
  53   2.0000      -0.463343       -12.6082
  54   2.0000      -0.460084       -12.5195
  55   2.0000      -0.443558       -12.0698
  56   2.0000      -0.439989       -11.9727
  57   2.0000      -0.439068       -11.9476
  58   2.0000      -0.432109       -11.7583
  59   2.0000      -0.428968       -11.6728
  60   2.0000      -0.419362       -11.4114
  61   2.0000      -0.416219       -11.3259
  62   2.0000      -0.407192       -11.0802
  63   2.0000      -0.339333        -9.2337
  64   2.0000      -0.329157        -8.9568
  65   2.0000      -0.325811        -8.8658
  66   2.0000      -0.305065        -8.3012
  67   0.0000       0.044420         1.2087
  68   0.0000       0.057776         1.5722
  69   0.0000       0.110018         2.9937
  70   0.0000       0.122904         3.3444
  71   0.0000       0.133464         3.6317

MULLIKEN ATOMIC CHARGES
-----------------------
   0 S :    0.126876
   1 C :   -0.118255
   2 C :   -0.089631
   3 C :    0.015658
   4 C :   -0.208329
   5 H :    0.036994
   6 C :    0.072721
   7 H :    0.032028
   8 H :    0.019270
   9 C :   -0.050905
  10 H :    0.028009
  11 H :    0.047090
  12 C :   -0.090864
  13 H :    0.043228
  14 H :    0.047823
  15 H :    0.039805
  16 S :    0.115313
  17 C :   -0.113927
  18 C :   -0.076421
  19 C :   -0.021230
  20 C :   -0.181538
  21 H :    0.028764
  22 C :    0.081503
  23 H :    0.033481
  24 H :    0.023073
  25 C :   -0.054565
  26 H :    0.027372
  27 H :    0.022962
  28 C :   -0.038297
  29 H :    0.045180
  30 H :    0.023482
  31 H :    0.025408
  32 H :    0.030725
  33 H :    0.077198
Sum of atomic charges:   -0.0000000

LOEWDIN ATOMIC CHARGES
----------------------
   0 S :    0.411416
   1 C :   -0.187242
   2 C :   -0.068060
   3 C :   -0.065779
   4 C :   -0.203023
   5 H :    0.043529
   6 C :   -0.035898
   7 H :    0.034290
   8 H :    0.033840
   9 C :   -0.043131
  10 H :    0.026212
  11 H :    0.036334
  12 C :   -0.078461
  13 H :    0.028959
  14 H :    0.033832
  15 H :    0.027399
  16 S :    0.409201
  17 C :   -0.206975
  18 C :   -0.087684
  19 C :   -0.057171
  20 C :   -0.203035
  21 H :    0.033851
  22 C :   -0.026899
  23 H :    0.030957
  24 H :    0.027797
  25 C :   -0.034191
  26 H :    0.021164
  27 H :    0.021535
  28 C :   -0.061495
  29 H :    0.030562
  30 H :    0.021161
  31 H :    0.025198
  32 H :    0.015161
  33 H :    0.046647

  Mayer bond orders larger than 0.100000
B(  0-S ,  1-C ) :   1.1630 B(  0-S ,  4-C ) :   1.1340 B(  1-C ,  2-C ) :   1.6006
B(  1-C , 32-H ) :   0.9693 B(  2-C ,  3-C ) :   1.2249 B(  2-C ,  6-C ) :   1.0168
B(  3-C ,  4-C ) :   1.6197 B(  3-C ,  5-H ) :   0.9792 B(  4-C , 20-C ) :   1.0197
B(  6-C ,  7-H ) :   0.9352 B(  6-C ,  8-H ) :   0.9347 B(  6-C ,  9-C ) :   1.0667
B(  9-C , 10-H ) :   0.9530 B(  9-C , 11-H ) :   0.9557 B(  9-C , 12-C ) :   1.0614
B( 12-C , 13-H ) :   0.9779 B( 12-C , 14-H ) :   0.9736 B( 12-C , 15-H ) :   0.9760
B( 16-S , 17-C ) :   1.1630 B( 16-S , 20-C ) :   1.1313 B( 17-C , 18-C ) :   1.6182
B( 17-C , 33-H ) :   0.9604 B( 18-C , 19-C ) :   1.2174 B( 18-C , 21-H ) :   0.9864
B( 19-C , 20-C ) :   1.6253 B( 19-C , 22-C ) :   1.0244 B( 22-C , 23-H ) :   0.9390
B( 22-C , 24-H ) :   0.9319 B( 22-C , 25-C ) :   1.0666 B( 25-C , 26-H ) :   0.9585
B( 25-C , 27-H ) :   0.9555 B( 25-C , 28-C ) :   1.0843 B( 28-C , 29-H ) :   0.9731
B( 28-C , 30-H ) :   0.9709 B( 28-C , 31-H ) :   0.9729

Dispersion correction           -0.015285619
FINAL SINGLE POINT ENERGY     -1339.886282850193

DIPOLE MOMENT
-------------
                                X             Y             Z
Electronic contribution:     16.47381      10.38680       4.92436
Nuclear contribution   :    -16.74718     -10.64395      -4.99265
                        -----------------------------------------
Total Dipole Moment    :     -0.27337      -0.25714      -0.06828
                        -----------------------------------------
Magnitude (a.u.)       :      0.38147
Magnitude (Debye)      :      0.96961

Rotational constants in cm-1:     0.019274     0.008229     0.007911
Rotational constants in MHz :   577.811576   246.691996   237.154998

                             ****ORCA TERMINATED NORMALLY****
TOTAL RUN TIME: 0 days 0 hours 0 minutes 35 seconds 664 msec
