                         Program Version 4.2.1 -  RELEASE  -
|  1> ! wB97X-D3 SP def2-SVP
|  2> %pal
|  3> nprocs 16
|  4> end
|  5>
|  6> * xyz 0 1
|  7> S 	 -40.1918 	 37.3643 	 83.5859
|  8> C 	 -38.7447 	 38.3216 	 83.9553
|  9> C 	 -37.5679 	 37.8992 	 83.3131
| 10> C 	 -37.9402 	 36.7996 	 82.4779
| 11> C 	 -39.2637 	 36.3421 	 82.4943
| 12> H 	 -37.1846 	 36.2622 	 81.8865
| 13> C 	 -36.2199 	 38.4905 	 83.474
| 14> H 	 -36.0453 	 38.6007 	 84.5616
| 15> H 	 -36.4135 	 39.5153 	 83.0248
| 16> C 	 -35.1118 	 37.7049 	 82.7617
| 17> H 	 -35.1631 	 36.6528 	 83.081
| 18> H 	 -35.3485 	 37.8324 	 81.6725
| 19> C 	 -33.7019 	 38.313 	 83.0513
| 20> H 	 -32.8872 	 37.9052 	 82.3811
| 21> H 	 -33.6708 	 39.3951 	 83.0401
| 22> H 	 -33.4122 	 37.9112 	 83.958
| 23> S 	 -41.6367 	 35.6258 	 81.1701
| 24> C 	 -41.627 	 34.2108 	 80.1477
| 25> C 	 -40.3855 	 33.7791 	 79.9596
| 26> C 	 -39.3935 	 34.3255 	 80.8513
| 27> C 	 -39.8813 	 35.4153 	 81.5902
| 28> H 	 -40.2273 	 32.9761 	 79.2929
| 29> C 	 -38.0053 	 33.8532 	 80.9316
| 30> H 	 -38.0956 	 32.7759 	 80.7684
| 31> H 	 -37.683 	 34.0541 	 81.9092
| 32> C 	 -37.1357 	 34.343 	 79.7448
| 33> H 	 -37.2927 	 35.428 	 79.5597
| 34> H 	 -37.4215 	 33.8389 	 78.857
| 35> C 	 -35.5589 	 34.1668 	 79.9849
| 36> H 	 -35.4835 	 34.5671 	 80.9578
| 37> H 	 -34.9435 	 34.8769 	 79.3962
| 38> H 	 -35.1153 	 33.2276 	 79.9795
| 39> H 	 -38.8799 	 39.1624 	 84.5124
| 40> H 	 -42.4751 	 34.0111 	 79.4647
| 41> *
| 42>
| 43>                          ****END OF INPUT****

CARTESIAN COORDINATES (ANGSTROEM)
---------------------------------
  S    -40.191800   37.364300   83.585900
  C    -38.744700   38.321600   83.955300
  C    -37.567900   37.899200   83.313100
  C    -37.940200   36.799600   82.477900
  C    -39.263700   36.342100   82.494300
  H    -37.184600   36.262200   81.886500
  C    -36.219900   38.490500   83.474000
  H    -36.045300   38.600700   84.561600
  H    -36.413500   39.515300   83.024800
  C    -35.111800   37.704900   82.761700
  H    -35.163100   36.652800   83.081000
  H    -35.348500   37.832400   81.672500
  C    -33.701900   38.313000   83.051300
  H    -32.887200   37.905200   82.381100
  H    -33.670800   39.395100   83.040100
  H    -33.412200   37.911200   83.958000
  S    -41.636700   35.625800   81.170100
  C    -41.627000   34.210800   80.147700
  C    -40.385500   33.779100   79.959600
  C    -39.393500   34.325500   80.851300
  C    -39.881300   35.415300   81.590200
  H    -40.227300   32.976100   79.292900
  C    -38.005300   33.853200   80.931600
  H    -38.095600   32.775900   80.768400
  H    -37.683000   34.054100   81.909200
  C    -37.135700   34.343000   79.744800
  H    -37.292700   35.428000   79.559700
  H    -37.421500   33.838900   78.857000
  C    -35.558900   34.166800   79.984900
  H    -35.483500   34.567100   80.957800
  H    -34.943500   34.876900   79.396200
  H    -35.115300   33.227600   79.979500
  H    -38.879900   39.162400   84.512400
  H    -42.475100   34.011100   79.464700

 Total Charge           Charge          ....    0
 Multiplicity           Mult            ....    1
 Number of Electrons    NEL             ....  134
 Basis Dimension        Dim             ....  322

ORBITAL ENERGIES
----------------

  NO   OCC          E(Eh)            E(eV)
   0   2.0000     -88.967399     -2420.9260
   1   2.0000     -88.957672     -2420.6613
   2   2.0000     -10.331839      -281.1436
   3   2.0000     -10.330721      -281.1132
   4   2.0000     -10.312972      -280.6302
   5   2.0000     -10.310744      -280.5696
   6   2.0000     -10.305794      -280.4349
   7   2.0000     -10.302514      -280.3457
   8   2.0000     -10.300835      -280.3000
   9   2.0000     -10.300519      -280.2914
  10   2.0000     -10.297252      -280.2025
  11   2.0000     -10.294068      -280.1158
  12   2.0000     -10.286540      -279.9110
  13   2.0000     -10.286370      -279.9064
  14   2.0000     -10.282431      -279.7992
  15   2.0000     -10.276130      -279.6277
  16   2.0000      -8.081488      -219.9085
  17   2.0000      -8.072087      -219.6527
  18   2.0000      -6.040001      -164.3568
  19   2.0000      -6.036054      -164.2494
  20   2.0000      -6.032333      -164.1481
  21   2.0000      -6.030776      -164.1058
  22   2.0000      -6.026742      -163.9960
  23   2.0000      -6.022560      -163.8822
  24   2.0000      -1.002548       -27.2807
  25   2.0000      -0.981207       -26.7000
  26   2.0000      -0.918594       -24.9962
  27   2.0000      -0.910711       -24.7817
  28   2.0000      -0.872643       -23.7458
  29   2.0000      -0.850183       -23.1347
  30   2.0000      -0.842664       -22.9301
  31   2.0000      -0.816620       -22.2214
  32   2.0000      -0.785916       -21.3859
  33   2.0000      -0.773685       -21.0531
  34   2.0000      -0.719809       -19.5870
  35   2.0000      -0.706942       -19.2369
  36   2.0000      -0.695177       -18.9167
  37   2.0000      -0.658206       -17.9107
  38   2.0000      -0.639701       -17.4071
  39   2.0000      -0.622484       -16.9387
  40   2.0000      -0.594293       -16.1715
  41   2.0000      -0.581508       -15.8236
  42   2.0000      -0.571025       -15.5384
  43   2.0000      -0.561937       -15.2911
  44   2.0000      -0.529401       -14.4057
  45   2.0000      -0.526468       -14.3259
  46   2.0000      -0.515465       -14.0265
  47   2.0000      -0.511513       -13.9190
  48   2.0000      -0.506772       -13.7900
  49   2.0000      -0.498037       -13.5523
  50   2.0000      -0.497477       -13.5370
  51   2.0000      -0.481593       -13.1048
  52   2.0000      -0.472484       -12.8570
  53   2.0000      -0.465124       -12.6567
  54   2.0000      -0.464058       -12.6277
  55   2.0000      -0.448801       -12.2125
  56   2.0000      -0.447335       -12.1726
  57   2.0000      -0.440126       -11.9764
  58   2.0000      -0.433757       -11.8031
  59   2.0000      -0.426649       -11.6097
  60   2.0000      -0.425481       -11.5779
  61   2.0000      -0.421280       -11.4636
  62   2.0000      -0.409199       -11.1349
  63   2.0000      -0.358900        -9.7662
  64   2.0000      -0.332152        -9.0383
  65   2.0000      -0.324603        -8.8329
  66   2.0000      -0.278482        -7.5779
  67   0.0000       0.016284         0.4431
  68   0.0000       0.082054         2.2328
  69   0.0000       0.098070         2.6686
  70   0.0000       0.119761         3.2589
  71   0.0000       0.127351         3.4654

MULLIKEN ATOMIC CHARGES
-----------------------
   0 S :    0.103441
   1 C :   -0.109464
   2 C :   -0.076785
   3 C :   -0.027422
   4 C :   -0.112329
   5 H :   -0.003452
   6 C :    0.047199
   7 H :    0.046768
   8 H :    0.057114
   9 C :   -0.135840
  10 H :    0.053888
  11 H :    0.049510
  12 C :   -0.002732
  13 H :    0.036706
  14 H :    0.038716
  15 H :    0.012965
  16 S :    0.065985
  17 C :   -0.088828
  18 C :   -0.005899
  19 C :   -0.090454
  20 C :   -0.109948
  21 H :    0.003007
  22 C :    0.091025
  23 H :    0.024038
  24 H :    0.019299
  25 C :   -0.085673
  26 H :    0.042109
  27 H :    0.022799
  28 C :   -0.013268
  29 H :    0.000478
  30 H :    0.033772
  31 H :    0.029864
  32 H :    0.009546
  33 H :    0.073864
Sum of atomic charges:   -0.0000000

LOEWDIN ATOMIC CHARGES
----------------------
   0 S :    0.397910
   1 C :   -0.171929
   2 C :   -0.059601
   3 C :   -0.069079
   4 C :   -0.195213
   5 H :    0.026302
   6 C :   -0.041263
   7 H :    0.037890
   8 H :    0.049667
   9 C :   -0.043660
  10 H :    0.028945
  11 H :    0.031197
  12 C :   -0.061192
  13 H :    0.034909
  14 H :    0.026192
  15 H :    0.015412
  16 S :    0.360432
  17 C :   -0.183086
  18 C :   -0.070491
  19 C :   -0.053690
  20 C :   -0.170478
  21 H :    0.025059
  22 C :   -0.033148
  23 H :    0.036867
  24 H :    0.022849
  25 C :   -0.027844
  26 H :    0.028287
  27 H :    0.016890
  28 C :   -0.062844
  29 H :    0.016969
  30 H :    0.031540
  31 H :    0.015559
  32 H :    0.001218
  33 H :    0.039424

  Mayer bond orders larger than 0.100000
B(  0-S ,  1-C ) :   1.1562 B(  0-S ,  4-C ) :   1.1341 B(  1-C ,  2-C ) :   1.5655
B(  1-C ,  4-C ) :   0.1011 B(  1-C , 32-H ) :   0.9839 B(  2-C ,  3-C ) :   1.2914
B(  2-C ,  6-C ) :   0.9951 B(  3-C ,  4-C ) :   1.5197 B(  3-C ,  5-H ) :   0.9738
B(  4-C , 20-C ) :   1.1141 B(  6-C ,  7-H ) :   0.9408 B(  6-C ,  8-H ) :   0.9246
B(  6-C ,  9-C ) :   1.0891 B(  9-C , 10-H ) :   0.9546 B(  9-C , 11-H ) :   0.9442
B(  9-C , 12-C ) :   1.0757 B( 12-C , 13-H ) :   0.9732 B( 12-C , 14-H ) :   0.9750
B( 12-C , 15-H ) :   0.9735 B( 16-S , 17-C ) :   1.1346 B( 16-S , 20-C ) :   1.1074
B( 17-C , 18-C ) :   1.6532 B( 17-C , 33-H ) :   0.9564 B( 18-C , 19-C ) :   1.2150
B( 18-C , 21-H ) :   0.9900 B( 19-C , 20-C ) :   1.5871 B( 19-C , 22-C ) :   1.0720
B( 22-C , 23-H ) :   0.9193 B( 22-C , 24-H ) :   0.9317 B( 22-C , 25-C ) :   1.0506
B( 25-C , 26-H ) :   0.9608 B( 25-C , 27-H ) :   0.9565 B( 25-C , 28-C ) :   1.0626
B( 28-C , 29-H ) :   0.9760 B( 28-C , 30-H ) :   0.9759 B( 28-C , 31-H ) :   0.9784

Dispersion correction           -0.014659991
FINAL SINGLE POINT ENERGY     -1339.860180544389

DIPOLE MOMENT
-------------
                                X             Y             Z
Electronic contribution:    -33.54989       1.27652       5.48000
Nuclear contribution   :     34.40137      -1.26900      -5.71682
                        -----------------------------------------
Total Dipole Moment    :      0.85149       0.00752      -0.23682
                        -----------------------------------------
Magnitude (a.u.)       :      0.88384
Magnitude (Debye)      :      2.24654

Rotational constants in cm-1:     0.017863     0.009817     0.006516
Rotational constants in MHz :   535.532527   294.295547   195.349863

                             ****ORCA TERMINATED NORMALLY****
TOTAL RUN TIME: 0 days 0 hours 0 minutes 31 seconds 700 msec
