                         Program Version 4.2.1 -  RELEASE  -
|  1> ! wB97X-D3 SP def2-SVP
|  2> %pal
|  3> nprocs 16
|  4> end
|  5>
|  6> * xyz 0 1
|  7> S 	 -2.18348 	 -4.19596 	 77.1857
|  8> C 	 -2.07893 	 -4.38709 	 78.9452
|  9> C 	 -1.37113 	 -3.36179 	 79.5512
| 10> C 	 -1.03886 	 -2.42762 	 78.5222
| 11> C 	 -1.41687 	 -2.67871 	 77.1677
| 12> H 	 -0.396708 	 -1.49651 	 78.7051
| 13> C 	 -0.953892 	 -3.18727 	 80.9755
| 14> H 	 -1.84595 	 -3.28523 	 81.6796
| 15> H 	 -0.62996 	 -2.16352 	 81.106
| 16> C 	 0.0973143 	 -4.08425 	 81.5382
| 17> H 	 0.147612 	 -3.96383 	 82.6452
| 18> H 	 -0.18053 	 -5.08504 	 81.3518
| 19> C 	 1.51138 	 -3.76426 	 80.9428
| 20> H 	 1.46119 	 -3.74313 	 79.9026
| 21> H 	 1.8871 	 -2.84168 	 81.3815
| 22> H 	 2.19536 	 -4.48897 	 81.2649
| 23> S 	 0.270566 	 -2.72967 	 74.9689
| 24> C 	 0.0383901 	 -1.5255 	 73.8137
| 25> C 	 -0.991344 	 -0.62331 	 74.0844
| 26> C 	 -1.50334 	 -0.838234 	 75.3895
| 27> C 	 -1.00151 	 -2.04834 	 75.959
| 28> H 	 -1.19582 	 0.153851 	 73.4001
| 29> C 	 -2.58287 	 0.00451485 	 75.946
| 30> H 	 -2.54957 	 1.04472 	 75.6774
| 31> H 	 -2.4255 	 -0.08745 	 77.0262
| 32> C 	 -4.03185 	 -0.572844 	 75.8248
| 33> H 	 -4.12073 	 -1.36411 	 76.5141
| 34> H 	 -4.18066 	 -0.871491 	 74.7857
| 35> C 	 -5.0729 	 0.553519 	 76.2041
| 36> H 	 -6.0084 	 0.0974912 	 76.4581
| 37> H 	 -5.17622 	 1.22345 	 75.3548
| 38> H 	 -4.78714 	 1.28831 	 76.9806
| 39> H 	 -2.53131 	 -5.23156 	 79.4652
| 40> H 	 0.699871 	 -1.35983 	 72.9536
| 41> *
| 42>
| 43>                          ****END OF INPUT****

CARTESIAN COORDINATES (ANGSTROEM)
---------------------------------
  S     -2.183480   -4.195960   77.185700
  C     -2.078930   -4.387090   78.945200
  C     -1.371130   -3.361790   79.551200
  C     -1.038860   -2.427620   78.522200
  C     -1.416870   -2.678710   77.167700
  H     -0.396708   -1.496510   78.705100
  C     -0.953892   -3.187270   80.975500
  H     -1.845950   -3.285230   81.679600
  H     -0.629960   -2.163520   81.106000
  C      0.097314   -4.084250   81.538200
  H      0.147612   -3.963830   82.645200
  H     -0.180530   -5.085040   81.351800
  C      1.511380   -3.764260   80.942800
  H      1.461190   -3.743130   79.902600
  H      1.887100   -2.841680   81.381500
  H      2.195360   -4.488970   81.264900
  S      0.270566   -2.729670   74.968900
  C      0.038390   -1.525500   73.813700
  C     -0.991344   -0.623310   74.084400
  C     -1.503340   -0.838234   75.389500
  C     -1.001510   -2.048340   75.959000
  H     -1.195820    0.153851   73.400100
  C     -2.582870    0.004515   75.946000
  H     -2.549570    1.044720   75.677400
  H     -2.425500   -0.087450   77.026200
  C     -4.031850   -0.572844   75.824800
  H     -4.120730   -1.364110   76.514100
  H     -4.180660   -0.871491   74.785700
  C     -5.072900    0.553519   76.204100
  H     -6.008400    0.097491   76.458100
  H     -5.176220    1.223450   75.354800
  H     -4.787140    1.288310   76.980600
  H     -2.531310   -5.231560   79.465200
  H      0.699871   -1.359830   72.953600

 Total Charge           Charge          ....    0
 Multiplicity           Mult            ....    1
 Number of Electrons    NEL             ....  134
 Basis Dimension        Dim             ....  322

ORBITAL ENERGIES
----------------

  NO   OCC          E(Eh)            E(eV)
   0   2.0000     -88.970799     -2421.0185
   1   2.0000     -88.966382     -2420.8983
   2   2.0000     -10.325838      -280.9803
   3   2.0000     -10.323287      -280.9109
   4   2.0000     -10.318416      -280.7784
   5   2.0000     -10.314279      -280.6658
   6   2.0000     -10.304227      -280.3923
   7   2.0000     -10.303722      -280.3785
   8   2.0000     -10.300869      -280.3009
   9   2.0000     -10.293663      -280.1048
  10   2.0000     -10.288437      -279.9626
  11   2.0000     -10.284517      -279.8559
  12   2.0000     -10.283002      -279.8147
  13   2.0000     -10.282829      -279.8100
  14   2.0000     -10.275772      -279.6180
  15   2.0000     -10.266998      -279.3792
  16   2.0000      -8.086340      -220.0405
  17   2.0000      -8.081422      -219.9067
  18   2.0000      -6.044553      -164.4806
  19   2.0000      -6.040653      -164.3745
  20   2.0000      -6.039804      -164.3514
  21   2.0000      -6.037457      -164.2876
  22   2.0000      -6.035664      -164.2388
  23   2.0000      -6.032490      -164.1524
  24   2.0000      -1.009780       -27.4775
  25   2.0000      -0.987104       -26.8605
  26   2.0000      -0.919250       -25.0141
  27   2.0000      -0.907484       -24.6939
  28   2.0000      -0.870848       -23.6970
  29   2.0000      -0.850836       -23.1524
  30   2.0000      -0.841625       -22.9018
  31   2.0000      -0.805121       -21.9084
  32   2.0000      -0.788979       -21.4692
  33   2.0000      -0.770510       -20.9666
  34   2.0000      -0.707567       -19.2539
  35   2.0000      -0.706497       -19.2248
  36   2.0000      -0.690755       -18.7964
  37   2.0000      -0.659981       -17.9590
  38   2.0000      -0.637821       -17.3560
  39   2.0000      -0.610890       -16.6232
  40   2.0000      -0.595170       -16.1954
  41   2.0000      -0.580654       -15.8004
  42   2.0000      -0.567354       -15.4385
  43   2.0000      -0.553902       -15.0724
  44   2.0000      -0.543590       -14.7918
  45   2.0000      -0.523545       -14.2464
  46   2.0000      -0.507159       -13.8005
  47   2.0000      -0.505261       -13.7489
  48   2.0000      -0.504687       -13.7332
  49   2.0000      -0.500783       -13.6270
  50   2.0000      -0.494740       -13.4626
  51   2.0000      -0.478281       -13.0147
  52   2.0000      -0.469811       -12.7842
  53   2.0000      -0.465435       -12.6651
  54   2.0000      -0.457648       -12.4532
  55   2.0000      -0.447881       -12.1875
  56   2.0000      -0.445237       -12.1155
  57   2.0000      -0.437289       -11.8992
  58   2.0000      -0.432844       -11.7783
  59   2.0000      -0.426433       -11.6038
  60   2.0000      -0.419711       -11.4209
  61   2.0000      -0.416233       -11.3263
  62   2.0000      -0.414173       -11.2702
  63   2.0000      -0.335570        -9.1313
  64   2.0000      -0.331616        -9.0237
  65   2.0000      -0.326218        -8.8768
  66   2.0000      -0.293997        -8.0001
  67   0.0000       0.038349         1.0435
  68   0.0000       0.050758         1.3812
  69   0.0000       0.116908         3.1812
  70   0.0000       0.121351         3.3021
  71   0.0000       0.128587         3.4990

MULLIKEN ATOMIC CHARGES
-----------------------
   0 S :    0.118808
   1 C :   -0.147343
   2 C :   -0.061310
   3 C :    0.004501
   4 C :   -0.205942
   5 H :    0.030644
   6 C :    0.060369
   7 H :    0.040711
   8 H :    0.012308
   9 C :   -0.062693
  10 H :    0.033027
  11 H :    0.015590
  12 C :   -0.019406
  13 H :    0.034245
  14 H :    0.023619
  15 H :    0.019711
  16 S :    0.154513
  17 C :   -0.104263
  18 C :   -0.023642
  19 C :   -0.014942
  20 C :   -0.173146
  21 H :    0.003400
  22 C :    0.057600
  23 H :    0.021864
  24 H :    0.020189
  25 C :   -0.049710
  26 H :    0.030467
  27 H :    0.033741
  28 C :   -0.056796
  29 H :    0.036509
  30 H :    0.023642
  31 H :    0.029813
  32 H :    0.052119
  33 H :    0.061801
Sum of atomic charges:    0.0000000

LOEWDIN ATOMIC CHARGES
----------------------
   0 S :    0.430939
   1 C :   -0.189194
   2 C :   -0.070876
   3 C :   -0.069796
   4 C :   -0.232307
   5 H :    0.035382
   6 C :   -0.037761
   7 H :    0.042196
   8 H :    0.028322
   9 C :   -0.033859
  10 H :    0.029236
  11 H :    0.014503
  12 C :   -0.052719
  13 H :    0.018895
  14 H :    0.025813
  15 H :    0.019781
  16 S :    0.449839
  17 C :   -0.205403
  18 C :   -0.071305
  19 C :   -0.038564
  20 C :   -0.226392
  21 H :    0.025863
  22 C :   -0.039483
  23 H :    0.025833
  24 H :    0.036417
  25 C :   -0.019413
  26 H :    0.016643
  27 H :    0.023087
  28 C :   -0.068540
  29 H :    0.022971
  30 H :    0.023253
  31 H :    0.027063
  32 H :    0.027651
  33 H :    0.031920

  Mayer bond orders larger than 0.100000
B(  0-S ,  1-C ) :   1.1714 B(  0-S ,  4-C ) :   1.1645 B(  1-C ,  2-C ) :   1.5519
B(  1-C ,  4-C ) :   0.1088 B(  1-C , 32-H ) :   0.9688 B(  2-C ,  3-C ) :   1.2868
B(  2-C ,  6-C ) :   1.0257 B(  3-C ,  4-C ) :   1.5377 B(  3-C ,  5-H ) :   0.9759
B(  4-C , 20-C ) :   1.0537 B(  6-C ,  7-H ) :   0.9325 B(  6-C ,  8-H ) :   0.9367
B(  6-C ,  9-C ) :   1.0811 B(  9-C , 10-H ) :   0.9537 B(  9-C , 11-H ) :   0.9566
B(  9-C , 12-C ) :   1.0736 B( 12-C , 13-H ) :   0.9807 B( 12-C , 14-H ) :   0.9748
B( 12-C , 15-H ) :   0.9731 B( 16-S , 17-C ) :   1.1967 B( 16-S , 20-C ) :   1.1559
B( 17-C , 18-C ) :   1.5664 B( 17-C , 20-C ) :   0.1055 B( 17-C , 33-H ) :   0.9605
B( 18-C , 19-C ) :   1.2743 B( 18-C , 21-H ) :   0.9994 B( 19-C , 20-C ) :   1.5270
B( 19-C , 22-C ) :   1.0716 B( 22-C , 23-H ) :   0.9447 B( 22-C , 24-H ) :   0.9112
B( 22-C , 25-C ) :   1.0553 B( 25-C , 26-H ) :   0.9607 B( 25-C , 27-H ) :   0.9627
B( 25-C , 28-C ) :   1.0704 B( 28-C , 29-H ) :   0.9774 B( 28-C , 30-H ) :   0.9774
B( 28-C , 31-H ) :   0.9751

Dispersion correction           -0.014422171
FINAL SINGLE POINT ENERGY     -1339.869795382767

DIPOLE MOMENT
-------------
                                X             Y             Z
Electronic contribution:      5.21281     -10.17738     -16.16322
Nuclear contribution   :     -5.15655      10.47775      16.46529
                        -----------------------------------------
Total Dipole Moment    :      0.05626       0.30037       0.30207
                        -----------------------------------------
Magnitude (a.u.)       :      0.42969
Magnitude (Debye)      :      1.09219

Rotational constants in cm-1:     0.019013     0.008443     0.006985
Rotational constants in MHz :   569.996667   253.124220   209.407140

                             ****ORCA TERMINATED NORMALLY****
TOTAL RUN TIME: 0 days 0 hours 0 minutes 34 seconds 710 msec
