                         Program Version 4.2.1 -  RELEASE  -
|  1> ! wB97X-D3 SP def2-SVP
|  2> %pal
|  3> nprocs 16
|  4> end
|  5>
|  6> * xyz 0 1
|  7> S 	 -73.7881 	 39.5561 	 139.563
|  8> C 	 -74.0779 	 39.3212 	 137.898
|  9> C 	 -73.2068 	 40.0263 	 137.162
| 10> C 	 -72.4046 	 40.9873 	 137.975
| 11> C 	 -72.7107 	 40.9131 	 139.321
| 12> H 	 -71.7092 	 41.7554 	 137.666
| 13> C 	 -73.0861 	 39.8583 	 135.656
| 14> H 	 -73.0836 	 38.7307 	 135.592
| 15> H 	 -72.1344 	 40.2274 	 135.43
| 16> C 	 -74.2275 	 40.3931 	 134.814
| 17> H 	 -75.0521 	 39.6858 	 134.854
| 18> H 	 -74.6658 	 41.3005 	 135.26
| 19> C 	 -73.8938 	 40.8276 	 133.347
| 20> H 	 -74.7576 	 41.3106 	 132.815
| 21> H 	 -72.994 	 41.4701 	 133.252
| 22> H 	 -73.7296 	 39.8732 	 132.81
| 23> S 	 -71.0838 	 40.4664 	 141.45
| 24> C 	 -70.5269 	 41.7789 	 142.444
| 25> C 	 -70.7646 	 42.9343 	 141.725
| 26> C 	 -71.5329 	 42.8693 	 140.507
| 27> C 	 -71.9824 	 41.5856 	 140.367
| 28> H 	 -70.2361 	 43.7698 	 142.108
| 29> C 	 -71.6554 	 44.0634 	 139.632
| 30> H 	 -72.4744 	 43.7798 	 138.999
| 31> H 	 -70.7755 	 44.2206 	 138.992
| 32> C 	 -72.0997 	 45.4188 	 140.185
| 33> H 	 -71.2977 	 45.6945 	 140.923
| 34> H 	 -73.1409 	 45.3307 	 140.622
| 35> C 	 -72.0479 	 46.4385 	 138.992
| 36> H 	 -71.153 	 46.3406 	 138.392
| 37> H 	 -72.2404 	 47.4719 	 139.337
| 38> H 	 -72.8055 	 46.2326 	 138.201
| 39> H 	 -74.6206 	 38.5828 	 137.473
| 40> H 	 -69.8601 	 41.7672 	 143.285
| 41> *
| 42>
| 43>                          ****END OF INPUT****

CARTESIAN COORDINATES (ANGSTROEM)
---------------------------------
  S    -73.788100   39.556100  139.563000
  C    -74.077900   39.321200  137.898000
  C    -73.206800   40.026300  137.162000
  C    -72.404600   40.987300  137.975000
  C    -72.710700   40.913100  139.321000
  H    -71.709200   41.755400  137.666000
  C    -73.086100   39.858300  135.656000
  H    -73.083600   38.730700  135.592000
  H    -72.134400   40.227400  135.430000
  C    -74.227500   40.393100  134.814000
  H    -75.052100   39.685800  134.854000
  H    -74.665800   41.300500  135.260000
  C    -73.893800   40.827600  133.347000
  H    -74.757600   41.310600  132.815000
  H    -72.994000   41.470100  133.252000
  H    -73.729600   39.873200  132.810000
  S    -71.083800   40.466400  141.450000
  C    -70.526900   41.778900  142.444000
  C    -70.764600   42.934300  141.725000
  C    -71.532900   42.869300  140.507000
  C    -71.982400   41.585600  140.367000
  H    -70.236100   43.769800  142.108000
  C    -71.655400   44.063400  139.632000
  H    -72.474400   43.779800  138.999000
  H    -70.775500   44.220600  138.992000
  C    -72.099700   45.418800  140.185000
  H    -71.297700   45.694500  140.923000
  H    -73.140900   45.330700  140.622000
  C    -72.047900   46.438500  138.992000
  H    -71.153000   46.340600  138.392000
  H    -72.240400   47.471900  139.337000
  H    -72.805500   46.232600  138.201000
  H    -74.620600   38.582800  137.473000
  H    -69.860100   41.767200  143.285000

 Total Charge           Charge          ....    0
 Multiplicity           Mult            ....    1
 Number of Electrons    NEL             ....  134
 Basis Dimension        Dim             ....  322

ORBITAL ENERGIES
----------------

  NO   OCC          E(Eh)            E(eV)
   0   2.0000     -88.961929     -2420.7771
   1   2.0000     -88.960873     -2420.7484
   2   2.0000     -10.329587      -281.0823
   3   2.0000     -10.327210      -281.0177
   4   2.0000     -10.313287      -280.6388
   5   2.0000     -10.304297      -280.3942
   6   2.0000     -10.301177      -280.3093
   7   2.0000     -10.300353      -280.2868
   8   2.0000     -10.300349      -280.2867
   9   2.0000     -10.299456      -280.2625
  10   2.0000     -10.291504      -280.0461
  11   2.0000     -10.291068      -280.0342
  12   2.0000     -10.289796      -279.9996
  13   2.0000     -10.288999      -279.9779
  14   2.0000     -10.286771      -279.9173
  15   2.0000     -10.286285      -279.9040
  16   2.0000      -8.077614      -219.8031
  17   2.0000      -8.075337      -219.7411
  18   2.0000      -6.036139      -164.2517
  19   2.0000      -6.034011      -164.1938
  20   2.0000      -6.032012      -164.1394
  21   2.0000      -6.030074      -164.0867
  22   2.0000      -6.028230      -164.0365
  23   2.0000      -6.025700      -163.9676
  24   2.0000      -1.010389       -27.4941
  25   2.0000      -0.987184       -26.8626
  26   2.0000      -0.913835       -24.8667
  27   2.0000      -0.911938       -24.8151
  28   2.0000      -0.876671       -23.8554
  29   2.0000      -0.849997       -23.1296
  30   2.0000      -0.841161       -22.8891
  31   2.0000      -0.816310       -22.2129
  32   2.0000      -0.780885       -21.2490
  33   2.0000      -0.774683       -21.0802
  34   2.0000      -0.711136       -19.3510
  35   2.0000      -0.704842       -19.1797
  36   2.0000      -0.698992       -19.0205
  37   2.0000      -0.659357       -17.9420
  38   2.0000      -0.647500       -17.6194
  39   2.0000      -0.611369       -16.6362
  40   2.0000      -0.596040       -16.2191
  41   2.0000      -0.574457       -15.6318
  42   2.0000      -0.570860       -15.5339
  43   2.0000      -0.560792       -15.2599
  44   2.0000      -0.528920       -14.3927
  45   2.0000      -0.525037       -14.2870
  46   2.0000      -0.521888       -14.2013
  47   2.0000      -0.515618       -14.0307
  48   2.0000      -0.509977       -13.8772
  49   2.0000      -0.498631       -13.5684
  50   2.0000      -0.491345       -13.3702
  51   2.0000      -0.484448       -13.1825
  52   2.0000      -0.473510       -12.8849
  53   2.0000      -0.466419       -12.6919
  54   2.0000      -0.456421       -12.4199
  55   2.0000      -0.447616       -12.1803
  56   2.0000      -0.441869       -12.0239
  57   2.0000      -0.441223       -12.0063
  58   2.0000      -0.438697       -11.9375
  59   2.0000      -0.425391       -11.5755
  60   2.0000      -0.417584       -11.3630
  61   2.0000      -0.412761       -11.2318
  62   2.0000      -0.402156       -10.9432
  63   2.0000      -0.351737        -9.5713
  64   2.0000      -0.326986        -8.8977
  65   2.0000      -0.319988        -8.7073
  66   2.0000      -0.297801        -8.1036
  67   0.0000       0.028111         0.7649
  68   0.0000       0.070234         1.9112
  69   0.0000       0.102264         2.7828
  70   0.0000       0.118674         3.2293
  71   0.0000       0.138678         3.7736

MULLIKEN ATOMIC CHARGES
-----------------------
   0 S :    0.110260
   1 C :   -0.045906
   2 C :   -0.140757
   3 C :    0.036878
   4 C :   -0.170570
   5 H :    0.013599
   6 C :    0.103988
   7 H :    0.037250
   8 H :    0.002542
   9 C :   -0.065722
  10 H :    0.023221
  11 H :    0.032691
  12 C :   -0.085533
  13 H :    0.046722
  14 H :    0.046053
  15 H :    0.033357
  16 S :    0.087159
  17 C :   -0.070948
  18 C :   -0.055374
  19 C :    0.018432
  20 C :   -0.149202
  21 H :    0.000626
  22 C :    0.015523
  23 H :    0.016352
  24 H :    0.045935
  25 C :   -0.084640
  26 H :    0.043295
  27 H :    0.057843
  28 C :   -0.054554
  29 H :    0.022770
  30 H :    0.046670
  31 H :    0.027091
  32 H :    0.002001
  33 H :    0.052947
Sum of atomic charges:   -0.0000000

LOEWDIN ATOMIC CHARGES
----------------------
   0 S :    0.419321
   1 C :   -0.190878
   2 C :   -0.058143
   3 C :   -0.057902
   4 C :   -0.204209
   5 H :    0.029415
   6 C :   -0.030371
   7 H :    0.040752
   8 H :    0.020148
   9 C :   -0.045997
  10 H :    0.022966
  11 H :    0.025301
  12 C :   -0.073203
  13 H :    0.032996
  14 H :    0.027852
  15 H :    0.025591
  16 S :    0.386106
  17 C :   -0.189201
  18 C :   -0.068953
  19 C :   -0.058071
  20 C :   -0.171286
  21 H :    0.019733
  22 C :   -0.043977
  23 H :    0.029418
  24 H :    0.036065
  25 C :   -0.037531
  26 H :    0.026689
  27 H :    0.037602
  28 C :   -0.072094
  29 H :    0.022415
  30 H :    0.029742
  31 H :    0.028503
  32 H :    0.010022
  33 H :    0.031181

  Mayer bond orders larger than 0.100000
B(  0-S ,  1-C ) :   1.1291 B(  0-S ,  4-C ) :   1.1483 B(  1-C ,  2-C ) :   1.6411
B(  1-C , 32-H ) :   0.9814 B(  2-C ,  3-C ) :   1.2069 B(  2-C ,  6-C ) :   1.0181
B(  3-C ,  4-C ) :   1.5756 B(  3-C ,  5-H ) :   0.9944 B(  4-C , 20-C ) :   1.0497
B(  6-C ,  7-H ) :   0.9396 B(  6-C ,  8-H ) :   0.9416 B(  6-C ,  9-C ) :   1.0488
B(  9-C , 10-H ) :   0.9524 B(  9-C , 11-H ) :   0.9645 B(  9-C , 12-C ) :   1.0757
B( 12-C , 13-H ) :   0.9757 B( 12-C , 14-H ) :   0.9776 B( 12-C , 15-H ) :   0.9777
B( 16-S , 17-C ) :   1.1256 B( 16-S , 20-C ) :   1.1433 B( 17-C , 18-C ) :   1.6444
B( 17-C , 33-H ) :   0.9693 B( 18-C , 19-C ) :   1.1958 B( 18-C , 21-H ) :   0.9891
B( 19-C , 20-C ) :   1.6091 B( 19-C , 22-C ) :   1.0440 B( 22-C , 23-H ) :   0.9254
B( 22-C , 24-H ) :   0.9326 B( 22-C , 25-C ) :   1.0676 B( 25-C , 26-H ) :   0.9527
B( 25-C , 27-H ) :   0.9548 B( 25-C , 28-C ) :   1.0715 B( 28-C , 29-H ) :   0.9722
B( 28-C , 30-H ) :   0.9750 B( 28-C , 31-H ) :   0.9737

Dispersion correction           -0.013169044
FINAL SINGLE POINT ENERGY     -1339.849243925577

DIPOLE MOMENT
-------------
                                X             Y             Z
Electronic contribution:      2.67717     -18.77012      23.74647
Nuclear contribution   :     -2.41787      19.20511     -24.37770
                        -----------------------------------------
Total Dipole Moment    :      0.25930       0.43500      -0.63123
                        -----------------------------------------
Magnitude (a.u.)       :      0.80927
Magnitude (Debye)      :      2.05699

Rotational constants in cm-1:     0.016974     0.008201     0.005957
Rotational constants in MHz :   508.858609   245.870577   178.593681

                             ****ORCA TERMINATED NORMALLY****
TOTAL RUN TIME: 0 days 0 hours 0 minutes 33 seconds 378 msec
