                         Program Version 4.2.1 -  RELEASE  -
|  1> ! wB97X-D3 SP def2-SVP
|  2> %pal
|  3> nprocs 16
|  4> end
|  5>
|  6> * xyz 0 1
|  7> S 	 -8.97325 	 16.4292 	 82.3255
|  8> C 	 -9.1232 	 16.1764 	 80.6165
|  9> C 	 -8.16631 	 16.9162 	 79.9483
| 10> C 	 -7.25753 	 17.6152 	 80.8301
| 11> C 	 -7.54535 	 17.3875 	 82.1722
| 12> H 	 -6.36896 	 18.2789 	 80.4863
| 13> C 	 -7.9081 	 17.005 	 78.4447
| 14> H 	 -7.86358 	 15.9923 	 78.068
| 15> H 	 -6.95452 	 17.4693 	 78.2303
| 16> C 	 -8.99027 	 17.8674 	 77.6527
| 17> H 	 -8.60086 	 17.9932 	 76.6184
| 18> H 	 -9.86377 	 17.2455 	 77.5448
| 19> C 	 -9.40069 	 19.1756 	 78.2702
| 20> H 	 -8.50532 	 19.8024 	 78.2816
| 21> H 	 -10.1465 	 19.7191 	 77.7627
| 22> H 	 -9.73821 	 18.9302 	 79.3049
| 23> S 	 -7.97359 	 19.0873 	 84.3612
| 24> C 	 -6.56598 	 19.5822 	 85.2824
| 25> C 	 -5.35503 	 19.1937 	 84.6997
| 26> C 	 -5.54672 	 18.3661 	 83.5382
| 27> C 	 -6.8874 	 18.1684 	 83.2332
| 28> H 	 -4.41184 	 19.5224 	 85.1117
| 29> C 	 -4.282 	 17.8714 	 82.8167
| 30> H 	 -3.66372 	 18.7466 	 82.6492
| 31> H 	 -4.54761 	 17.4298 	 81.8406
| 32> C 	 -3.31853 	 16.8974 	 83.5457
| 33> H 	 -3.86575 	 16.0173 	 83.9776
| 34> H 	 -2.86365 	 17.4135 	 84.3963
| 35> C 	 -2.24166 	 16.2986 	 82.5939
| 36> H 	 -1.58941 	 17.0483 	 82.0572
| 37> H 	 -2.89924 	 15.7114 	 81.8599
| 38> H 	 -1.65499 	 15.5427 	 83.0879
| 39> H 	 -9.82834 	 15.3699 	 80.1997
| 40> H 	 -6.58267 	 20.2384 	 86.1524
| 41> *
| 42>
| 43>                          ****END OF INPUT****

CARTESIAN COORDINATES (ANGSTROEM)
---------------------------------
  S     -8.973250   16.429200   82.325500
  C     -9.123200   16.176400   80.616500
  C     -8.166310   16.916200   79.948300
  C     -7.257530   17.615200   80.830100
  C     -7.545350   17.387500   82.172200
  H     -6.368960   18.278900   80.486300
  C     -7.908100   17.005000   78.444700
  H     -7.863580   15.992300   78.068000
  H     -6.954520   17.469300   78.230300
  C     -8.990270   17.867400   77.652700
  H     -8.600860   17.993200   76.618400
  H     -9.863770   17.245500   77.544800
  C     -9.400690   19.175600   78.270200
  H     -8.505320   19.802400   78.281600
  H    -10.146500   19.719100   77.762700
  H     -9.738210   18.930200   79.304900
  S     -7.973590   19.087300   84.361200
  C     -6.565980   19.582200   85.282400
  C     -5.355030   19.193700   84.699700
  C     -5.546720   18.366100   83.538200
  C     -6.887400   18.168400   83.233200
  H     -4.411840   19.522400   85.111700
  C     -4.282000   17.871400   82.816700
  H     -3.663720   18.746600   82.649200
  H     -4.547610   17.429800   81.840600
  C     -3.318530   16.897400   83.545700
  H     -3.865750   16.017300   83.977600
  H     -2.863650   17.413500   84.396300
  C     -2.241660   16.298600   82.593900
  H     -1.589410   17.048300   82.057200
  H     -2.899240   15.711400   81.859900
  H     -1.654990   15.542700   83.087900
  H     -9.828340   15.369900   80.199700
  H     -6.582670   20.238400   86.152400

 Total Charge           Charge          ....    0
 Multiplicity           Mult            ....    1
 Number of Electrons    NEL             ....  134
 Basis Dimension        Dim             ....  322

ORBITAL ENERGIES
----------------

  NO   OCC          E(Eh)            E(eV)
   0   2.0000     -88.969026     -2420.9703
   1   2.0000     -88.967356     -2420.9248
   2   2.0000     -10.334009      -281.2027
   3   2.0000     -10.329978      -281.0930
   4   2.0000     -10.322646      -280.8935
   5   2.0000     -10.319399      -280.8051
   6   2.0000     -10.307661      -280.4857
   7   2.0000     -10.305244      -280.4200
   8   2.0000     -10.301698      -280.3235
   9   2.0000     -10.295985      -280.1680
  10   2.0000     -10.295145      -280.1451
  11   2.0000     -10.293381      -280.0971
  12   2.0000     -10.292346      -280.0690
  13   2.0000     -10.289626      -279.9950
  14   2.0000     -10.285230      -279.8753
  15   2.0000     -10.270483      -279.4740
  16   2.0000      -8.084252      -219.9837
  17   2.0000      -8.081001      -219.8952
  18   2.0000      -6.042738      -164.4312
  19   2.0000      -6.039592      -164.3456
  20   2.0000      -6.038593      -164.3185
  21   2.0000      -6.035784      -164.2420
  22   2.0000      -6.035087      -164.2231
  23   2.0000      -6.031615      -164.1286
  24   2.0000      -1.004920       -27.3453
  25   2.0000      -0.978954       -26.6387
  26   2.0000      -0.906061       -24.6552
  27   2.0000      -0.902506       -24.5584
  28   2.0000      -0.865530       -23.5523
  29   2.0000      -0.850073       -23.1317
  30   2.0000      -0.844194       -22.9717
  31   2.0000      -0.806933       -21.9578
  32   2.0000      -0.781175       -21.2568
  33   2.0000      -0.771639       -20.9974
  34   2.0000      -0.699130       -19.0243
  35   2.0000      -0.695861       -18.9353
  36   2.0000      -0.686926       -18.6922
  37   2.0000      -0.659871       -17.9560
  38   2.0000      -0.635603       -17.2956
  39   2.0000      -0.608892       -16.5688
  40   2.0000      -0.590809       -16.0767
  41   2.0000      -0.569563       -15.4986
  42   2.0000      -0.565005       -15.3746
  43   2.0000      -0.550203       -14.9718
  44   2.0000      -0.543268       -14.7831
  45   2.0000      -0.520061       -14.1516
  46   2.0000      -0.512234       -13.9386
  47   2.0000      -0.507957       -13.8222
  48   2.0000      -0.501196       -13.6382
  49   2.0000      -0.493343       -13.4245
  50   2.0000      -0.484363       -13.1802
  51   2.0000      -0.481397       -13.0995
  52   2.0000      -0.468185       -12.7400
  53   2.0000      -0.462386       -12.5822
  54   2.0000      -0.457059       -12.4372
  55   2.0000      -0.448476       -12.2037
  56   2.0000      -0.444752       -12.1023
  57   2.0000      -0.438587       -11.9345
  58   2.0000      -0.431011       -11.7284
  59   2.0000      -0.420930       -11.4541
  60   2.0000      -0.419550       -11.4165
  61   2.0000      -0.414606       -11.2820
  62   2.0000      -0.409618       -11.1463
  63   2.0000      -0.349473        -9.5097
  64   2.0000      -0.332460        -9.0467
  65   2.0000      -0.328275        -8.9328
  66   2.0000      -0.290554        -7.9064
  67   0.0000       0.029795         0.8108
  68   0.0000       0.067337         1.8323
  69   0.0000       0.104538         2.8446
  70   0.0000       0.116633         3.1737
  71   0.0000       0.133351         3.6287

MULLIKEN ATOMIC CHARGES
-----------------------
   0 S :    0.115692
   1 C :   -0.160140
   2 C :   -0.105221
   3 C :   -0.014674
   4 C :   -0.141450
   5 H :    0.060762
   6 C :    0.078251
   7 H :    0.034146
   8 H :    0.016931
   9 C :   -0.099012
  10 H :    0.029924
  11 H :    0.019190
  12 C :   -0.029831
  13 H :    0.023024
  14 H :    0.030047
  15 H :    0.053384
  16 S :    0.101871
  17 C :   -0.094959
  18 C :   -0.037419
  19 C :   -0.010320
  20 C :   -0.165209
  21 H :    0.019737
  22 C :    0.059264
  23 H :    0.029530
  24 H :    0.014040
  25 C :   -0.091223
  26 H :    0.041797
  27 H :    0.026475
  28 C :   -0.080154
  29 H :    0.048710
  30 H :    0.039582
  31 H :    0.039124
  32 H :    0.088449
  33 H :    0.059682
Sum of atomic charges:    0.0000000

LOEWDIN ATOMIC CHARGES
----------------------
   0 S :    0.426142
   1 C :   -0.221111
   2 C :   -0.068639
   3 C :   -0.072213
   4 C :   -0.210365
   5 H :    0.049023
   6 C :   -0.026310
   7 H :    0.032237
   8 H :    0.025114
   9 C :   -0.041068
  10 H :    0.023454
  11 H :    0.015440
  12 C :   -0.064096
  13 H :    0.024525
  14 H :    0.020687
  15 H :    0.035100
  16 S :    0.376270
  17 C :   -0.183379
  18 C :   -0.068647
  19 C :   -0.054971
  20 C :   -0.173698
  21 H :    0.030329
  22 C :   -0.032828
  23 H :    0.033205
  24 H :    0.025832
  25 C :   -0.043959
  26 H :    0.030776
  27 H :    0.016869
  28 C :   -0.072154
  29 H :    0.029563
  30 H :    0.034580
  31 H :    0.024126
  32 H :    0.050045
  33 H :    0.030123

  Mayer bond orders larger than 0.100000
B(  0-S ,  1-C ) :   1.1391 B(  0-S ,  4-C ) :   1.1707 B(  1-C ,  2-C ) :   1.5828
B(  1-C , 32-H ) :   0.9611 B(  2-C ,  3-C ) :   1.2683 B(  2-C ,  6-C ) :   1.0165
B(  3-C ,  4-C ) :   1.5424 B(  3-C ,  5-H ) :   0.9721 B(  4-C , 20-C ) :   1.0396
B(  6-C ,  7-H ) :   0.9453 B(  6-C ,  8-H ) :   0.9475 B(  6-C ,  9-C ) :   1.0578
B(  9-C , 10-H ) :   0.9597 B(  9-C , 11-H ) :   0.9585 B(  9-C , 12-C ) :   1.0827
B( 12-C , 13-H ) :   0.9758 B( 12-C , 14-H ) :   0.9734 B( 12-C , 15-H ) :   0.9654
B( 16-S , 17-C ) :   1.1452 B( 16-S , 20-C ) :   1.1178 B( 17-C , 18-C ) :   1.6320
B( 17-C , 33-H ) :   0.9639 B( 18-C , 19-C ) :   1.2146 B( 18-C , 21-H ) :   0.9892
B( 19-C , 20-C ) :   1.6350 B( 19-C , 22-C ) :   1.0410 B( 22-C , 23-H ) :   0.9335
B( 22-C , 24-H ) :   0.9366 B( 22-C , 25-C ) :   1.0607 B( 25-C , 26-H ) :   0.9575
B( 25-C , 27-H ) :   0.9535 B( 25-C , 28-C ) :   1.0755 B( 28-C , 29-H ) :   0.9752
B( 28-C , 30-H ) :   0.9753 B( 28-C , 31-H ) :   0.9752

Dispersion correction           -0.013971939
FINAL SINGLE POINT ENERGY     -1339.882194204216

DIPOLE MOMENT
-------------
                                X             Y             Z
Electronic contribution:    -15.54889       0.96283      17.93784
Nuclear contribution   :     16.03799      -0.94856     -18.34106
                        -----------------------------------------
Total Dipole Moment    :      0.48910       0.01427      -0.40322
                        -----------------------------------------
Magnitude (a.u.)       :      0.63404
Magnitude (Debye)      :      1.61160

Rotational constants in cm-1:     0.017437     0.008386     0.006823
Rotational constants in MHz :   522.755759   251.396436   204.548406

                             ****ORCA TERMINATED NORMALLY****
TOTAL RUN TIME: 0 days 0 hours 0 minutes 34 seconds 66 msec
