                         Program Version 4.2.1 -  RELEASE  -
|  1> ! wB97X-D3 SP def2-SVP
|  2> %pal
|  3> nprocs 16
|  4> end
|  5>
|  6> * xyz 0 1
|  7> S 	 1.35179 	 -17.0983 	 84.9232
|  8> C 	 -0.205856 	 -17.5791 	 85.1884
|  9> C 	 -0.907471 	 -16.7574 	 86.0771
| 10> C 	 0.051115 	 -16.0244 	 86.8083
| 11> C 	 1.33811 	 -16.0454 	 86.3274
| 12> H 	 -0.073834 	 -15.247 	 87.5072
| 13> C 	 -2.33879 	 -16.8529 	 86.4106
| 14> H 	 -2.81357 	 -16.6272 	 85.4401
| 15> H 	 -2.58173 	 -16.0218 	 87.0278
| 16> C 	 -2.85812 	 -18.1726 	 86.984
| 17> H 	 -2.16373 	 -18.9311 	 86.6813
| 18> H 	 -2.76279 	 -18.0708 	 88.127
| 19> C 	 -4.31462 	 -18.41 	 86.458
| 20> H 	 -5.03789 	 -17.6871 	 86.8907
| 21> H 	 -4.44257 	 -18.3783 	 85.3724
| 22> H 	 -4.7864 	 -19.254 	 86.7785
| 23> S 	 3.16961 	 -14.1791 	 85.6445
| 24> C 	 4.46807 	 -13.8651 	 86.756
| 25> C 	 4.2064 	 -14.2679 	 88.0065
| 26> C 	 3.0695 	 -15.164 	 87.9986
| 27> C 	 2.47333 	 -15.2737 	 86.8063
| 28> H 	 4.90146 	 -14.1096 	 88.7574
| 29> C 	 2.76762 	 -16.0857 	 89.1623
| 30> H 	 3.43147 	 -15.7859 	 90.0057
| 31> H 	 3.24162 	 -17.0514 	 88.8692
| 32> C 	 1.33118 	 -16.0696 	 89.7737
| 33> H 	 0.734108 	 -16.6488 	 89.0423
| 34> H 	 0.991951 	 -14.9599 	 89.9085
| 35> C 	 1.31931 	 -16.9416 	 91.0729
| 36> H 	 1.96129 	 -16.6566 	 91.9055
| 37> H 	 1.64962 	 -17.9779 	 90.9093
| 38> H 	 0.317685 	 -17.0707 	 91.4315
| 39> H 	 -0.795927 	 -18.199 	 84.5609
| 40> H 	 5.28194 	 -13.1577 	 86.5101
| 41> *
| 42>
| 43>                          ****END OF INPUT****

CARTESIAN COORDINATES (ANGSTROEM)
---------------------------------
  S      1.351790  -17.098300   84.923200
  C     -0.205856  -17.579100   85.188400
  C     -0.907471  -16.757400   86.077100
  C      0.051115  -16.024400   86.808300
  C      1.338110  -16.045400   86.327400
  H     -0.073834  -15.247000   87.507200
  C     -2.338790  -16.852900   86.410600
  H     -2.813570  -16.627200   85.440100
  H     -2.581730  -16.021800   87.027800
  C     -2.858120  -18.172600   86.984000
  H     -2.163730  -18.931100   86.681300
  H     -2.762790  -18.070800   88.127000
  C     -4.314620  -18.410000   86.458000
  H     -5.037890  -17.687100   86.890700
  H     -4.442570  -18.378300   85.372400
  H     -4.786400  -19.254000   86.778500
  S      3.169610  -14.179100   85.644500
  C      4.468070  -13.865100   86.756000
  C      4.206400  -14.267900   88.006500
  C      3.069500  -15.164000   87.998600
  C      2.473330  -15.273700   86.806300
  H      4.901460  -14.109600   88.757400
  C      2.767620  -16.085700   89.162300
  H      3.431470  -15.785900   90.005700
  H      3.241620  -17.051400   88.869200
  C      1.331180  -16.069600   89.773700
  H      0.734108  -16.648800   89.042300
  H      0.991951  -14.959900   89.908500
  C      1.319310  -16.941600   91.072900
  H      1.961290  -16.656600   91.905500
  H      1.649620  -17.977900   90.909300
  H      0.317685  -17.070700   91.431500
  H     -0.795927  -18.199000   84.560900
  H      5.281940  -13.157700   86.510100

 Total Charge           Charge          ....    0
 Multiplicity           Mult            ....    1
 Number of Electrons    NEL             ....  134
 Basis Dimension        Dim             ....  322

ORBITAL ENERGIES
----------------

  NO   OCC          E(Eh)            E(eV)
   0   2.0000     -88.966247     -2420.8947
   1   2.0000     -88.957062     -2420.6447
   2   2.0000     -10.320820      -280.8438
   3   2.0000     -10.315641      -280.7029
   4   2.0000     -10.311419      -280.5880
   5   2.0000     -10.304373      -280.3962
   6   2.0000     -10.299058      -280.2516
   7   2.0000     -10.297460      -280.2081
   8   2.0000     -10.295667      -280.1593
   9   2.0000     -10.294914      -280.1389
  10   2.0000     -10.291667      -280.0505
  11   2.0000     -10.285257      -279.8761
  12   2.0000     -10.285097      -279.8717
  13   2.0000     -10.283728      -279.8345
  14   2.0000     -10.278811      -279.7007
  15   2.0000     -10.277089      -279.6538
  16   2.0000      -8.082491      -219.9358
  17   2.0000      -8.073042      -219.6786
  18   2.0000      -6.040695      -164.3757
  19   2.0000      -6.036673      -164.2662
  20   2.0000      -6.033589      -164.1823
  21   2.0000      -6.031512      -164.1258
  22   2.0000      -6.027594      -164.0192
  23   2.0000      -6.023550      -163.9091
  24   2.0000      -1.016420       -27.6582
  25   2.0000      -0.995552       -27.0903
  26   2.0000      -0.915901       -24.9229
  27   2.0000      -0.900085       -24.4926
  28   2.0000      -0.874397       -23.7936
  29   2.0000      -0.854212       -23.2443
  30   2.0000      -0.846120       -23.0241
  31   2.0000      -0.820629       -22.3305
  32   2.0000      -0.782629       -21.2964
  33   2.0000      -0.769488       -20.9388
  34   2.0000      -0.713755       -19.4223
  35   2.0000      -0.705789       -19.2055
  36   2.0000      -0.690859       -18.7992
  37   2.0000      -0.665494       -18.1090
  38   2.0000      -0.648918       -17.6579
  39   2.0000      -0.613297       -16.6887
  40   2.0000      -0.589383       -16.0379
  41   2.0000      -0.580137       -15.7863
  42   2.0000      -0.560649       -15.2560
  43   2.0000      -0.557135       -15.1604
  44   2.0000      -0.527840       -14.3633
  45   2.0000      -0.518644       -14.1130
  46   2.0000      -0.512659       -13.9502
  47   2.0000      -0.508388       -13.8340
  48   2.0000      -0.505833       -13.7644
  49   2.0000      -0.500129       -13.6092
  50   2.0000      -0.494795       -13.4641
  51   2.0000      -0.479063       -13.0360
  52   2.0000      -0.473676       -12.8894
  53   2.0000      -0.463855       -12.6221
  54   2.0000      -0.460460       -12.5298
  55   2.0000      -0.447927       -12.1887
  56   2.0000      -0.441969       -12.0266
  57   2.0000      -0.438326       -11.9275
  58   2.0000      -0.433600       -11.7988
  59   2.0000      -0.430153       -11.7051
  60   2.0000      -0.421147       -11.4600
  61   2.0000      -0.414911       -11.2903
  62   2.0000      -0.407868       -11.0987
  63   2.0000      -0.347633        -9.4596
  64   2.0000      -0.328256        -8.9323
  65   2.0000      -0.326789        -8.8924
  66   2.0000      -0.293643        -7.9904
  67   0.0000       0.036717         0.9991
  68   0.0000       0.068449         1.8626
  69   0.0000       0.112301         3.0559
  70   0.0000       0.126752         3.4491
  71   0.0000       0.135412         3.6847

MULLIKEN ATOMIC CHARGES
-----------------------
   0 S :    0.149128
   1 C :   -0.087759
   2 C :   -0.136695
   3 C :    0.054600
   4 C :   -0.183579
   5 H :   -0.002942
   6 C :    0.083950
   7 H :    0.028064
   8 H :    0.011788
   9 C :   -0.055895
  10 H :    0.029425
  11 H :    0.048384
  12 C :   -0.032495
  13 H :    0.027073
  14 H :    0.037538
  15 H :    0.004562
  16 S :    0.092135
  17 C :   -0.093959
  18 C :    0.004479
  19 C :   -0.049460
  20 C :   -0.158701
  21 H :   -0.004347
  22 C :    0.025099
  23 H :    0.008372
  24 H :    0.049569
  25 C :   -0.110208
  26 H :    0.065912
  27 H :    0.060759
  28 C :   -0.036628
  29 H :    0.028474
  30 H :    0.022664
  31 H :    0.026063
  32 H :    0.032671
  33 H :    0.061962
Sum of atomic charges:    0.0000000

LOEWDIN ATOMIC CHARGES
----------------------
   0 S :    0.455298
   1 C :   -0.222191
   2 C :   -0.068201
   3 C :   -0.056102
   4 C :   -0.208214
   5 H :    0.024298
   6 C :   -0.036968
   7 H :    0.036319
   8 H :    0.026826
   9 C :   -0.033734
  10 H :    0.019672
  11 H :    0.038514
  12 C :   -0.066013
  13 H :    0.033019
  14 H :    0.028144
  15 H :    0.010920
  16 S :    0.394346
  17 C :   -0.178060
  18 C :   -0.064135
  19 C :   -0.062329
  20 C :   -0.198793
  21 H :    0.022558
  22 C :   -0.041836
  23 H :    0.026321
  24 H :    0.041078
  25 C :   -0.046435
  26 H :    0.032934
  27 H :    0.039235
  28 C :   -0.072303
  29 H :    0.021984
  30 H :    0.029045
  31 H :    0.021944
  32 H :    0.020647
  33 H :    0.032211

  Mayer bond orders larger than 0.100000
B(  0-S ,  1-C ) :   1.1982 B(  0-S ,  4-C ) :   1.1521 B(  1-C ,  2-C ) :   1.5436
B(  1-C ,  4-C ) :   0.1055 B(  1-C , 32-H ) :   0.9636 B(  2-C ,  3-C ) :   1.2695
B(  2-C ,  6-C ) :   1.0418 B(  3-C ,  4-C ) :   1.5662 B(  3-C ,  5-H ) :   0.9845
B(  4-C , 20-C ) :   1.0286 B(  6-C ,  7-H ) :   0.9309 B(  6-C ,  8-H ) :   0.9337
B(  6-C ,  9-C ) :   1.0432 B(  9-C , 10-H ) :   0.9662 B(  9-C , 11-H ) :   0.9552
B(  9-C , 12-C ) :   1.0637 B( 12-C , 13-H ) :   0.9724 B( 12-C , 14-H ) :   0.9783
B( 12-C , 15-H ) :   0.9733 B( 16-S , 17-C ) :   1.1425 B( 16-S , 20-C ) :   1.1240
B( 17-C , 18-C ) :   1.6607 B( 17-C , 33-H ) :   0.9586 B( 18-C , 19-C ) :   1.1932
B( 18-C , 21-H ) :   1.0020 B( 19-C , 20-C ) :   1.6765 B( 19-C , 22-C ) :   1.0330
B( 22-C , 23-H ) :   0.9402 B( 22-C , 24-H ) :   0.9361 B( 22-C , 25-C ) :   1.0495
B( 25-C , 26-H ) :   0.9412 B( 25-C , 27-H ) :   0.9526 B( 25-C , 28-C ) :   1.0750
B( 28-C , 29-H ) :   0.9757 B( 28-C , 30-H ) :   0.9712 B( 28-C , 31-H ) :   0.9751

Dispersion correction           -0.014440342
FINAL SINGLE POINT ENERGY     -1339.846932517217

DIPOLE MOMENT
-------------
                                X             Y             Z
Electronic contribution:     20.45730      10.67469     -19.52666
Nuclear contribution   :    -20.83272     -10.78733      19.95817
                        -----------------------------------------
Total Dipole Moment    :     -0.37542      -0.11264       0.43151
                        -----------------------------------------
Magnitude (a.u.)       :      0.58294
Magnitude (Debye)      :      1.48172

Rotational constants in cm-1:     0.020355     0.008557     0.006539
Rotational constants in MHz :   610.236854   256.531181   196.048347

                             ****ORCA TERMINATED NORMALLY****
TOTAL RUN TIME: 0 days 0 hours 0 minutes 34 seconds 429 msec
