                         Program Version 4.2.1 -  RELEASE  -
|  1> ! wB97X-D3 SP def2-SVP
|  2> %pal
|  3> nprocs 16
|  4> end
|  5>
|  6> * xyz 0 1
|  7> S 	 61.3551 	 16.5997 	 79.5922
|  8> C 	 62.3857 	 15.4136 	 80.2623
|  9> C 	 62.9139 	 14.737 	 79.2297
| 10> C 	 62.2288 	 14.9524 	 78.0244
| 11> C 	 61.3449 	 16.0151 	 78.0111
| 12> H 	 62.3863 	 14.4463 	 77.0698
| 13> C 	 63.9651 	 13.6895 	 79.3458
| 14> H 	 64.8493 	 14.1974 	 79.6743
| 15> H 	 64.2509 	 13.4546 	 78.278
| 16> C 	 63.5942 	 12.4257 	 80.1182
| 17> H 	 62.801 	 11.8788 	 79.5981
| 18> H 	 64.5465 	 11.8764 	 79.991
| 19> C 	 63.3533 	 12.4953 	 81.5875
| 20> H 	 62.3912 	 13.0405 	 81.7532
| 21> H 	 63.417 	 11.4968 	 81.9904
| 22> H 	 64.0191 	 13.1989 	 82.104
| 23> S 	 58.7568 	 15.6702 	 77.1453
| 24> C 	 58.1664 	 16.524 	 75.6946
| 25> C 	 59.2534 	 17.2798 	 75.1799
| 26> C 	 60.4744 	 17.2635 	 75.9697
| 27> C 	 60.3289 	 16.4377 	 77.0539
| 28> H 	 59.1801 	 17.7763 	 74.2525
| 29> C 	 61.7204 	 17.9594 	 75.6772
| 30> H 	 61.8806 	 17.6502 	 74.5979
| 31> H 	 62.4668 	 17.3678 	 76.1288
| 32> C 	 61.6418 	 19.5039 	 75.7994
| 33> H 	 60.8486 	 19.9789 	 75.2098
| 34> H 	 62.6539 	 19.8811 	 75.437
| 35> C 	 61.6238 	 20.0411 	 77.2656
| 36> H 	 62.5263 	 19.7352 	 77.8771
| 37> H 	 60.6695 	 19.7023 	 77.8136
| 38> H 	 61.6004 	 21.0877 	 77.3692
| 39> H 	 62.8026 	 15.3239 	 81.2352
| 40> H 	 57.1508 	 16.4539 	 75.2757
| 41> *
| 42>
| 43>                          ****END OF INPUT****

CARTESIAN COORDINATES (ANGSTROEM)
---------------------------------
  S     61.355100   16.599700   79.592200
  C     62.385700   15.413600   80.262300
  C     62.913900   14.737000   79.229700
  C     62.228800   14.952400   78.024400
  C     61.344900   16.015100   78.011100
  H     62.386300   14.446300   77.069800
  C     63.965100   13.689500   79.345800
  H     64.849300   14.197400   79.674300
  H     64.250900   13.454600   78.278000
  C     63.594200   12.425700   80.118200
  H     62.801000   11.878800   79.598100
  H     64.546500   11.876400   79.991000
  C     63.353300   12.495300   81.587500
  H     62.391200   13.040500   81.753200
  H     63.417000   11.496800   81.990400
  H     64.019100   13.198900   82.104000
  S     58.756800   15.670200   77.145300
  C     58.166400   16.524000   75.694600
  C     59.253400   17.279800   75.179900
  C     60.474400   17.263500   75.969700
  C     60.328900   16.437700   77.053900
  H     59.180100   17.776300   74.252500
  C     61.720400   17.959400   75.677200
  H     61.880600   17.650200   74.597900
  H     62.466800   17.367800   76.128800
  C     61.641800   19.503900   75.799400
  H     60.848600   19.978900   75.209800
  H     62.653900   19.881100   75.437000
  C     61.623800   20.041100   77.265600
  H     62.526300   19.735200   77.877100
  H     60.669500   19.702300   77.813600
  H     61.600400   21.087700   77.369200
  H     62.802600   15.323900   81.235200
  H     57.150800   16.453900   75.275700

 Total Charge           Charge          ....    0
 Multiplicity           Mult            ....    1
 Number of Electrons    NEL             ....  134
 Basis Dimension        Dim             ....  322

ORBITAL ENERGIES
----------------

  NO   OCC          E(Eh)            E(eV)
   0   2.0000     -88.963399     -2420.8172
   1   2.0000     -88.958569     -2420.6857
   2   2.0000     -10.327934      -281.0374
   3   2.0000     -10.322105      -280.8788
   4   2.0000     -10.320023      -280.8221
   5   2.0000     -10.302938      -280.3572
   6   2.0000     -10.299975      -280.2766
   7   2.0000     -10.298731      -280.2427
   8   2.0000     -10.297042      -280.1968
   9   2.0000     -10.290478      -280.0182
  10   2.0000     -10.288299      -279.9588
  11   2.0000     -10.287929      -279.9488
  12   2.0000     -10.286850      -279.9194
  13   2.0000     -10.286147      -279.9003
  14   2.0000     -10.280092      -279.7355
  15   2.0000     -10.280092      -279.7355
  16   2.0000      -8.077520      -219.8005
  17   2.0000      -8.075165      -219.7364
  18   2.0000      -6.036147      -164.2519
  19   2.0000      -6.033495      -164.1797
  20   2.0000      -6.032039      -164.1401
  21   2.0000      -6.029123      -164.0608
  22   2.0000      -6.028241      -164.0368
  23   2.0000      -6.026222      -163.9818
  24   2.0000      -1.019147       -27.7324
  25   2.0000      -0.986381       -26.8408
  26   2.0000      -0.918427       -24.9917
  27   2.0000      -0.907851       -24.7039
  28   2.0000      -0.871790       -23.7226
  29   2.0000      -0.849332       -23.1115
  30   2.0000      -0.843588       -22.9552
  31   2.0000      -0.814767       -22.1709
  32   2.0000      -0.787093       -21.4179
  33   2.0000      -0.774761       -21.0823
  34   2.0000      -0.706703       -19.2304
  35   2.0000      -0.700775       -19.0691
  36   2.0000      -0.695421       -18.9234
  37   2.0000      -0.661245       -17.9934
  38   2.0000      -0.644290       -17.5320
  39   2.0000      -0.615181       -16.7399
  40   2.0000      -0.594837       -16.1863
  41   2.0000      -0.578472       -15.7410
  42   2.0000      -0.551720       -15.0131
  43   2.0000      -0.546633       -14.8746
  44   2.0000      -0.540678       -14.7126
  45   2.0000      -0.537476       -14.6255
  46   2.0000      -0.528039       -14.3687
  47   2.0000      -0.522314       -14.2129
  48   2.0000      -0.507935       -13.8216
  49   2.0000      -0.495171       -13.4743
  50   2.0000      -0.485935       -13.2230
  51   2.0000      -0.481157       -13.0929
  52   2.0000      -0.473800       -12.8927
  53   2.0000      -0.467195       -12.7130
  54   2.0000      -0.460523       -12.5315
  55   2.0000      -0.442779       -12.0486
  56   2.0000      -0.437003       -11.8915
  57   2.0000      -0.433433       -11.7943
  58   2.0000      -0.431852       -11.7513
  59   2.0000      -0.427696       -11.6382
  60   2.0000      -0.417167       -11.3517
  61   2.0000      -0.403448       -10.9784
  62   2.0000      -0.399046       -10.8586
  63   2.0000      -0.332320        -9.0429
  64   2.0000      -0.323240        -8.7958
  65   2.0000      -0.321061        -8.7365
  66   2.0000      -0.314795        -8.5660
  67   0.0000       0.045388         1.2351
  68   0.0000       0.055758         1.5172
  69   0.0000       0.114355         3.1118
  70   0.0000       0.120116         3.2685
  71   0.0000       0.132032         3.5928

MULLIKEN ATOMIC CHARGES
-----------------------
   0 S :    0.120434
   1 C :   -0.105828
   2 C :   -0.109167
   3 C :    0.019890
   4 C :   -0.194653
   5 H :    0.007332
   6 C :    0.059845
   7 H :    0.021135
   8 H :    0.017316
   9 C :   -0.056893
  10 H :    0.037676
  11 H :    0.028898
  12 C :   -0.046797
  13 H :    0.038582
  14 H :    0.049444
  15 H :    0.020277
  16 S :    0.115180
  17 C :   -0.109497
  18 C :   -0.016924
  19 C :   -0.049627
  20 C :   -0.158346
  21 H :    0.000177
  22 C :    0.104305
  23 H :    0.028460
  24 H :    0.013752
  25 C :   -0.056478
  26 H :    0.045415
  27 H :    0.038271
  28 C :   -0.085895
  29 H :    0.042478
  30 H :    0.044683
  31 H :    0.025355
  32 H :    0.034868
  33 H :    0.076333
Sum of atomic charges:   -0.0000000

LOEWDIN ATOMIC CHARGES
----------------------
   0 S :    0.458951
   1 C :   -0.207534
   2 C :   -0.080373
   3 C :   -0.070270
   4 C :   -0.226158
   5 H :    0.029560
   6 C :   -0.036823
   7 H :    0.027652
   8 H :    0.036745
   9 C :   -0.041568
  10 H :    0.029359
  11 H :    0.029287
  12 C :   -0.070205
  13 H :    0.029651
  14 H :    0.031840
  15 H :    0.022952
  16 S :    0.396230
  17 C :   -0.180358
  18 C :   -0.064535
  19 C :   -0.055329
  20 C :   -0.208228
  21 H :    0.019831
  22 C :   -0.036562
  23 H :    0.044417
  24 H :    0.028945
  25 C :   -0.036282
  26 H :    0.029263
  27 H :    0.032889
  28 C :   -0.078332
  29 H :    0.032092
  30 H :    0.031114
  31 H :    0.016481
  32 H :    0.026704
  33 H :    0.038596

  Mayer bond orders larger than 0.100000
B(  0-S ,  1-C ) :   1.1648 B(  0-S ,  4-C ) :   1.1941 B(  1-C ,  2-C ) :   1.5685
B(  1-C ,  4-C ) :   0.1012 B(  1-C , 32-H ) :   0.9704 B(  2-C ,  3-C ) :   1.2791
B(  2-C ,  6-C ) :   1.0202 B(  3-C ,  4-C ) :   1.5441 B(  3-C ,  5-H ) :   0.9980
B(  4-C , 20-C ) :   0.9899 B(  6-C ,  7-H ) :   0.9293 B(  6-C ,  8-H ) :   0.9372
B(  6-C ,  9-C ) :   1.0768 B(  9-C , 10-H ) :   0.9524 B(  9-C , 11-H ) :   0.9506
B(  9-C , 12-C ) :   1.0905 B( 12-C , 13-H ) :   0.9642 B( 12-C , 14-H ) :   0.9689
B( 12-C , 15-H ) :   0.9710 B( 16-S , 17-C ) :   1.1460 B( 16-S , 20-C ) :   1.1439
B( 17-C , 18-C ) :   1.5988 B( 17-C , 33-H ) :   0.9688 B( 18-C , 19-C ) :   1.2271
B( 18-C , 21-H ) :   0.9917 B( 19-C , 20-C ) :   1.6041 B( 19-C , 22-C ) :   1.0473
B( 22-C , 23-H ) :   0.9223 B( 22-C , 24-H ) :   0.9228 B( 22-C , 25-C ) :   1.0509
B( 25-C , 26-H ) :   0.9601 B( 25-C , 27-H ) :   0.9553 B( 25-C , 28-C ) :   1.0666
B( 28-C , 29-H ) :   0.9753 B( 28-C , 30-H ) :   0.9747 B( 28-C , 31-H ) :   0.9754

Dispersion correction           -0.015079831
FINAL SINGLE POINT ENERGY     -1339.857564436109

DIPOLE MOMENT
-------------
                                X             Y             Z
Electronic contribution:    -15.91260       0.61940      -2.38747
Nuclear contribution   :     16.39532      -0.70892       2.07531
                        -----------------------------------------
Total Dipole Moment    :      0.48273      -0.08952      -0.31216
                        -----------------------------------------
Magnitude (a.u.)       :      0.58179
Magnitude (Debye)      :      1.47880

Rotational constants in cm-1:     0.023889     0.007891     0.006894
Rotational constants in MHz :   716.182381   236.562896   206.691784

                             ****ORCA TERMINATED NORMALLY****
TOTAL RUN TIME: 0 days 0 hours 0 minutes 30 seconds 480 msec
