                         Program Version 4.2.1 -  RELEASE  -
|  1> ! wB97X-D3 SP def2-SVP
|  2> %pal
|  3> nprocs 16
|  4> end
|  5>
|  6> * xyz 0 1
|  7> S 	 0.49927 	 -15.447 	 77.6934
|  8> C 	 1.98129 	 -14.5796 	 77.4399
|  9> C 	 1.83336 	 -13.2815 	 77.0472
| 10> C 	 0.48997 	 -12.9005 	 76.998
| 11> C 	 -0.370042 	 -13.9089 	 77.4755
| 12> H 	 0.133122 	 -11.97 	 76.7086
| 13> C 	 3.02467 	 -12.3631 	 76.7559
| 14> H 	 3.28633 	 -12.4849 	 75.7053
| 15> H 	 3.86522 	 -12.6661 	 77.3805
| 16> C 	 2.82819 	 -10.8873 	 76.9863
| 17> H 	 2.04799 	 -10.4664 	 76.3513
| 18> H 	 2.40792 	 -10.6635 	 78.0156
| 19> C 	 4.02059 	 -9.99764 	 76.7093
| 20> H 	 4.48883 	 -10.301 	 75.7332
| 21> H 	 3.75948 	 -8.98579 	 76.7277
| 22> H 	 4.74293 	 -10.1035 	 77.4832
| 23> S 	 -2.75992 	 -14.9191 	 76.8332
| 24> C 	 -4.19972 	 -14.1593 	 77.3771
| 25> C 	 -3.99676 	 -13.1128 	 78.2131
| 26> C 	 -2.55727 	 -12.8358 	 78.3847
| 27> C 	 -1.80552 	 -13.8144 	 77.7241
| 28> H 	 -4.71222 	 -12.4721 	 78.6284
| 29> C 	 -2.16695 	 -11.8312 	 79.3719
| 30> H 	 -1.22862 	 -12.1678 	 79.7721
| 31> H 	 -2.82476 	 -11.7668 	 80.2535
| 32> C 	 -2.03004 	 -10.4585 	 78.7483
| 33> H 	 -2.93254 	 -10.0688 	 78.2776
| 34> H 	 -1.17629 	 -10.4546 	 78.0314
| 35> C 	 -1.73571 	 -9.36923 	 79.7449
| 36> H 	 -0.734443 	 -9.58815 	 80.1796
| 37> H 	 -2.51975 	 -9.31053 	 80.5172
| 38> H 	 -1.74034 	 -8.46685 	 79.1316
| 39> H 	 2.96688 	 -15.008 	 77.5828
| 40> H 	 -5.20382 	 -14.4023 	 76.9532
| 41> *
| 42>
| 43>                          ****END OF INPUT****

CARTESIAN COORDINATES (ANGSTROEM)
---------------------------------
  S      0.499270  -15.447000   77.693400
  C      1.981290  -14.579600   77.439900
  C      1.833360  -13.281500   77.047200
  C      0.489970  -12.900500   76.998000
  C     -0.370042  -13.908900   77.475500
  H      0.133122  -11.970000   76.708600
  C      3.024670  -12.363100   76.755900
  H      3.286330  -12.484900   75.705300
  H      3.865220  -12.666100   77.380500
  C      2.828190  -10.887300   76.986300
  H      2.047990  -10.466400   76.351300
  H      2.407920  -10.663500   78.015600
  C      4.020590   -9.997640   76.709300
  H      4.488830  -10.301000   75.733200
  H      3.759480   -8.985790   76.727700
  H      4.742930  -10.103500   77.483200
  S     -2.759920  -14.919100   76.833200
  C     -4.199720  -14.159300   77.377100
  C     -3.996760  -13.112800   78.213100
  C     -2.557270  -12.835800   78.384700
  C     -1.805520  -13.814400   77.724100
  H     -4.712220  -12.472100   78.628400
  C     -2.166950  -11.831200   79.371900
  H     -1.228620  -12.167800   79.772100
  H     -2.824760  -11.766800   80.253500
  C     -2.030040  -10.458500   78.748300
  H     -2.932540  -10.068800   78.277600
  H     -1.176290  -10.454600   78.031400
  C     -1.735710   -9.369230   79.744900
  H     -0.734443   -9.588150   80.179600
  H     -2.519750   -9.310530   80.517200
  H     -1.740340   -8.466850   79.131600
  H      2.966880  -15.008000   77.582800
  H     -5.203820  -14.402300   76.953200

 Total Charge           Charge          ....    0
 Multiplicity           Mult            ....    1
 Number of Electrons    NEL             ....  134
 Basis Dimension        Dim             ....  322

ORBITAL ENERGIES
----------------

  NO   OCC          E(Eh)            E(eV)
   0   2.0000     -88.968303     -2420.9506
   1   2.0000     -88.962655     -2420.7969
   2   2.0000     -10.331280      -281.1284
   3   2.0000     -10.322183      -280.8809
   4   2.0000     -10.313616      -280.6478
   5   2.0000     -10.307346      -280.4772
   6   2.0000     -10.300773      -280.2983
   7   2.0000     -10.295558      -280.1564
   8   2.0000     -10.293604      -280.1032
   9   2.0000     -10.290055      -280.0066
  10   2.0000     -10.287627      -279.9406
  11   2.0000     -10.287419      -279.9349
  12   2.0000     -10.284926      -279.8671
  13   2.0000     -10.283335      -279.8238
  14   2.0000     -10.278183      -279.6836
  15   2.0000     -10.275635      -279.6143
  16   2.0000      -8.082776      -219.9435
  17   2.0000      -8.079102      -219.8435
  18   2.0000      -6.041163      -164.3884
  19   2.0000      -6.037541      -164.2898
  20   2.0000      -6.037509      -164.2890
  21   2.0000      -6.033514      -164.1803
  22   2.0000      -6.033382      -164.1767
  23   2.0000      -6.029823      -164.0798
  24   2.0000      -1.009374       -27.4665
  25   2.0000      -0.986807       -26.8524
  26   2.0000      -0.920606       -25.0510
  27   2.0000      -0.915147       -24.9024
  28   2.0000      -0.871297       -23.7092
  29   2.0000      -0.857507       -23.3340
  30   2.0000      -0.851871       -23.1806
  31   2.0000      -0.817028       -22.2325
  32   2.0000      -0.785867       -21.3845
  33   2.0000      -0.769860       -20.9490
  34   2.0000      -0.707130       -19.2420
  35   2.0000      -0.689863       -18.7721
  36   2.0000      -0.683336       -18.5945
  37   2.0000      -0.666800       -18.1445
  38   2.0000      -0.640641       -17.4327
  39   2.0000      -0.625274       -17.0146
  40   2.0000      -0.602064       -16.3830
  41   2.0000      -0.574247       -15.6261
  42   2.0000      -0.574069       -15.6212
  43   2.0000      -0.562634       -15.3100
  44   2.0000      -0.536706       -14.6045
  45   2.0000      -0.526883       -14.3372
  46   2.0000      -0.519323       -14.1315
  47   2.0000      -0.510092       -13.8803
  48   2.0000      -0.508451       -13.8357
  49   2.0000      -0.497214       -13.5299
  50   2.0000      -0.491903       -13.3854
  51   2.0000      -0.487657       -13.2698
  52   2.0000      -0.472749       -12.8642
  53   2.0000      -0.463731       -12.6188
  54   2.0000      -0.457539       -12.4503
  55   2.0000      -0.453285       -12.3345
  56   2.0000      -0.443379       -12.0650
  57   2.0000      -0.437089       -11.8938
  58   2.0000      -0.434903       -11.8343
  59   2.0000      -0.428065       -11.6483
  60   2.0000      -0.426262       -11.5992
  61   2.0000      -0.414739       -11.2856
  62   2.0000      -0.409913       -11.1543
  63   2.0000      -0.347081        -9.4445
  64   2.0000      -0.336038        -9.1441
  65   2.0000      -0.324799        -8.8382
  66   2.0000      -0.287567        -7.8251
  67   0.0000       0.033399         0.9088
  68   0.0000       0.069581         1.8934
  69   0.0000       0.109514         2.9800
  70   0.0000       0.121158         3.2969
  71   0.0000       0.125696         3.4204

MULLIKEN ATOMIC CHARGES
-----------------------
   0 S :    0.115955
   1 C :   -0.123369
   2 C :   -0.070292
   3 C :    0.055427
   4 C :   -0.163342
   5 H :   -0.020777
   6 C :    0.106191
   7 H :    0.037939
   8 H :    0.024582
   9 C :   -0.142991
  10 H :    0.024288
  11 H :    0.030553
  12 C :   -0.005389
  13 H :    0.032831
  14 H :    0.023801
  15 H :    0.019395
  16 S :    0.112073
  17 C :   -0.086990
  18 C :   -0.002712
  19 C :   -0.035090
  20 C :   -0.149459
  21 H :   -0.004084
  22 C :    0.069471
  23 H :    0.017784
  24 H :    0.025014
  25 C :   -0.118163
  26 H :    0.025693
  27 H :    0.029579
  28 C :   -0.031648
  29 H :    0.032711
  30 H :    0.031474
  31 H :    0.034371
  32 H :    0.037406
  33 H :    0.067766
Sum of atomic charges:    0.0000000

LOEWDIN ATOMIC CHARGES
----------------------
   0 S :    0.399306
   1 C :   -0.199944
   2 C :   -0.065122
   3 C :   -0.050891
   4 C :   -0.181564
   5 H :    0.017355
   6 C :   -0.027866
   7 H :    0.035407
   8 H :    0.031950
   9 C :   -0.054130
  10 H :    0.019455
  11 H :    0.026827
  12 C :   -0.056044
  13 H :    0.031293
  14 H :    0.021414
  15 H :    0.019050
  16 S :    0.430225
  17 C :   -0.198735
  18 C :   -0.060990
  19 C :   -0.047668
  20 C :   -0.216809
  21 H :    0.021551
  22 C :   -0.037278
  23 H :    0.031871
  24 H :    0.033562
  25 C :   -0.043522
  26 H :    0.022442
  27 H :    0.025250
  28 C :   -0.063316
  29 H :    0.025542
  30 H :    0.022129
  31 H :    0.027339
  32 H :    0.025251
  33 H :    0.036657

  Mayer bond orders larger than 0.100000
B(  0-S ,  1-C ) :   1.1359 B(  0-S ,  4-C ) :   1.1561 B(  1-C ,  2-C ) :   1.6308
B(  1-C ,  4-C ) :   0.1024 B(  1-C , 32-H ) :   0.9651 B(  2-C ,  3-C ) :   1.2528
B(  2-C ,  6-C ) :   1.0061 B(  3-C ,  4-C ) :   1.5501 B(  3-C ,  5-H ) :   1.0073
B(  4-C , 20-C ) :   1.0164 B(  6-C ,  7-H ) :   0.9236 B(  6-C ,  8-H ) :   0.9474
B(  6-C ,  9-C ) :   1.0801 B(  9-C , 10-H ) :   0.9451 B(  9-C , 11-H ) :   0.9543
B(  9-C , 12-C ) :   1.0936 B( 12-C , 13-H ) :   0.9709 B( 12-C , 14-H ) :   0.9711
B( 12-C , 15-H ) :   0.9734 B( 16-S , 17-C ) :   1.1521 B( 16-S , 20-C ) :   1.1533
B( 17-C , 18-C ) :   1.6176 B( 17-C , 33-H ) :   0.9599 B( 18-C , 19-C ) :   1.2216
B( 18-C , 21-H ) :   0.9975 B( 19-C , 20-C ) :   1.6041 B( 19-C , 22-C ) :   1.0605
B( 22-C , 23-H ) :   0.9243 B( 22-C , 24-H ) :   0.9441 B( 22-C , 25-C ) :   1.0609
B( 25-C , 26-H ) :   0.9605 B( 25-C , 27-H ) :   0.9492 B( 25-C , 28-C ) :   1.0883
B( 28-C , 29-H ) :   0.9719 B( 28-C , 30-H ) :   0.9730 B( 28-C , 31-H ) :   0.9757

Dispersion correction           -0.014096401
FINAL SINGLE POINT ENERGY     -1339.879564037720

DIPOLE MOMENT
-------------
                                X             Y             Z
Electronic contribution:    -12.62193     -30.38067      -5.09788
Nuclear contribution   :     12.74362      31.09435       5.16431
                        -----------------------------------------
Total Dipole Moment    :      0.12169       0.71368       0.06643
                        -----------------------------------------
Magnitude (a.u.)       :      0.72702
Magnitude (Debye)      :      1.84793

Rotational constants in cm-1:     0.016718     0.009630     0.006631
Rotational constants in MHz :   501.192619   288.687181   198.783633

                             ****ORCA TERMINATED NORMALLY****
TOTAL RUN TIME: 0 days 0 hours 0 minutes 35 seconds 631 msec
