                         Program Version 4.2.1 -  RELEASE  -
|  1> ! wB97X-D3 SP def2-SVP
|  2> %pal
|  3> nprocs 16
|  4> end
|  5>
|  6> * xyz 0 1
|  7> S 	 -2.80639 	 -16.0495 	 93.4015
|  8> C 	 -4.43525 	 -16.4503 	 93.3314
|  9> C 	 -5.11773 	 -15.6186 	 92.445
| 10> C 	 -4.28349 	 -14.5317 	 92.006
| 11> C 	 -3.03708 	 -14.5778 	 92.5184
| 12> H 	 -4.7133 	 -13.7526 	 91.3583
| 13> C 	 -6.4416 	 -15.8473 	 91.8909
| 14> H 	 -6.87111 	 -16.5704 	 92.6538
| 15> H 	 -6.4822 	 -16.5303 	 91.0091
| 16> C 	 -7.46013 	 -14.6073 	 91.6802
| 17> H 	 -7.04551 	 -14.0167 	 90.8506
| 18> H 	 -8.40018 	 -14.9971 	 91.3047
| 19> C 	 -7.61334 	 -13.8638 	 93.0399
| 20> H 	 -8.25674 	 -12.9398 	 92.9356
| 21> H 	 -8.05321 	 -14.5791 	 93.7318
| 22> H 	 -6.7597 	 -13.4003 	 93.4389
| 23> S 	 -1.24944 	 -12.9918 	 93.8052
| 24> C 	 -0.098273 	 -11.9527 	 92.9458
| 25> C 	 -0.284547 	 -12.0969 	 91.6117
| 26> C 	 -1.35761 	 -12.9976 	 91.2703
| 27> C 	 -1.9682 	 -13.5845 	 92.3373
| 28> H 	 0.307353 	 -11.3732 	 91.0381
| 29> C 	 -1.89952 	 -13.1073 	 89.8138
| 30> H 	 -2.36972 	 -14.0006 	 89.5908
| 31> H 	 -1.11777 	 -13.0606 	 89.0824
| 32> C 	 -2.71834 	 -11.855 	 89.4928
| 33> H 	 -1.99938 	 -11.048 	 89.5438
| 34> H 	 -3.4912 	 -11.5936 	 90.2317
| 35> C 	 -3.45928 	 -11.8141 	 88.1909
| 36> H 	 -4.24689 	 -12.5786 	 87.846
| 37> H 	 -2.72132 	 -11.7396 	 87.3651
| 38> H 	 -3.95956 	 -10.9028 	 88.2056
| 39> H 	 -4.87274 	 -17.3338 	 93.7193
| 40> H 	 0.664377 	 -11.4159 	 93.4726
| 41> *
| 42>
| 43>                          ****END OF INPUT****

CARTESIAN COORDINATES (ANGSTROEM)
---------------------------------
  S     -2.806390  -16.049500   93.401500
  C     -4.435250  -16.450300   93.331400
  C     -5.117730  -15.618600   92.445000
  C     -4.283490  -14.531700   92.006000
  C     -3.037080  -14.577800   92.518400
  H     -4.713300  -13.752600   91.358300
  C     -6.441600  -15.847300   91.890900
  H     -6.871110  -16.570400   92.653800
  H     -6.482200  -16.530300   91.009100
  C     -7.460130  -14.607300   91.680200
  H     -7.045510  -14.016700   90.850600
  H     -8.400180  -14.997100   91.304700
  C     -7.613340  -13.863800   93.039900
  H     -8.256740  -12.939800   92.935600
  H     -8.053210  -14.579100   93.731800
  H     -6.759700  -13.400300   93.438900
  S     -1.249440  -12.991800   93.805200
  C     -0.098273  -11.952700   92.945800
  C     -0.284547  -12.096900   91.611700
  C     -1.357610  -12.997600   91.270300
  C     -1.968200  -13.584500   92.337300
  H      0.307353  -11.373200   91.038100
  C     -1.899520  -13.107300   89.813800
  H     -2.369720  -14.000600   89.590800
  H     -1.117770  -13.060600   89.082400
  C     -2.718340  -11.855000   89.492800
  H     -1.999380  -11.048000   89.543800
  H     -3.491200  -11.593600   90.231700
  C     -3.459280  -11.814100   88.190900
  H     -4.246890  -12.578600   87.846000
  H     -2.721320  -11.739600   87.365100
  H     -3.959560  -10.902800   88.205600
  H     -4.872740  -17.333800   93.719300
  H      0.664377  -11.415900   93.472600

 Total Charge           Charge          ....    0
 Multiplicity           Mult            ....    1
 Number of Electrons    NEL             ....  134
 Basis Dimension        Dim             ....  322

ORBITAL ENERGIES
----------------

  NO   OCC          E(Eh)            E(eV)
   0   2.0000     -88.966047     -2420.8892
   1   2.0000     -88.956165     -2420.6203
   2   2.0000     -10.325632      -280.9747
   3   2.0000     -10.324219      -280.9363
   4   2.0000     -10.315569      -280.7009
   5   2.0000     -10.307375      -280.4779
   6   2.0000     -10.306255      -280.4475
   7   2.0000     -10.298548      -280.2377
   8   2.0000     -10.296576      -280.1841
   9   2.0000     -10.295782      -280.1625
  10   2.0000     -10.295674      -280.1595
  11   2.0000     -10.290138      -280.0089
  12   2.0000     -10.283588      -279.8307
  13   2.0000     -10.283524      -279.8289
  14   2.0000     -10.279008      -279.7060
  15   2.0000     -10.278205      -279.6842
  16   2.0000      -8.082326      -219.9313
  17   2.0000      -8.071497      -219.6366
  18   2.0000      -6.040738      -164.3768
  19   2.0000      -6.036618      -164.2647
  20   2.0000      -6.033075      -164.1683
  21   2.0000      -6.030036      -164.0856
  22   2.0000      -6.025783      -163.9699
  23   2.0000      -6.022310      -163.8754
  24   2.0000      -1.014695       -27.6112
  25   2.0000      -0.990674       -26.9576
  26   2.0000      -0.911043       -24.7907
  27   2.0000      -0.906953       -24.6794
  28   2.0000      -0.873743       -23.7758
  29   2.0000      -0.849282       -23.1101
  30   2.0000      -0.844288       -22.9743
  31   2.0000      -0.823863       -22.4184
  32   2.0000      -0.782201       -21.2848
  33   2.0000      -0.771155       -20.9842
  34   2.0000      -0.714197       -19.4343
  35   2.0000      -0.697158       -18.9706
  36   2.0000      -0.694616       -18.9015
  37   2.0000      -0.661165       -17.9912
  38   2.0000      -0.638689       -17.3796
  39   2.0000      -0.629496       -17.1295
  40   2.0000      -0.597812       -16.2673
  41   2.0000      -0.570548       -15.5254
  42   2.0000      -0.563936       -15.3455
  43   2.0000      -0.551423       -15.0050
  44   2.0000      -0.535776       -14.5792
  45   2.0000      -0.525619       -14.3028
  46   2.0000      -0.518968       -14.1218
  47   2.0000      -0.515944       -14.0396
  48   2.0000      -0.505786       -13.7631
  49   2.0000      -0.500500       -13.6193
  50   2.0000      -0.494040       -13.4435
  51   2.0000      -0.483237       -13.1495
  52   2.0000      -0.471663       -12.8346
  53   2.0000      -0.465564       -12.6686
  54   2.0000      -0.457744       -12.4559
  55   2.0000      -0.453052       -12.3282
  56   2.0000      -0.445188       -12.1142
  57   2.0000      -0.433718       -11.8021
  58   2.0000      -0.429453       -11.6860
  59   2.0000      -0.420896       -11.4532
  60   2.0000      -0.419009       -11.4018
  61   2.0000      -0.413534       -11.2528
  62   2.0000      -0.404457       -11.0058
  63   2.0000      -0.350720        -9.5436
  64   2.0000      -0.327095        -8.9007
  65   2.0000      -0.323860        -8.8127
  66   2.0000      -0.299432        -8.1479
  67   0.0000       0.038171         1.0387
  68   0.0000       0.072883         1.9832
  69   0.0000       0.114418         3.1135
  70   0.0000       0.123672         3.3653
  71   0.0000       0.131060         3.5663

MULLIKEN ATOMIC CHARGES
-----------------------
   0 S :    0.138396
   1 C :   -0.092396
   2 C :   -0.099588
   3 C :    0.026474
   4 C :   -0.126868
   5 H :    0.016186
   6 C :   -0.007945
   7 H :    0.012478
   8 H :    0.050313
   9 C :   -0.061996
  10 H :    0.034845
  11 H :    0.031950
  12 C :   -0.049334
  13 H :    0.033983
  14 H :    0.039430
  15 H :    0.035139
  16 S :    0.078408
  17 C :   -0.102085
  18 C :   -0.040050
  19 C :   -0.029224
  20 C :   -0.156324
  21 H :    0.031864
  22 C :    0.143402
  23 H :    0.003864
  24 H :    0.001864
  25 C :   -0.099718
  26 H :    0.018491
  27 H :    0.027388
  28 C :   -0.034845
  29 H :    0.047408
  30 H :    0.021416
  31 H :    0.016995
  32 H :    0.032515
  33 H :    0.057566
Sum of atomic charges:    0.0000000

LOEWDIN ATOMIC CHARGES
----------------------
   0 S :    0.448743
   1 C :   -0.212044
   2 C :   -0.072296
   3 C :   -0.060275
   4 C :   -0.204152
   5 H :    0.035309
   6 C :   -0.050353
   7 H :    0.033238
   8 H :    0.037148
   9 C :   -0.034420
  10 H :    0.020672
  11 H :    0.025713
  12 C :   -0.066399
  13 H :    0.032396
  14 H :    0.029024
  15 H :    0.020774
  16 S :    0.389573
  17 C :   -0.168776
  18 C :   -0.079397
  19 C :   -0.051645
  20 C :   -0.195977
  21 H :    0.038769
  22 C :   -0.019286
  23 H :    0.016201
  24 H :    0.026835
  25 C :   -0.041866
  26 H :    0.025111
  27 H :    0.021938
  28 C :   -0.072587
  29 H :    0.035178
  30 H :    0.023683
  31 H :    0.019762
  32 H :    0.022190
  33 H :    0.027220

  Mayer bond orders larger than 0.100000
B(  0-S ,  1-C ) :   1.1586 B(  0-S ,  4-C ) :   1.1671 B(  1-C ,  2-C ) :   1.5806
B(  1-C , 32-H ) :   0.9688 B(  2-C ,  3-C ) :   1.2521 B(  2-C ,  6-C ) :   1.0360
B(  3-C ,  4-C ) :   1.5684 B(  3-C ,  5-H ) :   0.9970 B(  4-C , 20-C ) :   1.0019
B(  6-C ,  7-H ) :   0.9348 B(  6-C ,  8-H ) :   0.9341 B(  6-C ,  9-C ) :   1.0571
B(  9-C , 10-H ) :   0.9566 B(  9-C , 11-H ) :   0.9571 B(  9-C , 12-C ) :   1.0652
B( 12-C , 13-H ) :   0.9736 B( 12-C , 14-H ) :   0.9774 B( 12-C , 15-H ) :   0.9748
B( 16-S , 17-C ) :   1.1468 B( 16-S , 20-C ) :   1.1419 B( 17-C , 18-C ) :   1.6342
B( 17-C , 33-H ) :   0.9713 B( 18-C , 19-C ) :   1.1959 B( 18-C , 21-H ) :   0.9888
B( 19-C , 20-C ) :   1.6426 B( 19-C , 22-C ) :   1.0532 B( 22-C , 23-H ) :   0.9391
B( 22-C , 24-H ) :   0.9275 B( 22-C , 25-C ) :   1.0506 B( 25-C , 26-H ) :   0.9507
B( 25-C , 27-H ) :   0.9602 B( 25-C , 28-C ) :   1.0875 B( 28-C , 29-H ) :   0.9744
B( 28-C , 30-H ) :   0.9694 B( 28-C , 31-H ) :   0.9692

Dispersion correction           -0.014596043
FINAL SINGLE POINT ENERGY     -1339.863180872563

DIPOLE MOMENT
-------------
                                X             Y             Z
Electronic contribution:     20.26445      -8.40489      18.28300
Nuclear contribution   :    -20.61653       8.62506     -18.83146
                        -----------------------------------------
Total Dipole Moment    :     -0.35208       0.22018      -0.54846
                        -----------------------------------------
Magnitude (a.u.)       :      0.68793
Magnitude (Debye)      :      1.74858

Rotational constants in cm-1:     0.016812     0.009897     0.007309
Rotational constants in MHz :   504.013051   296.708802   219.107486

                             ****ORCA TERMINATED NORMALLY****
TOTAL RUN TIME: 0 days 0 hours 0 minutes 34 seconds 240 msec
