                         Program Version 4.2.1 -  RELEASE  -
|  1> ! wB97X-D3 SP def2-SVP
|  2> %pal
|  3> nprocs 16
|  4> end
|  5>
|  6> * xyz 0 1
|  7> S 	 -43.1434 	 64.4142 	 146.211
|  8> C 	 -42.3122 	 64.3911 	 144.714
|  9> C 	 -42.8193 	 65.3113 	 143.834
| 10> C 	 -43.7383 	 66.2345 	 144.481
| 11> C 	 -43.9335 	 65.914 	 145.802
| 12> H 	 -44.221 	 67.0009 	 143.943
| 13> C 	 -42.3427 	 65.5268 	 142.394
| 14> H 	 -43.2466 	 65.6222 	 141.84
| 15> H 	 -41.85 	 64.6711 	 142.064
| 16> C 	 -41.4332 	 66.7982 	 142.163
| 17> H 	 -40.5836 	 66.6895 	 142.874
| 18> H 	 -40.8795 	 66.6589 	 141.162
| 19> C 	 -42.2217 	 68.0984 	 142.179
| 20> H 	 -42.5375 	 68.3903 	 143.181
| 21> H 	 -41.5803 	 68.9416 	 141.901
| 22> H 	 -43.1104 	 68.0183 	 141.556
| 23> S 	 -46.2631 	 66.2781 	 146.966
| 24> C 	 -46.4402 	 67.5165 	 148.248
| 25> C 	 -45.3562 	 68.3621 	 148.275
| 26> C 	 -44.325 	 67.8471 	 147.515
| 27> C 	 -44.6301 	 66.7817 	 146.74
| 28> H 	 -45.234 	 69.0976 	 149.083
| 29> C 	 -42.9912 	 68.5963 	 147.549
| 30> H 	 -43.2848 	 69.6833 	 147.38
| 31> H 	 -42.477 	 68.2203 	 146.773
| 32> C 	 -42.0777 	 68.4787 	 148.774
| 33> H 	 -41.9092 	 67.4652 	 149.154
| 34> H 	 -42.5584 	 68.8135 	 149.68
| 35> C 	 -40.6833 	 69.0685 	 148.584
| 36> H 	 -40.1382 	 69.0359 	 149.505
| 37> H 	 -40.7296 	 70.0849 	 148.172
| 38> H 	 -40.1034 	 68.5176 	 147.891
| 39> H 	 -41.5394 	 63.6349 	 144.403
| 40> H 	 -47.2182 	 67.6329 	 148.902
| 41> *
| 42>
| 43>                          ****END OF INPUT****

CARTESIAN COORDINATES (ANGSTROEM)
---------------------------------
  S    -43.143400   64.414200  146.211000
  C    -42.312200   64.391100  144.714000
  C    -42.819300   65.311300  143.834000
  C    -43.738300   66.234500  144.481000
  C    -43.933500   65.914000  145.802000
  H    -44.221000   67.000900  143.943000
  C    -42.342700   65.526800  142.394000
  H    -43.246600   65.622200  141.840000
  H    -41.850000   64.671100  142.064000
  C    -41.433200   66.798200  142.163000
  H    -40.583600   66.689500  142.874000
  H    -40.879500   66.658900  141.162000
  C    -42.221700   68.098400  142.179000
  H    -42.537500   68.390300  143.181000
  H    -41.580300   68.941600  141.901000
  H    -43.110400   68.018300  141.556000
  S    -46.263100   66.278100  146.966000
  C    -46.440200   67.516500  148.248000
  C    -45.356200   68.362100  148.275000
  C    -44.325000   67.847100  147.515000
  C    -44.630100   66.781700  146.740000
  H    -45.234000   69.097600  149.083000
  C    -42.991200   68.596300  147.549000
  H    -43.284800   69.683300  147.380000
  H    -42.477000   68.220300  146.773000
  C    -42.077700   68.478700  148.774000
  H    -41.909200   67.465200  149.154000
  H    -42.558400   68.813500  149.680000
  C    -40.683300   69.068500  148.584000
  H    -40.138200   69.035900  149.505000
  H    -40.729600   70.084900  148.172000
  H    -40.103400   68.517600  147.891000
  H    -41.539400   63.634900  144.403000
  H    -47.218200   67.632900  148.902000

 Total Charge           Charge          ....    0
 Multiplicity           Mult            ....    1
 Number of Electrons    NEL             ....  134
 Basis Dimension        Dim             ....  322

ORBITAL ENERGIES
----------------

  NO   OCC          E(Eh)            E(eV)
   0   2.0000     -88.965172     -2420.8654
   1   2.0000     -88.961895     -2420.7762
   2   2.0000     -10.325553      -280.9726
   3   2.0000     -10.316929      -280.7379
   4   2.0000     -10.313377      -280.6413
   5   2.0000     -10.311647      -280.5942
   6   2.0000     -10.297950      -280.2215
   7   2.0000     -10.297572      -280.2112
   8   2.0000     -10.293381      -280.0971
   9   2.0000     -10.291573      -280.0479
  10   2.0000     -10.287153      -279.9277
  11   2.0000     -10.286626      -279.9133
  12   2.0000     -10.283762      -279.8354
  13   2.0000     -10.281134      -279.7639
  14   2.0000     -10.280778      -279.7542
  15   2.0000     -10.271360      -279.4979
  16   2.0000      -8.080739      -219.8881
  17   2.0000      -8.076806      -219.7811
  18   2.0000      -6.039232      -164.3359
  19   2.0000      -6.035254      -164.2276
  20   2.0000      -6.035195      -164.2260
  21   2.0000      -6.031392      -164.1225
  22   2.0000      -6.031332      -164.1209
  23   2.0000      -6.027568      -164.0185
  24   2.0000      -1.012253       -27.5448
  25   2.0000      -0.989294       -26.9201
  26   2.0000      -0.908108       -24.7109
  27   2.0000      -0.905365       -24.6362
  28   2.0000      -0.874292       -23.7907
  29   2.0000      -0.851416       -23.1682
  30   2.0000      -0.845771       -23.0146
  31   2.0000      -0.818410       -22.2701
  32   2.0000      -0.783179       -21.3114
  33   2.0000      -0.771898       -21.0044
  34   2.0000      -0.705972       -19.2105
  35   2.0000      -0.700228       -19.0542
  36   2.0000      -0.699629       -19.0379
  37   2.0000      -0.670057       -18.2332
  38   2.0000      -0.642987       -17.4966
  39   2.0000      -0.616994       -16.7893
  40   2.0000      -0.596963       -16.2442
  41   2.0000      -0.570138       -15.5143
  42   2.0000      -0.557985       -15.1835
  43   2.0000      -0.549029       -14.9399
  44   2.0000      -0.536123       -14.5887
  45   2.0000      -0.527542       -14.3552
  46   2.0000      -0.517485       -14.0815
  47   2.0000      -0.514685       -14.0053
  48   2.0000      -0.502501       -13.6738
  49   2.0000      -0.499579       -13.5942
  50   2.0000      -0.488838       -13.3020
  51   2.0000      -0.484694       -13.1892
  52   2.0000      -0.476370       -12.9627
  53   2.0000      -0.468379       -12.7452
  54   2.0000      -0.461398       -12.5553
  55   2.0000      -0.445539       -12.1237
  56   2.0000      -0.441905       -12.0249
  57   2.0000      -0.441401       -12.0111
  58   2.0000      -0.434764       -11.8305
  59   2.0000      -0.431803       -11.7500
  60   2.0000      -0.419925       -11.4267
  61   2.0000      -0.409143       -11.1333
  62   2.0000      -0.403659       -10.9841
  63   2.0000      -0.338248        -9.2042
  64   2.0000      -0.330743        -9.0000
  65   2.0000      -0.318000        -8.6532
  66   2.0000      -0.308701        -8.4002
  67   0.0000       0.047045         1.2801
  68   0.0000       0.054906         1.4941
  69   0.0000       0.112933         3.0731
  70   0.0000       0.118292         3.2189
  71   0.0000       0.129286         3.5181

MULLIKEN ATOMIC CHARGES
-----------------------
   0 S :    0.135117
   1 C :   -0.147657
   2 C :   -0.108356
   3 C :    0.058192
   4 C :   -0.152432
   5 H :    0.000833
   6 C :    0.108950
   7 H :    0.018124
   8 H :   -0.002191
   9 C :   -0.099137
  10 H :    0.033195
  11 H :    0.038514
  12 C :   -0.040357
  13 H :    0.035653
  14 H :    0.036720
  15 H :    0.035011
  16 S :    0.100395
  17 C :   -0.057027
  18 C :   -0.036529
  19 C :   -0.035302
  20 C :   -0.191680
  21 H :    0.034469
  22 C :    0.118416
  23 H :    0.039833
  24 H :   -0.015120
  25 C :   -0.064456
  26 H :    0.017917
  27 H :    0.005570
  28 C :   -0.025227
  29 H :    0.029972
  30 H :    0.026248
  31 H :    0.022151
  32 H :    0.063799
  33 H :    0.016392
Sum of atomic charges:    0.0000000

LOEWDIN ATOMIC CHARGES
----------------------
   0 S :    0.420519
   1 C :   -0.216767
   2 C :   -0.065981
   3 C :   -0.047262
   4 C :   -0.210200
   5 H :    0.024764
   6 C :   -0.023957
   7 H :    0.025876
   8 H :    0.018795
   9 C :   -0.043900
  10 H :    0.026459
  11 H :    0.030668
  12 C :   -0.069712
  13 H :    0.026071
  14 H :    0.030987
  15 H :    0.026463
  16 S :    0.403247
  17 C :   -0.148740
  18 C :   -0.072788
  19 C :   -0.058928
  20 C :   -0.208207
  21 H :    0.038766
  22 C :   -0.018897
  23 H :    0.041914
  24 H :    0.010760
  25 C :   -0.046495
  26 H :    0.027872
  27 H :    0.016694
  28 C :   -0.058270
  29 H :    0.026752
  30 H :    0.024767
  31 H :    0.020041
  32 H :    0.040513
  33 H :    0.008175

  Mayer bond orders larger than 0.100000
B(  0-S ,  1-C ) :   1.1434 B(  0-S ,  4-C ) :   1.1448 B(  1-C ,  2-C ) :   1.6292
B(  1-C , 32-H ) :   0.9577 B(  2-C ,  3-C ) :   1.2242 B(  2-C ,  6-C ) :   1.0310
B(  3-C ,  4-C ) :   1.5841 B(  3-C ,  5-H ) :   0.9993 B(  4-C , 20-C ) :   0.9884
B(  6-C ,  7-H ) :   0.9375 B(  6-C ,  8-H ) :   0.9367 B(  6-C ,  9-C ) :   1.0613
B(  9-C , 10-H ) :   0.9554 B(  9-C , 11-H ) :   0.9575 B(  9-C , 12-C ) :   1.0751
B( 12-C , 13-H ) :   0.9681 B( 12-C , 14-H ) :   0.9684 B( 12-C , 15-H ) :   0.9740
B( 16-S , 17-C ) :   1.1533 B( 16-S , 20-C ) :   1.1428 B( 17-C , 18-C ) :   1.6238
B( 17-C , 20-C ) :   0.1058 B( 17-C , 33-H ) :   0.9760 B( 18-C , 19-C ) :   1.2425
B( 18-C , 21-H ) :   0.9785 B( 19-C , 20-C ) :   1.6566 B( 19-C , 22-C ) :   1.0299
B( 22-C , 23-H ) :   0.9364 B( 22-C , 24-H ) :   0.9273 B( 22-C , 25-C ) :   1.0643
B( 25-C , 26-H ) :   0.9469 B( 25-C , 27-H ) :   0.9507 B( 25-C , 28-C ) :   1.0915
B( 28-C , 29-H ) :   0.9717 B( 28-C , 30-H ) :   0.9744 B( 28-C , 31-H ) :   0.9747

Dispersion correction           -0.014457413
FINAL SINGLE POINT ENERGY     -1339.857405275146

DIPOLE MOMENT
-------------
                                X             Y             Z
Electronic contribution:    -19.10016     -16.73628       7.61583
Nuclear contribution   :     19.50540      17.07658      -7.78187
                        -----------------------------------------
Total Dipole Moment    :      0.40523       0.34031      -0.16604
                        -----------------------------------------
Magnitude (a.u.)       :      0.55461
Magnitude (Debye)      :      1.40970

Rotational constants in cm-1:     0.016325     0.009382     0.007755
Rotational constants in MHz :   489.400332   281.255549   232.500891

                             ****ORCA TERMINATED NORMALLY****
TOTAL RUN TIME: 0 days 0 hours 0 minutes 35 seconds 336 msec
