                         Program Version 4.2.1 -  RELEASE  -
|  1> ! wB97X-D3 SP def2-SVP
|  2> %pal
|  3> nprocs 16
|  4> end
|  5>
|  6> * xyz 0 1
|  7> S 	 48.2964 	 23.9385 	 43.0343
|  8> C 	 47.7152 	 25.5653 	 42.7768
|  9> C 	 46.7079 	 25.8779 	 43.5873
| 10> C 	 46.5407 	 24.8434 	 44.6034
| 11> C 	 47.4134 	 23.7778 	 44.5617
| 12> H 	 45.8869 	 24.7723 	 45.4767
| 13> C 	 45.9919 	 27.2184 	 43.5288
| 14> H 	 46.2825 	 27.7345 	 42.5802
| 15> H 	 46.3108 	 27.6996 	 44.4285
| 16> C 	 44.4509 	 27.0674 	 43.475
| 17> H 	 44.0231 	 26.8222 	 44.4228
| 18> H 	 44.1381 	 28.0838 	 43.0385
| 19> C 	 43.9029 	 25.9106 	 42.5847
| 20> H 	 44.196 	 24.9005 	 42.9203
| 21> H 	 42.8612 	 25.9618 	 42.4472
| 22> H 	 44.406 	 26.1367 	 41.6649
| 23> S 	 47.4902 	 22.9127 	 47.2134
| 24> C 	 47.7224 	 21.2488 	 47.6302
| 25> C 	 47.748 	 20.5026 	 46.4905
| 26> C 	 47.5873 	 21.2628 	 45.2749
| 27> C 	 47.4236 	 22.632 	 45.4818
| 28> H 	 47.7218 	 19.4292 	 46.554
| 29> C 	 47.3773 	 20.4715 	 43.9486
| 30> H 	 46.7966 	 21.1279 	 43.2949
| 31> H 	 46.6892 	 19.6447 	 44.1012
| 32> C 	 48.6534 	 20.0075 	 43.24
| 33> H 	 49.156 	 20.7441 	 42.629
| 34> H 	 48.4134 	 19.2018 	 42.4719
| 35> C 	 49.6148 	 19.2463 	 44.2319
| 36> H 	 50.0397 	 19.9885 	 44.9281
| 37> H 	 50.4149 	 18.8332 	 43.6506
| 38> H 	 49.0784 	 18.4651 	 44.7914
| 39> H 	 48.1591 	 26.2015 	 41.9755
| 40> H 	 47.6232 	 20.8558 	 48.6925
| 41> *
| 42>
| 43>                          ****END OF INPUT****

CARTESIAN COORDINATES (ANGSTROEM)
---------------------------------
  S     48.296400   23.938500   43.034300
  C     47.715200   25.565300   42.776800
  C     46.707900   25.877900   43.587300
  C     46.540700   24.843400   44.603400
  C     47.413400   23.777800   44.561700
  H     45.886900   24.772300   45.476700
  C     45.991900   27.218400   43.528800
  H     46.282500   27.734500   42.580200
  H     46.310800   27.699600   44.428500
  C     44.450900   27.067400   43.475000
  H     44.023100   26.822200   44.422800
  H     44.138100   28.083800   43.038500
  C     43.902900   25.910600   42.584700
  H     44.196000   24.900500   42.920300
  H     42.861200   25.961800   42.447200
  H     44.406000   26.136700   41.664900
  S     47.490200   22.912700   47.213400
  C     47.722400   21.248800   47.630200
  C     47.748000   20.502600   46.490500
  C     47.587300   21.262800   45.274900
  C     47.423600   22.632000   45.481800
  H     47.721800   19.429200   46.554000
  C     47.377300   20.471500   43.948600
  H     46.796600   21.127900   43.294900
  H     46.689200   19.644700   44.101200
  C     48.653400   20.007500   43.240000
  H     49.156000   20.744100   42.629000
  H     48.413400   19.201800   42.471900
  C     49.614800   19.246300   44.231900
  H     50.039700   19.988500   44.928100
  H     50.414900   18.833200   43.650600
  H     49.078400   18.465100   44.791400
  H     48.159100   26.201500   41.975500
  H     47.623200   20.855800   48.692500

 Total Charge           Charge          ....    0
 Multiplicity           Mult            ....    1
 Number of Electrons    NEL             ....  134
 Basis Dimension        Dim             ....  322

ORBITAL ENERGIES
----------------

  NO   OCC          E(Eh)            E(eV)
   0   2.0000     -88.964692     -2420.8523
   1   2.0000     -88.961408     -2420.7630
   2   2.0000     -10.334357      -281.2121
   3   2.0000     -10.333845      -281.1982
   4   2.0000     -10.321920      -280.8737
   5   2.0000     -10.314074      -280.6602
   6   2.0000     -10.307059      -280.4693
   7   2.0000     -10.302016      -280.3321
   8   2.0000     -10.298884      -280.2469
   9   2.0000     -10.297495      -280.2091
  10   2.0000     -10.292991      -280.0865
  11   2.0000     -10.292234      -280.0659
  12   2.0000     -10.291856      -280.0557
  13   2.0000     -10.287988      -279.9504
  14   2.0000     -10.274986      -279.5966
  15   2.0000     -10.271572      -279.5037
  16   2.0000      -8.079777      -219.8619
  17   2.0000      -8.076090      -219.7616
  18   2.0000      -6.038392      -164.3130
  19   2.0000      -6.034769      -164.2144
  20   2.0000      -6.034098      -164.1962
  21   2.0000      -6.030742      -164.1048
  22   2.0000      -6.030519      -164.0988
  23   2.0000      -6.026525      -163.9901
  24   2.0000      -1.007964       -27.4281
  25   2.0000      -0.989150       -26.9162
  26   2.0000      -0.911844       -24.8125
  27   2.0000      -0.900622       -24.5072
  28   2.0000      -0.874477       -23.7957
  29   2.0000      -0.842120       -22.9153
  30   2.0000      -0.836620       -22.7656
  31   2.0000      -0.818861       -22.2823
  32   2.0000      -0.784967       -21.3600
  33   2.0000      -0.775042       -21.0900
  34   2.0000      -0.707810       -19.2605
  35   2.0000      -0.689923       -18.7737
  36   2.0000      -0.684943       -18.6382
  37   2.0000      -0.663897       -18.0656
  38   2.0000      -0.636725       -17.3262
  39   2.0000      -0.616317       -16.7708
  40   2.0000      -0.590777       -16.0759
  41   2.0000      -0.572293       -15.5729
  42   2.0000      -0.563589       -15.3360
  43   2.0000      -0.550081       -14.9685
  44   2.0000      -0.544209       -14.8087
  45   2.0000      -0.534112       -14.5339
  46   2.0000      -0.518586       -14.1114
  47   2.0000      -0.514469       -13.9994
  48   2.0000      -0.505333       -13.7508
  49   2.0000      -0.490673       -13.3519
  50   2.0000      -0.486147       -13.2287
  51   2.0000      -0.479018       -13.0347
  52   2.0000      -0.475592       -12.9415
  53   2.0000      -0.467651       -12.7254
  54   2.0000      -0.463854       -12.6221
  55   2.0000      -0.443670       -12.0729
  56   2.0000      -0.442977       -12.0540
  57   2.0000      -0.435325       -11.8458
  58   2.0000      -0.429128       -11.6772
  59   2.0000      -0.417353       -11.3568
  60   2.0000      -0.415920       -11.3178
  61   2.0000      -0.404195       -10.9987
  62   2.0000      -0.401293       -10.9197
  63   2.0000      -0.359095        -9.7715
  64   2.0000      -0.329965        -8.9788
  65   2.0000      -0.326311        -8.8794
  66   2.0000      -0.297152        -8.0859
  67   0.0000       0.027586         0.7506
  68   0.0000       0.076368         2.0781
  69   0.0000       0.102154         2.7798
  70   0.0000       0.126511         3.4426
  71   0.0000       0.133077         3.6212

MULLIKEN ATOMIC CHARGES
-----------------------
   0 S :    0.090839
   1 C :   -0.154763
   2 C :   -0.067974
   3 C :   -0.007548
   4 C :   -0.114131
   5 H :    0.014171
   6 C :    0.103597
   7 H :    0.027251
   8 H :    0.047347
   9 C :   -0.127652
  10 H :    0.032026
  11 H :    0.046036
  12 C :   -0.027494
  13 H :    0.048605
  14 H :    0.033416
  15 H :    0.011908
  16 S :    0.093229
  17 C :   -0.111231
  18 C :   -0.028880
  19 C :   -0.067392
  20 C :   -0.155153
  21 H :    0.018143
  22 C :    0.062353
  23 H :    0.021552
  24 H :    0.031811
  25 C :   -0.089098
  26 H :    0.033385
  27 H :    0.029542
  28 C :   -0.065681
  29 H :    0.053976
  30 H :    0.031500
  31 H :    0.031117
  32 H :    0.066106
  33 H :    0.089083
Sum of atomic charges:    0.0000000

LOEWDIN ATOMIC CHARGES
----------------------
   0 S :    0.382994
   1 C :   -0.191267
   2 C :   -0.070419
   3 C :   -0.066645
   4 C :   -0.183334
   5 H :    0.028284
   6 C :   -0.025220
   7 H :    0.034630
   8 H :    0.035505
   9 C :   -0.042573
  10 H :    0.016372
  11 H :    0.034846
  12 C :   -0.061074
  13 H :    0.030769
  14 H :    0.020208
  15 H :    0.020718
  16 S :    0.410867
  17 C :   -0.200783
  18 C :   -0.072769
  19 C :   -0.059346
  20 C :   -0.195926
  21 H :    0.028929
  22 C :   -0.034436
  23 H :    0.027589
  24 H :    0.032594
  25 C :   -0.043629
  26 H :    0.018907
  27 H :    0.028871
  28 C :   -0.065631
  29 H :    0.028656
  30 H :    0.021684
  31 H :    0.022727
  32 H :    0.038622
  33 H :    0.049279

  Mayer bond orders larger than 0.100000
B(  0-S ,  1-C ) :   1.1284 B(  0-S ,  4-C ) :   1.1180 B(  1-C ,  2-C ) :   1.6514
B(  1-C , 32-H ) :   0.9619 B(  2-C ,  3-C ) :   1.1709 B(  2-C ,  6-C ) :   1.0184
B(  3-C ,  4-C ) :   1.6099 B(  3-C ,  5-H ) :   0.9950 B(  4-C , 20-C ) :   1.0467
B(  6-C ,  7-H ) :   0.9418 B(  6-C ,  8-H ) :   0.9406 B(  6-C ,  9-C ) :   1.0585
B(  9-C , 10-H ) :   0.9567 B(  9-C , 11-H ) :   0.9639 B(  9-C , 12-C ) :   1.0809
B( 12-C , 13-H ) :   0.9661 B( 12-C , 14-H ) :   0.9751 B( 12-C , 15-H ) :   0.9771
B( 16-S , 17-C ) :   1.1570 B( 16-S , 20-C ) :   1.1430 B( 17-C , 18-C ) :   1.5993
B( 17-C , 33-H ) :   0.9560 B( 18-C , 19-C ) :   1.2455 B( 18-C , 21-H ) :   0.9907
B( 19-C , 20-C ) :   1.5922 B( 19-C , 22-C ) :   1.0186 B( 22-C , 23-H ) :   0.9398
B( 22-C , 24-H ) :   0.9472 B( 22-C , 25-C ) :   1.0705 B( 25-C , 26-H ) :   0.9579
B( 25-C , 27-H ) :   0.9572 B( 25-C , 28-C ) :   1.0772 B( 28-C , 29-H ) :   0.9699
B( 28-C , 30-H ) :   0.9744 B( 28-C , 31-H ) :   0.9742

Dispersion correction           -0.015057764
FINAL SINGLE POINT ENERGY     -1339.870555903350

DIPOLE MOMENT
-------------
                                X             Y             Z
Electronic contribution:      7.54437       2.50754      10.84206
Nuclear contribution   :     -7.89732      -2.52469     -10.96088
                        -----------------------------------------
Total Dipole Moment    :     -0.35295      -0.01715      -0.11882
                        -----------------------------------------
Magnitude (a.u.)       :      0.37281
Magnitude (Debye)      :      0.94761

Rotational constants in cm-1:     0.022923     0.008051     0.006863
Rotational constants in MHz :   687.223571   241.366031   205.746009

                             ****ORCA TERMINATED NORMALLY****
TOTAL RUN TIME: 0 days 0 hours 0 minutes 34 seconds 852 msec
