                         Program Version 4.2.1 -  RELEASE  -
|  1> ! wB97X-D3 SP def2-SVP
|  2> %pal
|  3> nprocs 16
|  4> end
|  5>
|  6> * xyz 0 1
|  7> S 	 61.6516 	 -6.68049 	 88.4289
|  8> C 	 61.3476 	 -5.41855 	 89.669
|  9> C 	 60.7203 	 -4.29099 	 89.1015
| 10> C 	 60.6775 	 -4.36034 	 87.6808
| 11> C 	 61.311 	 -5.54836 	 87.1066
| 12> H 	 60.1861 	 -3.63 	 87.0839
| 13> C 	 60.2924 	 -3.02158 	 89.8343
| 14> H 	 60.2274 	 -2.17812 	 89.1553
| 15> H 	 61.139 	 -2.74319 	 90.4653
| 16> C 	 58.9402 	 -3.16574 	 90.5983
| 17> H 	 58.8806 	 -2.14149 	 91.0513
| 18> H 	 58.1311 	 -3.20221 	 89.9132
| 19> C 	 58.8714 	 -4.1931 	 91.7731
| 20> H 	 59.0645 	 -5.23218 	 91.4704
| 21> H 	 59.6266 	 -4.01156 	 92.5397
| 22> H 	 57.9405 	 -4.07022 	 92.3098
| 23> S 	 60.8879 	 -7.61076 	 85.2957
| 24> C 	 61.3109 	 -7.38008 	 83.5958
| 25> C 	 61.6791 	 -6.06294 	 83.3368
| 26> C 	 61.6412 	 -5.17681 	 84.4868
| 27> C 	 61.4347 	 -5.94363 	 85.6921
| 28> H 	 61.9367 	 -5.71294 	 82.3873
| 29> C 	 61.8982 	 -3.69518 	 84.4051
| 30> H 	 61.5319 	 -3.07207 	 85.2018
| 31> H 	 61.3736 	 -3.30201 	 83.5801
| 32> C 	 63.4247 	 -3.374 	 84.1738
| 33> H 	 63.4877 	 -2.27154 	 84.0581
| 34> H 	 63.7916 	 -3.82096 	 83.2817
| 35> C 	 64.3054 	 -3.86787 	 85.3747
| 36> H 	 65.4067 	 -3.61612 	 85.3879
| 37> H 	 64.094 	 -4.91679 	 85.5791
| 38> H 	 63.9028 	 -3.33216 	 86.2401
| 39> H 	 61.506 	 -5.51324 	 90.7621
| 40> H 	 61.1623 	 -8.11787 	 82.8128
| 41> *
| 42>
| 43>                          ****END OF INPUT****

CARTESIAN COORDINATES (ANGSTROEM)
---------------------------------
  S     61.651600   -6.680490   88.428900
  C     61.347600   -5.418550   89.669000
  C     60.720300   -4.290990   89.101500
  C     60.677500   -4.360340   87.680800
  C     61.311000   -5.548360   87.106600
  H     60.186100   -3.630000   87.083900
  C     60.292400   -3.021580   89.834300
  H     60.227400   -2.178120   89.155300
  H     61.139000   -2.743190   90.465300
  C     58.940200   -3.165740   90.598300
  H     58.880600   -2.141490   91.051300
  H     58.131100   -3.202210   89.913200
  C     58.871400   -4.193100   91.773100
  H     59.064500   -5.232180   91.470400
  H     59.626600   -4.011560   92.539700
  H     57.940500   -4.070220   92.309800
  S     60.887900   -7.610760   85.295700
  C     61.310900   -7.380080   83.595800
  C     61.679100   -6.062940   83.336800
  C     61.641200   -5.176810   84.486800
  C     61.434700   -5.943630   85.692100
  H     61.936700   -5.712940   82.387300
  C     61.898200   -3.695180   84.405100
  H     61.531900   -3.072070   85.201800
  H     61.373600   -3.302010   83.580100
  C     63.424700   -3.374000   84.173800
  H     63.487700   -2.271540   84.058100
  H     63.791600   -3.820960   83.281700
  C     64.305400   -3.867870   85.374700
  H     65.406700   -3.616120   85.387900
  H     64.094000   -4.916790   85.579100
  H     63.902800   -3.332160   86.240100
  H     61.506000   -5.513240   90.762100
  H     61.162300   -8.117870   82.812800

 Total Charge           Charge          ....    0
 Multiplicity           Mult            ....    1
 Number of Electrons    NEL             ....  134
 Basis Dimension        Dim             ....  322

ORBITAL ENERGIES
----------------

  NO   OCC          E(Eh)            E(eV)
   0   2.0000     -88.971699     -2421.0430
   1   2.0000     -88.968381     -2420.9527
   2   2.0000     -10.341879      -281.4168
   3   2.0000     -10.338924      -281.3364
   4   2.0000     -10.322841      -280.8988
   5   2.0000     -10.322056      -280.8774
   6   2.0000     -10.314921      -280.6833
   7   2.0000     -10.304099      -280.3888
   8   2.0000     -10.299399      -280.2609
   9   2.0000     -10.297241      -280.2022
  10   2.0000     -10.296636      -280.1857
  11   2.0000     -10.293269      -280.0941
  12   2.0000     -10.292534      -280.0741
  13   2.0000     -10.289191      -279.9831
  14   2.0000     -10.281699      -279.7792
  15   2.0000     -10.273736      -279.5626
  16   2.0000      -8.084715      -219.9963
  17   2.0000      -8.081942      -219.9208
  18   2.0000      -6.043411      -164.4496
  19   2.0000      -6.040584      -164.3727
  20   2.0000      -6.039432      -164.3413
  21   2.0000      -6.036694      -164.2668
  22   2.0000      -6.035404      -164.2317
  23   2.0000      -6.032548      -164.1540
  24   2.0000      -0.992148       -26.9977
  25   2.0000      -0.971060       -26.4239
  26   2.0000      -0.906592       -24.6696
  27   2.0000      -0.903940       -24.5975
  28   2.0000      -0.860619       -23.4186
  29   2.0000      -0.842670       -22.9302
  30   2.0000      -0.838335       -22.8122
  31   2.0000      -0.803574       -21.8664
  32   2.0000      -0.786103       -21.3909
  33   2.0000      -0.773738       -21.0545
  34   2.0000      -0.707477       -19.2514
  35   2.0000      -0.699789       -19.0422
  36   2.0000      -0.693492       -18.8709
  37   2.0000      -0.659226       -17.9384
  38   2.0000      -0.632167       -17.2021
  39   2.0000      -0.618273       -16.8241
  40   2.0000      -0.600852       -16.3500
  41   2.0000      -0.566769       -15.4226
  42   2.0000      -0.547581       -14.9004
  43   2.0000      -0.543540       -14.7905
  44   2.0000      -0.541144       -14.7253
  45   2.0000      -0.532073       -14.4784
  46   2.0000      -0.515700       -14.0329
  47   2.0000      -0.501305       -13.6412
  48   2.0000      -0.498804       -13.5731
  49   2.0000      -0.494357       -13.4521
  50   2.0000      -0.485126       -13.2009
  51   2.0000      -0.483959       -13.1692
  52   2.0000      -0.468387       -12.7455
  53   2.0000      -0.462345       -12.5811
  54   2.0000      -0.455257       -12.3882
  55   2.0000      -0.446985       -12.1631
  56   2.0000      -0.444497       -12.0954
  57   2.0000      -0.438056       -11.9201
  58   2.0000      -0.433387       -11.7931
  59   2.0000      -0.429313       -11.6822
  60   2.0000      -0.420715       -11.4482
  61   2.0000      -0.415251       -11.2995
  62   2.0000      -0.410378       -11.1670
  63   2.0000      -0.347770        -9.4633
  64   2.0000      -0.330585        -8.9957
  65   2.0000      -0.328739        -8.9455
  66   2.0000      -0.278318        -7.5734
  67   0.0000       0.012460         0.3390
  68   0.0000       0.064499         1.7551
  69   0.0000       0.096641         2.6297
  70   0.0000       0.111662         3.0385
  71   0.0000       0.127939         3.4814

MULLIKEN ATOMIC CHARGES
-----------------------
   0 S :    0.106418
   1 C :   -0.131957
   2 C :   -0.087497
   3 C :    0.028221
   4 C :   -0.143949
   5 H :    0.007305
   6 C :    0.044389
   7 H :    0.017767
   8 H :    0.035066
   9 C :   -0.058784
  10 H :    0.029062
  11 H :    0.028087
  12 C :   -0.051933
  13 H :    0.045693
  14 H :    0.020520
  15 H :    0.038703
  16 S :    0.092345
  17 C :   -0.082529
  18 C :   -0.002771
  19 C :   -0.058351
  20 C :   -0.144096
  21 H :   -0.003773
  22 C :    0.086346
  23 H :    0.016618
  24 H :    0.015059
  25 C :   -0.076527
  26 H :    0.032404
  27 H :    0.023067
  28 C :   -0.073414
  29 H :    0.049433
  30 H :    0.053079
  31 H :    0.020220
  32 H :    0.061604
  33 H :    0.064173
Sum of atomic charges:   -0.0000000

LOEWDIN ATOMIC CHARGES
----------------------
   0 S :    0.390830
   1 C :   -0.197705
   2 C :   -0.062855
   3 C :   -0.060538
   4 C :   -0.189811
   5 H :    0.021634
   6 C :   -0.031608
   7 H :    0.029303
   8 H :    0.034130
   9 C :   -0.033740
  10 H :    0.030323
  11 H :    0.019261
  12 C :   -0.070050
  13 H :    0.026173
  14 H :    0.024203
  15 H :    0.029260
  16 S :    0.380898
  17 C :   -0.180309
  18 C :   -0.059004
  19 C :   -0.045431
  20 C :   -0.187697
  21 H :    0.020404
  22 C :   -0.029285
  23 H :    0.028285
  24 H :    0.029305
  25 C :   -0.029415
  26 H :    0.024739
  27 H :    0.013095
  28 C :   -0.076237
  29 H :    0.032430
  30 H :    0.028212
  31 H :    0.024027
  32 H :    0.034660
  33 H :    0.032514

  Mayer bond orders larger than 0.100000
B(  0-S ,  1-C ) :   1.1355 B(  0-S ,  4-C ) :   1.1617 B(  1-C ,  2-C ) :   1.5726
B(  1-C ,  4-C ) :   0.1148 B(  1-C , 32-H ) :   0.9626 B(  2-C ,  3-C ) :   1.2972
B(  2-C ,  6-C ) :   1.0079 B(  3-C ,  4-C ) :   1.4920 B(  3-C ,  5-H ) :   0.9897
B(  4-C , 20-C ) :   1.0839 B(  6-C ,  7-H ) :   0.9462 B(  6-C ,  8-H ) :   0.9463
B(  6-C ,  9-C ) :   1.0662 B(  9-C , 10-H ) :   0.9551 B(  9-C , 11-H ) :   0.9602
B(  9-C , 12-C ) :   1.0720 B( 12-C , 13-H ) :   0.9729 B( 12-C , 14-H ) :   0.9742
B( 12-C , 15-H ) :   0.9732 B( 16-S , 17-C ) :   1.1390 B( 16-S , 20-C ) :   1.1374
B( 17-C , 18-C ) :   1.6068 B( 17-C , 33-H ) :   0.9683 B( 18-C , 19-C ) :   1.2418
B( 18-C , 21-H ) :   0.9938 B( 19-C , 20-C ) :   1.5519 B( 19-C , 22-C ) :   1.0553
B( 22-C , 23-H ) :   0.9415 B( 22-C , 24-H ) :   0.9229 B( 22-C , 25-C ) :   1.0673
B( 25-C , 26-H ) :   0.9584 B( 25-C , 27-H ) :   0.9623 B( 25-C , 28-C ) :   1.0581
B( 28-C , 29-H ) :   0.9762 B( 28-C , 30-H ) :   0.9742 B( 28-C , 31-H ) :   0.9742

Dispersion correction           -0.014971463
FINAL SINGLE POINT ENERGY     -1339.865994391540

DIPOLE MOMENT
-------------
                                X             Y             Z
Electronic contribution:     -0.61701     -21.62259      -7.94714
Nuclear contribution   :      0.40142      22.37567       7.88349
                        -----------------------------------------
Total Dipole Moment    :     -0.21559       0.75308      -0.06366
                        -----------------------------------------
Magnitude (a.u.)       :      0.78591
Magnitude (Debye)      :      1.99763

Rotational constants in cm-1:     0.021911     0.007950     0.006748
Rotational constants in MHz :   656.865939   238.334063   202.306226

                             ****ORCA TERMINATED NORMALLY****
TOTAL RUN TIME: 0 days 0 hours 0 minutes 30 seconds 502 msec
