                         Program Version 4.2.1 -  RELEASE  -
|  1> ! wB97X-D3 SP def2-SVP
|  2> %pal
|  3> nprocs 16
|  4> end
|  5>
|  6> * xyz 0 1
|  7> S 	 -58.819 	 36.0582 	 132.472
|  8> C 	 -57.0059 	 35.7915 	 132.398
|  9> C 	 -56.3962 	 36.5697 	 133.388
| 10> C 	 -57.261 	 37.5562 	 133.949
| 11> C 	 -58.5646 	 37.41 	 133.615
| 12> H 	 -57.1041 	 38.375 	 134.684
| 13> C 	 -54.8903 	 36.5451 	 133.712
| 14> H 	 -54.6823 	 37.5929 	 133.862
| 15> H 	 -54.3926 	 36.1615 	 132.822
| 16> C 	 -54.5229 	 35.7664 	 134.994
| 17> H 	 -55.2011 	 36.0107 	 135.876
| 18> H 	 -54.6067 	 34.7323 	 134.737
| 19> C 	 -53.0784 	 36.0344 	 135.466
| 20> H 	 -52.8314 	 35.3222 	 136.26
| 21> H 	 -52.4506 	 35.7152 	 134.561
| 22> H 	 -52.8835 	 37.0701 	 135.785
| 23> S 	 -59.749 	 38.7614 	 135.742
| 24> C 	 -61.1295 	 39.79 	 135.408
| 25> C 	 -61.5238 	 39.6925 	 134.067
| 26> C 	 -60.6004 	 38.8607 	 133.307
| 27> C 	 -59.6899 	 38.1915 	 134.13
| 28> H 	 -62.3527 	 40.1667 	 133.608
| 29> C 	 -60.7586 	 38.979 	 131.781
| 30> H 	 -59.8671 	 38.6823 	 131.277
| 31> H 	 -60.9866 	 40.0651 	 131.566
| 32> C 	 -61.801 	 38.0291 	 131.26
| 33> H 	 -62.6823 	 38.2117 	 131.806
| 34> H 	 -61.4503 	 36.9817 	 131.599
| 35> C 	 -62.0319 	 38.2095 	 129.709
| 36> H 	 -62.3802 	 39.1826 	 129.492
| 37> H 	 -62.6506 	 37.4298 	 129.31
| 38> H 	 -61.1346 	 38.0607 	 129.183
| 39> H 	 -56.4221 	 35.2 	 131.734
| 40> H 	 -61.6941 	 40.4719 	 136.093
| 41> *
| 42>
| 43>                          ****END OF INPUT****

CARTESIAN COORDINATES (ANGSTROEM)
---------------------------------
  S    -58.819000   36.058200  132.472000
  C    -57.005900   35.791500  132.398000
  C    -56.396200   36.569700  133.388000
  C    -57.261000   37.556200  133.949000
  C    -58.564600   37.410000  133.615000
  H    -57.104100   38.375000  134.684000
  C    -54.890300   36.545100  133.712000
  H    -54.682300   37.592900  133.862000
  H    -54.392600   36.161500  132.822000
  C    -54.522900   35.766400  134.994000
  H    -55.201100   36.010700  135.876000
  H    -54.606700   34.732300  134.737000
  C    -53.078400   36.034400  135.466000
  H    -52.831400   35.322200  136.260000
  H    -52.450600   35.715200  134.561000
  H    -52.883500   37.070100  135.785000
  S    -59.749000   38.761400  135.742000
  C    -61.129500   39.790000  135.408000
  C    -61.523800   39.692500  134.067000
  C    -60.600400   38.860700  133.307000
  C    -59.689900   38.191500  134.130000
  H    -62.352700   40.166700  133.608000
  C    -60.758600   38.979000  131.781000
  H    -59.867100   38.682300  131.277000
  H    -60.986600   40.065100  131.566000
  C    -61.801000   38.029100  131.260000
  H    -62.682300   38.211700  131.806000
  H    -61.450300   36.981700  131.599000
  C    -62.031900   38.209500  129.709000
  H    -62.380200   39.182600  129.492000
  H    -62.650600   37.429800  129.310000
  H    -61.134600   38.060700  129.183000
  H    -56.422100   35.200000  131.734000
  H    -61.694100   40.471900  136.093000

 Total Charge           Charge          ....    0
 Multiplicity           Mult            ....    1
 Number of Electrons    NEL             ....  134
 Basis Dimension        Dim             ....  322

ORBITAL ENERGIES
----------------

  NO   OCC          E(Eh)            E(eV)
   0   2.0000     -88.974308     -2421.1140
   1   2.0000     -88.967662     -2420.9332
   2   2.0000     -10.329680      -281.0849
   3   2.0000     -10.326715      -281.0042
   4   2.0000     -10.325860      -280.9809
   5   2.0000     -10.319011      -280.7946
   6   2.0000     -10.305988      -280.4402
   7   2.0000     -10.304879      -280.4100
   8   2.0000     -10.296020      -280.1689
   9   2.0000     -10.292872      -280.0833
  10   2.0000     -10.292042      -280.0607
  11   2.0000     -10.290213      -280.0109
  12   2.0000     -10.289293      -279.9859
  13   2.0000     -10.285849      -279.8922
  14   2.0000     -10.284959      -279.8680
  15   2.0000     -10.270020      -279.4615
  16   2.0000      -8.088920      -220.1107
  17   2.0000      -8.079931      -219.8661
  18   2.0000      -6.047504      -164.5610
  19   2.0000      -6.043436      -164.4502
  20   2.0000      -6.039620      -164.3464
  21   2.0000      -6.038703      -164.3215
  22   2.0000      -6.034945      -164.2192
  23   2.0000      -6.030393      -164.0953
  24   2.0000      -1.005697       -27.3664
  25   2.0000      -0.977483       -26.5987
  26   2.0000      -0.910336       -24.7715
  27   2.0000      -0.907129       -24.6842
  28   2.0000      -0.867369       -23.6023
  29   2.0000      -0.849066       -23.1043
  30   2.0000      -0.840090       -22.8600
  31   2.0000      -0.813977       -22.1494
  32   2.0000      -0.783300       -21.3147
  33   2.0000      -0.768685       -20.9170
  34   2.0000      -0.703716       -19.1491
  35   2.0000      -0.693621       -18.8744
  36   2.0000      -0.690948       -18.8017
  37   2.0000      -0.670326       -18.2405
  38   2.0000      -0.633572       -17.2404
  39   2.0000      -0.613871       -16.7043
  40   2.0000      -0.596198       -16.2234
  41   2.0000      -0.568773       -15.4771
  42   2.0000      -0.563272       -15.3274
  43   2.0000      -0.559681       -15.2297
  44   2.0000      -0.527044       -14.3416
  45   2.0000      -0.518964       -14.1217
  46   2.0000      -0.516559       -14.0563
  47   2.0000      -0.511725       -13.9247
  48   2.0000      -0.501362       -13.6427
  49   2.0000      -0.499224       -13.5846
  50   2.0000      -0.490073       -13.3356
  51   2.0000      -0.480578       -13.0772
  52   2.0000      -0.474175       -12.9030
  53   2.0000      -0.464081       -12.6283
  54   2.0000      -0.455921       -12.4063
  55   2.0000      -0.454132       -12.3575
  56   2.0000      -0.439816       -11.9680
  57   2.0000      -0.437068       -11.8932
  58   2.0000      -0.430191       -11.7061
  59   2.0000      -0.424033       -11.5385
  60   2.0000      -0.419681       -11.4201
  61   2.0000      -0.418713       -11.3938
  62   2.0000      -0.409396       -11.1402
  63   2.0000      -0.345358        -9.3977
  64   2.0000      -0.333600        -9.0777
  65   2.0000      -0.327691        -8.9169
  66   2.0000      -0.292845        -7.9687
  67   0.0000       0.026443         0.7195
  68   0.0000       0.074141         2.0175
  69   0.0000       0.098699         2.6857
  70   0.0000       0.108904         2.9634
  71   0.0000       0.126763         3.4494

MULLIKEN ATOMIC CHARGES
-----------------------
   0 S :    0.083836
   1 C :   -0.105707
   2 C :   -0.092368
   3 C :   -0.001420
   4 C :   -0.140566
   5 H :    0.025397
   6 C :    0.074897
   7 H :    0.021642
   8 H :    0.022496
   9 C :   -0.087802
  10 H :    0.045225
  11 H :    0.026936
  12 C :   -0.067985
  13 H :    0.041191
  14 H :    0.034249
  15 H :    0.047346
  16 S :    0.120382
  17 C :   -0.107284
  18 C :   -0.006892
  19 C :   -0.084448
  20 C :   -0.127686
  21 H :    0.013031
  22 C :    0.063283
  23 H :    0.015104
  24 H :    0.038697
  25 C :   -0.094586
  26 H :    0.008637
  27 H :    0.035630
  28 C :    0.023060
  29 H :    0.021988
  30 H :    0.030394
  31 H :    0.011850
  32 H :    0.035800
  33 H :    0.075673
Sum of atomic charges:    0.0000000

LOEWDIN ATOMIC CHARGES
----------------------
   0 S :    0.360191
   1 C :   -0.178626
   2 C :   -0.050625
   3 C :   -0.082043
   4 C :   -0.164238
   5 H :    0.036055
   6 C :   -0.027722
   7 H :    0.028097
   8 H :    0.028860
   9 C :   -0.042978
  10 H :    0.031506
  11 H :    0.021415
  12 C :   -0.071448
  13 H :    0.027468
  14 H :    0.031860
  15 H :    0.025867
  16 S :    0.430305
  17 C :   -0.195204
  18 C :   -0.062390
  19 C :   -0.044081
  20 C :   -0.227264
  21 H :    0.024750
  22 C :   -0.033170
  23 H :    0.019863
  24 H :    0.035222
  25 C :   -0.038021
  26 H :    0.009987
  27 H :    0.025968
  28 C :   -0.053814
  29 H :    0.020594
  30 H :    0.026967
  31 H :    0.020222
  32 H :    0.023479
  33 H :    0.042947

  Mayer bond orders larger than 0.100000
B(  0-S ,  1-C ) :   1.0974 B(  0-S ,  4-C ) :   1.1191 B(  1-C ,  2-C ) :   1.6463
B(  1-C , 32-H ) :   0.9721 B(  2-C ,  3-C ) :   1.1931 B(  2-C ,  6-C ) :   1.0200
B(  3-C ,  4-C ) :   1.6477 B(  3-C ,  5-H ) :   0.9771 B(  4-C , 20-C ) :   1.0332
B(  6-C ,  7-H ) :   0.9443 B(  6-C ,  8-H ) :   0.9408 B(  6-C ,  9-C ) :   1.0567
B(  9-C , 10-H ) :   0.9586 B(  9-C , 11-H ) :   0.9541 B(  9-C , 12-C ) :   1.0815
B( 12-C , 13-H ) :   0.9749 B( 12-C , 14-H ) :   0.9725 B( 12-C , 15-H ) :   0.9766
B( 16-S , 17-C ) :   1.1563 B( 16-S , 20-C ) :   1.1326 B( 17-C , 18-C ) :   1.5970
B( 17-C , 33-H ) :   0.9614 B( 18-C , 19-C ) :   1.2557 B( 18-C , 21-H ) :   0.9894
B( 19-C , 20-C ) :   1.5694 B( 19-C , 22-C ) :   1.0366 B( 22-C , 23-H ) :   0.9258
B( 22-C , 24-H ) :   0.9424 B( 22-C , 25-C ) :   1.0566 B( 25-C , 26-H ) :   0.9603
B( 25-C , 27-H ) :   0.9475 B( 25-C , 28-C ) :   1.0719 B( 28-C , 29-H ) :   0.9742
B( 28-C , 30-H ) :   0.9744 B( 28-C , 31-H ) :   0.9722

Dispersion correction           -0.013937960
FINAL SINGLE POINT ENERGY     -1339.865371633816

DIPOLE MOMENT
-------------
                                X             Y             Z
Electronic contribution:     -9.73440       1.50802       8.65855
Nuclear contribution   :      9.91984      -1.18765      -8.79689
                        -----------------------------------------
Total Dipole Moment    :      0.18544       0.32037      -0.13834
                        -----------------------------------------
Magnitude (a.u.)       :      0.39518
Magnitude (Debye)      :      1.00446

Rotational constants in cm-1:     0.021489     0.007718     0.005984
Rotational constants in MHz :   644.233979   231.378926   179.398023

                             ****ORCA TERMINATED NORMALLY****
TOTAL RUN TIME: 0 days 0 hours 0 minutes 31 seconds 599 msec
