                         Program Version 4.2.1 -  RELEASE  -
|  1> ! wB97X-D3 SP def2-SVP
|  2> %pal
|  3> nprocs 16
|  4> end
|  5>
|  6> * xyz 0 1
|  7> S 	 -34.1982 	 62.3995 	 111.69
|  8> C 	 -34.4568 	 63.9184 	 110.636
|  9> C 	 -33.3994 	 64.7406 	 110.671
| 10> C 	 -32.4352 	 64.2091 	 111.62
| 11> C 	 -32.6531 	 62.9595 	 112.174
| 12> H 	 -31.4496 	 64.6888 	 111.752
| 13> C 	 -33.2342 	 65.9989 	 109.873
| 14> H 	 -32.7594 	 66.7065 	 110.591
| 15> H 	 -34.1375 	 66.6013 	 109.646
| 16> C 	 -32.2509 	 65.8813 	 108.61
| 17> H 	 -32.3207 	 66.9078 	 108.093
| 18> H 	 -31.1612 	 65.7903 	 108.785
| 19> C 	 -32.6054 	 64.7867 	 107.592
| 20> H 	 -32.0181 	 64.9714 	 106.782
| 21> H 	 -32.5839 	 63.7894 	 108.058
| 22> H 	 -33.6063 	 64.9693 	 107.269
| 23> S 	 -32.1839 	 62.0464 	 114.723
| 24> C 	 -30.6431 	 61.457 	 115.121
| 25> C 	 -29.7734 	 61.415 	 114.025
| 26> C 	 -30.3845 	 61.9713 	 112.853
| 27> C 	 -31.7151 	 62.2789 	 113.038
| 28> H 	 -28.6975 	 61.2955 	 114.247
| 29> C 	 -29.6035 	 62.08 	 111.604
| 30> H 	 -30.3453 	 62.3187 	 110.848
| 31> H 	 -29.2348 	 61.133 	 111.218
| 32> C 	 -28.439 	 63.0344 	 111.588
| 33> H 	 -27.6911 	 62.7791 	 112.338
| 34> H 	 -28.8722 	 64.0221 	 111.777
| 35> C 	 -27.7217 	 63.0518 	 110.274
| 36> H 	 -27.6404 	 62.1754 	 109.615
| 37> H 	 -26.7562 	 63.5095 	 110.445
| 38> H 	 -28.1721 	 63.7224 	 109.553
| 39> H 	 -35.3764 	 64.0737 	 110.14
| 40> H 	 -30.4765 	 60.9297 	 116.092
| 41> *
| 42>
| 43>                          ****END OF INPUT****

CARTESIAN COORDINATES (ANGSTROEM)
---------------------------------
  S    -34.198200   62.399500  111.690000
  C    -34.456800   63.918400  110.636000
  C    -33.399400   64.740600  110.671000
  C    -32.435200   64.209100  111.620000
  C    -32.653100   62.959500  112.174000
  H    -31.449600   64.688800  111.752000
  C    -33.234200   65.998900  109.873000
  H    -32.759400   66.706500  110.591000
  H    -34.137500   66.601300  109.646000
  C    -32.250900   65.881300  108.610000
  H    -32.320700   66.907800  108.093000
  H    -31.161200   65.790300  108.785000
  C    -32.605400   64.786700  107.592000
  H    -32.018100   64.971400  106.782000
  H    -32.583900   63.789400  108.058000
  H    -33.606300   64.969300  107.269000
  S    -32.183900   62.046400  114.723000
  C    -30.643100   61.457000  115.121000
  C    -29.773400   61.415000  114.025000
  C    -30.384500   61.971300  112.853000
  C    -31.715100   62.278900  113.038000
  H    -28.697500   61.295500  114.247000
  C    -29.603500   62.080000  111.604000
  H    -30.345300   62.318700  110.848000
  H    -29.234800   61.133000  111.218000
  C    -28.439000   63.034400  111.588000
  H    -27.691100   62.779100  112.338000
  H    -28.872200   64.022100  111.777000
  C    -27.721700   63.051800  110.274000
  H    -27.640400   62.175400  109.615000
  H    -26.756200   63.509500  110.445000
  H    -28.172100   63.722400  109.553000
  H    -35.376400   64.073700  110.140000
  H    -30.476500   60.929700  116.092000

 Total Charge           Charge          ....    0
 Multiplicity           Mult            ....    1
 Number of Electrons    NEL             ....  134
 Basis Dimension        Dim             ....  322

ORBITAL ENERGIES
----------------

  NO   OCC          E(Eh)            E(eV)
   0   2.0000     -88.964356     -2420.8432
   1   2.0000     -88.962343     -2420.7884
   2   2.0000     -10.327955      -281.0379
   3   2.0000     -10.324852      -280.9535
   4   2.0000     -10.319078      -280.7964
   5   2.0000     -10.316793      -280.7342
   6   2.0000     -10.306121      -280.4438
   7   2.0000     -10.303849      -280.3820
   8   2.0000     -10.302248      -280.3384
   9   2.0000     -10.301243      -280.3111
  10   2.0000     -10.295493      -280.1546
  11   2.0000     -10.294629      -280.1311
  12   2.0000     -10.285534      -279.8836
  13   2.0000     -10.281361      -279.7701
  14   2.0000     -10.274501      -279.5834
  15   2.0000     -10.268429      -279.4182
  16   2.0000      -8.080179      -219.8728
  17   2.0000      -8.076542      -219.7739
  18   2.0000      -6.038459      -164.3148
  19   2.0000      -6.035147      -164.2247
  20   2.0000      -6.034488      -164.2068
  21   2.0000      -6.031217      -164.1178
  22   2.0000      -6.031156      -164.1161
  23   2.0000      -6.027116      -164.0062
  24   2.0000      -1.008320       -27.4378
  25   2.0000      -0.983338       -26.7580
  26   2.0000      -0.919720       -25.0268
  27   2.0000      -0.908929       -24.7332
  28   2.0000      -0.871237       -23.7076
  29   2.0000      -0.858753       -23.3679
  30   2.0000      -0.841256       -22.8917
  31   2.0000      -0.807787       -21.9810
  32   2.0000      -0.789800       -21.4915
  33   2.0000      -0.779933       -21.2231
  34   2.0000      -0.708272       -19.2731
  35   2.0000      -0.697961       -18.9925
  36   2.0000      -0.695294       -18.9199
  37   2.0000      -0.658119       -17.9083
  38   2.0000      -0.640318       -17.4240
  39   2.0000      -0.617338       -16.7986
  40   2.0000      -0.600964       -16.3531
  41   2.0000      -0.572109       -15.5679
  42   2.0000      -0.567504       -15.4426
  43   2.0000      -0.554162       -15.0795
  44   2.0000      -0.537558       -14.6277
  45   2.0000      -0.533332       -14.5127
  46   2.0000      -0.519853       -14.1459
  47   2.0000      -0.512531       -13.9467
  48   2.0000      -0.505225       -13.7479
  49   2.0000      -0.501303       -13.6411
  50   2.0000      -0.491938       -13.3863
  51   2.0000      -0.480326       -13.0703
  52   2.0000      -0.466814       -12.7027
  53   2.0000      -0.463199       -12.6043
  54   2.0000      -0.460822       -12.5396
  55   2.0000      -0.443825       -12.0771
  56   2.0000      -0.440791       -11.9945
  57   2.0000      -0.435906       -11.8616
  58   2.0000      -0.435109       -11.8399
  59   2.0000      -0.427365       -11.6292
  60   2.0000      -0.415089       -11.2951
  61   2.0000      -0.413115       -11.2414
  62   2.0000      -0.411128       -11.1874
  63   2.0000      -0.340455        -9.2643
  64   2.0000      -0.331621        -9.0239
  65   2.0000      -0.326823        -8.8933
  66   2.0000      -0.302239        -8.2243
  67   0.0000       0.034692         0.9440
  68   0.0000       0.067192         1.8284
  69   0.0000       0.107324         2.9204
  70   0.0000       0.113092         3.0774
  71   0.0000       0.120734         3.2853

MULLIKEN ATOMIC CHARGES
-----------------------
   0 S :    0.084356
   1 C :   -0.135105
   2 C :   -0.037310
   3 C :    0.023345
   4 C :   -0.157858
   5 H :    0.009919
   6 C :    0.045153
   7 H :    0.032844
   8 H :    0.040881
   9 C :   -0.135713
  10 H :    0.034229
  11 H :    0.038084
  12 C :    0.005171
  13 H :    0.016660
  14 H :    0.058456
  15 H :    0.009918
  16 S :    0.116876
  17 C :   -0.121381
  18 C :   -0.042923
  19 C :   -0.020238
  20 C :   -0.148508
  21 H :    0.042248
  22 C :    0.055149
  23 H :    0.014576
  24 H :    0.020251
  25 C :   -0.053205
  26 H :    0.031204
  27 H :    0.028067
  28 C :   -0.043867
  29 H :    0.032137
  30 H :    0.028631
  31 H :    0.014611
  32 H :    0.032926
  33 H :    0.080417
Sum of atomic charges:    0.0000000

LOEWDIN ATOMIC CHARGES
----------------------
   0 S :    0.364852
   1 C :   -0.145255
   2 C :   -0.067086
   3 C :   -0.063613
   4 C :   -0.210814
   5 H :    0.027888
   6 C :   -0.040092
   7 H :    0.040102
   8 H :    0.038278
   9 C :   -0.043093
  10 H :    0.030304
  11 H :    0.023533
  12 C :   -0.057809
  13 H :    0.015275
  14 H :    0.033750
  15 H :    0.020292
  16 S :    0.426735
  17 C :   -0.202681
  18 C :   -0.081579
  19 C :   -0.048023
  20 C :   -0.200818
  21 H :    0.038653
  22 C :   -0.039643
  23 H :    0.029733
  24 H :    0.031031
  25 C :   -0.035703
  26 H :    0.024123
  27 H :    0.027667
  28 C :   -0.073172
  29 H :    0.028759
  30 H :    0.027875
  31 H :    0.024145
  32 H :    0.018143
  33 H :    0.038242

  Mayer bond orders larger than 0.100000
B(  0-S ,  1-C ) :   1.1054 B(  0-S ,  4-C ) :   1.1367 B(  1-C ,  2-C ) :   1.6386
B(  1-C , 32-H ) :   0.9785 B(  2-C ,  3-C ) :   1.2064 B(  2-C ,  6-C ) :   1.0231
B(  3-C ,  4-C ) :   1.6011 B(  3-C ,  5-H ) :   0.9857 B(  4-C , 20-C ) :   1.0238
B(  6-C ,  7-H ) :   0.9347 B(  6-C ,  8-H ) :   0.9507 B(  6-C ,  9-C ) :   1.0502
B(  9-C , 10-H ) :   0.9573 B(  9-C , 11-H ) :   0.9626 B(  9-C , 12-C ) :   1.0746
B( 12-C , 13-H ) :   0.9707 B( 12-C , 14-H ) :   0.9724 B( 12-C , 15-H ) :   0.9731
B( 16-S , 17-C ) :   1.1932 B( 16-S , 20-C ) :   1.1404 B( 17-C , 18-C ) :   1.5952
B( 17-C , 33-H ) :   0.9564 B( 18-C , 19-C ) :   1.2398 B( 18-C , 21-H ) :   0.9818
B( 19-C , 20-C ) :   1.6013 B( 19-C , 22-C ) :   1.0591 B( 22-C , 23-H ) :   0.9273
B( 22-C , 24-H ) :   0.9305 B( 22-C , 25-C ) :   1.0689 B( 25-C , 26-H ) :   0.9582
B( 25-C , 27-H ) :   0.9475 B( 25-C , 28-C ) :   1.0849 B( 28-C , 29-H ) :   0.9729
B( 28-C , 30-H ) :   0.9729 B( 28-C , 31-H ) :   0.9700

Dispersion correction           -0.014801065
FINAL SINGLE POINT ENERGY     -1339.861820964858

DIPOLE MOMENT
-------------
                                X             Y             Z
Electronic contribution:    -17.44692     -12.51747      23.15360
Nuclear contribution   :     17.95069      12.98660     -23.57804
                        -----------------------------------------
Total Dipole Moment    :      0.50377       0.46913      -0.42444
                        -----------------------------------------
Magnitude (a.u.)       :      0.80871
Magnitude (Debye)      :      2.05558

Rotational constants in cm-1:     0.017180     0.010029     0.006957
Rotational constants in MHz :   515.035321   300.654346   208.567859

                             ****ORCA TERMINATED NORMALLY****
TOTAL RUN TIME: 0 days 0 hours 0 minutes 28 seconds 291 msec
