                         Program Version 4.2.1 -  RELEASE  -
|  1> ! wB97X-D3 SP def2-SVP
|  2> %pal
|  3> nprocs 16
|  4> end
|  5>
|  6> * xyz 0 1
|  7> S 	 -79.8043 	 44.2867 	 125.337
|  8> C 	 -80.9761 	 44.7614 	 124.197
|  9> C 	 -81.0803 	 43.8081 	 123.206
| 10> C 	 -80.1673 	 42.7212 	 123.334
| 11> C 	 -79.4427 	 42.7611 	 124.508
| 12> H 	 -79.9935 	 41.8999 	 122.626
| 13> C 	 -81.9487 	 43.9613 	 121.97
| 14> H 	 -81.602 	 43.2687 	 121.206
| 15> H 	 -81.7832 	 45.0132 	 121.574
| 16> C 	 -83.4351 	 43.5459 	 122.115
| 17> H 	 -83.7315 	 43.3179 	 121.091
| 18> H 	 -83.5024 	 42.6144 	 122.621
| 19> C 	 -84.2927 	 44.6327 	 122.759
| 20> H 	 -84.0792 	 44.9568 	 123.775
| 21> H 	 -84.2753 	 45.5479 	 122.125
| 22> H 	 -85.281 	 44.345 	 122.85
| 23> S 	 -77.0022 	 42.6268 	 125.772
| 24> C 	 -76.333 	 41.0882 	 126.157
| 25> C 	 -76.9974 	 40.0658 	 125.534
| 26> C 	 -78.162 	 40.5068 	 124.875
| 27> C 	 -78.3398 	 41.8992 	 124.977
| 28> H 	 -76.6225 	 39.0586 	 125.638
| 29> C 	 -79.158 	 39.5272 	 124.322
| 30> H 	 -78.6479 	 38.5734 	 124.279
| 31> H 	 -79.4375 	 39.7002 	 123.259
| 32> C 	 -80.4135 	 39.3115 	 125.223
| 33> H 	 -80.7309 	 40.3009 	 125.478
| 34> H 	 -80.1213 	 38.8338 	 126.162
| 35> C 	 -81.6159 	 38.5594 	 124.492
| 36> H 	 -81.2231 	 37.6229 	 124.047
| 37> H 	 -81.9319 	 39.1939 	 123.61
| 38> H 	 -82.4535 	 38.2975 	 125.173
| 39> H 	 -81.4083 	 45.7019 	 124.124
| 40> H 	 -75.6051 	 40.9465 	 126.983
| 41> *
| 42>
| 43>                          ****END OF INPUT****

CARTESIAN COORDINATES (ANGSTROEM)
---------------------------------
  S    -79.804300   44.286700  125.337000
  C    -80.976100   44.761400  124.197000
  C    -81.080300   43.808100  123.206000
  C    -80.167300   42.721200  123.334000
  C    -79.442700   42.761100  124.508000
  H    -79.993500   41.899900  122.626000
  C    -81.948700   43.961300  121.970000
  H    -81.602000   43.268700  121.206000
  H    -81.783200   45.013200  121.574000
  C    -83.435100   43.545900  122.115000
  H    -83.731500   43.317900  121.091000
  H    -83.502400   42.614400  122.621000
  C    -84.292700   44.632700  122.759000
  H    -84.079200   44.956800  123.775000
  H    -84.275300   45.547900  122.125000
  H    -85.281000   44.345000  122.850000
  S    -77.002200   42.626800  125.772000
  C    -76.333000   41.088200  126.157000
  C    -76.997400   40.065800  125.534000
  C    -78.162000   40.506800  124.875000
  C    -78.339800   41.899200  124.977000
  H    -76.622500   39.058600  125.638000
  C    -79.158000   39.527200  124.322000
  H    -78.647900   38.573400  124.279000
  H    -79.437500   39.700200  123.259000
  C    -80.413500   39.311500  125.223000
  H    -80.730900   40.300900  125.478000
  H    -80.121300   38.833800  126.162000
  C    -81.615900   38.559400  124.492000
  H    -81.223100   37.622900  124.047000
  H    -81.931900   39.193900  123.610000
  H    -82.453500   38.297500  125.173000
  H    -81.408300   45.701900  124.124000
  H    -75.605100   40.946500  126.983000

 Total Charge           Charge          ....    0
 Multiplicity           Mult            ....    1
 Number of Electrons    NEL             ....  134
 Basis Dimension        Dim             ....  322

ORBITAL ENERGIES
----------------

  NO   OCC          E(Eh)            E(eV)
   0   2.0000     -88.966632     -2420.9051
   1   2.0000     -88.964425     -2420.8451
   2   2.0000     -10.332195      -281.1533
   3   2.0000     -10.327482      -281.0251
   4   2.0000     -10.314459      -280.6707
   5   2.0000     -10.306657      -280.4584
   6   2.0000     -10.302535      -280.3462
   7   2.0000     -10.298222      -280.2289
   8   2.0000     -10.295749      -280.1616
   9   2.0000     -10.292979      -280.0862
  10   2.0000     -10.292395      -280.0703
  11   2.0000     -10.291997      -280.0595
  12   2.0000     -10.289748      -279.9983
  13   2.0000     -10.286184      -279.9013
  14   2.0000     -10.285589      -279.8851
  15   2.0000     -10.272389      -279.5259
  16   2.0000      -8.082484      -219.9356
  17   2.0000      -8.079687      -219.8595
  18   2.0000      -6.040788      -164.3782
  19   2.0000      -6.038174      -164.3071
  20   2.0000      -6.036757      -164.2685
  21   2.0000      -6.033997      -164.1934
  22   2.0000      -6.033471      -164.1791
  23   2.0000      -6.030554      -164.0997
  24   2.0000      -1.012300       -27.5461
  25   2.0000      -0.991480       -26.9795
  26   2.0000      -0.908776       -24.7291
  27   2.0000      -0.903748       -24.5922
  28   2.0000      -0.870988       -23.7008
  29   2.0000      -0.850783       -23.1510
  30   2.0000      -0.844429       -22.9781
  31   2.0000      -0.815614       -22.1940
  32   2.0000      -0.781656       -21.2700
  33   2.0000      -0.770642       -20.9702
  34   2.0000      -0.708624       -19.2826
  35   2.0000      -0.701641       -19.0926
  36   2.0000      -0.691265       -18.8103
  37   2.0000      -0.664599       -18.0847
  38   2.0000      -0.642946       -17.4955
  39   2.0000      -0.618902       -16.8412
  40   2.0000      -0.596037       -16.2190
  41   2.0000      -0.571665       -15.5558
  42   2.0000      -0.557822       -15.1791
  43   2.0000      -0.545866       -14.8538
  44   2.0000      -0.538317       -14.6483
  45   2.0000      -0.522433       -14.2161
  46   2.0000      -0.515119       -14.0171
  47   2.0000      -0.509619       -13.8674
  48   2.0000      -0.503936       -13.7128
  49   2.0000      -0.501270       -13.6403
  50   2.0000      -0.492758       -13.4086
  51   2.0000      -0.487900       -13.2764
  52   2.0000      -0.471124       -12.8199
  53   2.0000      -0.464000       -12.6261
  54   2.0000      -0.461074       -12.5465
  55   2.0000      -0.448070       -12.1926
  56   2.0000      -0.441795       -12.0219
  57   2.0000      -0.440170       -11.9776
  58   2.0000      -0.434431       -11.8215
  59   2.0000      -0.428148       -11.6505
  60   2.0000      -0.419485       -11.4148
  61   2.0000      -0.413638       -11.2556
  62   2.0000      -0.409386       -11.1400
  63   2.0000      -0.354168        -9.6374
  64   2.0000      -0.335697        -9.1348
  65   2.0000      -0.327679        -8.9166
  66   2.0000      -0.286218        -7.7884
  67   0.0000       0.020050         0.5456
  68   0.0000       0.081619         2.2210
  69   0.0000       0.107909         2.9363
  70   0.0000       0.125466         3.4141
  71   0.0000       0.129373         3.5204

MULLIKEN ATOMIC CHARGES
-----------------------
   0 S :    0.101093
   1 C :   -0.077530
   2 C :   -0.090815
   3 C :    0.017503
   4 C :   -0.140797
   5 H :    0.017485
   6 C :    0.015616
   7 H :    0.014395
   8 H :    0.041987
   9 C :   -0.025614
  10 H :    0.024922
  11 H :    0.019735
  12 C :   -0.030799
  13 H :    0.028934
  14 H :    0.026011
  15 H :    0.013370
  16 S :    0.119602
  17 C :   -0.115468
  18 C :   -0.034144
  19 C :   -0.032535
  20 C :   -0.145978
  21 H :    0.019335
  22 C :    0.043092
  23 H :    0.007436
  24 H :    0.029025
  25 C :   -0.052866
  26 H :    0.032208
  27 H :    0.027606
  28 C :   -0.078443
  29 H :    0.030473
  30 H :    0.040988
  31 H :    0.053739
  32 H :    0.027048
  33 H :    0.073384
Sum of atomic charges:   -0.0000000

LOEWDIN ATOMIC CHARGES
----------------------
   0 S :    0.414195
   1 C :   -0.201792
   2 C :   -0.066843
   3 C :   -0.066165
   4 C :   -0.185861
   5 H :    0.034857
   6 C :   -0.035230
   7 H :    0.027567
   8 H :    0.036272
   9 C :   -0.031619
  10 H :    0.025891
  11 H :    0.021405
  12 C :   -0.067041
  13 H :    0.025877
  14 H :    0.028649
  15 H :    0.015901
  16 S :    0.434430
  17 C :   -0.201944
  18 C :   -0.069868
  19 C :   -0.060820
  20 C :   -0.208380
  21 H :    0.034048
  22 C :   -0.036785
  23 H :    0.026665
  24 H :    0.028076
  25 C :   -0.033292
  26 H :    0.019545
  27 H :    0.023764
  28 C :   -0.072822
  29 H :    0.023143
  30 H :    0.030564
  31 H :    0.031629
  32 H :    0.018334
  33 H :    0.037648

  Mayer bond orders larger than 0.100000
B(  0-S ,  1-C ) :   1.1467 B(  0-S ,  4-C ) :   1.1553 B(  1-C ,  2-C ) :   1.5873
B(  1-C , 32-H ) :   0.9759 B(  2-C ,  3-C ) :   1.2662 B(  2-C ,  6-C ) :   1.0241
B(  3-C ,  4-C ) :   1.5527 B(  3-C ,  5-H ) :   0.9888 B(  4-C , 20-C ) :   1.0583
B(  6-C ,  7-H ) :   0.9431 B(  6-C ,  8-H ) :   0.9471 B(  6-C ,  9-C ) :   1.0667
B(  9-C , 10-H ) :   0.9569 B(  9-C , 11-H ) :   0.9514 B(  9-C , 12-C ) :   1.0810
B( 12-C , 13-H ) :   0.9727 B( 12-C , 14-H ) :   0.9749 B( 12-C , 15-H ) :   0.9716
B( 16-S , 17-C ) :   1.1712 B( 16-S , 20-C ) :   1.1670 B( 17-C , 18-C ) :   1.5824
B( 17-C , 33-H ) :   0.9600 B( 18-C , 19-C ) :   1.2827 B( 18-C , 21-H ) :   0.9936
B( 19-C , 20-C ) :   1.5364 B( 19-C , 22-C ) :   1.0568 B( 22-C , 23-H ) :   0.9243
B( 22-C , 24-H ) :   0.9364 B( 22-C , 25-C ) :   1.0469 B( 25-C , 26-H ) :   0.9644
B( 25-C , 27-H ) :   0.9551 B( 25-C , 28-C ) :   1.0660 B( 28-C , 29-H ) :   0.9774
B( 28-C , 30-H ) :   0.9760 B( 28-C , 31-H ) :   0.9757

Dispersion correction           -0.014547927
FINAL SINGLE POINT ENERGY     -1339.885791510706

DIPOLE MOMENT
-------------
                                X             Y             Z
Electronic contribution:     24.29867      11.22694      12.52689
Nuclear contribution   :    -24.59004     -11.60014     -12.81788
                        -----------------------------------------
Total Dipole Moment    :     -0.29136      -0.37320      -0.29099
                        -----------------------------------------
Magnitude (a.u.)       :      0.55574
Magnitude (Debye)      :      1.41257

Rotational constants in cm-1:     0.020074     0.008865     0.006667
Rotational constants in MHz :   601.788796   265.779698   199.862356

                             ****ORCA TERMINATED NORMALLY****
TOTAL RUN TIME: 0 days 0 hours 0 minutes 50 seconds 171 msec
