                         Program Version 4.2.1 -  RELEASE  -
|  1> ! wB97X-D3 SP def2-SVP
|  2> %pal
|  3> nprocs 16
|  4> end
|  5>
|  6> * xyz 0 1
|  7> S 	 36.9414 	 16.0081 	 77.2039
|  8> C 	 35.2766 	 15.9744 	 76.5806
|  9> C 	 34.3948 	 16.1215 	 77.626
| 10> C 	 35.0397 	 16.2279 	 78.9107
| 11> C 	 36.4329 	 16.2548 	 78.7931
| 12> H 	 34.414 	 16.3952 	 79.7813
| 13> C 	 32.8737 	 16.2754 	 77.5011
| 14> H 	 32.47 	 16.5619 	 76.5204
| 15> H 	 32.6715 	 17.1815 	 78.0727
| 16> C 	 32.0422 	 15.0571 	 78.0967
| 17> H 	 32.1635 	 14.2178 	 77.4173
| 18> H 	 32.5492 	 14.856 	 79.0273
| 19> C 	 30.5322 	 15.3679 	 78.2164
| 20> H 	 30.4257 	 16.1888 	 78.8966
| 21> H 	 30.1696 	 15.6209 	 77.1768
| 22> H 	 30.0456 	 14.4605 	 78.5637
| 23> S 	 38.3655 	 17.9147 	 79.8861
| 24> C 	 39.2725 	 17.4195 	 81.3358
| 25> C 	 38.7412 	 16.214 	 81.8113
| 26> C 	 37.6679 	 15.7261 	 80.9847
| 27> C 	 37.3939 	 16.46 	 79.8656
| 28> H 	 39.1361 	 15.7199 	 82.6586
| 29> C 	 36.994 	 14.3804 	 81.2707
| 30> H 	 37.5896 	 13.7792 	 82.0346
| 31> H 	 37.1962 	 13.7675 	 80.3857
| 32> C 	 35.5252 	 14.2981 	 81.7197
| 33> H 	 34.884 	 14.6564 	 80.9472
| 34> H 	 35.4421 	 14.9683 	 82.5594
| 35> C 	 35.1851 	 12.8689 	 82.0563
| 36> H 	 34.1428 	 12.6745 	 82.1434
| 37> H 	 35.5405 	 12.4264 	 83.0353
| 38> H 	 35.4871 	 12.1512 	 81.3002
| 39> H 	 34.9245 	 15.7299 	 75.5398
| 40> H 	 40.1225 	 17.9014 	 81.7913
| 41> *
| 42>
| 43>                          ****END OF INPUT****

CARTESIAN COORDINATES (ANGSTROEM)
---------------------------------
  S     36.941400   16.008100   77.203900
  C     35.276600   15.974400   76.580600
  C     34.394800   16.121500   77.626000
  C     35.039700   16.227900   78.910700
  C     36.432900   16.254800   78.793100
  H     34.414000   16.395200   79.781300
  C     32.873700   16.275400   77.501100
  H     32.470000   16.561900   76.520400
  H     32.671500   17.181500   78.072700
  C     32.042200   15.057100   78.096700
  H     32.163500   14.217800   77.417300
  H     32.549200   14.856000   79.027300
  C     30.532200   15.367900   78.216400
  H     30.425700   16.188800   78.896600
  H     30.169600   15.620900   77.176800
  H     30.045600   14.460500   78.563700
  S     38.365500   17.914700   79.886100
  C     39.272500   17.419500   81.335800
  C     38.741200   16.214000   81.811300
  C     37.667900   15.726100   80.984700
  C     37.393900   16.460000   79.865600
  H     39.136100   15.719900   82.658600
  C     36.994000   14.380400   81.270700
  H     37.589600   13.779200   82.034600
  H     37.196200   13.767500   80.385700
  C     35.525200   14.298100   81.719700
  H     34.884000   14.656400   80.947200
  H     35.442100   14.968300   82.559400
  C     35.185100   12.868900   82.056300
  H     34.142800   12.674500   82.143400
  H     35.540500   12.426400   83.035300
  H     35.487100   12.151200   81.300200
  H     34.924500   15.729900   75.539800
  H     40.122500   17.901400   81.791300

 Total Charge           Charge          ....    0
 Multiplicity           Mult            ....    1
 Number of Electrons    NEL             ....  134
 Basis Dimension        Dim             ....  322

ORBITAL ENERGIES
----------------

  NO   OCC          E(Eh)            E(eV)
   0   2.0000     -88.970225     -2421.0029
   1   2.0000     -88.964395     -2420.8443
   2   2.0000     -10.332168      -281.1526
   3   2.0000     -10.323876      -280.9269
   4   2.0000     -10.321604      -280.8651
   5   2.0000     -10.318951      -280.7929
   6   2.0000     -10.303190      -280.3640
   7   2.0000     -10.301161      -280.3088
   8   2.0000     -10.298659      -280.2408
   9   2.0000     -10.296534      -280.1829
  10   2.0000     -10.294402      -280.1249
  11   2.0000     -10.290711      -280.0245
  12   2.0000     -10.290226      -280.0113
  13   2.0000     -10.285230      -279.8753
  14   2.0000     -10.281444      -279.7723
  15   2.0000     -10.275280      -279.6046
  16   2.0000      -8.085405      -220.0151
  17   2.0000      -8.078610      -219.8302
  18   2.0000      -6.043899      -164.4628
  19   2.0000      -6.039736      -164.3496
  20   2.0000      -6.037254      -164.2820
  21   2.0000      -6.036242      -164.2545
  22   2.0000      -6.033052      -164.1677
  23   2.0000      -6.029374      -164.0676
  24   2.0000      -1.010063       -27.4852
  25   2.0000      -0.983008       -26.7490
  26   2.0000      -0.908263       -24.7151
  27   2.0000      -0.905803       -24.6481
  28   2.0000      -0.869952       -23.6726
  29   2.0000      -0.849430       -23.1142
  30   2.0000      -0.846288       -23.0287
  31   2.0000      -0.813226       -22.1290
  32   2.0000      -0.780736       -21.2449
  33   2.0000      -0.769098       -20.9282
  34   2.0000      -0.709296       -19.3009
  35   2.0000      -0.701315       -19.0837
  36   2.0000      -0.694696       -18.9036
  37   2.0000      -0.666031       -18.1236
  38   2.0000      -0.636626       -17.3235
  39   2.0000      -0.625612       -17.0238
  40   2.0000      -0.591435       -16.0938
  41   2.0000      -0.569384       -15.4937
  42   2.0000      -0.565407       -15.3855
  43   2.0000      -0.562472       -15.3056
  44   2.0000      -0.527344       -14.3498
  45   2.0000      -0.519943       -14.1484
  46   2.0000      -0.517930       -14.0936
  47   2.0000      -0.512788       -13.9537
  48   2.0000      -0.500821       -13.6280
  49   2.0000      -0.500374       -13.6159
  50   2.0000      -0.498540       -13.5660
  51   2.0000      -0.479655       -13.0521
  52   2.0000      -0.466523       -12.6947
  53   2.0000      -0.465865       -12.6768
  54   2.0000      -0.455748       -12.4015
  55   2.0000      -0.452767       -12.3204
  56   2.0000      -0.446332       -12.1453
  57   2.0000      -0.434545       -11.8246
  58   2.0000      -0.432311       -11.7638
  59   2.0000      -0.431331       -11.7371
  60   2.0000      -0.415963       -11.3189
  61   2.0000      -0.413943       -11.2640
  62   2.0000      -0.411635       -11.2012
  63   2.0000      -0.339693        -9.2435
  64   2.0000      -0.333967        -9.0877
  65   2.0000      -0.325732        -8.8636
  66   2.0000      -0.302740        -8.2380
  67   0.0000       0.034225         0.9313
  68   0.0000       0.064999         1.7687
  69   0.0000       0.115854         3.1526
  70   0.0000       0.121298         3.3007
  71   0.0000       0.125478         3.4144

MULLIKEN ATOMIC CHARGES
-----------------------
   0 S :    0.131379
   1 C :   -0.143346
   2 C :   -0.085930
   3 C :    0.043824
   4 C :   -0.159879
   5 H :    0.024837
   6 C :    0.024341
   7 H :    0.016679
   8 H :    0.026693
   9 C :   -0.088411
  10 H :    0.032418
  11 H :    0.025388
  12 C :   -0.033059
  13 H :    0.032873
  14 H :    0.039821
  15 H :    0.043872
  16 S :    0.104827
  17 C :   -0.092787
  18 C :   -0.018895
  19 C :   -0.008659
  20 C :   -0.156872
  21 H :    0.007349
  22 C :   -0.004863
  23 H :    0.017303
  24 H :    0.033528
  25 C :    0.001967
  26 H :    0.017804
  27 H :    0.024811
  28 C :   -0.055094
  29 H :    0.014338
  30 H :    0.032624
  31 H :    0.025627
  32 H :    0.066529
  33 H :    0.058961
Sum of atomic charges:    0.0000000

LOEWDIN ATOMIC CHARGES
----------------------
   0 S :    0.435466
   1 C :   -0.206783
   2 C :   -0.063610
   3 C :   -0.061693
   4 C :   -0.212622
   5 H :    0.031309
   6 C :   -0.035964
   7 H :    0.025629
   8 H :    0.029938
   9 C :   -0.035576
  10 H :    0.023023
  11 H :    0.017358
  12 C :   -0.060785
  13 H :    0.021486
  14 H :    0.032755
  15 H :    0.028477
  16 S :    0.396978
  17 C :   -0.176149
  18 C :   -0.063865
  19 C :   -0.060008
  20 C :   -0.206191
  21 H :    0.025758
  22 C :   -0.039262
  23 H :    0.032152
  24 H :    0.032057
  25 C :   -0.035333
  26 H :    0.018752
  27 H :    0.025370
  28 C :   -0.071696
  29 H :    0.020711
  30 H :    0.030998
  31 H :    0.026311
  32 H :    0.043503
  33 H :    0.031507

  Mayer bond orders larger than 0.100000
B(  0-S ,  1-C ) :   1.1237 B(  0-S ,  4-C ) :   1.1913 B(  1-C ,  2-C ) :   1.6231
B(  1-C , 32-H ) :   0.9616 B(  2-C ,  3-C ) :   1.2595 B(  2-C ,  6-C ) :   1.0122
B(  3-C ,  4-C ) :   1.5381 B(  3-C ,  5-H ) :   0.9821 B(  4-C , 20-C ) :   1.0106
B(  6-C ,  7-H ) :   0.9499 B(  6-C ,  8-H ) :   0.9454 B(  6-C ,  9-C ) :   1.0445
B(  9-C , 10-H ) :   0.9584 B(  9-C , 11-H ) :   0.9610 B(  9-C , 12-C ) :   1.0769
B( 12-C , 13-H ) :   0.9778 B( 12-C , 14-H ) :   0.9736 B( 12-C , 15-H ) :   0.9746
B( 16-S , 17-C ) :   1.1528 B( 16-S , 20-C ) :   1.1331 B( 17-C , 18-C ) :   1.5949
B( 17-C , 33-H ) :   0.9697 B( 18-C , 19-C ) :   1.2468 B( 18-C , 21-H ) :   0.9964
B( 19-C , 20-C ) :   1.6150 B( 19-C , 22-C ) :   1.0300 B( 22-C , 23-H ) :   0.9469
B( 22-C , 24-H ) :   0.9304 B( 22-C , 25-C ) :   1.0633 B( 25-C , 26-H ) :   0.9417
B( 25-C , 27-H ) :   0.9515 B( 25-C , 28-C ) :   1.0879 B( 28-C , 29-H ) :   0.9708
B( 28-C , 30-H ) :   0.9727 B( 28-C , 31-H ) :   0.9721

Dispersion correction           -0.014455318
FINAL SINGLE POINT ENERGY     -1339.882082114027

DIPOLE MOMENT
-------------
                                X             Y             Z
Electronic contribution:     26.26006      15.84148      -8.48309
Nuclear contribution   :    -26.78716     -16.19105       8.70673
                        -----------------------------------------
Total Dipole Moment    :     -0.52710      -0.34957       0.22363
                        -----------------------------------------
Magnitude (a.u.)       :      0.67085
Magnitude (Debye)      :      1.70518

Rotational constants in cm-1:     0.018320     0.008927     0.006806
Rotational constants in MHz :   549.234110   267.615731   204.044907

                             ****ORCA TERMINATED NORMALLY****
TOTAL RUN TIME: 0 days 0 hours 0 minutes 29 seconds 262 msec
