                         Program Version 4.2.1 -  RELEASE  -
|  1> ! wB97X-D3 SP def2-SVP
|  2> %pal
|  3> nprocs 16
|  4> end
|  5>
|  6> * xyz 0 1
|  7> S 	 -14.6047 	 42.8832 	 32.7848
|  8> C 	 -13.1032 	 42.0319 	 32.9958
|  9> C 	 -12.9327 	 40.9305 	 32.1347
| 10> C 	 -14.047 	 40.7035 	 31.3074
| 11> C 	 -15.0313 	 41.7036 	 31.4649
| 12> H 	 -14.2336 	 39.8916 	 30.6016
| 13> C 	 -11.8421 	 39.8911 	 32.1489
| 14> H 	 -10.9923 	 40.2485 	 32.8047
| 15> H 	 -11.4331 	 39.8593 	 31.1663
| 16> C 	 -12.1163 	 38.5431 	 32.7995
| 17> H 	 -12.8089 	 38.1005 	 32.1297
| 18> H 	 -11.1644 	 38.0395 	 32.8502
| 19> C 	 -12.5249 	 38.6098 	 34.2913
| 20> H 	 -13.424 	 39.2554 	 34.2982
| 21> H 	 -12.7472 	 37.6196 	 34.6136
| 22> H 	 -11.8252 	 39.1203 	 34.9971
| 23> S 	 -17.8024 	 41.3436 	 31.2539
| 24> C 	 -18.5907 	 41.6603 	 29.6948
| 25> C 	 -17.641 	 42.0313 	 28.8083
| 26> C 	 -16.3743 	 42.347 	 29.3258
| 27> C 	 -16.2133 	 41.9518 	 30.6801
| 28> H 	 -18.0361 	 42.2668 	 27.8219
| 29> C 	 -15.2528 	 42.7758 	 28.4624
| 30> H 	 -15.415 	 42.6861 	 27.3622
| 31> H 	 -14.4817 	 42.0219 	 28.6805
| 32> C 	 -14.7456 	 44.1689 	 28.577
| 33> H 	 -14.5378 	 44.372 	 29.594
| 34> H 	 -15.4594 	 44.7813 	 28.2415
| 35> C 	 -13.3532 	 44.374 	 27.8753
| 36> H 	 -12.9875 	 45.4092 	 27.954
| 37> H 	 -13.5273 	 44.1842 	 26.773
| 38> H 	 -12.5734 	 43.7106 	 28.1926
| 39> H 	 -12.3545 	 42.3463 	 33.7601
| 40> H 	 -19.6017 	 41.4839 	 29.3868
| 41> *
| 42>
| 43>                          ****END OF INPUT****

CARTESIAN COORDINATES (ANGSTROEM)
---------------------------------
  S    -14.604700   42.883200   32.784800
  C    -13.103200   42.031900   32.995800
  C    -12.932700   40.930500   32.134700
  C    -14.047000   40.703500   31.307400
  C    -15.031300   41.703600   31.464900
  H    -14.233600   39.891600   30.601600
  C    -11.842100   39.891100   32.148900
  H    -10.992300   40.248500   32.804700
  H    -11.433100   39.859300   31.166300
  C    -12.116300   38.543100   32.799500
  H    -12.808900   38.100500   32.129700
  H    -11.164400   38.039500   32.850200
  C    -12.524900   38.609800   34.291300
  H    -13.424000   39.255400   34.298200
  H    -12.747200   37.619600   34.613600
  H    -11.825200   39.120300   34.997100
  S    -17.802400   41.343600   31.253900
  C    -18.590700   41.660300   29.694800
  C    -17.641000   42.031300   28.808300
  C    -16.374300   42.347000   29.325800
  C    -16.213300   41.951800   30.680100
  H    -18.036100   42.266800   27.821900
  C    -15.252800   42.775800   28.462400
  H    -15.415000   42.686100   27.362200
  H    -14.481700   42.021900   28.680500
  C    -14.745600   44.168900   28.577000
  H    -14.537800   44.372000   29.594000
  H    -15.459400   44.781300   28.241500
  C    -13.353200   44.374000   27.875300
  H    -12.987500   45.409200   27.954000
  H    -13.527300   44.184200   26.773000
  H    -12.573400   43.710600   28.192600
  H    -12.354500   42.346300   33.760100
  H    -19.601700   41.483900   29.386800

 Total Charge           Charge          ....    0
 Multiplicity           Mult            ....    1
 Number of Electrons    NEL             ....  134
 Basis Dimension        Dim             ....  322

ORBITAL ENERGIES
----------------

  NO   OCC          E(Eh)            E(eV)
   0   2.0000     -88.972081     -2421.0534
   1   2.0000     -88.962569     -2420.7946
   2   2.0000     -10.336498      -281.2704
   3   2.0000     -10.328781      -281.0604
   4   2.0000     -10.323566      -280.9185
   5   2.0000     -10.315921      -280.7105
   6   2.0000     -10.304174      -280.3908
   7   2.0000     -10.303861      -280.3823
   8   2.0000     -10.303491      -280.3722
   9   2.0000     -10.289969      -280.0043
  10   2.0000     -10.287137      -279.9272
  11   2.0000     -10.284215      -279.8477
  12   2.0000     -10.283091      -279.8171
  13   2.0000     -10.279676      -279.7242
  14   2.0000     -10.279104      -279.7086
  15   2.0000     -10.267804      -279.4011
  16   2.0000      -8.085718      -220.0236
  17   2.0000      -8.076257      -219.7661
  18   2.0000      -6.044032      -164.4665
  19   2.0000      -6.040392      -164.3674
  20   2.0000      -6.036722      -164.2676
  21   2.0000      -6.034879      -164.2174
  22   2.0000      -6.030770      -164.1056
  23   2.0000      -6.027077      -164.0051
  24   2.0000      -1.000462       -27.2239
  25   2.0000      -0.980720       -26.6867
  26   2.0000      -0.914306       -24.8795
  27   2.0000      -0.912787       -24.8382
  28   2.0000      -0.869412       -23.6579
  29   2.0000      -0.852996       -23.2112
  30   2.0000      -0.844749       -22.9868
  31   2.0000      -0.811970       -22.0948
  32   2.0000      -0.782407       -21.2904
  33   2.0000      -0.767478       -20.8842
  34   2.0000      -0.713841       -19.4246
  35   2.0000      -0.698012       -18.9939
  36   2.0000      -0.694364       -18.8946
  37   2.0000      -0.655765       -17.8443
  38   2.0000      -0.642317       -17.4783
  39   2.0000      -0.621910       -16.9230
  40   2.0000      -0.595050       -16.1921
  41   2.0000      -0.573870       -15.6158
  42   2.0000      -0.566581       -15.4175
  43   2.0000      -0.557760       -15.1774
  44   2.0000      -0.547744       -14.9049
  45   2.0000      -0.520582       -14.1658
  46   2.0000      -0.515500       -14.0275
  47   2.0000      -0.510719       -13.8974
  48   2.0000      -0.503593       -13.7035
  49   2.0000      -0.496513       -13.5108
  50   2.0000      -0.490973       -13.3601
  51   2.0000      -0.479285       -13.0420
  52   2.0000      -0.471454       -12.8289
  53   2.0000      -0.464189       -12.6312
  54   2.0000      -0.458375       -12.4730
  55   2.0000      -0.448546       -12.2056
  56   2.0000      -0.447509       -12.1773
  57   2.0000      -0.441076       -12.0023
  58   2.0000      -0.426294       -11.6000
  59   2.0000      -0.421660       -11.4739
  60   2.0000      -0.413780       -11.2595
  61   2.0000      -0.409843       -11.1524
  62   2.0000      -0.406001       -11.0478
  63   2.0000      -0.342284        -9.3140
  64   2.0000      -0.332809        -9.0562
  65   2.0000      -0.317284        -8.6337
  66   2.0000      -0.302774        -8.2389
  67   0.0000       0.029914         0.8140
  68   0.0000       0.045693         1.2434
  69   0.0000       0.109074         2.9680
  70   0.0000       0.118472         3.2238
  71   0.0000       0.120555         3.2805

MULLIKEN ATOMIC CHARGES
-----------------------
   0 S :    0.120811
   1 C :   -0.122817
   2 C :   -0.097259
   3 C :    0.055970
   4 C :   -0.199734
   5 H :    0.032909
   6 C :    0.040575
   7 H :    0.008801
   8 H :    0.030501
   9 C :   -0.042158
  10 H :    0.025196
  11 H :    0.032595
  12 C :   -0.066198
  13 H :    0.043432
  14 H :    0.037844
  15 H :    0.036631
  16 S :    0.091501
  17 C :   -0.080313
  18 C :   -0.046242
  19 C :    0.009432
  20 C :   -0.160407
  21 H :    0.019680
  22 C :    0.027593
  23 H :    0.015202
  24 H :    0.021060
  25 C :    0.012247
  26 H :    0.013655
  27 H :   -0.000471
  28 C :   -0.075906
  29 H :    0.040542
  30 H :    0.024675
  31 H :    0.036082
  32 H :    0.063710
  33 H :    0.050861
Sum of atomic charges:    0.0000000

LOEWDIN ATOMIC CHARGES
----------------------
   0 S :    0.396700
   1 C :   -0.200808
   2 C :   -0.073789
   3 C :   -0.046499
   4 C :   -0.180009
   5 H :    0.040233
   6 C :   -0.038336
   7 H :    0.030480
   8 H :    0.027891
   9 C :   -0.033505
  10 H :    0.017020
  11 H :    0.026957
  12 C :   -0.064954
  13 H :    0.029878
  14 H :    0.023496
  15 H :    0.029896
  16 S :    0.379010
  17 C :   -0.170809
  18 C :   -0.080193
  19 C :   -0.047231
  20 C :   -0.203294
  21 H :    0.032727
  22 C :   -0.039865
  23 H :    0.031321
  24 H :    0.033153
  25 C :   -0.023570
  26 H :    0.017351
  27 H :    0.007869
  28 C :   -0.063097
  29 H :    0.028003
  30 H :    0.025042
  31 H :    0.022550
  32 H :    0.034785
  33 H :    0.031601

  Mayer bond orders larger than 0.100000
B(  0-S ,  1-C ) :   1.1579 B(  0-S ,  4-C ) :   1.1449 B(  1-C ,  2-C ) :   1.5888
B(  1-C ,  4-C ) :   0.1107 B(  1-C , 32-H ) :   0.9600 B(  2-C ,  3-C ) :   1.2362
B(  2-C ,  6-C ) :   1.0332 B(  3-C ,  4-C ) :   1.5707 B(  3-C ,  5-H ) :   0.9902
B(  4-C , 20-C ) :   1.0438 B(  6-C ,  7-H ) :   0.9389 B(  6-C ,  8-H ) :   0.9377
B(  6-C ,  9-C ) :   1.0684 B(  9-C , 10-H ) :   0.9573 B(  9-C , 11-H ) :   0.9545
B(  9-C , 12-C ) :   1.0710 B( 12-C , 13-H ) :   0.9759 B( 12-C , 14-H ) :   0.9740
B( 12-C , 15-H ) :   0.9735 B( 16-S , 17-C ) :   1.1489 B( 16-S , 20-C ) :   1.1315
B( 17-C , 18-C ) :   1.6227 B( 17-C , 20-C ) :   0.1049 B( 17-C , 33-H ) :   0.9658
B( 18-C , 19-C ) :   1.2632 B( 18-C , 21-H ) :   0.9827 B( 19-C , 20-C ) :   1.5497
B( 19-C , 22-C ) :   1.0433 B( 22-C , 23-H ) :   0.9398 B( 22-C , 24-H ) :   0.9258
B( 22-C , 25-C ) :   1.0680 B( 25-C , 26-H ) :   0.9529 B( 25-C , 27-H ) :   0.9521
B( 25-C , 28-C ) :   1.0790 B( 28-C , 29-H ) :   0.9761 B( 28-C , 30-H ) :   0.9753
B( 28-C , 31-H ) :   0.9773

Dispersion correction           -0.014850022
FINAL SINGLE POINT ENERGY     -1339.854433088312

DIPOLE MOMENT
-------------
                                X             Y             Z
Electronic contribution:    -19.34193       4.41520       7.19903
Nuclear contribution   :     19.72088      -4.65734      -7.57440
                        -----------------------------------------
Total Dipole Moment    :      0.37895      -0.24215      -0.37537
                        -----------------------------------------
Magnitude (a.u.)       :      0.58578
Magnitude (Debye)      :      1.48894

Rotational constants in cm-1:     0.018262     0.008821     0.007240
Rotational constants in MHz :   547.484474   264.435648   217.046371

                             ****ORCA TERMINATED NORMALLY****
TOTAL RUN TIME: 0 days 0 hours 0 minutes 34 seconds 707 msec
