                         Program Version 4.2.1 -  RELEASE  -
|  1> ! wB97X-D3 SP def2-SVP
|  2> %pal
|  3> nprocs 16
|  4> end
|  5>
|  6> * xyz 0 1
|  7> S 	 -65.5171 	 41.6178 	 136.791
|  8> C 	 -65.2278 	 40.3649 	 137.955
|  9> C 	 -65.0527 	 39.0719 	 137.487
| 10> C 	 -64.9407 	 39.0629 	 136.082
| 11> C 	 -65.2651 	 40.2932 	 135.598
| 12> H 	 -64.763 	 38.1482 	 135.499
| 13> C 	 -64.6509 	 37.8672 	 138.335
| 14> H 	 -64.8524 	 36.9597 	 137.857
| 15> H 	 -65.3351 	 37.9724 	 139.134
| 16> C 	 -63.2248 	 37.8758 	 138.906
| 17> H 	 -62.9859 	 38.7694 	 139.441
| 18> H 	 -63.2332 	 37.1001 	 139.668
| 19> C 	 -62.1398 	 37.5288 	 137.849
| 20> H 	 -61.7841 	 38.3528 	 137.315
| 21> H 	 -61.448 	 36.8454 	 138.331
| 22> H 	 -62.5673 	 36.8865 	 137.089
| 23> S 	 -66.6868 	 41.4141 	 133.442
| 24> C 	 -65.8896 	 41.203 	 131.888
| 25> C 	 -64.6272 	 40.7248 	 131.951
| 26> C 	 -64.3153 	 40.3341 	 133.297
| 27> C 	 -65.2781 	 40.7174 	 134.19
| 28> H 	 -64.0782 	 40.6324 	 131.1
| 29> C 	 -62.9098 	 39.7973 	 133.605
| 30> H 	 -62.8039 	 39.5148 	 134.655
| 31> H 	 -62.2637 	 40.6765 	 133.431
| 32> C 	 -62.1209 	 38.6964 	 132.785
| 33> H 	 -61.096 	 38.5912 	 133.026
| 34> H 	 -62.1288 	 38.937 	 131.778
| 35> C 	 -62.8314 	 37.2613 	 132.997
| 36> H 	 -62.4985 	 36.9013 	 133.949
| 37> H 	 -62.4736 	 36.5809 	 132.344
| 38> H 	 -63.9295 	 37.2376 	 132.958
| 39> H 	 -65.1804 	 40.5699 	 138.995
| 40> H 	 -66.2819 	 41.544 	 130.944
| 41> *
| 42>
| 43>                          ****END OF INPUT****

CARTESIAN COORDINATES (ANGSTROEM)
---------------------------------
  S    -65.517100   41.617800  136.791000
  C    -65.227800   40.364900  137.955000
  C    -65.052700   39.071900  137.487000
  C    -64.940700   39.062900  136.082000
  C    -65.265100   40.293200  135.598000
  H    -64.763000   38.148200  135.499000
  C    -64.650900   37.867200  138.335000
  H    -64.852400   36.959700  137.857000
  H    -65.335100   37.972400  139.134000
  C    -63.224800   37.875800  138.906000
  H    -62.985900   38.769400  139.441000
  H    -63.233200   37.100100  139.668000
  C    -62.139800   37.528800  137.849000
  H    -61.784100   38.352800  137.315000
  H    -61.448000   36.845400  138.331000
  H    -62.567300   36.886500  137.089000
  S    -66.686800   41.414100  133.442000
  C    -65.889600   41.203000  131.888000
  C    -64.627200   40.724800  131.951000
  C    -64.315300   40.334100  133.297000
  C    -65.278100   40.717400  134.190000
  H    -64.078200   40.632400  131.100000
  C    -62.909800   39.797300  133.605000
  H    -62.803900   39.514800  134.655000
  H    -62.263700   40.676500  133.431000
  C    -62.120900   38.696400  132.785000
  H    -61.096000   38.591200  133.026000
  H    -62.128800   38.937000  131.778000
  C    -62.831400   37.261300  132.997000
  H    -62.498500   36.901300  133.949000
  H    -62.473600   36.580900  132.344000
  H    -63.929500   37.237600  132.958000
  H    -65.180400   40.569900  138.995000
  H    -66.281900   41.544000  130.944000

 Total Charge           Charge          ....    0
 Multiplicity           Mult            ....    1
 Number of Electrons    NEL             ....  134
 Basis Dimension        Dim             ....  322

ORBITAL ENERGIES
----------------

  NO   OCC          E(Eh)            E(eV)
   0   2.0000     -88.968388     -2420.9529
   1   2.0000     -88.965173     -2420.8654
   2   2.0000     -10.325915      -280.9824
   3   2.0000     -10.316689      -280.7314
   4   2.0000     -10.311072      -280.5785
   5   2.0000     -10.305981      -280.4400
   6   2.0000     -10.300462      -280.2898
   7   2.0000     -10.294078      -280.1161
   8   2.0000     -10.292714      -280.0790
   9   2.0000     -10.291260      -280.0394
  10   2.0000     -10.288438      -279.9626
  11   2.0000     -10.285230      -279.8753
  12   2.0000     -10.282953      -279.8134
  13   2.0000     -10.282609      -279.8040
  14   2.0000     -10.273054      -279.5440
  15   2.0000     -10.270568      -279.4764
  16   2.0000      -8.082854      -219.9456
  17   2.0000      -8.080084      -219.8703
  18   2.0000      -6.041034      -164.3849
  19   2.0000      -6.038690      -164.3211
  20   2.0000      -6.037896      -164.2995
  21   2.0000      -6.034792      -164.2150
  22   2.0000      -6.033480      -164.1793
  23   2.0000      -6.030524      -164.0989
  24   2.0000      -1.006489       -27.3880
  25   2.0000      -0.984178       -26.7808
  26   2.0000      -0.910805       -24.7843
  27   2.0000      -0.896830       -24.4040
  28   2.0000      -0.866070       -23.5670
  29   2.0000      -0.855115       -23.2689
  30   2.0000      -0.846896       -23.0452
  31   2.0000      -0.815946       -22.2030
  32   2.0000      -0.786470       -21.4009
  33   2.0000      -0.771325       -20.9888
  34   2.0000      -0.712191       -19.3797
  35   2.0000      -0.708969       -19.2920
  36   2.0000      -0.692736       -18.8503
  37   2.0000      -0.662120       -18.0172
  38   2.0000      -0.637224       -17.3397
  39   2.0000      -0.619565       -16.8592
  40   2.0000      -0.593022       -16.1370
  41   2.0000      -0.575306       -15.6549
  42   2.0000      -0.553087       -15.0503
  43   2.0000      -0.548566       -14.9272
  44   2.0000      -0.543974       -14.8023
  45   2.0000      -0.537095       -14.6151
  46   2.0000      -0.515750       -14.0343
  47   2.0000      -0.507371       -13.8063
  48   2.0000      -0.498722       -13.5709
  49   2.0000      -0.495322       -13.4784
  50   2.0000      -0.484792       -13.1918
  51   2.0000      -0.474476       -12.9112
  52   2.0000      -0.470023       -12.7900
  53   2.0000      -0.466311       -12.6890
  54   2.0000      -0.460472       -12.5301
  55   2.0000      -0.458411       -12.4740
  56   2.0000      -0.448456       -12.2031
  57   2.0000      -0.438598       -11.9349
  58   2.0000      -0.435078       -11.8391
  59   2.0000      -0.428679       -11.6649
  60   2.0000      -0.423298       -11.5185
  61   2.0000      -0.416534       -11.3345
  62   2.0000      -0.412293       -11.2191
  63   2.0000      -0.347670        -9.4606
  64   2.0000      -0.335839        -9.1386
  65   2.0000      -0.326029        -8.8717
  66   2.0000      -0.285300        -7.7634
  67   0.0000       0.037417         1.0182
  68   0.0000       0.068347         1.8598
  69   0.0000       0.102731         2.7954
  70   0.0000       0.120767         3.2862
  71   0.0000       0.125577         3.4171

MULLIKEN ATOMIC CHARGES
-----------------------
   0 S :    0.114776
   1 C :   -0.110954
   2 C :   -0.092268
   3 C :   -0.003031
   4 C :   -0.148373
   5 H :    0.025254
   6 C :    0.096602
   7 H :    0.007421
   8 H :    0.012751
   9 C :   -0.055879
  10 H :    0.022105
  11 H :    0.021280
  12 C :   -0.022578
  13 H :    0.043429
  14 H :    0.032218
  15 H :    0.005330
  16 S :    0.110746
  17 C :   -0.081615
  18 C :    0.013067
  19 C :   -0.025714
  20 C :   -0.125297
  21 H :   -0.020546
  22 C :    0.011299
  23 H :    0.028110
  24 H :    0.042004
  25 C :   -0.026191
  26 H :    0.026016
  27 H :    0.007912
  28 C :   -0.043377
  29 H :    0.016474
  30 H :    0.005335
  31 H :    0.047157
  32 H :    0.023540
  33 H :    0.042996
Sum of atomic charges:    0.0000000

LOEWDIN ATOMIC CHARGES
----------------------
   0 S :    0.390497
   1 C :   -0.194710
   2 C :   -0.061505
   3 C :   -0.059346
   4 C :   -0.161075
   5 H :    0.040695
   6 C :   -0.023724
   7 H :    0.020455
   8 H :    0.028272
   9 C :   -0.029479
  10 H :    0.020352
  11 H :    0.023532
  12 C :   -0.061665
  13 H :    0.020436
  14 H :    0.031196
  15 H :    0.021177
  16 S :    0.395599
  17 C :   -0.170422
  18 C :   -0.055514
  19 C :   -0.053071
  20 C :   -0.214919
  21 H :    0.016702
  22 C :   -0.035426
  23 H :    0.026458
  24 H :    0.039233
  25 C :   -0.019878
  26 H :    0.024465
  27 H :    0.007913
  28 C :   -0.060204
  29 H :    0.020109
  30 H :    0.008072
  31 H :    0.028714
  32 H :    0.012543
  33 H :    0.024517

  Mayer bond orders larger than 0.100000
B(  0-S ,  1-C ) :   1.1370 B(  0-S ,  4-C ) :   1.1401 B(  1-C ,  2-C ) :   1.6346
B(  1-C , 32-H ) :   0.9662 B(  2-C ,  3-C ) :   1.2210 B(  2-C ,  6-C ) :   1.0239
B(  3-C ,  4-C ) :   1.6171 B(  3-C ,  5-H ) :   0.9893 B(  4-C , 20-C ) :   0.9954
B(  6-C ,  7-H ) :   0.9409 B(  6-C ,  8-H ) :   0.9261 B(  6-C ,  9-C ) :   1.0866
B(  9-C , 10-H ) :   0.9565 B(  9-C , 11-H ) :   0.9566 B(  9-C , 12-C ) :   1.0681
B( 12-C , 13-H ) :   0.9778 B( 12-C , 14-H ) :   0.9733 B( 12-C , 15-H ) :   0.9739
B( 16-S , 17-C ) :   1.1355 B( 16-S , 20-C ) :   1.1207 B( 17-C , 18-C ) :   1.6599
B( 17-C , 33-H ) :   0.9620 B( 18-C , 19-C ) :   1.1851 B( 18-C , 21-H ) :   1.0089
B( 19-C , 20-C ) :   1.6471 B( 19-C , 22-C ) :   1.0334 B( 22-C , 23-H ) :   0.9423
B( 22-C , 24-H ) :   0.9348 B( 22-C , 25-C ) :   1.0726 B( 25-C , 26-H ) :   0.9564
B( 25-C , 27-H ) :   0.9577 B( 25-C , 28-C ) :   1.0661 B( 28-C , 29-H ) :   0.9774
B( 28-C , 30-H ) :   0.9738 B( 28-C , 31-H ) :   0.9797

Dispersion correction           -0.015708659
FINAL SINGLE POINT ENERGY     -1339.844602889705

DIPOLE MOMENT
-------------
                                X             Y             Z
Electronic contribution:    -21.29274      22.85820      -3.72119
Nuclear contribution   :     21.87973     -23.37381       3.67063
                        -----------------------------------------
Total Dipole Moment    :      0.58699      -0.51561      -0.05056
                        -----------------------------------------
Magnitude (a.u.)       :      0.78292
Magnitude (Debye)      :      1.99003

Rotational constants in cm-1:     0.017780     0.010546     0.007225
Rotational constants in MHz :   533.029015   316.168601   216.595313

                             ****ORCA TERMINATED NORMALLY****
TOTAL RUN TIME: 0 days 0 hours 0 minutes 38 seconds 345 msec
