                         Program Version 4.2.1 -  RELEASE  -
|  1> ! wB97X-D3 SP def2-SVP
|  2> %pal
|  3> nprocs 16
|  4> end
|  5>
|  6> * xyz 0 1
|  7> S 	 -11.4138 	 47.6716 	 40.0172
|  8> C 	 -11.7616 	 47.2014 	 38.3746
|  9> C 	 -10.6806 	 46.5921 	 37.7306
| 10> C 	 -9.5035 	 46.65 	 38.5398
| 11> C 	 -9.74522 	 47.2238 	 39.7758
| 12> H 	 -8.4853 	 46.3605 	 38.3208
| 13> C 	 -10.7962 	 45.8055 	 36.4295
| 14> H 	 -9.7191 	 45.6406 	 36.1609
| 15> H 	 -11.1362 	 46.4361 	 35.61
| 16> C 	 -11.674 	 44.546 	 36.6246
| 17> H 	 -11.2387 	 43.898 	 37.3062
| 18> H 	 -12.65 	 44.739 	 37.0065
| 19> C 	 -11.8081 	 43.8435 	 35.2845
| 20> H 	 -10.9362 	 43.1212 	 35.201
| 21> H 	 -12.8195 	 43.2595 	 35.1287
| 22> H 	 -11.7269 	 44.4717 	 34.4643
| 23> S 	 -9.20712 	 46.0896 	 42.2469
| 24> C 	 -7.63971 	 46.2395 	 42.9261
| 25> C 	 -6.77183 	 47.0732 	 42.2364
| 26> C 	 -7.39719 	 47.5216 	 41.055
| 27> C 	 -8.773 	 47.1877 	 40.8702
| 28> H 	 -5.77056 	 47.1703 	 42.5547
| 29> C 	 -6.615 	 48.2483 	 39.952
| 30> H 	 -6.05151 	 49.008 	 40.4641
| 31> H 	 -7.36308 	 48.6414 	 39.2285
| 32> C 	 -5.71364 	 47.3404 	 39.0579
| 33> H 	 -6.24589 	 46.5032 	 38.7343
| 34> H 	 -5.02803 	 47.0177 	 39.8039
| 35> C 	 -4.94073 	 48.0978 	 38.0351
| 36> H 	 -4.19665 	 48.656 	 38.5891
| 37> H 	 -5.55516 	 48.7071 	 37.3832
| 38> H 	 -4.3828 	 47.4117 	 37.3672
| 39> H 	 -12.7711 	 47.2735 	 37.9279
| 40> H 	 -7.23327 	 45.656 	 43.7905
| 41> *
| 42>
| 43>                          ****END OF INPUT****

CARTESIAN COORDINATES (ANGSTROEM)
---------------------------------
  S    -11.413800   47.671600   40.017200
  C    -11.761600   47.201400   38.374600
  C    -10.680600   46.592100   37.730600
  C     -9.503500   46.650000   38.539800
  C     -9.745220   47.223800   39.775800
  H     -8.485300   46.360500   38.320800
  C    -10.796200   45.805500   36.429500
  H     -9.719100   45.640600   36.160900
  H    -11.136200   46.436100   35.610000
  C    -11.674000   44.546000   36.624600
  H    -11.238700   43.898000   37.306200
  H    -12.650000   44.739000   37.006500
  C    -11.808100   43.843500   35.284500
  H    -10.936200   43.121200   35.201000
  H    -12.819500   43.259500   35.128700
  H    -11.726900   44.471700   34.464300
  S     -9.207120   46.089600   42.246900
  C     -7.639710   46.239500   42.926100
  C     -6.771830   47.073200   42.236400
  C     -7.397190   47.521600   41.055000
  C     -8.773000   47.187700   40.870200
  H     -5.770560   47.170300   42.554700
  C     -6.615000   48.248300   39.952000
  H     -6.051510   49.008000   40.464100
  H     -7.363080   48.641400   39.228500
  C     -5.713640   47.340400   39.057900
  H     -6.245890   46.503200   38.734300
  H     -5.028030   47.017700   39.803900
  C     -4.940730   48.097800   38.035100
  H     -4.196650   48.656000   38.589100
  H     -5.555160   48.707100   37.383200
  H     -4.382800   47.411700   37.367200
  H    -12.771100   47.273500   37.927900
  H     -7.233270   45.656000   43.790500

 Total Charge           Charge          ....    0
 Multiplicity           Mult            ....    1
 Number of Electrons    NEL             ....  134
 Basis Dimension        Dim             ....  322

ORBITAL ENERGIES
----------------

  NO   OCC          E(Eh)            E(eV)
   0   2.0000     -88.970595     -2421.0130
   1   2.0000     -88.964351     -2420.8431
   2   2.0000     -10.330270      -281.1009
   3   2.0000     -10.329278      -281.0739
   4   2.0000     -10.318923      -280.7922
   5   2.0000     -10.315739      -280.7055
   6   2.0000     -10.307028      -280.4685
   7   2.0000     -10.302975      -280.3582
   8   2.0000     -10.298768      -280.2437
   9   2.0000     -10.295637      -280.1585
  10   2.0000     -10.290208      -280.0108
  11   2.0000     -10.288266      -279.9579
  12   2.0000     -10.282520      -279.8016
  13   2.0000     -10.281216      -279.7661
  14   2.0000     -10.277675      -279.6697
  15   2.0000     -10.276572      -279.6397
  16   2.0000      -8.085283      -220.0117
  17   2.0000      -8.078783      -219.8349
  18   2.0000      -6.043679      -164.4569
  19   2.0000      -6.039857      -164.3529
  20   2.0000      -6.037175      -164.2799
  21   2.0000      -6.036118      -164.2511
  22   2.0000      -6.033286      -164.1741
  23   2.0000      -6.029719      -164.0770
  24   2.0000      -1.003636       -27.3103
  25   2.0000      -0.981538       -26.7090
  26   2.0000      -0.913939       -24.8695
  27   2.0000      -0.911471       -24.8024
  28   2.0000      -0.867094       -23.5948
  29   2.0000      -0.855163       -23.2702
  30   2.0000      -0.850873       -23.1534
  31   2.0000      -0.811616       -22.0852
  32   2.0000      -0.779071       -21.1996
  33   2.0000      -0.763467       -20.7750
  34   2.0000      -0.711042       -19.3484
  35   2.0000      -0.703130       -19.1331
  36   2.0000      -0.690574       -18.7915
  37   2.0000      -0.660779       -17.9807
  38   2.0000      -0.642500       -17.4833
  39   2.0000      -0.616958       -16.7883
  40   2.0000      -0.587058       -15.9747
  41   2.0000      -0.579578       -15.7711
  42   2.0000      -0.569159       -15.4876
  43   2.0000      -0.561275       -15.2731
  44   2.0000      -0.527702       -14.3595
  45   2.0000      -0.521141       -14.1810
  46   2.0000      -0.516195       -14.0464
  47   2.0000      -0.510865       -13.9013
  48   2.0000      -0.506782       -13.7902
  49   2.0000      -0.499109       -13.5815
  50   2.0000      -0.492780       -13.4092
  51   2.0000      -0.480508       -13.0753
  52   2.0000      -0.470944       -12.8150
  53   2.0000      -0.463798       -12.6206
  54   2.0000      -0.460055       -12.5187
  55   2.0000      -0.451375       -12.2825
  56   2.0000      -0.447520       -12.1776
  57   2.0000      -0.441091       -12.0027
  58   2.0000      -0.436771       -11.8851
  59   2.0000      -0.427099       -11.6220
  60   2.0000      -0.418104       -11.3772
  61   2.0000      -0.415118       -11.2959
  62   2.0000      -0.406088       -11.0502
  63   2.0000      -0.345378        -9.3982
  64   2.0000      -0.331239        -9.0135
  65   2.0000      -0.328224        -8.9314
  66   2.0000      -0.287787        -7.8311
  67   0.0000       0.032301         0.8790
  68   0.0000       0.058441         1.5903
  69   0.0000       0.115260         3.1364
  70   0.0000       0.122835         3.3425
  71   0.0000       0.126933         3.4540

MULLIKEN ATOMIC CHARGES
-----------------------
   0 S :    0.126009
   1 C :   -0.135586
   2 C :   -0.085704
   3 C :    0.045884
   4 C :   -0.161449
   5 H :   -0.004905
   6 C :    0.044105
   7 H :    0.026334
   8 H :    0.033239
   9 C :   -0.013330
  10 H :    0.020279
  11 H :    0.023850
  12 C :   -0.067818
  13 H :    0.036523
  14 H :    0.046605
  15 H :    0.014160
  16 S :    0.099001
  17 C :   -0.101157
  18 C :   -0.019561
  19 C :   -0.050177
  20 C :   -0.145683
  21 H :    0.006506
  22 C :    0.025570
  23 H :    0.024319
  24 H :    0.029835
  25 C :   -0.047063
  26 H :    0.018063
  27 H :    0.005000
  28 C :   -0.013018
  29 H :    0.027741
  30 H :    0.030982
  31 H :    0.032375
  32 H :    0.059170
  33 H :    0.069899
Sum of atomic charges:    0.0000000

LOEWDIN ATOMIC CHARGES
----------------------
   0 S :    0.418145
   1 C :   -0.203875
   2 C :   -0.063481
   3 C :   -0.057137
   4 C :   -0.204763
   5 H :    0.030158
   6 C :   -0.030491
   7 H :    0.035039
   8 H :    0.030212
   9 C :   -0.030017
  10 H :    0.020639
  11 H :    0.022230
  12 C :   -0.069768
  13 H :    0.032160
  14 H :    0.037028
  15 H :    0.008785
  16 S :    0.398116
  17 C :   -0.193403
  18 C :   -0.079935
  19 C :   -0.049729
  20 C :   -0.190701
  21 H :    0.028017
  22 C :   -0.028266
  23 H :    0.025618
  24 H :    0.028884
  25 C :   -0.037562
  26 H :    0.010860
  27 H :    0.019646
  28 C :   -0.058805
  29 H :    0.027947
  30 H :    0.022503
  31 H :    0.030730
  32 H :    0.031892
  33 H :    0.039325

  Mayer bond orders larger than 0.100000
B(  0-S ,  1-C ) :   1.1463 B(  0-S ,  4-C ) :   1.1607 B(  1-C ,  2-C ) :   1.5955
B(  1-C , 32-H ) :   0.9653 B(  2-C ,  3-C ) :   1.2531 B(  2-C ,  6-C ) :   1.0176
B(  3-C ,  4-C ) :   1.5589 B(  3-C ,  5-H ) :   0.9937 B(  4-C , 20-C ) :   1.0271
B(  6-C ,  7-H ) :   0.9455 B(  6-C ,  8-H ) :   0.9378 B(  6-C ,  9-C ) :   1.0560
B(  9-C , 10-H ) :   0.9581 B(  9-C , 11-H ) :   0.9606 B(  9-C , 12-C ) :   1.0685
B( 12-C , 13-H ) :   0.9778 B( 12-C , 14-H ) :   0.9757 B( 12-C , 15-H ) :   0.9765
B( 16-S , 17-C ) :   1.1903 B( 16-S , 20-C ) :   1.1195 B( 17-C , 18-C ) :   1.5855
B( 17-C , 20-C ) :   0.1027 B( 17-C , 33-H ) :   0.9542 B( 18-C , 19-C ) :   1.2512
B( 18-C , 21-H ) :   1.0012 B( 19-C , 20-C ) :   1.5873 B( 19-C , 22-C ) :   1.0463
B( 22-C , 23-H ) :   0.9404 B( 22-C , 24-H ) :   0.9378 B( 22-C , 25-C ) :   1.0542
B( 25-C , 26-H ) :   0.9541 B( 25-C , 27-H ) :   0.9504 B( 25-C , 28-C ) :   1.0868
B( 28-C , 29-H ) :   0.9741 B( 28-C , 30-H ) :   0.9752 B( 28-C , 31-H ) :   0.9710

Dispersion correction           -0.014039452
FINAL SINGLE POINT ENERGY     -1339.860967473405

DIPOLE MOMENT
-------------
                                X             Y             Z
Electronic contribution:    -11.11218       6.05667      24.32530
Nuclear contribution   :     11.52755      -6.37335     -24.79190
                        -----------------------------------------
Total Dipole Moment    :      0.41537      -0.31668      -0.46659
                        -----------------------------------------
Magnitude (a.u.)       :      0.70038
Magnitude (Debye)      :      1.78023

Rotational constants in cm-1:     0.017519     0.008335     0.006663
Rotational constants in MHz :   525.199128   249.864973   199.739636

                             ****ORCA TERMINATED NORMALLY****
TOTAL RUN TIME: 0 days 0 hours 0 minutes 33 seconds 685 msec
