                         Program Version 4.2.1 -  RELEASE  -
|  1> ! wB97X-D3 SP def2-SVP
|  2> %pal
|  3> nprocs 16
|  4> end
|  5>
|  6> * xyz 0 1
|  7> S 	 40.3529 	 31.6758 	 53.062
|  8> C 	 40.5087 	 32.8748 	 51.7569
|  9> C 	 39.3732 	 33.7378 	 51.7717
| 10> C 	 38.478 	 33.3779 	 52.8694
| 11> C 	 38.7877 	 32.2365 	 53.5825
| 12> H 	 37.6835 	 34.0337 	 53.2046
| 13> C 	 39.1731 	 34.9292 	 50.8497
| 14> H 	 40.1625 	 35.4589 	 50.6435
| 15> H 	 38.3873 	 35.6407 	 51.338
| 16> C 	 38.7134 	 34.6126 	 49.4616
| 17> H 	 37.8387 	 33.9691 	 49.4939
| 18> H 	 38.5259 	 35.5218 	 48.9169
| 19> C 	 39.8455 	 33.9407 	 48.6474
| 20> H 	 40.7723 	 34.499 	 48.6982
| 21> H 	 39.9431 	 33.006 	 49.0789
| 22> H 	 39.5049 	 33.6947 	 47.6252
| 23> S 	 39.2014 	 31.6122 	 56.2197
| 24> C 	 37.8708 	 31.1604 	 57.281
| 25> C 	 36.6867 	 31.2901 	 56.5619
| 26> C 	 36.8211 	 31.5655 	 55.1651
| 27> C 	 38.1745 	 31.8031 	 54.8212
| 28> H 	 35.8354 	 31.2946 	 57.2332
| 29> C 	 35.6108 	 31.7048 	 54.2218
| 30> H 	 34.9888 	 30.9049 	 54.4562
| 31> H 	 36.0333 	 31.6279 	 53.2327
| 32> C 	 34.9087 	 33.0869 	 54.3542
| 33> H 	 35.6696 	 33.84 	 54.3687
| 34> H 	 34.3717 	 33.1565 	 55.3599
| 35> C 	 33.8509 	 33.4702 	 53.2462
| 36> H 	 34.0497 	 32.9871 	 52.3218
| 37> H 	 33.8607 	 34.5406 	 53.155
| 38> H 	 32.8204 	 33.1312 	 53.4243
| 39> H 	 41.3777 	 33.0121 	 51.1602
| 40> H 	 37.9307 	 30.8774 	 58.3208
| 41> *
| 42>
| 43>                          ****END OF INPUT****

CARTESIAN COORDINATES (ANGSTROEM)
---------------------------------
  S     40.352900   31.675800   53.062000
  C     40.508700   32.874800   51.756900
  C     39.373200   33.737800   51.771700
  C     38.478000   33.377900   52.869400
  C     38.787700   32.236500   53.582500
  H     37.683500   34.033700   53.204600
  C     39.173100   34.929200   50.849700
  H     40.162500   35.458900   50.643500
  H     38.387300   35.640700   51.338000
  C     38.713400   34.612600   49.461600
  H     37.838700   33.969100   49.493900
  H     38.525900   35.521800   48.916900
  C     39.845500   33.940700   48.647400
  H     40.772300   34.499000   48.698200
  H     39.943100   33.006000   49.078900
  H     39.504900   33.694700   47.625200
  S     39.201400   31.612200   56.219700
  C     37.870800   31.160400   57.281000
  C     36.686700   31.290100   56.561900
  C     36.821100   31.565500   55.165100
  C     38.174500   31.803100   54.821200
  H     35.835400   31.294600   57.233200
  C     35.610800   31.704800   54.221800
  H     34.988800   30.904900   54.456200
  H     36.033300   31.627900   53.232700
  C     34.908700   33.086900   54.354200
  H     35.669600   33.840000   54.368700
  H     34.371700   33.156500   55.359900
  C     33.850900   33.470200   53.246200
  H     34.049700   32.987100   52.321800
  H     33.860700   34.540600   53.155000
  H     32.820400   33.131200   53.424300
  H     41.377700   33.012100   51.160200
  H     37.930700   30.877400   58.320800

 Total Charge           Charge          ....    0
 Multiplicity           Mult            ....    1
 Number of Electrons    NEL             ....  134
 Basis Dimension        Dim             ....  322

ORBITAL ENERGIES
----------------

  NO   OCC          E(Eh)            E(eV)
   0   2.0000     -88.968537     -2420.9570
   1   2.0000     -88.965470     -2420.8735
   2   2.0000     -10.332343      -281.1573
   3   2.0000     -10.331329      -281.1298
   4   2.0000     -10.324031      -280.9312
   5   2.0000     -10.318761      -280.7877
   6   2.0000     -10.313387      -280.6415
   7   2.0000     -10.309085      -280.5245
   8   2.0000     -10.305513      -280.4273
   9   2.0000     -10.300583      -280.2931
  10   2.0000     -10.294870      -280.1377
  11   2.0000     -10.294816      -280.1362
  12   2.0000     -10.289257      -279.9849
  13   2.0000     -10.282473      -279.8003
  14   2.0000     -10.278105      -279.6815
  15   2.0000     -10.271554      -279.5032
  16   2.0000      -8.082742      -219.9426
  17   2.0000      -8.079987      -219.8676
  18   2.0000      -6.041308      -164.3923
  19   2.0000      -6.038528      -164.3167
  20   2.0000      -6.037161      -164.2795
  21   2.0000      -6.034380      -164.2038
  22   2.0000      -6.033606      -164.1828
  23   2.0000      -6.030846      -164.1077
  24   2.0000      -1.004992       -27.3472
  25   2.0000      -0.979455       -26.6523
  26   2.0000      -0.919176       -25.0120
  27   2.0000      -0.902712       -24.5641
  28   2.0000      -0.869926       -23.6719
  29   2.0000      -0.847425       -23.0596
  30   2.0000      -0.841917       -22.9097
  31   2.0000      -0.814228       -22.1563
  32   2.0000      -0.783451       -21.3188
  33   2.0000      -0.776124       -21.1194
  34   2.0000      -0.709288       -19.3007
  35   2.0000      -0.699379       -19.0311
  36   2.0000      -0.695386       -18.9224
  37   2.0000      -0.657618       -17.8947
  38   2.0000      -0.642282       -17.4774
  39   2.0000      -0.621165       -16.9028
  40   2.0000      -0.590409       -16.0659
  41   2.0000      -0.578276       -15.7357
  42   2.0000      -0.565916       -15.3993
  43   2.0000      -0.548360       -14.9216
  44   2.0000      -0.544993       -14.8300
  45   2.0000      -0.530107       -14.4249
  46   2.0000      -0.518482       -14.1086
  47   2.0000      -0.515861       -14.0373
  48   2.0000      -0.507696       -13.8151
  49   2.0000      -0.499402       -13.5894
  50   2.0000      -0.489982       -13.3331
  51   2.0000      -0.477311       -12.9883
  52   2.0000      -0.473986       -12.8978
  53   2.0000      -0.468183       -12.7399
  54   2.0000      -0.463061       -12.6005
  55   2.0000      -0.443897       -12.0790
  56   2.0000      -0.441465       -12.0129
  57   2.0000      -0.437793       -11.9129
  58   2.0000      -0.432532       -11.7698
  59   2.0000      -0.429873       -11.6974
  60   2.0000      -0.419677       -11.4200
  61   2.0000      -0.417721       -11.3668
  62   2.0000      -0.406116       -11.0510
  63   2.0000      -0.347868        -9.4660
  64   2.0000      -0.329724        -8.9723
  65   2.0000      -0.327334        -8.9072
  66   2.0000      -0.293455        -7.9853
  67   0.0000       0.021814         0.5936
  68   0.0000       0.068488         1.8637
  69   0.0000       0.106157         2.8887
  70   0.0000       0.121890         3.3168
  71   0.0000       0.127159         3.4602

MULLIKEN ATOMIC CHARGES
-----------------------
   0 S :    0.104362
   1 C :   -0.109016
   2 C :   -0.092553
   3 C :    0.018917
   4 C :   -0.133248
   5 H :    0.013457
   6 C :    0.002761
   7 H :    0.037954
   8 H :    0.046972
   9 C :   -0.046489
  10 H :    0.028960
  11 H :    0.030060
  12 C :   -0.050079
  13 H :    0.029595
  14 H :    0.017194
  15 H :    0.035728
  16 S :    0.107604
  17 C :   -0.114241
  18 C :   -0.048088
  19 C :   -0.058423
  20 C :   -0.153340
  21 H :    0.024167
  22 C :    0.141787
  23 H :    0.018230
  24 H :    0.022901
  25 C :   -0.107786
  26 H :    0.023007
  27 H :    0.037571
  28 C :   -0.024050
  29 H :    0.017450
  30 H :    0.034958
  31 H :    0.031763
  32 H :    0.049689
  33 H :    0.062229
Sum of atomic charges:    0.0000000

LOEWDIN ATOMIC CHARGES
----------------------
   0 S :    0.404849
   1 C :   -0.183768
   2 C :   -0.059984
   3 C :   -0.060565
   4 C :   -0.204781
   5 H :    0.028651
   6 C :   -0.044078
   7 H :    0.038172
   8 H :    0.041567
   9 C :   -0.038004
  10 H :    0.023560
  11 H :    0.022223
  12 C :   -0.062927
  13 H :    0.021597
  14 H :    0.013596
  15 H :    0.031017
  16 S :    0.407218
  17 C :   -0.186954
  18 C :   -0.076266
  19 C :   -0.052873
  20 C :   -0.201640
  21 H :    0.032935
  22 C :   -0.019218
  23 H :    0.022823
  24 H :    0.029520
  25 C :   -0.037648
  26 H :    0.015536
  27 H :    0.031065
  28 C :   -0.065351
  29 H :    0.019366
  30 H :    0.026576
  31 H :    0.027598
  32 H :    0.023751
  33 H :    0.032436

  Mayer bond orders larger than 0.100000
B(  0-S ,  1-C ) :   1.1473 B(  0-S ,  4-C ) :   1.1471 B(  1-C ,  2-C ) :   1.5739
B(  1-C , 32-H ) :   0.9716 B(  2-C ,  3-C ) :   1.2682 B(  2-C ,  6-C ) :   1.0255
B(  3-C ,  4-C ) :   1.5530 B(  3-C ,  5-H ) :   0.9863 B(  4-C , 20-C ) :   1.0551
B(  6-C ,  7-H ) :   0.9421 B(  6-C ,  8-H ) :   0.9409 B(  6-C ,  9-C ) :   1.0738
B(  9-C , 10-H ) :   0.9511 B(  9-C , 11-H ) :   0.9550 B(  9-C , 12-C ) :   1.0805
B( 12-C , 13-H ) :   0.9740 B( 12-C , 14-H ) :   0.9705 B( 12-C , 15-H ) :   0.9698
B( 16-S , 17-C ) :   1.1512 B( 16-S , 20-C ) :   1.1583 B( 17-C , 18-C ) :   1.6088
B( 17-C , 20-C ) :   0.1049 B( 17-C , 33-H ) :   0.9692 B( 18-C , 19-C ) :   1.2396
B( 18-C , 21-H ) :   0.9885 B( 19-C , 20-C ) :   1.5584 B( 19-C , 22-C ) :   1.0491
B( 22-C , 23-H ) :   0.9316 B( 22-C , 24-H ) :   0.9242 B( 22-C , 25-C ) :   1.0662
B( 25-C , 26-H ) :   0.9616 B( 25-C , 27-H ) :   0.9550 B( 25-C , 28-C ) :   1.0675
B( 28-C , 29-H ) :   0.9768 B( 28-C , 30-H ) :   0.9787 B( 28-C , 31-H ) :   0.9770

Dispersion correction           -0.014239659
FINAL SINGLE POINT ENERGY     -1339.867611267002

DIPOLE MOMENT
-------------
                                X             Y             Z
Electronic contribution:     17.11518     -13.52267      19.49654
Nuclear contribution   :    -17.57870      13.96906     -19.67418
                        -----------------------------------------
Total Dipole Moment    :     -0.46351       0.44639      -0.17764
                        -----------------------------------------
Magnitude (a.u.)       :      0.66758
Magnitude (Debye)      :      1.69685

Rotational constants in cm-1:     0.018659     0.008948     0.006410
Rotational constants in MHz :   559.369834   268.248149   192.176030

                             ****ORCA TERMINATED NORMALLY****
TOTAL RUN TIME: 0 days 0 hours 0 minutes 34 seconds 641 msec
