                         Program Version 4.2.1 -  RELEASE  -
|  1> ! wB97X-D3 SP def2-SVP
|  2> %pal
|  3> nprocs 16
|  4> end
|  5>
|  6> * xyz 0 1
|  7> S 	 -71.5079 	 58.8672 	 122.831
|  8> C 	 -71.039 	 60.4861 	 122.437
|  9> C 	 -69.9808 	 60.9579 	 123.108
| 10> C 	 -69.4976 	 60.0112 	 124.033
| 11> C 	 -70.2477 	 58.8251 	 124.045
| 12> H 	 -68.7107 	 60.1568 	 124.827
| 13> C 	 -69.4018 	 62.3004 	 122.914
| 14> H 	 -68.8062 	 62.168 	 121.993
| 15> H 	 -68.691 	 62.5883 	 123.726
| 16> C 	 -70.3908 	 63.4816 	 122.858
| 17> H 	 -70.8891 	 63.3856 	 121.912
| 18> H 	 -71.0983 	 63.1889 	 123.662
| 19> C 	 -69.818 	 64.9082 	 122.97
| 20> H 	 -69.075 	 64.9507 	 123.73
| 21> H 	 -69.2923 	 65.4319 	 122.112
| 22> H 	 -70.5326 	 65.6179 	 123.268
| 23> S 	 -71.1836 	 57.4626 	 126.324
| 24> C 	 -70.062 	 56.3514 	 127.134
| 25> C 	 -68.7826 	 56.4596 	 126.559
| 26> C 	 -68.7559 	 57.2482 	 125.357
| 27> C 	 -69.9507 	 57.8515 	 125.089
| 28> H 	 -67.9845 	 55.8161 	 126.975
| 29> C 	 -67.5247 	 57.422 	 124.625
| 30> H 	 -67.0198 	 58.2128 	 125.083
| 31> H 	 -67.7147 	 57.851 	 123.625
| 32> C 	 -66.6189 	 56.104 	 124.393
| 33> H 	 -67.1683 	 55.3293 	 123.868
| 34> H 	 -66.3461 	 55.6737 	 125.367
| 35> C 	 -65.334 	 56.1936 	 123.634
| 36> H 	 -65.5944 	 56.5997 	 122.615
| 37> H 	 -64.9645 	 55.1552 	 123.621
| 38> H 	 -64.6806 	 56.9171 	 124.224
| 39> H 	 -71.3779 	 60.9847 	 121.511
| 40> H 	 -70.2373 	 55.6008 	 127.946
| 41> *
| 42>
| 43>                          ****END OF INPUT****

CARTESIAN COORDINATES (ANGSTROEM)
---------------------------------
  S    -71.507900   58.867200  122.831000
  C    -71.039000   60.486100  122.437000
  C    -69.980800   60.957900  123.108000
  C    -69.497600   60.011200  124.033000
  C    -70.247700   58.825100  124.045000
  H    -68.710700   60.156800  124.827000
  C    -69.401800   62.300400  122.914000
  H    -68.806200   62.168000  121.993000
  H    -68.691000   62.588300  123.726000
  C    -70.390800   63.481600  122.858000
  H    -70.889100   63.385600  121.912000
  H    -71.098300   63.188900  123.662000
  C    -69.818000   64.908200  122.970000
  H    -69.075000   64.950700  123.730000
  H    -69.292300   65.431900  122.112000
  H    -70.532600   65.617900  123.268000
  S    -71.183600   57.462600  126.324000
  C    -70.062000   56.351400  127.134000
  C    -68.782600   56.459600  126.559000
  C    -68.755900   57.248200  125.357000
  C    -69.950700   57.851500  125.089000
  H    -67.984500   55.816100  126.975000
  C    -67.524700   57.422000  124.625000
  H    -67.019800   58.212800  125.083000
  H    -67.714700   57.851000  123.625000
  C    -66.618900   56.104000  124.393000
  H    -67.168300   55.329300  123.868000
  H    -66.346100   55.673700  125.367000
  C    -65.334000   56.193600  123.634000
  H    -65.594400   56.599700  122.615000
  H    -64.964500   55.155200  123.621000
  H    -64.680600   56.917100  124.224000
  H    -71.377900   60.984700  121.511000
  H    -70.237300   55.600800  127.946000

 Total Charge           Charge          ....    0
 Multiplicity           Mult            ....    1
 Number of Electrons    NEL             ....  134
 Basis Dimension        Dim             ....  322

ORBITAL ENERGIES
----------------

  NO   OCC          E(Eh)            E(eV)
   0   2.0000     -88.972092     -2421.0537
   1   2.0000     -88.963225     -2420.8124
   2   2.0000     -10.328889      -281.0634
   3   2.0000     -10.323574      -280.9187
   4   2.0000     -10.322439      -280.8879
   5   2.0000     -10.309410      -280.5333
   6   2.0000     -10.297946      -280.2214
   7   2.0000     -10.296446      -280.1805
   8   2.0000     -10.294616      -280.1307
   9   2.0000     -10.293950      -280.1126
  10   2.0000     -10.292850      -280.0827
  11   2.0000     -10.291561      -280.0476
  12   2.0000     -10.286624      -279.9133
  13   2.0000     -10.286432      -279.9080
  14   2.0000     -10.285882      -279.8931
  15   2.0000     -10.279957      -279.7319
  16   2.0000      -8.086777      -220.0524
  17   2.0000      -8.076902      -219.7837
  18   2.0000      -6.045182      -164.4978
  19   2.0000      -6.041325      -164.3928
  20   2.0000      -6.037627      -164.2922
  21   2.0000      -6.035587      -164.2367
  22   2.0000      -6.031619      -164.1287
  23   2.0000      -6.027473      -164.0159
  24   2.0000      -1.009197       -27.4616
  25   2.0000      -0.983369       -26.7588
  26   2.0000      -0.915159       -24.9027
  27   2.0000      -0.906225       -24.6596
  28   2.0000      -0.869665       -23.6648
  29   2.0000      -0.858817       -23.3696
  30   2.0000      -0.851995       -23.1840
  31   2.0000      -0.810439       -22.0532
  32   2.0000      -0.785059       -21.3625
  33   2.0000      -0.769952       -20.9514
  34   2.0000      -0.712415       -19.3858
  35   2.0000      -0.696764       -18.9599
  36   2.0000      -0.691595       -18.8193
  37   2.0000      -0.651730       -17.7345
  38   2.0000      -0.636957       -17.3325
  39   2.0000      -0.609981       -16.5984
  40   2.0000      -0.591893       -16.1062
  41   2.0000      -0.576640       -15.6912
  42   2.0000      -0.564804       -15.3691
  43   2.0000      -0.562640       -15.3102
  44   2.0000      -0.535348       -14.5676
  45   2.0000      -0.523246       -14.2383
  46   2.0000      -0.519924       -14.1479
  47   2.0000      -0.515495       -14.0273
  48   2.0000      -0.502897       -13.6845
  49   2.0000      -0.495908       -13.4943
  50   2.0000      -0.491178       -13.3656
  51   2.0000      -0.479307       -13.0426
  52   2.0000      -0.469894       -12.7865
  53   2.0000      -0.461812       -12.5665
  54   2.0000      -0.454716       -12.3734
  55   2.0000      -0.454330       -12.3630
  56   2.0000      -0.443195       -12.0600
  57   2.0000      -0.440827       -11.9955
  58   2.0000      -0.424542       -11.5524
  59   2.0000      -0.423978       -11.5370
  60   2.0000      -0.422563       -11.4985
  61   2.0000      -0.414750       -11.2859
  62   2.0000      -0.409883       -11.1535
  63   2.0000      -0.341422        -9.2906
  64   2.0000      -0.334342        -9.0979
  65   2.0000      -0.325953        -8.8696
  66   2.0000      -0.294320        -8.0088
  67   0.0000       0.030727         0.8361
  68   0.0000       0.069238         1.8841
  69   0.0000       0.115914         3.1542
  70   0.0000       0.122654         3.3376
  71   0.0000       0.133908         3.6438

MULLIKEN ATOMIC CHARGES
-----------------------
   0 S :    0.136864
   1 C :   -0.141967
   2 C :   -0.061474
   3 C :   -0.016305
   4 C :   -0.172747
   5 H :    0.040474
   6 C :    0.047958
   7 H :    0.044921
   8 H :    0.020468
   9 C :   -0.080166
  10 H :    0.026066
  11 H :    0.048020
  12 C :   -0.025370
  13 H :    0.009506
  14 H :    0.039542
  15 H :    0.025456
  16 S :    0.099987
  17 C :   -0.113605
  18 C :   -0.061020
  19 C :   -0.023463
  20 C :   -0.153418
  21 H :    0.034287
  22 C :    0.088551
  23 H :    0.018301
  24 H :    0.023728
  25 C :   -0.111046
  26 H :    0.030601
  27 H :    0.021830
  28 C :   -0.057141
  29 H :    0.041900
  30 H :    0.049534
  31 H :    0.039879
  32 H :    0.056429
  33 H :    0.073420
Sum of atomic charges:   -0.0000000

LOEWDIN ATOMIC CHARGES
----------------------
   0 S :    0.420508
   1 C :   -0.205192
   2 C :   -0.076300
   3 C :   -0.054907
   4 C :   -0.201381
   5 H :    0.042057
   6 C :   -0.037872
   7 H :    0.037454
   8 H :    0.030296
   9 C :   -0.039726
  10 H :    0.019682
  11 H :    0.035664
  12 C :   -0.070246
  13 H :    0.018588
  14 H :    0.036645
  15 H :    0.023952
  16 S :    0.374136
  17 C :   -0.188716
  18 C :   -0.074782
  19 C :   -0.061242
  20 C :   -0.186914
  21 H :    0.035009
  22 C :   -0.034903
  23 H :    0.026022
  24 H :    0.033945
  25 C :   -0.043549
  26 H :    0.024012
  27 H :    0.017356
  28 C :   -0.068698
  29 H :    0.028945
  30 H :    0.034423
  31 H :    0.029640
  32 H :    0.033278
  33 H :    0.042812

  Mayer bond orders larger than 0.100000
B(  0-S ,  1-C ) :   1.1356 B(  0-S ,  4-C ) :   1.1549 B(  1-C ,  2-C ) :   1.6189
B(  1-C , 32-H ) :   0.9569 B(  2-C ,  3-C ) :   1.2602 B(  2-C ,  6-C ) :   1.0196
B(  3-C ,  4-C ) :   1.5440 B(  3-C ,  5-H ) :   0.9841 B(  4-C , 20-C ) :   1.0547
B(  6-C ,  7-H ) :   0.9253 B(  6-C ,  8-H ) :   0.9452 B(  6-C ,  9-C ) :   1.0613
B(  9-C , 10-H ) :   0.9495 B(  9-C , 11-H ) :   0.9616 B(  9-C , 12-C ) :   1.0783
B( 12-C , 13-H ) :   0.9720 B( 12-C , 14-H ) :   0.9744 B( 12-C , 15-H ) :   0.9731
B( 16-S , 17-C ) :   1.1405 B( 16-S , 20-C ) :   1.1091 B( 17-C , 18-C ) :   1.6400
B( 17-C , 33-H ) :   0.9598 B( 18-C , 19-C ) :   1.2071 B( 18-C , 21-H ) :   0.9798
B( 19-C , 20-C ) :   1.6218 B( 19-C , 22-C ) :   1.0756 B( 22-C , 23-H ) :   0.9198
B( 22-C , 24-H ) :   0.9172 B( 22-C , 25-C ) :   1.0376 B( 25-C , 26-H ) :   0.9616
B( 25-C , 27-H ) :   0.9534 B( 25-C , 28-C ) :   1.0927 B( 28-C , 29-H ) :   0.9728
B( 28-C , 30-H ) :   0.9712 B( 28-C , 31-H ) :   0.9744

Dispersion correction           -0.013608695
FINAL SINGLE POINT ENERGY     -1339.858731011510

DIPOLE MOMENT
-------------
                                X             Y             Z
Electronic contribution:    -21.04777     -13.11137       6.63487
Nuclear contribution   :     21.66341      13.41029      -6.75378
                        -----------------------------------------
Total Dipole Moment    :      0.61564       0.29892      -0.11891
                        -----------------------------------------
Magnitude (a.u.)       :      0.69463
Magnitude (Debye)      :      1.76560

Rotational constants in cm-1:     0.018414     0.007387     0.006197
Rotational constants in MHz :   552.024450   221.460375   185.778871

                             ****ORCA TERMINATED NORMALLY****
TOTAL RUN TIME: 0 days 0 hours 0 minutes 32 seconds 968 msec
