                         Program Version 4.2.1 -  RELEASE  -
|  1> ! wB97X-D3 SP def2-SVP
|  2> %pal
|  3> nprocs 16
|  4> end
|  5>
|  6> * xyz 0 1
|  7> S 	 31.665 	 -4.36142 	 75.5061
|  8> C 	 33.1773 	 -3.61625 	 76.1598
|  9> C 	 32.9499 	 -2.90313 	 77.3332
| 10> C 	 31.6136 	 -3.1793 	 77.8109
| 11> C 	 30.8798 	 -4.07364 	 77.0554
| 12> H 	 31.084 	 -2.81023 	 78.6604
| 13> C 	 33.9469 	 -1.97694 	 78.1885
| 14> H 	 33.7633 	 -0.933804 	 77.9704
| 15> H 	 34.9816 	 -2.1494 	 77.7568
| 16> C 	 34.211 	 -2.27261 	 79.6966
| 17> H 	 34.1491 	 -3.36355 	 79.8877
| 18> H 	 35.2914 	 -2.07301 	 79.7868
| 19> C 	 33.3874 	 -1.40866 	 80.6683
| 20> H 	 33.4948 	 -1.88856 	 81.6727
| 21> H 	 33.8289 	 -0.420379 	 80.5241
| 22> H 	 32.336 	 -1.38366 	 80.2644
| 23> S 	 28.2863 	 -4.22288 	 76.2405
| 24> C 	 27.0098 	 -5.0024 	 77.1848
| 25> C 	 27.6084 	 -5.451 	 78.3799
| 26> C 	 29.0443 	 -5.23406 	 78.454
| 27> C 	 29.5243 	 -4.50793 	 77.3876
| 28> H 	 26.9945 	 -5.96926 	 79.1863
| 29> C 	 29.8916 	 -5.73881 	 79.6459
| 30> H 	 29.2045 	 -6.21971 	 80.3785
| 31> H 	 30.2868 	 -4.78964 	 80.2205
| 32> C 	 30.9851 	 -6.79749 	 79.3724
| 33> H 	 31.413 	 -7.08865 	 80.3583
| 34> H 	 31.8246 	 -6.24689 	 78.8011
| 35> C 	 30.444 	 -8.10988 	 78.8042
| 36> H 	 29.64 	 -7.83283 	 78.1072
| 37> H 	 30.0857 	 -8.78623 	 79.5802
| 38> H 	 31.2106 	 -8.54676 	 78.2024
| 39> H 	 34.1805 	 -3.54118 	 75.6873
| 40> H 	 25.9439 	 -5.06667 	 77.0322
| 41> *
| 42>
| 43>                          ****END OF INPUT****

CARTESIAN COORDINATES (ANGSTROEM)
---------------------------------
  S     31.665000   -4.361420   75.506100
  C     33.177300   -3.616250   76.159800
  C     32.949900   -2.903130   77.333200
  C     31.613600   -3.179300   77.810900
  C     30.879800   -4.073640   77.055400
  H     31.084000   -2.810230   78.660400
  C     33.946900   -1.976940   78.188500
  H     33.763300   -0.933804   77.970400
  H     34.981600   -2.149400   77.756800
  C     34.211000   -2.272610   79.696600
  H     34.149100   -3.363550   79.887700
  H     35.291400   -2.073010   79.786800
  C     33.387400   -1.408660   80.668300
  H     33.494800   -1.888560   81.672700
  H     33.828900   -0.420379   80.524100
  H     32.336000   -1.383660   80.264400
  S     28.286300   -4.222880   76.240500
  C     27.009800   -5.002400   77.184800
  C     27.608400   -5.451000   78.379900
  C     29.044300   -5.234060   78.454000
  C     29.524300   -4.507930   77.387600
  H     26.994500   -5.969260   79.186300
  C     29.891600   -5.738810   79.645900
  H     29.204500   -6.219710   80.378500
  H     30.286800   -4.789640   80.220500
  C     30.985100   -6.797490   79.372400
  H     31.413000   -7.088650   80.358300
  H     31.824600   -6.246890   78.801100
  C     30.444000   -8.109880   78.804200
  H     29.640000   -7.832830   78.107200
  H     30.085700   -8.786230   79.580200
  H     31.210600   -8.546760   78.202400
  H     34.180500   -3.541180   75.687300
  H     25.943900   -5.066670   77.032200

 Total Charge           Charge          ....    0
 Multiplicity           Mult            ....    1
 Number of Electrons    NEL             ....  134
 Basis Dimension        Dim             ....  322

ORBITAL ENERGIES
----------------

  NO   OCC          E(Eh)            E(eV)
   0   2.0000     -88.971495     -2421.0374
   1   2.0000     -88.966685     -2420.9066
   2   2.0000     -10.331170      -281.1254
   3   2.0000     -10.325980      -280.9842
   4   2.0000     -10.325166      -280.9621
   5   2.0000     -10.322839      -280.8987
   6   2.0000     -10.313928      -280.6562
   7   2.0000     -10.307015      -280.4681
   8   2.0000     -10.305999      -280.4405
   9   2.0000     -10.304713      -280.4055
  10   2.0000     -10.301582      -280.3203
  11   2.0000     -10.293882      -280.1108
  12   2.0000     -10.293425      -280.0983
  13   2.0000     -10.289404      -279.9889
  14   2.0000     -10.289360      -279.9877
  15   2.0000     -10.270947      -279.4867
  16   2.0000      -8.084864      -220.0003
  17   2.0000      -8.081620      -219.9121
  18   2.0000      -6.043631      -164.4556
  19   2.0000      -6.040280      -164.3644
  20   2.0000      -6.039808      -164.3515
  21   2.0000      -6.035844      -164.2437
  22   2.0000      -6.035169      -164.2253
  23   2.0000      -6.032441      -164.1511
  24   2.0000      -1.006222       -27.3807
  25   2.0000      -0.978431       -26.6245
  26   2.0000      -0.904281       -24.6067
  27   2.0000      -0.899897       -24.4874
  28   2.0000      -0.868944       -23.6452
  29   2.0000      -0.845870       -23.0173
  30   2.0000      -0.839479       -22.8434
  31   2.0000      -0.812352       -22.1052
  32   2.0000      -0.781100       -21.2548
  33   2.0000      -0.771077       -20.9821
  34   2.0000      -0.703977       -19.1562
  35   2.0000      -0.693910       -18.8822
  36   2.0000      -0.679344       -18.4859
  37   2.0000      -0.660688       -17.9782
  38   2.0000      -0.640178       -17.4201
  39   2.0000      -0.613681       -16.6991
  40   2.0000      -0.579583       -15.7713
  41   2.0000      -0.567124       -15.4322
  42   2.0000      -0.548515       -14.9259
  43   2.0000      -0.544483       -14.8161
  44   2.0000      -0.541003       -14.7214
  45   2.0000      -0.533826       -14.5261
  46   2.0000      -0.518297       -14.1036
  47   2.0000      -0.513933       -13.9848
  48   2.0000      -0.501251       -13.6397
  49   2.0000      -0.494405       -13.4534
  50   2.0000      -0.487777       -13.2731
  51   2.0000      -0.478277       -13.0146
  52   2.0000      -0.472286       -12.8516
  53   2.0000      -0.462415       -12.5830
  54   2.0000      -0.461015       -12.5449
  55   2.0000      -0.444863       -12.1053
  56   2.0000      -0.439609       -11.9624
  57   2.0000      -0.436649       -11.8818
  58   2.0000      -0.427070       -11.6212
  59   2.0000      -0.419623       -11.4185
  60   2.0000      -0.411968       -11.2102
  61   2.0000      -0.409996       -11.1566
  62   2.0000      -0.404565       -11.0088
  63   2.0000      -0.345374        -9.3981
  64   2.0000      -0.332969        -9.0606
  65   2.0000      -0.329126        -8.9560
  66   2.0000      -0.296337        -8.0638
  67   0.0000       0.029108         0.7921
  68   0.0000       0.061531         1.6744
  69   0.0000       0.099551         2.7089
  70   0.0000       0.118481         3.2240
  71   0.0000       0.131135         3.5684

MULLIKEN ATOMIC CHARGES
-----------------------
   0 S :    0.114851
   1 C :   -0.133765
   2 C :   -0.052452
   3 C :    0.026043
   4 C :   -0.150588
   5 H :    0.006566
   6 C :    0.018150
   7 H :    0.044349
   8 H :    0.024386
   9 C :   -0.098025
  10 H :    0.038319
  11 H :    0.031548
  12 C :   -0.058907
  13 H :    0.058498
  14 H :    0.040564
  15 H :    0.047052
  16 S :    0.106755
  17 C :   -0.092466
  18 C :   -0.065418
  19 C :   -0.054215
  20 C :   -0.160900
  21 H :    0.046078
  22 C :    0.011621
  23 H :    0.013606
  24 H :    0.052330
  25 C :   -0.100511
  26 H :    0.029431
  27 H :    0.059673
  28 C :   -0.032837
  29 H :    0.039141
  30 H :    0.038689
  31 H :    0.033609
  32 H :    0.058196
  33 H :    0.060629
Sum of atomic charges:    0.0000000

LOEWDIN ATOMIC CHARGES
----------------------
   0 S :    0.378851
   1 C :   -0.187916
   2 C :   -0.058192
   3 C :   -0.059859
   4 C :   -0.190433
   5 H :    0.026160
   6 C :   -0.035056
   7 H :    0.030413
   8 H :    0.036219
   9 C :   -0.051052
  10 H :    0.027115
  11 H :    0.026071
  12 C :   -0.070297
  13 H :    0.036613
  14 H :    0.028573
  15 H :    0.030277
  16 S :    0.419300
  17 C :   -0.192158
  18 C :   -0.077275
  19 C :   -0.070681
  20 C :   -0.210563
  21 H :    0.041026
  22 C :   -0.045087
  23 H :    0.026648
  24 H :    0.041071
  25 C :   -0.052006
  26 H :    0.026195
  27 H :    0.034190
  28 C :   -0.065222
  29 H :    0.029606
  30 H :    0.027407
  31 H :    0.027740
  32 H :    0.037570
  33 H :    0.034749

  Mayer bond orders larger than 0.100000
B(  0-S ,  1-C ) :   1.1186 B(  0-S ,  4-C ) :   1.1193 B(  1-C ,  2-C ) :   1.6598
B(  1-C , 32-H ) :   0.9577 B(  2-C ,  3-C ) :   1.1947 B(  2-C ,  6-C ) :   1.0082
B(  3-C ,  4-C ) :   1.6176 B(  3-C ,  5-H ) :   0.9924 B(  4-C , 20-C ) :   1.0398
B(  6-C ,  7-H ) :   0.9479 B(  6-C ,  8-H ) :   0.9514 B(  6-C ,  9-C ) :   1.0447
B(  9-C , 10-H ) :   0.9599 B(  9-C , 11-H ) :   0.9657 B(  9-C , 12-C ) :   1.0558
B( 12-C , 13-H ) :   0.9731 B( 12-C , 14-H ) :   0.9758 B( 12-C , 15-H ) :   0.9800
B( 16-S , 17-C ) :   1.1496 B( 16-S , 20-C ) :   1.1522 B( 17-C , 18-C ) :   1.5996
B( 17-C , 33-H ) :   0.9708 B( 18-C , 19-C ) :   1.2601 B( 18-C , 21-H ) :   0.9718
B( 19-C , 20-C ) :   1.5878 B( 19-C , 22-C ) :   1.0297 B( 22-C , 23-H ) :   0.9368
B( 22-C , 24-H ) :   0.9400 B( 22-C , 25-C ) :   1.0665 B( 25-C , 26-H ) :   0.9561
B( 25-C , 27-H ) :   0.9581 B( 25-C , 28-C ) :   1.0571 B( 28-C , 29-H ) :   0.9796
B( 28-C , 30-H ) :   0.9747 B( 28-C , 31-H ) :   0.9720

Dispersion correction           -0.015094083
FINAL SINGLE POINT ENERGY     -1339.856835759536

DIPOLE MOMENT
-------------
                                X             Y             Z
Electronic contribution:    -13.82227       1.57558     -22.78565
Nuclear contribution   :     14.12541      -1.46488      23.42040
                        -----------------------------------------
Total Dipole Moment    :      0.30314       0.11070       0.63475
                        -----------------------------------------
Magnitude (a.u.)       :      0.71208
Magnitude (Debye)      :      1.80997

Rotational constants in cm-1:     0.018008     0.008985     0.007828
Rotational constants in MHz :   539.876353   269.365985   234.692119

                             ****ORCA TERMINATED NORMALLY****
TOTAL RUN TIME: 0 days 0 hours 0 minutes 30 seconds 68 msec
