                         Program Version 4.2.1 -  RELEASE  -
|  1> ! wB97X-D3 SP def2-SVP
|  2> %pal
|  3> nprocs 16
|  4> end
|  5>
|  6> * xyz 0 1
|  7> S 	 -106.732 	 39.644 	 129.004
|  8> C 	 -106.213 	 40.6075 	 130.339
|  9> C 	 -107.269 	 40.816 	 131.165
| 10> C 	 -108.526 	 40.2491 	 130.734
| 11> C 	 -108.419 	 39.6199 	 129.552
| 12> H 	 -109.422 	 40.459 	 131.325
| 13> C 	 -107.281 	 41.7083 	 132.387
| 14> H 	 -107.964 	 42.5073 	 132.123
| 15> H 	 -106.293 	 42.1637 	 132.451
| 16> C 	 -107.563 	 40.9424 	 133.759
| 17> H 	 -107.516 	 41.7312 	 134.55
| 18> H 	 -108.544 	 40.4205 	 133.699
| 19> C 	 -106.519 	 39.8866 	 134.042
| 20> H 	 -106.476 	 39.1415 	 133.235
| 21> H 	 -105.536 	 40.2953 	 134.133
| 22> H 	 -106.731 	 39.4206 	 135.014
| 23> S 	 -109.969 	 39.6139 	 127.224
| 24> C 	 -111.159 	 38.4117 	 126.896
| 25> C 	 -111.238 	 37.5507 	 127.912
| 26> C 	 -110.166 	 37.6979 	 128.889
| 27> C 	 -109.481 	 38.9208 	 128.755
| 28> H 	 -111.956 	 36.7105 	 127.841
| 29> C 	 -109.864 	 36.7169 	 129.975
| 30> H 	 -110.85 	 36.2226 	 130.185
| 31> H 	 -109.595 	 37.2603 	 130.92
| 32> C 	 -108.676 	 35.8019 	 129.47
| 33> H 	 -107.676 	 36.3468 	 129.531
| 34> H 	 -108.895 	 35.7147 	 128.417
| 35> C 	 -108.502 	 34.4764 	 130.198
| 36> H 	 -109.274 	 33.7971 	 130.013
| 37> H 	 -108.31 	 34.6075 	 131.209
| 38> H 	 -107.547 	 34.0145 	 129.855
| 39> H 	 -105.129 	 40.9124 	 130.436
| 40> H 	 -111.842 	 38.5797 	 126.085
| 41> *
| 42>
| 43>                          ****END OF INPUT****

CARTESIAN COORDINATES (ANGSTROEM)
---------------------------------
  S    -106.732000   39.644000  129.004000
  C    -106.213000   40.607500  130.339000
  C    -107.269000   40.816000  131.165000
  C    -108.526000   40.249100  130.734000
  C    -108.419000   39.619900  129.552000
  H    -109.422000   40.459000  131.325000
  C    -107.281000   41.708300  132.387000
  H    -107.964000   42.507300  132.123000
  H    -106.293000   42.163700  132.451000
  C    -107.563000   40.942400  133.759000
  H    -107.516000   41.731200  134.550000
  H    -108.544000   40.420500  133.699000
  C    -106.519000   39.886600  134.042000
  H    -106.476000   39.141500  133.235000
  H    -105.536000   40.295300  134.133000
  H    -106.731000   39.420600  135.014000
  S    -109.969000   39.613900  127.224000
  C    -111.159000   38.411700  126.896000
  C    -111.238000   37.550700  127.912000
  C    -110.166000   37.697900  128.889000
  C    -109.481000   38.920800  128.755000
  H    -111.956000   36.710500  127.841000
  C    -109.864000   36.716900  129.975000
  H    -110.850000   36.222600  130.185000
  H    -109.595000   37.260300  130.920000
  C    -108.676000   35.801900  129.470000
  H    -107.676000   36.346800  129.531000
  H    -108.895000   35.714700  128.417000
  C    -108.502000   34.476400  130.198000
  H    -109.274000   33.797100  130.013000
  H    -108.310000   34.607500  131.209000
  H    -107.547000   34.014500  129.855000
  H    -105.129000   40.912400  130.436000
  H    -111.842000   38.579700  126.085000

 Total Charge           Charge          ....    0
 Multiplicity           Mult            ....    1
 Number of Electrons    NEL             ....  134
 Basis Dimension        Dim             ....  322

ORBITAL ENERGIES
----------------

  NO   OCC          E(Eh)            E(eV)
   0   2.0000     -88.961416     -2420.7632
   1   2.0000     -88.956162     -2420.6202
   2   2.0000     -10.334521      -281.2166
   3   2.0000     -10.328016      -281.0396
   4   2.0000     -10.316718      -280.7322
   5   2.0000     -10.311737      -280.5966
   6   2.0000     -10.306144      -280.4444
   7   2.0000     -10.296679      -280.1869
   8   2.0000     -10.296556      -280.1835
   9   2.0000     -10.295044      -280.1424
  10   2.0000     -10.295032      -280.1421
  11   2.0000     -10.293969      -280.1131
  12   2.0000     -10.291581      -280.0482
  13   2.0000     -10.287881      -279.9475
  14   2.0000     -10.274468      -279.5825
  15   2.0000     -10.266945      -279.3778
  16   2.0000      -8.076536      -219.7737
  17   2.0000      -8.072068      -219.6521
  18   2.0000      -6.035168      -164.2253
  19   2.0000      -6.030925      -164.1098
  20   2.0000      -6.030487      -164.0979
  21   2.0000      -6.027185      -164.0080
  22   2.0000      -6.026275      -163.9833
  23   2.0000      -6.022972      -163.8934
  24   2.0000      -1.007694       -27.4207
  25   2.0000      -0.990261       -26.9464
  26   2.0000      -0.907037       -24.6817
  27   2.0000      -0.902767       -24.5655
  28   2.0000      -0.869977       -23.6733
  29   2.0000      -0.848495       -23.0887
  30   2.0000      -0.845925       -23.0188
  31   2.0000      -0.822576       -22.3834
  32   2.0000      -0.777986       -21.1701
  33   2.0000      -0.767312       -20.8796
  34   2.0000      -0.704996       -19.1839
  35   2.0000      -0.693864       -18.8810
  36   2.0000      -0.688839       -18.7443
  37   2.0000      -0.655657       -17.8413
  38   2.0000      -0.640503       -17.4290
  39   2.0000      -0.626979       -17.0610
  40   2.0000      -0.593869       -16.1600
  41   2.0000      -0.567729       -15.4487
  42   2.0000      -0.557900       -15.1812
  43   2.0000      -0.548769       -14.9328
  44   2.0000      -0.542775       -14.7697
  45   2.0000      -0.525750       -14.3064
  46   2.0000      -0.515959       -14.0400
  47   2.0000      -0.512123       -13.9356
  48   2.0000      -0.507266       -13.8034
  49   2.0000      -0.501532       -13.6474
  50   2.0000      -0.487558       -13.2671
  51   2.0000      -0.481692       -13.1075
  52   2.0000      -0.469019       -12.7627
  53   2.0000      -0.462270       -12.5790
  54   2.0000      -0.458013       -12.4632
  55   2.0000      -0.447737       -12.1835
  56   2.0000      -0.443686       -12.0733
  57   2.0000      -0.439088       -11.9482
  58   2.0000      -0.426343       -11.6014
  59   2.0000      -0.423711       -11.5298
  60   2.0000      -0.419857       -11.4249
  61   2.0000      -0.408296       -11.1103
  62   2.0000      -0.406129       -11.0513
  63   2.0000      -0.343932        -9.3589
  64   2.0000      -0.328292        -8.9333
  65   2.0000      -0.323787        -8.8107
  66   2.0000      -0.306666        -8.3448
  67   0.0000       0.044562         1.2126
  68   0.0000       0.063684         1.7329
  69   0.0000       0.125056         3.4029
  70   0.0000       0.126154         3.4328
  71   0.0000       0.129721         3.5299

MULLIKEN ATOMIC CHARGES
-----------------------
   0 S :    0.099829
   1 C :   -0.152944
   2 C :   -0.121543
   3 C :    0.054257
   4 C :   -0.131025
   5 H :    0.023885
   6 C :    0.057970
   7 H :    0.042553
   8 H :    0.008867
   9 C :   -0.088521
  10 H :    0.042401
  11 H :    0.038895
  12 C :   -0.045001
  13 H :    0.045149
  14 H :    0.016176
  15 H :    0.036360
  16 S :    0.086284
  17 C :   -0.082490
  18 C :   -0.028128
  19 C :   -0.085420
  20 C :   -0.157623
  21 H :    0.032311
  22 C :    0.054051
  23 H :    0.029094
  24 H :    0.035594
  25 C :   -0.105890
  26 H :    0.044507
  27 H :    0.032792
  28 C :    0.012680
  29 H :    0.025147
  30 H :    0.015261
  31 H :    0.025341
  32 H :    0.077664
  33 H :    0.061518
Sum of atomic charges:   -0.0000000

LOEWDIN ATOMIC CHARGES
----------------------
   0 S :    0.396830
   1 C :   -0.210853
   2 C :   -0.075588
   3 C :   -0.058772
   4 C :   -0.182230
   5 H :    0.038341
   6 C :   -0.033336
   7 H :    0.032330
   8 H :    0.025459
   9 C :   -0.039201
  10 H :    0.029004
  11 H :    0.025216
  12 C :   -0.066134
  13 H :    0.028473
  14 H :    0.018377
  15 H :    0.029344
  16 S :    0.407929
  17 C :   -0.183831
  18 C :   -0.083901
  19 C :   -0.054016
  20 C :   -0.206399
  21 H :    0.037484
  22 C :   -0.041677
  23 H :    0.032789
  24 H :    0.033747
  25 C :   -0.038436
  26 H :    0.034331
  27 H :    0.021938
  28 C :   -0.059364
  29 H :    0.016773
  30 H :    0.017538
  31 H :    0.033508
  32 H :    0.045018
  33 H :    0.029310

  Mayer bond orders larger than 0.100000
B(  0-S ,  1-C ) :   1.1283 B(  0-S ,  4-C ) :   1.1480 B(  1-C ,  2-C ) :   1.6288
B(  1-C , 32-H ) :   0.9620 B(  2-C ,  3-C ) :   1.2144 B(  2-C ,  6-C ) :   1.0189
B(  3-C ,  4-C ) :   1.6122 B(  3-C ,  5-H ) :   0.9974 B(  4-C , 20-C ) :   0.9856
B(  6-C ,  7-H ) :   0.9473 B(  6-C ,  8-H ) :   0.9435 B(  6-C ,  9-C ) :   1.0517
B(  9-C , 10-H ) :   0.9584 B(  9-C , 11-H ) :   0.9593 B(  9-C , 12-C ) :   1.0770
B( 12-C , 13-H ) :   0.9723 B( 12-C , 14-H ) :   0.9744 B( 12-C , 15-H ) :   0.9719
B( 16-S , 17-C ) :   1.1680 B( 16-S , 20-C ) :   1.1515 B( 17-C , 18-C ) :   1.6155
B( 17-C , 33-H ) :   0.9667 B( 18-C , 19-C ) :   1.2316 B( 18-C , 21-H ) :   0.9833
B( 19-C , 20-C ) :   1.5910 B( 19-C , 22-C ) :   1.0590 B( 22-C , 23-H ) :   0.9423
B( 22-C , 24-H ) :   0.9331 B( 22-C , 25-C ) :   1.0318 B( 25-C , 26-H ) :   0.9522
B( 25-C , 27-H ) :   0.9629 B( 25-C , 28-C ) :   1.0912 B( 28-C , 29-H ) :   0.9771
B( 28-C , 30-H ) :   0.9685 B( 28-C , 31-H ) :   0.9698

Dispersion correction           -0.014707320
FINAL SINGLE POINT ENERGY     -1339.883699653371

DIPOLE MOMENT
-------------
                                X             Y             Z
Electronic contribution:     -3.95929      10.71786     -22.71546
Nuclear contribution   :      3.85920     -10.83243      23.24684
                        -----------------------------------------
Total Dipole Moment    :     -0.10009      -0.11457       0.53139
                        -----------------------------------------
Magnitude (a.u.)       :      0.55273
Magnitude (Debye)      :      1.40494

Rotational constants in cm-1:     0.018596     0.008751     0.007213
Rotational constants in MHz :   557.485188   262.352395   216.251735

                             ****ORCA TERMINATED NORMALLY****
TOTAL RUN TIME: 0 days 0 hours 0 minutes 33 seconds 763 msec
