                         Program Version 4.2.1 -  RELEASE  -
|  1> ! wB97X-D3 SP def2-SVP
|  2> %pal
|  3> nprocs 16
|  4> end
|  5>
|  6> * xyz 0 1
|  7> S 	 37.7903 	 29.7046 	 92.2536
|  8> C 	 36.9582 	 31.0421 	 91.4633
|  9> C 	 35.6835 	 30.6638 	 91.0221
| 10> C 	 35.5182 	 29.2778 	 91.2973
| 11> C 	 36.5206 	 28.5902 	 91.9086
| 12> H 	 34.5204 	 28.8578 	 91.0976
| 13> C 	 34.6563 	 31.5549 	 90.313
| 14> H 	 35.2768 	 32.1208 	 89.6095
| 15> H 	 34.3419 	 32.3193 	 90.9596
| 16> C 	 33.5463 	 30.8588 	 89.5047
| 17> H 	 33.0022 	 30.2064 	 90.1526
| 18> H 	 32.8243 	 31.6118 	 89.1544
| 19> C 	 33.9296 	 30.1176 	 88.2907
| 20> H 	 33.0712 	 30.0104 	 87.489
| 21> H 	 34.8039 	 30.5164 	 87.7718
| 22> H 	 34.2199 	 29.1 	 88.5472
| 23> S 	 36.2831 	 27.0087 	 94.0858
| 24> C 	 36.3827 	 25.2686 	 93.9114
| 25> C 	 36.4575 	 24.8739 	 92.5993
| 26> C 	 36.5882 	 26.0181 	 91.716
| 27> C 	 36.5163 	 27.2211 	 92.3545
| 28> H 	 36.5974 	 23.8352 	 92.4181
| 29> C 	 36.8345 	 25.8277 	 90.2256
| 30> H 	 36.2457 	 26.5698 	 89.6786
| 31> H 	 36.4071 	 24.8543 	 89.9859
| 32> C 	 38.2633 	 25.8738 	 89.8304
| 33> H 	 38.8988 	 25.3813 	 90.5525
| 34> H 	 38.6655 	 26.9329 	 89.8084
| 35> C 	 38.4451 	 25.2818 	 88.4452
| 36> H 	 37.7339 	 25.6123 	 87.6919
| 37> H 	 38.2698 	 24.2205 	 88.3513
| 38> H 	 39.4724 	 25.349 	 88.186
| 39> H 	 37.3723 	 32.0184 	 91.3516
| 40> H 	 36.2452 	 24.53 	 94.6849
| 41> *
| 42>
| 43>                          ****END OF INPUT****

CARTESIAN COORDINATES (ANGSTROEM)
---------------------------------
  S     37.790300   29.704600   92.253600
  C     36.958200   31.042100   91.463300
  C     35.683500   30.663800   91.022100
  C     35.518200   29.277800   91.297300
  C     36.520600   28.590200   91.908600
  H     34.520400   28.857800   91.097600
  C     34.656300   31.554900   90.313000
  H     35.276800   32.120800   89.609500
  H     34.341900   32.319300   90.959600
  C     33.546300   30.858800   89.504700
  H     33.002200   30.206400   90.152600
  H     32.824300   31.611800   89.154400
  C     33.929600   30.117600   88.290700
  H     33.071200   30.010400   87.489000
  H     34.803900   30.516400   87.771800
  H     34.219900   29.100000   88.547200
  S     36.283100   27.008700   94.085800
  C     36.382700   25.268600   93.911400
  C     36.457500   24.873900   92.599300
  C     36.588200   26.018100   91.716000
  C     36.516300   27.221100   92.354500
  H     36.597400   23.835200   92.418100
  C     36.834500   25.827700   90.225600
  H     36.245700   26.569800   89.678600
  H     36.407100   24.854300   89.985900
  C     38.263300   25.873800   89.830400
  H     38.898800   25.381300   90.552500
  H     38.665500   26.932900   89.808400
  C     38.445100   25.281800   88.445200
  H     37.733900   25.612300   87.691900
  H     38.269800   24.220500   88.351300
  H     39.472400   25.349000   88.186000
  H     37.372300   32.018400   91.351600
  H     36.245200   24.530000   94.684900

 Total Charge           Charge          ....    0
 Multiplicity           Mult            ....    1
 Number of Electrons    NEL             ....  134
 Basis Dimension        Dim             ....  322

ORBITAL ENERGIES
----------------

  NO   OCC          E(Eh)            E(eV)
   0   2.0000     -88.965725     -2420.8805
   1   2.0000     -88.961750     -2420.7723
   2   2.0000     -10.323700      -280.9222
   3   2.0000     -10.321419      -280.8601
   4   2.0000     -10.314915      -280.6831
   5   2.0000     -10.314790      -280.6797
   6   2.0000     -10.302936      -280.3571
   7   2.0000     -10.302157      -280.3360
   8   2.0000     -10.295379      -280.1515
   9   2.0000     -10.291294      -280.0403
  10   2.0000     -10.290214      -280.0110
  11   2.0000     -10.287034      -279.9244
  12   2.0000     -10.284710      -279.8612
  13   2.0000     -10.282981      -279.8141
  14   2.0000     -10.281355      -279.7699
  15   2.0000     -10.268551      -279.4215
  16   2.0000      -8.080585      -219.8839
  17   2.0000      -8.076623      -219.7761
  18   2.0000      -6.039044      -164.3307
  19   2.0000      -6.035175      -164.2255
  20   2.0000      -6.034989      -164.2204
  21   2.0000      -6.031463      -164.1244
  22   2.0000      -6.031158      -164.1161
  23   2.0000      -6.027269      -164.0103
  24   2.0000      -1.008834       -27.4518
  25   2.0000      -0.984268       -26.7833
  26   2.0000      -0.917817       -24.9751
  27   2.0000      -0.913346       -24.8534
  28   2.0000      -0.874086       -23.7851
  29   2.0000      -0.848647       -23.0928
  30   2.0000      -0.845686       -23.0123
  31   2.0000      -0.817668       -22.2499
  32   2.0000      -0.787266       -21.4226
  33   2.0000      -0.773103       -21.0372
  34   2.0000      -0.711629       -19.3644
  35   2.0000      -0.698681       -19.0121
  36   2.0000      -0.691750       -18.8235
  37   2.0000      -0.662361       -18.0238
  38   2.0000      -0.641689       -17.4612
  39   2.0000      -0.627244       -17.0682
  40   2.0000      -0.595740       -16.2109
  41   2.0000      -0.571716       -15.5572
  42   2.0000      -0.558779       -15.2052
  43   2.0000      -0.557201       -15.1622
  44   2.0000      -0.541266       -14.7286
  45   2.0000      -0.532389       -14.4870
  46   2.0000      -0.517985       -14.0951
  47   2.0000      -0.515012       -14.0142
  48   2.0000      -0.504240       -13.7211
  49   2.0000      -0.502182       -13.6651
  50   2.0000      -0.489768       -13.3273
  51   2.0000      -0.478255       -13.0140
  52   2.0000      -0.471466       -12.8292
  53   2.0000      -0.463782       -12.6202
  54   2.0000      -0.454809       -12.3760
  55   2.0000      -0.448526       -12.2050
  56   2.0000      -0.448031       -12.1916
  57   2.0000      -0.442504       -12.0411
  58   2.0000      -0.433961       -11.8087
  59   2.0000      -0.423424       -11.5219
  60   2.0000      -0.414146       -11.2695
  61   2.0000      -0.412470       -11.2239
  62   2.0000      -0.406697       -11.0668
  63   2.0000      -0.338135        -9.2011
  64   2.0000      -0.328907        -8.9500
  65   2.0000      -0.326580        -8.8867
  66   2.0000      -0.304682        -8.2908
  67   0.0000       0.042341         1.1522
  68   0.0000       0.059638         1.6228
  69   0.0000       0.118618         3.2277
  70   0.0000       0.126695         3.4475
  71   0.0000       0.130460         3.5500

MULLIKEN ATOMIC CHARGES
-----------------------
   0 S :    0.120878
   1 C :   -0.130924
   2 C :   -0.109071
   3 C :    0.033264
   4 C :   -0.160073
   5 H :    0.009098
   6 C :    0.107365
   7 H :    0.019871
   8 H :    0.030523
   9 C :   -0.058691
  10 H :    0.027218
  11 H :    0.032050
  12 C :   -0.081081
  13 H :    0.050133
  14 H :    0.032113
  15 H :    0.026660
  16 S :    0.105635
  17 C :   -0.081955
  18 C :   -0.037243
  19 C :   -0.039648
  20 C :   -0.168873
  21 H :    0.014092
  22 C :    0.094294
  23 H :    0.026527
  24 H :    0.009229
  25 C :   -0.058035
  26 H :    0.022904
  27 H :    0.040239
  28 C :   -0.026755
  29 H :    0.025706
  30 H :    0.011052
  31 H :    0.025316
  32 H :    0.037008
  33 H :    0.051174
Sum of atomic charges:   -0.0000000

LOEWDIN ATOMIC CHARGES
----------------------
   0 S :    0.419216
   1 C :   -0.189877
   2 C :   -0.062558
   3 C :   -0.067545
   4 C :   -0.217426
   5 H :    0.030579
   6 C :   -0.025796
   7 H :    0.035632
   8 H :    0.029934
   9 C :   -0.048111
  10 H :    0.020552
  11 H :    0.033463
  12 C :   -0.074037
  13 H :    0.040381
  14 H :    0.025316
  15 H :    0.021180
  16 S :    0.398261
  17 C :   -0.176561
  18 C :   -0.072992
  19 C :   -0.047326
  20 C :   -0.199722
  21 H :    0.029330
  22 C :   -0.031235
  23 H :    0.032106
  24 H :    0.027602
  25 C :   -0.041223
  26 H :    0.023326
  27 H :    0.033867
  28 C :   -0.067329
  29 H :    0.026825
  30 H :    0.021406
  31 H :    0.023433
  32 H :    0.020940
  33 H :    0.028388

  Mayer bond orders larger than 0.100000
B(  0-S ,  1-C ) :   1.1596 B(  0-S ,  4-C ) :   1.1509 B(  1-C ,  2-C ) :   1.5837
B(  1-C ,  4-C ) :   0.1065 B(  1-C , 32-H ) :   0.9747 B(  2-C ,  3-C ) :   1.2933
B(  2-C ,  6-C ) :   0.9851 B(  3-C ,  4-C ) :   1.5689 B(  3-C ,  5-H ) :   0.9833
B(  4-C , 20-C ) :   1.0119 B(  6-C ,  7-H ) :   0.9370 B(  6-C ,  8-H ) :   0.9345
B(  6-C ,  9-C ) :   1.0871 B(  9-C , 10-H ) :   0.9501 B(  9-C , 11-H ) :   0.9505
B(  9-C , 12-C ) :   1.0768 B( 12-C , 13-H ) :   0.9743 B( 12-C , 14-H ) :   0.9733
B( 12-C , 15-H ) :   0.9720 B( 16-S , 17-C ) :   1.1493 B( 16-S , 20-C ) :   1.1290
B( 17-C , 18-C ) :   1.6538 B( 17-C , 33-H ) :   0.9622 B( 18-C , 19-C ) :   1.2021
B( 18-C , 21-H ) :   0.9924 B( 19-C , 20-C ) :   1.6553 B( 19-C , 22-C ) :   1.0446
B( 22-C , 23-H ) :   0.9196 B( 22-C , 24-H ) :   0.9357 B( 22-C , 25-C ) :   1.0784
B( 25-C , 26-H ) :   0.9529 B( 25-C , 27-H ) :   0.9472 B( 25-C , 28-C ) :   1.0874
B( 28-C , 29-H ) :   0.9704 B( 28-C , 30-H ) :   0.9705 B( 28-C , 31-H ) :   0.9718

Dispersion correction           -0.014379514
FINAL SINGLE POINT ENERGY     -1339.879005857691

DIPOLE MOMENT
-------------
                                X             Y             Z
Electronic contribution:      6.11947       1.85610      25.93032
Nuclear contribution   :     -6.41138      -1.89650     -26.42468
                        -----------------------------------------
Total Dipole Moment    :     -0.29190      -0.04039      -0.49436
                        -----------------------------------------
Magnitude (a.u.)       :      0.57552
Magnitude (Debye)      :      1.46286

Rotational constants in cm-1:     0.016648     0.009256     0.007642
Rotational constants in MHz :   499.081784   277.501529   229.088631

                             ****ORCA TERMINATED NORMALLY****
TOTAL RUN TIME: 0 days 0 hours 0 minutes 30 seconds 271 msec
