                         Program Version 4.2.1 -  RELEASE  -
|  1> ! wB97X-D3 SP def2-SVP
|  2> %pal
|  3> nprocs 16
|  4> end
|  5>
|  6> * xyz 0 1
|  7> S 	 -8.51778 	 51.1852 	 43.4995
|  8> C 	 -9.965 	 51.2867 	 44.4704
|  9> C 	 -10.1974 	 50.0381 	 45.0379
| 10> C 	 -9.14752 	 49.1032 	 44.8704
| 11> C 	 -8.11263 	 49.6048 	 44.1285
| 12> H 	 -9.18441 	 48.0893 	 45.2359
| 13> C 	 -11.4894 	 49.5712 	 45.7222
| 14> H 	 -11.8307 	 48.7 	 45.1487
| 15> H 	 -12.2708 	 50.35 	 45.5586
| 16> C 	 -11.4069 	 49.2742 	 47.2393
| 17> H 	 -12.2176 	 48.5879 	 47.5581
| 18> H 	 -10.5329 	 48.79 	 47.4144
| 19> C 	 -11.4232 	 50.5426 	 48.0585
| 20> H 	 -12.174 	 51.2364 	 47.7644
| 21> H 	 -11.4564 	 50.296 	 49.0672
| 22> H 	 -10.5022 	 51.0891 	 47.8261
| 23> S 	 -6.73085 	 48.8886 	 41.8128
| 24> C 	 -5.11517 	 48.2512 	 42.0191
| 25> C 	 -4.935 	 47.7484 	 43.3173
| 26> C 	 -5.92879 	 48.2276 	 44.2223
| 27> C 	 -6.97913 	 48.8661 	 43.588
| 28> H 	 -4.06002 	 47.1859 	 43.4708
| 29> C 	 -5.65468 	 48.1129 	 45.6655
| 30> H 	 -4.6267 	 47.5866 	 45.817
| 31> H 	 -6.49721 	 47.544 	 45.9818
| 32> C 	 -5.56249 	 49.4725 	 46.3603
| 33> H 	 -6.33513 	 50.1721 	 46.0269
| 34> H 	 -4.73376 	 49.9933 	 45.8872
| 35> C 	 -5.39283 	 49.4902 	 47.9311
| 36> H 	 -4.60883 	 48.9523 	 48.3948
| 37> H 	 -6.39753 	 49.2661 	 48.3847
| 38> H 	 -5.28796 	 50.555 	 48.1237
| 39> H 	 -10.5514 	 52.144 	 44.5991
| 40> H 	 -4.42048 	 47.9319 	 41.2606
| 41> *
| 42>
| 43>                          ****END OF INPUT****

CARTESIAN COORDINATES (ANGSTROEM)
---------------------------------
  S     -8.517780   51.185200   43.499500
  C     -9.965000   51.286700   44.470400
  C    -10.197400   50.038100   45.037900
  C     -9.147520   49.103200   44.870400
  C     -8.112630   49.604800   44.128500
  H     -9.184410   48.089300   45.235900
  C    -11.489400   49.571200   45.722200
  H    -11.830700   48.700000   45.148700
  H    -12.270800   50.350000   45.558600
  C    -11.406900   49.274200   47.239300
  H    -12.217600   48.587900   47.558100
  H    -10.532900   48.790000   47.414400
  C    -11.423200   50.542600   48.058500
  H    -12.174000   51.236400   47.764400
  H    -11.456400   50.296000   49.067200
  H    -10.502200   51.089100   47.826100
  S     -6.730850   48.888600   41.812800
  C     -5.115170   48.251200   42.019100
  C     -4.935000   47.748400   43.317300
  C     -5.928790   48.227600   44.222300
  C     -6.979130   48.866100   43.588000
  H     -4.060020   47.185900   43.470800
  C     -5.654680   48.112900   45.665500
  H     -4.626700   47.586600   45.817000
  H     -6.497210   47.544000   45.981800
  C     -5.562490   49.472500   46.360300
  H     -6.335130   50.172100   46.026900
  H     -4.733760   49.993300   45.887200
  C     -5.392830   49.490200   47.931100
  H     -4.608830   48.952300   48.394800
  H     -6.397530   49.266100   48.384700
  H     -5.287960   50.555000   48.123700
  H    -10.551400   52.144000   44.599100
  H     -4.420480   47.931900   41.260600

 Total Charge           Charge          ....    0
 Multiplicity           Mult            ....    1
 Number of Electrons    NEL             ....  134
 Basis Dimension        Dim             ....  322

ORBITAL ENERGIES
----------------

  NO   OCC          E(Eh)            E(eV)
   0   2.0000     -88.966848     -2420.9110
   1   2.0000     -88.966794     -2420.9095
   2   2.0000     -10.330085      -281.0959
   3   2.0000     -10.326592      -281.0009
   4   2.0000     -10.315755      -280.7060
   5   2.0000     -10.313786      -280.6524
   6   2.0000     -10.302108      -280.3346
   7   2.0000     -10.300261      -280.2843
   8   2.0000     -10.294638      -280.1313
   9   2.0000     -10.292407      -280.0706
  10   2.0000     -10.290977      -280.0317
  11   2.0000     -10.289948      -280.0037
  12   2.0000     -10.283841      -279.8375
  13   2.0000     -10.279244      -279.7124
  14   2.0000     -10.279208      -279.7115
  15   2.0000     -10.266898      -279.3765
  16   2.0000      -8.081553      -219.9102
  17   2.0000      -8.080661      -219.8860
  18   2.0000      -6.040037      -164.3578
  19   2.0000      -6.039294      -164.3375
  20   2.0000      -6.036016      -164.2483
  21   2.0000      -6.035387      -164.2312
  22   2.0000      -6.032363      -164.1490
  23   2.0000      -6.031247      -164.1186
  24   2.0000      -1.008254       -27.4360
  25   2.0000      -0.983804       -26.7707
  26   2.0000      -0.912684       -24.8354
  27   2.0000      -0.907344       -24.6901
  28   2.0000      -0.869853       -23.6699
  29   2.0000      -0.852229       -23.1903
  30   2.0000      -0.845786       -23.0150
  31   2.0000      -0.814735       -22.1701
  32   2.0000      -0.782032       -21.2802
  33   2.0000      -0.772108       -21.0101
  34   2.0000      -0.714012       -19.4293
  35   2.0000      -0.703209       -19.1353
  36   2.0000      -0.691813       -18.8252
  37   2.0000      -0.662289       -18.0218
  38   2.0000      -0.645146       -17.5553
  39   2.0000      -0.625596       -17.0233
  40   2.0000      -0.587019       -15.9736
  41   2.0000      -0.572794       -15.5865
  42   2.0000      -0.563258       -15.3270
  43   2.0000      -0.555190       -15.1075
  44   2.0000      -0.538829       -14.6623
  45   2.0000      -0.525006       -14.2862
  46   2.0000      -0.521782       -14.1984
  47   2.0000      -0.508572       -13.8390
  48   2.0000      -0.505190       -13.7469
  49   2.0000      -0.498315       -13.5598
  50   2.0000      -0.493666       -13.4333
  51   2.0000      -0.485570       -13.2130
  52   2.0000      -0.475209       -12.9311
  53   2.0000      -0.467605       -12.7242
  54   2.0000      -0.454480       -12.3670
  55   2.0000      -0.447352       -12.1731
  56   2.0000      -0.444991       -12.1088
  57   2.0000      -0.436175       -11.8689
  58   2.0000      -0.431984       -11.7549
  59   2.0000      -0.425545       -11.5797
  60   2.0000      -0.420351       -11.4383
  61   2.0000      -0.412840       -11.2339
  62   2.0000      -0.407295       -11.0831
  63   2.0000      -0.346842        -9.4380
  64   2.0000      -0.331805        -9.0289
  65   2.0000      -0.326045        -8.8721
  66   2.0000      -0.291002        -7.9186
  67   0.0000       0.026384         0.7180
  68   0.0000       0.063001         1.7143
  69   0.0000       0.105182         2.8621
  70   0.0000       0.121410         3.3037
  71   0.0000       0.132136         3.5956

MULLIKEN ATOMIC CHARGES
-----------------------
   0 S :    0.108433
   1 C :   -0.102191
   2 C :   -0.094086
   3 C :    0.037143
   4 C :   -0.155789
   5 H :    0.016604
   6 C :    0.025467
   7 H :    0.041117
   8 H :    0.017640
   9 C :   -0.028712
  10 H :    0.030488
  11 H :   -0.001101
  12 C :   -0.016685
  13 H :    0.016123
  14 H :    0.026856
  15 H :    0.025796
  16 S :    0.109683
  17 C :   -0.095194
  18 C :   -0.042064
  19 C :   -0.037675
  20 C :   -0.160181
  21 H :    0.005404
  22 C :    0.108261
  23 H :    0.039780
  24 H :    0.021886
  25 C :   -0.118437
  26 H :    0.040090
  27 H :    0.017475
  28 C :   -0.022202
  29 H :    0.037205
  30 H :    0.034508
  31 H :    0.027902
  32 H :    0.031589
  33 H :    0.054867
Sum of atomic charges:   -0.0000000

LOEWDIN ATOMIC CHARGES
----------------------
   0 S :    0.411407
   1 C :   -0.192626
   2 C :   -0.062760
   3 C :   -0.061202
   4 C :   -0.193405
   5 H :    0.032734
   6 C :   -0.031614
   7 H :    0.035054
   8 H :    0.027746
   9 C :   -0.033255
  10 H :    0.026980
  11 H :    0.007905
  12 C :   -0.054978
  13 H :    0.018956
  14 H :    0.018693
  15 H :    0.029505
  16 S :    0.388471
  17 C :   -0.184154
  18 C :   -0.065274
  19 C :   -0.054034
  20 C :   -0.193448
  21 H :    0.023733
  22 C :   -0.035246
  23 H :    0.043112
  24 H :    0.027222
  25 C :   -0.045836
  26 H :    0.029340
  27 H :    0.023497
  28 C :   -0.064112
  29 H :    0.018676
  30 H :    0.030856
  31 H :    0.030426
  32 H :    0.019715
  33 H :    0.027915

  Mayer bond orders larger than 0.100000
B(  0-S ,  1-C ) :   1.1362 B(  0-S ,  4-C ) :   1.1521 B(  1-C ,  2-C ) :   1.5839
B(  1-C , 32-H ) :   0.9821 B(  2-C ,  3-C ) :   1.2568 B(  2-C ,  6-C ) :   1.0209
B(  3-C ,  4-C ) :   1.5521 B(  3-C ,  5-H ) :   0.9956 B(  4-C , 20-C ) :   1.0440
B(  6-C ,  7-H ) :   0.9428 B(  6-C ,  8-H ) :   0.9489 B(  6-C ,  9-C ) :   1.0621
B(  9-C , 10-H ) :   0.9553 B(  9-C , 11-H ) :   0.9553 B(  9-C , 12-C ) :   1.0816
B( 12-C , 13-H ) :   0.9757 B( 12-C , 14-H ) :   0.9725 B( 12-C , 15-H ) :   0.9735
B( 16-S , 17-C ) :   1.1526 B( 16-S , 20-C ) :   1.1228 B( 17-C , 18-C ) :   1.6297
B( 17-C , 33-H ) :   0.9619 B( 18-C , 19-C ) :   1.2333 B( 18-C , 21-H ) :   0.9943
B( 19-C , 20-C ) :   1.6007 B( 19-C , 22-C ) :   1.0322 B( 22-C , 23-H ) :   0.9387
B( 22-C , 24-H ) :   0.9177 B( 22-C , 25-C ) :   1.0623 B( 25-C , 26-H ) :   0.9538
B( 25-C , 27-H ) :   0.9512 B( 25-C , 28-C ) :   1.0744 B( 28-C , 29-H ) :   0.9788
B( 28-C , 30-H ) :   0.9756 B( 28-C , 31-H ) :   0.9726

Dispersion correction           -0.014719308
FINAL SINGLE POINT ENERGY     -1339.860700859609

DIPOLE MOMENT
-------------
                                X             Y             Z
Electronic contribution:      5.35136       1.53298     -28.08943
Nuclear contribution   :     -5.40768      -1.79418      28.58479
                        -----------------------------------------
Total Dipole Moment    :     -0.05632      -0.26121       0.49536
                        -----------------------------------------
Magnitude (a.u.)       :      0.56283
Magnitude (Debye)      :      1.43060

Rotational constants in cm-1:     0.019295     0.009180     0.007162
Rotational constants in MHz :   578.445139   275.197564   214.725460

                             ****ORCA TERMINATED NORMALLY****
TOTAL RUN TIME: 0 days 0 hours 0 minutes 33 seconds 845 msec
