                         Program Version 4.2.1 -  RELEASE  -
|  1> ! wB97X-D3 SP def2-SVP
|  2> %pal
|  3> nprocs 16
|  4> end
|  5>
|  6> * xyz 0 1
|  7> S 	 41.1132 	 13.2755 	 86.3683
|  8> C 	 40.9173 	 14.7353 	 85.4982
|  9> C 	 40.5001 	 14.4176 	 84.1884
| 10> C 	 40.4564 	 12.9708 	 83.9391
| 11> C 	 40.8705 	 12.2531 	 85.0366
| 12> H 	 40.0662 	 12.438 	 83.0218
| 13> C 	 40.0965 	 15.3542 	 83.0916
| 14> H 	 40.2827 	 14.9201 	 82.0851
| 15> H 	 40.6751 	 16.3148 	 83.1237
| 16> C 	 38.5775 	 15.7913 	 83.0049
| 17> H 	 38.3724 	 16.433 	 83.9017
| 18> H 	 38.3907 	 16.4336 	 82.1769
| 19> C 	 37.4707 	 14.7513 	 82.9891
| 20> H 	 36.4261 	 15.1088 	 83.128
| 21> H 	 37.5616 	 14.1439 	 82.0924
| 22> H 	 37.6881 	 14.1748 	 83.8854
| 23> S 	 42.2175 	 10.1948 	 83.9095
| 24> C 	 42.2833 	 8.66935 	 84.6941
| 25> C 	 41.2581 	 8.56186 	 85.5621
| 26> C 	 40.686 	 9.78247 	 85.9792
| 27> C 	 41.1292 	 10.8158 	 85.1164
| 28> H 	 40.9297 	 7.65195 	 86.0176
| 29> C 	 39.6805 	 10.0377 	 87.0997
| 30> H 	 40.0683 	 10.8495 	 87.7779
| 31> H 	 39.5268 	 9.17533 	 87.6715
| 32> C 	 38.3666 	 10.6614 	 86.77
| 33> H 	 38.53 	 11.7256 	 86.487
| 34> H 	 37.7776 	 10.7063 	 87.7235
| 35> C 	 37.6303 	 10.0488 	 85.6323
| 36> H 	 37.2022 	 9.14859 	 85.979
| 37> H 	 38.1854 	 9.77021 	 84.8162
| 38> H 	 36.9044 	 10.6892 	 85.2113
| 39> H 	 41.2578 	 15.6843 	 85.805
| 40> H 	 42.6542 	 7.73404 	 84.4185
| 41> *
| 42>
| 43>                          ****END OF INPUT****

CARTESIAN COORDINATES (ANGSTROEM)
---------------------------------
  S     41.113200   13.275500   86.368300
  C     40.917300   14.735300   85.498200
  C     40.500100   14.417600   84.188400
  C     40.456400   12.970800   83.939100
  C     40.870500   12.253100   85.036600
  H     40.066200   12.438000   83.021800
  C     40.096500   15.354200   83.091600
  H     40.282700   14.920100   82.085100
  H     40.675100   16.314800   83.123700
  C     38.577500   15.791300   83.004900
  H     38.372400   16.433000   83.901700
  H     38.390700   16.433600   82.176900
  C     37.470700   14.751300   82.989100
  H     36.426100   15.108800   83.128000
  H     37.561600   14.143900   82.092400
  H     37.688100   14.174800   83.885400
  S     42.217500   10.194800   83.909500
  C     42.283300    8.669350   84.694100
  C     41.258100    8.561860   85.562100
  C     40.686000    9.782470   85.979200
  C     41.129200   10.815800   85.116400
  H     40.929700    7.651950   86.017600
  C     39.680500   10.037700   87.099700
  H     40.068300   10.849500   87.777900
  H     39.526800    9.175330   87.671500
  C     38.366600   10.661400   86.770000
  H     38.530000   11.725600   86.487000
  H     37.777600   10.706300   87.723500
  C     37.630300   10.048800   85.632300
  H     37.202200    9.148590   85.979000
  H     38.185400    9.770210   84.816200
  H     36.904400   10.689200   85.211300
  H     41.257800   15.684300   85.805000
  H     42.654200    7.734040   84.418500

 Total Charge           Charge          ....    0
 Multiplicity           Mult            ....    1
 Number of Electrons    NEL             ....  134
 Basis Dimension        Dim             ....  322

ORBITAL ENERGIES
----------------

  NO   OCC          E(Eh)            E(eV)
   0   2.0000     -88.969426     -2420.9811
   1   2.0000     -88.967910     -2420.9399
   2   2.0000     -10.328741      -281.0593
   3   2.0000     -10.327635      -281.0292
   4   2.0000     -10.315240      -280.6919
   5   2.0000     -10.310594      -280.5655
   6   2.0000     -10.305581      -280.4291
   7   2.0000     -10.304421      -280.3976
   8   2.0000     -10.301130      -280.3080
   9   2.0000     -10.300248      -280.2840
  10   2.0000     -10.287756      -279.9441
  11   2.0000     -10.287496      -279.9370
  12   2.0000     -10.285237      -279.8755
  13   2.0000     -10.278829      -279.7011
  14   2.0000     -10.274783      -279.5910
  15   2.0000     -10.251675      -278.9623
  16   2.0000      -8.084447      -219.9890
  17   2.0000      -8.083832      -219.9723
  18   2.0000      -6.043000      -164.4384
  19   2.0000      -6.042291      -164.4191
  20   2.0000      -6.038948      -164.3281
  21   2.0000      -6.037993      -164.3022
  22   2.0000      -6.035088      -164.2231
  23   2.0000      -6.034743      -164.2137
  24   2.0000      -1.016366       -27.6567
  25   2.0000      -0.994265       -27.0553
  26   2.0000      -0.917487       -24.9661
  27   2.0000      -0.906685       -24.6721
  28   2.0000      -0.875169       -23.8146
  29   2.0000      -0.852547       -23.1990
  30   2.0000      -0.846193       -23.0261
  31   2.0000      -0.819407       -22.2972
  32   2.0000      -0.790786       -21.5184
  33   2.0000      -0.777313       -21.1518
  34   2.0000      -0.709933       -19.3183
  35   2.0000      -0.697069       -18.9682
  36   2.0000      -0.686142       -18.6709
  37   2.0000      -0.664635       -18.0856
  38   2.0000      -0.642810       -17.4917
  39   2.0000      -0.609652       -16.5895
  40   2.0000      -0.596146       -16.2220
  41   2.0000      -0.576321       -15.6825
  42   2.0000      -0.560951       -15.2642
  43   2.0000      -0.556405       -15.1406
  44   2.0000      -0.541752       -14.7418
  45   2.0000      -0.539516       -14.6810
  46   2.0000      -0.520499       -14.1635
  47   2.0000      -0.518828       -14.1180
  48   2.0000      -0.501746       -13.6532
  49   2.0000      -0.499999       -13.6057
  50   2.0000      -0.489058       -13.3079
  51   2.0000      -0.488806       -13.3011
  52   2.0000      -0.476325       -12.9615
  53   2.0000      -0.471190       -12.8217
  54   2.0000      -0.461733       -12.5644
  55   2.0000      -0.446326       -12.1451
  56   2.0000      -0.442599       -12.0437
  57   2.0000      -0.431135       -11.7318
  58   2.0000      -0.430110       -11.7039
  59   2.0000      -0.426773       -11.6131
  60   2.0000      -0.415283       -11.3004
  61   2.0000      -0.408292       -11.1102
  62   2.0000      -0.402207       -10.9446
  63   2.0000      -0.350816        -9.5462
  64   2.0000      -0.330980        -9.0064
  65   2.0000      -0.326967        -8.8972
  66   2.0000      -0.292626        -7.9628
  67   0.0000       0.030522         0.8305
  68   0.0000       0.061054         1.6614
  69   0.0000       0.099692         2.7128
  70   0.0000       0.124075         3.3763
  71   0.0000       0.130393         3.5482

MULLIKEN ATOMIC CHARGES
-----------------------
   0 S :    0.121264
   1 C :   -0.093308
   2 C :   -0.094432
   3 C :   -0.007372
   4 C :   -0.151524
   5 H :    0.042615
   6 C :    0.039921
   7 H :    0.030472
   8 H :    0.037689
   9 C :   -0.091223
  10 H :    0.022918
  11 H :    0.022875
  12 C :   -0.061239
  13 H :    0.044345
  14 H :    0.029004
  15 H :    0.035864
  16 S :    0.130904
  17 C :   -0.025278
  18 C :   -0.060365
  19 C :   -0.043828
  20 C :   -0.167821
  21 H :    0.004218
  22 C :    0.091211
  23 H :    0.041702
  24 H :    0.002940
  25 C :   -0.107428
  26 H :    0.030340
  27 H :    0.035554
  28 C :    0.034240
  29 H :    0.005145
  30 H :    0.007779
  31 H :    0.017545
  32 H :    0.042156
  33 H :    0.033118
Sum of atomic charges:   -0.0000000

LOEWDIN ATOMIC CHARGES
----------------------
   0 S :    0.454437
   1 C :   -0.208691
   2 C :   -0.059822
   3 C :   -0.080157
   4 C :   -0.213859
   5 H :    0.043372
   6 C :   -0.039021
   7 H :    0.032011
   8 H :    0.038791
   9 C :   -0.043903
  10 H :    0.023680
  11 H :    0.015952
  12 C :   -0.072520
  13 H :    0.033398
  14 H :    0.020197
  15 H :    0.026250
  16 S :    0.440253
  17 C :   -0.198578
  18 C :   -0.064815
  19 C :   -0.054421
  20 C :   -0.199583
  21 H :    0.025594
  22 C :   -0.035501
  23 H :    0.043405
  24 H :    0.019357
  25 C :   -0.047265
  26 H :    0.020090
  27 H :    0.031850
  28 C :   -0.058057
  29 H :    0.019074
  30 H :    0.015988
  31 H :    0.023940
  32 H :    0.024279
  33 H :    0.024275

  Mayer bond orders larger than 0.100000
B(  0-S ,  1-C ) :   1.1471 B(  0-S ,  4-C ) :   1.1812 B(  1-C ,  2-C ) :   1.5768
B(  1-C , 32-H ) :   0.9792 B(  2-C ,  3-C ) :   1.2328 B(  2-C ,  6-C ) :   1.0387
B(  3-C ,  4-C ) :   1.5617 B(  3-C ,  5-H ) :   0.9863 B(  4-C , 20-C ) :   1.0128
B(  6-C ,  7-H ) :   0.9446 B(  6-C ,  8-H ) :   0.9415 B(  6-C ,  9-C ) :   1.0590
B(  9-C , 10-H ) :   0.9570 B(  9-C , 11-H ) :   0.9595 B(  9-C , 12-C ) :   1.0804
B( 12-C , 13-H ) :   0.9723 B( 12-C , 14-H ) :   0.9755 B( 12-C , 15-H ) :   0.9725
B( 16-S , 17-C ) :   1.1494 B( 16-S , 20-C ) :   1.1687 B( 17-C , 18-C ) :   1.6025
B( 17-C , 20-C ) :   0.1029 B( 17-C , 33-H ) :   0.9628 B( 18-C , 19-C ) :   1.2797
B( 18-C , 21-H ) :   0.9800 B( 19-C , 20-C ) :   1.5323 B( 19-C , 22-C ) :   1.0461
B( 22-C , 23-H ) :   0.9300 B( 22-C , 24-H ) :   0.9319 B( 22-C , 25-C ) :   1.0745
B( 25-C , 26-H ) :   0.9480 B( 25-C , 27-H ) :   0.9524 B( 25-C , 28-C ) :   1.0870
B( 28-C , 29-H ) :   0.9711 B( 28-C , 30-H ) :   0.9650 B( 28-C , 31-H ) :   0.9698

Dispersion correction           -0.015921834
FINAL SINGLE POINT ENERGY     -1339.854878569068

DIPOLE MOMENT
-------------
                                X             Y             Z
Electronic contribution:     22.08894      -6.65911       3.46573
Nuclear contribution   :    -22.44375       6.65155      -3.54934
                        -----------------------------------------
Total Dipole Moment    :     -0.35480      -0.00756      -0.08361
                        -----------------------------------------
Magnitude (a.u.)       :      0.36460
Magnitude (Debye)      :      0.92674

Rotational constants in cm-1:     0.020639     0.009108     0.008218
Rotational constants in MHz :   618.731630   273.044778   246.368651

                             ****ORCA TERMINATED NORMALLY****
TOTAL RUN TIME: 0 days 0 hours 0 minutes 30 seconds 321 msec
