                         Program Version 4.2.1 -  RELEASE  -
|  1> ! wB97X-D3 SP def2-SVP
|  2> %pal
|  3> nprocs 16
|  4> end
|  5>
|  6> * xyz 0 1
|  7> S 	 -24.1606 	 47.9195 	 62.3501
|  8> C 	 -22.9224 	 49.139 	 62.3972
|  9> C 	 -22.8929 	 49.8353 	 63.6197
| 10> C 	 -23.7287 	 49.2141 	 64.6075
| 11> C 	 -24.4316 	 48.1126 	 64.1075
| 12> H 	 -23.8113 	 49.5934 	 65.6099
| 13> C 	 -21.9112 	 50.9254 	 64.0148
| 14> H 	 -22.3859 	 51.9048 	 63.8693
| 15> H 	 -21.0589 	 50.7374 	 63.3505
| 16> C 	 -21.2558 	 50.8316 	 65.408
| 17> H 	 -20.9422 	 51.8744 	 65.6685
| 18> H 	 -22.0094 	 50.647 	 66.2227
| 19> C 	 -20.1814 	 49.834 	 65.5886
| 20> H 	 -19.2894 	 49.9937 	 64.9453
| 21> H 	 -19.8647 	 50.0146 	 66.5991
| 22> H 	 -20.4195 	 48.7899 	 65.5567
| 23> S 	 -27.0874 	 47.5889 	 64.2263
| 24> C 	 -27.777 	 46.8134 	 65.6662
| 25> C 	 -26.796 	 46.4789 	 66.5648
| 26> C 	 -25.5069 	 46.8724 	 66.1574
| 27> C 	 -25.4848 	 47.4074 	 64.8651
| 28> H 	 -27.0933 	 46.1369 	 67.5825
| 29> C 	 -24.2626 	 46.6535 	 67.009
| 30> H 	 -23.5617 	 47.3992 	 66.6593
| 31> H 	 -23.7836 	 45.7584 	 66.6925
| 32> C 	 -24.4585 	 46.684 	 68.5585
| 33> H 	 -23.4931 	 46.4928 	 69.0161
| 34> H 	 -25.1266 	 45.8575 	 68.8282
| 35> C 	 -25.2334 	 47.878 	 69.0261
| 36> H 	 -26.3222 	 47.7868 	 68.7643
| 37> H 	 -24.8464 	 48.7481 	 68.4209
| 38> H 	 -25.1638 	 48.011 	 70.0646
| 39> H 	 -22.403 	 49.6516 	 61.5092
| 40> H 	 -28.8859 	 46.6616 	 65.782
| 41> *
| 42>
| 43>                          ****END OF INPUT****

CARTESIAN COORDINATES (ANGSTROEM)
---------------------------------
  S    -24.160600   47.919500   62.350100
  C    -22.922400   49.139000   62.397200
  C    -22.892900   49.835300   63.619700
  C    -23.728700   49.214100   64.607500
  C    -24.431600   48.112600   64.107500
  H    -23.811300   49.593400   65.609900
  C    -21.911200   50.925400   64.014800
  H    -22.385900   51.904800   63.869300
  H    -21.058900   50.737400   63.350500
  C    -21.255800   50.831600   65.408000
  H    -20.942200   51.874400   65.668500
  H    -22.009400   50.647000   66.222700
  C    -20.181400   49.834000   65.588600
  H    -19.289400   49.993700   64.945300
  H    -19.864700   50.014600   66.599100
  H    -20.419500   48.789900   65.556700
  S    -27.087400   47.588900   64.226300
  C    -27.777000   46.813400   65.666200
  C    -26.796000   46.478900   66.564800
  C    -25.506900   46.872400   66.157400
  C    -25.484800   47.407400   64.865100
  H    -27.093300   46.136900   67.582500
  C    -24.262600   46.653500   67.009000
  H    -23.561700   47.399200   66.659300
  H    -23.783600   45.758400   66.692500
  C    -24.458500   46.684000   68.558500
  H    -23.493100   46.492800   69.016100
  H    -25.126600   45.857500   68.828200
  C    -25.233400   47.878000   69.026100
  H    -26.322200   47.786800   68.764300
  H    -24.846400   48.748100   68.420900
  H    -25.163800   48.011000   70.064600
  H    -22.403000   49.651600   61.509200
  H    -28.885900   46.661600   65.782000

 Total Charge           Charge          ....    0
 Multiplicity           Mult            ....    1
 Number of Electrons    NEL             ....  134
 Basis Dimension        Dim             ....  322

ORBITAL ENERGIES
----------------

  NO   OCC          E(Eh)            E(eV)
   0   2.0000     -88.972059     -2421.0528
   1   2.0000     -88.963791     -2420.8278
   2   2.0000     -10.334759      -281.2231
   3   2.0000     -10.325233      -280.9639
   4   2.0000     -10.321372      -280.8588
   5   2.0000     -10.319791      -280.8158
   6   2.0000     -10.302456      -280.3441
   7   2.0000     -10.301039      -280.3055
   8   2.0000     -10.295445      -280.1533
   9   2.0000     -10.294587      -280.1300
  10   2.0000     -10.293642      -280.1042
  11   2.0000     -10.293555      -280.1019
  12   2.0000     -10.287224      -279.9296
  13   2.0000     -10.286386      -279.9068
  14   2.0000     -10.277815      -279.6736
  15   2.0000     -10.274668      -279.5879
  16   2.0000      -8.085833      -220.0267
  17   2.0000      -8.078578      -219.8293
  18   2.0000      -6.044404      -164.4766
  19   2.0000      -6.040505      -164.3705
  20   2.0000      -6.037059      -164.2767
  21   2.0000      -6.036559      -164.2631
  22   2.0000      -6.033045      -164.1675
  23   2.0000      -6.029394      -164.0681
  24   2.0000      -1.003471       -27.3058
  25   2.0000      -0.980509       -26.6810
  26   2.0000      -0.914643       -24.8887
  27   2.0000      -0.910204       -24.7679
  28   2.0000      -0.868304       -23.6278
  29   2.0000      -0.852358       -23.1938
  30   2.0000      -0.846739       -23.0409
  31   2.0000      -0.814453       -22.1624
  32   2.0000      -0.784284       -21.3414
  33   2.0000      -0.770360       -20.9625
  34   2.0000      -0.706957       -19.2373
  35   2.0000      -0.695405       -18.9229
  36   2.0000      -0.687792       -18.7158
  37   2.0000      -0.655212       -17.8292
  38   2.0000      -0.628851       -17.1119
  39   2.0000      -0.623040       -16.9538
  40   2.0000      -0.596229       -16.2242
  41   2.0000      -0.563490       -15.3333
  42   2.0000      -0.562751       -15.3132
  43   2.0000      -0.558989       -15.2109
  44   2.0000      -0.537014       -14.6129
  45   2.0000      -0.536751       -14.6057
  46   2.0000      -0.522528       -14.2187
  47   2.0000      -0.507570       -13.8117
  48   2.0000      -0.497402       -13.5350
  49   2.0000      -0.492005       -13.3881
  50   2.0000      -0.488428       -13.2908
  51   2.0000      -0.487835       -13.2747
  52   2.0000      -0.470901       -12.8139
  53   2.0000      -0.463454       -12.6112
  54   2.0000      -0.455280       -12.3888
  55   2.0000      -0.449453       -12.2303
  56   2.0000      -0.444811       -12.1039
  57   2.0000      -0.441749       -12.0206
  58   2.0000      -0.438073       -11.9206
  59   2.0000      -0.422716       -11.5027
  60   2.0000      -0.418942       -11.4000
  61   2.0000      -0.411281       -11.1915
  62   2.0000      -0.407523       -11.0893
  63   2.0000      -0.347873        -9.4661
  64   2.0000      -0.331916        -9.0319
  65   2.0000      -0.325337        -8.8529
  66   2.0000      -0.289805        -7.8860
  67   0.0000       0.029653         0.8069
  68   0.0000       0.063714         1.7337
  69   0.0000       0.108717         2.9583
  70   0.0000       0.120428         3.2770
  71   0.0000       0.128056         3.4846

MULLIKEN ATOMIC CHARGES
-----------------------
   0 S :    0.121512
   1 C :   -0.132042
   2 C :   -0.127818
   3 C :    0.046911
   4 C :   -0.166351
   5 H :    0.012499
   6 C :    0.077809
   7 H :    0.048210
   8 H :    0.022043
   9 C :   -0.116189
  10 H :    0.029934
  11 H :    0.022520
  12 C :   -0.025330
  13 H :    0.033522
  14 H :    0.023164
  15 H :    0.040816
  16 S :    0.100915
  17 C :   -0.124748
  18 C :   -0.040600
  19 C :   -0.078358
  20 C :   -0.138326
  21 H :    0.035581
  22 C :    0.103487
  23 H :    0.005052
  24 H :    0.032601
  25 C :   -0.074422
  26 H :    0.034825
  27 H :    0.023491
  28 C :   -0.045724
  29 H :    0.037738
  30 H :    0.031327
  31 H :    0.031854
  32 H :    0.077683
  33 H :    0.076412
Sum of atomic charges:    0.0000000

LOEWDIN ATOMIC CHARGES
----------------------
   0 S :    0.402666
   1 C :   -0.225129
   2 C :   -0.067339
   3 C :   -0.056028
   4 C :   -0.188195
   5 H :    0.027461
   6 C :   -0.037400
   7 H :    0.036295
   8 H :    0.034075
   9 C :   -0.049475
  10 H :    0.031434
  11 H :    0.023879
  12 C :   -0.066995
  13 H :    0.027930
  14 H :    0.029895
  15 H :    0.026277
  16 S :    0.404576
  17 C :   -0.184981
  18 C :   -0.080765
  19 C :   -0.058923
  20 C :   -0.204508
  21 H :    0.038796
  22 C :   -0.029902
  23 H :    0.026518
  24 H :    0.032353
  25 C :   -0.042242
  26 H :    0.026671
  27 H :    0.022340
  28 C :   -0.065760
  29 H :    0.031661
  30 H :    0.028816
  31 H :    0.018881
  32 H :    0.047689
  33 H :    0.039428

  Mayer bond orders larger than 0.100000
B(  0-S ,  1-C ) :   1.1371 B(  0-S ,  4-C ) :   1.1497 B(  1-C ,  2-C ) :   1.6197
B(  1-C , 32-H ) :   0.9478 B(  2-C ,  3-C ) :   1.2654 B(  2-C ,  6-C ) :   1.0080
B(  3-C ,  4-C ) :   1.5527 B(  3-C ,  5-H ) :   0.9857 B(  4-C , 20-C ) :   1.0239
B(  6-C ,  7-H ) :   0.9316 B(  6-C ,  8-H ) :   0.9491 B(  6-C ,  9-C ) :   1.0789
B(  9-C , 10-H ) :   0.9505 B(  9-C , 11-H ) :   0.9488 B(  9-C , 12-C ) :   1.0891
B( 12-C , 13-H ) :   0.9690 B( 12-C , 14-H ) :   0.9670 B( 12-C , 15-H ) :   0.9731
B( 16-S , 17-C ) :   1.1587 B( 16-S , 20-C ) :   1.1585 B( 17-C , 18-C ) :   1.5992
B( 17-C , 20-C ) :   0.1017 B( 17-C , 33-H ) :   0.9602 B( 18-C , 19-C ) :   1.2568
B( 18-C , 21-H ) :   0.9780 B( 19-C , 20-C ) :   1.5906 B( 19-C , 22-C ) :   1.0220
B( 22-C , 23-H ) :   0.9255 B( 22-C , 24-H ) :   0.9312 B( 22-C , 25-C ) :   1.0780
B( 25-C , 26-H ) :   0.9560 B( 25-C , 27-H ) :   0.9481 B( 25-C , 28-C ) :   1.0799
B( 28-C , 29-H ) :   0.9644 B( 28-C , 30-H ) :   0.9761 B( 28-C , 31-H ) :   0.9715

Dispersion correction           -0.014863041
FINAL SINGLE POINT ENERGY     -1339.870784996973

DIPOLE MOMENT
-------------
                                X             Y             Z
Electronic contribution:    -17.50678      -7.46461     -22.58423
Nuclear contribution   :     17.81677       7.79272      23.23271
                        -----------------------------------------
Total Dipole Moment    :      0.30999       0.32811       0.64848
                        -----------------------------------------
Magnitude (a.u.)       :      0.79011
Magnitude (Debye)      :      2.00830

Rotational constants in cm-1:     0.017406     0.010130     0.007053
Rotational constants in MHz :   521.805829   303.678979   211.438497

                             ****ORCA TERMINATED NORMALLY****
TOTAL RUN TIME: 0 days 0 hours 0 minutes 36 seconds 925 msec
