                         Program Version 4.2.1 -  RELEASE  -
|  1> ! wB97X-D3 SP def2-SVP
|  2> %pal
|  3> nprocs 16
|  4> end
|  5>
|  6> * xyz 0 1
|  7> S 	 -47.68 	 64.2262 	 131.474
|  8> C 	 -47.7187 	 62.4985 	 131.359
|  9> C 	 -47.7664 	 61.8825 	 132.643
| 10> C 	 -47.6712 	 62.9048 	 133.655
| 11> C 	 -47.7752 	 64.233 	 133.19
| 12> H 	 -47.766 	 62.8467 	 134.772
| 13> C 	 -47.8585 	 60.39 	 132.942
| 14> H 	 -48.89 	 60.1179 	 132.587
| 15> H 	 -47.9429 	 60.3036 	 134.033
| 16> C 	 -46.7898 	 59.4285 	 132.351
| 17> H 	 -47.1436 	 58.4093 	 132.3
| 18> H 	 -46.7288 	 59.7004 	 131.321
| 19> C 	 -45.3465 	 59.5724 	 132.937
| 20> H 	 -45.3283 	 59.0128 	 133.869
| 21> H 	 -44.5029 	 59.275 	 132.281
| 22> H 	 -45.1239 	 60.5988 	 133.205
| 23> S 	 -46.2952 	 66.4728 	 133.783
| 24> C 	 -46.9117 	 67.5892 	 134.979
| 25> C 	 -47.9268 	 67.0531 	 135.717
| 26> C 	 -48.3613 	 65.841 	 135.112
| 27> C 	 -47.6459 	 65.4068 	 134.025
| 28> H 	 -48.3942 	 67.6528 	 136.489
| 29> C 	 -49.65 	 65.2085 	 135.585
| 30> H 	 -49.8155 	 64.2435 	 135.112
| 31> H 	 -50.5203 	 65.8113 	 135.255
| 32> C 	 -49.7817 	 64.87 	 137.085
| 33> H 	 -50.1275 	 65.7943 	 137.614
| 34> H 	 -48.7846 	 64.5913 	 137.413
| 35> C 	 -50.7434 	 63.7604 	 137.418
| 36> H 	 -50.5497 	 62.8144 	 136.865
| 37> H 	 -51.7382 	 64.0501 	 137.071
| 38> H 	 -50.8314 	 63.5562 	 138.503
| 39> H 	 -47.5864 	 61.9809 	 130.491
| 40> H 	 -46.4377 	 68.5869 	 135.142
| 41> *
| 42>
| 43>                          ****END OF INPUT****

CARTESIAN COORDINATES (ANGSTROEM)
---------------------------------
  S    -47.680000   64.226200  131.474000
  C    -47.718700   62.498500  131.359000
  C    -47.766400   61.882500  132.643000
  C    -47.671200   62.904800  133.655000
  C    -47.775200   64.233000  133.190000
  H    -47.766000   62.846700  134.772000
  C    -47.858500   60.390000  132.942000
  H    -48.890000   60.117900  132.587000
  H    -47.942900   60.303600  134.033000
  C    -46.789800   59.428500  132.351000
  H    -47.143600   58.409300  132.300000
  H    -46.728800   59.700400  131.321000
  C    -45.346500   59.572400  132.937000
  H    -45.328300   59.012800  133.869000
  H    -44.502900   59.275000  132.281000
  H    -45.123900   60.598800  133.205000
  S    -46.295200   66.472800  133.783000
  C    -46.911700   67.589200  134.979000
  C    -47.926800   67.053100  135.717000
  C    -48.361300   65.841000  135.112000
  C    -47.645900   65.406800  134.025000
  H    -48.394200   67.652800  136.489000
  C    -49.650000   65.208500  135.585000
  H    -49.815500   64.243500  135.112000
  H    -50.520300   65.811300  135.255000
  C    -49.781700   64.870000  137.085000
  H    -50.127500   65.794300  137.614000
  H    -48.784600   64.591300  137.413000
  C    -50.743400   63.760400  137.418000
  H    -50.549700   62.814400  136.865000
  H    -51.738200   64.050100  137.071000
  H    -50.831400   63.556200  138.503000
  H    -47.586400   61.980900  130.491000
  H    -46.437700   68.586900  135.142000

 Total Charge           Charge          ....    0
 Multiplicity           Mult            ....    1
 Number of Electrons    NEL             ....  134
 Basis Dimension        Dim             ....  322

ORBITAL ENERGIES
----------------

  NO   OCC          E(Eh)            E(eV)
   0   2.0000     -88.970305     -2421.0051
   1   2.0000     -88.962052     -2420.7805
   2   2.0000     -10.326857      -281.0081
   3   2.0000     -10.322975      -280.9024
   4   2.0000     -10.319434      -280.8061
   5   2.0000     -10.312564      -280.6191
   6   2.0000     -10.310880      -280.5733
   7   2.0000     -10.301458      -280.3169
   8   2.0000     -10.301167      -280.3090
   9   2.0000     -10.300181      -280.2822
  10   2.0000     -10.293136      -280.0905
  11   2.0000     -10.289984      -280.0047
  12   2.0000     -10.286225      -279.9024
  13   2.0000     -10.286174      -279.9010
  14   2.0000     -10.281128      -279.7637
  15   2.0000     -10.279343      -279.7151
  16   2.0000      -8.085341      -220.0133
  17   2.0000      -8.077521      -219.8005
  18   2.0000      -6.043670      -164.4566
  19   2.0000      -6.039593      -164.3457
  20   2.0000      -6.036505      -164.2617
  21   2.0000      -6.035946      -164.2465
  22   2.0000      -6.031998      -164.1390
  23   2.0000      -6.028241      -164.0368
  24   2.0000      -1.010799       -27.5052
  25   2.0000      -0.986942       -26.8561
  26   2.0000      -0.908777       -24.7291
  27   2.0000      -0.906780       -24.6747
  28   2.0000      -0.871172       -23.7058
  29   2.0000      -0.852161       -23.1885
  30   2.0000      -0.845385       -23.0041
  31   2.0000      -0.813446       -22.1350
  32   2.0000      -0.781928       -21.2773
  33   2.0000      -0.770626       -20.9698
  34   2.0000      -0.712065       -19.3763
  35   2.0000      -0.701249       -19.0820
  36   2.0000      -0.692697       -18.8493
  37   2.0000      -0.658778       -17.9263
  38   2.0000      -0.643990       -17.5239
  39   2.0000      -0.608894       -16.5689
  40   2.0000      -0.594655       -16.1814
  41   2.0000      -0.574112       -15.6224
  42   2.0000      -0.568008       -15.4563
  43   2.0000      -0.546807       -14.8794
  44   2.0000      -0.544790       -14.8245
  45   2.0000      -0.521233       -14.1835
  46   2.0000      -0.516472       -14.0539
  47   2.0000      -0.513262       -13.9666
  48   2.0000      -0.504221       -13.7206
  49   2.0000      -0.498327       -13.5602
  50   2.0000      -0.482736       -13.1359
  51   2.0000      -0.481014       -13.0891
  52   2.0000      -0.471111       -12.8196
  53   2.0000      -0.467120       -12.7110
  54   2.0000      -0.463156       -12.6031
  55   2.0000      -0.452372       -12.3097
  56   2.0000      -0.441272       -12.0076
  57   2.0000      -0.435023       -11.8376
  58   2.0000      -0.431313       -11.7366
  59   2.0000      -0.425754       -11.5854
  60   2.0000      -0.418783       -11.3957
  61   2.0000      -0.414811       -11.2876
  62   2.0000      -0.412100       -11.2138
  63   2.0000      -0.344364        -9.3706
  64   2.0000      -0.329885        -8.9766
  65   2.0000      -0.329675        -8.9709
  66   2.0000      -0.295463        -8.0399
  67   0.0000       0.028649         0.7796
  68   0.0000       0.069917         1.9025
  69   0.0000       0.115321         3.1380
  70   0.0000       0.119958         3.2642
  71   0.0000       0.125417         3.4128

MULLIKEN ATOMIC CHARGES
-----------------------
   0 S :    0.131422
   1 C :   -0.089179
   2 C :   -0.103710
   3 C :    0.022589
   4 C :   -0.194708
   5 H :    0.030933
   6 C :    0.051907
   7 H :    0.046857
   8 H :    0.019534
   9 C :   -0.038422
  10 H :    0.030163
  11 H :    0.011600
  12 C :   -0.061449
  13 H :    0.032029
  14 H :    0.044694
  15 H :    0.034620
  16 S :    0.104870
  17 C :   -0.117420
  18 C :   -0.010738
  19 C :   -0.043602
  20 C :   -0.134409
  21 H :    0.027311
  22 C :    0.048718
  23 H :    0.004777
  24 H :    0.040557
  25 C :   -0.082498
  26 H :    0.034164
  27 H :    0.028667
  28 C :   -0.059971
  29 H :    0.033726
  30 H :    0.021144
  31 H :    0.045341
  32 H :    0.017621
  33 H :    0.072862
Sum of atomic charges:   -0.0000000

LOEWDIN ATOMIC CHARGES
----------------------
   0 S :    0.443074
   1 C :   -0.192531
   2 C :   -0.060546
   3 C :   -0.066928
   4 C :   -0.219182
   5 H :    0.037283
   6 C :   -0.035176
   7 H :    0.043571
   8 H :    0.028018
   9 C :   -0.039230
  10 H :    0.025126
  11 H :    0.018482
  12 C :   -0.068132
  13 H :    0.024796
  14 H :    0.031886
  15 H :    0.027068
  16 S :    0.404667
  17 C :   -0.178717
  18 C :   -0.072240
  19 C :   -0.058480
  20 C :   -0.206531
  21 H :    0.037200
  22 C :   -0.037248
  23 H :    0.023289
  24 H :    0.034849
  25 C :   -0.045783
  26 H :    0.026307
  27 H :    0.021214
  28 C :   -0.070427
  29 H :    0.026202
  30 H :    0.023300
  31 H :    0.031826
  32 H :    0.006762
  33 H :    0.036234

  Mayer bond orders larger than 0.100000
B(  0-S ,  1-C ) :   1.1756 B(  0-S ,  4-C ) :   1.1713 B(  1-C ,  2-C ) :   1.5397
B(  1-C ,  4-C ) :   0.1067 B(  1-C , 32-H ) :   0.9830 B(  2-C ,  3-C ) :   1.2833
B(  2-C ,  6-C ) :   1.0134 B(  3-C ,  4-C ) :   1.5322 B(  3-C ,  5-H ) :   0.9766
B(  4-C , 20-C ) :   1.0456 B(  6-C ,  7-H ) :   0.9352 B(  6-C ,  8-H ) :   0.9471
B(  6-C ,  9-C ) :   1.0656 B(  9-C , 10-H ) :   0.9580 B(  9-C , 11-H ) :   0.9575
B(  9-C , 12-C ) :   1.0593 B( 12-C , 13-H ) :   0.9778 B( 12-C , 14-H ) :   0.9775
B( 12-C , 15-H ) :   0.9786 B( 16-S , 17-C ) :   1.1626 B( 16-S , 20-C ) :   1.1318
B( 17-C , 18-C ) :   1.6154 B( 17-C , 33-H ) :   0.9602 B( 18-C , 19-C ) :   1.2166
B( 18-C , 21-H ) :   0.9974 B( 19-C , 20-C ) :   1.6198 B( 19-C , 22-C ) :   1.0594
B( 22-C , 23-H ) :   0.9350 B( 22-C , 24-H ) :   0.9307 B( 22-C , 25-C ) :   1.0490
B( 25-C , 26-H ) :   0.9476 B( 25-C , 27-H ) :   0.9610 B( 25-C , 28-C ) :   1.1002
B( 28-C , 29-H ) :   0.9707 B( 28-C , 30-H ) :   0.9709 B( 28-C , 31-H ) :   0.9731

Dispersion correction           -0.014020110
FINAL SINGLE POINT ENERGY     -1339.880583496591

DIPOLE MOMENT
-------------
                                X             Y             Z
Electronic contribution:      7.87658      20.97881     -13.97563
Nuclear contribution   :     -8.13010     -21.28437      14.29582
                        -----------------------------------------
Total Dipole Moment    :     -0.25352      -0.30556       0.32018
                        -----------------------------------------
Magnitude (a.u.)       :      0.51006
Magnitude (Debye)      :      1.29646

Rotational constants in cm-1:     0.017714     0.008430     0.006618
Rotational constants in MHz :   531.052916   252.731039   198.402426

                             ****ORCA TERMINATED NORMALLY****
TOTAL RUN TIME: 0 days 0 hours 0 minutes 35 seconds 148 msec
