                         Program Version 4.2.1 -  RELEASE  -
|  1> ! wB97X-D3 SP def2-SVP
|  2> %pal
|  3> nprocs 16
|  4> end
|  5>
|  6> * xyz 0 1
|  7> S 	 -11.4186 	 -9.15632 	 77.7477
|  8> C 	 -10.9621 	 -10.8544 	 77.3427
|  9> C 	 -11.033 	 -11.1365 	 76.014
| 10> C 	 -11.442 	 -9.95958 	 75.2557
| 11> C 	 -11.5072 	 -8.79867 	 76.0207
| 12> H 	 -11.6754 	 -9.91511 	 74.1648
| 13> C 	 -10.6328 	 -12.4554 	 75.425
| 14> H 	 -10.9965 	 -12.5874 	 74.4001
| 15> H 	 -11.1421 	 -13.1611 	 76.0843
| 16> C 	 -9.1276 	 -12.8752 	 75.4705
| 17> H 	 -8.52892 	 -12.219 	 74.7732
| 18> H 	 -8.78881 	 -12.7733 	 76.4741
| 19> C 	 -8.99905 	 -14.3524 	 75.0872
| 20> H 	 -9.00861 	 -14.3588 	 73.9797
| 21> H 	 -8.0675 	 -14.8289 	 75.4062
| 22> H 	 -9.78486 	 -14.9524 	 75.5266
| 23> S 	 -12.6434 	 -6.46395 	 76.6189
| 24> C 	 -13.0165 	 -5.31924 	 75.4357
| 25> C 	 -12.471 	 -5.66439 	 74.2246
| 26> C 	 -11.7071 	 -6.8449 	 74.1954
| 27> C 	 -11.8673 	 -7.48011 	 75.4785
| 28> H 	 -12.5605 	 -4.99742 	 73.353
| 29> C 	 -11.1991 	 -7.3722 	 72.9009
| 30> H 	 -11.5393 	 -6.71541 	 72.1705
| 31> H 	 -11.7627 	 -8.19179 	 72.6016
| 32> C 	 -9.66589 	 -7.53743 	 72.8562
| 33> H 	 -9.21088 	 -8.14673 	 73.7577
| 34> H 	 -9.11251 	 -6.53074 	 72.8925
| 35> C 	 -9.21702 	 -8.32417 	 71.6113
| 36> H 	 -10.0878 	 -8.35374 	 70.9215
| 37> H 	 -8.99977 	 -9.31978 	 71.7309
| 38> H 	 -8.48513 	 -7.76722 	 71.0719
| 39> H 	 -10.6352 	 -11.5138 	 78.1042
| 40> H 	 -13.5145 	 -4.38404 	 75.6243
| 41> *
| 42>
| 43>                          ****END OF INPUT****

CARTESIAN COORDINATES (ANGSTROEM)
---------------------------------
  S    -11.418600   -9.156320   77.747700
  C    -10.962100  -10.854400   77.342700
  C    -11.033000  -11.136500   76.014000
  C    -11.442000   -9.959580   75.255700
  C    -11.507200   -8.798670   76.020700
  H    -11.675400   -9.915110   74.164800
  C    -10.632800  -12.455400   75.425000
  H    -10.996500  -12.587400   74.400100
  H    -11.142100  -13.161100   76.084300
  C     -9.127600  -12.875200   75.470500
  H     -8.528920  -12.219000   74.773200
  H     -8.788810  -12.773300   76.474100
  C     -8.999050  -14.352400   75.087200
  H     -9.008610  -14.358800   73.979700
  H     -8.067500  -14.828900   75.406200
  H     -9.784860  -14.952400   75.526600
  S    -12.643400   -6.463950   76.618900
  C    -13.016500   -5.319240   75.435700
  C    -12.471000   -5.664390   74.224600
  C    -11.707100   -6.844900   74.195400
  C    -11.867300   -7.480110   75.478500
  H    -12.560500   -4.997420   73.353000
  C    -11.199100   -7.372200   72.900900
  H    -11.539300   -6.715410   72.170500
  H    -11.762700   -8.191790   72.601600
  C     -9.665890   -7.537430   72.856200
  H     -9.210880   -8.146730   73.757700
  H     -9.112510   -6.530740   72.892500
  C     -9.217020   -8.324170   71.611300
  H    -10.087800   -8.353740   70.921500
  H     -8.999770   -9.319780   71.730900
  H     -8.485130   -7.767220   71.071900
  H    -10.635200  -11.513800   78.104200
  H    -13.514500   -4.384040   75.624300

 Total Charge           Charge          ....    0
 Multiplicity           Mult            ....    1
 Number of Electrons    NEL             ....  134
 Basis Dimension        Dim             ....  322

ORBITAL ENERGIES
----------------

  NO   OCC          E(Eh)            E(eV)
   0   2.0000     -88.966326     -2420.8968
   1   2.0000     -88.965248     -2420.8675
   2   2.0000     -10.331701      -281.1399
   3   2.0000     -10.328344      -281.0485
   4   2.0000     -10.311401      -280.5875
   5   2.0000     -10.307824      -280.4902
   6   2.0000     -10.302804      -280.3535
   7   2.0000     -10.302296      -280.3397
   8   2.0000     -10.299366      -280.2600
   9   2.0000     -10.297388      -280.2062
  10   2.0000     -10.294016      -280.1144
  11   2.0000     -10.291059      -280.0340
  12   2.0000     -10.288998      -279.9779
  13   2.0000     -10.285317      -279.8777
  14   2.0000     -10.281010      -279.7605
  15   2.0000     -10.269501      -279.4473
  16   2.0000      -8.082924      -219.9475
  17   2.0000      -8.079045      -219.8420
  18   2.0000      -6.041109      -164.3869
  19   2.0000      -6.037799      -164.2969
  20   2.0000      -6.037095      -164.2777
  21   2.0000      -6.034015      -164.1939
  22   2.0000      -6.033963      -164.1925
  23   2.0000      -6.029344      -164.0668
  24   2.0000      -1.011095       -27.5133
  25   2.0000      -0.981441       -26.7064
  26   2.0000      -0.915598       -24.9147
  27   2.0000      -0.911562       -24.8049
  28   2.0000      -0.869544       -23.6615
  29   2.0000      -0.856455       -23.3053
  30   2.0000      -0.842684       -22.9306
  31   2.0000      -0.812524       -22.1099
  32   2.0000      -0.786046       -21.3894
  33   2.0000      -0.770829       -20.9753
  34   2.0000      -0.705736       -19.2041
  35   2.0000      -0.701212       -19.0810
  36   2.0000      -0.692201       -18.8357
  37   2.0000      -0.663676       -18.0595
  38   2.0000      -0.634316       -17.2606
  39   2.0000      -0.617185       -16.7945
  40   2.0000      -0.601235       -16.3604
  41   2.0000      -0.578080       -15.7303
  42   2.0000      -0.560852       -15.2616
  43   2.0000      -0.555627       -15.1194
  44   2.0000      -0.530109       -14.4250
  45   2.0000      -0.518402       -14.1064
  46   2.0000      -0.515948       -14.0397
  47   2.0000      -0.512800       -13.9540
  48   2.0000      -0.511519       -13.9191
  49   2.0000      -0.499008       -13.5787
  50   2.0000      -0.495264       -13.4768
  51   2.0000      -0.489093       -13.3089
  52   2.0000      -0.475439       -12.9373
  53   2.0000      -0.461941       -12.5700
  54   2.0000      -0.457100       -12.4383
  55   2.0000      -0.449885       -12.2420
  56   2.0000      -0.437187       -11.8965
  57   2.0000      -0.434634       -11.8270
  58   2.0000      -0.434297       -11.8178
  59   2.0000      -0.426621       -11.6090
  60   2.0000      -0.425168       -11.5694
  61   2.0000      -0.420550       -11.4437
  62   2.0000      -0.408652       -11.1200
  63   2.0000      -0.354090        -9.6353
  64   2.0000      -0.336541        -9.1578
  65   2.0000      -0.325756        -8.8643
  66   2.0000      -0.278916        -7.5897
  67   0.0000       0.020309         0.5526
  68   0.0000       0.082813         2.2534
  69   0.0000       0.093012         2.5310
  70   0.0000       0.124064         3.3760
  71   0.0000       0.129917         3.5352

MULLIKEN ATOMIC CHARGES
-----------------------
   0 S :    0.083983
   1 C :   -0.124549
   2 C :   -0.035989
   3 C :   -0.033295
   4 C :   -0.087976
   5 H :    0.022968
   6 C :    0.039960
   7 H :    0.022978
   8 H :    0.027381
   9 C :   -0.059251
  10 H :    0.043053
  11 H :    0.017886
  12 C :   -0.054698
  13 H :    0.036061
  14 H :    0.035882
  15 H :    0.029343
  16 S :    0.115790
  17 C :   -0.075250
  18 C :   -0.061676
  19 C :   -0.031733
  20 C :   -0.168550
  21 H :    0.020568
  22 C :    0.123531
  23 H :   -0.012979
  24 H :    0.016407
  25 C :   -0.146003
  26 H :    0.061543
  27 H :    0.048285
  28 C :   -0.001413
  29 H :    0.010331
  30 H :    0.024360
  31 H :    0.028504
  32 H :    0.034246
  33 H :    0.050303
Sum of atomic charges:   -0.0000000

LOEWDIN ATOMIC CHARGES
----------------------
   0 S :    0.359196
   1 C :   -0.170971
   2 C :   -0.059688
   3 C :   -0.072664
   4 C :   -0.182839
   5 H :    0.036293
   6 C :   -0.033883
   7 H :    0.029106
   8 H :    0.033935
   9 C :   -0.033746
  10 H :    0.029952
  11 H :    0.015495
  12 C :   -0.067075
  13 H :    0.029249
  14 H :    0.026994
  15 H :    0.022920
  16 S :    0.454476
  17 C :   -0.212867
  18 C :   -0.075464
  19 C :   -0.053996
  20 C :   -0.199461
  21 H :    0.032090
  22 C :   -0.032190
  23 H :    0.026753
  24 H :    0.024251
  25 C :   -0.047775
  26 H :    0.038988
  27 H :    0.034772
  28 C :   -0.063218
  29 H :    0.026168
  30 H :    0.013762
  31 H :    0.025098
  32 H :    0.018079
  33 H :    0.028261

  Mayer bond orders larger than 0.100000
B(  0-S ,  1-C ) :   1.1004 B(  0-S ,  4-C ) :   1.1300 B(  1-C ,  2-C ) :   1.6500
B(  1-C , 32-H ) :   0.9742 B(  2-C ,  3-C ) :   1.1965 B(  2-C ,  6-C ) :   1.0236
B(  3-C ,  4-C ) :   1.5919 B(  3-C ,  5-H ) :   0.9879 B(  4-C , 20-C ) :   1.0794
B(  6-C ,  7-H ) :   0.9459 B(  6-C ,  8-H ) :   0.9343 B(  6-C ,  9-C ) :   1.0646
B(  9-C , 10-H ) :   0.9586 B(  9-C , 11-H ) :   0.9557 B(  9-C , 12-C ) :   1.0744
B( 12-C , 13-H ) :   0.9780 B( 12-C , 14-H ) :   0.9752 B( 12-C , 15-H ) :   0.9746
B( 16-S , 17-C ) :   1.1755 B( 16-S , 20-C ) :   1.1898 B( 17-C , 18-C ) :   1.5624
B( 17-C , 20-C ) :   0.1015 B( 17-C , 33-H ) :   0.9714 B( 18-C , 19-C ) :   1.3093
B( 18-C , 21-H ) :   0.9808 B( 19-C , 20-C ) :   1.4836 B( 19-C , 22-C ) :   1.0443
B( 22-C , 23-H ) :   0.9085 B( 22-C , 24-H ) :   0.9303 B( 22-C , 25-C ) :   1.0447
B( 25-C , 26-H ) :   0.9670 B( 25-C , 27-H ) :   0.9598 B( 25-C , 28-C ) :   1.0572
B( 28-C , 29-H ) :   0.9730 B( 28-C , 30-H ) :   0.9783 B( 28-C , 31-H ) :   0.9751

Dispersion correction           -0.013739060
FINAL SINGLE POINT ENERGY     -1339.860528183528

DIPOLE MOMENT
-------------
                                X             Y             Z
Electronic contribution:    -15.67986      18.80341      21.51655
Nuclear contribution   :     15.84454     -19.08678     -22.13512
                        -----------------------------------------
Total Dipole Moment    :      0.16467      -0.28337      -0.61857
                        -----------------------------------------
Magnitude (a.u.)       :      0.70004
Magnitude (Debye)      :      1.77935

Rotational constants in cm-1:     0.018753     0.008752     0.006245
Rotational constants in MHz :   562.214545   262.385539   187.215346

                             ****ORCA TERMINATED NORMALLY****
TOTAL RUN TIME: 0 days 0 hours 0 minutes 34 seconds 122 msec
