                         Program Version 4.2.1 -  RELEASE  -
|  1> ! wB97X-D3 SP def2-SVP
|  2> %pal
|  3> nprocs 16
|  4> end
|  5>
|  6> * xyz 0 1
|  7> S 	 -7.73826 	 44.4015 	 40.4776
|  8> C 	 -6.49591 	 43.5023 	 39.7305
|  9> C 	 -6.25915 	 42.3593 	 40.3973
| 10> C 	 -7.09948 	 42.1153 	 41.5078
| 11> C 	 -7.86721 	 43.2478 	 41.7959
| 12> H 	 -7.19618 	 41.2352 	 42.0706
| 13> C 	 -5.33656 	 41.2651 	 39.9103
| 14> H 	 -5.472 	 41.2672 	 38.8522
| 15> H 	 -5.5378 	 40.2472 	 40.2299
| 16> C 	 -3.89461 	 41.6168 	 40.3005
| 17> H 	 -3.82563 	 41.6527 	 41.4119
| 18> H 	 -3.26042 	 40.7559 	 40.0689
| 19> C 	 -3.20371 	 42.944 	 39.7655
| 20> H 	 -3.78668 	 43.8351 	 40.0413
| 21> H 	 -2.28706 	 42.8187 	 40.1952
| 22> H 	 -3.19934 	 42.9075 	 38.6732
| 23> S 	 -10.5949 	 43.7548 	 42.2264
| 24> C 	 -11.2255 	 43.7156 	 43.8851
| 25> C 	 -10.1244 	 43.588 	 44.7951
| 26> C 	 -8.83226 	 43.2974 	 44.1638
| 27> C 	 -8.93124 	 43.4124 	 42.749
| 28> H 	 -10.325 	 43.495 	 45.875
| 29> C 	 -7.61462 	 43.1056 	 45.0683
| 30> H 	 -7.27934 	 42.0659 	 45.0824
| 31> H 	 -7.88722 	 43.3314 	 46.1215
| 32> C 	 -6.46643 	 44.0736 	 44.6294
| 33> H 	 -6.87671 	 45.1843 	 44.7325
| 34> H 	 -6.31697 	 43.8835 	 43.5149
| 35> C 	 -5.13787 	 43.7921 	 45.3247
| 36> H 	 -4.86458 	 42.7406 	 45.2204
| 37> H 	 -5.07335 	 43.9307 	 46.4052
| 38> H 	 -4.32424 	 44.3673 	 44.882
| 39> H 	 -5.80086 	 43.7878 	 38.9229
| 40> H 	 -12.2494 	 43.8646 	 44.1606
| 41> *
| 42>
| 43>                          ****END OF INPUT****

CARTESIAN COORDINATES (ANGSTROEM)
---------------------------------
  S     -7.738260   44.401500   40.477600
  C     -6.495910   43.502300   39.730500
  C     -6.259150   42.359300   40.397300
  C     -7.099480   42.115300   41.507800
  C     -7.867210   43.247800   41.795900
  H     -7.196180   41.235200   42.070600
  C     -5.336560   41.265100   39.910300
  H     -5.472000   41.267200   38.852200
  H     -5.537800   40.247200   40.229900
  C     -3.894610   41.616800   40.300500
  H     -3.825630   41.652700   41.411900
  H     -3.260420   40.755900   40.068900
  C     -3.203710   42.944000   39.765500
  H     -3.786680   43.835100   40.041300
  H     -2.287060   42.818700   40.195200
  H     -3.199340   42.907500   38.673200
  S    -10.594900   43.754800   42.226400
  C    -11.225500   43.715600   43.885100
  C    -10.124400   43.588000   44.795100
  C     -8.832260   43.297400   44.163800
  C     -8.931240   43.412400   42.749000
  H    -10.325000   43.495000   45.875000
  C     -7.614620   43.105600   45.068300
  H     -7.279340   42.065900   45.082400
  H     -7.887220   43.331400   46.121500
  C     -6.466430   44.073600   44.629400
  H     -6.876710   45.184300   44.732500
  H     -6.316970   43.883500   43.514900
  C     -5.137870   43.792100   45.324700
  H     -4.864580   42.740600   45.220400
  H     -5.073350   43.930700   46.405200
  H     -4.324240   44.367300   44.882000
  H     -5.800860   43.787800   38.922900
  H    -12.249400   43.864600   44.160600

 Total Charge           Charge          ....    0
 Multiplicity           Mult            ....    1
 Number of Electrons    NEL             ....  134
 Basis Dimension        Dim             ....  322

ORBITAL ENERGIES
----------------

  NO   OCC          E(Eh)            E(eV)
   0   2.0000     -88.970125     -2421.0002
   1   2.0000     -88.967267     -2420.9224
   2   2.0000     -10.331846      -281.1438
   3   2.0000     -10.329922      -281.0915
   4   2.0000     -10.324835      -280.9530
   5   2.0000     -10.311737      -280.5966
   6   2.0000     -10.307803      -280.4896
   7   2.0000     -10.303540      -280.3736
   8   2.0000     -10.297482      -280.2087
   9   2.0000     -10.295403      -280.1522
  10   2.0000     -10.292622      -280.0765
  11   2.0000     -10.291973      -280.0588
  12   2.0000     -10.289688      -279.9966
  13   2.0000     -10.286750      -279.9167
  14   2.0000     -10.277559      -279.6666
  15   2.0000     -10.275216      -279.6028
  16   2.0000      -8.083515      -219.9636
  17   2.0000      -8.082511      -219.9363
  18   2.0000      -6.042187      -164.4163
  19   2.0000      -6.040974      -164.3833
  20   2.0000      -6.038113      -164.3054
  21   2.0000      -6.036885      -164.2720
  22   2.0000      -6.034276      -164.2010
  23   2.0000      -6.033350      -164.1758
  24   2.0000      -1.010214       -27.4893
  25   2.0000      -0.976714       -26.5777
  26   2.0000      -0.911008       -24.7898
  27   2.0000      -0.900083       -24.4925
  28   2.0000      -0.866673       -23.5834
  29   2.0000      -0.850575       -23.1453
  30   2.0000      -0.842483       -22.9251
  31   2.0000      -0.810982       -22.0680
  32   2.0000      -0.786088       -21.3905
  33   2.0000      -0.772349       -21.0167
  34   2.0000      -0.710345       -19.3295
  35   2.0000      -0.693797       -18.8792
  36   2.0000      -0.683034       -18.5863
  37   2.0000      -0.660088       -17.9619
  38   2.0000      -0.642523       -17.4839
  39   2.0000      -0.617828       -16.8120
  40   2.0000      -0.590698       -16.0737
  41   2.0000      -0.572350       -15.5744
  42   2.0000      -0.555813       -15.1244
  43   2.0000      -0.547038       -14.8856
  44   2.0000      -0.541393       -14.7320
  45   2.0000      -0.524167       -14.2633
  46   2.0000      -0.518198       -14.1009
  47   2.0000      -0.511954       -13.9310
  48   2.0000      -0.501473       -13.6458
  49   2.0000      -0.500265       -13.6129
  50   2.0000      -0.492195       -13.3933
  51   2.0000      -0.488117       -13.2823
  52   2.0000      -0.474775       -12.9193
  53   2.0000      -0.465178       -12.6581
  54   2.0000      -0.456763       -12.4292
  55   2.0000      -0.445752       -12.1295
  56   2.0000      -0.442240       -12.0340
  57   2.0000      -0.435054       -11.8384
  58   2.0000      -0.426734       -11.6120
  59   2.0000      -0.421149       -11.4600
  60   2.0000      -0.420732       -11.4487
  61   2.0000      -0.408492       -11.1156
  62   2.0000      -0.407900       -11.0995
  63   2.0000      -0.345207        -9.3936
  64   2.0000      -0.331568        -9.0224
  65   2.0000      -0.328629        -8.9425
  66   2.0000      -0.288720        -7.8565
  67   0.0000       0.025241         0.6868
  68   0.0000       0.061118         1.6631
  69   0.0000       0.110419         3.0046
  70   0.0000       0.122991         3.3468
  71   0.0000       0.125437         3.4133

MULLIKEN ATOMIC CHARGES
-----------------------
   0 S :    0.116637
   1 C :   -0.114353
   2 C :   -0.101490
   3 C :    0.055173
   4 C :   -0.199429
   5 H :   -0.001748
   6 C :    0.102526
   7 H :    0.018061
   8 H :    0.021810
   9 C :   -0.130850
  10 H :    0.024942
  11 H :    0.024632
  12 C :   -0.025045
  13 H :    0.050322
  14 H :    0.030276
  15 H :    0.030174
  16 S :    0.117655
  17 C :   -0.106119
  18 C :   -0.044410
  19 C :   -0.040062
  20 C :   -0.137622
  21 H :    0.035508
  22 C :    0.076719
  23 H :    0.031002
  24 H :    0.026690
  25 C :   -0.159690
  26 H :    0.056329
  27 H :    0.071529
  28 C :   -0.022726
  29 H :    0.017067
  30 H :    0.026032
  31 H :    0.035314
  32 H :    0.053824
  33 H :    0.061321
Sum of atomic charges:   -0.0000000

LOEWDIN ATOMIC CHARGES
----------------------
   0 S :    0.425816
   1 C :   -0.220037
   2 C :   -0.066519
   3 C :   -0.048624
   4 C :   -0.190573
   5 H :    0.025693
   6 C :   -0.029663
   7 H :    0.024870
   8 H :    0.031505
   9 C :   -0.041697
  10 H :    0.023741
  11 H :    0.019607
  12 C :   -0.055903
  13 H :    0.027913
  14 H :    0.018311
  15 H :    0.023007
  16 S :    0.394415
  17 C :   -0.183560
  18 C :   -0.071167
  19 C :   -0.050880
  20 C :   -0.203155
  21 H :    0.032740
  22 C :   -0.034181
  23 H :    0.029469
  24 H :    0.032162
  25 C :   -0.054341
  26 H :    0.037925
  27 H :    0.035983
  28 C :   -0.074130
  29 H :    0.024397
  30 H :    0.022402
  31 H :    0.028604
  32 H :    0.038180
  33 H :    0.027692

  Mayer bond orders larger than 0.100000
B(  0-S ,  1-C ) :   1.1361 B(  0-S ,  4-C ) :   1.1600 B(  1-C ,  2-C ) :   1.6233
B(  1-C , 32-H ) :   0.9528 B(  2-C ,  3-C ) :   1.2522 B(  2-C ,  6-C ) :   1.0084
B(  3-C ,  4-C ) :   1.5366 B(  3-C ,  5-H ) :   1.0084 B(  4-C , 20-C ) :   1.0630
B(  6-C ,  7-H ) :   0.9434 B(  6-C ,  8-H ) :   0.9457 B(  6-C ,  9-C ) :   1.0698
B(  9-C , 10-H ) :   0.9552 B(  9-C , 11-H ) :   0.9583 B(  9-C , 12-C ) :   1.0673
B( 12-C , 13-H ) :   0.9699 B( 12-C , 14-H ) :   0.9738 B( 12-C , 15-H ) :   0.9773
B( 16-S , 17-C ) :   1.1502 B( 16-S , 20-C ) :   1.1388 B( 17-C , 18-C ) :   1.5938
B( 17-C , 20-C ) :   0.1064 B( 17-C , 33-H ) :   0.9721 B( 18-C , 19-C ) :   1.2612
B( 18-C , 21-H ) :   0.9769 B( 19-C , 20-C ) :   1.5620 B( 19-C , 22-C ) :   1.0390
B( 22-C , 23-H ) :   0.9294 B( 22-C , 24-H ) :   0.9414 B( 22-C , 25-C ) :   1.0502
B( 25-C , 26-H ) :   0.9547 B( 25-C , 27-H ) :   0.9488 B( 25-C , 28-C ) :   1.0777
B( 28-C , 29-H ) :   0.9697 B( 28-C , 30-H ) :   0.9743 B( 28-C , 31-H ) :   0.9730

Dispersion correction           -0.015106483
FINAL SINGLE POINT ENERGY     -1339.865215961137

DIPOLE MOMENT
-------------
                                X             Y             Z
Electronic contribution:    -27.22239       6.57281      -6.82179
Nuclear contribution   :     27.64553      -7.02557       7.07322
                        -----------------------------------------
Total Dipole Moment    :      0.42314      -0.45275       0.25143
                        -----------------------------------------
Magnitude (a.u.)       :      0.66877
Magnitude (Debye)      :      1.69987

Rotational constants in cm-1:     0.020632     0.009194     0.007177
Rotational constants in MHz :   618.530163   275.618202   215.173349

                             ****ORCA TERMINATED NORMALLY****
TOTAL RUN TIME: 0 days 0 hours 0 minutes 34 seconds 41 msec
