                         Program Version 4.2.1 -  RELEASE  -
|  1> ! wB97X-D3 SP def2-SVP
|  2> %pal
|  3> nprocs 16
|  4> end
|  5>
|  6> * xyz 0 1
|  7> S 	 60.5425 	 19.5779 	 75.1652
|  8> C 	 60.5738 	 19.9878 	 73.5063
|  9> C 	 59.7446 	 19.1529 	 72.7748
| 10> C 	 58.9882 	 18.2364 	 73.5901
| 11> C 	 59.2951 	 18.4333 	 74.9158
| 12> H 	 58.2728 	 17.4666 	 73.1745
| 13> C 	 59.5577 	 19.2066 	 71.2889
| 14> H 	 59.9736 	 20.142 	 70.9441
| 15> H 	 58.4854 	 19.3758 	 70.9803
| 16> C 	 60.1693 	 18.1283 	 70.3938
| 17> H 	 59.6623 	 17.1517 	 70.454
| 18> H 	 59.8597 	 18.308 	 69.3646
| 19> C 	 61.6512 	 17.9113 	 70.5945
| 20> H 	 61.847 	 17.2918 	 71.4497
| 21> H 	 62.1542 	 17.4377 	 69.7436
| 22> H 	 62.2066 	 18.8228 	 70.7885
| 23> S 	 59.7283 	 17.074 	 77.2449
| 24> C 	 58.4703 	 16.6397 	 78.3473
| 25> C 	 57.2712 	 16.9368 	 77.8133
| 26> C 	 57.29 	 17.5192 	 76.5096
| 27> C 	 58.6228 	 17.7971 	 76.0753
| 28> H 	 56.3312 	 16.6912 	 78.2758
| 29> C 	 56.1436 	 17.9154 	 75.6302
| 30> H 	 56.3166 	 17.2742 	 74.7496
| 31> H 	 56.3075 	 18.9927 	 75.4147
| 32> C 	 54.7507 	 17.7132 	 76.0791
| 33> H 	 54.5814 	 16.6478 	 76.3123
| 34> H 	 54.1637 	 18.0476 	 75.2735
| 35> C 	 54.29 	 18.659 	 77.2373
| 36> H 	 54.2649 	 19.6372 	 76.7109
| 37> H 	 54.9867 	 18.7627 	 78.0057
| 38> H 	 53.3217 	 18.4681 	 77.8481
| 39> H 	 61.1601 	 20.7787 	 73.0811
| 40> H 	 58.5921 	 15.9761 	 79.1573
| 41> *
| 42>
| 43>                          ****END OF INPUT****

CARTESIAN COORDINATES (ANGSTROEM)
---------------------------------
  S     60.542500   19.577900   75.165200
  C     60.573800   19.987800   73.506300
  C     59.744600   19.152900   72.774800
  C     58.988200   18.236400   73.590100
  C     59.295100   18.433300   74.915800
  H     58.272800   17.466600   73.174500
  C     59.557700   19.206600   71.288900
  H     59.973600   20.142000   70.944100
  H     58.485400   19.375800   70.980300
  C     60.169300   18.128300   70.393800
  H     59.662300   17.151700   70.454000
  H     59.859700   18.308000   69.364600
  C     61.651200   17.911300   70.594500
  H     61.847000   17.291800   71.449700
  H     62.154200   17.437700   69.743600
  H     62.206600   18.822800   70.788500
  S     59.728300   17.074000   77.244900
  C     58.470300   16.639700   78.347300
  C     57.271200   16.936800   77.813300
  C     57.290000   17.519200   76.509600
  C     58.622800   17.797100   76.075300
  H     56.331200   16.691200   78.275800
  C     56.143600   17.915400   75.630200
  H     56.316600   17.274200   74.749600
  H     56.307500   18.992700   75.414700
  C     54.750700   17.713200   76.079100
  H     54.581400   16.647800   76.312300
  H     54.163700   18.047600   75.273500
  C     54.290000   18.659000   77.237300
  H     54.264900   19.637200   76.710900
  H     54.986700   18.762700   78.005700
  H     53.321700   18.468100   77.848100
  H     61.160100   20.778700   73.081100
  H     58.592100   15.976100   79.157300

 Total Charge           Charge          ....    0
 Multiplicity           Mult            ....    1
 Number of Electrons    NEL             ....  134
 Basis Dimension        Dim             ....  322

ORBITAL ENERGIES
----------------

  NO   OCC          E(Eh)            E(eV)
   0   2.0000     -88.968715     -2420.9618
   1   2.0000     -88.959400     -2420.7083
   2   2.0000     -10.330464      -281.1062
   3   2.0000     -10.328032      -281.0400
   4   2.0000     -10.311650      -280.5943
   5   2.0000     -10.308166      -280.4995
   6   2.0000     -10.304738      -280.4062
   7   2.0000     -10.300959      -280.3033
   8   2.0000     -10.299050      -280.2514
   9   2.0000     -10.292051      -280.0609
  10   2.0000     -10.291046      -280.0336
  11   2.0000     -10.289136      -279.9816
  12   2.0000     -10.286088      -279.8987
  13   2.0000     -10.284932      -279.8672
  14   2.0000     -10.281882      -279.7842
  15   2.0000     -10.271480      -279.5012
  16   2.0000      -8.084838      -219.9996
  17   2.0000      -8.074527      -219.7190
  18   2.0000      -6.043199      -164.4438
  19   2.0000      -6.039142      -164.3334
  20   2.0000      -6.035648      -164.2383
  21   2.0000      -6.032968      -164.1654
  22   2.0000      -6.028812      -164.0523
  23   2.0000      -6.025505      -163.9623
  24   2.0000      -1.012216       -27.5438
  25   2.0000      -0.988675       -26.9032
  26   2.0000      -0.918434       -24.9919
  27   2.0000      -0.912797       -24.8385
  28   2.0000      -0.870141       -23.6777
  29   2.0000      -0.852648       -23.2017
  30   2.0000      -0.842769       -22.9329
  31   2.0000      -0.818140       -22.2627
  32   2.0000      -0.784933       -21.3591
  33   2.0000      -0.774668       -21.0798
  34   2.0000      -0.711881       -19.3713
  35   2.0000      -0.700660       -19.0659
  36   2.0000      -0.695907       -18.9366
  37   2.0000      -0.652229       -17.7481
  38   2.0000      -0.641081       -17.4447
  39   2.0000      -0.622173       -16.9302
  40   2.0000      -0.599958       -16.3257
  41   2.0000      -0.568475       -15.4690
  42   2.0000      -0.565156       -15.3787
  43   2.0000      -0.553111       -15.0509
  44   2.0000      -0.539239       -14.6734
  45   2.0000      -0.536182       -14.5903
  46   2.0000      -0.519981       -14.1494
  47   2.0000      -0.510337       -13.8870
  48   2.0000      -0.501390       -13.6435
  49   2.0000      -0.499467       -13.5912
  50   2.0000      -0.494157       -13.4467
  51   2.0000      -0.482772       -13.1369
  52   2.0000      -0.476061       -12.9543
  53   2.0000      -0.466734       -12.7005
  54   2.0000      -0.455486       -12.3944
  55   2.0000      -0.450667       -12.2633
  56   2.0000      -0.439889       -11.9700
  57   2.0000      -0.437220       -11.8974
  58   2.0000      -0.429308       -11.6821
  59   2.0000      -0.427507       -11.6331
  60   2.0000      -0.425668       -11.5830
  61   2.0000      -0.410943       -11.1823
  62   2.0000      -0.403155       -10.9704
  63   2.0000      -0.350166        -9.5285
  64   2.0000      -0.331931        -9.0323
  65   2.0000      -0.326149        -8.8750
  66   2.0000      -0.289876        -7.8879
  67   0.0000       0.031850         0.8667
  68   0.0000       0.069761         1.8983
  69   0.0000       0.118066         3.2127
  70   0.0000       0.121105         3.2954
  71   0.0000       0.135672         3.6918

MULLIKEN ATOMIC CHARGES
-----------------------
   0 S :    0.138692
   1 C :   -0.114061
   2 C :   -0.086900
   3 C :    0.007276
   4 C :   -0.135028
   5 H :    0.043775
   6 C :    0.044311
   7 H :    0.003803
   8 H :    0.034545
   9 C :   -0.055678
  10 H :    0.016616
  11 H :    0.016932
  12 C :   -0.036715
  13 H :    0.037365
  14 H :    0.033310
  15 H :    0.017708
  16 S :    0.085390
  17 C :   -0.050248
  18 C :   -0.038825
  19 C :   -0.052936
  20 C :   -0.177641
  21 H :    0.010759
  22 C :    0.030796
  23 H :    0.045922
  24 H :    0.048265
  25 C :   -0.029441
  26 H :    0.033456
  27 H :    0.024948
  28 C :   -0.084684
  29 H :    0.028656
  30 H :    0.018312
  31 H :    0.052996
  32 H :    0.042763
  33 H :    0.045560
Sum of atomic charges:    0.0000000

LOEWDIN ATOMIC CHARGES
----------------------
   0 S :    0.446098
   1 C :   -0.209367
   2 C :   -0.064963
   3 C :   -0.066893
   4 C :   -0.209893
   5 H :    0.045236
   6 C :   -0.040272
   7 H :    0.025928
   8 H :    0.038002
   9 C :   -0.048717
  10 H :    0.023490
  11 H :    0.025090
  12 C :   -0.066984
  13 H :    0.027768
  14 H :    0.029623
  15 H :    0.021570
  16 S :    0.405883
  17 C :   -0.188905
  18 C :   -0.077453
  19 C :   -0.056550
  20 C :   -0.194747
  21 H :    0.028566
  22 C :   -0.039700
  23 H :    0.041344
  24 H :    0.042129
  25 C :   -0.042144
  26 H :    0.024320
  27 H :    0.025761
  28 C :   -0.075889
  29 H :    0.030576
  30 H :    0.009595
  31 H :    0.039595
  32 H :    0.026639
  33 H :    0.025263

  Mayer bond orders larger than 0.100000
B(  0-S ,  1-C ) :   1.1435 B(  0-S ,  4-C ) :   1.1799 B(  1-C ,  2-C ) :   1.5960
B(  1-C , 32-H ) :   0.9701 B(  2-C ,  3-C ) :   1.2395 B(  2-C ,  6-C ) :   1.0343
B(  3-C ,  4-C ) :   1.5540 B(  3-C ,  5-H ) :   0.9909 B(  4-C , 20-C ) :   1.0113
B(  6-C ,  7-H ) :   0.9357 B(  6-C ,  8-H ) :   0.9390 B(  6-C ,  9-C ) :   1.0798
B(  9-C , 10-H ) :   0.9510 B(  9-C , 11-H ) :   0.9523 B(  9-C , 12-C ) :   1.0678
B( 12-C , 13-H ) :   0.9714 B( 12-C , 14-H ) :   0.9732 B( 12-C , 15-H ) :   0.9783
B( 16-S , 17-C ) :   1.1589 B( 16-S , 20-C ) :   1.1656 B( 17-C , 18-C ) :   1.5765
B( 17-C , 20-C ) :   0.1067 B( 17-C , 33-H ) :   0.9691 B( 18-C , 19-C ) :   1.2826
B( 18-C , 21-H ) :   0.9849 B( 19-C , 20-C ) :   1.5597 B( 19-C , 22-C ) :   1.0163
B( 22-C , 23-H ) :   0.9256 B( 22-C , 24-H ) :   0.9323 B( 22-C , 25-C ) :   1.1057
B( 25-C , 26-H ) :   0.9493 B( 25-C , 27-H ) :   0.9525 B( 25-C , 28-C ) :   1.0500
B( 28-C , 29-H ) :   0.9744 B( 28-C , 30-H ) :   0.9825 B( 28-C , 31-H ) :   0.9763

Dispersion correction           -0.014243374
FINAL SINGLE POINT ENERGY     -1339.871902293006

DIPOLE MOMENT
-------------
                                X             Y             Z
Electronic contribution:     14.06856       0.30313      16.44518
Nuclear contribution   :    -14.53144      -0.38047     -16.93415
                        -----------------------------------------
Total Dipole Moment    :     -0.46288      -0.07734      -0.48897
                        -----------------------------------------
Magnitude (a.u.)       :      0.67774
Magnitude (Debye)      :      1.72268

Rotational constants in cm-1:     0.021591     0.007685     0.006490
Rotational constants in MHz :   647.280933   230.383447   194.561294

                             ****ORCA TERMINATED NORMALLY****
TOTAL RUN TIME: 0 days 0 hours 0 minutes 30 seconds 90 msec
