                         Program Version 4.2.1 -  RELEASE  -
|  1> ! wB97X-D3 SP def2-SVP
|  2> %pal
|  3> nprocs 16
|  4> end
|  5>
|  6> * xyz 0 1
|  7> S 	 3.24289 	 -20.8775 	 54.6308
|  8> C 	 1.77603 	 -21.7551 	 54.1545
|  9> C 	 2.11988 	 -22.9428 	 53.5562
| 10> C 	 3.58359 	 -23.1521 	 53.6036
| 11> C 	 4.34199 	 -22.1327 	 54.0806
| 12> H 	 4.08984 	 -24.0203 	 53.2096
| 13> C 	 1.145 	 -23.8344 	 52.7882
| 14> H 	 1.65537 	 -24.0897 	 51.8683
| 15> H 	 0.267207 	 -23.3848 	 52.4123
| 16> C 	 0.672383 	 -25.14 	 53.4359
| 17> H 	 0.420864 	 -25.9234 	 52.7557
| 18> H 	 1.47072 	 -25.5679 	 54.0385
| 19> C 	 -0.717286 	 -25.0766 	 54.2222
| 20> H 	 -1.55982 	 -24.62 	 53.6367
| 21> H 	 -0.957094 	 -26.1309 	 54.3871
| 22> H 	 -0.636304 	 -24.5678 	 55.1933
| 23> S 	 6.49742 	 -22.3817 	 52.4302
| 24> C 	 8.09205 	 -21.8424 	 52.9072
| 25> C 	 8.0236 	 -21.1639 	 54.1457
| 26> C 	 6.73749 	 -21.3224 	 54.7476
| 27> C 	 5.76665 	 -22.0086 	 53.9585
| 28> H 	 8.82351 	 -20.7198 	 54.6738
| 29> C 	 6.42603 	 -20.6568 	 56.0801
| 30> H 	 5.34504 	 -20.6245 	 56.2781
| 31> H 	 6.65784 	 -19.5574 	 56.0761
| 32> C 	 7.05334 	 -21.2971 	 57.3898
| 33> H 	 6.52502 	 -20.8633 	 58.3227
| 34> H 	 8.05819 	 -21.0089 	 57.4281
| 35> C 	 6.91648 	 -22.8182 	 57.4731
| 36> H 	 5.93952 	 -23.2743 	 57.4549
| 37> H 	 7.26355 	 -23.2363 	 58.4283
| 38> H 	 7.61992 	 -23.3112 	 56.8072
| 39> H 	 0.804096 	 -21.4202 	 54.2179
| 40> H 	 8.97587 	 -22.0403 	 52.3545
| 41> *
| 42>
| 43>                          ****END OF INPUT****

CARTESIAN COORDINATES (ANGSTROEM)
---------------------------------
  S      3.242890  -20.877500   54.630800
  C      1.776030  -21.755100   54.154500
  C      2.119880  -22.942800   53.556200
  C      3.583590  -23.152100   53.603600
  C      4.341990  -22.132700   54.080600
  H      4.089840  -24.020300   53.209600
  C      1.145000  -23.834400   52.788200
  H      1.655370  -24.089700   51.868300
  H      0.267207  -23.384800   52.412300
  C      0.672383  -25.140000   53.435900
  H      0.420864  -25.923400   52.755700
  H      1.470720  -25.567900   54.038500
  C     -0.717286  -25.076600   54.222200
  H     -1.559820  -24.620000   53.636700
  H     -0.957094  -26.130900   54.387100
  H     -0.636304  -24.567800   55.193300
  S      6.497420  -22.381700   52.430200
  C      8.092050  -21.842400   52.907200
  C      8.023600  -21.163900   54.145700
  C      6.737490  -21.322400   54.747600
  C      5.766650  -22.008600   53.958500
  H      8.823510  -20.719800   54.673800
  C      6.426030  -20.656800   56.080100
  H      5.345040  -20.624500   56.278100
  H      6.657840  -19.557400   56.076100
  C      7.053340  -21.297100   57.389800
  H      6.525020  -20.863300   58.322700
  H      8.058190  -21.008900   57.428100
  C      6.916480  -22.818200   57.473100
  H      5.939520  -23.274300   57.454900
  H      7.263550  -23.236300   58.428300
  H      7.619920  -23.311200   56.807200
  H      0.804096  -21.420200   54.217900
  H      8.975870  -22.040300   52.354500

 Total Charge           Charge          ....    0
 Multiplicity           Mult            ....    1
 Number of Electrons    NEL             ....  134
 Basis Dimension        Dim             ....  322

ORBITAL ENERGIES
----------------

  NO   OCC          E(Eh)            E(eV)
   0   2.0000     -88.970344     -2421.0061
   1   2.0000     -88.963138     -2420.8100
   2   2.0000     -10.330452      -281.1059
   3   2.0000     -10.329841      -281.0893
   4   2.0000     -10.324097      -280.9330
   5   2.0000     -10.312699      -280.6228
   6   2.0000     -10.308573      -280.5105
   7   2.0000     -10.308154      -280.4991
   8   2.0000     -10.298755      -280.2434
   9   2.0000     -10.295296      -280.1493
  10   2.0000     -10.293233      -280.0931
  11   2.0000     -10.290153      -280.0093
  12   2.0000     -10.289917      -280.0029
  13   2.0000     -10.286379      -279.9066
  14   2.0000     -10.284378      -279.8521
  15   2.0000     -10.269706      -279.4529
  16   2.0000      -8.084899      -220.0013
  17   2.0000      -8.077185      -219.7914
  18   2.0000      -6.043417      -164.4497
  19   2.0000      -6.039200      -164.3350
  20   2.0000      -6.035995      -164.2478
  21   2.0000      -6.035890      -164.2449
  22   2.0000      -6.031751      -164.1323
  23   2.0000      -6.027666      -164.0211
  24   2.0000      -1.006815       -27.3968
  25   2.0000      -0.981671       -26.7126
  26   2.0000      -0.907211       -24.6865
  27   2.0000      -0.898559       -24.4510
  28   2.0000      -0.873962       -23.7817
  29   2.0000      -0.846972       -23.0473
  30   2.0000      -0.836963       -22.7749
  31   2.0000      -0.816186       -22.2095
  32   2.0000      -0.782547       -21.2942
  33   2.0000      -0.773948       -21.0602
  34   2.0000      -0.710229       -19.3263
  35   2.0000      -0.699946       -19.0465
  36   2.0000      -0.692505       -18.8440
  37   2.0000      -0.669805       -18.2263
  38   2.0000      -0.640124       -17.4187
  39   2.0000      -0.618786       -16.8380
  40   2.0000      -0.597651       -16.2629
  41   2.0000      -0.576351       -15.6833
  42   2.0000      -0.551111       -14.9965
  43   2.0000      -0.547806       -14.9066
  44   2.0000      -0.535145       -14.5620
  45   2.0000      -0.533032       -14.5045
  46   2.0000      -0.520461       -14.1625
  47   2.0000      -0.513324       -13.9683
  48   2.0000      -0.505011       -13.7421
  49   2.0000      -0.500996       -13.6328
  50   2.0000      -0.485632       -13.2147
  51   2.0000      -0.475420       -12.9368
  52   2.0000      -0.468788       -12.7564
  53   2.0000      -0.467161       -12.7121
  54   2.0000      -0.465622       -12.6702
  55   2.0000      -0.445782       -12.1303
  56   2.0000      -0.442231       -12.0337
  57   2.0000      -0.433937       -11.8080
  58   2.0000      -0.430277       -11.7084
  59   2.0000      -0.422995       -11.5103
  60   2.0000      -0.415591       -11.3088
  61   2.0000      -0.409117       -11.1326
  62   2.0000      -0.401032       -10.9126
  63   2.0000      -0.353092        -9.6081
  64   2.0000      -0.331597        -9.0232
  65   2.0000      -0.325335        -8.8528
  66   2.0000      -0.292994        -7.9728
  67   0.0000       0.021595         0.5876
  68   0.0000       0.073736         2.0064
  69   0.0000       0.106245         2.8911
  70   0.0000       0.114720         3.1217
  71   0.0000       0.126132         3.4322

MULLIKEN ATOMIC CHARGES
-----------------------
   0 S :    0.089112
   1 C :   -0.079164
   2 C :   -0.077177
   3 C :   -0.004976
   4 C :   -0.098513
   5 H :    0.008594
   6 C :    0.103048
   7 H :    0.024892
   8 H :    0.002940
   9 C :   -0.076098
  10 H :    0.020639
  11 H :    0.028757
  12 C :   -0.092875
  13 H :    0.040182
  14 H :    0.035512
  15 H :    0.044131
  16 S :    0.114205
  17 C :   -0.091175
  18 C :    0.004185
  19 C :   -0.054655
  20 C :   -0.132739
  21 H :    0.011186
  22 C :    0.011914
  23 H :    0.021097
  24 H :    0.043807
  25 C :   -0.066062
  26 H :    0.041681
  27 H :    0.016843
  28 C :   -0.047356
  29 H :    0.035641
  30 H :    0.014357
  31 H :    0.031860
  32 H :    0.018936
  33 H :    0.057272
Sum of atomic charges:    0.0000000

LOEWDIN ATOMIC CHARGES
----------------------
   0 S :    0.391685
   1 C :   -0.169083
   2 C :   -0.055929
   3 C :   -0.065838
   4 C :   -0.190817
   5 H :    0.025452
   6 C :   -0.032838
   7 H :    0.036612
   8 H :    0.024794
   9 C :   -0.039814
  10 H :    0.021722
  11 H :    0.024667
  12 C :   -0.071554
  13 H :    0.027657
  14 H :    0.026645
  15 H :    0.023498
  16 S :    0.432813
  17 C :   -0.178465
  18 C :   -0.059787
  19 C :   -0.053871
  20 C :   -0.207375
  21 H :    0.026766
  22 C :   -0.047613
  23 H :    0.018211
  24 H :    0.038002
  25 C :   -0.035800
  26 H :    0.034985
  27 H :    0.011370
  28 C :   -0.076284
  29 H :    0.026766
  30 H :    0.027140
  31 H :    0.026212
  32 H :    0.015782
  33 H :    0.024287

  Mayer bond orders larger than 0.100000
B(  0-S ,  1-C ) :   1.1219 B(  0-S ,  4-C ) :   1.1083 B(  1-C ,  2-C ) :   1.6399
B(  1-C , 32-H ) :   0.9810 B(  2-C ,  3-C ) :   1.1942 B(  2-C ,  6-C ) :   1.0230
B(  3-C ,  4-C ) :   1.5968 B(  3-C ,  5-H ) :   0.9988 B(  4-C , 20-C ) :   1.0888
B(  6-C ,  7-H ) :   0.9362 B(  6-C ,  8-H ) :   0.9472 B(  6-C ,  9-C ) :   1.0635
B(  9-C , 10-H ) :   0.9601 B(  9-C , 11-H ) :   0.9590 B(  9-C , 12-C ) :   1.0698
B( 12-C , 13-H ) :   0.9752 B( 12-C , 14-H ) :   0.9795 B( 12-C , 15-H ) :   0.9797
B( 16-S , 17-C ) :   1.1835 B( 16-S , 20-C ) :   1.1503 B( 17-C , 18-C ) :   1.5258
B( 17-C , 20-C ) :   0.1085 B( 17-C , 33-H ) :   0.9761 B( 18-C , 19-C ) :   1.3002
B( 18-C , 21-H ) :   0.9964 B( 19-C , 20-C ) :   1.5113 B( 19-C , 22-C ) :   1.0459
B( 22-C , 23-H ) :   0.9359 B( 22-C , 24-H ) :   0.9451 B( 22-C , 25-C ) :   1.0540
B( 25-C , 26-H ) :   0.9602 B( 25-C , 27-H ) :   0.9597 B( 25-C , 28-C ) :   1.0820
B( 28-C , 29-H ) :   0.9772 B( 28-C , 30-H ) :   0.9689 B( 28-C , 31-H ) :   0.9691

Dispersion correction           -0.014137085
FINAL SINGLE POINT ENERGY     -1339.865677009167

DIPOLE MOMENT
-------------
                                X             Y             Z
Electronic contribution:      9.66939      11.59749     -12.06979
Nuclear contribution   :     -9.66896     -11.83372      12.03880
                        -----------------------------------------
Total Dipole Moment    :      0.00043      -0.23622      -0.03099
                        -----------------------------------------
Magnitude (a.u.)       :      0.23825
Magnitude (Debye)      :      0.60558

Rotational constants in cm-1:     0.022404     0.007358     0.006550
Rotational constants in MHz :   671.643401   220.583203   196.357817

                             ****ORCA TERMINATED NORMALLY****
TOTAL RUN TIME: 0 days 0 hours 0 minutes 32 seconds 205 msec
