                         Program Version 4.2.1 -  RELEASE  -
|  1> ! wB97X-D3 SP def2-SVP
|  2> %pal
|  3> nprocs 16
|  4> end
|  5>
|  6> * xyz 0 1
|  7> S 	 -78.221 	 49.1088 	 138.567
|  8> C 	 -79.6594 	 48.85 	 139.401
|  9> C 	 -80.2827 	 50.0662 	 139.707
| 10> C 	 -79.5377 	 51.2283 	 139.196
| 11> C 	 -78.4433 	 50.8114 	 138.48
| 12> H 	 -79.792 	 52.2898 	 139.314
| 13> C 	 -81.7225 	 50.2227 	 140.149
| 14> H 	 -81.7058 	 50.8845 	 141.043
| 15> H 	 -82.0578 	 49.235 	 140.416
| 16> C 	 -82.6067 	 50.7182 	 139.032
| 17> H 	 -82.1367 	 51.72 	 138.738
| 18> H 	 -82.5575 	 50.0606 	 138.164
| 19> C 	 -84.0614 	 51.1233 	 139.439
| 20> H 	 -84.6169 	 50.2334 	 139.729
| 21> H 	 -84.2098 	 51.9052 	 140.212
| 22> H 	 -84.6692 	 51.4605 	 138.582
| 23> S 	 -76.9941 	 51.0471 	 136.176
| 24> C 	 -75.9883 	 52.4148 	 135.837
| 25> C 	 -76.0117 	 53.3279 	 136.918
| 26> C 	 -76.853 	 52.8967 	 137.981
| 27> C 	 -77.4958 	 51.6863 	 137.754
| 28> H 	 -75.4084 	 54.1859 	 136.946
| 29> C 	 -77.0377 	 53.7115 	 139.235
| 30> H 	 -76.0711 	 53.8275 	 139.782
| 31> H 	 -77.634 	 53.1199 	 139.895
| 32> C 	 -77.7503 	 55.1216 	 139.087
| 33> H 	 -77.0158 	 55.8298 	 138.653
| 34> H 	 -77.9106 	 55.5357 	 140.073
| 35> C 	 -79.0737 	 55.1114 	 138.243
| 36> H 	 -79.345 	 56.1523 	 137.895
| 37> H 	 -79.8445 	 54.5142 	 138.795
| 38> H 	 -78.9218 	 54.627 	 137.306
| 39> H 	 -80.2046 	 47.8915 	 139.503
| 40> H 	 -75.4047 	 52.6465 	 134.834
| 41> *
| 42>
| 43>                          ****END OF INPUT****

CARTESIAN COORDINATES (ANGSTROEM)
---------------------------------
  S    -78.221000   49.108800  138.567000
  C    -79.659400   48.850000  139.401000
  C    -80.282700   50.066200  139.707000
  C    -79.537700   51.228300  139.196000
  C    -78.443300   50.811400  138.480000
  H    -79.792000   52.289800  139.314000
  C    -81.722500   50.222700  140.149000
  H    -81.705800   50.884500  141.043000
  H    -82.057800   49.235000  140.416000
  C    -82.606700   50.718200  139.032000
  H    -82.136700   51.720000  138.738000
  H    -82.557500   50.060600  138.164000
  C    -84.061400   51.123300  139.439000
  H    -84.616900   50.233400  139.729000
  H    -84.209800   51.905200  140.212000
  H    -84.669200   51.460500  138.582000
  S    -76.994100   51.047100  136.176000
  C    -75.988300   52.414800  135.837000
  C    -76.011700   53.327900  136.918000
  C    -76.853000   52.896700  137.981000
  C    -77.495800   51.686300  137.754000
  H    -75.408400   54.185900  136.946000
  C    -77.037700   53.711500  139.235000
  H    -76.071100   53.827500  139.782000
  H    -77.634000   53.119900  139.895000
  C    -77.750300   55.121600  139.087000
  H    -77.015800   55.829800  138.653000
  H    -77.910600   55.535700  140.073000
  C    -79.073700   55.111400  138.243000
  H    -79.345000   56.152300  137.895000
  H    -79.844500   54.514200  138.795000
  H    -78.921800   54.627000  137.306000
  H    -80.204600   47.891500  139.503000
  H    -75.404700   52.646500  134.834000

 Total Charge           Charge          ....    0
 Multiplicity           Mult            ....    1
 Number of Electrons    NEL             ....  134
 Basis Dimension        Dim             ....  322

ORBITAL ENERGIES
----------------

  NO   OCC          E(Eh)            E(eV)
   0   2.0000     -88.967458     -2420.9276
   1   2.0000     -88.967164     -2420.9196
   2   2.0000     -10.330786      -281.1150
   3   2.0000     -10.330657      -281.1115
   4   2.0000     -10.330185      -281.0986
   5   2.0000     -10.312691      -280.6226
   6   2.0000     -10.304629      -280.4032
   7   2.0000     -10.304021      -280.3867
   8   2.0000     -10.298154      -280.2270
   9   2.0000     -10.294031      -280.1148
  10   2.0000     -10.293797      -280.1084
  11   2.0000     -10.293574      -280.1024
  12   2.0000     -10.292784      -280.0809
  13   2.0000     -10.290834      -280.0278
  14   2.0000     -10.285572      -279.8846
  15   2.0000     -10.283203      -279.8202
  16   2.0000      -8.083736      -219.9696
  17   2.0000      -8.081667      -219.9133
  18   2.0000      -6.042231      -164.4175
  19   2.0000      -6.040129      -164.3603
  20   2.0000      -6.037928      -164.3004
  21   2.0000      -6.036020      -164.2485
  22   2.0000      -6.034497      -164.2070
  23   2.0000      -6.032661      -164.1571
  24   2.0000      -1.011548       -27.5256
  25   2.0000      -0.986429       -26.8421
  26   2.0000      -0.912623       -24.8337
  27   2.0000      -0.901197       -24.5228
  28   2.0000      -0.867961       -23.6184
  29   2.0000      -0.848163       -23.0797
  30   2.0000      -0.842708       -22.9312
  31   2.0000      -0.813810       -22.1449
  32   2.0000      -0.781255       -21.2590
  33   2.0000      -0.770654       -20.9706
  34   2.0000      -0.708260       -19.2727
  35   2.0000      -0.696050       -18.9405
  36   2.0000      -0.687588       -18.7102
  37   2.0000      -0.662136       -18.0176
  38   2.0000      -0.640918       -17.4403
  39   2.0000      -0.621139       -16.9020
  40   2.0000      -0.586507       -15.9597
  41   2.0000      -0.569510       -15.4972
  42   2.0000      -0.560246       -15.2451
  43   2.0000      -0.547245       -14.8913
  44   2.0000      -0.538896       -14.6641
  45   2.0000      -0.520222       -14.1560
  46   2.0000      -0.517168       -14.0729
  47   2.0000      -0.509987       -13.8774
  48   2.0000      -0.505493       -13.7552
  49   2.0000      -0.501018       -13.6334
  50   2.0000      -0.490438       -13.3455
  51   2.0000      -0.479845       -13.0572
  52   2.0000      -0.468107       -12.7378
  53   2.0000      -0.463478       -12.6119
  54   2.0000      -0.457421       -12.4471
  55   2.0000      -0.452981       -12.3262
  56   2.0000      -0.447022       -12.1641
  57   2.0000      -0.442814       -12.0496
  58   2.0000      -0.431922       -11.7532
  59   2.0000      -0.422327       -11.4921
  60   2.0000      -0.418647       -11.3920
  61   2.0000      -0.415251       -11.2995
  62   2.0000      -0.405340       -11.0299
  63   2.0000      -0.352993        -9.6054
  64   2.0000      -0.332212        -9.0400
  65   2.0000      -0.326876        -8.8948
  66   2.0000      -0.292149        -7.9498
  67   0.0000       0.030279         0.8239
  68   0.0000       0.074091         2.0161
  69   0.0000       0.112704         3.0668
  70   0.0000       0.118276         3.2185
  71   0.0000       0.126863         3.4521

MULLIKEN ATOMIC CHARGES
-----------------------
   0 S :    0.131947
   1 C :   -0.116271
   2 C :   -0.123633
   3 C :    0.017328
   4 C :   -0.126512
   5 H :    0.007750
   6 C :    0.084391
   7 H :    0.037145
   8 H :    0.005075
   9 C :   -0.094901
  10 H :    0.031299
  11 H :    0.038973
  12 C :   -0.054508
  13 H :    0.023258
  14 H :    0.041257
  15 H :    0.033487
  16 S :    0.102780
  17 C :   -0.130089
  18 C :   -0.022024
  19 C :   -0.038517
  20 C :   -0.163239
  21 H :    0.001499
  22 C :    0.054394
  23 H :    0.043419
  24 H :    0.007185
  25 C :   -0.080905
  26 H :    0.027577
  27 H :    0.031597
  28 C :   -0.073189
  29 H :    0.045217
  30 H :    0.051491
  31 H :    0.039799
  32 H :    0.064693
  33 H :    0.102228
Sum of atomic charges:   -0.0000000

LOEWDIN ATOMIC CHARGES
----------------------
   0 S :    0.444526
   1 C :   -0.234039
   2 C :   -0.059512
   3 C :   -0.067121
   4 C :   -0.203461
   5 H :    0.031069
   6 C :   -0.035168
   7 H :    0.035837
   8 H :    0.021885
   9 C :   -0.041877
  10 H :    0.028934
  11 H :    0.028938
  12 C :   -0.076132
  13 H :    0.020864
  14 H :    0.029292
  15 H :    0.030138
  16 S :    0.408972
  17 C :   -0.211169
  18 C :   -0.070458
  19 C :   -0.059179
  20 C :   -0.190265
  21 H :    0.022955
  22 C :   -0.034657
  23 H :    0.039646
  24 H :    0.021644
  25 C :   -0.039821
  26 H :    0.021687
  27 H :    0.022576
  28 C :   -0.072775
  29 H :    0.036983
  30 H :    0.028008
  31 H :    0.023421
  32 H :    0.039304
  33 H :    0.058957

  Mayer bond orders larger than 0.100000
B(  0-S ,  1-C ) :   1.1431 B(  0-S ,  4-C ) :   1.1711 B(  1-C ,  2-C ) :   1.6109
B(  1-C , 32-H ) :   0.9594 B(  2-C ,  3-C ) :   1.2188 B(  2-C ,  6-C ) :   1.0447
B(  3-C ,  4-C ) :   1.5723 B(  3-C ,  5-H ) :   0.9891 B(  4-C , 20-C ) :   1.0171
B(  6-C ,  7-H ) :   0.9327 B(  6-C ,  8-H ) :   0.9374 B(  6-C ,  9-C ) :   1.0648
B(  9-C , 10-H ) :   0.9535 B(  9-C , 11-H ) :   0.9556 B(  9-C , 12-C ) :   1.0731
B( 12-C , 13-H ) :   0.9745 B( 12-C , 14-H ) :   0.9766 B( 12-C , 15-H ) :   0.9739
B( 16-S , 17-C ) :   1.1759 B( 16-S , 20-C ) :   1.1426 B( 17-C , 18-C ) :   1.5695
B( 17-C , 20-C ) :   0.1047 B( 17-C , 33-H ) :   0.9514 B( 18-C , 19-C ) :   1.2569
B( 18-C , 21-H ) :   1.0010 B( 19-C , 20-C ) :   1.5754 B( 19-C , 22-C ) :   1.0512
B( 22-C , 23-H ) :   0.9340 B( 22-C , 24-H ) :   0.9343 B( 22-C , 25-C ) :   1.0586
B( 25-C , 26-H ) :   0.9575 B( 25-C , 27-H ) :   0.9599 B( 25-C , 28-C ) :   1.0681
B( 28-C , 29-H ) :   0.9718 B( 28-C , 30-H ) :   0.9703 B( 28-C , 31-H ) :   0.9729

Dispersion correction           -0.014937864
FINAL SINGLE POINT ENERGY     -1339.880538048877

DIPOLE MOMENT
-------------
                                X             Y             Z
Electronic contribution:     20.60334     -17.31116      -9.65189
Nuclear contribution   :    -20.89578      17.77477       9.73912
                        -----------------------------------------
Total Dipole Moment    :     -0.29244       0.46361       0.08723
                        -----------------------------------------
Magnitude (a.u.)       :      0.55504
Magnitude (Debye)      :      1.41080

Rotational constants in cm-1:     0.018355     0.009147     0.007062
Rotational constants in MHz :   550.265651   274.231872   211.713738

                             ****ORCA TERMINATED NORMALLY****
TOTAL RUN TIME: 0 days 0 hours 0 minutes 33 seconds 706 msec
