                         Program Version 4.2.1 -  RELEASE  -
|  1> ! wB97X-D3 SP def2-SVP
|  2> %pal
|  3> nprocs 16
|  4> end
|  5>
|  6> * xyz 0 1
|  7> S 	 11.2246 	 -12.6247 	 95.5956
|  8> C 	 12.1857 	 -12.7061 	 94.132
|  9> C 	 11.5644 	 -11.878 	 93.1823
| 10> C 	 10.2459 	 -11.4996 	 93.5555
| 11> C 	 9.9611 	 -11.7376 	 94.876
| 12> H 	 9.58608 	 -10.8949 	 92.9236
| 13> C 	 12.0438 	 -11.641 	 91.8399
| 14> H 	 13.1066 	 -11.794 	 91.9191
| 15> H 	 11.9696 	 -10.5895 	 91.653
| 16> C 	 11.5756 	 -12.5364 	 90.6802
| 17> H 	 12.0982 	 -12.3322 	 89.758
| 18> H 	 11.7806 	 -13.5832 	 91.0341
| 19> C 	 10.106 	 -12.2706 	 90.3987
| 20> H 	 9.4361 	 -12.4687 	 91.2173
| 21> H 	 10.0192 	 -11.2472 	 90.1279
| 22> H 	 9.71841 	 -12.7328 	 89.5567
| 23> S 	 8.46972 	 -9.4564 	 95.5619
| 24> C 	 6.98809 	 -9.68895 	 96.4129
| 25> C 	 6.79748 	 -10.9731 	 96.8437
| 26> C 	 7.83938 	 -11.8772 	 96.2755
| 27> C 	 8.79082 	 -11.1832 	 95.5438
| 28> H 	 5.94739 	 -11.1911 	 97.4951
| 29> C 	 7.87634 	 -13.2993 	 96.7609
| 30> H 	 7.5723 	 -13.2513 	 97.8436
| 31> H 	 8.94942 	 -13.5786 	 96.6092
| 32> C 	 6.95964 	 -14.2944 	 95.9453
| 33> H 	 7.01703 	 -14.0558 	 94.8885
| 34> H 	 5.95662 	 -14.1115 	 96.2708
| 35> C 	 7.26739 	 -15.7411 	 96.1124
| 36> H 	 8.10628 	 -15.9689 	 95.4564
| 37> H 	 6.44297 	 -16.3701 	 95.7276
| 38> H 	 7.50096 	 -16.0889 	 97.1511
| 39> H 	 13.2513 	 -12.9356 	 94.1283
| 40> H 	 6.17301 	 -8.98107 	 96.5851
| 41> *
| 42>
| 43>                          ****END OF INPUT****

CARTESIAN COORDINATES (ANGSTROEM)
---------------------------------
  S     11.224600  -12.624700   95.595600
  C     12.185700  -12.706100   94.132000
  C     11.564400  -11.878000   93.182300
  C     10.245900  -11.499600   93.555500
  C      9.961100  -11.737600   94.876000
  H      9.586080  -10.894900   92.923600
  C     12.043800  -11.641000   91.839900
  H     13.106600  -11.794000   91.919100
  H     11.969600  -10.589500   91.653000
  C     11.575600  -12.536400   90.680200
  H     12.098200  -12.332200   89.758000
  H     11.780600  -13.583200   91.034100
  C     10.106000  -12.270600   90.398700
  H      9.436100  -12.468700   91.217300
  H     10.019200  -11.247200   90.127900
  H      9.718410  -12.732800   89.556700
  S      8.469720   -9.456400   95.561900
  C      6.988090   -9.688950   96.412900
  C      6.797480  -10.973100   96.843700
  C      7.839380  -11.877200   96.275500
  C      8.790820  -11.183200   95.543800
  H      5.947390  -11.191100   97.495100
  C      7.876340  -13.299300   96.760900
  H      7.572300  -13.251300   97.843600
  H      8.949420  -13.578600   96.609200
  C      6.959640  -14.294400   95.945300
  H      7.017030  -14.055800   94.888500
  H      5.956620  -14.111500   96.270800
  C      7.267390  -15.741100   96.112400
  H      8.106280  -15.968900   95.456400
  H      6.442970  -16.370100   95.727600
  H      7.500960  -16.088900   97.151100
  H     13.251300  -12.935600   94.128300
  H      6.173010   -8.981070   96.585100

 Total Charge           Charge          ....    0
 Multiplicity           Mult            ....    1
 Number of Electrons    NEL             ....  134
 Basis Dimension        Dim             ....  322

ORBITAL ENERGIES
----------------

  NO   OCC          E(Eh)            E(eV)
   0   2.0000     -88.968243     -2420.9490
   1   2.0000     -88.967656     -2420.9330
   2   2.0000     -10.325952      -280.9834
   3   2.0000     -10.325656      -280.9754
   4   2.0000     -10.316207      -280.7183
   5   2.0000     -10.314208      -280.6639
   6   2.0000     -10.304879      -280.4100
   7   2.0000     -10.298033      -280.2237
   8   2.0000     -10.294927      -280.1392
   9   2.0000     -10.294622      -280.1309
  10   2.0000     -10.289531      -279.9924
  11   2.0000     -10.288613      -279.9674
  12   2.0000     -10.279969      -279.7322
  13   2.0000     -10.279478      -279.7188
  14   2.0000     -10.275249      -279.6037
  15   2.0000     -10.262673      -279.2615
  16   2.0000      -8.083189      -219.9547
  17   2.0000      -8.082431      -219.9341
  18   2.0000      -6.041639      -164.4013
  19   2.0000      -6.041095      -164.3866
  20   2.0000      -6.037457      -164.2876
  21   2.0000      -6.037014      -164.2755
  22   2.0000      -6.034184      -164.1985
  23   2.0000      -6.032946      -164.1648
  24   2.0000      -1.011340       -27.5200
  25   2.0000      -0.986586       -26.8464
  26   2.0000      -0.920833       -25.0571
  27   2.0000      -0.904740       -24.6192
  28   2.0000      -0.871763       -23.7219
  29   2.0000      -0.852788       -23.2056
  30   2.0000      -0.848918       -23.1002
  31   2.0000      -0.818656       -22.2768
  32   2.0000      -0.785241       -21.3675
  33   2.0000      -0.767417       -20.8825
  34   2.0000      -0.708050       -19.2670
  35   2.0000      -0.703103       -19.1324
  36   2.0000      -0.687530       -18.7087
  37   2.0000      -0.659451       -17.9446
  38   2.0000      -0.638158       -17.3652
  39   2.0000      -0.616818       -16.7845
  40   2.0000      -0.585631       -15.9358
  41   2.0000      -0.576935       -15.6992
  42   2.0000      -0.566311       -15.4101
  43   2.0000      -0.552366       -15.0306
  44   2.0000      -0.545746       -14.8505
  45   2.0000      -0.522982       -14.2311
  46   2.0000      -0.517624       -14.0853
  47   2.0000      -0.514614       -14.0034
  48   2.0000      -0.503510       -13.7012
  49   2.0000      -0.496840       -13.5197
  50   2.0000      -0.493954       -13.4412
  51   2.0000      -0.482140       -13.1197
  52   2.0000      -0.475483       -12.9385
  53   2.0000      -0.465225       -12.6594
  54   2.0000      -0.462939       -12.5972
  55   2.0000      -0.444093       -12.0844
  56   2.0000      -0.440938       -11.9985
  57   2.0000      -0.432245       -11.7620
  58   2.0000      -0.426715       -11.6115
  59   2.0000      -0.422585       -11.4991
  60   2.0000      -0.420316       -11.4374
  61   2.0000      -0.418068       -11.3762
  62   2.0000      -0.411648       -11.2015
  63   2.0000      -0.340630        -9.2690
  64   2.0000      -0.331401        -9.0179
  65   2.0000      -0.325790        -8.8652
  66   2.0000      -0.298995        -8.1361
  67   0.0000       0.031989         0.8705
  68   0.0000       0.069253         1.8845
  69   0.0000       0.104572         2.8455
  70   0.0000       0.114019         3.1026
  71   0.0000       0.130085         3.5398

MULLIKEN ATOMIC CHARGES
-----------------------
   0 S :    0.115663
   1 C :   -0.119043
   2 C :   -0.128157
   3 C :    0.002239
   4 C :   -0.139156
   5 H :    0.022895
   6 C :    0.062549
   7 H :    0.001517
   8 H :    0.020754
   9 C :   -0.032077
  10 H :    0.031237
  11 H :    0.033959
  12 C :   -0.019922
  13 H :    0.039807
  14 H :    0.006238
  15 H :    0.008813
  16 S :    0.125768
  17 C :   -0.094522
  18 C :   -0.046059
  19 C :   -0.049558
  20 C :   -0.149988
  21 H :    0.028568
  22 C :    0.035841
  23 H :    0.047494
  24 H :    0.020782
  25 C :   -0.047584
  26 H :    0.032383
  27 H :    0.015120
  28 C :   -0.057318
  29 H :    0.033505
  30 H :    0.034373
  31 H :    0.037588
  32 H :    0.066873
  33 H :    0.059418
Sum of atomic charges:   -0.0000000

LOEWDIN ATOMIC CHARGES
----------------------
   0 S :    0.438626
   1 C :   -0.209989
   2 C :   -0.059068
   3 C :   -0.069737
   4 C :   -0.207384
   5 H :    0.032685
   6 C :   -0.041456
   7 H :    0.028135
   8 H :    0.028581
   9 C :   -0.025759
  10 H :    0.025684
  11 H :    0.029870
  12 C :   -0.062946
  13 H :    0.025410
  14 H :    0.021545
  15 H :    0.015893
  16 S :    0.412185
  17 C :   -0.197649
  18 C :   -0.075308
  19 C :   -0.049276
  20 C :   -0.205012
  21 H :    0.034314
  22 C :   -0.038398
  23 H :    0.040351
  24 H :    0.020129
  25 C :   -0.039097
  26 H :    0.027996
  27 H :    0.016704
  28 C :   -0.071976
  29 H :    0.026585
  30 H :    0.029905
  31 H :    0.028227
  32 H :    0.034109
  33 H :    0.036121

  Mayer bond orders larger than 0.100000
B(  0-S ,  1-C ) :   1.1434 B(  0-S ,  4-C ) :   1.1787 B(  1-C ,  2-C ) :   1.5661
B(  1-C , 32-H ) :   0.9631 B(  2-C ,  3-C ) :   1.2614 B(  2-C ,  6-C ) :   1.0612
B(  3-C ,  4-C ) :   1.5397 B(  3-C ,  5-H ) :   0.9890 B(  4-C , 20-C ) :   1.0409
B(  6-C ,  7-H ) :   0.9250 B(  6-C ,  8-H ) :   0.9292 B(  6-C ,  9-C ) :   1.0671
B(  9-C , 10-H ) :   0.9528 B(  9-C , 11-H ) :   0.9507 B(  9-C , 12-C ) :   1.0907
B( 12-C , 13-H ) :   0.9695 B( 12-C , 14-H ) :   0.9682 B( 12-C , 15-H ) :   0.9681
B( 16-S , 17-C ) :   1.1448 B( 16-S , 20-C ) :   1.1180 B( 17-C , 18-C ) :   1.6602
B( 17-C , 33-H ) :   0.9585 B( 18-C , 19-C ) :   1.1984 B( 18-C , 21-H ) :   0.9843
B( 19-C , 20-C ) :   1.6136 B( 19-C , 22-C ) :   1.0426 B( 22-C , 23-H ) :   0.9377
B( 22-C , 24-H ) :   0.9316 B( 22-C , 25-C ) :   1.0509 B( 25-C , 26-H ) :   0.9589
B( 25-C , 27-H ) :   0.9547 B( 25-C , 28-C ) :   1.0947 B( 28-C , 29-H ) :   0.9753
B( 28-C , 30-H ) :   0.9712 B( 28-C , 31-H ) :   0.9723

Dispersion correction           -0.014367699
FINAL SINGLE POINT ENERGY     -1339.871828157911

DIPOLE MOMENT
-------------
                                X             Y             Z
Electronic contribution:      4.64193      15.52797      13.35818
Nuclear contribution   :     -4.80011     -15.58440     -13.62921
                        -----------------------------------------
Total Dipole Moment    :     -0.15818      -0.05642      -0.27103
                        -----------------------------------------
Magnitude (a.u.)       :      0.31884
Magnitude (Debye)      :      0.81043

Rotational constants in cm-1:     0.017405     0.008979     0.007600
Rotational constants in MHz :   521.781307   269.168735   227.835657

                             ****ORCA TERMINATED NORMALLY****
TOTAL RUN TIME: 0 days 0 hours 0 minutes 32 seconds 53 msec
