                         Program Version 4.2.1 -  RELEASE  -
|  1> ! wB97X-D3 SP def2-SVP
|  2> %pal
|  3> nprocs 16
|  4> end
|  5>
|  6> * xyz 0 1
|  7> S 	 -43.7352 	 49.4142 	 103.823
|  8> C 	 -42.6478 	 50.3865 	 104.77
|  9> C 	 -42.8378 	 50.2274 	 106.118
| 10> C 	 -43.6891 	 49.1086 	 106.335
| 11> C 	 -44.2385 	 48.4763 	 105.189
| 12> H 	 -43.9129 	 48.7726 	 107.372
| 13> C 	 -42.2702 	 51.0846 	 107.179
| 14> H 	 -42.9228 	 51.0284 	 108.047
| 15> H 	 -42.2483 	 52.167 	 106.865
| 16> C 	 -40.8751 	 50.5853 	 107.519
| 17> H 	 -40.2009 	 50.8314 	 106.752
| 18> H 	 -40.5838 	 51.0862 	 108.433
| 19> C 	 -40.6037 	 49.0493 	 107.833
| 20> H 	 -41.1732 	 48.3476 	 107.165
| 21> H 	 -39.4983 	 48.875 	 107.893
| 22> H 	 -40.9521 	 48.8662 	 108.872
| 23> S 	 -46.883 	 47.5703 	 104.981
| 24> C 	 -47.1559 	 45.9037 	 104.912
| 25> C 	 -46.0069 	 45.16 	 105.15
| 26> C 	 -44.8482 	 45.9589 	 105.203
| 27> C 	 -45.1081 	 47.3191 	 105.157
| 28> H 	 -46.0938 	 44.0875 	 105.211
| 29> C 	 -43.4252 	 45.4655 	 105.249
| 30> H 	 -43.3507 	 44.3338 	 105.485
| 31> H 	 -42.9222 	 46.0354 	 106.027
| 32> C 	 -42.6756 	 45.669 	 103.853
| 33> H 	 -42.7645 	 46.7614 	 103.674
| 34> H 	 -43.223 	 45.1588 	 103.056
| 35> C 	 -41.2442 	 45.2232 	 103.952
| 36> H 	 -40.7035 	 45.4568 	 102.959
| 37> H 	 -41.3145 	 44.0921 	 104.019
| 38> H 	 -40.6578 	 45.7637 	 104.761
| 39> H 	 -41.8596 	 51.0946 	 104.433
| 40> H 	 -48.0997 	 45.4625 	 105.091
| 41> *
| 42>
| 43>                          ****END OF INPUT****

CARTESIAN COORDINATES (ANGSTROEM)
---------------------------------
  S    -43.735200   49.414200  103.823000
  C    -42.647800   50.386500  104.770000
  C    -42.837800   50.227400  106.118000
  C    -43.689100   49.108600  106.335000
  C    -44.238500   48.476300  105.189000
  H    -43.912900   48.772600  107.372000
  C    -42.270200   51.084600  107.179000
  H    -42.922800   51.028400  108.047000
  H    -42.248300   52.167000  106.865000
  C    -40.875100   50.585300  107.519000
  H    -40.200900   50.831400  106.752000
  H    -40.583800   51.086200  108.433000
  C    -40.603700   49.049300  107.833000
  H    -41.173200   48.347600  107.165000
  H    -39.498300   48.875000  107.893000
  H    -40.952100   48.866200  108.872000
  S    -46.883000   47.570300  104.981000
  C    -47.155900   45.903700  104.912000
  C    -46.006900   45.160000  105.150000
  C    -44.848200   45.958900  105.203000
  C    -45.108100   47.319100  105.157000
  H    -46.093800   44.087500  105.211000
  C    -43.425200   45.465500  105.249000
  H    -43.350700   44.333800  105.485000
  H    -42.922200   46.035400  106.027000
  C    -42.675600   45.669000  103.853000
  H    -42.764500   46.761400  103.674000
  H    -43.223000   45.158800  103.056000
  C    -41.244200   45.223200  103.952000
  H    -40.703500   45.456800  102.959000
  H    -41.314500   44.092100  104.019000
  H    -40.657800   45.763700  104.761000
  H    -41.859600   51.094600  104.433000
  H    -48.099700   45.462500  105.091000

 Total Charge           Charge          ....    0
 Multiplicity           Mult            ....    1
 Number of Electrons    NEL             ....  134
 Basis Dimension        Dim             ....  322

ORBITAL ENERGIES
----------------

  NO   OCC          E(Eh)            E(eV)
   0   2.0000     -88.970465     -2421.0094
   1   2.0000     -88.963536     -2420.8209
   2   2.0000     -10.331266      -281.1280
   3   2.0000     -10.325300      -280.9657
   4   2.0000     -10.315173      -280.6901
   5   2.0000     -10.309693      -280.5410
   6   2.0000     -10.302211      -280.3374
   7   2.0000     -10.300129      -280.2807
   8   2.0000     -10.297544      -280.2104
   9   2.0000     -10.296133      -280.1720
  10   2.0000     -10.294899      -280.1384
  11   2.0000     -10.290456      -280.0175
  12   2.0000     -10.289615      -279.9946
  13   2.0000     -10.288175      -279.9555
  14   2.0000     -10.286207      -279.9019
  15   2.0000     -10.282671      -279.8057
  16   2.0000      -8.084763      -219.9976
  17   2.0000      -8.078725      -219.8333
  18   2.0000      -6.043266      -164.4456
  19   2.0000      -6.039155      -164.3338
  20   2.0000      -6.037015      -164.2755
  21   2.0000      -6.035698      -164.2397
  22   2.0000      -6.033117      -164.1695
  23   2.0000      -6.029730      -164.0773
  24   2.0000      -1.008315       -27.4376
  25   2.0000      -0.989293       -26.9200
  26   2.0000      -0.918801       -25.0019
  27   2.0000      -0.902626       -24.5617
  28   2.0000      -0.866511       -23.5790
  29   2.0000      -0.850609       -23.1462
  30   2.0000      -0.842468       -22.9247
  31   2.0000      -0.809699       -22.0330
  32   2.0000      -0.785109       -21.3639
  33   2.0000      -0.765418       -20.8281
  34   2.0000      -0.705835       -19.2068
  35   2.0000      -0.701350       -19.0847
  36   2.0000      -0.682221       -18.5642
  37   2.0000      -0.659722       -17.9520
  38   2.0000      -0.633741       -17.2450
  39   2.0000      -0.615078       -16.7371
  40   2.0000      -0.591716       -16.1014
  41   2.0000      -0.581688       -15.8285
  42   2.0000      -0.564380       -15.3576
  43   2.0000      -0.550732       -14.9862
  44   2.0000      -0.544097       -14.8056
  45   2.0000      -0.514633       -14.0039
  46   2.0000      -0.510921       -13.9029
  47   2.0000      -0.508175       -13.8282
  48   2.0000      -0.506670       -13.7872
  49   2.0000      -0.500521       -13.6199
  50   2.0000      -0.492896       -13.4124
  51   2.0000      -0.477081       -12.9820
  52   2.0000      -0.465378       -12.6636
  53   2.0000      -0.462753       -12.5921
  54   2.0000      -0.459165       -12.4945
  55   2.0000      -0.448564       -12.2061
  56   2.0000      -0.440141       -11.9768
  57   2.0000      -0.438061       -11.9202
  58   2.0000      -0.431270       -11.7355
  59   2.0000      -0.422087       -11.4856
  60   2.0000      -0.420786       -11.4502
  61   2.0000      -0.416620       -11.3368
  62   2.0000      -0.404975       -11.0199
  63   2.0000      -0.333501        -9.0750
  64   2.0000      -0.328535        -8.9399
  65   2.0000      -0.324729        -8.8363
  66   2.0000      -0.303237        -8.2515
  67   0.0000       0.040210         1.0942
  68   0.0000       0.045617         1.2413
  69   0.0000       0.108538         2.9535
  70   0.0000       0.120442         3.2774
  71   0.0000       0.129718         3.5298

MULLIKEN ATOMIC CHARGES
-----------------------
   0 S :    0.140115
   1 C :   -0.133695
   2 C :   -0.117379
   3 C :    0.034874
   4 C :   -0.187460
   5 H :    0.018770
   6 C :    0.092149
   7 H :    0.023501
   8 H :    0.046293
   9 C :   -0.071644
  10 H :    0.021701
  11 H :    0.027026
  12 C :   -0.097012
  13 H :    0.063352
  14 H :    0.047799
  15 H :    0.026661
  16 S :    0.113948
  17 C :   -0.065377
  18 C :   -0.071225
  19 C :    0.027529
  20 C :   -0.197305
  21 H :    0.015708
  22 C :    0.037584
  23 H :    0.027856
  24 H :    0.028963
  25 C :   -0.084554
  26 H :    0.030714
  27 H :    0.033328
  28 C :   -0.076143
  29 H :    0.045557
  30 H :    0.041356
  31 H :    0.051611
  32 H :    0.055175
  33 H :    0.050223
Sum of atomic charges:    0.0000000

LOEWDIN ATOMIC CHARGES
----------------------
   0 S :    0.436125
   1 C :   -0.205213
   2 C :   -0.073745
   3 C :   -0.057320
   4 C :   -0.218979
   5 H :    0.032453
   6 C :   -0.032228
   7 H :    0.031687
   8 H :    0.043540
   9 C :   -0.036567
  10 H :    0.014890
  11 H :    0.023541
  12 C :   -0.074186
  13 H :    0.029312
  14 H :    0.034282
  15 H :    0.023464
  16 S :    0.415558
  17 C :   -0.197014
  18 C :   -0.075157
  19 C :   -0.048663
  20 C :   -0.197951
  21 H :    0.031058
  22 C :   -0.034687
  23 H :    0.032460
  24 H :    0.028828
  25 C :   -0.045226
  26 H :    0.015279
  27 H :    0.024729
  28 C :   -0.080556
  29 H :    0.034237
  30 H :    0.031206
  31 H :    0.033796
  32 H :    0.037657
  33 H :    0.023389

  Mayer bond orders larger than 0.100000
B(  0-S ,  1-C ) :   1.1607 B(  0-S ,  4-C ) :   1.1551 B(  1-C ,  2-C ) :   1.5865
B(  1-C ,  4-C ) :   0.1040 B(  1-C , 32-H ) :   0.9572 B(  2-C ,  3-C ) :   1.2761
B(  2-C ,  6-C ) :   1.0211 B(  3-C ,  4-C ) :   1.5415 B(  3-C ,  5-H ) :   0.9855
B(  4-C , 20-C ) :   1.0388 B(  6-C ,  7-H ) :   0.9359 B(  6-C ,  8-H ) :   0.9400
B(  6-C ,  9-C ) :   1.0662 B(  9-C , 10-H ) :   0.9619 B(  9-C , 11-H ) :   0.9570
B(  9-C , 12-C ) :   1.0698 B( 12-C , 13-H ) :   0.9696 B( 12-C , 14-H ) :   0.9742
B( 12-C , 15-H ) :   0.9777 B( 16-S , 17-C ) :   1.1905 B( 16-S , 20-C ) :   1.1391
B( 17-C , 18-C ) :   1.5845 B( 17-C , 20-C ) :   0.1052 B( 17-C , 33-H ) :   0.9605
B( 18-C , 19-C ) :   1.2620 B( 18-C , 21-H ) :   0.9953 B( 19-C , 20-C ) :   1.5760
B( 19-C , 22-C ) :   1.0484 B( 22-C , 23-H ) :   0.9396 B( 22-C , 24-H ) :   0.9264
B( 22-C , 25-C ) :   1.0549 B( 25-C , 26-H ) :   0.9490 B( 25-C , 27-H ) :   0.9543
B( 25-C , 28-C ) :   1.0883 B( 28-C , 29-H ) :   0.9704 B( 28-C , 30-H ) :   0.9721
B( 28-C , 31-H ) :   0.9704

Dispersion correction           -0.015525671
FINAL SINGLE POINT ENERGY     -1339.874354077784

DIPOLE MOMENT
-------------
                                X             Y             Z
Electronic contribution:    -24.24248       5.26922      -9.39008
Nuclear contribution   :     24.65153      -5.25670       9.84277
                        -----------------------------------------
Total Dipole Moment    :      0.40905       0.01252       0.45269
                        -----------------------------------------
Magnitude (a.u.)       :      0.61025
Magnitude (Debye)      :      1.55114

Rotational constants in cm-1:     0.018893     0.009420     0.007848
Rotational constants in MHz :   566.386237   282.413483   235.281622

                             ****ORCA TERMINATED NORMALLY****
TOTAL RUN TIME: 0 days 0 hours 0 minutes 31 seconds 805 msec
