                         Program Version 4.2.1 -  RELEASE  -
|  1> ! wB97X-D3 SP def2-SVP
|  2> %pal
|  3> nprocs 16
|  4> end
|  5>
|  6> * xyz 0 1
|  7> S 	 -69.3946 	 38.4449 	 142.333
|  8> C 	 -70.3918 	 37.4457 	 141.295
|  9> C 	 -69.5087 	 36.7965 	 140.395
| 10> C 	 -68.1946 	 37.2984 	 140.431
| 11> C 	 -67.9748 	 38.2587 	 141.383
| 12> H 	 -67.4475 	 37.0787 	 139.681
| 13> C 	 -69.961 	 35.7528 	 139.393
| 14> H 	 -69.3592 	 35.7962 	 138.456
| 15> H 	 -70.8868 	 36.0254 	 138.987
| 16> C 	 -70.1716 	 34.2806 	 139.766
| 17> H 	 -69.1716 	 33.819 	 140.094
| 18> H 	 -70.7359 	 34.2216 	 140.655
| 19> C 	 -70.8275 	 33.3599 	 138.805
| 20> H 	 -71.919 	 33.3732 	 138.981
| 21> H 	 -70.7269 	 33.753 	 137.812
| 22> H 	 -70.4481 	 32.3012 	 138.738
| 23> S 	 -66.2313 	 39.1802 	 143.26
| 24> C 	 -64.6331 	 39.757 	 142.844
| 25> C 	 -64.562 	 39.9481 	 141.491
| 26> C 	 -65.7853 	 39.588 	 140.738
| 27> C 	 -66.7131 	 39.0515 	 141.606
| 28> H 	 -63.609 	 40.1367 	 141.048
| 29> C 	 -65.9045 	 39.4729 	 139.251
| 30> H 	 -66.593 	 38.7862 	 138.851
| 31> H 	 -64.9305 	 39.0585 	 139.011
| 32> C 	 -66.198 	 40.7261 	 138.528
| 33> H 	 -66.2101 	 40.6042 	 137.421
| 34> H 	 -65.384 	 41.4002 	 138.694
| 35> C 	 -67.3675 	 41.5992 	 139.028
| 36> H 	 -67.4556 	 42.4997 	 138.458
| 37> H 	 -67.1754 	 41.9699 	 140.055
| 38> H 	 -68.3418 	 41.043 	 138.854
| 39> H 	 -71.4276 	 37.2831 	 141.496
| 40> H 	 -63.7428 	 39.9341 	 143.427
| 41> *
| 42>
| 43>                          ****END OF INPUT****

CARTESIAN COORDINATES (ANGSTROEM)
---------------------------------
  S    -69.394600   38.444900  142.333000
  C    -70.391800   37.445700  141.295000
  C    -69.508700   36.796500  140.395000
  C    -68.194600   37.298400  140.431000
  C    -67.974800   38.258700  141.383000
  H    -67.447500   37.078700  139.681000
  C    -69.961000   35.752800  139.393000
  H    -69.359200   35.796200  138.456000
  H    -70.886800   36.025400  138.987000
  C    -70.171600   34.280600  139.766000
  H    -69.171600   33.819000  140.094000
  H    -70.735900   34.221600  140.655000
  C    -70.827500   33.359900  138.805000
  H    -71.919000   33.373200  138.981000
  H    -70.726900   33.753000  137.812000
  H    -70.448100   32.301200  138.738000
  S    -66.231300   39.180200  143.260000
  C    -64.633100   39.757000  142.844000
  C    -64.562000   39.948100  141.491000
  C    -65.785300   39.588000  140.738000
  C    -66.713100   39.051500  141.606000
  H    -63.609000   40.136700  141.048000
  C    -65.904500   39.472900  139.251000
  H    -66.593000   38.786200  138.851000
  H    -64.930500   39.058500  139.011000
  C    -66.198000   40.726100  138.528000
  H    -66.210100   40.604200  137.421000
  H    -65.384000   41.400200  138.694000
  C    -67.367500   41.599200  139.028000
  H    -67.455600   42.499700  138.458000
  H    -67.175400   41.969900  140.055000
  H    -68.341800   41.043000  138.854000
  H    -71.427600   37.283100  141.496000
  H    -63.742800   39.934100  143.427000

 Total Charge           Charge          ....    0
 Multiplicity           Mult            ....    1
 Number of Electrons    NEL             ....  134
 Basis Dimension        Dim             ....  322

ORBITAL ENERGIES
----------------

  NO   OCC          E(Eh)            E(eV)
   0   2.0000     -88.966494     -2420.9014
   1   2.0000     -88.964438     -2420.8454
   2   2.0000     -10.331601      -281.1372
   3   2.0000     -10.330182      -281.0985
   4   2.0000     -10.319905      -280.8189
   5   2.0000     -10.317829      -280.7624
   6   2.0000     -10.307840      -280.4906
   7   2.0000     -10.307723      -280.4874
   8   2.0000     -10.297551      -280.2106
   9   2.0000     -10.290938      -280.0307
  10   2.0000     -10.289704      -279.9971
  11   2.0000     -10.284176      -279.8466
  12   2.0000     -10.282530      -279.8019
  13   2.0000     -10.279645      -279.7234
  14   2.0000     -10.279139      -279.7096
  15   2.0000     -10.275901      -279.6215
  16   2.0000      -8.081742      -219.9154
  17   2.0000      -8.079730      -219.8606
  18   2.0000      -6.040191      -164.3620
  19   2.0000      -6.038419      -164.3137
  20   2.0000      -6.035987      -164.2475
  21   2.0000      -6.034095      -164.1961
  22   2.0000      -6.032714      -164.1585
  23   2.0000      -6.030317      -164.0933
  24   2.0000      -1.010985       -27.5103
  25   2.0000      -0.988722       -26.9045
  26   2.0000      -0.918224       -24.9861
  27   2.0000      -0.913393       -24.8547
  28   2.0000      -0.870322       -23.6827
  29   2.0000      -0.854324       -23.2473
  30   2.0000      -0.843694       -22.9581
  31   2.0000      -0.821297       -22.3486
  32   2.0000      -0.786166       -21.3927
  33   2.0000      -0.776781       -21.1373
  34   2.0000      -0.701628       -19.0923
  35   2.0000      -0.699522       -19.0350
  36   2.0000      -0.690353       -18.7855
  37   2.0000      -0.660278       -17.9671
  38   2.0000      -0.647821       -17.6281
  39   2.0000      -0.627763       -17.0823
  40   2.0000      -0.603146       -16.4124
  41   2.0000      -0.572612       -15.5816
  42   2.0000      -0.560051       -15.2398
  43   2.0000      -0.556281       -15.1372
  44   2.0000      -0.546827       -14.8799
  45   2.0000      -0.523463       -14.2442
  46   2.0000      -0.520161       -14.1543
  47   2.0000      -0.514584       -14.0026
  48   2.0000      -0.504579       -13.7303
  49   2.0000      -0.503447       -13.6995
  50   2.0000      -0.492242       -13.3946
  51   2.0000      -0.481744       -13.1089
  52   2.0000      -0.473618       -12.8878
  53   2.0000      -0.467866       -12.7313
  54   2.0000      -0.459355       -12.4997
  55   2.0000      -0.453934       -12.3522
  56   2.0000      -0.446264       -12.1435
  57   2.0000      -0.439771       -11.9668
  58   2.0000      -0.426646       -11.6096
  59   2.0000      -0.423784       -11.5318
  60   2.0000      -0.416807       -11.3419
  61   2.0000      -0.401168       -10.9163
  62   2.0000      -0.397725       -10.8227
  63   2.0000      -0.353112        -9.6087
  64   2.0000      -0.333674        -9.0797
  65   2.0000      -0.327094        -8.9007
  66   2.0000      -0.294460        -8.0127
  67   0.0000       0.030530         0.8308
  68   0.0000       0.069370         1.8877
  69   0.0000       0.108482         2.9519
  70   0.0000       0.112346         3.0571
  71   0.0000       0.136890         3.7250

MULLIKEN ATOMIC CHARGES
-----------------------
   0 S :    0.109067
   1 C :   -0.114281
   2 C :   -0.069638
   3 C :    0.016349
   4 C :   -0.114373
   5 H :    0.014263
   6 C :    0.068612
   7 H :    0.016341
   8 H :   -0.002716
   9 C :   -0.062901
  10 H :    0.028067
  11 H :    0.010520
  12 C :   -0.054820
  13 H :    0.034164
  14 H :    0.014059
  15 H :    0.052413
  16 S :    0.100238
  17 C :   -0.071271
  18 C :   -0.046183
  19 C :   -0.059079
  20 C :   -0.142659
  21 H :    0.015585
  22 C :    0.115052
  23 H :    0.009599
  24 H :    0.021143
  25 C :   -0.088733
  26 H :    0.032324
  27 H :    0.005537
  28 C :   -0.059905
  29 H :    0.023438
  30 H :    0.050926
  31 H :    0.041608
  32 H :    0.051990
  33 H :    0.055264
Sum of atomic charges:   -0.0000000

LOEWDIN ATOMIC CHARGES
----------------------
   0 S :    0.423646
   1 C :   -0.190578
   2 C :   -0.056901
   3 C :   -0.071002
   4 C :   -0.199326
   5 H :    0.030824
   6 C :   -0.037378
   7 H :    0.031130
   8 H :    0.021994
   9 C :   -0.049866
  10 H :    0.028473
  11 H :    0.016182
  12 C :   -0.071927
  13 H :    0.029450
  14 H :    0.019511
  15 H :    0.039031
  16 S :    0.407255
  17 C :   -0.188119
  18 C :   -0.067035
  19 C :   -0.054863
  20 C :   -0.190856
  21 H :    0.026102
  22 C :   -0.032148
  23 H :    0.023621
  24 H :    0.036384
  25 C :   -0.048010
  26 H :    0.027485
  27 H :    0.017061
  28 C :   -0.067030
  29 H :    0.021633
  30 H :    0.032678
  31 H :    0.030107
  32 H :    0.025865
  33 H :    0.036608

  Mayer bond orders larger than 0.100000
B(  0-S ,  1-C ) :   1.1534 B(  0-S ,  4-C ) :   1.1826 B(  1-C ,  2-C ) :   1.5433
B(  1-C ,  4-C ) :   0.1114 B(  1-C , 32-H ) :   0.9825 B(  2-C ,  3-C ) :   1.2858
B(  2-C ,  6-C ) :   1.0263 B(  3-C ,  4-C ) :   1.5392 B(  3-C ,  5-H ) :   0.9974
B(  4-C , 20-C ) :   0.9930 B(  6-C ,  7-H ) :   0.9365 B(  6-C ,  8-H ) :   0.9340
B(  6-C ,  9-C ) :   1.0674 B(  9-C , 10-H ) :   0.9535 B(  9-C , 11-H ) :   0.9569
B(  9-C , 12-C ) :   1.0758 B( 12-C , 13-H ) :   0.9731 B( 12-C , 14-H ) :   0.9753
B( 12-C , 15-H ) :   0.9733 B( 16-S , 17-C ) :   1.1293 B( 16-S , 20-C ) :   1.1450
B( 17-C , 18-C ) :   1.6662 B( 17-C , 33-H ) :   0.9667 B( 18-C , 19-C ) :   1.1948
B( 18-C , 21-H ) :   0.9846 B( 19-C , 20-C ) :   1.6284 B( 19-C , 22-C ) :   1.0285
B( 22-C , 23-H ) :   0.9406 B( 22-C , 24-H ) :   0.9275 B( 22-C , 25-C ) :   1.0751
B( 25-C , 26-H ) :   0.9549 B( 25-C , 27-H ) :   0.9520 B( 25-C , 28-C ) :   1.0840
B( 28-C , 29-H ) :   0.9718 B( 28-C , 30-H ) :   0.9682 B( 28-C , 31-H ) :   0.9758

Dispersion correction           -0.014093547
FINAL SINGLE POINT ENERGY     -1339.858030299441

DIPOLE MOMENT
-------------
                                X             Y             Z
Electronic contribution:      5.42303       8.68556      23.65406
Nuclear contribution   :     -5.25151      -8.90553     -24.28985
                        -----------------------------------------
Total Dipole Moment    :      0.17152      -0.21997      -0.63579
                        -----------------------------------------
Magnitude (a.u.)       :      0.69428
Magnitude (Debye)      :      1.76473

Rotational constants in cm-1:     0.021034     0.007581     0.006676
Rotational constants in MHz :   630.573810   227.281694   200.138279

                             ****ORCA TERMINATED NORMALLY****
TOTAL RUN TIME: 0 days 0 hours 0 minutes 34 seconds 412 msec
