                         Program Version 4.2.1 -  RELEASE  -
|  1> ! wB97X-D3 SP def2-SVP
|  2> %pal
|  3> nprocs 16
|  4> end
|  5>
|  6> * xyz 0 1
|  7> S 	 6.2109 	 -14.1532 	 64.5543
|  8> C 	 6.48349 	 -14.1162 	 66.3292
|  9> C 	 6.99939 	 -15.3066 	 66.8303
| 10> C 	 7.23766 	 -16.2551 	 65.7971
| 11> C 	 6.82668 	 -15.7892 	 64.5518
| 12> H 	 7.6154 	 -17.255 	 65.9378
| 13> C 	 7.16918 	 -15.6106 	 68.3046
| 14> H 	 7.40758 	 -16.6293 	 68.379
| 15> H 	 6.17898 	 -15.5285 	 68.7555
| 16> C 	 8.21516 	 -14.8672 	 69.1126
| 17> H 	 8.05792 	 -13.8127 	 69.1248
| 18> H 	 8.13837 	 -15.1348 	 70.139
| 19> C 	 9.66426 	 -15.1375 	 68.6807
| 20> H 	 10.3465 	 -14.7825 	 69.4233
| 21> H 	 9.87221 	 -16.2286 	 68.6278
| 22> H 	 9.88794 	 -14.6912 	 67.7009
| 23> S 	 8.39463 	 -17.3099 	 62.8249
| 24> C 	 7.74393 	 -17.8563 	 61.2853
| 25> C 	 6.45125 	 -17.4012 	 61.0971
| 26> C 	 5.97987 	 -16.5628 	 62.1772
| 27> C 	 6.90243 	 -16.4862 	 63.2
| 28> H 	 5.81381 	 -17.7536 	 60.3024
| 29> C 	 4.56785 	 -16.0075 	 62.188
| 30> H 	 4.6589 	 -15.1618 	 62.8123
| 31> H 	 3.8112 	 -16.7174 	 62.7476
| 32> C 	 4.08006 	 -15.5081 	 60.8057
| 33> H 	 3.92377 	 -16.3693 	 60.2026
| 34> H 	 4.89704 	 -14.9652 	 60.2521
| 35> C 	 2.74299 	 -14.7772 	 60.8222
| 36> H 	 2.06381 	 -15.3647 	 61.4491
| 37> H 	 2.41592 	 -14.722 	 59.8401
| 38> H 	 2.91049 	 -13.7486 	 61.2423
| 39> H 	 6.18344 	 -13.309 	 66.9471
| 40> H 	 8.2405 	 -18.553 	 60.5755
| 41> *
| 42>
| 43>                          ****END OF INPUT****

CARTESIAN COORDINATES (ANGSTROEM)
---------------------------------
  S      6.210900  -14.153200   64.554300
  C      6.483490  -14.116200   66.329200
  C      6.999390  -15.306600   66.830300
  C      7.237660  -16.255100   65.797100
  C      6.826680  -15.789200   64.551800
  H      7.615400  -17.255000   65.937800
  C      7.169180  -15.610600   68.304600
  H      7.407580  -16.629300   68.379000
  H      6.178980  -15.528500   68.755500
  C      8.215160  -14.867200   69.112600
  H      8.057920  -13.812700   69.124800
  H      8.138370  -15.134800   70.139000
  C      9.664260  -15.137500   68.680700
  H     10.346500  -14.782500   69.423300
  H      9.872210  -16.228600   68.627800
  H      9.887940  -14.691200   67.700900
  S      8.394630  -17.309900   62.824900
  C      7.743930  -17.856300   61.285300
  C      6.451250  -17.401200   61.097100
  C      5.979870  -16.562800   62.177200
  C      6.902430  -16.486200   63.200000
  H      5.813810  -17.753600   60.302400
  C      4.567850  -16.007500   62.188000
  H      4.658900  -15.161800   62.812300
  H      3.811200  -16.717400   62.747600
  C      4.080060  -15.508100   60.805700
  H      3.923770  -16.369300   60.202600
  H      4.897040  -14.965200   60.252100
  C      2.742990  -14.777200   60.822200
  H      2.063810  -15.364700   61.449100
  H      2.415920  -14.722000   59.840100
  H      2.910490  -13.748600   61.242300
  H      6.183440  -13.309000   66.947100
  H      8.240500  -18.553000   60.575500

 Total Charge           Charge          ....    0
 Multiplicity           Mult            ....    1
 Number of Electrons    NEL             ....  134
 Basis Dimension        Dim             ....  322

ORBITAL ENERGIES
----------------

  NO   OCC          E(Eh)            E(eV)
   0   2.0000     -88.970816     -2421.0190
   1   2.0000     -88.965870     -2420.8844
   2   2.0000     -10.335390      -281.2403
   3   2.0000     -10.327997      -281.0391
   4   2.0000     -10.319429      -280.8059
   5   2.0000     -10.312942      -280.6294
   6   2.0000     -10.302400      -280.3425
   7   2.0000     -10.300975      -280.3038
   8   2.0000     -10.295908      -280.1659
   9   2.0000     -10.293224      -280.0929
  10   2.0000     -10.292720      -280.0792
  11   2.0000     -10.287407      -279.9346
  12   2.0000     -10.284530      -279.8563
  13   2.0000     -10.280724      -279.7527
  14   2.0000     -10.275749      -279.6173
  15   2.0000     -10.275466      -279.6096
  16   2.0000      -8.084285      -219.9846
  17   2.0000      -8.080324      -219.8768
  18   2.0000      -6.042774      -164.4322
  19   2.0000      -6.039090      -164.3320
  20   2.0000      -6.038877      -164.3262
  21   2.0000      -6.035031      -164.2216
  22   2.0000      -6.034867      -164.2171
  23   2.0000      -6.031071      -164.1138
  24   2.0000      -1.001220       -27.2446
  25   2.0000      -0.979984       -26.6667
  26   2.0000      -0.913765       -24.8648
  27   2.0000      -0.907016       -24.6812
  28   2.0000      -0.861925       -23.4542
  29   2.0000      -0.851988       -23.1838
  30   2.0000      -0.845470       -23.0064
  31   2.0000      -0.812470       -22.1084
  32   2.0000      -0.783978       -21.3331
  33   2.0000      -0.770719       -20.9723
  34   2.0000      -0.708763       -19.2864
  35   2.0000      -0.698995       -19.0206
  36   2.0000      -0.689955       -18.7746
  37   2.0000      -0.655557       -17.8386
  38   2.0000      -0.637210       -17.3394
  39   2.0000      -0.611830       -16.6487
  40   2.0000      -0.594260       -16.1706
  41   2.0000      -0.573227       -15.5983
  42   2.0000      -0.563143       -15.3239
  43   2.0000      -0.555724       -15.1220
  44   2.0000      -0.540627       -14.7112
  45   2.0000      -0.530121       -14.4253
  46   2.0000      -0.513705       -13.9786
  47   2.0000      -0.510564       -13.8932
  48   2.0000      -0.504874       -13.7383
  49   2.0000      -0.486977       -13.2513
  50   2.0000      -0.485622       -13.2144
  51   2.0000      -0.474683       -12.9168
  52   2.0000      -0.469042       -12.7633
  53   2.0000      -0.462040       -12.5727
  54   2.0000      -0.457507       -12.4494
  55   2.0000      -0.453062       -12.3285
  56   2.0000      -0.447380       -12.1738
  57   2.0000      -0.440197       -11.9784
  58   2.0000      -0.433211       -11.7883
  59   2.0000      -0.428009       -11.6467
  60   2.0000      -0.422581       -11.4990
  61   2.0000      -0.419959       -11.4277
  62   2.0000      -0.409062       -11.1311
  63   2.0000      -0.343331        -9.3425
  64   2.0000      -0.335727        -9.1356
  65   2.0000      -0.329227        -8.9587
  66   2.0000      -0.290191        -7.8965
  67   0.0000       0.028540         0.7766
  68   0.0000       0.076217         2.0740
  69   0.0000       0.101078         2.7505
  70   0.0000       0.116666         3.1746
  71   0.0000       0.129388         3.5208

MULLIKEN ATOMIC CHARGES
-----------------------
   0 S :    0.107078
   1 C :   -0.115424
   2 C :   -0.091057
   3 C :    0.019873
   4 C :   -0.145407
   5 H :    0.012306
   6 C :    0.097086
   7 H :   -0.004248
   8 H :    0.038650
   9 C :   -0.037057
  10 H :    0.017477
  11 H :    0.016068
  12 C :   -0.064967
  13 H :    0.029187
  14 H :    0.023573
  15 H :    0.049384
  16 S :    0.108993
  17 C :   -0.104469
  18 C :   -0.032224
  19 C :   -0.076649
  20 C :   -0.135828
  21 H :    0.020979
  22 C :    0.090789
  23 H :   -0.007289
  24 H :    0.061347
  25 C :   -0.135596
  26 H :    0.016754
  27 H :    0.041605
  28 C :    0.001469
  29 H :    0.030586
  30 H :    0.022816
  31 H :    0.043372
  32 H :    0.031697
  33 H :    0.069128
Sum of atomic charges:    0.0000000

LOEWDIN ATOMIC CHARGES
----------------------
   0 S :    0.407895
   1 C :   -0.181697
   2 C :   -0.056444
   3 C :   -0.068715
   4 C :   -0.179846
   5 H :    0.031517
   6 C :   -0.027694
   7 H :    0.022217
   8 H :    0.038188
   9 C :   -0.036040
  10 H :    0.018566
  11 H :    0.022208
  12 C :   -0.064054
  13 H :    0.023045
  14 H :    0.025044
  15 H :    0.029564
  16 S :    0.405531
  17 C :   -0.191486
  18 C :   -0.068785
  19 C :   -0.065491
  20 C :   -0.201151
  21 H :    0.030453
  22 C :   -0.040813
  23 H :    0.003701
  24 H :    0.047712
  25 C :   -0.046530
  26 H :    0.013218
  27 H :    0.031814
  28 C :   -0.054522
  29 H :    0.027870
  30 H :    0.017605
  31 H :    0.031971
  32 H :    0.017257
  33 H :    0.037893

  Mayer bond orders larger than 0.100000
B(  0-S ,  1-C ) :   1.1255 B(  0-S ,  4-C ) :   1.1660 B(  1-C ,  2-C ) :   1.6200
B(  1-C , 32-H ) :   0.9730 B(  2-C ,  3-C ) :   1.2370 B(  2-C ,  6-C ) :   1.0122
B(  3-C ,  4-C ) :   1.5779 B(  3-C ,  5-H ) :   0.9926 B(  4-C , 20-C ) :   0.9994
B(  6-C ,  7-H ) :   0.9351 B(  6-C ,  8-H ) :   0.9359 B(  6-C ,  9-C ) :   1.0836
B(  9-C , 10-H ) :   0.9548 B(  9-C , 11-H ) :   0.9504 B(  9-C , 12-C ) :   1.0784
B( 12-C , 13-H ) :   0.9741 B( 12-C , 14-H ) :   0.9754 B( 12-C , 15-H ) :   0.9763
B( 16-S , 17-C ) :   1.1454 B( 16-S , 20-C ) :   1.1431 B( 17-C , 18-C ) :   1.6194
B( 17-C , 33-H ) :   0.9616 B( 18-C , 19-C ) :   1.2346 B( 18-C , 21-H ) :   0.9887
B( 19-C , 20-C ) :   1.6088 B( 19-C , 22-C ) :   1.0409 B( 22-C , 23-H ) :   0.9201
B( 22-C , 24-H ) :   0.9233 B( 22-C , 25-C ) :   1.0611 B( 25-C , 26-H ) :   0.9490
B( 25-C , 27-H ) :   0.9578 B( 25-C , 28-C ) :   1.0885 B( 28-C , 29-H ) :   0.9705
B( 28-C , 30-H ) :   0.9725 B( 28-C , 31-H ) :   0.9752

Dispersion correction           -0.013826977
FINAL SINGLE POINT ENERGY     -1339.885784972695

DIPOLE MOMENT
-------------
                                X             Y             Z
Electronic contribution:      7.23693      -3.45353      -7.78365
Nuclear contribution   :     -7.54085       3.28683       8.01772
                        -----------------------------------------
Total Dipole Moment    :     -0.30392      -0.16670       0.23407
                        -----------------------------------------
Magnitude (a.u.)       :      0.41826
Magnitude (Debye)      :      1.06314

Rotational constants in cm-1:     0.022962     0.007498     0.005956
Rotational constants in MHz :   688.376532   224.792892   178.568641

                             ****ORCA TERMINATED NORMALLY****
TOTAL RUN TIME: 0 days 0 hours 0 minutes 28 seconds 903 msec
