                         Program Version 4.2.1 -  RELEASE  -
|  1> ! wB97X-D3 SP def2-SVP
|  2> %pal
|  3> nprocs 16
|  4> end
|  5>
|  6> * xyz 0 1
|  7> S 	 -13.7746 	 36.1745 	 35.776
|  8> C 	 -13.5054 	 36.9026 	 37.3471
|  9> C 	 -13.2011 	 35.8804 	 38.2232
| 10> C 	 -13.2424 	 34.5884 	 37.6525
| 11> C 	 -13.5315 	 34.589 	 36.299
| 12> H 	 -12.9258 	 33.6881 	 38.1292
| 13> C 	 -13.0046 	 36.0455 	 39.7061
| 14> H 	 -13.2433 	 37.0718 	 39.809
| 15> H 	 -11.9825 	 35.8993 	 39.9308
| 16> C 	 -14.035 	 35.2216 	 40.5474
| 17> H 	 -14.3136 	 34.3802 	 39.9807
| 18> H 	 -13.5438 	 34.8002 	 41.3843
| 19> C 	 -15.3594 	 35.9198 	 40.8634
| 20> H 	 -15.1454 	 36.8995 	 41.3225
| 21> H 	 -15.9972 	 36.1898 	 39.9898
| 22> H 	 -16.013 	 35.2759 	 41.5532
| 23> S 	 -13.6323 	 33.6375 	 33.749
| 24> C 	 -14.1521 	 31.9146 	 33.4882
| 25> C 	 -14.4337 	 31.2778 	 34.684
| 26> C 	 -14.1825 	 32.1544 	 35.8134
| 27> C 	 -13.783 	 33.4532 	 35.4292
| 28> H 	 -14.7719 	 30.2713 	 34.7575
| 29> C 	 -14.5882 	 31.6244 	 37.1585
| 30> H 	 -15.3518 	 30.9513 	 36.8864
| 31> H 	 -15.0887 	 32.3455 	 37.7645
| 32> C 	 -13.5938 	 30.7461 	 37.9137
| 33> H 	 -12.6342 	 31.1858 	 37.9712
| 34> H 	 -13.466 	 29.691 	 37.4995
| 35> C 	 -14.0557 	 30.3784 	 39.3216
| 36> H 	 -15.0895 	 30.0159 	 39.3784
| 37> H 	 -13.9449 	 31.2935 	 39.9742
| 38> H 	 -13.2687 	 29.6774 	 39.7469
| 39> H 	 -13.7996 	 37.9208 	 37.604
| 40> H 	 -14.3714 	 31.5014 	 32.505
| 41> *
| 42>
| 43>                          ****END OF INPUT****

CARTESIAN COORDINATES (ANGSTROEM)
---------------------------------
  S    -13.774600   36.174500   35.776000
  C    -13.505400   36.902600   37.347100
  C    -13.201100   35.880400   38.223200
  C    -13.242400   34.588400   37.652500
  C    -13.531500   34.589000   36.299000
  H    -12.925800   33.688100   38.129200
  C    -13.004600   36.045500   39.706100
  H    -13.243300   37.071800   39.809000
  H    -11.982500   35.899300   39.930800
  C    -14.035000   35.221600   40.547400
  H    -14.313600   34.380200   39.980700
  H    -13.543800   34.800200   41.384300
  C    -15.359400   35.919800   40.863400
  H    -15.145400   36.899500   41.322500
  H    -15.997200   36.189800   39.989800
  H    -16.013000   35.275900   41.553200
  S    -13.632300   33.637500   33.749000
  C    -14.152100   31.914600   33.488200
  C    -14.433700   31.277800   34.684000
  C    -14.182500   32.154400   35.813400
  C    -13.783000   33.453200   35.429200
  H    -14.771900   30.271300   34.757500
  C    -14.588200   31.624400   37.158500
  H    -15.351800   30.951300   36.886400
  H    -15.088700   32.345500   37.764500
  C    -13.593800   30.746100   37.913700
  H    -12.634200   31.185800   37.971200
  H    -13.466000   29.691000   37.499500
  C    -14.055700   30.378400   39.321600
  H    -15.089500   30.015900   39.378400
  H    -13.944900   31.293500   39.974200
  H    -13.268700   29.677400   39.746900
  H    -13.799600   37.920800   37.604000
  H    -14.371400   31.501400   32.505000

 Total Charge           Charge          ....    0
 Multiplicity           Mult            ....    1
 Number of Electrons    NEL             ....  134
 Basis Dimension        Dim             ....  322

ORBITAL ENERGIES
----------------

  NO   OCC          E(Eh)            E(eV)
   0   2.0000     -88.969048     -2420.9709
   1   2.0000     -88.963074     -2420.8083
   2   2.0000     -10.328840      -281.0620
   3   2.0000     -10.326450      -280.9970
   4   2.0000     -10.324426      -280.9419
   5   2.0000     -10.313576      -280.6467
   6   2.0000     -10.305232      -280.4196
   7   2.0000     -10.298551      -280.2378
   8   2.0000     -10.297025      -280.1963
   9   2.0000     -10.288879      -279.9746
  10   2.0000     -10.288483      -279.9639
  11   2.0000     -10.288197      -279.9561
  12   2.0000     -10.285972      -279.8955
  13   2.0000     -10.285176      -279.8739
  14   2.0000     -10.284173      -279.8466
  15   2.0000     -10.281357      -279.7699
  16   2.0000      -8.083722      -219.9693
  17   2.0000      -8.079114      -219.8439
  18   2.0000      -6.042297      -164.4193
  19   2.0000      -6.038324      -164.3111
  20   2.0000      -6.037572      -164.2907
  21   2.0000      -6.034326      -164.2023
  22   2.0000      -6.033288      -164.1741
  23   2.0000      -6.030008      -164.0848
  24   2.0000      -1.014572       -27.6079
  25   2.0000      -0.985855       -26.8265
  26   2.0000      -0.917581       -24.9686
  27   2.0000      -0.912328       -24.8257
  28   2.0000      -0.872423       -23.7398
  29   2.0000      -0.854524       -23.2528
  30   2.0000      -0.845391       -23.0042
  31   2.0000      -0.818544       -22.2737
  32   2.0000      -0.782236       -21.2857
  33   2.0000      -0.770521       -20.9669
  34   2.0000      -0.713830       -19.4243
  35   2.0000      -0.699077       -19.0228
  36   2.0000      -0.691406       -18.8141
  37   2.0000      -0.669450       -18.2167
  38   2.0000      -0.640635       -17.4326
  39   2.0000      -0.625209       -17.0128
  40   2.0000      -0.597641       -16.2627
  41   2.0000      -0.572053       -15.5664
  42   2.0000      -0.569835       -15.5060
  43   2.0000      -0.555034       -15.1032
  44   2.0000      -0.533532       -14.5181
  45   2.0000      -0.532920       -14.5015
  46   2.0000      -0.523559       -14.2468
  47   2.0000      -0.515723       -14.0335
  48   2.0000      -0.506347       -13.7784
  49   2.0000      -0.497549       -13.5390
  50   2.0000      -0.490071       -13.3355
  51   2.0000      -0.488460       -13.2917
  52   2.0000      -0.473743       -12.8912
  53   2.0000      -0.464105       -12.6289
  54   2.0000      -0.456632       -12.4256
  55   2.0000      -0.453758       -12.3474
  56   2.0000      -0.446571       -12.1518
  57   2.0000      -0.439458       -11.9582
  58   2.0000      -0.434698       -11.8287
  59   2.0000      -0.428306       -11.6548
  60   2.0000      -0.420088       -11.4312
  61   2.0000      -0.410011       -11.1570
  62   2.0000      -0.407644       -11.0925
  63   2.0000      -0.361143        -9.8272
  64   2.0000      -0.333425        -9.0730
  65   2.0000      -0.328321        -8.9341
  66   2.0000      -0.283949        -7.7267
  67   0.0000       0.021820         0.5937
  68   0.0000       0.083495         2.2720
  69   0.0000       0.099040         2.6950
  70   0.0000       0.117169         3.1883
  71   0.0000       0.124366         3.3842

MULLIKEN ATOMIC CHARGES
-----------------------
   0 S :    0.090504
   1 C :   -0.128462
   2 C :   -0.125538
   3 C :   -0.006338
   4 C :   -0.099323
   5 H :   -0.001659
   6 C :    0.124563
   7 H :   -0.007141
   8 H :    0.034906
   9 C :   -0.033342
  10 H :    0.015784
  11 H :    0.017343
  12 C :   -0.095499
  13 H :    0.031296
  14 H :    0.044179
  15 H :    0.050666
  16 S :    0.100183
  17 C :   -0.094045
  18 C :   -0.005863
  19 C :   -0.074495
  20 C :   -0.104818
  21 H :    0.017424
  22 C :    0.086632
  23 H :   -0.000524
  24 H :    0.025873
  25 C :   -0.082279
  26 H :    0.027079
  27 H :    0.035448
  28 C :   -0.081852
  29 H :    0.044264
  30 H :    0.028320
  31 H :    0.045647
  32 H :    0.059649
  33 H :    0.061418
Sum of atomic charges:   -0.0000000

LOEWDIN ATOMIC CHARGES
----------------------
   0 S :    0.426374
   1 C :   -0.210380
   2 C :   -0.059803
   3 C :   -0.076362
   4 C :   -0.200030
   5 H :    0.026125
   6 C :   -0.020447
   7 H :    0.022982
   8 H :    0.029765
   9 C :   -0.035944
  10 H :    0.017272
  11 H :    0.020505
  12 C :   -0.071902
  13 H :    0.021970
  14 H :    0.030397
  15 H :    0.036773
  16 S :    0.400560
  17 C :   -0.166256
  18 C :   -0.055751
  19 C :   -0.054287
  20 C :   -0.211711
  21 H :    0.031012
  22 C :   -0.036449
  23 H :    0.029499
  24 H :    0.027791
  25 C :   -0.043457
  26 H :    0.014894
  27 H :    0.032273
  28 C :   -0.072347
  29 H :    0.025542
  30 H :    0.023098
  31 H :    0.034960
  32 H :    0.033774
  33 H :    0.029558

  Mayer bond orders larger than 0.100000
B(  0-S ,  1-C ) :   1.1311 B(  0-S ,  4-C ) :   1.1827 B(  1-C ,  2-C ) :   1.5894
B(  1-C , 32-H ) :   0.9673 B(  2-C ,  3-C ) :   1.2678 B(  2-C ,  6-C ) :   1.0205
B(  3-C ,  4-C ) :   1.5368 B(  3-C ,  5-H ) :   0.9954 B(  4-C , 20-C ) :   1.0593
B(  6-C ,  7-H ) :   0.9424 B(  6-C ,  8-H ) :   0.9344 B(  6-C ,  9-C ) :   1.0542
B(  9-C , 10-H ) :   0.9586 B(  9-C , 11-H ) :   0.9543 B(  9-C , 12-C ) :   1.0738
B( 12-C , 13-H ) :   0.9761 B( 12-C , 14-H ) :   0.9758 B( 12-C , 15-H ) :   0.9732
B( 16-S , 17-C ) :   1.1294 B( 16-S , 20-C ) :   1.1416 B( 17-C , 18-C ) :   1.6186
B( 17-C , 33-H ) :   0.9674 B( 18-C , 19-C ) :   1.2479 B( 18-C , 21-H ) :   0.9879
B( 19-C , 20-C ) :   1.5678 B( 19-C , 22-C ) :   1.0449 B( 22-C , 23-H ) :   0.9173
B( 22-C , 24-H ) :   0.9411 B( 22-C , 25-C ) :   1.0541 B( 25-C , 26-H ) :   0.9558
B( 25-C , 27-H ) :   0.9559 B( 25-C , 28-C ) :   1.0826 B( 28-C , 29-H ) :   0.9727
B( 28-C , 30-H ) :   0.9741 B( 28-C , 31-H ) :   0.9734

Dispersion correction           -0.014771911
FINAL SINGLE POINT ENERGY     -1339.868275844950

DIPOLE MOMENT
-------------
                                X             Y             Z
Electronic contribution:      4.69788      10.48343     -30.27491
Nuclear contribution   :     -4.93883     -10.93990      30.84295
                        -----------------------------------------
Total Dipole Moment    :     -0.24095      -0.45647       0.56805
                        -----------------------------------------
Magnitude (a.u.)       :      0.76753
Magnitude (Debye)      :      1.95090

Rotational constants in cm-1:     0.017011     0.010601     0.006960
Rotational constants in MHz :   509.976137   317.806471   208.660444

                             ****ORCA TERMINATED NORMALLY****
TOTAL RUN TIME: 0 days 0 hours 0 minutes 37 seconds 652 msec
