                         Program Version 4.2.1 -  RELEASE  -
|  1> ! wB97X-D3 SP def2-SVP
|  2> %pal
|  3> nprocs 16
|  4> end
|  5>
|  6> * xyz 0 1
|  7> S 	 -77.7102 	 47.7287 	 122.758
|  8> C 	 -78.016 	 45.9994 	 122.427
|  9> C 	 -77.295 	 45.1889 	 123.333
| 10> C 	 -76.3944 	 45.9578 	 124.163
| 11> C 	 -76.4009 	 47.3218 	 123.934
| 12> H 	 -75.6417 	 45.6082 	 124.888
| 13> C 	 -77.3954 	 43.6812 	 123.42
| 14> H 	 -77.2388 	 43.4307 	 122.328
| 15> H 	 -78.4137 	 43.465 	 123.709
| 16> C 	 -76.3726 	 42.9367 	 124.263
| 17> H 	 -76.2811 	 43.3982 	 125.253
| 18> H 	 -76.766 	 41.8936 	 124.382
| 19> C 	 -75.041 	 42.8829 	 123.455
| 20> H 	 -74.4111 	 42.1507 	 123.864
| 21> H 	 -75.3433 	 42.6568 	 122.375
| 22> H 	 -74.5932 	 43.8968 	 123.341
| 23> S 	 -76.5884 	 49.1379 	 126.091
| 24> C 	 -75.2207 	 50.2032 	 126.42
| 25> C 	 -74.1597 	 49.9492 	 125.598
| 26> C 	 -74.4844 	 48.9708 	 124.594
| 27> C 	 -75.7792 	 48.4184 	 124.668
| 28> H 	 -73.2262 	 50.4691 	 125.725
| 29> C 	 -73.5933 	 48.6627 	 123.423
| 30> H 	 -73.7862 	 47.7141 	 122.987
| 31> H 	 -72.5637 	 48.6386 	 123.767
| 32> C 	 -73.7505 	 49.6434 	 122.328
| 33> H 	 -73.4737 	 50.6604 	 122.682
| 34> H 	 -74.8592 	 49.631 	 122.066
| 35> C 	 -73.0249 	 49.3092 	 121.037
| 36> H 	 -71.9928 	 49.0041 	 121.171
| 37> H 	 -73.2082 	 50.1027 	 120.275
| 38> H 	 -73.3598 	 48.3691 	 120.607
| 39> H 	 -78.7847 	 45.6896 	 121.751
| 40> H 	 -75.1748 	 50.8954 	 127.22
| 41> *
| 42>
| 43>                          ****END OF INPUT****

CARTESIAN COORDINATES (ANGSTROEM)
---------------------------------
  S    -77.710200   47.728700  122.758000
  C    -78.016000   45.999400  122.427000
  C    -77.295000   45.188900  123.333000
  C    -76.394400   45.957800  124.163000
  C    -76.400900   47.321800  123.934000
  H    -75.641700   45.608200  124.888000
  C    -77.395400   43.681200  123.420000
  H    -77.238800   43.430700  122.328000
  H    -78.413700   43.465000  123.709000
  C    -76.372600   42.936700  124.263000
  H    -76.281100   43.398200  125.253000
  H    -76.766000   41.893600  124.382000
  C    -75.041000   42.882900  123.455000
  H    -74.411100   42.150700  123.864000
  H    -75.343300   42.656800  122.375000
  H    -74.593200   43.896800  123.341000
  S    -76.588400   49.137900  126.091000
  C    -75.220700   50.203200  126.420000
  C    -74.159700   49.949200  125.598000
  C    -74.484400   48.970800  124.594000
  C    -75.779200   48.418400  124.668000
  H    -73.226200   50.469100  125.725000
  C    -73.593300   48.662700  123.423000
  H    -73.786200   47.714100  122.987000
  H    -72.563700   48.638600  123.767000
  C    -73.750500   49.643400  122.328000
  H    -73.473700   50.660400  122.682000
  H    -74.859200   49.631000  122.066000
  C    -73.024900   49.309200  121.037000
  H    -71.992800   49.004100  121.171000
  H    -73.208200   50.102700  120.275000
  H    -73.359800   48.369100  120.607000
  H    -78.784700   45.689600  121.751000
  H    -75.174800   50.895400  127.220000

 Total Charge           Charge          ....    0
 Multiplicity           Mult            ....    1
 Number of Electrons    NEL             ....  134
 Basis Dimension        Dim             ....  322

ORBITAL ENERGIES
----------------

  NO   OCC          E(Eh)            E(eV)
   0   2.0000     -88.963989     -2420.8332
   1   2.0000     -88.963507     -2420.8201
   2   2.0000     -10.334427      -281.2141
   3   2.0000     -10.328849      -281.0623
   4   2.0000     -10.320571      -280.8370
   5   2.0000     -10.317991      -280.7668
   6   2.0000     -10.310377      -280.5596
   7   2.0000     -10.306025      -280.4412
   8   2.0000     -10.302437      -280.3436
   9   2.0000     -10.294991      -280.1409
  10   2.0000     -10.294972      -280.1404
  11   2.0000     -10.294597      -280.1302
  12   2.0000     -10.284739      -279.8620
  13   2.0000     -10.282037      -279.7884
  14   2.0000     -10.278559      -279.6938
  15   2.0000     -10.274095      -279.5723
  16   2.0000      -8.077501      -219.8000
  17   2.0000      -8.077301      -219.7945
  18   2.0000      -6.036061      -164.2496
  19   2.0000      -6.035799      -164.2424
  20   2.0000      -6.032068      -164.1409
  21   2.0000      -6.032028      -164.1398
  22   2.0000      -6.028268      -164.0375
  23   2.0000      -6.028117      -164.0334
  24   2.0000      -0.996890       -27.1268
  25   2.0000      -0.975665       -26.5492
  26   2.0000      -0.914504       -24.8849
  27   2.0000      -0.914187       -24.8763
  28   2.0000      -0.868683       -23.6381
  29   2.0000      -0.844376       -22.9766
  30   2.0000      -0.838669       -22.8213
  31   2.0000      -0.818323       -22.2677
  32   2.0000      -0.780986       -21.2517
  33   2.0000      -0.767313       -20.8796
  34   2.0000      -0.711373       -19.3574
  35   2.0000      -0.693178       -18.8623
  36   2.0000      -0.688882       -18.7454
  37   2.0000      -0.660183       -17.9645
  38   2.0000      -0.641806       -17.4644
  39   2.0000      -0.619436       -16.8557
  40   2.0000      -0.599192       -16.3049
  41   2.0000      -0.570816       -15.5327
  42   2.0000      -0.565365       -15.3844
  43   2.0000      -0.560086       -15.2407
  44   2.0000      -0.533828       -14.5262
  45   2.0000      -0.528947       -14.3934
  46   2.0000      -0.519831       -14.1453
  47   2.0000      -0.507886       -13.8203
  48   2.0000      -0.506606       -13.7854
  49   2.0000      -0.502789       -13.6816
  50   2.0000      -0.490246       -13.3403
  51   2.0000      -0.476891       -12.9769
  52   2.0000      -0.463720       -12.6185
  53   2.0000      -0.459276       -12.4975
  54   2.0000      -0.450815       -12.2673
  55   2.0000      -0.444060       -12.0835
  56   2.0000      -0.443018       -12.0551
  57   2.0000      -0.437439       -11.9033
  58   2.0000      -0.432973       -11.7818
  59   2.0000      -0.429388       -11.6843
  60   2.0000      -0.419287       -11.4094
  61   2.0000      -0.414801       -11.2873
  62   2.0000      -0.402558       -10.9542
  63   2.0000      -0.337872        -9.1940
  64   2.0000      -0.327967        -8.9244
  65   2.0000      -0.317778        -8.6472
  66   2.0000      -0.307125        -8.3573
  67   0.0000       0.035601         0.9688
  68   0.0000       0.047019         1.2795
  69   0.0000       0.112601         3.0640
  70   0.0000       0.117109         3.1867
  71   0.0000       0.128055         3.4846

MULLIKEN ATOMIC CHARGES
-----------------------
   0 S :    0.089614
   1 C :   -0.115508
   2 C :   -0.105611
   3 C :    0.043346
   4 C :   -0.189472
   5 H :    0.031867
   6 C :    0.031213
   7 H :    0.043577
   8 H :    0.043078
   9 C :   -0.079532
  10 H :    0.043393
  11 H :    0.041040
  12 C :   -0.061048
  13 H :    0.039404
  14 H :    0.031257
  15 H :    0.046161
  16 S :    0.103556
  17 C :   -0.073011
  18 C :   -0.022352
  19 C :   -0.036792
  20 C :   -0.156338
  21 H :    0.019050
  22 C :    0.103653
  23 H :    0.006937
  24 H :    0.010887
  25 C :   -0.094762
  26 H :    0.026105
  27 H :    0.033566
  28 C :   -0.027000
  29 H :    0.016190
  30 H :    0.050208
  31 H :    0.014828
  32 H :    0.047440
  33 H :    0.045057
Sum of atomic charges:    0.0000000

LOEWDIN ATOMIC CHARGES
----------------------
   0 S :    0.371165
   1 C :   -0.183974
   2 C :   -0.060354
   3 C :   -0.062381
   4 C :   -0.182011
   5 H :    0.040226
   6 C :   -0.040820
   7 H :    0.041555
   8 H :    0.031610
   9 C :   -0.045214
  10 H :    0.025071
  11 H :    0.034050
  12 C :   -0.064191
  13 H :    0.017535
  14 H :    0.033044
  15 H :    0.030066
  16 S :    0.385337
  17 C :   -0.163948
  18 C :   -0.072976
  19 C :   -0.040030
  20 C :   -0.206176
  21 H :    0.033474
  22 C :   -0.034826
  23 H :    0.024153
  24 H :    0.025843
  25 C :   -0.045068
  26 H :    0.022191
  27 H :    0.031623
  28 C :   -0.072756
  29 H :    0.021507
  30 H :    0.035303
  31 H :    0.023711
  32 H :    0.023879
  33 H :    0.023384

  Mayer bond orders larger than 0.100000
B(  0-S ,  1-C ) :   1.1390 B(  0-S ,  4-C ) :   1.1367 B(  1-C ,  2-C ) :   1.6075
B(  1-C ,  4-C ) :   0.1079 B(  1-C , 32-H ) :   0.9784 B(  2-C ,  3-C ) :   1.2228
B(  2-C ,  6-C ) :   0.9860 B(  3-C ,  4-C ) :   1.6100 B(  3-C ,  5-H ) :   0.9807
B(  4-C , 20-C ) :   1.0218 B(  6-C ,  7-H ) :   0.9472 B(  6-C ,  8-H ) :   0.9359
B(  6-C ,  9-C ) :   1.0935 B(  9-C , 10-H ) :   0.9457 B(  9-C , 11-H ) :   0.9522
B(  9-C , 12-C ) :   1.0669 B( 12-C , 13-H ) :   0.9766 B( 12-C , 14-H ) :   0.9727
B( 12-C , 15-H ) :   0.9754 B( 16-S , 17-C ) :   1.1603 B( 16-S , 20-C ) :   1.1191
B( 17-C , 18-C ) :   1.6124 B( 17-C , 33-H ) :   0.9686 B( 18-C , 19-C ) :   1.2333
B( 18-C , 21-H ) :   0.9948 B( 19-C , 20-C ) :   1.5989 B( 19-C , 22-C ) :   1.0643
B( 22-C , 23-H ) :   0.9243 B( 22-C , 24-H ) :   0.9204 B( 22-C , 25-C ) :   1.0784
B( 25-C , 26-H ) :   0.9529 B( 25-C , 27-H ) :   0.9487 B( 25-C , 28-C ) :   1.0878
B( 28-C , 29-H ) :   0.9690 B( 28-C , 30-H ) :   0.9727 B( 28-C , 31-H ) :   0.9675

Dispersion correction           -0.014569242
FINAL SINGLE POINT ENERGY     -1339.877046467723

DIPOLE MOMENT
-------------
                                X             Y             Z
Electronic contribution:    -15.38089      13.93777      11.34785
Nuclear contribution   :     15.74594     -14.41504     -11.32882
                        -----------------------------------------
Total Dipole Moment    :      0.36505      -0.47728       0.01903
                        -----------------------------------------
Magnitude (a.u.)       :      0.60118
Magnitude (Debye)      :      1.52807

Rotational constants in cm-1:     0.017400     0.008663     0.007688
Rotational constants in MHz :   521.630049   259.704749   230.465834

                             ****ORCA TERMINATED NORMALLY****
TOTAL RUN TIME: 0 days 0 hours 0 minutes 34 seconds 189 msec
