                         Program Version 4.2.1 -  RELEASE  -
|  1> ! wB97X-D3 SP def2-SVP
|  2> %pal
|  3> nprocs 16
|  4> end
|  5>
|  6> * xyz 0 1
|  7> S 	 -96.0978 	 45.5385 	 123.634
|  8> C 	 -95.1528 	 45.8119 	 125.065
|  9> C 	 -95.644 	 46.9173 	 125.728
| 10> C 	 -96.5985 	 47.6267 	 125.004
| 11> C 	 -96.9368 	 47.0497 	 123.783
| 12> H 	 -97.1247 	 48.5347 	 125.191
| 13> C 	 -95.2784 	 47.2265 	 127.173
| 14> H 	 -95.3775 	 48.3079 	 127.292
| 15> H 	 -94.2309 	 46.966 	 127.123
| 16> C 	 -96.0306 	 46.4513 	 128.266
| 17> H 	 -95.8357 	 45.4278 	 128.066
| 18> H 	 -95.5873 	 46.7569 	 129.202
| 19> C 	 -97.5841 	 46.8124 	 128.375
| 20> H 	 -97.9591 	 46.4773 	 127.387
| 21> H 	 -97.9246 	 46.2414 	 129.297
| 22> H 	 -97.8229 	 47.8365 	 128.526
| 23> S 	 -97.9183 	 49.0491 	 122.3
| 24> C 	 -99.4484 	 48.872 	 121.364
| 25> C 	 -99.9687 	 47.578 	 121.593
| 26> C 	 -99.1945 	 46.8126 	 122.511
| 27> C 	 -98.0542 	 47.4769 	 122.933
| 28> H 	 -100.832 	 47.2638 	 120.984
| 29> C 	 -99.7168 	 45.4404 	 123.064
| 30> H 	 -98.9109 	 44.6961 	 122.865
| 31> H 	 -100.49 	 45.0887 	 122.391
| 32> C 	 -100.211 	 45.565 	 124.548
| 33> H 	 -100.921 	 46.4434 	 124.567
| 34> H 	 -99.3698 	 46.0103 	 125.155
| 35> C 	 -100.851 	 44.2164 	 125.108
| 36> H 	 -100.141 	 43.4364 	 125.323
| 37> H 	 -101.497 	 43.7691 	 124.388
| 38> H 	 -101.422 	 44.4134 	 126.009
| 39> H 	 -94.3821 	 45.2082 	 125.549
| 40> H 	 -99.8148 	 49.6276 	 120.704
| 41> *
| 42>
| 43>                          ****END OF INPUT****

CARTESIAN COORDINATES (ANGSTROEM)
---------------------------------
  S    -96.097800   45.538500  123.634000
  C    -95.152800   45.811900  125.065000
  C    -95.644000   46.917300  125.728000
  C    -96.598500   47.626700  125.004000
  C    -96.936800   47.049700  123.783000
  H    -97.124700   48.534700  125.191000
  C    -95.278400   47.226500  127.173000
  H    -95.377500   48.307900  127.292000
  H    -94.230900   46.966000  127.123000
  C    -96.030600   46.451300  128.266000
  H    -95.835700   45.427800  128.066000
  H    -95.587300   46.756900  129.202000
  C    -97.584100   46.812400  128.375000
  H    -97.959100   46.477300  127.387000
  H    -97.924600   46.241400  129.297000
  H    -97.822900   47.836500  128.526000
  S    -97.918300   49.049100  122.300000
  C    -99.448400   48.872000  121.364000
  C    -99.968700   47.578000  121.593000
  C    -99.194500   46.812600  122.511000
  C    -98.054200   47.476900  122.933000
  H    -100.832000   47.263800  120.984000
  C    -99.716800   45.440400  123.064000
  H    -98.910900   44.696100  122.865000
  H    -100.490000   45.088700  122.391000
  C    -100.211000   45.565000  124.548000
  H    -100.921000   46.443400  124.567000
  H    -99.369800   46.010300  125.155000
  C    -100.851000   44.216400  125.108000
  H    -100.141000   43.436400  125.323000
  H    -101.497000   43.769100  124.388000
  H    -101.422000   44.413400  126.009000
  H    -94.382100   45.208200  125.549000
  H    -99.814800   49.627600  120.704000

 Total Charge           Charge          ....    0
 Multiplicity           Mult            ....    1
 Number of Electrons    NEL             ....  134
 Basis Dimension        Dim             ....  322

ORBITAL ENERGIES
----------------

  NO   OCC          E(Eh)            E(eV)
   0   2.0000     -88.970365     -2421.0067
   1   2.0000     -88.967208     -2420.9208
   2   2.0000     -10.328434      -281.0510
   3   2.0000     -10.325472      -280.9704
   4   2.0000     -10.322014      -280.8763
   5   2.0000     -10.313439      -280.6429
   6   2.0000     -10.304247      -280.3928
   7   2.0000     -10.301609      -280.3210
   8   2.0000     -10.299022      -280.2506
   9   2.0000     -10.296737      -280.1884
  10   2.0000     -10.295356      -280.1509
  11   2.0000     -10.288837      -279.9735
  12   2.0000     -10.288168      -279.9553
  13   2.0000     -10.287586      -279.9395
  14   2.0000     -10.285527      -279.8834
  15   2.0000     -10.277908      -279.6761
  16   2.0000      -8.084747      -219.9972
  17   2.0000      -8.081888      -219.9194
  18   2.0000      -6.043149      -164.4425
  19   2.0000      -6.040294      -164.3647
  20   2.0000      -6.039237      -164.3360
  21   2.0000      -6.036311      -164.2564
  22   2.0000      -6.035696      -164.2396
  23   2.0000      -6.032851      -164.1622
  24   2.0000      -1.011240       -27.5172
  25   2.0000      -0.986450       -26.8427
  26   2.0000      -0.909111       -24.7382
  27   2.0000      -0.892773       -24.2936
  28   2.0000      -0.868929       -23.6448
  29   2.0000      -0.847616       -23.0648
  30   2.0000      -0.839637       -22.8477
  31   2.0000      -0.814813       -22.1722
  32   2.0000      -0.781147       -21.2561
  33   2.0000      -0.769907       -20.9502
  34   2.0000      -0.706616       -19.2280
  35   2.0000      -0.703718       -19.1491
  36   2.0000      -0.694005       -18.8848
  37   2.0000      -0.668179       -18.1821
  38   2.0000      -0.640737       -17.4353
  39   2.0000      -0.609475       -16.5847
  40   2.0000      -0.586461       -15.9584
  41   2.0000      -0.576618       -15.6906
  42   2.0000      -0.549832       -14.9617
  43   2.0000      -0.547342       -14.8939
  44   2.0000      -0.541798       -14.7431
  45   2.0000      -0.519250       -14.1295
  46   2.0000      -0.514291       -13.9946
  47   2.0000      -0.510825       -13.9003
  48   2.0000      -0.509542       -13.8653
  49   2.0000      -0.494060       -13.4441
  50   2.0000      -0.489211       -13.3121
  51   2.0000      -0.483904       -13.1677
  52   2.0000      -0.471783       -12.8379
  53   2.0000      -0.464955       -12.6521
  54   2.0000      -0.462559       -12.5869
  55   2.0000      -0.448199       -12.1961
  56   2.0000      -0.445038       -12.1101
  57   2.0000      -0.436703       -11.8833
  58   2.0000      -0.434445       -11.8219
  59   2.0000      -0.424337       -11.5468
  60   2.0000      -0.418345       -11.3837
  61   2.0000      -0.410523       -11.1709
  62   2.0000      -0.405689       -11.0394
  63   2.0000      -0.345376        -9.3982
  64   2.0000      -0.334543        -9.1034
  65   2.0000      -0.328959        -8.9514
  66   2.0000      -0.292567        -7.9611
  67   0.0000       0.029724         0.8088
  68   0.0000       0.064439         1.7535
  69   0.0000       0.110471         3.0061
  70   0.0000       0.122238         3.3263
  71   0.0000       0.129131         3.5138

MULLIKEN ATOMIC CHARGES
-----------------------
   0 S :    0.127594
   1 C :   -0.118537
   2 C :   -0.106876
   3 C :    0.027516
   4 C :   -0.144311
   5 H :   -0.000880
   6 C :    0.061944
   7 H :    0.021530
   8 H :    0.021692
   9 C :   -0.031555
  10 H :    0.020626
  11 H :    0.029460
  12 C :   -0.086438
  13 H :    0.061234
  14 H :    0.051443
  15 H :    0.031680
  16 S :    0.106684
  17 C :   -0.110718
  18 C :   -0.043103
  19 C :   -0.058951
  20 C :   -0.180506
  21 H :    0.036824
  22 C :    0.080726
  23 H :    0.030769
  24 H :    0.008643
  25 C :   -0.101566
  26 H :    0.036048
  27 H :    0.049405
  28 C :   -0.016241
  29 H :    0.033032
  30 H :    0.020712
  31 H :    0.038151
  32 H :    0.047896
  33 H :    0.056070
Sum of atomic charges:    0.0000000

LOEWDIN ATOMIC CHARGES
----------------------
   0 S :    0.433500
   1 C :   -0.210797
   2 C :   -0.071389
   3 C :   -0.066750
   4 C :   -0.203273
   5 H :    0.025627
   6 C :   -0.032299
   7 H :    0.027281
   8 H :    0.030165
   9 C :   -0.029017
  10 H :    0.018756
  11 H :    0.021942
  12 C :   -0.066322
  13 H :    0.030830
  14 H :    0.037303
  15 H :    0.018379
  16 S :    0.418157
  17 C :   -0.176967
  18 C :   -0.067294
  19 C :   -0.068143
  20 C :   -0.212852
  21 H :    0.038610
  22 C :   -0.034131
  23 H :    0.026662
  24 H :    0.023672
  25 C :   -0.044237
  26 H :    0.030603
  27 H :    0.030408
  28 C :   -0.062899
  29 H :    0.026185
  30 H :    0.021448
  31 H :    0.028428
  32 H :    0.034347
  33 H :    0.024069

  Mayer bond orders larger than 0.100000
B(  0-S ,  1-C ) :   1.1521 B(  0-S ,  4-C ) :   1.1693 B(  1-C ,  2-C ) :   1.5782
B(  1-C ,  4-C ) :   0.1009 B(  1-C , 32-H ) :   0.9661 B(  2-C ,  3-C ) :   1.2697
B(  2-C ,  6-C ) :   1.0091 B(  3-C ,  4-C ) :   1.5340 B(  3-C ,  5-H ) :   1.0019
B(  4-C , 20-C ) :   1.0103 B(  6-C ,  7-H ) :   0.9430 B(  6-C ,  8-H ) :   0.9358
B(  6-C ,  9-C ) :   1.0713 B(  9-C , 10-H ) :   0.9560 B(  9-C , 11-H ) :   0.9561
B(  9-C , 12-C ) :   1.0639 B( 12-C , 13-H ) :   0.9769 B( 12-C , 14-H ) :   0.9746
B( 12-C , 15-H ) :   0.9770 B( 16-S , 17-C ) :   1.1488 B( 16-S , 20-C ) :   1.1744
B( 17-C , 18-C ) :   1.5866 B( 17-C , 20-C ) :   0.1085 B( 17-C , 33-H ) :   0.9754
B( 18-C , 19-C ) :   1.2625 B( 18-C , 21-H ) :   0.9844 B( 19-C , 20-C ) :   1.5740
B( 19-C , 22-C ) :   1.0317 B( 22-C , 23-H ) :   0.9357 B( 22-C , 24-H ) :   0.9341
B( 22-C , 25-C ) :   1.0451 B( 25-C , 26-H ) :   0.9545 B( 25-C , 27-H ) :   0.9587
B( 25-C , 28-C ) :   1.0594 B( 28-C , 29-H ) :   0.9773 B( 28-C , 30-H ) :   0.9762
B( 28-C , 31-H ) :   0.9777

Dispersion correction           -0.015661547
FINAL SINGLE POINT ENERGY     -1339.871442090723

DIPOLE MOMENT
-------------
                                X             Y             Z
Electronic contribution:     10.03974       9.53274     -21.61908
Nuclear contribution   :    -10.31776      -9.68498      22.02660
                        -----------------------------------------
Total Dipole Moment    :     -0.27802      -0.15224       0.40751
                        -----------------------------------------
Magnitude (a.u.)       :      0.51628
Magnitude (Debye)      :      1.31228

Rotational constants in cm-1:     0.017774     0.009716     0.008047
Rotational constants in MHz :   532.861133   291.267772   241.239791

                             ****ORCA TERMINATED NORMALLY****
TOTAL RUN TIME: 0 days 0 hours 0 minutes 35 seconds 519 msec
