                         Program Version 4.2.1 -  RELEASE  -
|  1> ! wB97X-D3 SP def2-SVP
|  2> %pal
|  3> nprocs 16
|  4> end
|  5>
|  6> * xyz 0 1
|  7> S 	 36.2636 	 8.31279 	 90.937
|  8> C 	 34.9887 	 8.04127 	 89.7535
|  9> C 	 35.479 	 7.8539 	 88.5034
| 10> C 	 36.8866 	 8.12663 	 88.4274
| 11> C 	 37.4777 	 8.46723 	 89.6297
| 12> H 	 37.4658 	 8.01371 	 87.535
| 13> C 	 34.6341 	 7.49891 	 87.3141
| 14> H 	 33.5824 	 7.19052 	 87.5906
| 15> H 	 35.1387 	 6.6473 	 86.856
| 16> C 	 34.5676 	 8.5888 	 86.186
| 17> H 	 35.5555 	 8.71049 	 85.8293
| 18> H 	 33.9927 	 8.09813 	 85.389
| 19> C 	 33.8191 	 9.81163 	 86.6069
| 20> H 	 32.7629 	 9.83984 	 86.2407
| 21> H 	 33.8433 	 9.93926 	 87.6635
| 22> H 	 34.2316 	 10.7051 	 86.1768
| 23> S 	 39.6314 	 7.59952 	 91.1452
| 24> C 	 41.2037 	 7.6206 	 90.5121
| 25> C 	 41.244 	 8.46004 	 89.4108
| 26> C 	 39.9454 	 8.80282 	 88.8751
| 27> C 	 38.9387 	 8.42265 	 89.7366
| 28> H 	 42.2344 	 8.78465 	 89.046
| 29> C 	 39.8256 	 9.65652 	 87.6017
| 30> H 	 38.8636 	 10.02 	 87.4008
| 31> H 	 40.1792 	 9.16099 	 86.731
| 32> C 	 40.5928 	 10.997 	 87.5913
| 33> H 	 41.6117 	 10.8639 	 87.9213
| 34> H 	 40.3003 	 11.7318 	 88.3648
| 35> C 	 40.5831 	 11.748 	 86.2061
| 36> H 	 40.9243 	 11.1443 	 85.3824
| 37> H 	 41.275 	 12.6059 	 86.301
| 38> H 	 39.563 	 12.1216 	 85.8213
| 39> H 	 33.9443 	 7.87822 	 89.9822
| 40> H 	 42.0927 	 7.1838 	 90.9895
| 41> *
| 42>
| 43>                          ****END OF INPUT****

CARTESIAN COORDINATES (ANGSTROEM)
---------------------------------
  S     36.263600    8.312790   90.937000
  C     34.988700    8.041270   89.753500
  C     35.479000    7.853900   88.503400
  C     36.886600    8.126630   88.427400
  C     37.477700    8.467230   89.629700
  H     37.465800    8.013710   87.535000
  C     34.634100    7.498910   87.314100
  H     33.582400    7.190520   87.590600
  H     35.138700    6.647300   86.856000
  C     34.567600    8.588800   86.186000
  H     35.555500    8.710490   85.829300
  H     33.992700    8.098130   85.389000
  C     33.819100    9.811630   86.606900
  H     32.762900    9.839840   86.240700
  H     33.843300    9.939260   87.663500
  H     34.231600   10.705100   86.176800
  S     39.631400    7.599520   91.145200
  C     41.203700    7.620600   90.512100
  C     41.244000    8.460040   89.410800
  C     39.945400    8.802820   88.875100
  C     38.938700    8.422650   89.736600
  H     42.234400    8.784650   89.046000
  C     39.825600    9.656520   87.601700
  H     38.863600   10.020000   87.400800
  H     40.179200    9.160990   86.731000
  C     40.592800   10.997000   87.591300
  H     41.611700   10.863900   87.921300
  H     40.300300   11.731800   88.364800
  C     40.583100   11.748000   86.206100
  H     40.924300   11.144300   85.382400
  H     41.275000   12.605900   86.301000
  H     39.563000   12.121600   85.821300
  H     33.944300    7.878220   89.982200
  H     42.092700    7.183800   90.989500

 Total Charge           Charge          ....    0
 Multiplicity           Mult            ....    1
 Number of Electrons    NEL             ....  134
 Basis Dimension        Dim             ....  322

ORBITAL ENERGIES
----------------

  NO   OCC          E(Eh)            E(eV)
   0   2.0000     -88.969076     -2420.9716
   1   2.0000     -88.962957     -2420.8051
   2   2.0000     -10.335166      -281.2342
   3   2.0000     -10.332382      -281.1584
   4   2.0000     -10.315690      -280.7042
   5   2.0000     -10.313297      -280.6391
   6   2.0000     -10.308368      -280.5050
   7   2.0000     -10.297932      -280.2210
   8   2.0000     -10.296807      -280.1904
   9   2.0000     -10.296340      -280.1777
  10   2.0000     -10.293812      -280.1089
  11   2.0000     -10.289575      -279.9936
  12   2.0000     -10.289456      -279.9903
  13   2.0000     -10.289106      -279.9808
  14   2.0000     -10.284037      -279.8429
  15   2.0000     -10.270625      -279.4779
  16   2.0000      -8.082833      -219.9451
  17   2.0000      -8.078692      -219.8324
  18   2.0000      -6.041687      -164.4027
  19   2.0000      -6.037592      -164.2912
  20   2.0000      -6.037240      -164.2817
  21   2.0000      -6.033165      -164.1708
  22   2.0000      -6.033075      -164.1683
  23   2.0000      -6.029315      -164.0660
  24   2.0000      -1.007912       -27.4267
  25   2.0000      -0.986251       -26.8373
  26   2.0000      -0.912586       -24.8327
  27   2.0000      -0.907054       -24.6822
  28   2.0000      -0.873227       -23.7617
  29   2.0000      -0.850933       -23.1551
  30   2.0000      -0.842123       -22.9153
  31   2.0000      -0.812708       -22.1149
  32   2.0000      -0.783805       -21.3284
  33   2.0000      -0.776943       -21.1417
  34   2.0000      -0.709632       -19.3101
  35   2.0000      -0.700714       -19.0674
  36   2.0000      -0.695911       -18.9367
  37   2.0000      -0.658128       -17.9086
  38   2.0000      -0.635165       -17.2837
  39   2.0000      -0.624223       -16.9860
  40   2.0000      -0.602777       -16.4024
  41   2.0000      -0.567628       -15.4459
  42   2.0000      -0.560751       -15.2588
  43   2.0000      -0.554101       -15.0779
  44   2.0000      -0.542993       -14.7756
  45   2.0000      -0.521900       -14.2016
  46   2.0000      -0.513802       -13.9813
  47   2.0000      -0.512305       -13.9405
  48   2.0000      -0.504466       -13.7272
  49   2.0000      -0.496225       -13.5030
  50   2.0000      -0.490445       -13.3457
  51   2.0000      -0.481459       -13.1012
  52   2.0000      -0.473332       -12.8800
  53   2.0000      -0.467417       -12.7191
  54   2.0000      -0.461180       -12.5493
  55   2.0000      -0.450416       -12.2565
  56   2.0000      -0.448887       -12.2148
  57   2.0000      -0.437037       -11.8924
  58   2.0000      -0.435555       -11.8520
  59   2.0000      -0.424311       -11.5461
  60   2.0000      -0.419103       -11.4044
  61   2.0000      -0.413806       -11.2602
  62   2.0000      -0.409544       -11.1443
  63   2.0000      -0.362000        -9.8505
  64   2.0000      -0.330804        -9.0016
  65   2.0000      -0.326627        -8.8880
  66   2.0000      -0.286487        -7.7957
  67   0.0000       0.026387         0.7180
  68   0.0000       0.073853         2.0097
  69   0.0000       0.107490         2.9250
  70   0.0000       0.120433         3.2772
  71   0.0000       0.131311         3.5732

MULLIKEN ATOMIC CHARGES
-----------------------
   0 S :    0.096112
   1 C :   -0.116943
   2 C :   -0.060120
   3 C :   -0.009274
   4 C :   -0.085385
   5 H :    0.014972
   6 C :    0.023093
   7 H :    0.028590
   8 H :    0.031040
   9 C :   -0.059395
  10 H :    0.019768
  11 H :    0.030516
  12 C :   -0.024860
  13 H :    0.033852
  14 H :    0.028649
  15 H :    0.021521
  16 S :    0.102724
  17 C :   -0.104258
  18 C :   -0.055493
  19 C :   -0.038556
  20 C :   -0.148710
  21 H :    0.030641
  22 C :    0.114869
  23 H :    0.013184
  24 H :    0.019315
  25 C :   -0.097716
  26 H :    0.012518
  27 H :    0.033904
  28 C :   -0.083017
  29 H :    0.026844
  30 H :    0.042966
  31 H :    0.043388
  32 H :    0.045133
  33 H :    0.070131
Sum of atomic charges:    0.0000000

LOEWDIN ATOMIC CHARGES
----------------------
   0 S :    0.378300
   1 C :   -0.188691
   2 C :   -0.068127
   3 C :   -0.052287
   4 C :   -0.178576
   5 H :    0.027366
   6 C :   -0.031337
   7 H :    0.032183
   8 H :    0.033357
   9 C :   -0.037605
  10 H :    0.015341
  11 H :    0.028817
  12 C :   -0.068004
  13 H :    0.032942
  14 H :    0.021467
  15 H :    0.025942
  16 S :    0.413046
  17 C :   -0.207275
  18 C :   -0.075567
  19 C :   -0.061150
  20 C :   -0.178387
  21 H :    0.033030
  22 C :   -0.026856
  23 H :    0.023629
  24 H :    0.027871
  25 C :   -0.040794
  26 H :    0.015468
  27 H :    0.028532
  28 C :   -0.072922
  29 H :    0.018458
  30 H :    0.032099
  31 H :    0.032113
  32 H :    0.029764
  33 H :    0.037854

  Mayer bond orders larger than 0.100000
B(  0-S ,  1-C ) :   1.1161 B(  0-S ,  4-C ) :   1.1260 B(  1-C ,  2-C ) :   1.6319
B(  1-C , 32-H ) :   0.9644 B(  2-C ,  3-C ) :   1.2239 B(  2-C ,  6-C ) :   1.0321
B(  3-C ,  4-C ) :   1.5680 B(  3-C ,  5-H ) :   0.9940 B(  4-C , 20-C ) :   1.0654
B(  6-C ,  7-H ) :   0.9477 B(  6-C ,  8-H ) :   0.9315 B(  6-C ,  9-C ) :   1.0811
B(  9-C , 10-H ) :   0.9593 B(  9-C , 11-H ) :   0.9576 B(  9-C , 12-C ) :   1.0644
B( 12-C , 13-H ) :   0.9744 B( 12-C , 14-H ) :   0.9797 B( 12-C , 15-H ) :   0.9716
B( 16-S , 17-C ) :   1.1671 B( 16-S , 20-C ) :   1.1302 B( 17-C , 18-C ) :   1.6088
B( 17-C , 33-H ) :   0.9653 B( 18-C , 19-C ) :   1.2293 B( 18-C , 21-H ) :   0.9850
B( 19-C , 20-C ) :   1.6107 B( 19-C , 22-C ) :   1.0425 B( 22-C , 23-H ) :   0.9421
B( 22-C , 24-H ) :   0.9307 B( 22-C , 25-C ) :   1.0521 B( 25-C , 26-H ) :   0.9534
B( 25-C , 27-H ) :   0.9549 B( 25-C , 28-C ) :   1.0756 B( 28-C , 29-H ) :   0.9756
B( 28-C , 30-H ) :   0.9743 B( 28-C , 31-H ) :   0.9765

Dispersion correction           -0.013791807
FINAL SINGLE POINT ENERGY     -1339.871927411894

DIPOLE MOMENT
-------------
                                X             Y             Z
Electronic contribution:      3.98415     -13.57593      27.20202
Nuclear contribution   :     -3.91093      13.61557     -27.91889
                        -----------------------------------------
Total Dipole Moment    :      0.07322       0.03964      -0.71687
                        -----------------------------------------
Magnitude (a.u.)       :      0.72169
Magnitude (Debye)      :      1.83438

Rotational constants in cm-1:     0.016220     0.009465     0.006533
Rotational constants in MHz :   486.249030   283.757069   195.852048

                             ****ORCA TERMINATED NORMALLY****
TOTAL RUN TIME: 0 days 0 hours 0 minutes 29 seconds 869 msec
