                         Program Version 4.2.1 -  RELEASE  -
|  1> ! wB97X-D3 SP def2-SVP
|  2> %pal
|  3> nprocs 16
|  4> end
|  5>
|  6> * xyz 0 1
|  7> S 	 -4.41982 	 -13.9052 	 78.9193
|  8> C 	 -3.2151 	 -12.6403 	 78.9992
|  9> C 	 -3.28965 	 -11.9329 	 80.158
| 10> C 	 -4.36107 	 -12.4323 	 80.9838
| 11> C 	 -4.94315 	 -13.605 	 80.5118
| 12> H 	 -4.69028 	 -12.0875 	 81.9863
| 13> C 	 -2.27783 	 -10.8768 	 80.5568
| 14> H 	 -1.28157 	 -11.389 	 80.709
| 15> H 	 -2.45801 	 -10.3418 	 81.54
| 16> C 	 -2.02835 	 -9.65649 	 79.5674
| 17> H 	 -1.33214 	 -8.8906 	 80.0467
| 18> H 	 -1.65951 	 -10.0735 	 78.6209
| 19> C 	 -3.31623 	 -8.94958 	 79.1354
| 20> H 	 -3.79711 	 -8.64754 	 80.1307
| 21> H 	 -3.08781 	 -8.01747 	 78.6442
| 22> H 	 -4.00049 	 -9.51247 	 78.4903
| 23> S 	 -7.39204 	 -14.7614 	 80.1603
| 24> C 	 -8.068 	 -15.7933 	 81.4024
| 25> C 	 -7.41593 	 -15.5956 	 82.6382
| 26> C 	 -6.16814 	 -14.8108 	 82.533
| 27> C 	 -6.02291 	 -14.3234 	 81.1707
| 28> H 	 -7.91911 	 -16.06 	 83.4437
| 29> C 	 -5.31622 	 -14.7025 	 83.8092
| 30> H 	 -4.34244 	 -14.3644 	 83.6349
| 31> H 	 -5.24205 	 -15.6497 	 84.2518
| 32> C 	 -5.83679 	 -13.6904 	 84.8065
| 33> H 	 -6.13111 	 -12.8406 	 84.3006
| 34> H 	 -5.06751 	 -13.3967 	 85.5565
| 35> C 	 -7.06151 	 -14.1763 	 85.6285
| 36> H 	 -8.03456 	 -14.351 	 85.097
| 37> H 	 -7.20308 	 -13.5841 	 86.5646
| 38> H 	 -6.74348 	 -15.2079 	 85.9063
| 39> H 	 -2.48429 	 -12.5997 	 78.2114
| 40> H 	 -8.95752 	 -16.302 	 81.2555
| 41> *
| 42>
| 43>                          ****END OF INPUT****

CARTESIAN COORDINATES (ANGSTROEM)
---------------------------------
  S     -4.419820  -13.905200   78.919300
  C     -3.215100  -12.640300   78.999200
  C     -3.289650  -11.932900   80.158000
  C     -4.361070  -12.432300   80.983800
  C     -4.943150  -13.605000   80.511800
  H     -4.690280  -12.087500   81.986300
  C     -2.277830  -10.876800   80.556800
  H     -1.281570  -11.389000   80.709000
  H     -2.458010  -10.341800   81.540000
  C     -2.028350   -9.656490   79.567400
  H     -1.332140   -8.890600   80.046700
  H     -1.659510  -10.073500   78.620900
  C     -3.316230   -8.949580   79.135400
  H     -3.797110   -8.647540   80.130700
  H     -3.087810   -8.017470   78.644200
  H     -4.000490   -9.512470   78.490300
  S     -7.392040  -14.761400   80.160300
  C     -8.068000  -15.793300   81.402400
  C     -7.415930  -15.595600   82.638200
  C     -6.168140  -14.810800   82.533000
  C     -6.022910  -14.323400   81.170700
  H     -7.919110  -16.060000   83.443700
  C     -5.316220  -14.702500   83.809200
  H     -4.342440  -14.364400   83.634900
  H     -5.242050  -15.649700   84.251800
  C     -5.836790  -13.690400   84.806500
  H     -6.131110  -12.840600   84.300600
  H     -5.067510  -13.396700   85.556500
  C     -7.061510  -14.176300   85.628500
  H     -8.034560  -14.351000   85.097000
  H     -7.203080  -13.584100   86.564600
  H     -6.743480  -15.207900   85.906300
  H     -2.484290  -12.599700   78.211400
  H     -8.957520  -16.302000   81.255500

 Total Charge           Charge          ....    0
 Multiplicity           Mult            ....    1
 Number of Electrons    NEL             ....  134
 Basis Dimension        Dim             ....  322

ORBITAL ENERGIES
----------------

  NO   OCC          E(Eh)            E(eV)
   0   2.0000     -88.967065     -2420.9169
   1   2.0000     -88.965313     -2420.8693
   2   2.0000     -10.337495      -281.2975
   3   2.0000     -10.326503      -280.9984
   4   2.0000     -10.321114      -280.8518
   5   2.0000     -10.315291      -280.6934
   6   2.0000     -10.313065      -280.6328
   7   2.0000     -10.307023      -280.4684
   8   2.0000     -10.304539      -280.4008
   9   2.0000     -10.299396      -280.2608
  10   2.0000     -10.297769      -280.2165
  11   2.0000     -10.296229      -280.1746
  12   2.0000     -10.286975      -279.9228
  13   2.0000     -10.284304      -279.8501
  14   2.0000     -10.283520      -279.8288
  15   2.0000     -10.278357      -279.6883
  16   2.0000      -8.081667      -219.9133
  17   2.0000      -8.081133      -219.8988
  18   2.0000      -6.040135      -164.3604
  19   2.0000      -6.039543      -164.3443
  20   2.0000      -6.036165      -164.2524
  21   2.0000      -6.035399      -164.2316
  22   2.0000      -6.032518      -164.1532
  23   2.0000      -6.032021      -164.1396
  24   2.0000      -1.009195       -27.4616
  25   2.0000      -0.978996       -26.6398
  26   2.0000      -0.915308       -24.9068
  27   2.0000      -0.905635       -24.6436
  28   2.0000      -0.867925       -23.6175
  29   2.0000      -0.847694       -23.0669
  30   2.0000      -0.840103       -22.8604
  31   2.0000      -0.812162       -22.1001
  32   2.0000      -0.783987       -21.3334
  33   2.0000      -0.773423       -21.0459
  34   2.0000      -0.707127       -19.2419
  35   2.0000      -0.693257       -18.8645
  36   2.0000      -0.690493       -18.7893
  37   2.0000      -0.663480       -18.0542
  38   2.0000      -0.642647       -17.4873
  39   2.0000      -0.611510       -16.6400
  40   2.0000      -0.598495       -16.2859
  41   2.0000      -0.578181       -15.7331
  42   2.0000      -0.559573       -15.2267
  43   2.0000      -0.544785       -14.8244
  44   2.0000      -0.542335       -14.7577
  45   2.0000      -0.540837       -14.7169
  46   2.0000      -0.517005       -14.0684
  47   2.0000      -0.511034       -13.9060
  48   2.0000      -0.504315       -13.7231
  49   2.0000      -0.492855       -13.4113
  50   2.0000      -0.489933       -13.3318
  51   2.0000      -0.478752       -13.0275
  52   2.0000      -0.472611       -12.8604
  53   2.0000      -0.461477       -12.5574
  54   2.0000      -0.460234       -12.5236
  55   2.0000      -0.443849       -12.0777
  56   2.0000      -0.441657       -12.0181
  57   2.0000      -0.433630       -11.7997
  58   2.0000      -0.432142       -11.7592
  59   2.0000      -0.424696       -11.5566
  60   2.0000      -0.422279       -11.4908
  61   2.0000      -0.420190       -11.4339
  62   2.0000      -0.403499       -10.9798
  63   2.0000      -0.348664        -9.4876
  64   2.0000      -0.332042        -9.0353
  65   2.0000      -0.327692        -8.9169
  66   2.0000      -0.289309        -7.8725
  67   0.0000       0.023886         0.6500
  68   0.0000       0.072069         1.9611
  69   0.0000       0.103296         2.8108
  70   0.0000       0.114699         3.1211
  71   0.0000       0.130422         3.5490

MULLIKEN ATOMIC CHARGES
-----------------------
   0 S :    0.112007
   1 C :   -0.142434
   2 C :   -0.018967
   3 C :    0.007621
   4 C :   -0.144251
   5 H :    0.019049
   6 C :    0.011092
   7 H :    0.055302
   8 H :    0.033361
   9 C :   -0.105242
  10 H :    0.051229
  11 H :    0.027853
  12 C :   -0.067672
  13 H :    0.025474
  14 H :    0.031674
  15 H :    0.052565
  16 S :    0.104336
  17 C :   -0.081979
  18 C :   -0.040378
  19 C :   -0.033260
  20 C :   -0.166072
  21 H :    0.015044
  22 C :    0.131248
  23 H :    0.005220
  24 H :    0.018516
  25 C :   -0.058498
  26 H :    0.016057
  27 H :    0.038174
  28 C :   -0.096076
  29 H :    0.050826
  30 H :    0.047186
  31 H :    0.013321
  32 H :    0.050531
  33 H :    0.037144
Sum of atomic charges:   -0.0000000

LOEWDIN ATOMIC CHARGES
----------------------
   0 S :    0.424790
   1 C :   -0.188877
   2 C :   -0.065486
   3 C :   -0.064422
   4 C :   -0.215755
   5 H :    0.034242
   6 C :   -0.043053
   7 H :    0.041917
   8 H :    0.033409
   9 C :   -0.046995
  10 H :    0.035207
  11 H :    0.018093
  12 C :   -0.073149
  13 H :    0.028259
  14 H :    0.022720
  15 H :    0.027927
  16 S :    0.404214
  17 C :   -0.176858
  18 C :   -0.064193
  19 C :   -0.041117
  20 C :   -0.195376
  21 H :    0.025549
  22 C :   -0.021137
  23 H :    0.025463
  24 H :    0.025042
  25 C :   -0.033061
  26 H :    0.012194
  27 H :    0.031964
  28 C :   -0.078281
  29 H :    0.028469
  30 H :    0.030495
  31 H :    0.021326
  32 H :    0.023815
  33 H :    0.012665

  Mayer bond orders larger than 0.100000
B(  0-S ,  1-C ) :   1.1445 B(  0-S ,  4-C ) :   1.1660 B(  1-C ,  2-C ) :   1.5868
B(  1-C , 32-H ) :   0.9769 B(  2-C ,  3-C ) :   1.2390 B(  2-C ,  6-C ) :   1.0108
B(  3-C ,  4-C ) :   1.5547 B(  3-C ,  5-H ) :   0.9920 B(  4-C , 20-C ) :   1.0587
B(  6-C ,  7-H ) :   0.9445 B(  6-C ,  8-H ) :   0.9502 B(  6-C ,  9-C ) :   1.0623
B(  9-C , 10-H ) :   0.9592 B(  9-C , 11-H ) :   0.9555 B(  9-C , 12-C ) :   1.0761
B( 12-C , 13-H ) :   0.9758 B( 12-C , 14-H ) :   0.9741 B( 12-C , 15-H ) :   0.9721
B( 16-S , 17-C ) :   1.1510 B( 16-S , 20-C ) :   1.1595 B( 17-C , 18-C ) :   1.6157
B( 17-C , 20-C ) :   0.1004 B( 17-C , 33-H ) :   0.9751 B( 18-C , 19-C ) :   1.2162
B( 18-C , 21-H ) :   0.9891 B( 19-C , 20-C ) :   1.5634 B( 19-C , 22-C ) :   1.0475
B( 22-C , 23-H ) :   0.9230 B( 22-C , 24-H ) :   0.9386 B( 22-C , 25-C ) :   1.0753
B( 25-C , 26-H ) :   0.9483 B( 25-C , 27-H ) :   0.9564 B( 25-C , 28-C ) :   1.0747
B( 28-C , 29-H ) :   0.9700 B( 28-C , 30-H ) :   0.9735 B( 28-C , 31-H ) :   0.9750

Dispersion correction           -0.014178227
FINAL SINGLE POINT ENERGY     -1339.859822280437

DIPOLE MOMENT
-------------
                                X             Y             Z
Electronic contribution:     -7.99455     -15.84936     -17.26261
Nuclear contribution   :      8.25459      16.07941      17.74771
                        -----------------------------------------
Total Dipole Moment    :      0.26004       0.23005       0.48511
                        -----------------------------------------
Magnitude (a.u.)       :      0.59655
Magnitude (Debye)      :      1.51631

Rotational constants in cm-1:     0.020865     0.007837     0.006261
Rotational constants in MHz :   625.512711   234.935756   187.688788

                             ****ORCA TERMINATED NORMALLY****
TOTAL RUN TIME: 0 days 0 hours 0 minutes 33 seconds 624 msec
