                         Program Version 4.2.1 -  RELEASE  -
|  1> ! wB97X-D3 SP def2-SVP
|  2> %pal
|  3> nprocs 16
|  4> end
|  5>
|  6> * xyz 0 1
|  7> S 	 40.1883 	 28.7329 	 51.8705
|  8> C 	 41.0898 	 30.2193 	 51.8348
|  9> C 	 40.5851 	 31.1818 	 52.699
| 10> C 	 39.5316 	 30.7194 	 53.5365
| 11> C 	 39.1603 	 29.4086 	 53.153
| 12> H 	 39.0871 	 31.2455 	 54.3347
| 13> C 	 41.0066 	 32.5917 	 52.6713
| 14> H 	 41.2123 	 32.906 	 51.6578
| 15> H 	 42.0146 	 32.755 	 53.0532
| 16> C 	 40.0869 	 33.7162 	 53.3503
| 17> H 	 39.8292 	 33.3261 	 54.3826
| 18> H 	 40.8408 	 34.5688 	 53.4671
| 19> C 	 38.9004 	 34.1537 	 52.4119
| 20> H 	 39.2239 	 34.8264 	 51.6808
| 21> H 	 38.4629 	 33.3105 	 51.8416
| 22> H 	 38.1696 	 34.6186 	 53.0039
| 23> S 	 38.5885 	 27.7587 	 55.2616
| 24> C 	 37.1217 	 26.8452 	 55.2371
| 25> C 	 36.445 	 27.0861 	 54.0698
| 26> C 	 37.0017 	 28.0583 	 53.2455
| 27> C 	 38.1654 	 28.541 	 53.8228
| 28> H 	 35.5371 	 26.5398 	 53.9085
| 29> C 	 36.363 	 28.4817 	 51.9837
| 30> H 	 37.2 	 29.0303 	 51.5344
| 31> H 	 35.5317 	 29.2199 	 52.2618
| 32> C 	 35.7821 	 27.4365 	 51.0654
| 33> H 	 34.7716 	 27.3679 	 51.4229
| 34> H 	 36.2248 	 26.4442 	 51.2659
| 35> C 	 35.8853 	 27.8459 	 49.5956
| 36> H 	 35.4295 	 28.7615 	 49.4228
| 37> H 	 35.3656 	 27.1074 	 49.0474
| 38> H 	 36.906 	 27.8722 	 49.2522
| 39> H 	 41.8208 	 30.5021 	 51.1222
| 40> H 	 36.8806 	 26.0783 	 55.9529
| 41> *
| 42>
| 43>                          ****END OF INPUT****

CARTESIAN COORDINATES (ANGSTROEM)
---------------------------------
  S     40.188300   28.732900   51.870500
  C     41.089800   30.219300   51.834800
  C     40.585100   31.181800   52.699000
  C     39.531600   30.719400   53.536500
  C     39.160300   29.408600   53.153000
  H     39.087100   31.245500   54.334700
  C     41.006600   32.591700   52.671300
  H     41.212300   32.906000   51.657800
  H     42.014600   32.755000   53.053200
  C     40.086900   33.716200   53.350300
  H     39.829200   33.326100   54.382600
  H     40.840800   34.568800   53.467100
  C     38.900400   34.153700   52.411900
  H     39.223900   34.826400   51.680800
  H     38.462900   33.310500   51.841600
  H     38.169600   34.618600   53.003900
  S     38.588500   27.758700   55.261600
  C     37.121700   26.845200   55.237100
  C     36.445000   27.086100   54.069800
  C     37.001700   28.058300   53.245500
  C     38.165400   28.541000   53.822800
  H     35.537100   26.539800   53.908500
  C     36.363000   28.481700   51.983700
  H     37.200000   29.030300   51.534400
  H     35.531700   29.219900   52.261800
  C     35.782100   27.436500   51.065400
  H     34.771600   27.367900   51.422900
  H     36.224800   26.444200   51.265900
  C     35.885300   27.845900   49.595600
  H     35.429500   28.761500   49.422800
  H     35.365600   27.107400   49.047400
  H     36.906000   27.872200   49.252200
  H     41.820800   30.502100   51.122200
  H     36.880600   26.078300   55.952900

 Total Charge           Charge          ....    0
 Multiplicity           Mult            ....    1
 Number of Electrons    NEL             ....  134
 Basis Dimension        Dim             ....  322

ORBITAL ENERGIES
----------------

  NO   OCC          E(Eh)            E(eV)
   0   2.0000     -88.969863     -2420.9930
   1   2.0000     -88.963028     -2420.8071
   2   2.0000     -10.330988      -281.1205
   3   2.0000     -10.314437      -280.6701
   4   2.0000     -10.308773      -280.5160
   5   2.0000     -10.306570      -280.4560
   6   2.0000     -10.304874      -280.4099
   7   2.0000     -10.295905      -280.1658
   8   2.0000     -10.293941      -280.1124
   9   2.0000     -10.290244      -280.0118
  10   2.0000     -10.286659      -279.9142
  11   2.0000     -10.284308      -279.8502
  12   2.0000     -10.281423      -279.7717
  13   2.0000     -10.281352      -279.7698
  14   2.0000     -10.274661      -279.5877
  15   2.0000     -10.266916      -279.3770
  16   2.0000      -8.083657      -219.9675
  17   2.0000      -8.079170      -219.8454
  18   2.0000      -6.042114      -164.4143
  19   2.0000      -6.038288      -164.3102
  20   2.0000      -6.037418      -164.2865
  21   2.0000      -6.034551      -164.2085
  22   2.0000      -6.033414      -164.1776
  23   2.0000      -6.030193      -164.0899
  24   2.0000      -1.010936       -27.5090
  25   2.0000      -0.984241       -26.7826
  26   2.0000      -0.914891       -24.8954
  27   2.0000      -0.902972       -24.5711
  28   2.0000      -0.863924       -23.5086
  29   2.0000      -0.856135       -23.2966
  30   2.0000      -0.845353       -23.0032
  31   2.0000      -0.815395       -22.1880
  32   2.0000      -0.784124       -21.3371
  33   2.0000      -0.770767       -20.9736
  34   2.0000      -0.709304       -19.3012
  35   2.0000      -0.704272       -19.1642
  36   2.0000      -0.687413       -18.7055
  37   2.0000      -0.655153       -17.8276
  38   2.0000      -0.637606       -17.3502
  39   2.0000      -0.623182       -16.9576
  40   2.0000      -0.598774       -16.2935
  41   2.0000      -0.569453       -15.4956
  42   2.0000      -0.564140       -15.3510
  43   2.0000      -0.543634       -14.7930
  44   2.0000      -0.531562       -14.4645
  45   2.0000      -0.527320       -14.3491
  46   2.0000      -0.518067       -14.0973
  47   2.0000      -0.512894       -13.9565
  48   2.0000      -0.503116       -13.6905
  49   2.0000      -0.496377       -13.5071
  50   2.0000      -0.488653       -13.2969
  51   2.0000      -0.483840       -13.1660
  52   2.0000      -0.473731       -12.8909
  53   2.0000      -0.467668       -12.7259
  54   2.0000      -0.460435       -12.5291
  55   2.0000      -0.450876       -12.2690
  56   2.0000      -0.443459       -12.0671
  57   2.0000      -0.434199       -11.8152
  58   2.0000      -0.431633       -11.7453
  59   2.0000      -0.422484       -11.4964
  60   2.0000      -0.419983       -11.4283
  61   2.0000      -0.417562       -11.3624
  62   2.0000      -0.413097       -11.2409
  63   2.0000      -0.335319        -9.1245
  64   2.0000      -0.332676        -9.0526
  65   2.0000      -0.317243        -8.6326
  66   2.0000      -0.298408        -8.1201
  67   0.0000       0.041743         1.1359
  68   0.0000       0.058620         1.5951
  69   0.0000       0.111359         3.0302
  70   0.0000       0.124111         3.3772
  71   0.0000       0.135832         3.6962

MULLIKEN ATOMIC CHARGES
-----------------------
   0 S :    0.131279
   1 C :   -0.103875
   2 C :   -0.053019
   3 C :    0.048715
   4 C :   -0.193480
   5 H :    0.000677
   6 C :    0.027531
   7 H :    0.009140
   8 H :    0.028476
   9 C :   -0.133977
  10 H :    0.049477
  11 H :    0.042388
  12 C :   -0.005472
  13 H :    0.021096
  14 H :    0.044115
  15 H :    0.029161
  16 S :    0.131508
  17 C :   -0.100827
  18 C :   -0.033276
  19 C :   -0.045572
  20 C :   -0.171070
  21 H :    0.005990
  22 C :    0.069023
  23 H :    0.018459
  24 H :    0.052224
  25 C :   -0.090909
  26 H :    0.021634
  27 H :    0.034879
  28 C :    0.012706
  29 H :    0.018022
  30 H :    0.018941
  31 H :    0.036799
  32 H :    0.027729
  33 H :    0.051509
Sum of atomic charges:    0.0000000

LOEWDIN ATOMIC CHARGES
----------------------
   0 S :    0.410265
   1 C :   -0.202618
   2 C :   -0.063658
   3 C :   -0.050168
   4 C :   -0.182766
   5 H :    0.026547
   6 C :   -0.046545
   7 H :    0.027734
   8 H :    0.033378
   9 C :   -0.041369
  10 H :    0.026425
  11 H :    0.033714
  12 C :   -0.059901
  13 H :    0.020097
  14 H :    0.033335
  15 H :    0.020817
  16 S :    0.446551
  17 C :   -0.193995
  18 C :   -0.071742
  19 C :   -0.063921
  20 C :   -0.233326
  21 H :    0.027039
  22 C :   -0.040642
  23 H :    0.024509
  24 H :    0.045273
  25 C :   -0.041673
  26 H :    0.021827
  27 H :    0.025922
  28 C :   -0.046491
  29 H :    0.017843
  30 H :    0.022610
  31 H :    0.028124
  32 H :    0.019847
  33 H :    0.026958

  Mayer bond orders larger than 0.100000
B(  0-S ,  1-C ) :   1.1353 B(  0-S ,  4-C ) :   1.1604 B(  1-C ,  2-C ) :   1.6121
B(  1-C ,  4-C ) :   0.1007 B(  1-C , 32-H ) :   0.9693 B(  2-C ,  3-C ) :   1.2467
B(  2-C ,  6-C ) :   1.0230 B(  3-C ,  4-C ) :   1.5599 B(  3-C ,  5-H ) :   0.9975
B(  4-C , 20-C ) :   1.0018 B(  6-C ,  7-H ) :   0.9372 B(  6-C ,  8-H ) :   0.9276
B(  6-C ,  9-C ) :   1.0725 B(  9-C , 10-H ) :   0.9572 B(  9-C , 11-H ) :   0.9584
B(  9-C , 12-C ) :   1.0552 B( 12-C , 13-H ) :   0.9730 B( 12-C , 14-H ) :   0.9805
B( 12-C , 15-H ) :   0.9776 B( 16-S , 17-C ) :   1.1709 B( 16-S , 20-C ) :   1.1815
B( 17-C , 18-C ) :   1.5783 B( 17-C , 33-H ) :   0.9697 B( 18-C , 19-C ) :   1.2692
B( 18-C , 21-H ) :   0.9964 B( 19-C , 20-C ) :   1.5521 B( 19-C , 22-C ) :   1.0491
B( 22-C , 23-H ) :   0.9266 B( 22-C , 24-H ) :   0.9237 B( 22-C , 25-C ) :   1.0450
B( 25-C , 26-H ) :   0.9456 B( 25-C , 27-H ) :   0.9653 B( 25-C , 28-C ) :   1.0942
B( 28-C , 29-H ) :   0.9721 B( 28-C , 30-H ) :   0.9713 B( 28-C , 31-H ) :   0.9743

Dispersion correction           -0.014302974
FINAL SINGLE POINT ENERGY     -1339.868516527992

DIPOLE MOMENT
-------------
                                X             Y             Z
Electronic contribution:      9.52819     -15.97534      12.92954
Nuclear contribution   :     -9.75777      16.29997     -13.18305
                        -----------------------------------------
Total Dipole Moment    :     -0.22958       0.32462      -0.25352
                        -----------------------------------------
Magnitude (a.u.)       :      0.47155
Magnitude (Debye)      :      1.19858

Rotational constants in cm-1:     0.017849     0.008605     0.007410
Rotational constants in MHz :   535.109335   257.963238   222.154763

                             ****ORCA TERMINATED NORMALLY****
TOTAL RUN TIME: 0 days 0 hours 0 minutes 34 seconds 907 msec
