                         Program Version 4.2.1 -  RELEASE  -
|  1> ! wB97X-D3 SP def2-SVP
|  2> %pal
|  3> nprocs 16
|  4> end
|  5>
|  6> * xyz 0 1
|  7> S 	 -1.72021 	 -13.2375 	 52.8925
|  8> C 	 -2.712 	 -12.8884 	 51.4767
|  9> C 	 -3.92653 	 -13.5643 	 51.5449
| 10> C 	 -4.05501 	 -14.3171 	 52.7393
| 11> C 	 -3.0181 	 -14.1154 	 53.6095
| 12> H 	 -4.85169 	 -14.9036 	 53.1165
| 13> C 	 -4.91953 	 -13.5809 	 50.4158
| 14> H 	 -5.52305 	 -14.4451 	 50.7178
| 15> H 	 -4.56054 	 -13.8968 	 49.4553
| 16> C 	 -5.82017 	 -12.3834 	 50.3848
| 17> H 	 -6.68478 	 -12.5772 	 49.7186
| 18> H 	 -6.28281 	 -12.2737 	 51.3285
| 19> C 	 -5.18998 	 -11.0611 	 49.991
| 20> H 	 -5.03054 	 -10.9706 	 48.9092
| 21> H 	 -5.83104 	 -10.163 	 50.1767
| 22> H 	 -4.359 	 -10.822 	 50.5972
| 23> S 	 -1.26831 	 -15.6761 	 54.8896
| 24> C 	 -1.85008 	 -16.6932 	 56.1811
| 25> C 	 -3.17168 	 -16.4706 	 56.4961
| 26> C 	 -3.68438 	 -15.3109 	 55.7537
| 27> C 	 -2.79893 	 -14.875 	 54.8111
| 28> H 	 -3.58318 	 -17.016 	 57.3313
| 29> C 	 -5.06757 	 -14.7739 	 55.8181
| 30> H 	 -5.71206 	 -15.5694 	 55.4473
| 31> H 	 -5.1393 	 -13.9277 	 55.1383
| 32> C 	 -5.44014 	 -14.337 	 57.1818
| 33> H 	 -4.79789 	 -13.6104 	 57.6369
| 34> H 	 -5.4695 	 -15.2815 	 57.7674
| 35> C 	 -6.86116 	 -13.6865 	 57.3419
| 36> H 	 -7.15384 	 -13.2622 	 56.418
| 37> H 	 -6.80689 	 -12.9702 	 58.116
| 38> H 	 -7.72672 	 -14.3392 	 57.5253
| 39> H 	 -2.44753 	 -12.2841 	 50.5907
| 40> H 	 -1.3036 	 -17.5534 	 56.6134
| 41> *
| 42>
| 43>                          ****END OF INPUT****

CARTESIAN COORDINATES (ANGSTROEM)
---------------------------------
  S     -1.720210  -13.237500   52.892500
  C     -2.712000  -12.888400   51.476700
  C     -3.926530  -13.564300   51.544900
  C     -4.055010  -14.317100   52.739300
  C     -3.018100  -14.115400   53.609500
  H     -4.851690  -14.903600   53.116500
  C     -4.919530  -13.580900   50.415800
  H     -5.523050  -14.445100   50.717800
  H     -4.560540  -13.896800   49.455300
  C     -5.820170  -12.383400   50.384800
  H     -6.684780  -12.577200   49.718600
  H     -6.282810  -12.273700   51.328500
  C     -5.189980  -11.061100   49.991000
  H     -5.030540  -10.970600   48.909200
  H     -5.831040  -10.163000   50.176700
  H     -4.359000  -10.822000   50.597200
  S     -1.268310  -15.676100   54.889600
  C     -1.850080  -16.693200   56.181100
  C     -3.171680  -16.470600   56.496100
  C     -3.684380  -15.310900   55.753700
  C     -2.798930  -14.875000   54.811100
  H     -3.583180  -17.016000   57.331300
  C     -5.067570  -14.773900   55.818100
  H     -5.712060  -15.569400   55.447300
  H     -5.139300  -13.927700   55.138300
  C     -5.440140  -14.337000   57.181800
  H     -4.797890  -13.610400   57.636900
  H     -5.469500  -15.281500   57.767400
  C     -6.861160  -13.686500   57.341900
  H     -7.153840  -13.262200   56.418000
  H     -6.806890  -12.970200   58.116000
  H     -7.726720  -14.339200   57.525300
  H     -2.447530  -12.284100   50.590700
  H     -1.303600  -17.553400   56.613400

 Total Charge           Charge          ....    0
 Multiplicity           Mult            ....    1
 Number of Electrons    NEL             ....  134
 Basis Dimension        Dim             ....  322

ORBITAL ENERGIES
----------------

  NO   OCC          E(Eh)            E(eV)
   0   2.0000     -88.967557     -2420.9303
   1   2.0000     -88.962925     -2420.8042
   2   2.0000     -10.322854      -280.8991
   3   2.0000     -10.318067      -280.7689
   4   2.0000     -10.318024      -280.7677
   5   2.0000     -10.315410      -280.6966
   6   2.0000     -10.301006      -280.3046
   7   2.0000     -10.300309      -280.2857
   8   2.0000     -10.297550      -280.2106
   9   2.0000     -10.289201      -279.9834
  10   2.0000     -10.287131      -279.9271
  11   2.0000     -10.285411      -279.8803
  12   2.0000     -10.283398      -279.8255
  13   2.0000     -10.281701      -279.7793
  14   2.0000     -10.274166      -279.5743
  15   2.0000     -10.271258      -279.4951
  16   2.0000      -8.082538      -219.9370
  17   2.0000      -8.078562      -219.8289
  18   2.0000      -6.041002      -164.3840
  19   2.0000      -6.037077      -164.2772
  20   2.0000      -6.037044      -164.2763
  21   2.0000      -6.033309      -164.1747
  22   2.0000      -6.033039      -164.1673
  23   2.0000      -6.029139      -164.0612
  24   2.0000      -1.015632       -27.6367
  25   2.0000      -0.986318       -26.8391
  26   2.0000      -0.919701       -25.0263
  27   2.0000      -0.917263       -24.9600
  28   2.0000      -0.871801       -23.7229
  29   2.0000      -0.856233       -23.2993
  30   2.0000      -0.845023       -22.9942
  31   2.0000      -0.816623       -22.2215
  32   2.0000      -0.788720       -21.4622
  33   2.0000      -0.777020       -21.1438
  34   2.0000      -0.708899       -19.2901
  35   2.0000      -0.698790       -19.0151
  36   2.0000      -0.696691       -18.9579
  37   2.0000      -0.660382       -17.9699
  38   2.0000      -0.641991       -17.4695
  39   2.0000      -0.620963       -16.8973
  40   2.0000      -0.596119       -16.2212
  41   2.0000      -0.578073       -15.7302
  42   2.0000      -0.572012       -15.5652
  43   2.0000      -0.546157       -14.8617
  44   2.0000      -0.543766       -14.7966
  45   2.0000      -0.535561       -14.5734
  46   2.0000      -0.516399       -14.0519
  47   2.0000      -0.514845       -14.0097
  48   2.0000      -0.506690       -13.7877
  49   2.0000      -0.499834       -13.6012
  50   2.0000      -0.491370       -13.3709
  51   2.0000      -0.484059       -13.1719
  52   2.0000      -0.475416       -12.9367
  53   2.0000      -0.461730       -12.5643
  54   2.0000      -0.458822       -12.4852
  55   2.0000      -0.452165       -12.3040
  56   2.0000      -0.451537       -12.2869
  57   2.0000      -0.439705       -11.9650
  58   2.0000      -0.430431       -11.7126
  59   2.0000      -0.423281       -11.5181
  60   2.0000      -0.416889       -11.3441
  61   2.0000      -0.411612       -11.2005
  62   2.0000      -0.409036       -11.1304
  63   2.0000      -0.354246        -9.6395
  64   2.0000      -0.335461        -9.1284
  65   2.0000      -0.327925        -8.9233
  66   2.0000      -0.288087        -7.8392
  67   0.0000       0.029185         0.7942
  68   0.0000       0.074964         2.0399
  69   0.0000       0.101879         2.7723
  70   0.0000       0.121597         3.3088
  71   0.0000       0.132323         3.6007

MULLIKEN ATOMIC CHARGES
-----------------------
   0 S :    0.105384
   1 C :   -0.117283
   2 C :   -0.112691
   3 C :    0.039982
   4 C :   -0.157280
   5 H :    0.000451
   6 C :    0.094755
   7 H :    0.010671
   8 H :    0.029149
   9 C :   -0.034459
  10 H :    0.026732
  11 H :    0.010252
  12 C :   -0.057833
  13 H :    0.031656
  14 H :    0.026209
  15 H :    0.026427
  16 S :    0.099624
  17 C :   -0.102252
  18 C :   -0.031779
  19 C :   -0.084831
  20 C :   -0.109072
  21 H :    0.026401
  22 C :    0.069504
  23 H :    0.038167
  24 H :    0.028280
  25 C :   -0.098513
  26 H :    0.034182
  27 H :    0.030773
  28 C :   -0.008347
  29 H :    0.006037
  30 H :    0.027291
  31 H :    0.025579
  32 H :    0.060098
  33 H :    0.066738
Sum of atomic charges:   -0.0000000

LOEWDIN ATOMIC CHARGES
----------------------
   0 S :    0.409785
   1 C :   -0.198891
   2 C :   -0.061035
   3 C :   -0.059817
   4 C :   -0.198288
   5 H :    0.027673
   6 C :   -0.032280
   7 H :    0.036262
   8 H :    0.027891
   9 C :   -0.039524
  10 H :    0.027760
  11 H :    0.020478
  12 C :   -0.072534
  13 H :    0.025915
  14 H :    0.032910
  15 H :    0.018006
  16 S :    0.405854
  17 C :   -0.186721
  18 C :   -0.070791
  19 C :   -0.055310
  20 C :   -0.203148
  21 H :    0.032312
  22 C :   -0.039648
  23 H :    0.033702
  24 H :    0.028493
  25 C :   -0.037251
  26 H :    0.026348
  27 H :    0.027408
  28 C :   -0.061842
  29 H :    0.017229
  30 H :    0.021289
  31 H :    0.026337
  32 H :    0.035249
  33 H :    0.036176

  Mayer bond orders larger than 0.100000
B(  0-S ,  1-C ) :   1.1314 B(  0-S ,  4-C ) :   1.1562 B(  1-C ,  2-C ) :   1.6031
B(  1-C , 32-H ) :   0.9615 B(  2-C ,  3-C ) :   1.2535 B(  2-C ,  6-C ) :   1.0068
B(  3-C ,  4-C ) :   1.5594 B(  3-C ,  5-H ) :   0.9922 B(  4-C , 20-C ) :   1.0365
B(  6-C ,  7-H ) :   0.9288 B(  6-C ,  8-H ) :   0.9455 B(  6-C ,  9-C ) :   1.0808
B(  9-C , 10-H ) :   0.9520 B(  9-C , 11-H ) :   0.9476 B(  9-C , 12-C ) :   1.0893
B( 12-C , 13-H ) :   0.9752 B( 12-C , 14-H ) :   0.9688 B( 12-C , 15-H ) :   0.9686
B( 16-S , 17-C ) :   1.1471 B( 16-S , 20-C ) :   1.1214 B( 17-C , 18-C ) :   1.6580
B( 17-C , 33-H ) :   0.9603 B( 18-C , 19-C ) :   1.1835 B( 18-C , 21-H ) :   0.9892
B( 19-C , 20-C ) :   1.6444 B( 19-C , 22-C ) :   1.0559 B( 22-C , 23-H ) :   0.9247
B( 22-C , 24-H ) :   0.9240 B( 22-C , 25-C ) :   1.0733 B( 25-C , 26-H ) :   0.9635
B( 25-C , 27-H ) :   0.9553 B( 25-C , 28-C ) :   1.0748 B( 28-C , 29-H ) :   0.9728
B( 28-C , 30-H ) :   0.9811 B( 28-C , 31-H ) :   0.9738

Dispersion correction           -0.013941830
FINAL SINGLE POINT ENERGY     -1339.868667892849

DIPOLE MOMENT
-------------
                                X             Y             Z
Electronic contribution:     26.75241      -9.18069       2.33772
Nuclear contribution   :    -27.42130       8.99500      -2.40114
                        -----------------------------------------
Total Dipole Moment    :     -0.66889      -0.18570      -0.06342
                        -----------------------------------------
Magnitude (a.u.)       :      0.69707
Magnitude (Debye)      :      1.77182

Rotational constants in cm-1:     0.018354     0.008920     0.006586
Rotational constants in MHz :   550.237240   267.425795   197.429234

                             ****ORCA TERMINATED NORMALLY****
TOTAL RUN TIME: 0 days 0 hours 0 minutes 30 seconds 673 msec
