                         Program Version 4.2.1 -  RELEASE  -
|  1> ! wB97X-D3 SP def2-SVP
|  2> %pal
|  3> nprocs 16
|  4> end
|  5>
|  6> * xyz 0 1
|  7> S 	 2.80303 	 -16.8662 	 85.7946
|  8> C 	 1.94499 	 -16.9028 	 84.2864
|  9> C 	 2.73881 	 -16.611 	 83.195
| 10> C 	 4.09456 	 -16.3585 	 83.5294
| 11> C 	 4.28663 	 -16.5393 	 84.9042
| 12> H 	 4.90312 	 -16.1157 	 82.8237
| 13> C 	 2.13491 	 -16.5398 	 81.7973
| 14> H 	 1.60803 	 -15.5942 	 81.5142
| 15> H 	 1.46197 	 -17.4185 	 81.8147
| 16> C 	 3.17614 	 -16.7183 	 80.6396
| 17> H 	 3.97937 	 -15.9418 	 80.7148
| 18> H 	 3.68982 	 -17.6767 	 80.7216
| 19> C 	 2.49384 	 -16.6819 	 79.2223
| 20> H 	 3.3229 	 -16.8585 	 78.5228
| 21> H 	 1.86296 	 -17.4889 	 79.0791
| 22> H 	 1.92581 	 -15.8247 	 78.9291
| 23> S 	 5.699 	 -17.5805 	 87.0274
| 24> C 	 7.13872 	 -16.8261 	 87.5736
| 25> C 	 7.50684 	 -15.8745 	 86.684
| 26> C 	 6.62198 	 -15.6345 	 85.6095
| 27> C 	 5.50769 	 -16.4975 	 85.6219
| 28> H 	 8.50263 	 -15.4549 	 86.9299
| 29> C 	 6.91372 	 -14.4544 	 84.7179
| 30> H 	 7.29151 	 -13.5913 	 85.3207
| 31> H 	 5.96448 	 -14.1348 	 84.2364
| 32> C 	 7.88976 	 -14.8755 	 83.6588
| 33> H 	 7.37362 	 -15.3118 	 82.8258
| 34> H 	 8.64293 	 -15.5716 	 84.033
| 35> C 	 8.56908 	 -13.6771 	 83.0258
| 36> H 	 7.92949 	 -13.0058 	 82.5116
| 37> H 	 9.30374 	 -14.12 	 82.3704
| 38> H 	 9.32068 	 -13.1405 	 83.6363
| 39> H 	 0.866398 	 -16.9542 	 84.202
| 40> H 	 7.73901 	 -17.0733 	 88.4656
| 41> *
| 42>
| 43>                          ****END OF INPUT****

CARTESIAN COORDINATES (ANGSTROEM)
---------------------------------
  S      2.803030  -16.866200   85.794600
  C      1.944990  -16.902800   84.286400
  C      2.738810  -16.611000   83.195000
  C      4.094560  -16.358500   83.529400
  C      4.286630  -16.539300   84.904200
  H      4.903120  -16.115700   82.823700
  C      2.134910  -16.539800   81.797300
  H      1.608030  -15.594200   81.514200
  H      1.461970  -17.418500   81.814700
  C      3.176140  -16.718300   80.639600
  H      3.979370  -15.941800   80.714800
  H      3.689820  -17.676700   80.721600
  C      2.493840  -16.681900   79.222300
  H      3.322900  -16.858500   78.522800
  H      1.862960  -17.488900   79.079100
  H      1.925810  -15.824700   78.929100
  S      5.699000  -17.580500   87.027400
  C      7.138720  -16.826100   87.573600
  C      7.506840  -15.874500   86.684000
  C      6.621980  -15.634500   85.609500
  C      5.507690  -16.497500   85.621900
  H      8.502630  -15.454900   86.929900
  C      6.913720  -14.454400   84.717900
  H      7.291510  -13.591300   85.320700
  H      5.964480  -14.134800   84.236400
  C      7.889760  -14.875500   83.658800
  H      7.373620  -15.311800   82.825800
  H      8.642930  -15.571600   84.033000
  C      8.569080  -13.677100   83.025800
  H      7.929490  -13.005800   82.511600
  H      9.303740  -14.120000   82.370400
  H      9.320680  -13.140500   83.636300
  H      0.866398  -16.954200   84.202000
  H      7.739010  -17.073300   88.465600

 Total Charge           Charge          ....    0
 Multiplicity           Mult            ....    1
 Number of Electrons    NEL             ....  134
 Basis Dimension        Dim             ....  322

ORBITAL ENERGIES
----------------

  NO   OCC          E(Eh)            E(eV)
   0   2.0000     -88.970379     -2421.0071
   1   2.0000     -88.960461     -2420.7372
   2   2.0000     -10.330556      -281.1087
   3   2.0000     -10.326858      -281.0081
   4   2.0000     -10.311599      -280.5929
   5   2.0000     -10.308550      -280.5099
   6   2.0000     -10.302087      -280.3340
   7   2.0000     -10.299594      -280.2662
   8   2.0000     -10.298909      -280.2476
   9   2.0000     -10.297733      -280.2156
  10   2.0000     -10.295658      -280.1591
  11   2.0000     -10.290178      -280.0100
  12   2.0000     -10.287009      -279.9238
  13   2.0000     -10.281492      -279.7736
  14   2.0000     -10.274842      -279.5927
  15   2.0000     -10.271946      -279.5139
  16   2.0000      -8.084897      -220.0012
  17   2.0000      -8.075422      -219.7434
  18   2.0000      -6.043330      -164.4474
  19   2.0000      -6.039529      -164.3439
  20   2.0000      -6.035641      -164.2381
  21   2.0000      -6.033917      -164.1912
  22   2.0000      -6.029810      -164.0795
  23   2.0000      -6.026257      -163.9828
  24   2.0000      -1.008920       -27.4541
  25   2.0000      -0.985560       -26.8185
  26   2.0000      -0.917548       -24.9678
  27   2.0000      -0.906372       -24.6636
  28   2.0000      -0.872536       -23.7429
  29   2.0000      -0.854350       -23.2481
  30   2.0000      -0.846061       -23.0225
  31   2.0000      -0.815626       -22.1943
  32   2.0000      -0.782564       -21.2947
  33   2.0000      -0.770277       -20.9603
  34   2.0000      -0.717135       -19.5142
  35   2.0000      -0.695967       -18.9382
  36   2.0000      -0.689279       -18.7562
  37   2.0000      -0.656043       -17.8518
  38   2.0000      -0.634408       -17.2631
  39   2.0000      -0.623253       -16.9596
  40   2.0000      -0.599256       -16.3066
  41   2.0000      -0.572494       -15.5783
  42   2.0000      -0.564694       -15.3661
  43   2.0000      -0.560220       -15.2444
  44   2.0000      -0.532461       -14.4890
  45   2.0000      -0.524717       -14.2783
  46   2.0000      -0.517564       -14.0836
  47   2.0000      -0.509856       -13.8739
  48   2.0000      -0.503605       -13.7038
  49   2.0000      -0.500003       -13.6058
  50   2.0000      -0.496971       -13.5233
  51   2.0000      -0.480929       -13.0868
  52   2.0000      -0.470487       -12.8026
  53   2.0000      -0.466615       -12.6972
  54   2.0000      -0.461123       -12.5478
  55   2.0000      -0.453815       -12.3489
  56   2.0000      -0.441556       -12.0154
  57   2.0000      -0.434502       -11.8234
  58   2.0000      -0.431472       -11.7409
  59   2.0000      -0.425729       -11.5847
  60   2.0000      -0.419870       -11.4252
  61   2.0000      -0.417322       -11.3559
  62   2.0000      -0.406392       -11.0585
  63   2.0000      -0.355417        -9.6714
  64   2.0000      -0.335294        -9.1238
  65   2.0000      -0.326691        -8.8897
  66   2.0000      -0.280748        -7.6396
  67   0.0000       0.022235         0.6051
  68   0.0000       0.076908         2.0928
  69   0.0000       0.110842         3.0162
  70   0.0000       0.124423         3.3857
  71   0.0000       0.130127         3.5409

MULLIKEN ATOMIC CHARGES
-----------------------
   0 S :    0.130696
   1 C :   -0.121260
   2 C :   -0.071264
   3 C :    0.002972
   4 C :   -0.139640
   5 H :    0.018556
   6 C :    0.044319
   7 H :    0.054331
   8 H :    0.038191
   9 C :   -0.141537
  10 H :    0.040145
  11 H :    0.034986
  12 C :   -0.010616
  13 H :    0.030353
  14 H :    0.012710
  15 H :    0.031259
  16 S :    0.087003
  17 C :   -0.101027
  18 C :   -0.059351
  19 C :   -0.024831
  20 C :   -0.147811
  21 H :    0.025486
  22 C :    0.064808
  23 H :    0.040584
  24 H :    0.024563
  25 C :   -0.072036
  26 H :    0.026147
  27 H :    0.035898
  28 C :   -0.035754
  29 H :    0.033213
  30 H :    0.015436
  31 H :    0.023781
  32 H :    0.043427
  33 H :    0.066262
Sum of atomic charges:    0.0000000

LOEWDIN ATOMIC CHARGES
----------------------
   0 S :    0.419011
   1 C :   -0.206603
   2 C :   -0.065703
   3 C :   -0.065504
   4 C :   -0.183205
   5 H :    0.035775
   6 C :   -0.038780
   7 H :    0.037493
   8 H :    0.036519
   9 C :   -0.042070
  10 H :    0.022274
  11 H :    0.024749
  12 C :   -0.060364
  13 H :    0.031899
  14 H :    0.015443
  15 H :    0.021787
  16 S :    0.396201
  17 C :   -0.200034
  18 C :   -0.086067
  19 C :   -0.055291
  20 C :   -0.193121
  21 H :    0.036894
  22 C :   -0.034171
  23 H :    0.036160
  24 H :    0.031756
  25 C :   -0.037511
  26 H :    0.023600
  27 H :    0.027278
  28 C :   -0.068156
  29 H :    0.019728
  30 H :    0.026766
  31 H :    0.025763
  32 H :    0.026933
  33 H :    0.040549

  Mayer bond orders larger than 0.100000
B(  0-S ,  1-C ) :   1.1304 B(  0-S ,  4-C ) :   1.1603 B(  1-C ,  2-C ) :   1.6183
B(  1-C , 32-H ) :   0.9683 B(  2-C ,  3-C ) :   1.2620 B(  2-C ,  6-C ) :   0.9982
B(  3-C ,  4-C ) :   1.5250 B(  3-C ,  5-H ) :   0.9906 B(  4-C , 20-C ) :   1.1082
B(  6-C ,  7-H ) :   0.9409 B(  6-C ,  8-H ) :   0.9464 B(  6-C ,  9-C ) :   1.0762
B(  9-C , 10-H ) :   0.9509 B(  9-C , 11-H ) :   0.9586 B(  9-C , 12-C ) :   1.0788
B( 12-C , 13-H ) :   0.9731 B( 12-C , 14-H ) :   0.9744 B( 12-C , 15-H ) :   0.9770
B( 16-S , 17-C ) :   1.1507 B( 16-S , 20-C ) :   1.1300 B( 17-C , 18-C ) :   1.6253
B( 17-C , 33-H ) :   0.9614 B( 18-C , 19-C ) :   1.2400 B( 18-C , 21-H ) :   0.9847
B( 19-C , 20-C ) :   1.5509 B( 19-C , 22-C ) :   1.0492 B( 22-C , 23-H ) :   0.9496
B( 22-C , 24-H ) :   0.9204 B( 22-C , 25-C ) :   1.0623 B( 25-C , 26-H ) :   0.9457
B( 25-C , 27-H ) :   0.9605 B( 25-C , 28-C ) :   1.0927 B( 28-C , 29-H ) :   0.9730
B( 28-C , 30-H ) :   0.9684 B( 28-C , 31-H ) :   0.9716

Dispersion correction           -0.013601050
FINAL SINGLE POINT ENERGY     -1339.874111175499

DIPOLE MOMENT
-------------
                                X             Y             Z
Electronic contribution:     -7.15576     -11.03822      29.08892
Nuclear contribution   :      7.40084      11.34854     -29.61367
                        -----------------------------------------
Total Dipole Moment    :      0.24508       0.31032      -0.52476
                        -----------------------------------------
Magnitude (a.u.)       :      0.65706
Magnitude (Debye)      :      1.67012

Rotational constants in cm-1:     0.016757     0.009062     0.006261
Rotational constants in MHz :   502.352810   271.667455   187.688067

                             ****ORCA TERMINATED NORMALLY****
TOTAL RUN TIME: 0 days 0 hours 0 minutes 31 seconds 473 msec
