                         Program Version 4.2.1 -  RELEASE  -
|  1> ! wB97X-D3 SP def2-SVP
|  2> %pal
|  3> nprocs 16
|  4> end
|  5>
|  6> * xyz 0 1
|  7> S 	 -39.4794 	 37.7393 	 84.0507
|  8> C 	 -38.7766 	 39.2906 	 83.7361
|  9> C 	 -38.5104 	 39.4635 	 82.4178
| 10> C 	 -38.7811 	 38.2402 	 81.6808
| 11> C 	 -39.323 	 37.1817 	 82.3985
| 12> H 	 -38.4773 	 38.1201 	 80.6307
| 13> C 	 -37.7928 	 40.6861 	 81.8012
| 14> H 	 -37.3962 	 41.2982 	 82.5639
| 15> H 	 -38.523 	 41.2617 	 81.2758
| 16> C 	 -36.5597 	 40.3921 	 80.8479
| 17> H 	 -35.9704 	 39.5046 	 81.2227
| 18> H 	 -36.9401 	 40.0775 	 79.9159
| 19> C 	 -35.5557 	 41.572 	 80.6057
| 20> H 	 -35.0079 	 41.5113 	 79.6759
| 21> H 	 -36.0191 	 42.5278 	 80.4982
| 22> H 	 -34.8264 	 41.581 	 81.4339
| 23> S 	 -40.9035 	 35.0736 	 82.7734
| 24> C 	 -40.9441 	 33.7667 	 81.6848
| 25> C 	 -39.7992 	 33.8237 	 80.8806
| 26> C 	 -39.2218 	 35.1565 	 80.8176
| 27> C 	 -39.6372 	 35.8955 	 81.9128
| 28> H 	 -39.63 	 33.051 	 80.25
| 29> C 	 -37.9178 	 35.446 	 80.0374
| 30> H 	 -37.9469 	 36.4517 	 79.6652
| 31> H 	 -37.8456 	 34.7035 	 79.2399
| 32> C 	 -36.6315 	 35.3437 	 80.9414
| 33> H 	 -36.76 	 34.5292 	 81.659
| 34> H 	 -36.5875 	 36.2486 	 81.4934
| 35> C 	 -35.3873 	 35.0511 	 80.1133
| 36> H 	 -35.2398 	 35.8975 	 79.4531
| 37> H 	 -35.5037 	 34.2346 	 79.4705
| 38> H 	 -34.4871 	 34.9346 	 80.757
| 39> H 	 -38.6711 	 40.0421 	 84.4807
| 40> H 	 -41.6193 	 32.8806 	 81.792
| 41> *
| 42>
| 43>                          ****END OF INPUT****

CARTESIAN COORDINATES (ANGSTROEM)
---------------------------------
  S    -39.479400   37.739300   84.050700
  C    -38.776600   39.290600   83.736100
  C    -38.510400   39.463500   82.417800
  C    -38.781100   38.240200   81.680800
  C    -39.323000   37.181700   82.398500
  H    -38.477300   38.120100   80.630700
  C    -37.792800   40.686100   81.801200
  H    -37.396200   41.298200   82.563900
  H    -38.523000   41.261700   81.275800
  C    -36.559700   40.392100   80.847900
  H    -35.970400   39.504600   81.222700
  H    -36.940100   40.077500   79.915900
  C    -35.555700   41.572000   80.605700
  H    -35.007900   41.511300   79.675900
  H    -36.019100   42.527800   80.498200
  H    -34.826400   41.581000   81.433900
  S    -40.903500   35.073600   82.773400
  C    -40.944100   33.766700   81.684800
  C    -39.799200   33.823700   80.880600
  C    -39.221800   35.156500   80.817600
  C    -39.637200   35.895500   81.912800
  H    -39.630000   33.051000   80.250000
  C    -37.917800   35.446000   80.037400
  H    -37.946900   36.451700   79.665200
  H    -37.845600   34.703500   79.239900
  C    -36.631500   35.343700   80.941400
  H    -36.760000   34.529200   81.659000
  H    -36.587500   36.248600   81.493400
  C    -35.387300   35.051100   80.113300
  H    -35.239800   35.897500   79.453100
  H    -35.503700   34.234600   79.470500
  H    -34.487100   34.934600   80.757000
  H    -38.671100   40.042100   84.480700
  H    -41.619300   32.880600   81.792000

 Total Charge           Charge          ....    0
 Multiplicity           Mult            ....    1
 Number of Electrons    NEL             ....  134
 Basis Dimension        Dim             ....  322

ORBITAL ENERGIES
----------------

  NO   OCC          E(Eh)            E(eV)
   0   2.0000     -88.964613     -2420.8502
   1   2.0000     -88.963842     -2420.8292
   2   2.0000     -10.329594      -281.0825
   3   2.0000     -10.324727      -280.9501
   4   2.0000     -10.319899      -280.8187
   5   2.0000     -10.309755      -280.5427
   6   2.0000     -10.307558      -280.4829
   7   2.0000     -10.302659      -280.3496
   8   2.0000     -10.295089      -280.1436
   9   2.0000     -10.294650      -280.1317
  10   2.0000     -10.294046      -280.1152
  11   2.0000     -10.293970      -280.1132
  12   2.0000     -10.291777      -280.0535
  13   2.0000     -10.281967      -279.7865
  14   2.0000     -10.280560      -279.7483
  15   2.0000     -10.273718      -279.5621
  16   2.0000      -8.079951      -219.8666
  17   2.0000      -8.079705      -219.8600
  18   2.0000      -6.038433      -164.3141
  19   2.0000      -6.038351      -164.3119
  20   2.0000      -6.034157      -164.1978
  21   2.0000      -6.034102      -164.1963
  22   2.0000      -6.030852      -164.1078
  23   2.0000      -6.030283      -164.0923
  24   2.0000      -1.014335       -27.6015
  25   2.0000      -0.988270       -26.8922
  26   2.0000      -0.907619       -24.6976
  27   2.0000      -0.904425       -24.6106
  28   2.0000      -0.876579       -23.8529
  29   2.0000      -0.853318       -23.2200
  30   2.0000      -0.841471       -22.8976
  31   2.0000      -0.814730       -22.1699
  32   2.0000      -0.784410       -21.3449
  33   2.0000      -0.775305       -21.0971
  34   2.0000      -0.714520       -19.4431
  35   2.0000      -0.702045       -19.1036
  36   2.0000      -0.693372       -18.8676
  37   2.0000      -0.672206       -18.2917
  38   2.0000      -0.637755       -17.3542
  39   2.0000      -0.622305       -16.9338
  40   2.0000      -0.593635       -16.1536
  41   2.0000      -0.570492       -15.5239
  42   2.0000      -0.568802       -15.4779
  43   2.0000      -0.560849       -15.2615
  44   2.0000      -0.524917       -14.2837
  45   2.0000      -0.522812       -14.2264
  46   2.0000      -0.520349       -14.1594
  47   2.0000      -0.511719       -13.9246
  48   2.0000      -0.509665       -13.8687
  49   2.0000      -0.501813       -13.6550
  50   2.0000      -0.497175       -13.5288
  51   2.0000      -0.483289       -13.1510
  52   2.0000      -0.476950       -12.9785
  53   2.0000      -0.466735       -12.7005
  54   2.0000      -0.457830       -12.4582
  55   2.0000      -0.453202       -12.3323
  56   2.0000      -0.447202       -12.1690
  57   2.0000      -0.434260       -11.8168
  58   2.0000      -0.432868       -11.7789
  59   2.0000      -0.427510       -11.6332
  60   2.0000      -0.422427       -11.4948
  61   2.0000      -0.416991       -11.3469
  62   2.0000      -0.410684       -11.1753
  63   2.0000      -0.365796        -9.9538
  64   2.0000      -0.331880        -9.0309
  65   2.0000      -0.325492        -8.8571
  66   2.0000      -0.282138        -7.6774
  67   0.0000       0.021178         0.5763
  68   0.0000       0.078430         2.1342
  69   0.0000       0.113729         3.0947
  70   0.0000       0.116186         3.1616
  71   0.0000       0.128836         3.5058

MULLIKEN ATOMIC CHARGES
-----------------------
   0 S :    0.103381
   1 C :   -0.120304
   2 C :   -0.077980
   3 C :   -0.031687
   4 C :   -0.085466
   5 H :    0.004380
   6 C :    0.114216
   7 H :    0.007454
   8 H :    0.034341
   9 C :   -0.113823
  10 H :    0.044657
  11 H :    0.022030
  12 C :   -0.046162
  13 H :    0.030201
  14 H :    0.024534
  15 H :    0.041096
  16 S :    0.106575
  17 C :   -0.111766
  18 C :    0.008898
  19 C :   -0.063808
  20 C :   -0.128289
  21 H :   -0.016404
  22 C :    0.029634
  23 H :    0.027518
  24 H :    0.019308
  25 C :   -0.057050
  26 H :    0.031569
  27 H :    0.031036
  28 C :   -0.026653
  29 H :    0.017520
  30 H :    0.017836
  31 H :    0.044301
  32 H :    0.037730
  33 H :    0.081175
Sum of atomic charges:    0.0000000

LOEWDIN ATOMIC CHARGES
----------------------
   0 S :    0.404567
   1 C :   -0.193597
   2 C :   -0.062963
   3 C :   -0.072732
   4 C :   -0.194654
   5 H :    0.026806
   6 C :   -0.020574
   7 H :    0.022332
   8 H :    0.030508
   9 C :   -0.040520
  10 H :    0.031150
  11 H :    0.011771
  12 C :   -0.066594
  13 H :    0.028563
  14 H :    0.021367
  15 H :    0.029272
  16 S :    0.431641
  17 C :   -0.204158
  18 C :   -0.057231
  19 C :   -0.052885
  20 C :   -0.196418
  21 H :    0.009877
  22 C :   -0.022929
  23 H :    0.022982
  24 H :    0.026360
  25 C :   -0.032193
  26 H :    0.023886
  27 H :    0.019875
  28 C :   -0.060729
  29 H :    0.022849
  30 H :    0.015383
  31 H :    0.033094
  32 H :    0.024282
  33 H :    0.041609

  Mayer bond orders larger than 0.100000
B(  0-S ,  1-C ) :   1.1341 B(  0-S ,  4-C ) :   1.1295 B(  1-C ,  2-C ) :   1.6297
B(  1-C , 32-H ) :   0.9688 B(  2-C ,  3-C ) :   1.2448 B(  2-C ,  6-C ) :   1.0199
B(  3-C ,  4-C ) :   1.5618 B(  3-C ,  5-H ) :   0.9887 B(  4-C , 20-C ) :   1.1143
B(  6-C ,  7-H ) :   0.9510 B(  6-C ,  8-H ) :   0.9297 B(  6-C ,  9-C ) :   1.0514
B(  9-C , 10-H ) :   0.9658 B(  9-C , 11-H ) :   0.9544 B(  9-C , 12-C ) :   1.0794
B( 12-C , 13-H ) :   0.9753 B( 12-C , 14-H ) :   0.9764 B( 12-C , 15-H ) :   0.9783
B( 16-S , 17-C ) :   1.1776 B( 16-S , 20-C ) :   1.1457 B( 17-C , 18-C ) :   1.5846
B( 17-C , 20-C ) :   0.1013 B( 17-C , 33-H ) :   0.9627 B( 18-C , 19-C ) :   1.2446
B( 18-C , 21-H ) :   0.9931 B( 19-C , 20-C ) :   1.5423 B( 19-C , 22-C ) :   1.0671
B( 22-C , 23-H ) :   0.9351 B( 22-C , 24-H ) :   0.9421 B( 22-C , 25-C ) :   1.0466
B( 25-C , 26-H ) :   0.9603 B( 25-C , 27-H ) :   0.9519 B( 25-C , 28-C ) :   1.0857
B( 28-C , 29-H ) :   0.9729 B( 28-C , 30-H ) :   0.9762 B( 28-C , 31-H ) :   0.9731

Dispersion correction           -0.014502768
FINAL SINGLE POINT ENERGY     -1339.868408588659

DIPOLE MOMENT
-------------
                                X             Y             Z
Electronic contribution:    -25.74708     -10.99667      17.00653
Nuclear contribution   :     26.26566      11.11069     -17.47200
                        -----------------------------------------
Total Dipole Moment    :      0.51858       0.11402      -0.46547
                        -----------------------------------------
Magnitude (a.u.)       :      0.70610
Magnitude (Debye)      :      1.79477

Rotational constants in cm-1:     0.018423     0.009283     0.006730
Rotational constants in MHz :   552.313559   278.309172   201.751836

                             ****ORCA TERMINATED NORMALLY****
TOTAL RUN TIME: 0 days 0 hours 0 minutes 29 seconds 298 msec
