                         Program Version 4.2.1 -  RELEASE  -
|  1> ! wB97X-D3 SP def2-SVP
|  2> %pal
|  3> nprocs 16
|  4> end
|  5>
|  6> * xyz 0 1
|  7> S 	 -20.713 	 -7.161 	 84.4853
|  8> C 	 -19.7161 	 -8.60248 	 84.2211
|  9> C 	 -18.8889 	 -8.82465 	 85.2961
| 10> C 	 -19.1512 	 -7.91072 	 86.3802
| 11> C 	 -19.9948 	 -6.8649 	 86.0321
| 12> H 	 -18.7258 	 -7.87397 	 87.3769
| 13> C 	 -17.7594 	 -9.77387 	 85.4855
| 14> H 	 -16.9248 	 -9.33044 	 85.902
| 15> H 	 -17.4293 	 -10.1032 	 84.4785
| 16> C 	 -18.1151 	 -11.009 	 86.3407
| 17> H 	 -17.1929 	 -11.4667 	 86.6817
| 18> H 	 -18.4771 	 -10.5365 	 87.3504
| 19> C 	 -19.1041 	 -11.9869 	 85.6295
| 20> H 	 -18.673 	 -12.2999 	 84.6817
| 21> H 	 -19.2625 	 -12.8801 	 86.2
| 22> H 	 -20.0743 	 -11.511 	 85.4404
| 23> S 	 -22.1893 	 -5.99387 	 87.2226
| 24> C 	 -22.0655 	 -4.8107 	 88.5499
| 25> C 	 -20.8035 	 -4.4758 	 88.7789
| 26> C 	 -19.879 	 -5.1317 	 87.9
| 27> C 	 -20.5196 	 -5.93751 	 86.9973
| 28> H 	 -20.5315 	 -3.82504 	 89.6407
| 29> C 	 -18.3817 	 -4.91584 	 87.8585
| 30> H 	 -18.0452 	 -4.52348 	 86.8766
| 31> H 	 -17.9211 	 -5.89874 	 88.0222
| 32> C 	 -17.7525 	 -3.94904 	 88.8763
| 33> H 	 -18.1704 	 -4.02408 	 89.9264
| 34> H 	 -18.1277 	 -2.93169 	 88.5861
| 35> C 	 -16.2725 	 -3.94701 	 88.8689
| 36> H 	 -15.9694 	 -3.75123 	 87.8283
| 37> H 	 -15.8102 	 -4.91792 	 89.0727
| 38> H 	 -15.8207 	 -3.18003 	 89.4754
| 39> H 	 -19.6518 	 -8.99933 	 83.2401
| 40> H 	 -22.8943 	 -4.37389 	 89.0624
| 41> *
| 42>
| 43>                          ****END OF INPUT****

CARTESIAN COORDINATES (ANGSTROEM)
---------------------------------
  S    -20.713000   -7.161000   84.485300
  C    -19.716100   -8.602480   84.221100
  C    -18.888900   -8.824650   85.296100
  C    -19.151200   -7.910720   86.380200
  C    -19.994800   -6.864900   86.032100
  H    -18.725800   -7.873970   87.376900
  C    -17.759400   -9.773870   85.485500
  H    -16.924800   -9.330440   85.902000
  H    -17.429300  -10.103200   84.478500
  C    -18.115100  -11.009000   86.340700
  H    -17.192900  -11.466700   86.681700
  H    -18.477100  -10.536500   87.350400
  C    -19.104100  -11.986900   85.629500
  H    -18.673000  -12.299900   84.681700
  H    -19.262500  -12.880100   86.200000
  H    -20.074300  -11.511000   85.440400
  S    -22.189300   -5.993870   87.222600
  C    -22.065500   -4.810700   88.549900
  C    -20.803500   -4.475800   88.778900
  C    -19.879000   -5.131700   87.900000
  C    -20.519600   -5.937510   86.997300
  H    -20.531500   -3.825040   89.640700
  C    -18.381700   -4.915840   87.858500
  H    -18.045200   -4.523480   86.876600
  H    -17.921100   -5.898740   88.022200
  C    -17.752500   -3.949040   88.876300
  H    -18.170400   -4.024080   89.926400
  H    -18.127700   -2.931690   88.586100
  C    -16.272500   -3.947010   88.868900
  H    -15.969400   -3.751230   87.828300
  H    -15.810200   -4.917920   89.072700
  H    -15.820700   -3.180030   89.475400
  H    -19.651800   -8.999330   83.240100
  H    -22.894300   -4.373890   89.062400

 Total Charge           Charge          ....    0
 Multiplicity           Mult            ....    1
 Number of Electrons    NEL             ....  134
 Basis Dimension        Dim             ....  322

ORBITAL ENERGIES
----------------

  NO   OCC          E(Eh)            E(eV)
   0   2.0000     -88.965144     -2420.8647
   1   2.0000     -88.960805     -2420.7466
   2   2.0000     -10.324764      -280.9511
   3   2.0000     -10.315860      -280.7088
   4   2.0000     -10.315573      -280.7010
   5   2.0000     -10.308635      -280.5122
   6   2.0000     -10.303657      -280.3768
   7   2.0000     -10.297828      -280.2181
   8   2.0000     -10.296496      -280.1819
   9   2.0000     -10.293817      -280.1090
  10   2.0000     -10.292634      -280.0768
  11   2.0000     -10.291627      -280.0494
  12   2.0000     -10.290500      -280.0187
  13   2.0000     -10.286821      -279.9186
  14   2.0000     -10.278745      -279.6989
  15   2.0000     -10.277104      -279.6542
  16   2.0000      -8.080023      -219.8686
  17   2.0000      -8.076656      -219.7770
  18   2.0000      -6.038562      -164.3176
  19   2.0000      -6.035172      -164.2254
  20   2.0000      -6.034478      -164.2065
  21   2.0000      -6.031016      -164.1123
  22   2.0000      -6.030776      -164.1058
  23   2.0000      -6.027304      -164.0113
  24   2.0000      -1.015605       -27.6360
  25   2.0000      -0.987350       -26.8672
  26   2.0000      -0.914408       -24.8823
  27   2.0000      -0.911789       -24.8110
  28   2.0000      -0.875801       -23.8318
  29   2.0000      -0.854442       -23.2505
  30   2.0000      -0.842524       -22.9262
  31   2.0000      -0.817649       -22.2494
  32   2.0000      -0.785488       -21.3742
  33   2.0000      -0.772654       -21.0250
  34   2.0000      -0.707121       -19.2417
  35   2.0000      -0.700644       -19.0655
  36   2.0000      -0.697375       -18.9765
  37   2.0000      -0.654204       -17.8018
  38   2.0000      -0.644145       -17.5281
  39   2.0000      -0.618836       -16.8394
  40   2.0000      -0.602140       -16.3851
  41   2.0000      -0.571116       -15.5409
  42   2.0000      -0.568345       -15.4655
  43   2.0000      -0.551280       -15.0011
  44   2.0000      -0.535492       -14.5715
  45   2.0000      -0.529263       -14.4020
  46   2.0000      -0.517775       -14.0894
  47   2.0000      -0.515084       -14.0162
  48   2.0000      -0.501122       -13.6362
  49   2.0000      -0.499982       -13.6052
  50   2.0000      -0.494552       -13.4574
  51   2.0000      -0.479193       -13.0395
  52   2.0000      -0.474776       -12.9193
  53   2.0000      -0.468279       -12.7425
  54   2.0000      -0.460830       -12.5398
  55   2.0000      -0.452947       -12.3253
  56   2.0000      -0.446795       -12.1579
  57   2.0000      -0.435801       -11.8588
  58   2.0000      -0.430353       -11.7105
  59   2.0000      -0.424251       -11.5444
  60   2.0000      -0.421221       -11.4620
  61   2.0000      -0.412023       -11.2117
  62   2.0000      -0.409568       -11.1449
  63   2.0000      -0.353642        -9.6231
  64   2.0000      -0.328571        -8.9409
  65   2.0000      -0.327549        -8.9131
  66   2.0000      -0.293904        -7.9975
  67   0.0000       0.033387         0.9085
  68   0.0000       0.075965         2.0671
  69   0.0000       0.111316         3.0291
  70   0.0000       0.115595         3.1455
  71   0.0000       0.138182         3.7601

MULLIKEN ATOMIC CHARGES
-----------------------
   0 S :    0.094343
   1 C :   -0.119955
   2 C :   -0.053149
   3 C :    0.002755
   4 C :   -0.153322
   5 H :    0.025926
   6 C :    0.091356
   7 H :    0.010846
   8 H :    0.012615
   9 C :   -0.104695
  10 H :    0.025128
  11 H :    0.031980
  12 C :   -0.026165
  13 H :    0.024300
  14 H :    0.033625
  15 H :    0.048682
  16 S :    0.104912
  17 C :   -0.074534
  18 C :   -0.042433
  19 C :   -0.056223
  20 C :   -0.131998
  21 H :    0.033472
  22 C :    0.062639
  23 H :    0.046248
  24 H :    0.017674
  25 C :   -0.121882
  26 H :    0.031513
  27 H :    0.025980
  28 C :   -0.002598
  29 H :    0.015157
  30 H :    0.027242
  31 H :    0.035071
  32 H :    0.044833
  33 H :    0.040657
Sum of atomic charges:   -0.0000000

LOEWDIN ATOMIC CHARGES
----------------------
   0 S :    0.399288
   1 C :   -0.184215
   2 C :   -0.056518
   3 C :   -0.054647
   4 C :   -0.201026
   5 H :    0.030027
   6 C :   -0.029274
   7 H :    0.021993
   8 H :    0.027946
   9 C :   -0.041076
  10 H :    0.019589
  11 H :    0.030169
  12 C :   -0.062014
  13 H :    0.024736
  14 H :    0.024521
  15 H :    0.031684
  16 S :    0.415893
  17 C :   -0.173186
  18 C :   -0.074021
  19 C :   -0.067619
  20 C :   -0.213366
  21 H :    0.041608
  22 C :   -0.033223
  23 H :    0.039552
  24 H :    0.027200
  25 C :   -0.054694
  26 H :    0.022160
  27 H :    0.026020
  28 C :   -0.063849
  29 H :    0.027133
  30 H :    0.024598
  31 H :    0.027374
  32 H :    0.021516
  33 H :    0.025721

  Mayer bond orders larger than 0.100000
B(  0-S ,  1-C ) :   1.1265 B(  0-S ,  4-C ) :   1.1501 B(  1-C ,  2-C ) :   1.6097
B(  1-C , 32-H ) :   0.9745 B(  2-C ,  3-C ) :   1.2190 B(  2-C ,  6-C ) :   1.0306
B(  3-C ,  4-C ) :   1.5875 B(  3-C ,  5-H ) :   0.9812 B(  4-C , 20-C ) :   1.0263
B(  6-C ,  7-H ) :   0.9381 B(  6-C ,  8-H ) :   0.9387 B(  6-C ,  9-C ) :   1.0744
B(  9-C , 10-H ) :   0.9574 B(  9-C , 11-H ) :   0.9556 B(  9-C , 12-C ) :   1.0598
B( 12-C , 13-H ) :   0.9740 B( 12-C , 14-H ) :   0.9757 B( 12-C , 15-H ) :   0.9757
B( 16-S , 17-C ) :   1.1291 B( 16-S , 20-C ) :   1.1582 B( 17-C , 18-C ) :   1.6448
B( 17-C , 33-H ) :   0.9651 B( 18-C , 19-C ) :   1.2340 B( 18-C , 21-H ) :   0.9816
B( 19-C , 20-C ) :   1.6225 B( 19-C , 22-C ) :   1.0307 B( 22-C , 23-H ) :   0.9332
B( 22-C , 24-H ) :   0.9270 B( 22-C , 25-C ) :   1.0765 B( 25-C , 26-H ) :   0.9509
B( 25-C , 27-H ) :   0.9470 B( 25-C , 28-C ) :   1.0949 B( 28-C , 29-H ) :   0.9658
B( 28-C , 30-H ) :   0.9718 B( 28-C , 31-H ) :   0.9692

Dispersion correction           -0.013955539
FINAL SINGLE POINT ENERGY     -1339.882153188006

DIPOLE MOMENT
-------------
                                X             Y             Z
Electronic contribution:    -22.70879       7.21586      -8.69097
Nuclear contribution   :     23.34935      -7.32675       8.98317
                        -----------------------------------------
Total Dipole Moment    :      0.64056      -0.11089       0.29220
                        -----------------------------------------
Magnitude (a.u.)       :      0.71274
Magnitude (Debye)      :      1.81163

Rotational constants in cm-1:     0.017852     0.008570     0.006757
Rotational constants in MHz :   535.196446   256.914706   202.565460

                             ****ORCA TERMINATED NORMALLY****
TOTAL RUN TIME: 0 days 0 hours 0 minutes 33 seconds 323 msec
