                         Program Version 4.2.1 -  RELEASE  -
|  1> ! wB97X-D3 SP def2-SVP
|  2> %pal
|  3> nprocs 16
|  4> end
|  5>
|  6> * xyz 0 1
|  7> S 	 59.5083 	 -5.83857 	 86.956
|  8> C 	 59.2305 	 -4.2609 	 87.4495
|  9> C 	 58.1028 	 -3.75649 	 86.7987
| 10> C 	 57.5435 	 -4.62608 	 85.8174
| 11> C 	 58.22 	 -5.81516 	 85.7095
| 12> H 	 56.7446 	 -4.45108 	 85.2012
| 13> C 	 57.519 	 -2.4322 	 87.1083
| 14> H 	 57.5294 	 -2.33629 	 88.2121
| 15> H 	 56.4121 	 -2.66665 	 86.8758
| 16> C 	 57.9714 	 -1.14823 	 86.4466
| 17> H 	 57.4873 	 -0.275802 	 86.9095
| 18> H 	 59.0765 	 -1.04268 	 86.5859
| 19> C 	 57.7675 	 -1.12887 	 84.933
| 20> H 	 58.4221 	 -1.7801 	 84.4128
| 21> H 	 56.7442 	 -1.52875 	 84.7783
| 22> H 	 57.9818 	 -0.187559 	 84.4425
| 23> S 	 56.204 	 -7.01345 	 84.2746
| 24> C 	 56.633 	 -8.10493 	 83.067
| 25> C 	 57.9668 	 -8.32802 	 83.0005
| 26> C 	 58.7353 	 -7.79295 	 84.0668
| 27> C 	 57.9204 	 -6.89112 	 84.7309
| 28> H 	 58.2871 	 -8.89541 	 82.1728
| 29> C 	 60.2022 	 -8.05471 	 84.3341
| 30> H 	 60.522 	 -7.46899 	 85.2197
| 31> H 	 60.6819 	 -7.73137 	 83.3962
| 32> C 	 60.5383 	 -9.59352 	 84.579
| 33> H 	 60.1013 	 -10.2478 	 83.7921
| 34> H 	 60.3072 	 -10.0451 	 85.5419
| 35> C 	 62.0156 	 -9.78739 	 84.2815
| 36> H 	 62.3816 	 -10.7724 	 84.3254
| 37> H 	 62.5215 	 -9.10024 	 85.0017
| 38> H 	 62.364 	 -9.41496 	 83.3076
| 39> H 	 59.8302 	 -3.84134 	 88.2642
| 40> H 	 56.0285 	 -8.50949 	 82.2947
| 41> *
| 42>
| 43>                          ****END OF INPUT****

CARTESIAN COORDINATES (ANGSTROEM)
---------------------------------
  S     59.508300   -5.838570   86.956000
  C     59.230500   -4.260900   87.449500
  C     58.102800   -3.756490   86.798700
  C     57.543500   -4.626080   85.817400
  C     58.220000   -5.815160   85.709500
  H     56.744600   -4.451080   85.201200
  C     57.519000   -2.432200   87.108300
  H     57.529400   -2.336290   88.212100
  H     56.412100   -2.666650   86.875800
  C     57.971400   -1.148230   86.446600
  H     57.487300   -0.275802   86.909500
  H     59.076500   -1.042680   86.585900
  C     57.767500   -1.128870   84.933000
  H     58.422100   -1.780100   84.412800
  H     56.744200   -1.528750   84.778300
  H     57.981800   -0.187559   84.442500
  S     56.204000   -7.013450   84.274600
  C     56.633000   -8.104930   83.067000
  C     57.966800   -8.328020   83.000500
  C     58.735300   -7.792950   84.066800
  C     57.920400   -6.891120   84.730900
  H     58.287100   -8.895410   82.172800
  C     60.202200   -8.054710   84.334100
  H     60.522000   -7.468990   85.219700
  H     60.681900   -7.731370   83.396200
  C     60.538300   -9.593520   84.579000
  H     60.101300  -10.247800   83.792100
  H     60.307200  -10.045100   85.541900
  C     62.015600   -9.787390   84.281500
  H     62.381600  -10.772400   84.325400
  H     62.521500   -9.100240   85.001700
  H     62.364000   -9.414960   83.307600
  H     59.830200   -3.841340   88.264200
  H     56.028500   -8.509490   82.294700

 Total Charge           Charge          ....    0
 Multiplicity           Mult            ....    1
 Number of Electrons    NEL             ....  134
 Basis Dimension        Dim             ....  322

ORBITAL ENERGIES
----------------

  NO   OCC          E(Eh)            E(eV)
   0   2.0000     -88.966293     -2420.8959
   1   2.0000     -88.964379     -2420.8438
   2   2.0000     -10.331502      -281.1345
   3   2.0000     -10.329252      -281.0732
   4   2.0000     -10.311430      -280.5883
   5   2.0000     -10.304995      -280.4132
   6   2.0000     -10.304216      -280.3920
   7   2.0000     -10.303006      -280.3590
   8   2.0000     -10.298364      -280.2327
   9   2.0000     -10.292562      -280.0749
  10   2.0000     -10.291519      -280.0465
  11   2.0000     -10.288038      -279.9518
  12   2.0000     -10.286006      -279.8964
  13   2.0000     -10.284410      -279.8530
  14   2.0000     -10.273738      -279.5626
  15   2.0000     -10.271090      -279.4906
  16   2.0000      -8.081745      -219.9155
  17   2.0000      -8.079495      -219.8542
  18   2.0000      -6.040117      -164.3599
  19   2.0000      -6.037972      -164.3016
  20   2.0000      -6.036403      -164.2589
  21   2.0000      -6.033729      -164.1861
  22   2.0000      -6.032366      -164.1490
  23   2.0000      -6.030517      -164.0987
  24   2.0000      -1.011223       -27.5168
  25   2.0000      -0.992602       -27.0101
  26   2.0000      -0.911322       -24.7983
  27   2.0000      -0.908426       -24.7195
  28   2.0000      -0.873993       -23.7825
  29   2.0000      -0.859849       -23.3977
  30   2.0000      -0.849054       -23.1039
  31   2.0000      -0.817088       -22.2341
  32   2.0000      -0.781553       -21.2671
  33   2.0000      -0.767306       -20.8795
  34   2.0000      -0.702937       -19.1279
  35   2.0000      -0.701424       -19.0867
  36   2.0000      -0.694808       -18.9067
  37   2.0000      -0.665849       -18.1187
  38   2.0000      -0.646188       -17.5837
  39   2.0000      -0.610864       -16.6225
  40   2.0000      -0.597008       -16.2454
  41   2.0000      -0.570355       -15.5201
  42   2.0000      -0.564085       -15.3495
  43   2.0000      -0.552063       -15.0224
  44   2.0000      -0.541972       -14.7478
  45   2.0000      -0.531996       -14.4764
  46   2.0000      -0.522180       -14.2092
  47   2.0000      -0.519041       -14.1238
  48   2.0000      -0.511906       -13.9297
  49   2.0000      -0.495816       -13.4919
  50   2.0000      -0.485806       -13.2194
  51   2.0000      -0.480759       -13.0821
  52   2.0000      -0.467755       -12.7282
  53   2.0000      -0.464960       -12.6522
  54   2.0000      -0.459548       -12.5049
  55   2.0000      -0.449054       -12.2194
  56   2.0000      -0.445180       -12.1140
  57   2.0000      -0.443092       -12.0571
  58   2.0000      -0.436132       -11.8677
  59   2.0000      -0.425202       -11.5703
  60   2.0000      -0.419062       -11.4033
  61   2.0000      -0.409252       -11.1363
  62   2.0000      -0.400022       -10.8852
  63   2.0000      -0.360201        -9.8016
  64   2.0000      -0.332475        -9.0471
  65   2.0000      -0.326751        -8.8913
  66   2.0000      -0.282605        -7.6901
  67   0.0000       0.027517         0.7488
  68   0.0000       0.084949         2.3116
  69   0.0000       0.104844         2.8529
  70   0.0000       0.120207         3.2710
  71   0.0000       0.127621         3.4727

MULLIKEN ATOMIC CHARGES
-----------------------
   0 S :    0.094356
   1 C :   -0.125249
   2 C :   -0.076935
   3 C :    0.024352
   4 C :   -0.107273
   5 H :   -0.021264
   6 C :   -0.002256
   7 H :    0.032585
   8 H :    0.030553
   9 C :   -0.028367
  10 H :    0.037394
  11 H :    0.025316
  12 C :   -0.047934
  13 H :    0.026110
  14 H :    0.024262
  15 H :    0.032679
  16 S :    0.108506
  17 C :   -0.055161
  18 C :   -0.050223
  19 C :   -0.026110
  20 C :   -0.161639
  21 H :   -0.003803
  22 C :    0.067658
  23 H :    0.038719
  24 H :    0.042535
  25 C :   -0.078137
  26 H :    0.032609
  27 H :    0.045885
  28 C :   -0.053552
  29 H :    0.027697
  30 H :    0.024495
  31 H :    0.021473
  32 H :    0.062315
  33 H :    0.038405
Sum of atomic charges:    0.0000000

LOEWDIN ATOMIC CHARGES
----------------------
   0 S :    0.423066
   1 C :   -0.220707
   2 C :   -0.070324
   3 C :   -0.063711
   4 C :   -0.174066
   5 H :    0.011525
   6 C :   -0.047728
   7 H :    0.034702
   8 H :    0.037664
   9 C :   -0.041835
  10 H :    0.028168
  11 H :    0.027185
  12 C :   -0.067218
  13 H :    0.021222
  14 H :    0.024845
  15 H :    0.026743
  16 S :    0.419483
  17 C :   -0.202166
  18 C :   -0.067956
  19 C :   -0.054359
  20 C :   -0.179434
  21 H :    0.022742
  22 C :   -0.025944
  23 H :    0.022073
  24 H :    0.041416
  25 C :   -0.037533
  26 H :    0.025851
  27 H :    0.028580
  28 C :   -0.068258
  29 H :    0.016751
  30 H :    0.026104
  31 H :    0.022231
  32 H :    0.034787
  33 H :    0.026100

  Mayer bond orders larger than 0.100000
B(  0-S ,  1-C ) :   1.1643 B(  0-S ,  4-C ) :   1.1458 B(  1-C ,  2-C ) :   1.5600
B(  1-C , 32-H ) :   0.9737 B(  2-C ,  3-C ) :   1.2580 B(  2-C ,  6-C ) :   1.0165
B(  3-C ,  4-C ) :   1.5513 B(  3-C ,  5-H ) :   1.0048 B(  4-C , 20-C ) :   1.0519
B(  6-C ,  7-H ) :   0.9391 B(  6-C ,  8-H ) :   0.9420 B(  6-C ,  9-C ) :   1.0776
B(  9-C , 10-H ) :   0.9531 B(  9-C , 11-H ) :   0.9506 B(  9-C , 12-C ) :   1.0757
B( 12-C , 13-H ) :   0.9727 B( 12-C , 14-H ) :   0.9758 B( 12-C , 15-H ) :   0.9722
B( 16-S , 17-C ) :   1.1394 B( 16-S , 20-C ) :   1.1428 B( 17-C , 18-C ) :   1.6606
B( 17-C , 33-H ) :   0.9637 B( 18-C , 19-C ) :   1.2017 B( 18-C , 21-H ) :   0.9928
B( 19-C , 20-C ) :   1.5888 B( 19-C , 22-C ) :   1.0417 B( 22-C , 23-H ) :   0.9256
B( 22-C , 24-H ) :   0.9355 B( 22-C , 25-C ) :   1.0448 B( 25-C , 26-H ) :   0.9628
B( 25-C , 27-H ) :   0.9587 B( 25-C , 28-C ) :   1.0726 B( 28-C , 29-H ) :   0.9749
B( 28-C , 30-H ) :   0.9721 B( 28-C , 31-H ) :   0.9768

Dispersion correction           -0.013794083
FINAL SINGLE POINT ENERGY     -1339.866273263023

DIPOLE MOMENT
-------------
                                X             Y             Z
Electronic contribution:    -10.56349      -6.67315       3.68333
Nuclear contribution   :     10.78166       6.72628      -3.92276
                        -----------------------------------------
Total Dipole Moment    :      0.21817       0.05313      -0.23943
                        -----------------------------------------
Magnitude (a.u.)       :      0.32825
Magnitude (Debye)      :      0.83434

Rotational constants in cm-1:     0.021025     0.007894     0.006404
Rotational constants in MHz :   630.306485   236.663388   191.988105

                             ****ORCA TERMINATED NORMALLY****
TOTAL RUN TIME: 0 days 0 hours 0 minutes 29 seconds 998 msec
