                         Program Version 4.2.1 -  RELEASE  -
|  1> ! wB97X-D3 SP def2-SVP
|  2> %pal
|  3> nprocs 16
|  4> end
|  5>
|  6> * xyz 0 1
|  7> S 	 -47.1425 	 61.7745 	 140.554
|  8> C 	 -46.7428 	 60.3891 	 141.604
|  9> C 	 -47.7731 	 60.0524 	 142.407
| 10> C 	 -48.7851 	 61.0818 	 142.287
| 11> C 	 -48.6054 	 62.0743 	 141.423
| 12> H 	 -49.6685 	 61.1556 	 142.87
| 13> C 	 -47.8966 	 58.7671 	 143.242
| 14> H 	 -47.366 	 58.9576 	 144.132
| 15> H 	 -47.3883 	 57.8721 	 142.847
| 16> C 	 -49.3193 	 58.4587 	 143.707
| 17> H 	 -49.9422 	 59.3356 	 143.968
| 18> H 	 -49.7508 	 58.1391 	 142.759
| 19> C 	 -49.4767 	 57.4592 	 144.786
| 20> H 	 -49.2712 	 56.4329 	 144.453
| 21> H 	 -48.8978 	 57.5815 	 145.709
| 22> H 	 -50.5643 	 57.5828 	 145.143
| 23> S 	 -48.5585 	 64.8421 	 141.532
| 24> C 	 -50.1382 	 65.638 	 141.691
| 25> C 	 -51.1592 	 64.783 	 141.416
| 26> C 	 -50.7233 	 63.4489 	 141.26
| 27> C 	 -49.3644 	 63.2491 	 141.359
| 28> H 	 -52.1697 	 65.1496 	 141.417
| 29> C 	 -51.7382 	 62.382 	 140.971
| 30> H 	 -51.3182 	 61.6883 	 140.298
| 31> H 	 -52.5239 	 62.8352 	 140.397
| 32> C 	 -52.4197 	 61.7209 	 142.225
| 33> H 	 -52.9785 	 62.4369 	 142.808
| 34> H 	 -51.6535 	 61.2742 	 142.926
| 35> C 	 -53.3742 	 60.5207 	 141.946
| 36> H 	 -54.0415 	 60.8516 	 141.062
| 37> H 	 -54.0689 	 60.5026 	 142.788
| 38> H 	 -52.8812 	 59.636 	 141.674
| 39> H 	 -45.9748 	 59.6826 	 141.473
| 40> H 	 -50.2873 	 66.7295 	 141.823
| 41> *
| 42>
| 43>                          ****END OF INPUT****

CARTESIAN COORDINATES (ANGSTROEM)
---------------------------------
  S    -47.142500   61.774500  140.554000
  C    -46.742800   60.389100  141.604000
  C    -47.773100   60.052400  142.407000
  C    -48.785100   61.081800  142.287000
  C    -48.605400   62.074300  141.423000
  H    -49.668500   61.155600  142.870000
  C    -47.896600   58.767100  143.242000
  H    -47.366000   58.957600  144.132000
  H    -47.388300   57.872100  142.847000
  C    -49.319300   58.458700  143.707000
  H    -49.942200   59.335600  143.968000
  H    -49.750800   58.139100  142.759000
  C    -49.476700   57.459200  144.786000
  H    -49.271200   56.432900  144.453000
  H    -48.897800   57.581500  145.709000
  H    -50.564300   57.582800  145.143000
  S    -48.558500   64.842100  141.532000
  C    -50.138200   65.638000  141.691000
  C    -51.159200   64.783000  141.416000
  C    -50.723300   63.448900  141.260000
  C    -49.364400   63.249100  141.359000
  H    -52.169700   65.149600  141.417000
  C    -51.738200   62.382000  140.971000
  H    -51.318200   61.688300  140.298000
  H    -52.523900   62.835200  140.397000
  C    -52.419700   61.720900  142.225000
  H    -52.978500   62.436900  142.808000
  H    -51.653500   61.274200  142.926000
  C    -53.374200   60.520700  141.946000
  H    -54.041500   60.851600  141.062000
  H    -54.068900   60.502600  142.788000
  H    -52.881200   59.636000  141.674000
  H    -45.974800   59.682600  141.473000
  H    -50.287300   66.729500  141.823000

 Total Charge           Charge          ....    0
 Multiplicity           Mult            ....    1
 Number of Electrons    NEL             ....  134
 Basis Dimension        Dim             ....  322

ORBITAL ENERGIES
----------------

  NO   OCC          E(Eh)            E(eV)
   0   2.0000     -88.963457     -2420.8187
   1   2.0000     -88.962115     -2420.7822
   2   2.0000     -10.324500      -280.9439
   3   2.0000     -10.319629      -280.8114
   4   2.0000     -10.317836      -280.7626
   5   2.0000     -10.308068      -280.4968
   6   2.0000     -10.302582      -280.3475
   7   2.0000     -10.299527      -280.2644
   8   2.0000     -10.294289      -280.1218
   9   2.0000     -10.294045      -280.1152
  10   2.0000     -10.289549      -279.9929
  11   2.0000     -10.287212      -279.9293
  12   2.0000     -10.286670      -279.9145
  13   2.0000     -10.286071      -279.8982
  14   2.0000     -10.284206      -279.8475
  15   2.0000     -10.283572      -279.8302
  16   2.0000      -8.077354      -219.7960
  17   2.0000      -8.076959      -219.7852
  18   2.0000      -6.036033      -164.2488
  19   2.0000      -6.035674      -164.2390
  20   2.0000      -6.032084      -164.1413
  21   2.0000      -6.031578      -164.1276
  22   2.0000      -6.027857      -164.0263
  23   2.0000      -6.027352      -164.0126
  24   2.0000      -1.012850       -27.5610
  25   2.0000      -0.985354       -26.8128
  26   2.0000      -0.919686       -25.0259
  27   2.0000      -0.903496       -24.5854
  28   2.0000      -0.882457       -24.0129
  29   2.0000      -0.851107       -23.1598
  30   2.0000      -0.844545       -22.9812
  31   2.0000      -0.820539       -22.3280
  32   2.0000      -0.787569       -21.4308
  33   2.0000      -0.774890       -21.0858
  34   2.0000      -0.715723       -19.4758
  35   2.0000      -0.698866       -19.0171
  36   2.0000      -0.692493       -18.8437
  37   2.0000      -0.663632       -18.0584
  38   2.0000      -0.648143       -17.6369
  39   2.0000      -0.620235       -16.8775
  40   2.0000      -0.595260       -16.1978
  41   2.0000      -0.573927       -15.6173
  42   2.0000      -0.569912       -15.5081
  43   2.0000      -0.565122       -15.3777
  44   2.0000      -0.536041       -14.5864
  45   2.0000      -0.527628       -14.3575
  46   2.0000      -0.520602       -14.1663
  47   2.0000      -0.511243       -13.9116
  48   2.0000      -0.503128       -13.6908
  49   2.0000      -0.501688       -13.6516
  50   2.0000      -0.494994       -13.4695
  51   2.0000      -0.483572       -13.1587
  52   2.0000      -0.476811       -12.9747
  53   2.0000      -0.471661       -12.8345
  54   2.0000      -0.458401       -12.4737
  55   2.0000      -0.455662       -12.3992
  56   2.0000      -0.441348       -12.0097
  57   2.0000      -0.436014       -11.8646
  58   2.0000      -0.428676       -11.6649
  59   2.0000      -0.425287       -11.5727
  60   2.0000      -0.419648       -11.4192
  61   2.0000      -0.410740       -11.1768
  62   2.0000      -0.407405       -11.0861
  63   2.0000      -0.351717        -9.5707
  64   2.0000      -0.331051        -9.0084
  65   2.0000      -0.327497        -8.9116
  66   2.0000      -0.294735        -8.0201
  67   0.0000       0.030930         0.8417
  68   0.0000       0.069191         1.8828
  69   0.0000       0.107089         2.9140
  70   0.0000       0.118926         3.2361
  71   0.0000       0.130883         3.5615

MULLIKEN ATOMIC CHARGES
-----------------------
   0 S :    0.099068
   1 C :   -0.105898
   2 C :   -0.067870
   3 C :    0.030955
   4 C :   -0.141524
   5 H :   -0.041288
   6 C :    0.111917
   7 H :    0.017350
   8 H :    0.033257
   9 C :   -0.119483
  10 H :    0.041268
  11 H :    0.030010
  12 C :   -0.056751
  13 H :    0.036351
  14 H :    0.034729
  15 H :    0.042855
  16 S :    0.098846
  17 C :   -0.104226
  18 C :   -0.021854
  19 C :   -0.036112
  20 C :   -0.138564
  21 H :    0.015718
  22 C :    0.108777
  23 H :    0.017871
  24 H :    0.007884
  25 C :   -0.101718
  26 H :    0.023798
  27 H :    0.031227
  28 C :   -0.043480
  29 H :    0.026320
  30 H :    0.038566
  31 H :    0.040501
  32 H :    0.023073
  33 H :    0.068427
Sum of atomic charges:    0.0000000

LOEWDIN ATOMIC CHARGES
----------------------
   0 S :    0.388562
   1 C :   -0.174149
   2 C :   -0.054816
   3 C :   -0.057973
   4 C :   -0.202813
   5 H :    0.016525
   6 C :   -0.029028
   7 H :    0.026374
   8 H :    0.034990
   9 C :   -0.053574
  10 H :    0.027810
  11 H :    0.027502
  12 C :   -0.071549
  13 H :    0.025878
  14 H :    0.025661
  15 H :    0.040879
  16 S :    0.375394
  17 C :   -0.172957
  18 C :   -0.072668
  19 C :   -0.053238
  20 C :   -0.180825
  21 H :    0.032679
  22 C :   -0.028155
  23 H :    0.025906
  24 H :    0.028937
  25 C :   -0.039205
  26 H :    0.020382
  27 H :    0.022836
  28 C :   -0.063371
  29 H :    0.030319
  30 H :    0.029679
  31 H :    0.017014
  32 H :    0.019436
  33 H :    0.037559

  Mayer bond orders larger than 0.100000
B(  0-S ,  1-C ) :   1.1178 B(  0-S ,  4-C ) :   1.1064 B(  1-C ,  2-C ) :   1.6695
B(  1-C , 32-H ) :   0.9673 B(  2-C ,  3-C ) :   1.2006 B(  2-C ,  6-C ) :   1.0014
B(  3-C ,  4-C ) :   1.6377 B(  3-C ,  5-H ) :   0.9922 B(  4-C , 20-C ) :   1.0730
B(  6-C ,  7-H ) :   0.9265 B(  6-C ,  8-H ) :   0.9452 B(  6-C ,  9-C ) :   1.0625
B(  9-C , 10-H ) :   0.9524 B(  9-C , 11-H ) :   0.9530 B(  9-C , 12-C ) :   1.0900
B( 12-C , 13-H ) :   0.9724 B( 12-C , 14-H ) :   0.9735 B( 12-C , 15-H ) :   0.9730
B( 16-S , 17-C ) :   1.1455 B( 16-S , 20-C ) :   1.1028 B( 17-C , 18-C ) :   1.6292
B( 17-C , 33-H ) :   0.9597 B( 18-C , 19-C ) :   1.2245 B( 18-C , 21-H ) :   0.9941
B( 19-C , 20-C ) :   1.6093 B( 19-C , 22-C ) :   1.0555 B( 22-C , 23-H ) :   0.9313
B( 22-C , 24-H ) :   0.9261 B( 22-C , 25-C ) :   1.0523 B( 25-C , 26-H ) :   0.9565
B( 25-C , 27-H ) :   0.9523 B( 25-C , 28-C ) :   1.0795 B( 28-C , 29-H ) :   0.9730
B( 28-C , 30-H ) :   0.9753 B( 28-C , 31-H ) :   0.9792

Dispersion correction           -0.014625196
FINAL SINGLE POINT ENERGY     -1339.859254692093

DIPOLE MOMENT
-------------
                                X             Y             Z
Electronic contribution:     20.10653      23.31966     -12.87696
Nuclear contribution   :    -20.74613     -23.78441      13.22469
                        -----------------------------------------
Total Dipole Moment    :     -0.63960      -0.46475       0.34774
                        -----------------------------------------
Magnitude (a.u.)       :      0.86371
Magnitude (Debye)      :      2.19539

Rotational constants in cm-1:     0.016610     0.010046     0.006968
Rotational constants in MHz :   497.944776   301.176163   208.901606

                             ****ORCA TERMINATED NORMALLY****
TOTAL RUN TIME: 0 days 0 hours 0 minutes 34 seconds 69 msec
